Title
42788
    1SAPS     N    1   5.890   3.759   6.474  0.5599 -0.2083 -0.1269
    1SAPS   HN1    2   5.813   3.717   6.419 -0.9772  0.8364  1.1138
    1SAPS   HN2    3   5.927   3.673   6.519  0.1857 -0.5030 -0.3870
    1SAPS   HN3    4   5.846   3.824   6.543  0.4107 -0.6619  0.2061
    1SAPS   C12    5   6.004   3.828   6.403 -0.4667  0.2815 -0.2051
    1SAPS  H12A    6   5.976   3.922   6.358  0.4148 -0.2963 -2.0683
    1SAPS   C13    7   6.136   3.874   6.482 -0.1224 -0.5803 -0.2211
    1SAPS  O13A    8   6.118   3.888   6.606  1.0311 -0.0530  0.0265
    1SAPS  O13B    9   6.219   3.948   6.422 -0.0911  0.0952 -0.0235
    1SAPS   C11   10   6.053   3.744   6.276 -0.0122 -0.0448  0.3105
    1SAPS  H11A   11   6.113   3.653   6.299 -0.2809 -0.4251 -0.4635
    1SAPS  H11B   12   6.122   3.822   6.236  1.9798 -1.3311  1.0525
    1SAPS     P   13   5.883   3.823   6.089 -0.3731  0.0794 -0.4175
    1SAPS   O13   14   5.796   3.763   5.990 -0.4496  0.1454 -0.8261
    1SAPS   O14   15   5.837   3.946   6.156  0.0627  0.5052 -0.6166
    1SAPS   O12   16   5.939   3.716   6.195 -0.2605 -0.2420 -0.3408
    1SAPS   O11   17   6.017   3.855   6.014  0.4145  0.2582  0.9700
    1SAPS    C1   18   6.094   3.751   5.948  0.1525  0.3640  0.5759
    1SAPS    HA   19   6.199   3.786   5.942 -0.1709  1.3833  0.5860
    1SAPS    HB   20   6.097   3.659   6.011  0.4471  0.8050  1.2166
    1SAPS    C2   21   6.053   3.745   5.791 -0.3139 -0.1687 -0.4469
    1SAPS    HS   22   5.944   3.726   5.777 -0.4456 -0.1823  0.5555
    1SAPS   O21   23   6.134   3.654   5.714 -0.2730 -0.3606  0.2463
    1SAPS   C21   24   6.101   3.524   5.728 -0.7506 -0.0662 -0.1596
    1SAPS   O22   25   6.012   3.481   5.797 -0.5397  0.1907  0.1409
    1SAPS   C22   26   6.199   3.442   5.644 -0.1206  0.5230  0.4599
    1SAPS   H2R   27   6.263   3.509   5.583  0.1033  0.9676  1.1678
    1SAPS   H2S   28   6.268   3.402   5.721  3.7966  2.5866 -1.6696
    1SAPS    C3   29   6.082   3.888   5.740  0.4745  0.1852  0.1665
    1SAPS    HX   30   6.189   3.903   5.765  0.2220  2.4946  0.1139
    1SAPS    HY   31   6.031   3.977   5.784  0.2620  1.7081 -2.8989
    1SAPS   O31   32   6.074   3.891   5.595 -0.3166  0.0877  0.3620
    1SAPS   C31   33   5.956   3.882   5.539 -0.0509 -0.0995 -0.5511
    1SAPS   O32   34   5.849   3.873   5.599  0.0265  0.3862  0.0082
    1SAPS   C32   35   5.977   3.870   5.389  0.6573  0.3675  0.5117
    1SAPS   H2X   36   6.060   3.800   5.369  0.8714  1.2022 -1.8991
    1SAPS   H2Y   37   6.003   3.973   5.357 -1.3033  0.8749  0.4085
    1SAPS   C23   38   6.150   3.321   5.552 -0.1641  0.6647 -0.6048
    1SAPS   H3R   39   6.096   3.366   5.466 -1.8708  0.8366  0.4999
    1SAPS   H3S   40   6.076   3.263   5.611  1.7718  1.1719  2.5205
    1SAPS   C24   41   6.257   3.228   5.490 -0.1883 -0.6607  0.4427
    1SAPS   H4R   42   6.308   3.171   5.570 -1.0849 -0.7458  0.9582
    1SAPS   H4S   43   6.331   3.296   5.442 -1.3986  0.4868  0.1677
    1SAPS   C25   44   6.198   3.126   5.401 -0.2068  0.1992 -0.4547
    1SAPS   H5R   45   6.143   3.042   5.446 -0.2558  0.3112 -0.3038
    1SAPS   C26   46   6.191   3.139   5.267 -0.3332 -0.4921  0.4327
    1SAPS   H6R   47   6.139   3.054   5.221 -0.8345  0.3885 -0.6727
    1SAPS   C27   48   6.250   3.244   5.174 -0.2110  0.1992  0.2397
    1SAPS   H7R   49   6.361   3.241   5.180 -0.2291 -1.3548  0.1487
    1SAPS   H7S   50   6.216   3.344   5.209  2.3779  1.6272 -0.9767
    1SAPS   C28   51   6.209   3.216   5.028  0.1055  0.3663  0.1365
    1SAPS   H8R   52   6.101   3.221   5.009 -0.1315  0.3868  1.4098
    1SAPS   C29   53   6.281   3.174   4.924 -0.3730 -0.1732  0.1698
    1SAPS   H9R   54   6.234   3.158   4.826 -0.1113 -0.8749  0.1475
    1SAPS  C210   55   6.434   3.148   4.929 -0.5399  0.1142 -0.2664
    1SAPS  H10R   56   6.465   3.155   5.036  0.4255  1.5620 -0.6098
    1SAPS  H10S   57   6.488   3.231   4.880 -0.6701 -0.7362 -1.9193
    1SAPS  C211   58   6.499   3.025   4.878  0.9257  0.2532 -0.7982
    1SAPS  H11R   59   6.554   2.965   4.953  0.5445 -0.2709 -0.9317
    1SAPS  C212   60   6.528   3.013   4.750 -0.6229  0.3858  0.0148
    1SAPS  H12R   61   6.575   2.919   4.719 -1.6855 -0.6859  1.5046
    1SAPS  C213   62   6.483   3.097   4.627  0.2516 -0.1884 -0.1525
    1SAPS  H13R   63   6.573   3.137   4.574 -0.5108  0.0087 -1.3262
    1SAPS  H13S   64   6.432   3.189   4.664 -0.2295 -1.2884  2.1390
    1SAPS  C214   65   6.417   3.004   4.527  0.7575 -0.3347  0.1558
    1SAPS  H14R   66   6.480   2.926   4.481  1.2340 -0.4115  0.9273
    1SAPS  C215   67   6.287   3.006   4.488 -0.3049  0.0148  0.6080
    1SAPS  H15R   68   6.250   2.941   4.407  0.8237  2.8585 -2.4059
    1SAPS  C216   69   6.183   3.104   4.537  0.5041 -0.2929  0.5362
    1SAPS  H16R   70   6.195   3.103   4.647  0.0209  3.0402  0.7014
    1SAPS  H16S   71   6.078   3.072   4.518  0.5751  0.0811 -0.5880
    1SAPS  C217   72   6.199   3.247   4.478 -0.3463 -0.0038  0.1330
    1SAPS  H17R   73   6.187   3.235   4.368  2.3246 -2.0193 -0.0538
    1SAPS  H17S   74   6.297   3.279   4.520 -1.1031  1.0171  1.1720
    1SAPS  C218   75   6.096   3.349   4.533  0.1916  0.4117  0.0785
    1SAPS  H18R   76   6.111   3.344   4.643 -2.1465 -2.2374  0.3768
    1SAPS  H18S   77   5.994   3.312   4.510  0.6287 -0.4376 -0.5300
    1SAPS  C219   78   6.115   3.492   4.481 -0.5540  0.0245 -0.5537
    1SAPS  H19R   79   6.216   3.497   4.436  0.7390 -0.6430  2.0787
    1SAPS  H19S   80   6.112   3.558   4.570 -1.4828 -0.8318  0.0835
    1SAPS  C220   81   6.019   3.539   4.371  0.3470  0.1887 -0.7373
    1SAPS  H20R   82   6.021   3.464   4.290 -2.2175 -1.3090  0.4577
    1SAPS  H20S   83   6.037   3.641   4.330 -1.3756  0.1482 -1.6758
    1SAPS  H20T   84   5.919   3.539   4.421 -0.1234  1.9352 -1.5813
    1SAPS   C33   85   5.855   3.833   5.303 -0.4605 -0.0008 -0.1566
    1SAPS   H3X   86   5.782   3.793   5.377  0.3309  0.9886  1.1848
    1SAPS   H3Y   87   5.882   3.752   5.232  0.0862  0.2503 -0.2345
    1SAPS   C34   88   5.792   3.944   5.219  0.7592 -0.3346 -0.1355
    1SAPS   H4X   89   5.701   3.914   5.163 -0.7754  1.1117  1.4428
    1SAPS   H4Y   90   5.876   3.975   5.153 -0.3568 -0.3540 -1.6331
    1SAPS   C35   91   5.742   4.064   5.296  0.5270  0.0940  0.0537
    1SAPS   H5X   92   5.828   4.119   5.340 -0.3885  1.6106 -0.0062
    1SAPS   H5Y   93   5.667   4.039   5.374 -0.5276 -2.7850 -1.7098
    1SAPS   C36   94   5.674   4.176   5.203  0.1898  0.3491 -0.0452
    1SAPS   H6X   95   5.670   4.272   5.259 -0.1382  0.1075  0.3506
    1SAPS   H6Y   96   5.571   4.138   5.187  0.9409 -2.1875  0.6210
    1SAPS   C37   97   5.753   4.204   5.075  0.2788 -0.9467 -0.2091
    1SAPS   H7X   98   5.744   4.124   4.999 -0.2257 -1.8731  0.7933
    1SAPS   H7Y   99   5.862   4.198   5.098  1.1941  0.3401 -3.6428
    1SAPS   C38  100   5.726   4.347   5.015 -0.5468 -0.9095  0.4844
    1SAPS   H8X  101   5.764   4.421   5.090  0.4790 -2.1820  1.2640
    1SAPS   H8Y  102   5.617   4.359   5.000 -0.6226  1.5141  2.3354
    1SAPS   C39  103   5.797   4.376   4.882 -0.2302  0.1057 -0.4297
    1SAPS   H9X  104   5.744   4.312   4.808 -0.9009 -0.5250  0.5586
    1SAPS   H9Y  105   5.900   4.337   4.889  0.3957  1.8172  0.4402
    1SAPS  C310  106   5.798   4.525   4.839 -0.3597  1.0757  0.0964
    1SAPS  H10X  107   5.835   4.585   4.925 -0.5240  0.6906  0.4322
    1SAPS  H10Y  108   5.700   4.564   4.803 -0.8302 -0.4754 -0.3720
    1SAPS  C311  109   5.910   4.556   4.733  0.8256  0.0257 -0.2831
    1SAPS  H11X  110   5.898   4.664   4.709 -0.2372  0.3820  1.6135
    1SAPS  H11Y  111   5.878   4.503   4.640  0.6882 -1.4225  0.5496
    1SAPS  C312  112   6.058   4.517   4.769 -0.0982  0.0614 -0.7222
    1SAPS  H12X  113   6.075   4.407   4.771  0.2840  0.1182  1.0700
    1SAPS  H12Y  114   6.089   4.553   4.870  0.5385 -1.5624 -0.3065
    1SAPS  C313  115   6.154   4.573   4.671 -0.3027  0.0139  0.6884
    1SAPS  H13X  116   6.181   4.676   4.704  1.5894 -0.1869 -0.1181
    1SAPS  H13Y  117   6.103   4.580   4.573  0.8477 -0.5992  0.0238
    1SAPS  C314  118   6.293   4.494   4.656  0.4676 -0.7510 -0.4795
    1SAPS  H14X  119   6.337   4.482   4.758 -1.8740 -2.1524  0.4530
    1SAPS  H14Y  120   6.354   4.561   4.591 -2.6249  1.1342 -1.6365
    1SAPS  C315  121   6.285   4.352   4.602  0.1480  0.6416  0.3148
    1SAPS  H15X  122   6.226   4.278   4.659  0.4064  0.6248  0.5601
    1SAPS  H15Y  123   6.384   4.306   4.617 -0.0957 -0.6762 -1.7543
    1SAPS  C316  124   6.261   4.345   4.460 -0.2016  0.0023  0.3835
    1SAPS  H16X  125   6.344   4.389   4.400 -1.1966  0.2743 -0.8449
    1SAPS  H16Y  126   6.174   4.407   4.426  1.9166  0.3337 -5.8539
    1SAPS  C317  127   6.247   4.204   4.401 -0.1604 -0.2074 -0.7790
    1SAPS  H17X  128   6.240   4.215   4.290 -0.3307 -1.8040 -0.9473
    1SAPS  H17Y  129   6.149   4.164   4.435 -2.2639  4.9553  0.2747
    1SAPS  C318  130   6.365   4.110   4.434 -0.4609  0.4194  0.6192
    1SAPS  H18X  131   6.458   4.156   4.396 -0.5594  1.0948  1.1584
    1SAPS  H18Y  132   6.354   4.027   4.362 -1.0505  0.3243  0.8170
    1SAPS  H18Z  133   6.378   4.070   4.537  0.7482 -2.8996 -0.7147
    2SAPS     N  134   6.833   4.421   6.424 -0.0498 -0.3194  0.4521
    2SAPS   HN1  135   6.789   4.464   6.341  0.7436  0.7718  0.5784
    2SAPS   HN2  136   6.935   4.412   6.405  0.2385  2.3805  0.2814
    2SAPS   HN3  137   6.804   4.321   6.425  0.9228 -0.6230 -0.1796
    2SAPS   C12  138   6.783   4.498   6.537  0.6286  0.8707  0.6673
    2SAPS  H12A  139   6.680   4.475   6.557  0.6305  0.0038 -0.2573
    2SAPS   C13  140   6.856   4.478   6.671 -0.0135 -0.2520  0.3420
    2SAPS  O13A  141   6.951   4.399   6.682 -0.1150  0.1845 -0.0390
    2SAPS  O13B  142   6.800   4.523   6.775  0.0964  1.1139 -0.2344
    2SAPS   C11  143   6.784   4.649   6.508  0.1376  0.0853  0.2184
    2SAPS  H11A  144   6.888   4.680   6.533  1.1716 -3.9448  1.5861
    2SAPS  H11B  145   6.724   4.706   6.583 -1.6765  1.2093 -1.9656
    2SAPS     P  146   6.762   4.840   6.324  0.0324 -0.0033  0.0034
    2SAPS   O13  147   6.808   4.930   6.440  0.2584 -0.1523 -0.2658
    2SAPS   O14  148   6.842   4.844   6.200  0.2178 -0.3468  0.1940
    2SAPS   O12  149   6.760   4.688   6.371 -0.3637 -0.3405 -0.0980
    2SAPS   O11  150   6.612   4.886   6.293 -0.3174  0.8519 -0.7926
    2SAPS    C1  151   6.517   4.781   6.274  0.1434 -0.9204 -0.1259
    2SAPS    HA  152   6.524   4.710   6.359  1.9689  1.3831  1.7767
    2SAPS    HB  153   6.423   4.840   6.282  1.0476  0.6378 -0.6575
    2SAPS    C2  154   6.512   4.717   6.131 -0.0849  0.6748 -0.1717
    2SAPS    HS  155   6.597   4.645   6.136 -2.0058 -1.7708 -0.5878
    2SAPS   O21  156   6.526   4.816   6.028 -0.0521  0.1028 -0.2184
    2SAPS   C21  157   6.608   4.801   5.938 -0.9196  0.4167  0.1662
    2SAPS   O22  158   6.684   4.701   5.922 -0.6856 -0.9134  0.4482
    2SAPS   C22  159   6.619   4.936   5.857 -0.2062  0.3683  0.0164
    2SAPS   H2R  160   6.614   5.022   5.928 -2.8366 -0.6089  1.1370
    2SAPS   H2S  161   6.719   4.924   5.812 -1.0203 -1.5235 -1.4238
    2SAPS    C3  162   6.378   4.636   6.106  0.3317 -0.3712  1.0468
    2SAPS    HX  163   6.290   4.703   6.122  0.4825  0.8508 -2.4413
    2SAPS    HY  164   6.367   4.569   6.194 -1.7298  0.7138  1.6784
    2SAPS   O31  165   6.359   4.567   5.986 -0.4349 -0.3589  0.5338
    2SAPS   C31  166   6.446   4.466   5.977  0.4502  0.0786 -0.4107
    2SAPS   O32  167   6.522   4.428   6.064  0.0146  0.2405 -0.3373
    2SAPS   C32  168   6.442   4.403   5.843  0.3931 -0.5140 -0.1421
    2SAPS   H2X  169   6.476   4.469   5.761  1.5641  1.0174  1.5035
    2SAPS   H2Y  170   6.336   4.378   5.821  0.1148  1.3412 -1.0959
    2SAPS   C23  171   6.521   4.957   5.743 -0.1859 -0.0594 -0.8122
    2SAPS   H3R  172   6.423   4.965   5.796 -0.3455 -2.8384 -0.5792
    2SAPS   H3S  173   6.518   4.877   5.667 -0.1256  1.3263 -2.3319
    2SAPS   C24  174   6.560   5.091   5.663  0.3930  0.4737 -0.0102
    2SAPS   H4R  175   6.569   5.171   5.739  2.4491 -0.8311  1.2197
    2SAPS   H4S  176   6.480   5.113   5.590 -1.0115  0.0313  1.3518
    2SAPS   C25  177   6.694   5.081   5.599  0.2448 -0.7734 -0.8276
    2SAPS   H5R  178   6.779   5.063   5.666  1.1151 -1.2900 -2.0389
    2SAPS   C26  179   6.707   5.072   5.466 -1.2335 -0.3143  0.4376
    2SAPS   H6R  180   6.811   5.055   5.435 -1.8054  1.3008 -2.7661
    2SAPS   C27  181   6.596   5.068   5.363  0.6228 -0.5856  0.1527
    2SAPS   H7R  182   6.505   5.019   5.405  0.0341  0.4304  0.0929
    2SAPS   H7S  183   6.630   5.010   5.274 -0.7874  0.4207 -1.1021
    2SAPS   C28  184   6.552   5.206   5.313 -0.6080  0.4646 -0.5636
    2SAPS   H8R  185   6.540   5.278   5.396 -1.9393  0.4644 -0.7361
    2SAPS   C29  186   6.510   5.227   5.190  0.0560 -0.1509 -0.0715
    2SAPS   H9R  187   6.480   5.332   5.175  2.2378  0.7358  1.3952
    2SAPS  C210  188   6.514   5.133   5.072  0.3957  0.4825 -0.0733
    2SAPS  H10R  189   6.465   5.041   5.111  0.8692  0.2716  0.0289
    2SAPS  H10S  190   6.620   5.100   5.067  1.4512  3.5664  0.3297
    2SAPS  C211  191   6.461   5.191   4.943 -0.2006  0.5430 -0.0263
    2SAPS  H11R  192   6.396   5.280   4.949  0.2145  1.1014 -2.6135
    2SAPS  C212  193   6.501   5.138   4.819  0.1502  0.1953 -0.0880
    2SAPS  H12R  194   6.451   5.179   4.731 -0.3174  1.8176  0.8915
    2SAPS  C213  195   6.583   5.011   4.800 -0.6383 -0.1074  0.1816
    2SAPS  H13R  196   6.671   5.009   4.867  0.2013  2.6215 -0.6942
    2SAPS  H13S  197   6.625   5.024   4.697  1.5103 -2.0856  0.7183
    2SAPS  C214  198   6.493   4.884   4.804 -0.1741  0.0863  0.1165
    2SAPS  H14R  199   6.395   4.904   4.759  0.1310  0.1406 -0.5342
    2SAPS  C215  200   6.530   4.757   4.826 -0.3372  0.0810  0.6560
    2SAPS  H15R  201   6.457   4.676   4.827  0.0246 -0.2938 -0.8277
    2SAPS  C216  202   6.673   4.711   4.867  0.3303  0.0508 -0.0540
    2SAPS  H16R  203   6.668   4.691   4.976 -4.0296 -0.6762 -0.2083
    2SAPS  H16S  204   6.751   4.786   4.844  1.7609 -1.6343 -0.8825
    2SAPS  C217  205   6.727   4.587   4.797  0.1784 -0.5123  0.2077
    2SAPS  H17R  206   6.831   4.571   4.834 -0.3185 -0.4823  1.6691
    2SAPS  H17S  207   6.723   4.611   4.688 -0.4163  0.2073  0.3810
    2SAPS  C218  208   6.641   4.460   4.802  0.6296  0.1185  0.4484
    2SAPS  H18R  209   6.535   4.485   4.777  0.1142 -0.0659  2.3252
    2SAPS  H18S  210   6.630   4.425   4.907 -0.7996  0.8645  0.5746
    2SAPS  C219  211   6.692   4.347   4.712  0.2794  0.3429 -0.3096
    2SAPS  H19R  212   6.631   4.258   4.738  1.0456  0.4575  2.1482
    2SAPS  H19S  213   6.798   4.321   4.736  0.3019  0.8216  0.1377
    2SAPS  C220  214   6.676   4.371   4.567 -0.0713  0.4908 -0.4230
    2SAPS  H20R  215   6.749   4.451   4.540 -1.1687  0.7391 -2.8369
    2SAPS  H20S  216   6.575   4.400   4.532  1.0307  2.3240 -2.3022
    2SAPS  H20T  217   6.711   4.287   4.503 -0.2654  0.9276 -1.1089
    2SAPS   C33  218   6.538   4.278   5.836 -0.0702  0.3180 -1.1366
    2SAPS   H3X  219   6.493   4.195   5.895  1.3046  0.0348 -0.4645
    2SAPS   H3Y  220   6.639   4.300   5.875 -0.9317 -0.5459  1.8800
    2SAPS   C34  221   6.554   4.223   5.696  0.6977 -0.1650 -0.7722
    2SAPS   H4X  222   6.632   4.144   5.689  0.1454 -0.8121  0.1437
    2SAPS   H4Y  223   6.587   4.299   5.622 -0.5067 -1.4011 -2.6743
    2SAPS   C35  224   6.429   4.150   5.651 -0.0685  0.2924 -0.0187
    2SAPS   H5X  225   6.336   4.210   5.656 -1.8485 -2.4013  1.7595
    2SAPS   H5Y  226   6.417   4.053   5.702  0.1964  1.4335  2.3599
    2SAPS   C36  227   6.438   4.105   5.508 -0.6928 -0.2819  0.1145
    2SAPS   H6X  228   6.531   4.049   5.486  0.3184  2.0950 -2.1205
    2SAPS   H6Y  229   6.449   4.194   5.443 -1.4970 -1.2852 -1.4568
    2SAPS   C37  230   6.309   4.027   5.458 -0.2287  0.2169  0.1134
    2SAPS   H7X  231   6.211   4.079   5.464 -0.0123  0.7723 -0.9374
    2SAPS   H7Y  232   6.304   3.928   5.508  0.4003 -1.7079 -3.3577
    2SAPS   C38  233   6.323   3.984   5.308  0.0923 -0.0834 -0.1914
    2SAPS   H8X  234   6.226   3.940   5.276 -0.4073  0.7264  0.1805
    2SAPS   H8Y  235   6.406   3.912   5.291  0.6369  0.6665 -0.7776
    2SAPS   C39  236   6.352   4.092   5.207 -0.0075 -0.2946 -0.3862
    2SAPS   H9X  237   6.436   4.153   5.246 -0.6762  0.5692 -0.2812
    2SAPS   H9Y  238   6.272   4.167   5.191  1.8109  1.6964 -0.6351
    2SAPS  C310  239   6.394   4.039   5.070 -0.2313 -0.1069  0.7779
    2SAPS  H10X  240   6.453   3.945   5.072 -0.9011 -0.5371  0.4773
    2SAPS  H10Y  241   6.463   4.110   5.020  1.1785 -1.6665  0.4239
    2SAPS  C311  242   6.275   4.000   4.982  0.6944  0.2165 -0.2307
    2SAPS  H11X  243   6.217   3.938   5.053  2.4640 -0.1079  1.0119
    2SAPS  H11Y  244   6.311   3.941   4.895  2.4316  0.3434  0.3587
    2SAPS  C312  245   6.192   4.125   4.932 -0.1574 -0.4853 -0.2368
    2SAPS  H12X  246   6.262   4.208   4.906  1.2086 -1.8790 -1.1738
    2SAPS  H12Y  247   6.135   4.161   5.021  1.6851 -0.0724  0.8349
    2SAPS  C313  248   6.109   4.099   4.806  0.1700  0.5641  0.6534
    2SAPS  H13X  249   6.172   4.062   4.722 -0.6994 -1.0293  0.6527
    2SAPS  H13Y  250   6.061   4.191   4.766  2.5640  1.2616 -0.7819
    2SAPS  C314  251   6.000   3.992   4.833  0.3550  0.5062 -0.3870
    2SAPS  H14X  252   5.952   4.008   4.932 -1.4325 -2.2921 -0.6862
    2SAPS  H14Y  253   6.044   3.891   4.839  0.0064  0.4399  1.6069
    2SAPS  C315  254   5.887   3.984   4.728  0.2173 -0.8477 -0.5121
    2SAPS  H15X  255   5.850   4.088   4.720 -1.1813 -1.1802  0.9768
    2SAPS  H15Y  256   5.808   3.924   4.779  0.1511 -0.3506 -0.0311
    2SAPS  C316  257   5.925   3.914   4.600  0.2036  0.0281 -0.3870
    2SAPS  H16X  258   5.995   3.830   4.617 -0.3660 -0.5326 -0.7923
    2SAPS  H16Y  259   5.972   3.985   4.528 -1.0022 -1.3328 -2.6202
    2SAPS  C317  260   5.805   3.870   4.521  1.1867  0.2176 -0.1339
    2SAPS  H17X  261   5.752   3.794   4.582 -0.1009  2.1686  1.2891
    2SAPS  H17Y  262   5.828   3.818   4.425  0.8126 -1.2280  0.5300
    2SAPS  C318  263   5.715   3.991   4.499  0.2583 -0.5679  0.2456
    2SAPS  H18X  264   5.659   4.020   4.590 -0.1274 -2.4947  0.6474
    2SAPS  H18Y  265   5.633   3.973   4.426 -0.5631  1.1914  0.6568
    2SAPS  H18Z  266   5.765   4.078   4.451 -1.8675  0.8184  0.3856
    3SAPS     N  267   5.617   4.038   6.326  0.0409 -0.4254 -0.1257
    3SAPS   HN1  268   5.693   4.107   6.341  2.0775 -2.7906  1.2809
    3SAPS   HN2  269   5.670   3.958   6.285 -1.0270 -1.0262 -0.3724
    3SAPS   HN3  270   5.542   4.077   6.265  1.0203  1.7118 -0.0582
    3SAPS   C12  271   5.550   4.009   6.454  0.2430  0.2174  0.4836
    3SAPS  H12A  272   5.503   3.913   6.437 -1.2419  0.6004  2.1376
    3SAPS   C13  273   5.627   3.975   6.585 -0.2001 -0.0464  0.1924
    3SAPS  O13A  274   5.751   3.970   6.583  0.3436 -0.2944  0.6596
    3SAPS  O13B  275   5.561   3.954   6.690  0.2070 -0.1538 -0.1649
    3SAPS   C11  276   5.448   4.115   6.500 -0.5836 -0.4232 -0.2045
    3SAPS  H11A  277   5.501   4.210   6.521 -2.4533  0.7517 -0.5764
    3SAPS  H11B  278   5.400   4.082   6.595 -2.1675  1.6741 -0.2077
    3SAPS     P  279   5.250   4.253   6.413 -0.1187  0.2167 -0.2102
    3SAPS   O13  280   5.139   4.238   6.320 -0.3529  0.3289  0.3532
    3SAPS   O14  281   5.207   4.270   6.555 -0.1334  0.0414  0.1216
    3SAPS   O12  282   5.354   4.134   6.391 -0.0345 -0.7154 -0.7008
    3SAPS   O11  283   5.342   4.382   6.382  0.3336 -0.1357  0.5314
    3SAPS    C1  284   5.438   4.387   6.277  0.9321  0.0172  0.0860
    3SAPS    HA  285   5.484   4.488   6.274 -0.1115  0.4850 -0.4759
    3SAPS    HB  286   5.523   4.317   6.297  0.3400 -0.4553  1.0369
    3SAPS    C2  287   5.369   4.375   6.128  0.4049 -0.6637 -0.6168
    3SAPS    HS  288   5.326   4.274   6.108 -0.5436 -0.8697  2.0294
    3SAPS   O21  289   5.478   4.401   6.039 -0.3647  0.2015  0.0992
    3SAPS   C21  290   5.569   4.299   6.031 -0.2324 -0.3709  0.0474
    3SAPS   O22  291   5.557   4.191   6.089  0.3168  0.0281  0.3498
    3SAPS   C22  292   5.675   4.331   5.924 -0.2385 -0.0116 -0.3852
    3SAPS   H2R  293   5.640   4.396   5.841  3.3380  0.6680 -1.5477
    3SAPS   H2S  294   5.761   4.375   5.979 -0.7042  0.9991 -0.4595
    3SAPS    C3  295   5.250   4.483   6.104 -0.4466 -0.4076  0.1917
    3SAPS    HX  296   5.280   4.588   6.120 -2.7335  0.6639 -1.9607
    3SAPS    HY  297   5.178   4.466   6.187 -1.7516 -0.9374 -1.0088
    3SAPS   O31  298   5.179   4.471   5.975  0.2454  0.1400 -0.2895
    3SAPS   C31  299   5.055   4.519   5.969 -0.0578 -0.0265 -1.5207
    3SAPS   O32  300   4.994   4.570   6.066 -0.3883  0.4857  0.5647
    3SAPS   C32  301   4.985   4.490   5.842  0.1786 -0.0689  0.0319
    3SAPS   H2X  302   4.887   4.444   5.867  0.5275 -0.3057  1.0318
    3SAPS   H2Y  303   5.042   4.403   5.803  3.1222 -0.9905  5.3611
    3SAPS   C23  304   5.719   4.198   5.859 -0.0484 -0.3049 -0.4494
    3SAPS   H3R  305   5.633   4.135   5.831 -0.9049 -0.1855  1.7007
    3SAPS   H3S  306   5.768   4.140   5.940 -0.1747  1.2460  0.7896
    3SAPS   C24  307   5.813   4.208   5.732  0.1813 -0.2556  0.2876
    3SAPS   H4R  308   5.758   4.239   5.641  0.2517 -4.4742 -1.3897
    3SAPS   H4S  309   5.840   4.102   5.712 -0.2477 -0.4934  0.9230
    3SAPS   C25  310   5.939   4.295   5.747 -0.3596 -0.0598 -0.1184
    3SAPS   H5R  311   5.999   4.278   5.837 -0.6839  1.5821  0.4460
    3SAPS   C26  312   5.999   4.375   5.662  0.2394  0.0423 -0.0838
    3SAPS   H6R  313   6.096   4.414   5.696  0.5750 -2.2861  1.9503
    3SAPS   C27  314   5.945   4.421   5.531  0.1422  0.8340 -0.0478
    3SAPS   H7R  315   5.972   4.528   5.521  0.9667  0.6557  0.2637
    3SAPS   H7S  316   5.833   4.422   5.530  0.0965 -0.6332  0.6664
    3SAPS   C28  317   5.999   4.330   5.418 -0.1490  0.2955 -0.5748
    3SAPS   H8R  318   5.990   4.222   5.440 -0.4138  0.3753 -0.2853
    3SAPS   C29  319   6.077   4.363   5.314 -0.5420 -0.5178 -0.0694
    3SAPS   H9R  320   6.131   4.289   5.252  1.8463  0.5880  0.5685
    3SAPS  C210  321   6.123   4.507   5.285 -1.0762  0.2971 -0.5188
    3SAPS  H10R  322   6.213   4.540   5.342 -0.4459 -1.8802 -0.1661
    3SAPS  H10S  323   6.045   4.576   5.322  0.2815  1.4543  0.3108
    3SAPS  C211  324   6.149   4.527   5.139 -0.5214  0.3495 -0.5385
    3SAPS  H11R  325   6.061   4.551   5.077 -0.5910  1.5574 -0.0113
    3SAPS  C212  326   6.271   4.498   5.084 -0.7975 -0.8392  0.7886
    3SAPS  H12R  327   6.288   4.520   4.978  0.3273 -0.1356  1.0949
    3SAPS  C213  328   6.395   4.440   5.151 -0.1858 -0.4251 -0.0313
    3SAPS  H13R  329   6.445   4.364   5.088  2.8488 -0.0402  1.7363
    3SAPS  H13S  330   6.359   4.395   5.246 -0.6123 -0.4431 -0.1965
    3SAPS  C214  331   6.500   4.541   5.183  0.3340 -0.1336  0.2575
    3SAPS  H14R  332   6.479   4.648   5.174  0.8333 -0.1959 -2.6070
    3SAPS  C215  333   6.625   4.516   5.227 -0.5123 -0.1698  0.8013
    3SAPS  H15R  334   6.692   4.601   5.245  0.3097 -0.1299 -1.8885
    3SAPS  C216  335   6.677   4.384   5.262 -0.5966  0.3582 -0.3360
    3SAPS  H16R  336   6.599   4.306   5.250 -0.0372 -0.1975 -0.3444
    3SAPS  H16S  337   6.718   4.390   5.365 -0.9271 -0.1490 -0.1701
    3SAPS  C217  338   6.788   4.331   5.172  0.3255  0.7967 -0.0128
    3SAPS  H17R  339   6.752   4.309   5.069  0.3338 -1.4576  0.4125
    3SAPS  H17S  340   6.820   4.230   5.206 -1.3188  0.6897  1.3756
    3SAPS  C218  341   6.910   4.424   5.162 -0.1333 -0.0351  0.0925
    3SAPS  H18R  342   6.934   4.456   5.266 -4.8949 -1.1332  1.7925
    3SAPS  H18S  343   6.878   4.511   5.102 -0.5282 -1.1831 -1.4371
    3SAPS  C219  344   7.029   4.362   5.104 -0.1592  0.5866 -0.2911
    3SAPS  H19R  345   7.117   4.427   5.126 -1.1973  2.2553 -0.8476
    3SAPS  H19S  346   7.053   4.272   5.164  1.5346  1.6231  0.6824
    3SAPS  C220  347   7.009   4.320   4.959  0.1599 -0.3955 -0.0498
    3SAPS  H20R  348   6.904   4.284   4.947  0.4102 -2.3721  2.7197
    3SAPS  H20S  349   7.081   4.249   4.914  1.4639  1.2128 -0.5982
    3SAPS  H20T  350   7.010   4.412   4.897  0.6268 -1.2602 -1.3405
    3SAPS   C33  351   4.979   4.602   5.728 -0.2788 -0.0483 -0.0455
    3SAPS   H3X  352   5.065   4.671   5.737 -0.9348  0.5330  2.2367
    3SAPS   H3Y  353   4.897   4.674   5.749 -0.9536 -1.0037  0.6725
    3SAPS   C34  354   4.967   4.564   5.581 -0.1872 -0.3636  0.6261
    3SAPS   H4X  355   4.946   4.654   5.520 -0.8176 -1.5778 -1.0166
    3SAPS   H4Y  356   4.875   4.506   5.556  0.0758  0.0687 -1.5129
    3SAPS   C35  357   5.079   4.481   5.522  0.4121  0.1526 -0.7738
    3SAPS   H5X  358   5.171   4.536   5.553  1.0450 -0.9410 -0.6423
    3SAPS   H5Y  359   5.072   4.382   5.572 -2.3704  1.1718  1.0848
    3SAPS   C36  360   5.062   4.458   5.370 -0.0079 -0.3105  0.7634
    3SAPS   H6X  361   5.109   4.544   5.319  0.4864 -0.0673  1.6020
    3SAPS   H6Y  362   4.955   4.454   5.340  0.4634 -1.9410 -0.8979
    3SAPS   C37  363   5.115   4.326   5.318  0.6223  0.6390  0.3089
    3SAPS   H7X  364   5.036   4.250   5.339  0.3772  0.8417  0.1304
    3SAPS   H7Y  365   5.189   4.299   5.396  1.2002  1.5450  0.0863
    3SAPS   C38  366   5.167   4.309   5.176  0.6840  0.1714  0.0169
    3SAPS   H8X  367   5.187   4.200   5.169 -1.0674 -0.3302  1.8567
    3SAPS   H8Y  368   5.258   4.368   5.153  0.0255  1.2542  0.0701
    3SAPS   C39  369   5.058   4.335   5.064  0.1915  0.2860 -1.1611
    3SAPS   H9X  370   4.955   4.310   5.096 -0.1604  2.4795 -0.3690
    3SAPS   H9Y  371   5.093   4.280   4.974 -1.7295 -0.2172 -1.6475
    3SAPS  C310  372   5.051   4.483   5.010 -0.5341 -0.3479 -0.2832
    3SAPS  H10X  373   5.151   4.531   5.007 -0.4319 -0.6079 -1.4158
    3SAPS  H10Y  374   4.979   4.532   5.078  1.1480  0.0845  1.2689
    3SAPS  C311  375   4.994   4.479   4.867  0.2309 -0.4278  0.2247
    3SAPS  H11X  376   4.899   4.421   4.874 -1.0430  1.1471 -2.4599
    3SAPS  H11Y  377   5.056   4.424   4.792 -1.4851  1.5234 -2.8664
    3SAPS  C312  378   4.953   4.616   4.801 -0.6751  0.1854  0.5577
    3SAPS  H12X  379   5.045   4.677   4.784 -0.3358 -0.3128  0.5595
    3SAPS  H12Y  380   4.894   4.661   4.883 -0.6310  0.4182  0.4611
    3SAPS  C313  381   4.860   4.590   4.680  0.1731 -0.1057  0.9300
    3SAPS  H13X  382   4.761   4.548   4.708  0.2624 -0.5808  0.5493
    3SAPS  H13Y  383   4.909   4.506   4.625  1.0570  0.2654  1.1394
    3SAPS  C314  384   4.837   4.714   4.593 -0.2054  0.4222  0.3251
    3SAPS  H14X  385   4.787   4.682   4.499  2.5628  0.4286 -1.2587
    3SAPS  H14Y  386   4.927   4.774   4.567  0.2116  0.5051  1.8454
    3SAPS  C315  387   4.741   4.813   4.659  0.3918 -0.0522 -0.4569
    3SAPS  H15X  388   4.799   4.847   4.748 -0.0906  1.7803 -0.7985
    3SAPS  H15Y  389   4.648   4.760   4.689  0.3854  0.5448  0.6548
    3SAPS  C316  390   4.708   4.935   4.569  0.4925  0.7577  0.6026
    3SAPS  H16X  391   4.641   4.906   4.485  2.4280 -1.7870 -0.1649
    3SAPS  H16Y  392   4.808   4.970   4.538  0.6503  1.3866  1.7681
    3SAPS  C317  393   4.653   5.046   4.650 -0.0118 -0.1573  0.2480
    3SAPS  H17X  394   4.737   5.091   4.708  0.0018  1.9681 -1.3004
    3SAPS  H17Y  395   4.580   5.009   4.725  1.5324 -0.2971  1.7593
    3SAPS  C318  396   4.609   5.172   4.575  0.6621 -0.0091  0.2706
    3SAPS  H18X  397   4.640   5.255   4.643  0.7730 -1.3679  1.9554
    3SAPS  H18Y  398   4.498   5.171   4.583  0.5478  1.7659 -0.5656
    3SAPS  H18Z  399   4.654   5.194   4.476 -1.6502  2.9815 -0.2743
    4SAPS     N  400   3.590   2.337   6.707 -0.1696 -0.9870  0.8930
    4SAPS   HN1  401   3.503   2.287   6.679 -0.6909  0.7310 -0.7650
    4SAPS   HN2  402   3.673   2.274   6.717 -0.1073 -0.9308  0.7322
    4SAPS   HN3  403   3.560   2.377   6.798  3.3148 -0.4585  1.9537
    4SAPS   C12  404   3.630   2.454   6.619 -0.1918 -0.1193 -0.0564
    4SAPS  H12A  405   3.539   2.509   6.604  0.0209  0.5311  0.9256
    4SAPS   C13  406   3.736   2.551   6.677 -0.2043  0.0065 -0.0501
    4SAPS  O13A  407   3.789   2.526   6.787 -0.4044  0.5327  0.0077
    4SAPS  O13B  408   3.757   2.659   6.620 -0.4695 -0.6533  0.1126
    4SAPS   C11  409   3.663   2.414   6.477 -0.1044  0.6494  0.5042
    4SAPS  H11A  410   3.691   2.508   6.425 -1.5193  1.1823  0.6520
    4SAPS  H11B  411   3.573   2.376   6.424  0.6186  0.3471 -0.5225
    4SAPS     P  412   3.806   2.254   6.319 -0.1359  0.0748  0.3633
    4SAPS   O13  413   3.832   2.363   6.217 -0.1235 -0.3452 -0.0282
    4SAPS   O14  414   3.907   2.144   6.327  0.2662  0.1638  0.2671
    4SAPS   O12  415   3.765   2.313   6.464  0.0034  0.2582 -0.3533
    4SAPS   O11  416   3.668   2.194   6.267  0.2202 -0.5880 -0.1042
    4SAPS    C1  417   3.630   2.059   6.282 -0.0774  0.0527 -0.4032
    4SAPS    HA  418   3.671   2.009   6.373  1.9473  1.4478 -0.4658
    4SAPS    HB  419   3.521   2.055   6.302  0.3017  1.0997  2.3539
    4SAPS    C2  420   3.647   1.968   6.157 -0.0383  0.0005 -0.0701
    4SAPS    HS  421   3.606   1.870   6.190 -3.2178  0.9467 -0.8581
    4SAPS   O21  422   3.781   1.969   6.121 -0.1667  0.4434  0.0311
    4SAPS   C21  423   3.863   1.884   6.187  0.1361  0.4242 -0.8511
    4SAPS   O22  424   3.828   1.809   6.277 -0.6151 -1.0775  0.7391
    4SAPS   C22  425   4.006   1.899   6.145 -0.0658 -0.5201 -0.8635
    4SAPS   H2R  426   4.018   2.009   6.134 -0.5114  0.0784  3.1916
    4SAPS   H2S  427   4.076   1.876   6.229 -0.7742 -3.3442 -0.9690
    4SAPS    C3  428   3.560   2.022   6.036  0.4422 -0.2352 -0.2220
    4SAPS    HX  429   3.587   2.130   6.026 -2.9411  0.6532 -1.1371
    4SAPS    HY  430   3.455   2.026   6.073  0.4891  2.3502 -0.1859
    4SAPS   O31  431   3.587   1.957   5.917  0.6570  0.1279 -0.1513
    4SAPS   C31  432   3.510   1.853   5.877 -0.4014 -0.0434 -0.3447
    4SAPS   O32  433   3.424   1.797   5.945 -0.1716  0.4124  0.5872
    4SAPS   C32  434   3.542   1.820   5.736  0.0502  0.3488 -0.1064
    4SAPS   H2X  435   3.650   1.798   5.723 -0.0174 -0.3953  0.5149
    4SAPS   H2Y  436   3.501   1.905   5.678  0.8118  1.4619  0.9296
    4SAPS   C23  437   4.026   1.822   6.015 -0.2905  0.1497  0.1311
    4SAPS   H3R  438   3.985   1.883   5.932  1.0097  0.2194 -0.4813
    4SAPS   H3S  439   3.968   1.728   6.009 -0.4615  0.2656 -0.0413
    4SAPS   C24  440   4.174   1.783   5.981  0.0784 -0.5799  0.3384
    4SAPS   H4R  441   4.189   1.710   5.899  0.5872 -0.5973  0.4430
    4SAPS   H4S  442   4.213   1.746   6.079 -2.3311 -1.1041  1.1797
    4SAPS   C25  443   4.245   1.920   5.953 -0.0788 -0.4405  0.3400
    4SAPS   H5R  444   4.242   1.994   6.034  3.5217 -0.5105  0.6867
    4SAPS   C26  445   4.316   1.947   5.841  0.0272 -0.1059 -0.3714
    4SAPS   H6R  446   4.362   2.046   5.836  0.7542 -0.4358 -0.4519
    4SAPS   C27  447   4.355   1.849   5.728 -0.4011  0.4197  0.5506
    4SAPS   H7R  448   4.382   1.917   5.645  0.3319 -0.9532 -0.3743
    4SAPS   H7S  449   4.265   1.790   5.698  1.0810 -1.0495 -1.2465
    4SAPS   C28  450   4.466   1.753   5.769 -0.0368  0.0620 -0.5275
    4SAPS   H8R  451   4.448   1.677   5.846 -0.4043 -0.0733 -0.7480
    4SAPS   C29  452   4.595   1.767   5.727  1.0077 -0.0493 -0.0443
    4SAPS   H9R  453   4.676   1.697   5.752  1.6635  0.7603  0.1512
    4SAPS  C210  454   4.640   1.863   5.618 -0.0832 -0.2195 -0.1609
    4SAPS  H10R  455   4.607   1.967   5.639  0.9150  0.1121 -0.1872
    4SAPS  H10S  456   4.586   1.848   5.522 -0.2606  0.4533 -0.1754
    4SAPS  C211  457   4.784   1.848   5.579  0.1781 -0.8386 -0.2348
    4SAPS  H11R  458   4.855   1.870   5.660  0.4960  2.6541 -1.2740
    4SAPS  C212  459   4.844   1.826   5.461 -0.0028 -0.0316  0.0584
    4SAPS  H12R  460   4.954   1.832   5.457  0.0279  3.5421  1.9371
    4SAPS  C213  461   4.771   1.811   5.327 -0.6561  0.0795 -0.3471
    4SAPS  H13R  462   4.817   1.899   5.277  1.0346 -0.7068 -0.2286
    4SAPS  H13S  463   4.661   1.832   5.329 -0.8483 -0.9648  0.4637
    4SAPS  C214  464   4.796   1.676   5.262 -0.4005 -0.0974  0.2103
    4SAPS  H14R  465   4.782   1.592   5.332  0.9580  0.2081  0.8738
    4SAPS  C215  466   4.839   1.654   5.135 -0.5998 -0.6707  0.0081
    4SAPS  H15R  467   4.856   1.551   5.102  1.7127  0.0838 -1.3727
    4SAPS  C216  468   4.862   1.758   5.023 -0.6039  0.3949 -0.3694
    4SAPS  H16R  469   4.969   1.783   5.038 -0.5890  0.5212 -0.6671
    4SAPS  H16S  470   4.807   1.849   5.055 -0.9942 -0.5458  1.8411
    4SAPS  C217  471   4.834   1.719   4.878  0.6290 -0.2521 -0.8834
    4SAPS  H17R  472   4.723   1.722   4.868  0.7602 -0.8230 -2.9958
    4SAPS  H17S  473   4.865   1.614   4.858 -0.8462 -0.9037  0.0473
    4SAPS  C218  474   4.908   1.808   4.780  0.2902 -0.8610 -0.1726
    4SAPS  H18R  475   5.017   1.792   4.798  0.7891  1.2232 -0.9954
    4SAPS  H18S  476   4.879   1.914   4.799 -3.2717 -1.9603  1.0953
    4SAPS  C219  477   4.885   1.795   4.629  0.3448 -0.4077 -0.8812
    4SAPS  H19R  478   4.920   1.699   4.587  0.7933 -0.8726  0.5291
    4SAPS  H19S  479   4.929   1.881   4.573 -1.3893  0.6783 -0.6724
    4SAPS  C220  480   4.732   1.812   4.604 -0.5354  0.0418  0.4755
    4SAPS  H20R  481   4.716   1.795   4.496  0.8843 -0.2926  0.2961
    4SAPS  H20S  482   4.679   1.897   4.652 -0.4419  1.7310 -2.2227
    4SAPS  H20T  483   4.685   1.726   4.655 -0.1943  0.6720  1.9166
    4SAPS   C33  484   3.471   1.697   5.678 -0.2463  0.0599 -0.0459
    4SAPS   H3X  485   3.375   1.672   5.729  0.7880 -0.5283  1.6924
    4SAPS   H3Y  486   3.535   1.607   5.687 -0.6651 -0.0642  2.4145
    4SAPS   C34  487   3.437   1.715   5.526 -0.3752 -0.1302 -0.3985
    4SAPS   H4X  488   3.527   1.761   5.479 -0.2491  0.2930  0.2445
    4SAPS   H4Y  489   3.361   1.796   5.521 -0.6340 -0.1284  2.3133
    4SAPS   C35  490   3.385   1.591   5.439 -1.0104 -0.6333  0.2023
    4SAPS   H5X  491   3.285   1.570   5.483 -0.2113 -0.6801  2.0935
    4SAPS   H5Y  492   3.452   1.504   5.452 -0.9274 -0.8332 -1.3055
    4SAPS   C36  493   3.382   1.637   5.292 -0.0238  0.4719 -0.3004
    4SAPS   H6X  494   3.481   1.671   5.256 -1.3433  2.4501 -2.2750
    4SAPS   H6Y  495   3.322   1.730   5.292 -0.1164  0.4177  0.2781
    4SAPS   C37  496   3.322   1.541   5.189  0.2512  0.6218 -0.2047
    4SAPS   H7X  497   3.214   1.531   5.214  0.4445  0.4746  0.6019
    4SAPS   H7Y  498   3.374   1.443   5.196 -1.1116 -0.0657  0.7792
    4SAPS   C38  499   3.334   1.592   5.048  0.6478 -0.4330 -0.6750
    4SAPS   H8X  500   3.442   1.610   5.027  1.0458  3.2270  3.1349
    4SAPS   H8Y  501   3.281   1.689   5.034  2.2618  0.2748 -2.3246
    4SAPS   C39  502   3.272   1.480   4.961 -0.4435 -0.2249  0.1464
    4SAPS   H9X  503   3.162   1.480   4.978 -0.3975 -0.4342  0.4484
    4SAPS   H9Y  504   3.304   1.378   4.991 -0.0752  0.4488  2.1853
    4SAPS  C310  505   3.294   1.492   4.811 -0.2076  0.1925 -0.8285
    4SAPS  H10X  506   3.398   1.481   4.773 -0.3019  1.6585 -1.5950
    4SAPS  H10Y  507   3.281   1.597   4.777  0.7395  0.7297  0.3793
    4SAPS  C311  508   3.193   1.408   4.726 -0.8272 -0.0255 -0.2822
    4SAPS  H11X  509   3.086   1.410   4.757 -0.8009 -2.0240  0.0717
    4SAPS  H11Y  510   3.223   1.305   4.757 -0.9975 -0.3749 -1.2404
    4SAPS  C312  511   3.216   1.435   4.576 -0.8362  0.1617 -0.5145
    4SAPS  H12X  512   3.322   1.417   4.548  0.1514  3.3588  0.7057
    4SAPS  H12Y  513   3.207   1.545   4.563  1.3590  0.6464  1.5242
    4SAPS  C313  514   3.121   1.360   4.485 -0.2533  0.3219 -0.4871
    4SAPS  H13X  515   3.157   1.383   4.383  2.3617 -1.1384  0.0170
    4SAPS  H13Y  516   3.020   1.403   4.507 -0.2898 -0.4742  1.0813
    4SAPS  C314  517   3.112   1.203   4.496  0.2414  0.2988  0.1668
    4SAPS  H14X  518   3.084   1.194   4.603 -1.7514 -0.7069 -0.3797
    4SAPS  H14Y  519   3.210   1.151   4.488 -0.2978 -0.8377  0.6632
    4SAPS  C315  520   3.011   1.129   4.414 -0.0623  0.0013  0.5150
    4SAPS  H15X  521   2.911   1.178   4.410 -1.7558 -3.0667  1.9191
    4SAPS  H15Y  522   2.982   1.029   4.453 -1.3835  0.2134  0.1192
    4SAPS  C316  523   3.067   1.098   4.270 -0.3785 -0.0282 -0.7609
    4SAPS  H16X  524   3.150   1.025   4.283  0.0035  0.7417  1.6893
    4SAPS  H16Y  525   3.117   1.191   4.233  2.2823 -1.8567 -2.0615
    4SAPS  C317  526   2.966   1.034   4.174 -0.0102  0.2134  0.3502
    4SAPS  H17X  527   3.019   1.010   4.079  0.8098  2.5127  0.1685
    4SAPS  H17Y  528   2.885   1.106   4.151  2.0332  2.5453  0.0323
    4SAPS  C318  529   2.885   0.909   4.223 -0.2107  0.1044  0.0016
    4SAPS  H18X  530   2.802   0.901   4.150  0.5306 -1.1346 -0.7608
    4SAPS  H18Y  531   2.822   0.925   4.312  1.1550 -0.8629  1.1899
    4SAPS  H18Z  532   2.949   0.819   4.239 -0.6780 -0.5737 -1.6451
    5SAPS     N  533   0.193   3.736   6.321 -0.2498  0.4284 -1.2675
    5SAPS   HN1  534   0.281   3.726   6.376 -0.3061 -2.2283 -1.5108
    5SAPS   HN2  535   0.202   3.706   6.222  1.3741 -1.0066 -0.7452
    5SAPS   HN3  536   0.151   3.831   6.326 -1.5034 -0.1019 -1.3580
    5SAPS   C12  537   0.103   3.646   6.402 -0.5381  0.3847 -1.1557
    5SAPS  H12A  538   0.161   3.560   6.433 -0.2379  1.4582  1.5419
    5SAPS   C13  539   0.039   3.694   6.538  0.4911  0.5068  0.0574
    5SAPS  O13A  540   0.047   3.816   6.567 -0.2381  0.6478 -0.4856
    5SAPS  O13B  541  -0.041   3.613   6.591  0.6649 -0.2401 -0.4050
    5SAPS   C11  542  -0.009   3.592   6.312 -0.0218  0.0730 -0.0102
    5SAPS  H11A  543  -0.077   3.676   6.287  0.6966  0.3785 -0.9905
    5SAPS  H11B  544  -0.071   3.521   6.372  0.4751  0.8064  1.4148
    5SAPS     P  545  -0.020   3.435   6.104 -0.3193 -0.2673  0.2737
    5SAPS   O13  546   0.086   3.364   6.032 -0.6408  0.2629  0.5724
    5SAPS   O14  547  -0.109   3.355   6.193  0.4320 -0.0491 -0.0200
    5SAPS   O12  548   0.060   3.535   6.198 -0.3354 -0.4252  0.3720
    5SAPS   O11  549  -0.093   3.526   6.002 -0.2557 -0.3877 -1.0105
    5SAPS    C1  550  -0.065   3.669   5.978 -0.0756  0.6062  0.0405
    5SAPS    HA  551  -0.151   3.729   6.014 -1.1269  0.1792 -1.6310
    5SAPS    HB  552   0.024   3.708   6.031  0.3934 -0.3324 -0.0400
    5SAPS    C2  553  -0.042   3.706   5.823  0.2470  0.1732  0.0593
    5SAPS    HS  554  -0.025   3.815   5.807  3.2435 -0.4425 -1.6499
    5SAPS   O21  555  -0.159   3.660   5.744 -0.2538 -0.1347  0.7084
    5SAPS   C21  556  -0.259   3.742   5.744 -0.2072  0.4005  0.0593
    5SAPS   O22  557  -0.268   3.854   5.799  0.0920  0.2958 -0.2529
    5SAPS   C22  558  -0.377   3.667   5.682  0.2387 -0.4735  0.3655
    5SAPS   H2R  559  -0.361   3.558   5.672  1.3701 -0.3614  0.8279
    5SAPS   H2S  560  -0.461   3.683   5.754 -0.1908  0.4530 -0.3139
    5SAPS    C3  561   0.082   3.631   5.769  0.2770 -0.4352 -0.9032
    5SAPS    HX  562   0.054   3.524   5.778  2.5833 -1.0276 -0.0659
    5SAPS    HY  563   0.166   3.644   5.841  1.0456 -3.1857 -1.1796
    5SAPS   O31  564   0.113   3.662   5.628 -0.2885  0.1974  0.0853
    5SAPS   C31  565   0.165   3.559   5.566  0.0305 -0.2089 -0.0978
    5SAPS   O32  566   0.213   3.462   5.615  0.7316  0.0116 -0.2086
    5SAPS   C32  567   0.186   3.599   5.419  0.5724  0.5733 -0.5144
    5SAPS   H2X  568   0.265   3.677   5.417 -0.2995  1.5103  0.5932
    5SAPS   H2Y  569   0.096   3.658   5.394 -0.4202  0.4771  2.4769
    5SAPS   C23  570  -0.419   3.743   5.551  0.0950 -0.4859  0.0009
    5SAPS   H3R  571  -0.421   3.853   5.568 -0.1108 -0.3499 -0.8367
    5SAPS   H3S  572  -0.523   3.711   5.526 -0.6796  1.4246  0.5766
    5SAPS   C24  573  -0.322   3.713   5.434  0.1057 -0.4236  0.4505
    5SAPS   H4R  574  -0.220   3.743   5.468 -0.3592  0.4757  1.0781
    5SAPS   H4S  575  -0.348   3.778   5.347 -1.5516 -2.8900 -1.0059
    5SAPS   C25  576  -0.341   3.573   5.393 -1.0306  0.7464 -0.2164
    5SAPS   H5R  577  -0.322   3.496   5.470 -2.1608  0.1084 -0.5446
    5SAPS   C26  578  -0.382   3.536   5.269  0.3238 -0.5474 -0.3867
    5SAPS   H6R  579  -0.421   3.435   5.252 -4.0775  1.0571 -1.1361
    5SAPS   C27  580  -0.423   3.622   5.155  0.4841 -0.3662 -0.1521
    5SAPS   H7R  581  -0.406   3.555   5.068  0.2649 -2.4170  1.3184
    5SAPS   H7S  582  -0.361   3.714   5.146 -0.4394  0.5399  1.9021
    5SAPS   C28  583  -0.573   3.645   5.153  0.2295  1.0206 -0.4244
    5SAPS   H8R  584  -0.609   3.687   5.248 -0.1398 -0.6843  0.2330
    5SAPS   C29  585  -0.663   3.635   5.052 -0.3079  0.7246  0.0877
    5SAPS   H9R  586  -0.769   3.658   5.070  0.1184  2.5617  0.3559
    5SAPS  C210  587  -0.636   3.567   4.915  0.0718 -0.1162 -0.6094
    5SAPS  H10R  588  -0.731   3.527   4.874  0.8765 -1.0905 -1.5845
    5SAPS  H10S  589  -0.567   3.483   4.938 -1.5012 -1.2642  0.1319
    5SAPS  C211  590  -0.585   3.648   4.800  0.5058  0.4292 -0.4102
    5SAPS  H11R  591  -0.654   3.733   4.787  0.8998  0.7511 -0.4026
    5SAPS  C212  592  -0.481   3.620   4.714  0.0170 -0.3023 -0.4506
    5SAPS  H12R  593  -0.446   3.688   4.636  2.2834 -0.0707  0.6723
    5SAPS  C213  594  -0.390   3.495   4.732  0.4621 -0.1895  0.6452
    5SAPS  H13R  595  -0.442   3.416   4.675  0.6604  0.1299  0.0112
    5SAPS  H13S  596  -0.376   3.450   4.833 -1.7417 -2.4026  0.0462
    5SAPS  C214  597  -0.256   3.540   4.670 -0.2099  0.5786  0.2638
    5SAPS  H14R  598  -0.196   3.594   4.745  1.1739  0.1046 -0.4834
    5SAPS  C215  599  -0.201   3.510   4.548 -0.4030  0.3646 -0.7193
    5SAPS  H15R  600  -0.098   3.543   4.526  0.3776 -0.7402  1.1035
    5SAPS  C216  601  -0.266   3.424   4.444  0.6541 -0.1393  0.3593
    5SAPS  H16R  602  -0.358   3.380   4.488 -1.0163 -1.0660 -3.6182
    5SAPS  H16S  603  -0.198   3.342   4.413  0.7005 -0.4198  1.1894
    5SAPS  C217  604  -0.321   3.509   4.333 -0.5956  0.2614 -0.6597
    5SAPS  H17R  605  -0.231   3.525   4.270 -0.2251  1.5245  0.1457
    5SAPS  H17S  606  -0.343   3.612   4.368 -0.2041 -0.1078  0.7814
    5SAPS  C218  607  -0.428   3.451   4.243  0.0047  0.1620  0.6502
    5SAPS  H18R  608  -0.508   3.398   4.299 -0.5913 -1.7747 -1.8709
    5SAPS  H18S  609  -0.390   3.365   4.183 -2.6912 -1.7502  1.4995
    5SAPS  C219  610  -0.494   3.557   4.154 -0.0265  0.9264 -0.7943
    5SAPS  H19R  611  -0.417   3.626   4.114 -0.8513  4.1416  2.5592
    5SAPS  H19S  612  -0.561   3.614   4.222 -0.0030  0.7272 -0.6018
    5SAPS  C220  613  -0.557   3.505   4.028  0.0101 -0.1392  0.1997
    5SAPS  H20R  614  -0.494   3.429   3.977 -0.2922  0.8427 -1.7061
    5SAPS  H20S  615  -0.586   3.578   3.950 -0.7738  1.7856  2.1733
    5SAPS  H20T  616  -0.651   3.452   4.057  0.3065 -0.9207 -0.2419
    5SAPS   C33  617   0.207   3.494   5.311 -0.9669 -0.3741  0.2649
    5SAPS   H3X  618   0.124   3.421   5.321 -1.5429  0.3872  1.1659
    5SAPS   H3Y  619   0.300   3.440   5.337  0.5402  1.1284 -1.6417
    5SAPS   C34  620   0.208   3.553   5.169  0.0601  0.0203  0.0550
    5SAPS   H4X  621   0.260   3.650   5.155  1.4356 -0.8053 -0.8766
    5SAPS   H4Y  622   0.110   3.545   5.118  0.2504 -3.6536 -0.0100
    5SAPS   C35  623   0.297   3.472   5.067 -0.7791  0.6401  0.3583
    5SAPS   H5X  624   0.241   3.379   5.042  2.7331 -1.4523 -0.2881
    5SAPS   H5Y  625   0.393   3.444   5.116 -0.8757  0.3797  0.4011
    5SAPS   C36  626   0.328   3.540   4.930 -0.6350 -0.3134 -0.2842
    5SAPS   H6X  627   0.405   3.620   4.938 -0.1216 -0.4279 -3.0500
    5SAPS   H6Y  628   0.239   3.595   4.895 -0.2312 -0.3078 -1.3338
    5SAPS   C37  629   0.361   3.434   4.830 -0.3255 -0.9133 -0.2685
    5SAPS   H7X  630   0.287   3.350   4.832 -0.3262 -0.9088  0.0707
    5SAPS   H7Y  631   0.457   3.396   4.871  0.4076 -0.0721 -1.1715
    5SAPS   C38  632   0.399   3.504   4.700  0.2268  0.6148 -0.1526
    5SAPS   H8X  633   0.472   3.586   4.717  1.8586 -0.5619 -1.1524
    5SAPS   H8Y  634   0.305   3.551   4.665 -0.3580 -0.2437  0.2251
    5SAPS   C39  635   0.452   3.414   4.582  0.0709 -0.4541 -0.6713
    5SAPS   H9X  636   0.387   3.324   4.578 -0.6606 -0.2405  2.7612
    5SAPS   H9Y  637   0.552   3.376   4.612 -1.3909 -2.4103  2.3109
    5SAPS  C310  638   0.454   3.487   4.449 -0.4733  0.4943  0.0342
    5SAPS  H10X  639   0.516   3.580   4.451  3.3363 -1.7483 -2.5894
    5SAPS  H10Y  640   0.354   3.527   4.423  1.6752  5.8817 -1.5679
    5SAPS  C311  641   0.520   3.427   4.327  0.1099  0.2029 -0.6757
    5SAPS  H11X  642   0.625   3.398   4.348 -0.2345 -1.2030 -0.7474
    5SAPS  H11Y  643   0.520   3.505   4.249 -0.1793 -1.0675 -1.9805
    5SAPS  C312  644   0.453   3.297   4.276  0.9800  0.1007  0.4666
    5SAPS  H12X  645   0.347   3.324   4.261  1.6553  3.1496  0.5022
    5SAPS  H12Y  646   0.469   3.216   4.351 -2.8314  0.2478  1.6399
    5SAPS  C313  647   0.497   3.261   4.127  0.1835 -0.5470 -0.2432
    5SAPS  H13X  648   0.599   3.218   4.137 -0.3667 -1.6516  0.8553
    5SAPS  H13Y  649   0.503   3.361   4.079  2.0637 -0.1326  0.7773
    5SAPS  C314  650   0.393   3.161   4.062 -0.6882  0.5582 -0.6203
    5SAPS  H14X  651   0.289   3.201   4.055 -0.7246  0.5114 -0.3416
    5SAPS  H14Y  652   0.394   3.070   4.125 -2.3274  0.9750  0.0601
    5SAPS  C315  653   0.442   3.120   3.920 -0.1702 -0.3622 -0.3795
    5SAPS  H15X  654   0.549   3.093   3.935 -0.0918  0.7395  1.2511
    5SAPS  H15Y  655   0.435   3.209   3.854  0.5441 -0.9603 -1.2806
    5SAPS  C316  656   0.372   2.999   3.865 -0.4988  0.3018 -0.1067
    5SAPS  H16X  657   0.405   2.919   3.934  0.1478  0.2277 -0.4982
    5SAPS  H16Y  658   0.403   2.961   3.765  1.7415  2.4014 -0.3192
    5SAPS  C317  659   0.219   3.010   3.850 -0.1999 -0.2592  0.3391
    5SAPS  H17X  660   0.169   3.093   3.796  1.3869  0.8720  0.5552
    5SAPS  H17Y  661   0.179   3.018   3.953 -1.3996  2.2158 -0.2603
    5SAPS  C318  662   0.143   2.878   3.807  0.1944  0.4714  0.2254
    5SAPS  H18X  663   0.033   2.898   3.801  0.3573  1.2762 -0.2787
    5SAPS  H18Y  664   0.154   2.798   3.882 -0.0993  0.4214  0.2183
    5SAPS  H18Z  665   0.166   2.841   3.705 -1.6413  0.4496 -0.2295
    6SAPS     N  666   1.894   3.407   6.467  0.2097  0.3588  0.0681
    6SAPS   HN1  667   1.809   3.456   6.503  0.4633  0.4171  0.5970
    6SAPS   HN2  668   1.959   3.471   6.417  1.4103  1.3843  2.7311
    6SAPS   HN3  669   1.866   3.333   6.399 -2.3130  0.9974  0.3009
    6SAPS   C12  670   1.981   3.370   6.580  0.4967  0.9281 -0.7716
    6SAPS  H12A  671   1.998   3.460   6.637 -0.8532  1.8920 -1.8193
    6SAPS   C13  672   1.905   3.273   6.681 -0.6576 -0.5664  0.3892
    6SAPS  O13A  673   1.793   3.224   6.648 -0.0723 -0.0059 -0.0989
    6SAPS  O13B  674   1.964   3.246   6.786  0.2235 -0.3449  0.1230
    6SAPS   C11  675   2.110   3.309   6.534 -0.5541  0.0599 -0.0578
    6SAPS  H11A  676   2.089   3.218   6.473  1.7362  0.2075 -1.1860
    6SAPS  H11B  677   2.166   3.283   6.626  1.8469  0.4731 -1.3136
    6SAPS     P  678   2.301   3.479   6.525 -0.1769 -0.3364  0.4822
    6SAPS   O13  679   2.224   3.570   6.613  0.2413 -0.2047  0.1457
    6SAPS   O14  680   2.395   3.393   6.588 -0.5293  0.3646  0.1618
    6SAPS   O12  681   2.195   3.392   6.453  0.3857  0.2136 -0.1582
    6SAPS   O11  682   2.365   3.566   6.416 -0.2294  0.3775  0.3908
    6SAPS    C1  683   2.409   3.501   6.296 -0.1487 -0.2584 -0.2677
    6SAPS    HA  684   2.420   3.392   6.308 -2.6049 -0.5962 -0.4753
    6SAPS    HB  685   2.333   3.523   6.217  1.2225  2.7952 -0.8808
    6SAPS    C2  686   2.547   3.548   6.245 -0.5438 -1.3804 -0.5935
    6SAPS    HS  687   2.624   3.540   6.325 -1.8508  1.7054  1.1359
    6SAPS   O21  688   2.533   3.678   6.179 -0.1425  0.1733 -0.3526
    6SAPS   C21  689   2.637   3.757   6.190 -0.5181  0.9808  0.3365
    6SAPS   O22  690   2.729   3.740   6.266 -0.4794 -0.0119  0.1635
    6SAPS   C22  691   2.625   3.865   6.085 -0.7088 -0.6743 -0.1609
    6SAPS   H2R  692   2.521   3.873   6.046 -0.8983 -0.2502  0.4247
    6SAPS   H2S  693   2.655   3.956   6.141 -0.7444 -1.8553  1.8717
    6SAPS    C3  694   2.592   3.443   6.136  0.3841 -0.1989  0.3995
    6SAPS    HX  695   2.599   3.344   6.185  1.3994 -0.0001  0.6834
    6SAPS    HY  696   2.691   3.465   6.090 -0.8365  1.2904 -1.7611
    6SAPS   O31  697   2.494   3.439   6.029 -0.1218 -0.0833  0.2265
    6SAPS   C31  698   2.471   3.318   5.981  0.9072  0.6286 -0.6133
    6SAPS   O32  699   2.551   3.223   6.002  0.3568  0.3198 -0.2192
    6SAPS   C32  700   2.348   3.329   5.901 -0.0858 -0.1729  0.3996
    6SAPS   H2X  701   2.358   3.415   5.833  0.6434 -1.1118 -0.7180
    6SAPS   H2Y  702   2.264   3.342   5.972  0.2718  1.9865  0.4751
    6SAPS   C23  703   2.733   3.842   5.974  0.7002  0.3184 -0.5169
    6SAPS   H3R  704   2.832   3.856   6.020  0.1653 -2.6955  1.8747
    6SAPS   H3S  705   2.718   3.916   5.893 -1.3415  2.4060  1.6331
    6SAPS   C24  706   2.721   3.701   5.913  0.0680 -0.3285  0.1225
    6SAPS   H4R  707   2.753   3.618   5.980 -0.0214 -0.8595 -0.4935
    6SAPS   H4S  708   2.800   3.687   5.836 -1.0809  1.2721 -1.4279
    6SAPS   C25  709   2.590   3.667   5.841 -0.2477 -0.0554  0.1537
    6SAPS   H5R  710   2.504   3.653   5.908 -2.0313 -0.3874 -2.0819
    6SAPS   C26  711   2.571   3.639   5.707  0.4089 -0.1088  0.8690
    6SAPS   H6R  712   2.473   3.607   5.669  1.3843 -1.2970 -0.8032
    6SAPS   C27  713   2.661   3.646   5.588 -0.0299  0.0331  0.6648
    6SAPS   H7R  714   2.765   3.617   5.613  0.6160  1.3357 -0.3712
    6SAPS   H7S  715   2.669   3.751   5.552  0.2945  0.1629  1.1140
    6SAPS   C28  716   2.614   3.564   5.466  0.1811  0.6235  0.4113
    6SAPS   H8R  717   2.516   3.514   5.467  0.4062 -0.1948 -3.1687
    6SAPS   C29  718   2.666   3.576   5.346 -0.5700 -0.0297  0.3734
    6SAPS   H9R  719   2.614   3.529   5.260 -1.6801  1.5391  0.1517
    6SAPS  C210  720   2.781   3.663   5.311  0.4658 -0.3776 -0.1830
    6SAPS  H10R  721   2.850   3.594   5.259 -2.2506 -1.0847 -3.1657
    6SAPS  H10S  722   2.826   3.703   5.404 -0.3212  0.2995 -0.0786
    6SAPS  C211  723   2.736   3.772   5.220  0.1026 -0.2582 -0.1242
    6SAPS  H11R  724   2.685   3.855   5.271  0.9483  1.2746 -1.6892
    6SAPS  C212  725   2.751   3.776   5.086  0.4076  0.1475  0.5117
    6SAPS  H12R  726   2.713   3.860   5.025 -2.1967 -1.2126  0.1610
    6SAPS  C213  727   2.820   3.667   5.012 -0.0196 -0.3231  0.2348
    6SAPS  H13R  728   2.763   3.651   4.919  1.8533 -0.2430 -0.9796
    6SAPS  H13S  729   2.828   3.572   5.068 -1.0528  0.6958  2.2390
    6SAPS  C214  730   2.964   3.713   4.993  0.2649 -0.0537  0.2352
    6SAPS  H14R  731   2.989   3.796   5.059 -0.7802 -0.1603  0.7760
    6SAPS  C215  732   3.056   3.671   4.899  0.5390 -0.7666 -0.4276
    6SAPS  H15R  733   3.155   3.718   4.896  0.1357  0.5581  2.4501
    6SAPS  C216  734   3.050   3.559   4.805  0.2186  0.0802  0.4317
    6SAPS  H16R  735   2.978   3.490   4.854  0.5201  1.8252  3.5524
    6SAPS  H16S  736   3.139   3.495   4.790  0.3889 -0.0708  1.9717
    6SAPS  C217  737   2.981   3.592   4.672  0.4771  0.1119  0.5883
    6SAPS  H17R  738   2.885   3.647   4.683  0.3357  0.4647 -1.8139
    6SAPS  H17S  739   2.962   3.499   4.614  0.8506  1.7361 -2.3195
    6SAPS  C218  740   3.072   3.669   4.577 -0.2600 -0.6622 -0.0523
    6SAPS  H18R  741   3.177   3.633   4.564 -0.3219 -0.7170 -0.4023
    6SAPS  H18S  742   3.089   3.769   4.621  2.9378 -0.1946 -2.0320
    6SAPS  C219  743   3.008   3.690   4.437 -0.4798  0.2620  0.0936
    6SAPS  H19R  744   2.924   3.763   4.438 -0.1311  0.6706  1.1938
    6SAPS  H19S  745   2.974   3.590   4.403  0.5954  0.3906 -1.4599
    6SAPS  C220  746   3.108   3.736   4.336 -0.9889 -0.1709  0.7668
    6SAPS  H20R  747   3.161   3.826   4.372 -1.2247  0.1404  0.3484
    6SAPS  H20S  748   3.065   3.755   4.235 -1.0349  1.1936  1.0229
    6SAPS  H20T  749   3.180   3.656   4.306 -2.8213 -1.6451  0.0907
    6SAPS   C33  750   2.333   3.204   5.811 -0.1547 -0.8859  1.3450
    6SAPS   H3X  751   2.330   3.104   5.859  0.5046 -1.7768 -0.3799
    6SAPS   H3Y  752   2.417   3.196   5.738 -0.8542  0.5811  0.3137
    6SAPS   C34  753   2.211   3.212   5.714 -0.1912  0.1769  0.3910
    6SAPS   H4X  754   2.212   3.304   5.652 -0.1222  1.0442  1.6429
    6SAPS   H4Y  755   2.116   3.212   5.773 -0.1378 -1.4328  0.5415
    6SAPS   C35  756   2.204   3.091   5.625  0.1764  0.8347  0.3758
    6SAPS   H5X  757   2.110   3.039   5.654  0.4742 -0.1173 -0.3380
    6SAPS   H5Y  758   2.291   3.026   5.649  0.3140  1.6457  2.2440
    6SAPS   C36  759   2.188   3.129   5.478 -0.0221  0.1223 -0.2411
    6SAPS   H6X  760   2.094   3.184   5.455 -0.3684  0.0327  0.8938
    6SAPS   H6Y  761   2.185   3.032   5.425  0.5404 -0.0318  0.0028
    6SAPS   C37  762   2.309   3.208   5.423  0.2076 -0.0393 -0.0392
    6SAPS   H7X  763   2.399   3.152   5.455 -1.0336 -0.4299  3.2539
    6SAPS   H7Y  764   2.299   3.311   5.465 -0.2194  0.3505 -1.0655
    6SAPS   C38  765   2.299   3.222   5.269 -0.4783 -0.0616  0.8461
    6SAPS   H8X  766   2.208   3.282   5.250 -0.9215 -0.5711  1.3511
    6SAPS   H8Y  767   2.279   3.121   5.227  0.3230 -0.1926  0.7499
    6SAPS   C39  768   2.419   3.279   5.207 -0.3757  0.1207 -0.3094
    6SAPS   H9X  769   2.503   3.206   5.216 -1.2270 -0.9689 -0.9381
    6SAPS   H9Y  770   2.456   3.377   5.245 -0.7605 -0.0875  0.6402
    6SAPS  C310  771   2.409   3.304   5.053 -0.0298  0.3750  0.6833
    6SAPS  H10X  772   2.370   3.206   5.017  1.3680 -0.3879  1.1995
    6SAPS  H10Y  773   2.511   3.318   5.012  0.0700 -0.0995  0.7682
    6SAPS  C311  774   2.324   3.427   5.025  0.2037  0.9222  0.0918
    6SAPS  H11X  775   2.373   3.520   5.061 -1.8536  2.1623 -0.1967
    6SAPS  H11Y  776   2.224   3.410   5.071  0.5596  1.3126  1.0492
    6SAPS  C312  777   2.305   3.445   4.875 -0.2503 -0.2443  0.7074
    6SAPS  H12X  778   2.260   3.544   4.851  1.3306  0.5951  1.0181
    6SAPS  H12Y  779   2.249   3.358   4.835 -2.1486  1.3478 -0.2663
    6SAPS  C313  780   2.435   3.439   4.795  0.0820 -0.5025  0.4199
    6SAPS  H13X  781   2.466   3.332   4.791 -1.7917 -1.0963  0.7780
    6SAPS  H13Y  782   2.509   3.503   4.848 -0.7146  1.2223 -0.4630
    6SAPS  C314  783   2.424   3.482   4.644  0.0995 -0.5842  0.0453
    6SAPS  H14X  784   2.378   3.583   4.640  2.4257  0.4838 -1.6945
    6SAPS  H14Y  785   2.354   3.411   4.595 -0.2920  1.7504 -3.0738
    6SAPS  C315  786   2.552   3.477   4.559 -0.1685 -0.6051 -0.4991
    6SAPS  H15X  787   2.606   3.379   4.562 -1.8933 -1.5722  1.5158
    6SAPS  H15Y  788   2.628   3.552   4.590 -1.1715 -0.2154  1.1595
    6SAPS  C316  789   2.506   3.513   4.416 -0.0786 -0.2459 -0.3344
    6SAPS  H16X  790   2.469   3.616   4.436  0.1852 -0.1899 -0.1300
    6SAPS  H16Y  791   2.427   3.445   4.376 -1.0046 -0.0033  1.0194
    6SAPS  C317  792   2.619   3.531   4.316 -1.0689  0.8413 -0.1812
    6SAPS  H17X  793   2.634   3.432   4.267  1.4816  1.6693 -1.2066
    6SAPS  H17Y  794   2.716   3.559   4.361 -0.4010 -2.3045  0.6077
    6SAPS  C318  795   2.592   3.636   4.211  0.2397  0.6404  0.1533
    6SAPS  H18X  796   2.684   3.656   4.152  1.8878 -2.6193  1.3439
    6SAPS  H18Y  797   2.554   3.730   4.255  0.1067  0.2299  0.9426
    6SAPS  H18Z  798   2.520   3.604   4.133  0.3438  0.6059  0.0705
    7SAPS     N  799   6.126   4.205   6.401 -0.3007  0.2878  0.6519
    7SAPS   HN1  800   6.052   4.200   6.328  1.1598 -1.9716 -0.8093
    7SAPS   HN2  801   6.195   4.277   6.372 -0.0149 -0.2633 -0.0939
    7SAPS   HN3  802   6.177   4.114   6.405  0.1887  0.5602  0.7470
    7SAPS   C12  803   6.086   4.243   6.534 -0.3076 -0.1693  0.0683
    7SAPS  H12A  804   6.015   4.169   6.568 -1.6451 -0.4023 -2.9657
    7SAPS   C13  805   6.198   4.255   6.641  0.4839  0.0087 -0.5875
    7SAPS  O13A  806   6.315   4.235   6.608 -0.2432 -0.0381  0.6270
    7SAPS  O13B  807   6.166   4.255   6.764  0.4945  0.1886 -0.1039
    7SAPS   C11  808   6.032   4.394   6.533 -0.2088  0.3374  0.0072
    7SAPS  H11A  809   6.128   4.450   6.530  0.5348 -0.6896  2.3554
    7SAPS  H11B  810   5.987   4.410   6.633 -2.5513 -0.7874 -0.7991
    7SAPS     P  811   5.799   4.386   6.429 -0.2121 -0.7627 -0.0690
    7SAPS   O13  812   5.795   4.239   6.420  0.2828 -0.5214  0.2531
    7SAPS   O14  813   5.737   4.465   6.543  0.6543  0.2827 -0.3958
    7SAPS   O12  814   5.946   4.422   6.424  0.3208  0.1379 -0.6064
    7SAPS   O11  815   5.754   4.454   6.290  0.8182  0.0775  0.4238
    7SAPS    C1  816   5.749   4.601   6.292  0.3215  1.4087  0.1426
    7SAPS    HA  817   5.644   4.637   6.302 -0.1423  0.8699 -2.1973
    7SAPS    HB  818   5.806   4.647   6.376 -0.0807 -0.9634  1.8227
    7SAPS    C2  819   5.808   4.668   6.163  0.2354  0.5698  0.3014
    7SAPS    HS  820   5.826   4.776   6.182  0.0792  0.3947  1.5448
    7SAPS   O21  821   5.730   4.658   6.040  0.0344  0.0962 -0.0176
    7SAPS   C21  822   5.621   4.736   6.040  0.6029  0.0908  0.2223
    7SAPS   O22  823   5.594   4.812   6.129 -0.0729  0.3586 -0.2237
    7SAPS   C22  824   5.527   4.703   5.924  0.0192 -0.2469  0.0985
    7SAPS   H2R  825   5.488   4.599   5.932 -2.0153  0.0673 -3.4248
    7SAPS   H2S  826   5.439   4.770   5.918  0.7182  0.7318  0.5389
    7SAPS    C3  827   5.943   4.605   6.119 -0.7159 -0.2866 -0.3485
    7SAPS    HX  828   5.948   4.498   6.149 -0.6802 -0.7066 -1.7763
    7SAPS    HY  829   6.030   4.647   6.175  0.1456 -2.4793  0.0658
    7SAPS   O31  830   5.970   4.604   5.974 -0.0141  0.0956  0.7650
    7SAPS   C31  831   6.036   4.708   5.928  0.3252  0.8489 -0.5652
    7SAPS   O32  832   6.068   4.807   5.988  0.5454  0.4699 -0.1929
    7SAPS   C32  833   6.078   4.686   5.786 -0.2336 -0.3237 -0.3694
    7SAPS   H2X  834   5.990   4.690   5.718  0.6184  0.5094 -1.4718
    7SAPS   H2Y  835   6.133   4.590   5.775 -1.1886 -0.8685 -0.5223
    7SAPS   C23  836   5.597   4.695   5.781  0.0728 -0.0718  0.1793
    7SAPS   H3R  837   5.664   4.606   5.780  2.7147  1.7848  0.9848
    7SAPS   H3S  838   5.654   4.790   5.782  0.0750 -0.0273  2.7926
    7SAPS   C24  839   5.500   4.670   5.668 -0.7305  0.4753 -0.1329
    7SAPS   H4R  840   5.555   4.669   5.571 -0.6447 -0.4171 -0.0827
    7SAPS   H4S  841   5.438   4.762   5.657 -0.7382  0.5487  0.4955
    7SAPS   C25  842   5.417   4.549   5.680 -0.2534  0.0142 -0.4767
    7SAPS   H5R  843   5.353   4.530   5.768 -0.3087  1.8468 -0.0806
    7SAPS   C26  844   5.417   4.444   5.604 -0.2892  0.5482 -0.2562
    7SAPS   H6R  845   5.341   4.367   5.625  0.9329 -0.9216 -0.9861
    7SAPS   C27  846   5.498   4.412   5.484  0.1927 -0.1573  0.1118
    7SAPS   H7R  847   5.474   4.309   5.451 -3.7942  0.4581  0.6576
    7SAPS   H7S  848   5.607   4.430   5.499  0.2774 -0.1909 -0.4485
    7SAPS   C28  849   5.449   4.495   5.364 -0.2152 -0.8090 -0.1489
    7SAPS   H8R  850   5.357   4.460   5.315 -0.3765 -2.8590  1.5091
    7SAPS   C29  851   5.512   4.597   5.303  0.0637 -0.0888 -0.0374
    7SAPS   H9R  852   5.451   4.646   5.225 -0.9932  0.7038  1.2447
    7SAPS  C210  853   5.647   4.651   5.328 -0.4578 -0.3607 -0.2964
    7SAPS  H10R  854   5.699   4.604   5.415 -1.6409 -0.7620  0.2215
    7SAPS  H10S  855   5.635   4.754   5.368  1.6090 -0.2151  0.1007
    7SAPS  C211  856   5.745   4.663   5.213  0.5284 -0.2289  0.4120
    7SAPS  H11R  857   5.828   4.591   5.223  0.3858 -0.7823 -1.8674
    7SAPS  C212  858   5.748   4.749   5.113  0.1078  0.4857  0.5029
    7SAPS  H12R  859   5.835   4.756   5.045  1.1511 -0.1949  1.7121
    7SAPS  C213  860   5.651   4.866   5.096  0.1624 -0.0767  0.3684
    7SAPS  H13R  861   5.702   4.961   5.068 -0.0633 -0.6011 -2.0201
    7SAPS  H13S  862   5.608   4.896   5.194 -0.2924 -3.5014  1.3548
    7SAPS  C214  863   5.546   4.848   4.992 -0.7012  0.2948 -0.0018
    7SAPS  H14R  864   5.460   4.796   5.037 -0.7583  1.5703  1.4281
    7SAPS  C215  865   5.562   4.879   4.863  0.1802 -0.0884 -0.2552
    7SAPS  H15R  866   5.482   4.851   4.792 -1.9538  1.1109  1.5769
    7SAPS  C216  867   5.683   4.947   4.810 -0.5250  0.1540  0.8403
    7SAPS  H16R  868   5.728   4.874   4.740 -0.6366  0.7593  0.1250
    7SAPS  H16S  869   5.763   4.972   4.883  0.1540 -1.8089  0.8402
    7SAPS  C217  870   5.647   5.059   4.718  0.6553  0.3782 -0.8692
    7SAPS  H17R  871   5.740   5.114   4.691  0.5982  0.5198 -0.7801
    7SAPS  H17S  872   5.568   5.126   4.760 -1.2350 -0.2204 -3.2604
    7SAPS  C218  873   5.596   5.026   4.578  0.6372 -0.2969  0.4948
    7SAPS  H18R  874   5.508   4.959   4.583  1.4601 -2.2393 -4.4781
    7SAPS  H18S  875   5.681   4.974   4.528  0.1563 -0.7142  0.1100
    7SAPS  C219  876   5.573   5.145   4.484 -0.1241 -1.4410 -0.6116
    7SAPS  H19R  877   5.672   5.195   4.475 -0.9777  0.1988 -1.4575
    7SAPS  H19S  878   5.503   5.220   4.528  0.0127 -3.4807  3.5239
    7SAPS  C220  879   5.526   5.099   4.348 -0.4978  0.3437 -0.5383
    7SAPS  H20R  880   5.578   5.008   4.313  1.9752  0.8199  1.6029
    7SAPS  H20S  881   5.546   5.185   4.280 -0.0637  0.3207 -0.4437
    7SAPS  H20T  882   5.421   5.064   4.348 -1.9682  4.1794  0.3612
    7SAPS   C33  883   6.167   4.808   5.738  0.0307 -0.0559  0.0918
    7SAPS   H3X  884   6.255   4.803   5.806  1.0839 -2.1455 -1.2811
    7SAPS   H3Y  885   6.113   4.904   5.748  0.5999  0.6073 -2.4512
    7SAPS   C34  886   6.222   4.785   5.600  0.0862  0.6125 -0.2984
    7SAPS   H4X  887   6.189   4.688   5.557 -0.9430 -0.2908  2.2615
    7SAPS   H4Y  888   6.333   4.787   5.603  0.0967  3.2534 -0.3122
    7SAPS   C35  889   6.166   4.899   5.508 -0.7519 -0.0929 -0.0693
    7SAPS   H5X  890   6.203   4.999   5.537 -1.3417  0.1472 -0.1319
    7SAPS   H5Y  891   6.056   4.899   5.520 -0.6257 -1.3473  1.5289
    7SAPS   C36  892   6.203   4.873   5.370  0.1693 -0.2751  0.0250
    7SAPS   H6X  893   6.212   4.764   5.348 -0.5140 -0.1957 -0.6548
    7SAPS   H6Y  894   6.305   4.916   5.354 -0.9035  2.2670 -0.4839
    7SAPS   C37  895   6.110   4.937   5.263  0.2892 -0.3371 -0.3467
    7SAPS   H7X  896   6.086   5.041   5.293  1.3172 -0.1565 -0.0876
    7SAPS   H7Y  897   6.021   4.872   5.269 -0.5483  0.4494 -2.8897
    7SAPS   C38  898   6.173   4.931   5.121 -0.5601 -0.2696 -0.9822
    7SAPS   H8X  899   6.205   4.825   5.104 -0.8636 -0.9765  2.1413
    7SAPS   H8Y  900   6.270   4.985   5.128 -0.6496  0.2502 -3.1487
    7SAPS   C39  901   6.079   4.996   5.016 -0.4442  0.5730 -0.1815
    7SAPS   H9X  902   6.066   5.103   5.041  0.9246  0.7336 -0.1022
    7SAPS   H9Y  903   5.983   4.940   5.011  0.2437 -0.6383 -0.2661
    7SAPS  C310  904   6.143   4.985   4.878  0.2010  0.2755  0.0837
    7SAPS  H10X  905   6.170   4.879   4.858 -1.0931  0.0667 -0.6419
    7SAPS  H10Y  906   6.235   5.046   4.865 -0.6864  1.9287  1.1732
    7SAPS  C311  907   6.039   5.028   4.774  0.0243 -0.7660 -0.3079
    7SAPS  H11X  908   6.026   5.138   4.779  2.6661 -0.3846 -0.5105
    7SAPS  H11Y  909   5.946   4.975   4.802  0.3451 -0.9772  0.3732
    7SAPS  C312  910   6.084   5.004   4.626  0.4634 -0.0021 -0.0629
    7SAPS  H12X  911   6.118   4.900   4.607 -0.3738 -0.6577  1.7942
    7SAPS  H12Y  912   6.175   5.065   4.609  0.7382 -0.6536 -1.0273
    7SAPS  C313  913   5.973   5.021   4.515  0.2610 -0.0874  0.6788
    7SAPS  H13X  914   5.935   5.124   4.533  1.2479  0.1912  1.2718
    7SAPS  H13Y  915   5.892   4.952   4.546 -0.0226  0.1993  0.5710
    7SAPS  C314  916   6.014   4.997   4.367  0.1128  0.7333  0.7005
    7SAPS  H14X  917   6.089   5.074   4.340 -1.3125  2.0905  0.4579
    7SAPS  H14Y  918   5.921   5.020   4.311  1.4509  4.3042 -0.3309
    7SAPS  C315  919   6.035   4.851   4.311  0.4116  0.0762  0.5783
    7SAPS  H15X  920   6.138   4.826   4.342  0.7479 -1.3218 -1.4696
    7SAPS  H15Y  921   6.047   4.861   4.201  2.5303 -0.7933  0.6863
    7SAPS  C316  922   5.920   4.763   4.361 -0.4668 -0.3940  0.3607
    7SAPS  H16X  923   5.823   4.816   4.351  0.4220  1.6159  1.7233
    7SAPS  H16Y  924   5.938   4.751   4.470  0.8321  1.4564  0.3930
    7SAPS  C317  925   5.914   4.625   4.300  0.1569 -0.0692  0.7701
    7SAPS  H17X  926   6.011   4.577   4.324 -0.0359 -1.1202 -0.4670
    7SAPS  H17Y  927   5.907   4.643   4.191 -2.3618 -2.3342  0.4438
    7SAPS  C318  928   5.792   4.544   4.339 -0.6975 -0.2361  0.3049
    7SAPS  H18X  929   5.698   4.585   4.295 -1.3354 -0.0729  1.7508
    7SAPS  H18Y  930   5.763   4.542   4.446 -3.3914  0.3264 -0.3179
    7SAPS  H18Z  931   5.801   4.438   4.306  0.5261  0.2582 -1.0634
    8SAPS     N  932   3.011   6.496   6.793 -0.1810 -0.0096 -0.1129
    8SAPS   HN1  933   3.035   6.411   6.848  2.2637 -0.3012 -1.5000
    8SAPS   HN2  934   2.991   6.465   6.696 -1.8411 -2.2813  0.8684
    8SAPS   HN3  935   3.087   6.568   6.797  0.8684 -1.1314  3.0506
    8SAPS   C12  936   2.889   6.566   6.829  0.0586  0.0611 -0.0480
    8SAPS  H12A  937   2.810   6.492   6.832 -0.8676  1.0519  0.9631
    8SAPS   C13  938   2.883   6.642   6.967 -0.1693 -0.1531 -0.0297
    8SAPS  O13A  939   2.984   6.652   7.043 -0.2792 -0.4913 -0.9896
    8SAPS  O13B  940   2.768   6.653   7.016 -0.0125 -0.1542  0.6546
    8SAPS   C11  941   2.864   6.682   6.726 -0.0527  0.6542 -0.3486
    8SAPS  H11A  942   2.959   6.740   6.723  1.4213 -1.6352  0.1358
    8SAPS  H11B  943   2.775   6.745   6.747 -1.6443 -1.7794  0.5166
    8SAPS     P  944   2.729   6.617   6.516 -0.5315 -0.1214 -0.0891
    8SAPS   O13  945   2.642   6.534   6.596 -0.4667 -0.0751 -0.2263
    8SAPS   O14  946   2.683   6.752   6.481  0.5261  0.0983 -0.1745
    8SAPS   O12  947   2.867   6.630   6.594  0.0753  0.4823  0.1696
    8SAPS   O11  948   2.756   6.531   6.384 -0.4226  0.1021  0.3898
    8SAPS    C1  949   2.696   6.570   6.260 -0.9934 -0.1621 -0.5140
    8SAPS    HA  950   2.587   6.589   6.270 -1.0131 -1.2675  2.2233
    8SAPS    HB  951   2.743   6.667   6.232 -0.6058  0.6880  2.6136
    8SAPS    C2  952   2.726   6.464   6.149  0.5287 -0.4745 -1.1746
    8SAPS    HS  953   2.836   6.462   6.135  0.6757  1.7567 -0.8520
    8SAPS   O21  954   2.649   6.502   6.029  0.0770 -0.2850  0.6807
    8SAPS   C21  955   2.711   6.463   5.919 -0.0928  0.4954  0.1841
    8SAPS   O22  956   2.825   6.419   5.910 -0.0522 -1.1906 -0.0479
    8SAPS   C22  957   2.612   6.464   5.800 -0.4833  0.1983  0.4762
    8SAPS   H2R  958   2.533   6.394   5.834 -0.3122 -0.0862  0.2922
    8SAPS   H2S  959   2.558   6.560   5.787 -0.9626  0.5964  4.3370
    8SAPS    C3  960   2.674   6.325   6.200  0.0708 -0.2486 -0.6082
    8SAPS    HX  961   2.568   6.311   6.170 -0.1601 -0.4533  0.2817
    8SAPS    HY  962   2.681   6.318   6.311  1.6581 -1.5217 -0.7415
    8SAPS   O31  963   2.746   6.216   6.132  0.4044 -0.3811 -0.2406
    8SAPS   C31  964   2.861   6.183   6.180 -0.2033  0.2417  0.0845
    8SAPS   O32  965   2.906   6.231   6.282 -0.2031 -0.0502  0.3928
    8SAPS   C32  966   2.929   6.078   6.087  0.2900 -0.2030  0.3157
    8SAPS   H2X  967   2.928   6.109   5.980  1.5915  0.1578  0.3935
    8SAPS   H2Y  968   2.875   5.981   6.085 -0.4111  0.1722  0.6637
    8SAPS   C23  969   2.682   6.411   5.675  0.0538  0.2902 -0.3971
    8SAPS   H3R  970   2.682   6.301   5.686 -0.2731  0.3329  0.0431
    8SAPS   H3S  971   2.789   6.436   5.664  0.0681 -0.0648 -1.1618
    8SAPS   C24  972   2.607   6.439   5.540  0.1240 -0.3207  0.9177
    8SAPS   H4R  973   2.499   6.413   5.540 -0.5216  2.1203  0.9367
    8SAPS   H4S  974   2.661   6.379   5.463  5.0994  1.5327  2.5706
    8SAPS   C25  975   2.619   6.589   5.517 -0.5947  0.0719 -0.5598
    8SAPS   H5R  976   2.711   6.643   5.545 -0.8053  0.9586 -1.5235
    8SAPS   C26  977   2.521   6.668   5.461 -0.3616 -0.0390 -0.4367
    8SAPS   H6R  978   2.537   6.777   5.449 -1.2590  0.1782  0.2708
    8SAPS   C27  979   2.380   6.621   5.419  0.7235 -0.6485 -0.1149
    8SAPS   H7R  980   2.338   6.579   5.512  1.4740  0.5137  0.7831
    8SAPS   H7S  981   2.388   6.546   5.338 -1.4881 -1.4585  0.3551
    8SAPS   C28  982   2.273   6.723   5.382 -0.0843  0.2714  1.2794
    8SAPS   H8R  983   2.273   6.800   5.461 -0.0046  1.1775  0.4032
    8SAPS   C29  984   2.185   6.725   5.278  0.2902  0.1361  0.6783
    8SAPS   H9R  985   2.118   6.811   5.266 -0.6079 -0.6418 -0.0403
    8SAPS  C210  986   2.166   6.609   5.180 -0.2962  0.2442  0.3036
    8SAPS  H10R  987   2.066   6.564   5.201  0.2311 -0.4069  1.5265
    8SAPS  H10S  988   2.238   6.525   5.190  1.2573  1.4626 -0.1690
    8SAPS  C211  989   2.160   6.658   5.042 -0.4639 -0.3622  0.1998
    8SAPS  H11R  990   2.061   6.698   5.016  0.8861  1.8049 -1.9971
    8SAPS  C212  991   2.267   6.655   4.956 -0.0971  0.4047  0.1401
    8SAPS  H12R  992   2.258   6.689   4.851 -1.3878 -0.5633 -0.0845
    8SAPS  C213  993   2.404   6.594   4.980 -0.1042  0.6161  0.2789
    8SAPS  H13R  994   2.425   6.521   4.899  0.0517  1.4119 -0.4056
    8SAPS  H13S  995   2.406   6.536   5.076  0.0125  1.4882  0.8117
    8SAPS  C214  996   2.514   6.687   4.993 -1.1154  0.5032  0.0524
    8SAPS  H14R  997   2.499   6.754   5.079 -2.4382 -0.5738  0.6977
    8SAPS  C215  998   2.605   6.717   4.901 -0.6008 -0.0208  0.3138
    8SAPS  H15R  999   2.676   6.797   4.926 -0.5729  0.1597 -0.3315
    8SAPS  C216 1000   2.641   6.650   4.774 -0.4898  0.2494  0.8243
    8SAPS  H16R 1001   2.602   6.701   4.683  3.2097  1.2006 -0.3895
    8SAPS  H16S 1002   2.605   6.545   4.768 -0.2153  0.2305 -2.1304
    8SAPS  C217 1003   2.788   6.634   4.763 -0.3166 -0.1490  0.1179
    8SAPS  H17R 1004   2.847   6.617   4.856 -0.2922 -0.3353  0.0690
    8SAPS  H17S 1005   2.832   6.734   4.743  1.6512 -1.1472 -0.7717
    8SAPS  C218 1006   2.830   6.526   4.658 -0.3361 -0.3162  0.1670
    8SAPS  H18R 1007   2.754   6.528   4.578 -0.0136  0.3364 -0.1270
    8SAPS  H18S 1008   2.838   6.423   4.699  0.1400 -1.0783 -1.7037
    8SAPS  C219 1009   2.974   6.557   4.610  0.5593  0.6110 -0.0808
    8SAPS  H19R 1010   2.989   6.473   4.539 -0.9061  0.8289 -0.6792
    8SAPS  H19S 1011   3.049   6.549   4.693  0.1820  1.6453  0.3764
    8SAPS  C220 1012   3.006   6.689   4.537 -0.1604 -0.4276 -0.0652
    8SAPS  H20R 1013   2.994   6.769   4.613  1.7217 -2.0220  2.0568
    8SAPS  H20S 1014   2.940   6.693   4.448 -1.5247 -0.5495  0.9187
    8SAPS  H20T 1015   3.116   6.698   4.523 -0.2584  0.9299 -0.0764
    8SAPS   C33 1016   3.074   6.044   6.128  0.6475 -0.2776  0.0481
    8SAPS   H3X 1017   3.081   6.022   6.237  0.0165  0.0883  0.1701
    8SAPS   H3Y 1018   3.135   6.136   6.120  1.1086 -0.5244  0.6145
    8SAPS   C34 1019   3.144   5.937   6.038 -0.5411 -0.2817 -0.2813
    8SAPS   H4X 1020   3.099   5.839   6.066 -0.4919 -0.7508 -1.7941
    8SAPS   H4Y 1021   3.253   5.928   6.057 -0.1526 -0.6690 -2.4351
    8SAPS   C35 1022   3.138   5.964   5.881  0.2676  0.2858 -0.2200
    8SAPS   H5X 1023   3.192   6.060   5.863 -1.6057  0.9643 -2.7074
    8SAPS   H5Y 1024   3.029   5.969   5.860  0.3745  1.2842 -0.6179
    8SAPS   C36 1025   3.209   5.855   5.795  1.0720  0.0861 -0.5811
    8SAPS   H6X 1026   3.169   5.755   5.822  0.5604  0.0966 -1.2614
    8SAPS   H6Y 1027   3.314   5.867   5.830  0.3137  3.9382  0.8066
    8SAPS   C37 1028   3.194   5.879   5.644 -0.3611 -0.3080 -0.5600
    8SAPS   H7X 1029   3.237   5.974   5.606 -2.2293  0.3891 -1.0649
    8SAPS   H7Y 1030   3.084   5.897   5.643 -0.0684  1.8096  0.6138
    8SAPS   C38 1031   3.235   5.763   5.563 -0.2679 -0.3640 -0.7292
    8SAPS   H8X 1032   3.173   5.677   5.596 -1.0830  0.4182 -0.1598
    8SAPS   H8Y 1033   3.340   5.738   5.587 -1.2896 -1.5459  3.2675
    8SAPS   C39 1034   3.211   5.783   5.415  0.0298 -0.0081 -0.1045
    8SAPS   H9X 1035   3.259   5.879   5.385  2.3436 -1.1203 -0.2210
    8SAPS   H9Y 1036   3.105   5.788   5.382  0.8212 -2.4645 -3.6785
    8SAPS  C310 1037   3.275   5.668   5.339 -0.0615 -0.4830  0.0567
    8SAPS  H10X 1038   3.239   5.574   5.387  1.3910 -0.8120  0.5654
    8SAPS  H10Y 1039   3.385   5.681   5.351 -0.1804 -1.1071  2.5005
    8SAPS  C311 1040   3.233   5.677   5.195  0.5002  0.3683  0.0003
    8SAPS  H11X 1041   3.276   5.765   5.143 -0.3074  0.7918  0.0417
    8SAPS  H11Y 1042   3.122   5.686   5.199  0.4984 -0.1011  2.7552
    8SAPS  C312 1043   3.266   5.552   5.111 -0.1678 -0.3560 -0.3789
    8SAPS  H12X 1044   3.195   5.469   5.132  0.1473 -0.8183 -1.1164
    8SAPS  H12Y 1045   3.371   5.519   5.122  0.6252  1.2250 -2.5427
    8SAPS  C313 1046   3.261   5.579   4.961  0.3776  0.1897  0.1311
    8SAPS  H13X 1047   3.354   5.633   4.930  0.4846  0.0129  0.1431
    8SAPS  H13Y 1048   3.169   5.640   4.945  1.4147  2.1848  1.2849
    8SAPS  C314 1049   3.271   5.448   4.883 -0.2937  0.6566 -0.9705
    8SAPS  H14X 1050   3.175   5.397   4.908  1.0034 -1.5371 -0.2294
    8SAPS  H14Y 1051   3.349   5.378   4.920 -2.5518 -1.1747  0.6282
    8SAPS  C315 1052   3.282   5.462   4.734 -0.3749 -0.2344  0.9400
    8SAPS  H15X 1053   3.247   5.563   4.703  3.1426  0.4552 -1.2679
    8SAPS  H15Y 1054   3.229   5.384   4.674  4.0088 -3.2261  0.4544
    8SAPS  C316 1055   3.425   5.463   4.670 -0.0915 -0.3243  0.0782
    8SAPS  H16X 1056   3.485   5.548   4.708  0.1811 -0.8644  0.8914
    8SAPS  H16Y 1057   3.415   5.461   4.560 -1.2398 -1.3021  0.1751
    8SAPS  C317 1058   3.507   5.340   4.710  0.0180  0.0839 -0.2095
    8SAPS  H17X 1059   3.435   5.263   4.678  1.6869 -1.9336  0.6245
    8SAPS  H17Y 1060   3.535   5.346   4.818 -1.2817 -0.0729  0.1461
    8SAPS  C318 1061   3.637   5.333   4.634 -0.1611 -0.6043  0.0047
    8SAPS  H18X 1062   3.620   5.362   4.528 -0.8910  2.0733  0.7751
    8SAPS  H18Y 1063   3.669   5.226   4.633  1.8529 -0.0396 -1.6114
    8SAPS  H18Z 1064   3.705   5.407   4.681 -0.3920 -1.2857  1.4892
    9SAPS     N 1065   2.132   4.914   6.699 -0.5937 -0.0372 -0.0264
    9SAPS   HN1 1066   2.211   4.975   6.731 -0.1901 -0.4229 -0.2695
    9SAPS   HN2 1067   2.169   4.839   6.636  2.0589  2.4215 -1.6303
    9SAPS   HN3 1068   2.072   4.981   6.648  2.0683  0.5221 -2.6766
    9SAPS   C12 1069   2.059   4.842   6.803 -0.3490  0.0179 -0.9785
    9SAPS  H12A 1070   2.105   4.861   6.899 -0.1373 -0.4816 -0.9771
    9SAPS   C13 1071   1.909   4.883   6.810  0.6668  0.4137  0.2637
    9SAPS  O13A 1072   1.867   4.971   6.735 -0.2956  0.1011  0.7504
    9SAPS  O13B 1073   1.840   4.855   6.911  0.0532  0.0118 -0.3223
    9SAPS   C11 1074   2.054   4.690   6.771 -0.1362 -0.3918  0.0633
    9SAPS  H11A 1075   1.988   4.660   6.687  1.0631 -0.9835 -0.6870
    9SAPS  H11B 1076   1.997   4.646   6.856 -1.0453  0.5272 -0.0501
    9SAPS     P 1077   2.203   4.481   6.747  0.0684 -0.1640 -0.2357
    9SAPS   O13 1078   2.347   4.456   6.743 -0.4039  0.5470 -0.2350
    9SAPS   O14 1079   2.122   4.387   6.825 -0.5473 -0.1683  0.2781
    9SAPS   O12 1080   2.187   4.636   6.784  0.9922  0.4879  0.1512
    9SAPS   O11 1081   2.153   4.487   6.599 -0.0086 -0.2765 -0.1575
    9SAPS    C1 1082   2.087   4.373   6.540  0.3201 -0.0890 -0.2504
    9SAPS    HA 1083   2.021   4.324   6.615 -0.7343 -0.2385 -1.2365
    9SAPS    HB 1084   2.017   4.409   6.461  0.2772 -1.1353 -0.6949
    9SAPS    C2 1085   2.181   4.274   6.464  0.1252 -0.6752  0.2144
    9SAPS    HS 1086   2.259   4.243   6.537 -0.8330 -1.5286  0.9070
    9SAPS   O21 1087   2.236   4.351   6.350  0.9618  0.5724 -0.3860
    9SAPS   C21 1088   2.338   4.293   6.294 -0.3690 -0.1394  1.0532
    9SAPS   O22 1089   2.399   4.198   6.337  0.2327  0.1331 -0.0095
    9SAPS   C22 1090   2.374   4.377   6.169  1.0422 -0.4020  0.2222
    9SAPS   H2R 1091   2.288   4.438   6.135 -0.2426 -1.2872  1.7760
    9SAPS   H2S 1092   2.450   4.450   6.207 -0.2801  0.5298  1.1632
    9SAPS    C3 1093   2.097   4.151   6.413  0.3608 -0.7650 -0.1580
    9SAPS    HX 1094   2.000   4.182   6.368  0.9992  0.8584 -0.4762
    9SAPS    HY 1095   2.055   4.089   6.496  1.6007 -1.8304 -0.2872
    9SAPS   O31 1096   2.155   4.064   6.318 -0.0330 -0.4976  0.2600
    9SAPS   C31 1097   2.216   3.957   6.367  0.6415  0.5363 -0.6330
    9SAPS   O32 1098   2.220   3.933   6.486 -0.1496 -0.3778 -0.2325
    9SAPS   C32 1099   2.270   3.880   6.248  0.1876 -0.5203  0.1849
    9SAPS   H2X 1100   2.335   3.796   6.282  0.7228  0.8281  2.7510
    9SAPS   H2Y 1101   2.322   3.942   6.172 -2.8494  0.5137 -1.2037
    9SAPS   C23 1102   2.442   4.299   6.057  0.1435  0.2703  0.2065
    9SAPS   H3R 1103   2.530   4.243   6.095  0.0891  1.0285  1.5101
    9SAPS   H3S 1104   2.497   4.373   5.995 -1.7464 -0.5223 -2.6177
    9SAPS   C24 1105   2.361   4.201   5.965 -0.6085  0.4538 -0.3505
    9SAPS   H4R 1106   2.281   4.263   5.920 -0.8145 -0.3234 -1.0717
    9SAPS   H4S 1107   2.309   4.123   6.024 -0.8171 -1.8280 -3.2886
    9SAPS   C25 1108   2.433   4.132   5.850 -0.2149 -0.4393  0.2533
    9SAPS   H5R 1109   2.531   4.086   5.868 -0.0487 -0.1388  0.1124
    9SAPS   C26 1110   2.387   4.119   5.725  0.2744  0.2979 -0.6694
    9SAPS   H6R 1111   2.448   4.062   5.654 -0.3212  0.6509 -1.4882
    9SAPS   C27 1112   2.253   4.161   5.675  0.0715  0.0056  0.1211
    9SAPS   H7R 1113   2.249   4.180   5.566 -2.8996 -1.1351 -0.0547
    9SAPS   H7S 1114   2.234   4.262   5.715  1.2714  0.6656 -0.9007
    9SAPS   C28 1115   2.139   4.067   5.710  0.5907  0.7258  0.3525
    9SAPS   H8R 1116   2.155   3.958   5.704  0.0646  0.6194  0.8206
    9SAPS   C29 1117   2.013   4.107   5.737 -0.4083 -1.0878  0.3694
    9SAPS   H9R 1118   1.940   4.032   5.772  0.5695 -1.8669  0.7701
    9SAPS  C210 1119   1.973   4.251   5.738  0.7096  0.0180 -0.0320
    9SAPS  H10R 1120   1.987   4.297   5.638 -1.1749  1.1211  0.1525
    9SAPS  H10S 1121   2.041   4.303   5.809 -1.4635 -0.5791  2.7005
    9SAPS  C211 1122   1.836   4.276   5.792  0.2335  0.0631  0.4669
    9SAPS  H11R 1123   1.804   4.200   5.864 -0.3343 -1.2434 -1.1083
    9SAPS  C212 1124   1.746   4.372   5.752 -1.0123 -0.3150  0.0081
    9SAPS  H12R 1125   1.649   4.381   5.802 -1.5540  0.7015 -1.1938
    9SAPS  C213 1126   1.770   4.476   5.642  0.4388  0.4681  0.1136
    9SAPS  H13R 1127   1.676   4.480   5.581  1.5579 -0.5642 -1.7730
    9SAPS  H13S 1128   1.855   4.444   5.578  0.5393  1.2290 -0.1457
    9SAPS  C214 1129   1.801   4.612   5.704 -0.1008  0.6564  0.0547
    9SAPS  H14R 1130   1.768   4.639   5.806  1.1023  3.8007 -0.2791
    9SAPS  C215 1131   1.869   4.708   5.636 -0.3868  0.4098 -0.1620
    9SAPS  H15R 1132   1.888   4.805   5.684  0.3917  1.4325 -2.3831
    9SAPS  C216 1133   1.935   4.686   5.503 -0.1771 -0.5921  0.4220
    9SAPS  H16R 1134   1.978   4.583   5.493  1.2825 -0.0376  0.7519
    9SAPS  H16S 1135   2.016   4.760   5.486 -1.3399  1.0442  1.7207
    9SAPS  C217 1136   1.845   4.699   5.375  0.0689 -0.2783  0.1337
    9SAPS  H17R 1137   1.794   4.797   5.369 -0.3034 -0.5452 -1.7789
    9SAPS  H17S 1138   1.757   4.633   5.386 -0.6746  0.4178 -1.3381
    9SAPS  C218 1139   1.922   4.657   5.249  0.3821  0.5243  0.4148
    9SAPS  H18R 1140   1.985   4.567   5.266  0.4671  0.5342  0.1587
    9SAPS  H18S 1141   1.992   4.741   5.230  0.2125  0.6890  0.5174
    9SAPS  C219 1142   1.848   4.627   5.124 -0.0297 -0.8018  0.1476
    9SAPS  H19R 1143   1.778   4.541   5.124 -2.6034  1.0090 -3.4734
    9SAPS  H19S 1144   1.925   4.608   5.046 -1.2201 -3.6578 -0.4651
    9SAPS  C220 1145   1.757   4.745   5.073  0.5288  0.6009  0.2203
    9SAPS  H20R 1146   1.731   4.741   4.965  0.0723  1.9005  0.2594
    9SAPS  H20S 1147   1.803   4.843   5.099  0.6888  0.3557  0.8593
    9SAPS  H20T 1148   1.662   4.749   5.131 -0.3307 -0.6998 -1.0402
    9SAPS   C33 1149   2.156   3.826   6.163 -0.0803  0.1677 -0.1818
    9SAPS   H3X 1150   2.071   3.898   6.162 -2.1456 -2.0515  1.9663
    9SAPS   H3Y 1151   2.115   3.737   6.215 -1.0097 -0.2201 -1.5101
    9SAPS   C34 1152   2.213   3.776   6.027  0.1870 -0.2910 -0.4912
    9SAPS   H4X 1153   2.297   3.707   6.048 -0.2447 -0.8776 -0.6584
    9SAPS   H4Y 1154   2.242   3.866   5.969  2.3606  0.3737  1.4886
    9SAPS   C35 1155   2.110   3.704   5.940 -0.3661 -0.8927 -0.2558
    9SAPS   H5X 1156   2.024   3.767   5.910 -1.3795 -2.4666 -0.7729
    9SAPS   H5Y 1157   2.075   3.610   5.987 -2.3953  0.6994  1.6412
    9SAPS   C36 1158   2.180   3.666   5.809 -0.0393 -0.4876 -0.1013
    9SAPS   H6X 1159   2.275   3.620   5.841  0.4666  2.0320  2.3881
    9SAPS   H6Y 1160   2.204   3.759   5.753 -2.0313  1.5710  2.2034
    9SAPS   C37 1161   2.106   3.574   5.714 -0.4142 -0.0316  0.1535
    9SAPS   H7X 1162   2.008   3.623   5.695 -0.9838 -0.4743  1.7890
    9SAPS   H7Y 1163   2.079   3.477   5.762  0.5067 -0.2181  0.3016
    9SAPS   C38 1164   2.185   3.551   5.585 -0.7250 -0.1753  0.0799
    9SAPS   H8X 1165   2.133   3.469   5.530  3.5699 -2.9303 -0.3744
    9SAPS   H8Y 1166   2.291   3.522   5.600 -0.9782 -0.8412  0.6585
    9SAPS   C39 1167   2.189   3.673   5.495  1.1157 -0.0542  0.1282
    9SAPS   H9X 1168   2.256   3.757   5.524 -0.0655  1.6060 -1.7263
    9SAPS   H9Y 1169   2.084   3.710   5.491  0.9964 -0.4629 -2.1105
    9SAPS  C310 1170   2.231   3.627   5.357 -0.3195  0.1645 -0.1369
    9SAPS  H10X 1171   2.181   3.534   5.324 -0.2596  0.4734 -1.1637
    9SAPS  H10Y 1172   2.341   3.613   5.348 -0.6209 -1.7618 -1.3958
    9SAPS  C311 1173   2.214   3.732   5.249  0.0290  0.2525 -0.2457
    9SAPS  H11X 1174   2.105   3.747   5.232  0.3707  0.4648 -2.5863
    9SAPS  H11Y 1175   2.257   3.702   5.152  1.5126 -0.9903  0.7497
    9SAPS  C312 1176   2.258   3.887   5.286  0.8798  0.6998  0.0417
    9SAPS  H12X 1177   2.235   3.895   5.395  0.1578 -1.9471  0.1597
    9SAPS  H12Y 1178   2.184   3.954   5.238 -0.5960 -0.5700  0.4452
    9SAPS  C313 1179   2.404   3.907   5.282 -0.7325  0.4112  0.5985
    9SAPS  H13X 1180   2.444   3.897   5.179  1.6076 -0.8943  1.5558
    9SAPS  H13Y 1181   2.455   3.821   5.329  1.1893  0.7171 -0.8252
    9SAPS  C314 1182   2.452   4.039   5.346 -0.0379  0.3612  0.6073
    9SAPS  H14X 1183   2.563   4.032   5.355  0.0645 -0.9633 -1.1574
    9SAPS  H14Y 1184   2.411   4.061   5.447  1.1960  2.8002  0.6718
    9SAPS  C315 1185   2.412   4.166   5.265 -0.0918  0.6260  0.6536
    9SAPS  H15X 1186   2.444   4.251   5.328 -0.5134  1.8909 -0.7766
    9SAPS  H15Y 1187   2.301   4.164   5.259 -0.2812  1.0710  3.1183
    9SAPS  C316 1188   2.473   4.182   5.125  0.1918  0.1271  0.3198
    9SAPS  H16X 1189   2.458   4.287   5.093  1.2074  0.6011  1.3002
    9SAPS  H16Y 1190   2.431   4.114   5.048  0.3975 -0.1093  0.4133
    9SAPS  C317 1191   2.627   4.159   5.106  0.5541  0.6987 -0.5200
    9SAPS  H17X 1192   2.643   4.150   4.997 -0.5039 -2.4101 -0.5196
    9SAPS  H17Y 1193   2.651   4.062   5.155 -2.2824  0.3050  0.2681
    9SAPS  C318 1194   2.698   4.281   5.157  0.0756 -0.7682 -0.3114
    9SAPS  H18X 1195   2.657   4.377   5.120 -1.0271 -0.7377  0.9154
    9SAPS  H18Y 1196   2.809   4.281   5.153  0.2568  0.0553  2.5863
    9SAPS  H18Z 1197   2.680   4.266   5.266  2.7339 -2.7427 -0.0315
   10SAPS     N 1198   1.449   2.722   6.618  0.0129  0.7365  0.0647
   10SAPS   HN1 1199   1.354   2.713   6.658 -0.3530 -0.7149 -1.0496
   10SAPS   HN2 1200   1.463   2.637   6.560  0.6492  1.7213 -1.2931
   10SAPS   HN3 1201   1.510   2.713   6.702 -0.5755 -0.9601  0.3350
   10SAPS   C12 1202   1.468   2.855   6.552  0.2172 -0.3449 -0.2214
   10SAPS  H12A 1203   1.404   2.854   6.464 -2.4168  1.3437  1.5280
   10SAPS   C13 1204   1.428   2.983   6.634  0.0064 -0.6705  0.0933
   10SAPS  O13A 1205   1.369   2.984   6.736  0.3825 -0.1578 -0.2182
   10SAPS  O13B 1206   1.449   3.093   6.572  0.1604  0.5196  0.0406
   10SAPS   C11 1207   1.613   2.871   6.495  0.0199  0.1949  0.1522
   10SAPS  H11A 1208   1.690   2.864   6.574  0.1734 -2.6333 -0.1620
   10SAPS  H11B 1209   1.621   2.970   6.444  0.5583 -1.0577 -2.3708
   10SAPS     P 1210   1.760   2.768   6.299  0.4010  0.0166 -0.0450
   10SAPS   O13 1211   1.879   2.806   6.373  0.2376 -0.5386 -0.3450
   10SAPS   O14 1212   1.758   2.635   6.227 -0.2284  0.1930  0.5802
   10SAPS   O12 1213   1.640   2.766   6.398  0.3886  0.0897  0.7361
   10SAPS   O11 1214   1.708   2.884   6.196 -1.1364  0.2937 -0.3498
   10SAPS    C1 1215   1.575   2.870   6.141  0.2004 -0.0479 -0.4910
   10SAPS    HA 1216   1.556   2.764   6.114  2.4620 -1.3914  2.5959
   10SAPS    HB 1217   1.497   2.901   6.214 -1.3365 -1.9819 -1.2190
   10SAPS    C2 1218   1.567   2.959   6.017 -0.4850  0.2081 -0.3008
   10SAPS    HS 1219   1.478   2.930   5.957  0.9556 -2.4885 -1.2899
   10SAPS   O21 1220   1.687   2.947   5.942  0.0846  0.7161 -0.3076
   10SAPS   C21 1221   1.691   2.845   5.860  0.5566  0.0479  0.0144
   10SAPS   O22 1222   1.598   2.769   5.832 -0.3328  0.1620  0.3239
   10SAPS   C22 1223   1.830   2.848   5.786  0.5179 -0.2905 -0.0389
   10SAPS   H2R 1224   1.906   2.884   5.859  1.8830 -2.0600 -0.5171
   10SAPS   H2S 1225   1.857   2.745   5.752 -0.2226 -0.4493 -0.1700
   10SAPS    C3 1226   1.552   3.112   6.052  0.1473 -0.3636  0.0511
   10SAPS    HX 1227   1.637   3.149   6.114 -0.0051 -0.1619  0.1411
   10SAPS    HY 1228   1.457   3.124   6.110 -1.6973 -0.0108 -2.8436
   10SAPS   O31 1229   1.539   3.198   5.935 -0.2375 -0.3460  0.3991
   10SAPS   C31 1230   1.648   3.237   5.875 -0.5806  0.6174 -1.1195
   10SAPS   O32 1231   1.757   3.211   5.919 -0.0929  0.1843 -0.0729
   10SAPS   C32 1232   1.622   3.330   5.756 -0.0294  0.4297 -0.1894
   10SAPS   H2X 1233   1.598   3.433   5.788 -0.7265  0.1742  0.1232
   10SAPS   H2Y 1234   1.538   3.277   5.707  0.8605 -2.0012  0.7306
   10SAPS   C23 1235   1.824   2.941   5.669  0.7268  0.0025  0.3385
   10SAPS   H3R 1236   1.919   2.928   5.613  0.5208 -0.9327  0.1932
   10SAPS   H3S 1237   1.816   3.045   5.706  0.7924  0.4281 -0.8133
   10SAPS   C24 1238   1.699   2.921   5.583 -0.3898  0.5617  0.0481
   10SAPS   H4R 1239   1.707   3.012   5.520  1.1080  1.1106  0.9773
   10SAPS   H4S 1240   1.612   2.936   5.651 -0.0646  0.1907  0.5532
   10SAPS   C25 1241   1.706   2.791   5.492 -0.3982 -0.0891  0.3139
   10SAPS   H5R 1242   1.651   2.702   5.525  0.5819 -1.2379 -1.0488
   10SAPS   C26 1243   1.764   2.793   5.370 -0.2742  1.0569 -0.4922
   10SAPS   H6R 1244   1.755   2.700   5.312 -0.2785  0.0109  1.1428
   10SAPS   C27 1245   1.845   2.896   5.303  0.2490  0.5288 -0.5244
   10SAPS   H7R 1246   1.942   2.844   5.288  0.6444  0.4727  1.9188
   10SAPS   H7S 1247   1.872   2.979   5.371 -0.8862  1.8655 -1.6382
   10SAPS   C28 1248   1.791   2.961   5.172  0.5497 -0.2986 -0.0001
   10SAPS   H8R 1249   1.699   2.913   5.136  0.5260 -1.1229  1.0992
   10SAPS   C29 1250   1.854   3.041   5.082 -0.2718  0.6019 -0.4674
   10SAPS   H9R 1251   1.791   3.057   4.993 -0.6485  1.6241 -0.0290
   10SAPS  C210 1252   1.992   3.104   5.082  0.8677 -0.2138  0.1524
   10SAPS  H10R 1253   2.056   3.053   5.008  0.1854  0.5616 -1.0108
   10SAPS  H10S 1254   2.048   3.099   5.178  0.0509  3.8668  1.0345
   10SAPS  C211 1255   1.995   3.250   5.039 -0.6867 -0.1409  0.7082
   10SAPS  H11R 1256   1.999   3.325   5.121 -0.2781  1.8121 -1.0111
   10SAPS  C212 1257   1.989   3.297   4.912 -0.6678  0.1322  0.5221
   10SAPS  H12R 1258   1.977   3.406   4.903  0.5566  0.1516 -1.7646
   10SAPS  C213 1259   1.982   3.226   4.787  0.2617  1.1737  0.0025
   10SAPS  H13R 1260   2.002   3.120   4.811  0.6123  1.0510 -0.7918
   10SAPS  H13S 1261   2.071   3.245   4.722  1.3386  2.1920  1.6978
   10SAPS  C214 1262   1.859   3.256   4.705  0.1797 -0.0298 -0.5367
   10SAPS  H14R 1263   1.763   3.232   4.752  0.4523 -0.8820 -0.3879
   10SAPS  C215 1264   1.852   3.296   4.571  0.1149 -0.2795 -0.2285
   10SAPS  H15R 1265   1.750   3.313   4.533 -0.4362  0.0692  1.3211
   10SAPS  C216 1266   1.966   3.328   4.479 -0.9038  0.3359  0.2395
   10SAPS  H16R 1267   2.042   3.249   4.499  0.0640  1.5782  1.6388
   10SAPS  H16S 1268   2.007   3.430   4.492  1.1258 -0.1839 -1.4170
   10SAPS  C217 1269   1.931   3.338   4.325 -0.0572  0.0911  0.3657
   10SAPS  H17R 1270   1.856   3.415   4.296  1.1821  0.3217 -2.6013
   10SAPS  H17S 1271   1.883   3.240   4.302 -0.1460 -0.1384  1.4927
   10SAPS  C218 1272   2.063   3.363   4.250 -0.0201  0.0698  1.1572
   10SAPS  H18R 1273   2.053   3.316   4.150  2.5363  0.5857  0.5962
   10SAPS  H18S 1274   2.140   3.316   4.315  0.2289 -0.4650  0.4857
   10SAPS  C219 1275   2.101   3.511   4.230  0.4359 -0.7235  0.0940
   10SAPS  H19R 1276   2.122   3.558   4.329 -0.5585 -0.9428  0.4199
   10SAPS  H19S 1277   2.010   3.562   4.191 -0.2272 -0.5973  1.7275
   10SAPS  C220 1278   2.221   3.526   4.138  0.4613 -0.0931  0.3930
   10SAPS  H20R 1279   2.228   3.635   4.116  0.8153 -0.2947 -0.5390
   10SAPS  H20S 1280   2.210   3.471   4.042 -3.6713 -0.4076  0.8474
   10SAPS  H20T 1281   2.315   3.503   4.192  0.0775  0.7198  1.4421
   10SAPS   C33 1282   1.744   3.349   5.657  1.2374  0.1786  0.0277
   10SAPS   H3X 1283   1.782   3.250   5.623 -0.5929 -0.2796 -0.7912
   10SAPS   H3Y 1284   1.824   3.408   5.707  1.3828 -0.2714  0.3438
   10SAPS   C34 1285   1.699   3.445   5.542 -0.7081  0.2982 -0.1233
   10SAPS   H4X 1286   1.709   3.549   5.579  0.5462 -0.3459  1.4559
   10SAPS   H4Y 1287   1.593   3.422   5.517 -1.3759  2.4623  0.5042
   10SAPS   C35 1288   1.797   3.457   5.419 -0.1151  0.1421  0.0572
   10SAPS   H5X 1289   1.851   3.360   5.414 -0.1989  0.0000  1.5175
   10SAPS   H5Y 1290   1.864   3.544   5.434 -0.0570  0.3419 -1.2110
   10SAPS   C36 1291   1.738   3.502   5.283  0.5225 -0.1755 -0.3324
   10SAPS   H6X 1292   1.648   3.564   5.308 -1.0056 -1.8298 -1.5277
   10SAPS   H6Y 1293   1.709   3.412   5.225 -1.0603  0.6596 -0.9033
   10SAPS   C37 1294   1.839   3.591   5.208 -0.7591 -0.1681 -0.6352
   10SAPS   H7X 1295   1.931   3.529   5.197 -0.0072  0.5889  1.0565
   10SAPS   H7Y 1296   1.868   3.679   5.269 -0.0861 -0.8913  0.1256
   10SAPS   C38 1297   1.787   3.626   5.073  0.4878 -0.0334  0.2691
   10SAPS   H8X 1298   1.689   3.677   5.076  0.6638  0.3617 -0.5521
   10SAPS   H8Y 1299   1.766   3.530   5.022  2.0744 -1.9414  2.9132
   10SAPS   C39 1300   1.902   3.685   4.990 -0.2142 -0.3101  0.5459
   10SAPS   H9X 1301   1.998   3.636   5.018 -0.6019 -0.0316  2.5309
   10SAPS   H9Y 1302   1.897   3.791   5.023  0.3763 -0.2278  0.3789
   10SAPS  C310 1303   1.879   3.685   4.837 -0.3752  0.1746  0.4406
   10SAPS  H10X 1304   1.874   3.578   4.808  1.7531  0.1151  0.1297
   10SAPS  H10Y 1305   1.966   3.718   4.776 -1.1093  0.8052 -0.2841
   10SAPS  C311 1306   1.757   3.753   4.771 -0.1458 -0.1043  0.5261
   10SAPS  H11X 1307   1.668   3.722   4.829  0.1758 -1.6810  0.2244
   10SAPS  H11Y 1308   1.748   3.735   4.662  1.2813  1.7236  0.0405
   10SAPS  C312 1309   1.762   3.907   4.778  0.5708  0.7668 -0.6164
   10SAPS  H12X 1310   1.766   3.924   4.887  1.5089 -1.5942 -0.2101
   10SAPS  H12Y 1311   1.664   3.946   4.742  0.7048  1.6033 -0.0948
   10SAPS  C313 1312   1.870   3.969   4.696 -0.2663 -0.0373  0.2554
   10SAPS  H13X 1313   1.973   3.951   4.734 -0.0967  1.1158  0.3580
   10SAPS  H13Y 1314   1.851   4.078   4.703 -0.9074 -0.0844 -0.5375
   10SAPS  C314 1315   1.881   3.925   4.549  0.4460 -0.4688 -0.6835
   10SAPS  H14X 1316   1.782   3.929   4.498  0.2123  0.6980 -0.1726
   10SAPS  H14Y 1317   1.908   3.818   4.558 -0.1183 -0.4894  1.2195
   10SAPS  C315 1318   1.978   4.006   4.461  0.5879  0.5720  0.0058
   10SAPS  H15X 1319   2.070   4.039   4.515 -0.1879  4.0469 -0.5626
   10SAPS  H15Y 1320   1.938   4.108   4.440  3.3140  1.4081 -1.8537
   10SAPS  C316 1321   2.020   3.939   4.331  0.9280 -0.3506 -0.5431
   10SAPS  H16X 1322   1.935   3.885   4.284  0.2714 -0.4694  0.7360
   10SAPS  H16Y 1323   2.092   3.860   4.357 -0.5473 -1.3899  0.5681
   10SAPS  C317 1324   2.097   4.026   4.224 -0.1872 -0.9586 -0.3956
   10SAPS  H17X 1325   2.171   4.086   4.281 -2.8671  1.4700  0.7932
   10SAPS  H17Y 1326   2.020   4.096   4.185 -1.2147 -2.6260 -1.4787
   10SAPS  C318 1327   2.154   3.937   4.112  0.3788 -0.5175 -0.3636
   10SAPS  H18X 1328   2.216   3.850   4.142  2.2135  0.8166 -0.0948
   10SAPS  H18Y 1329   2.235   3.997   4.066  2.9738 -1.2272  2.8867
   10SAPS  H18Z 1330   2.069   3.910   4.045 -1.2984  0.1462  1.4114
   11SAPS     N 1331   2.353   4.036   1.616 -0.7067  0.1876 -0.1078
   11SAPS   HN1 1332   2.272   3.988   1.572 -0.7868 -0.7852  1.0467
   11SAPS   HN2 1333   2.430   3.967   1.626 -0.3012  0.9426  2.7389
   11SAPS   HN3 1334   2.322   4.079   1.706 -1.5776 -1.3598  0.3627
   11SAPS   C12 1335   2.395   4.139   1.521 -0.5782  0.6831 -0.0265
   11SAPS  H12A 1336   2.492   4.170   1.556 -0.8535  2.6784 -0.9174
   11SAPS   C13 1337   2.416   4.086   1.378 -0.0915 -0.8850 -0.3633
   11SAPS  O13A 1338   2.393   3.968   1.342  0.1311 -0.4979  0.1578
   11SAPS  O13B 1339   2.435   4.175   1.288  0.5619  0.3727  0.2497
   11SAPS   C11 1340   2.296   4.257   1.524  0.3624  0.1168 -0.0390
   11SAPS  H11A 1341   2.193   4.220   1.504  0.1523 -0.6939  2.2283
   11SAPS  H11B 1342   2.326   4.328   1.444 -0.3664  0.7173  0.2132
   11SAPS     P 1343   2.217   4.445   1.684  0.6405  0.2583  0.0341
   11SAPS   O13 1344   2.216   4.545   1.571  0.0956 -0.1768 -0.0953
   11SAPS   O14 1345   2.081   4.400   1.721 -0.3798  0.3399 -0.4858
   11SAPS   O12 1346   2.298   4.315   1.656  0.2581 -0.5083  0.2595
   11SAPS   O11 1347   2.290   4.507   1.812 -0.1465  0.3537 -0.5771
   11SAPS    C1 1348   2.406   4.445   1.868  0.0532 -0.0810  0.3909
   11SAPS    HA 1349   2.476   4.416   1.786 -2.1233 -1.4411 -1.0874
   11SAPS    HB 1350   2.462   4.523   1.924 -2.4399  1.9774  0.2182
   11SAPS    C2 1351   2.375   4.340   1.972 -0.2786 -0.3061 -0.0061
   11SAPS    HS 1352   2.311   4.263   1.923 -0.7483 -1.3855  2.1935
   11SAPS   O21 1353   2.304   4.408   2.077  0.0620  0.7526  0.1025
   11SAPS   C21 1354   2.179   4.357   2.108  0.3681  0.4176 -0.9628
   11SAPS   O22 1355   2.124   4.266   2.046 -0.5027 -0.3163 -0.2221
   11SAPS   C22 1356   2.118   4.433   2.224 -0.0730 -0.3481  0.0806
   11SAPS   H2R 1357   2.197   4.444   2.301 -1.8900  0.4391  1.9321
   11SAPS   H2S 1358   2.098   4.536   2.186 -0.7117  0.8489  3.3315
   11SAPS    C3 1359   2.500   4.273   2.029 -0.3369 -0.2736  0.4721
   11SAPS    HX 1360   2.559   4.345   2.090  0.9165 -1.8571  1.1735
   11SAPS    HY 1361   2.573   4.242   1.953  0.5208 -2.0302  1.9422
   11SAPS   O31 1362   2.475   4.154   2.107  0.7427 -0.9464  0.0215
   11SAPS   C31 1363   2.487   4.037   2.048  0.1794 -0.3192 -0.7195
   11SAPS   O32 1364   2.533   4.024   1.934  0.1016  0.0289 -0.7035
   11SAPS   C32 1365   2.438   3.920   2.132 -0.5566 -0.1789 -0.3899
   11SAPS   H2X 1366   2.504   3.912   2.221 -0.7313  0.9882 -0.1478
   11SAPS   H2Y 1367   2.458   3.833   2.065 -2.1200  1.7790 -3.6862
   11SAPS   C23 1368   1.993   4.379   2.284 -0.5560  0.4339 -0.1230
   11SAPS   H3R 1369   2.028   4.298   2.352 -0.6878  0.2584 -0.2613
   11SAPS   H3S 1370   1.924   4.326   2.214  0.4045  0.6412 -1.2518
   11SAPS   C24 1371   1.913   4.479   2.379  0.5402  0.1530  0.0283
   11SAPS   H4R 1372   1.806   4.452   2.392  0.4351  1.3153  1.9877
   11SAPS   H4S 1373   1.924   4.575   2.325  2.4001 -0.1043 -0.1408
   11SAPS   C25 1374   1.983   4.506   2.512  0.7993 -0.3965  0.3104
   11SAPS   H5R 1375   2.073   4.569   2.519  1.1091 -0.9131  1.1405
   11SAPS   C26 1376   1.951   4.462   2.637  0.2603 -0.3955  0.8147
   11SAPS   H6R 1377   2.010   4.503   2.720  0.1275  0.3214  0.5662
   11SAPS   C27 1378   1.841   4.362   2.681 -0.4581  0.9371 -0.1295
   11SAPS   H7R 1379   1.895   4.287   2.742 -1.5094 -0.2353 -0.5926
   11SAPS   H7S 1380   1.803   4.302   2.595  1.4553 -0.2080 -0.2157
   11SAPS   C28 1381   1.726   4.420   2.752  0.0157  0.0053 -0.0308
   11SAPS   H8R 1382   1.655   4.478   2.691 -3.8895 -2.7386  1.5510
   11SAPS   C29 1383   1.708   4.436   2.883  0.0571  0.4348 -0.8313
   11SAPS   H9R 1384   1.624   4.487   2.932  0.8079  1.8563 -0.9684
   11SAPS  C210 1385   1.781   4.361   2.993 -0.1884 -0.1225 -0.1205
   11SAPS  H10R 1386   1.822   4.449   3.046  0.3479  0.1932 -1.0322
   11SAPS  H10S 1387   1.872   4.310   2.955 -0.3376 -1.6801  1.4814
   11SAPS  C211 1388   1.708   4.273   3.097 -0.3401 -0.5608  0.5145
   11SAPS  H11R 1389   1.725   4.166   3.080  2.7519 -0.3901  1.9117
   11SAPS  C212 1390   1.635   4.316   3.192 -0.3752 -0.1772  0.6625
   11SAPS  H12R 1391   1.594   4.243   3.264 -1.5818 -1.5511 -1.3255
   11SAPS  C213 1392   1.613   4.459   3.230 -0.4198 -0.5490 -0.0491
   11SAPS  H13R 1393   1.503   4.472   3.223 -0.1572  1.4561 -1.6233
   11SAPS  H13S 1394   1.652   4.529   3.153 -0.9645 -0.6225 -0.3948
   11SAPS  C214 1395   1.670   4.494   3.371 -0.0604 -0.6022  0.6509
   11SAPS  H14R 1396   1.775   4.527   3.362 -0.8665  1.6098 -2.0176
   11SAPS  C215 1397   1.608   4.508   3.490  0.2509 -0.3301  0.6961
   11SAPS  H15R 1398   1.668   4.535   3.577  2.3866 -0.0126 -0.8002
   11SAPS  C216 1399   1.461   4.487   3.520  0.2879  0.1391 -0.5072
   11SAPS  H16R 1400   1.404   4.466   3.427  1.6830 -0.6015 -1.2282
   11SAPS  H16S 1401   1.422   4.581   3.565  3.3914  0.7410  1.2114
   11SAPS  C217 1402   1.434   4.366   3.613 -0.4328  0.5884 -0.7312
   11SAPS  H17R 1403   1.501   4.373   3.701  0.1793 -2.1644 -0.8750
   11SAPS  H17S 1404   1.456   4.267   3.566 -1.8281 -0.8509  1.4643
   11SAPS  C218 1405   1.293   4.358   3.666  0.4292 -0.2552 -0.2356
   11SAPS  H18R 1406   1.281   4.274   3.738  2.1849  1.0807  1.7659
   11SAPS  H18S 1407   1.217   4.361   3.585  1.7975  2.2533 -1.5512
   11SAPS  C219 1408   1.245   4.484   3.753 -0.9699  0.2932  0.2457
   11SAPS  H19R 1409   1.136   4.480   3.772 -1.1129  0.0776 -0.6014
   11SAPS  H19S 1410   1.257   4.582   3.703  0.8584  1.0116  1.9254
   11SAPS  C220 1411   1.314   4.484   3.892  0.4243 -0.5124 -0.5474
   11SAPS  H20R 1412   1.299   4.579   3.948 -1.3339 -0.9761 -0.1963
   11SAPS  H20S 1413   1.424   4.472   3.883  0.5457  0.8577 -1.1233
   11SAPS  H20T 1414   1.277   4.392   3.942  1.1461 -0.2029  0.6128
   11SAPS   C33 1415   2.282   3.932   2.158 -0.1473  0.6805 -0.6150
   11SAPS   H3X 1416   2.251   3.827   2.172  2.1546 -0.3097 -2.2000
   11SAPS   H3Y 1417   2.231   3.970   2.067  0.6306  3.0701 -0.1298
   11SAPS   C34 1418   2.246   4.011   2.283 -0.1646 -0.0801  0.3765
   11SAPS   H4X 1419   2.137   4.022   2.297 -0.6071 -0.2823 -2.2940
   11SAPS   H4Y 1420   2.289   4.113   2.283 -1.6291  0.5561  0.1894
   11SAPS   C35 1421   2.290   3.930   2.404 -0.2132 -0.9654 -0.5748
   11SAPS   H5X 1422   2.401   3.921   2.407 -0.3451 -3.2678 -0.4247
   11SAPS   H5Y 1423   2.263   3.824   2.385 -0.8641 -1.3240  1.9725
   11SAPS   C36 1424   2.231   3.973   2.542 -0.1756  0.0996  0.0150
   11SAPS   H6X 1425   2.124   3.952   2.520 -0.4220  0.6414  0.6755
   11SAPS   H6Y 1426   2.247   4.080   2.564 -1.9332  0.4274 -0.1242
   11SAPS   C37 1427   2.272   3.893   2.664 -0.2368 -0.2020 -0.4088
   11SAPS   H7X 1428   2.381   3.914   2.671 -0.6811  2.9561 -1.5177
   11SAPS   H7Y 1429   2.261   3.783   2.649 -0.5037 -0.6088  2.2099
   11SAPS   C38 1430   2.202   3.918   2.797  0.0153  0.5711  0.6145
   11SAPS   H8X 1431   2.094   3.900   2.776  0.2534 -1.5868  1.0149
   11SAPS   H8Y 1432   2.228   4.022   2.827  3.0506  0.2696 -0.6668
   11SAPS   C39 1433   2.250   3.824   2.911  0.2680 -0.8299  0.4343
   11SAPS   H9X 1434   2.348   3.848   2.959  0.1134 -0.9342  0.8084
   11SAPS   H9Y 1435   2.267   3.727   2.861 -0.0665 -0.3106 -0.7204
   11SAPS  C310 1436   2.142   3.809   3.025  0.0504  0.1865 -0.1613
   11SAPS  H10X 1437   2.057   3.749   2.987  0.2567  0.9064 -1.8987
   11SAPS  H10Y 1438   2.106   3.910   3.055  0.7276  0.2935  0.3266
   11SAPS  C311 1439   2.200   3.735   3.146 -0.5128 -0.5342  1.1190
   11SAPS  H11X 1440   2.296   3.774   3.186 -0.7799  0.9607  0.3813
   11SAPS  H11Y 1441   2.197   3.628   3.116 -0.5121  0.0197 -1.0968
   11SAPS  C312 1442   2.089   3.742   3.261  0.0260 -0.5517  0.0015
   11SAPS  H12X 1443   1.995   3.707   3.213  0.1777  0.2810 -0.9318
   11SAPS  H12Y 1444   2.078   3.845   3.301 -0.1181 -1.0758  1.3694
   11SAPS  C313 1445   2.134   3.655   3.384  0.3044 -0.1644 -0.1176
   11SAPS  H13X 1446   2.226   3.704   3.423  0.7577  0.3897 -1.8195
   11SAPS  H13Y 1447   2.170   3.556   3.348  0.5352  0.1693 -0.8024
   11SAPS  C314 1448   2.032   3.645   3.499  0.6084  0.2022  0.2057
   11SAPS  H14X 1449   1.941   3.587   3.471 -0.1973  2.3773 -2.1369
   11SAPS  H14Y 1450   1.997   3.748   3.520 -0.8292  0.0944 -1.4061
   11SAPS  C315 1451   2.105   3.586   3.632  0.5683  0.9539  0.1682
   11SAPS  H15X 1452   2.191   3.653   3.655  0.9765  1.1498 -1.7719
   11SAPS  H15Y 1453   2.140   3.482   3.618 -1.4050  0.0918  1.2681
   11SAPS  C316 1454   1.993   3.596   3.743 -0.1477  0.4659  0.0915
   11SAPS  H16X 1455   2.027   3.550   3.838  0.3389  0.3684 -0.1299
   11SAPS  H16Y 1456   1.896   3.555   3.707  0.8940 -1.3730 -0.7638
   11SAPS  C317 1457   1.969   3.741   3.787 -0.3795 -0.3968  0.8344
   11SAPS  H17X 1458   1.949   3.809   3.702 -1.2883  1.0012  2.1076
   11SAPS  H17Y 1459   2.068   3.774   3.826 -0.4043 -0.7007  1.1652
   11SAPS  C318 1460   1.850   3.756   3.880 -0.3100  0.1243  0.7063
   11SAPS  H18X 1461   1.757   3.702   3.854 -0.0775 -0.2258  0.5915
   11SAPS  H18Y 1462   1.826   3.863   3.899 -0.9439 -0.0661  0.9943
   11SAPS  H18Z 1463   1.873   3.716   3.982 -0.0742 -0.8367  0.2861
   12SAPS     N 1464   2.843   2.583   1.701 -0.0622  0.3628 -0.1517
   12SAPS   HN1 1465   2.768   2.516   1.727  0.1953 -0.6143 -1.7808
   12SAPS   HN2 1466   2.895   2.612   1.786  0.4740 -2.2350  0.4804
   12SAPS   HN3 1467   2.811   2.665   1.645 -0.7673  0.1566 -0.0603
   12SAPS   C12 1468   2.950   2.496   1.629  0.5802  0.0007  0.6984
   12SAPS  H12A 1469   2.927   2.477   1.526  0.7148 -0.0270  0.6724
   12SAPS   C13 1470   3.092   2.554   1.647  0.2929 -0.0894 -0.0714
   12SAPS  O13A 1471   3.104   2.673   1.693  0.1269 -0.2782  0.2381
   12SAPS  O13B 1472   3.189   2.498   1.589 -0.9895 -0.3936 -0.4771
   12SAPS   C11 1473   2.940   2.367   1.706  0.3287 -0.2078 -0.3110
   12SAPS  H11A 1474   2.999   2.288   1.655  0.6785 -1.2613  1.6200
   12SAPS  H11B 1475   2.835   2.329   1.703 -0.1468  1.1076 -1.9347
   12SAPS     P 1476   3.063   2.279   1.916 -0.0975 -0.1130 -0.1316
   12SAPS   O13 1477   2.972   2.162   1.932 -0.1844 -0.0446 -0.1439
   12SAPS   O14 1478   3.195   2.270   1.855 -0.5399  0.1977 -0.2566
   12SAPS   O12 1479   2.971   2.384   1.843 -0.3272 -0.0704 -0.4391
   12SAPS   O11 1480   3.068   2.351   2.056  0.9055 -0.1133 -0.3734
   12SAPS    C1 1481   2.944   2.373   2.128 -0.3424 -0.1776  0.1439
   12SAPS    HA 1482   2.860   2.362   2.056  0.4417  2.2184 -1.2466
   12SAPS    HB 1483   2.934   2.310   2.219  2.9549  1.5574  1.8863
   12SAPS    C2 1484   2.937   2.510   2.195  0.3324  0.1352  0.0121
   12SAPS    HS 1485   2.966   2.577   2.111 -0.0866  0.2999 -0.0044
   12SAPS   O21 1486   3.030   2.514   2.304 -0.6957  0.0772  0.5530
   12SAPS   C21 1487   3.062   2.632   2.347  0.0072  0.4400 -0.0693
   12SAPS   O22 1488   3.033   2.735   2.291  0.3831  0.2524  0.3060
   12SAPS   C22 1489   3.124   2.613   2.488  0.4698 -0.0689  0.1316
   12SAPS   H2R 1490   3.039   2.624   2.558 -0.0534  0.2486 -0.5413
   12SAPS   H2S 1491   3.168   2.511   2.495 -0.3624 -0.5805 -1.5463
   12SAPS    C3 1492   2.794   2.560   2.223  0.9536 -0.1447 -0.3995
   12SAPS    HX 1493   2.744   2.551   2.125  1.2374  0.6151 -0.6210
   12SAPS    HY 1494   2.792   2.669   2.246 -0.7673  0.6501 -3.7110
   12SAPS   O31 1495   2.731   2.480   2.330 -0.2524 -0.2939 -0.3291
   12SAPS   C31 1496   2.625   2.408   2.293  0.1824 -0.1905  0.0039
   12SAPS   O32 1497   2.579   2.416   2.185 -0.3915 -0.7571 -0.1183
   12SAPS   C32 1498   2.567   2.335   2.412  0.3504  0.0906  0.7054
   12SAPS   H2X 1499   2.630   2.247   2.434  0.3838 -0.3230 -0.8942
   12SAPS   H2Y 1500   2.459   2.314   2.392  1.0265 -1.0585 -2.3277
   12SAPS   C23 1501   3.230   2.720   2.515  0.1664 -0.2464 -0.1618
   12SAPS   H3R 1502   3.192   2.819   2.548  0.4328 -0.3486  0.4678
   12SAPS   H3S 1503   3.286   2.744   2.421 -0.0156 -1.1697 -0.5135
   12SAPS   C24 1504   3.335   2.664   2.619  0.3833  0.1584  0.0724
   12SAPS   H4R 1505   3.413   2.596   2.578  0.8343  0.7477 -0.0570
   12SAPS   H4S 1506   3.276   2.594   2.683 -0.7001  0.4864 -0.5567
   12SAPS   C25 1507   3.401   2.782   2.697  0.0587 -0.5161  0.7551
   12SAPS   H5R 1508   3.481   2.829   2.638 -1.0945  1.0137  0.3400
   12SAPS   C26 1509   3.358   2.813   2.821  0.0524 -0.5616 -0.9062
   12SAPS   H6R 1510   3.401   2.892   2.885  1.1345 -0.8555 -1.2504
   12SAPS   C27 1511   3.234   2.746   2.893 -0.4171 -0.5877 -0.1029
   12SAPS   H7R 1512   3.151   2.716   2.826 -1.0858 -0.7335  0.7798
   12SAPS   H7S 1513   3.186   2.819   2.961  2.6325  0.1519  1.4700
   12SAPS   C28 1514   3.257   2.623   2.977 -0.5377  0.1552 -0.6782
   12SAPS   H8R 1515   3.307   2.542   2.921  1.7682 -0.8939  2.6119
   12SAPS   C29 1516   3.257   2.608   3.112  0.3333 -0.2374  0.3310
   12SAPS   H9R 1517   3.289   2.508   3.143  2.3205 -0.3375 -1.7158
   12SAPS  C210 1518   3.235   2.714   3.215 -0.1695  0.6063  0.0938
   12SAPS  H10R 1519   3.133   2.699   3.256  0.7499 -2.4879  1.5950
   12SAPS  H10S 1520   3.242   2.810   3.161 -1.1683  1.3061  1.1642
   12SAPS  C211 1521   3.331   2.709   3.333  0.2341 -0.2946 -0.6302
   12SAPS  H11R 1522   3.427   2.762   3.320  1.1153 -1.8557 -0.7061
   12SAPS  C212 1523   3.310   2.655   3.451  0.1812 -0.1284 -0.1132
   12SAPS  H12R 1524   3.396   2.652   3.520  0.6192 -0.5151 -0.6683
   12SAPS  C213 1525   3.185   2.576   3.480  0.1553  0.3994  0.3143
   12SAPS  H13R 1526   3.212   2.481   3.429  3.6199  2.4679 -2.1426
   12SAPS  H13S 1527   3.095   2.608   3.423 -0.5137 -0.3706  0.9163
   12SAPS  C214 1528   3.155   2.563   3.630 -0.1971  0.7574 -0.9637
   12SAPS  H14R 1529   3.067   2.618   3.665  0.4993  0.7045  0.9691
   12SAPS  C215 1530   3.216   2.488   3.724  0.2263  0.4661 -0.9577
   12SAPS  H15R 1531   3.189   2.505   3.829  1.2992  3.3319 -1.0511
   12SAPS  C216 1532   3.334   2.408   3.704 -0.0792 -0.1520 -0.3366
   12SAPS  H16R 1533   3.387   2.423   3.608  1.6430 -1.5022  0.3467
   12SAPS  H16S 1534   3.303   2.303   3.721 -0.5122  0.2661  1.6961
   12SAPS  C217 1535   3.441   2.446   3.807  0.7723 -0.1776 -0.6534
   12SAPS  H17R 1536   3.517   2.365   3.803  1.3053  0.1790  1.2804
   12SAPS  H17S 1537   3.408   2.446   3.913  0.0559  1.5230 -0.8375
   12SAPS  C218 1538   3.513   2.583   3.788 -0.4863  0.3273  0.5646
   12SAPS  H18R 1539   3.438   2.659   3.815  0.3568  1.2400  0.3912
   12SAPS  H18S 1540   3.548   2.608   3.685  0.6664  0.5644  0.9937
   12SAPS  C219 1541   3.643   2.602   3.872  0.3631 -0.1621  0.5615
   12SAPS  H19R 1542   3.709   2.683   3.832  3.6032 -3.1416 -0.6601
   12SAPS  H19S 1543   3.709   2.516   3.850  0.0129 -0.3572  0.2724
   12SAPS  C220 1544   3.598   2.627   4.021  0.2069  0.7231  0.2309
   12SAPS  H20R 1545   3.542   2.543   4.068  0.6960 -0.6791 -1.5768
   12SAPS  H20S 1546   3.542   2.722   4.038 -0.8621  0.9379 -3.5425
   12SAPS  H20T 1547   3.698   2.628   4.070  0.9888 -0.1119 -1.2782
   12SAPS   C33 1548   2.559   2.422   2.545 -0.1093 -0.2250  0.3089
   12SAPS   H3X 1549   2.476   2.495   2.535 -1.1656 -1.6624 -2.2340
   12SAPS   H3Y 1550   2.653   2.478   2.558  0.5166 -0.1249 -3.5471
   12SAPS   C34 1551   2.518   2.336   2.667 -0.3234  0.5063  0.0754
   12SAPS   H4X 1552   2.609   2.291   2.712 -0.5442 -0.3528 -0.3047
   12SAPS   H4Y 1553   2.460   2.247   2.634 -2.1053  1.4631  0.5434
   12SAPS   C35 1554   2.446   2.419   2.773  0.2521 -0.1479  0.4047
   12SAPS   H5X 1555   2.341   2.454   2.757 -0.3076 -0.7191  2.4314
   12SAPS   H5Y 1556   2.514   2.505   2.793 -0.0853  0.0100  0.9021
   12SAPS   C36 1557   2.435   2.333   2.900 -0.0965 -0.0456 -0.3603
   12SAPS   H6X 1558   2.529   2.274   2.909  0.5509  0.9538 -0.3486
   12SAPS   H6Y 1559   2.347   2.265   2.900 -0.1596  0.0277  0.2484
   12SAPS   C37 1560   2.402   2.415   3.025 -0.2568  0.1626  0.4009
   12SAPS   H7X 1561   2.296   2.450   3.017  0.1007  0.9673 -1.2100
   12SAPS   H7Y 1562   2.471   2.502   3.026  0.5311 -0.2675 -3.2690
   12SAPS   C38 1563   2.444   2.333   3.149 -0.5939 -0.2305  0.3669
   12SAPS   H8X 1564   2.548   2.297   3.134 -0.4206  0.3573  0.1566
   12SAPS   H8Y 1565   2.391   2.235   3.158  0.3269 -0.6966  0.8440
   12SAPS   C39 1566   2.433   2.402   3.288  0.3258  0.0428 -0.7738
   12SAPS   H9X 1567   2.329   2.435   3.310  1.3762  1.0533  3.4580
   12SAPS   H9Y 1568   2.499   2.491   3.293 -0.3900  0.5408  0.0143
   12SAPS  C310 1569   2.460   2.311   3.409 -0.1034 -0.0416 -0.8888
   12SAPS  H10X 1570   2.565   2.273   3.406  0.1354  0.5145  0.0713
   12SAPS  H10Y 1571   2.390   2.225   3.398 -0.9017  0.5488 -0.4802
   12SAPS  C311 1572   2.431   2.372   3.546 -0.9209 -0.2735  0.7799
   12SAPS  H11X 1573   2.333   2.425   3.555 -2.1434 -2.4669  1.0156
   12SAPS  H11Y 1574   2.505   2.453   3.561  1.4240 -2.0480 -0.5130
   12SAPS  C312 1575   2.447   2.279   3.665  0.1216 -0.2744 -0.1492
   12SAPS  H12X 1576   2.418   2.333   3.758  1.7796 -1.4973  1.1467
   12SAPS  H12Y 1577   2.555   2.255   3.667  0.3093  0.5413  0.8770
   12SAPS  C313 1578   2.358   2.151   3.670  0.1772 -0.5852 -0.3579
   12SAPS  H13X 1579   2.355   2.096   3.573  0.7526  0.5843 -1.0634
   12SAPS  H13Y 1580   2.252   2.182   3.683  0.7584  0.9904  1.0056
   12SAPS  C314 1581   2.398   2.057   3.783 -0.1500  0.1324  1.1024
   12SAPS  H14X 1582   2.505   2.064   3.812 -0.0843 -1.3776  1.3007
   12SAPS  H14Y 1583   2.378   1.952   3.754  0.7080  0.0321  0.8545
   12SAPS  C315 1584   2.321   2.082   3.910  0.3017  0.2801  0.1196
   12SAPS  H15X 1585   2.215   2.070   3.880  0.9193  0.4149 -2.3075
   12SAPS  H15Y 1586   2.333   2.186   3.949 -0.8043  1.3548 -2.2409
   12SAPS  C316 1587   2.340   1.982   4.028 -0.3119  0.7015 -0.3893
   12SAPS  H16X 1588   2.306   1.883   3.991  2.7881 -0.4344 -0.4796
   12SAPS  H16Y 1589   2.271   2.004   4.112 -0.4895  0.2100 -0.4040
   12SAPS  C317 1590   2.484   1.971   4.075 -0.7734 -0.5733  0.1400
   12SAPS  H17X 1591   2.524   2.075   4.075 -0.7742 -0.5733 -0.0922
   12SAPS  H17Y 1592   2.547   1.916   4.001  0.0551  0.6257 -0.0789
   12SAPS  C318 1593   2.488   1.907   4.212 -0.1387 -0.0759 -0.6897
   12SAPS  H18X 1594   2.432   1.965   4.288 -0.7670 -0.7217 -0.6468
   12SAPS  H18Y 1595   2.591   1.894   4.251  0.2699  2.4126 -0.7889
   12SAPS  H18Z 1596   2.443   1.805   4.211 -1.3203  0.3839 -3.4130
   13SAPS     N 1597   4.966   2.897   2.099  0.4701 -0.5495  0.1574
   13SAPS   HN1 1598   5.011   2.804   2.096  0.5875 -0.4757 -1.8235
   13SAPS   HN2 1599   4.983   2.947   2.009  0.0719  0.5306  0.6649
   13SAPS   HN3 1600   5.008   2.956   2.175  1.4091 -2.2230  0.9875
   13SAPS   C12 1601   4.826   2.876   2.127 -0.0361 -0.5501 -0.3831
   13SAPS  H12A 1602   4.791   2.978   2.128  1.7167  0.0901  0.2282
   13SAPS   C13 1603   4.753   2.799   2.011 -0.9746 -0.0259  0.3812
   13SAPS  O13A 1604   4.631   2.791   2.022 -0.4473 -0.2389 -0.1003
   13SAPS  O13B 1605   4.819   2.744   1.913 -0.1059  0.1804  0.4359
   13SAPS   C11 1606   4.807   2.803   2.261  0.2524  0.0597  0.7031
   13SAPS  H11A 1607   4.699   2.783   2.280 -0.2757 -0.4517 -2.2739
   13SAPS  H11B 1608   4.844   2.866   2.344  0.4620 -1.2415  1.6375
   13SAPS     P 1609   4.861   2.575   2.392 -0.1620  0.1296  0.0052
   13SAPS   O13 1610   4.720   2.539   2.407  0.2876 -0.1320  0.2541
   13SAPS   O14 1611   4.952   2.461   2.369  0.3964  0.3023  0.1718
   13SAPS   O12 1612   4.874   2.675   2.266  0.3251 -0.5148  0.9119
   13SAPS   O11 1613   4.913   2.659   2.514  0.3748  0.2608  0.3974
   13SAPS    C1 1614   5.032   2.743   2.516  1.0824  0.4867 -0.2655
   13SAPS    HA 1615   5.118   2.687   2.560 -0.3136 -1.4092  0.1919
   13SAPS    HB 1616   5.056   2.787   2.417 -1.4171 -0.1718 -1.2388
   13SAPS    C2 1617   4.999   2.861   2.598 -0.7370  0.0571  0.4405
   13SAPS    HS 1618   4.919   2.899   2.531 -0.9561 -1.3164 -0.1032
   13SAPS   O21 1619   5.113   2.951   2.605 -0.2010  0.3820 -0.6825
   13SAPS   C21 1620   5.081   3.080   2.605 -0.2750  0.2745 -0.7023
   13SAPS   O22 1621   4.971   3.130   2.600 -0.0360 -0.0128  0.5314
   13SAPS   C22 1622   5.221   3.152   2.619  0.0092  0.4372 -0.7901
   13SAPS   H2R 1623   5.281   3.089   2.687  0.2178  1.1155 -0.3310
   13SAPS   H2S 1624   5.269   3.155   2.519 -0.5170  0.4300 -1.0452
   13SAPS    C3 1625   4.936   2.823   2.736 -0.2722  0.3020  0.0578
   13SAPS    HX 1626   5.000   2.739   2.773 -2.5946 -1.1173  1.1058
   13SAPS    HY 1627   4.837   2.776   2.715 -1.6704  2.9456  0.3669
   13SAPS   O31 1628   4.927   2.933   2.833  0.1739 -0.1722  0.2580
   13SAPS   C31 1629   4.820   3.002   2.841  0.0784  1.0694  0.2396
   13SAPS   O32 1630   4.720   2.997   2.771 -0.5536 -0.2028 -0.6102
   13SAPS   C32 1631   4.827   3.092   2.965  0.2191 -0.4829  0.3607
   13SAPS   H2X 1632   4.907   3.168   2.951 -1.8139  1.5632 -0.7549
   13SAPS   H2Y 1633   4.846   3.029   3.054  0.2414  1.5506  1.8726
   13SAPS   C23 1634   5.217   3.303   2.658 -0.3126  0.0084  0.4980
   13SAPS   H3R 1635   5.159   3.357   2.581  1.7630 -0.1854 -1.2908
   13SAPS   H3S 1636   5.320   3.344   2.649  0.2430 -1.6311 -1.1541
   13SAPS   C24 1637   5.166   3.315   2.805  0.1709 -0.1212 -0.1491
   13SAPS   H4R 1638   5.172   3.220   2.861  1.7611 -0.3896 -0.7353
   13SAPS   H4S 1639   5.056   3.321   2.791 -0.0599 -1.5698  0.8764
   13SAPS   C25 1640   5.217   3.437   2.877  0.8514  0.6639  0.6795
   13SAPS   H5R 1641   5.289   3.490   2.813  0.8443 -1.0545 -0.8369
   13SAPS   C26 1642   5.176   3.476   2.999 -0.1313  0.0652 -0.4267
   13SAPS   H6R 1643   5.217   3.573   3.030 -0.8980  0.7214 -1.4005
   13SAPS   C27 1644   5.091   3.392   3.094  0.1911 -0.0251  0.5051
   13SAPS   H7R 1645   5.135   3.290   3.102 -1.7060 -1.1134 -1.8907
   13SAPS   H7S 1646   4.994   3.375   3.044  0.3882  1.6997 -0.5722
   13SAPS   C28 1647   5.070   3.458   3.227  0.6174  0.1843 -0.4614
   13SAPS   H8R 1648   5.037   3.562   3.219 -0.7320 -0.2883 -1.4459
   13SAPS   C29 1649   5.056   3.392   3.349 -0.9086 -0.3341 -0.3670
   13SAPS   H9R 1650   5.042   3.458   3.436  3.3556  0.4822 -0.0921
   13SAPS  C210 1651   5.084   3.244   3.365 -0.0857 -0.3769  0.3506
   13SAPS  H10R 1652   5.136   3.222   3.461  1.5621 -0.5614 -0.5507
   13SAPS  H10S 1653   5.156   3.209   3.289 -2.9570  0.1517 -2.8728
   13SAPS  C211 1654   4.964   3.157   3.363  0.6660 -0.1574 -0.5770
   13SAPS  H11R 1655   4.956   3.091   3.275 -0.3821  0.6476 -1.0994
   13SAPS  C212 1656   4.866   3.158   3.460  0.2221 -0.8807 -0.4880
   13SAPS  H12R 1657   4.779   3.093   3.447 -1.1861  1.1669 -1.7981
   13SAPS  C213 1658   4.868   3.248   3.589  0.7383 -0.0182  0.5960
   13SAPS  H13R 1659   4.972   3.271   3.620  1.0283 -0.5536  0.0283
   13SAPS  H13S 1660   4.838   3.172   3.664  0.6552 -2.8431 -2.1390
   13SAPS  C214 1661   4.795   3.382   3.585  0.4972  0.1805 -0.2031
   13SAPS  H14R 1662   4.790   3.421   3.482  0.5439 -0.8420 -0.6000
   13SAPS  C215 1663   4.701   3.427   3.681 -0.6208  0.2483  0.3638
   13SAPS  H15R 1664   4.653   3.526   3.676  2.4317  1.9803  2.3614
   13SAPS  C216 1665   4.655   3.359   3.806 -0.6394 -0.3340 -0.2550
   13SAPS  H16R 1666   4.722   3.274   3.834 -0.7259 -0.5847 -0.8018
   13SAPS  H16S 1667   4.557   3.310   3.791 -0.9288  0.4324 -0.9104
   13SAPS  C217 1668   4.643   3.469   3.916 -0.1723  0.0408 -0.3223
   13SAPS  H17R 1669   4.585   3.429   4.002  4.3475  0.4483  3.2645
   13SAPS  H17S 1670   4.590   3.561   3.882 -1.0404 -0.3150  0.0441
   13SAPS  C218 1671   4.787   3.508   3.965  0.1793 -0.1189 -0.1395
   13SAPS  H18R 1672   4.849   3.554   3.885 -0.1428 -2.1645 -1.6371
   13SAPS  H18S 1673   4.829   3.416   4.009 -1.7300 -1.0543 -0.1482
   13SAPS  C219 1674   4.775   3.612   4.077 -0.1325 -0.1032  0.5767
   13SAPS  H19R 1675   4.875   3.633   4.120  0.0969 -3.0495  1.7554
   13SAPS  H19S 1676   4.705   3.570   4.152  0.9857 -0.3995  1.4962
   13SAPS  C220 1677   4.732   3.742   4.012  0.0305  0.0923  0.4381
   13SAPS  H20R 1678   4.784   3.768   3.917  0.5519 -0.0245  0.6903
   13SAPS  H20S 1679   4.751   3.828   4.079  0.3786  0.0313  0.4184
   13SAPS  H20T 1680   4.624   3.740   3.983 -0.2378 -1.7124  1.4401
   13SAPS   C33 1681   4.688   3.168   2.987 -0.1290  0.1362  0.2924
   13SAPS   H3X 1682   4.690   3.196   3.095 -3.3923 -0.5354  0.6287
   13SAPS   H3Y 1683   4.601   3.100   2.974 -2.0740  2.5320  0.0350
   13SAPS   C34 1684   4.662   3.281   2.889 -0.4969  0.0975  0.1817
   13SAPS   H4X 1685   4.628   3.241   2.791 -0.1084 -2.2043  0.9425
   13SAPS   H4Y 1686   4.754   3.340   2.870  0.4594 -1.1161  0.9862
   13SAPS   C35 1687   4.541   3.361   2.928  0.3515 -0.2123 -0.5983
   13SAPS   H5X 1688   4.456   3.300   2.966 -0.0706 -0.2195 -1.5084
   13SAPS   H5Y 1689   4.515   3.394   2.825  0.5263 -1.5042 -1.0801
   13SAPS   C36 1690   4.576   3.472   3.027 -0.0591  0.4744 -0.1068
   13SAPS   H6X 1691   4.489   3.541   3.027 -2.7293 -2.6588  0.9494
   13SAPS   H6Y 1692   4.662   3.536   2.998  0.9409 -1.6179 -2.1142
   13SAPS   C37 1693   4.593   3.435   3.174  0.6490 -0.1461 -0.2659
   13SAPS   H7X 1694   4.694   3.402   3.207  0.2527  0.9701  2.3665
   13SAPS   H7Y 1695   4.524   3.349   3.193  1.0488 -0.6774 -1.1733
   13SAPS   C38 1696   4.559   3.554   3.273 -0.0891  0.0445 -0.8286
   13SAPS   H8X 1697   4.549   3.504   3.372 -1.4694  2.9864  0.6304
   13SAPS   H8Y 1698   4.460   3.592   3.241 -0.5776  0.7356  1.3199
   13SAPS   C39 1699   4.685   3.641   3.289 -0.4650  0.5887  0.6861
   13SAPS   H9X 1700   4.689   3.718   3.208  0.0573 -1.0998 -0.9663
   13SAPS   H9Y 1701   4.784   3.591   3.284 -0.0256  1.5433 -1.7108
   13SAPS  C310 1702   4.698   3.724   3.422 -0.0857 -0.3413  1.0025
   13SAPS  H10X 1703   4.696   3.646   3.501  0.5971 -1.7502 -0.3405
   13SAPS  H10Y 1704   4.608   3.789   3.417  0.2160 -0.0269 -1.5149
   13SAPS  C311 1705   4.829   3.806   3.430  0.2871  0.1064 -0.3488
   13SAPS  H11X 1706   4.849   3.868   3.340  1.8583  1.1403  0.6539
   13SAPS  H11Y 1707   4.912   3.733   3.433 -0.8938 -1.2674  1.4258
   13SAPS  C312 1708   4.817   3.898   3.556  0.3723  0.5847 -0.7535
   13SAPS  H12X 1709   4.741   3.850   3.622  0.8876  0.4838 -0.2227
   13SAPS  H12Y 1710   4.773   3.995   3.524  0.1569  0.9544  0.5837
   13SAPS  C313 1711   4.953   3.915   3.622  0.3000 -0.6990 -0.3096
   13SAPS  H13X 1712   5.018   3.967   3.548  2.4101  0.0863  1.9876
   13SAPS  H13Y 1713   4.987   3.812   3.644 -0.8111 -0.6262  2.0615
   13SAPS  C314 1714   4.972   4.006   3.746  0.3695  0.4026  0.1341
   13SAPS  H14X 1715   4.883   3.988   3.810  0.5764  3.1527  1.3588
   13SAPS  H14Y 1716   4.982   4.112   3.714  0.3634  0.3444 -0.0559
   13SAPS  C315 1717   5.095   3.977   3.838  0.1127  0.3391 -0.3373
   13SAPS  H15X 1718   5.188   4.023   3.797  0.2519  1.8937  1.5429
   13SAPS  H15Y 1719   5.104   3.867   3.846 -1.5296  0.2486  0.6758
   13SAPS  C316 1720   5.075   4.030   3.979 -0.1992  0.5429 -0.5455
   13SAPS  H16X 1721   4.993   3.966   4.019  0.2739  0.3993  0.2132
   13SAPS  H16Y 1722   5.050   4.138   3.985  3.4297  1.4119  1.3610
   13SAPS  C317 1723   5.203   4.013   4.057 -0.5432 -0.1559  0.0686
   13SAPS  H17X 1724   5.195   4.047   4.162  0.6250  0.2380  0.0449
   13SAPS  H17Y 1725   5.291   4.071   4.021 -1.2399  3.2240  3.2445
   13SAPS  C318 1726   5.242   3.863   4.067 -0.4026 -0.3014  0.1996
   13SAPS  H18X 1727   5.153   3.798   4.053  0.5895 -1.8101  0.6805
   13SAPS  H18Y 1728   5.286   3.837   4.165 -1.1609  1.8470  1.1679
   13SAPS  H18Z 1729   5.310   3.840   3.982 -1.6839  2.4726 -1.7405
   14SAPS     N 1730   4.508   3.594   2.197  0.3565  0.4035 -0.2050
   14SAPS   HN1 1731   4.525   3.520   2.268  0.8761 -0.3167 -1.0592
   14SAPS   HN2 1732   4.431   3.654   2.232  0.4349  0.4648 -0.1395
   14SAPS   HN3 1733   4.466   3.561   2.107  0.3542  0.7687 -0.3405
   14SAPS   C12 1734   4.634   3.654   2.141 -0.1060  0.0540  0.5002
   14SAPS  H12A 1735   4.702   3.576   2.109  0.9191  1.6441 -1.3555
   14SAPS   C13 1736   4.619   3.735   2.011 -0.4402  0.2299  0.2767
   14SAPS  O13A 1737   4.510   3.737   1.947 -0.2997 -0.2526  0.0630
   14SAPS  O13B 1738   4.726   3.772   1.960 -0.2763 -0.0391 -0.2111
   14SAPS   C11 1739   4.699   3.736   2.250 -0.3100  0.1998  0.3318
   14SAPS  H11A 1740   4.621   3.807   2.284 -1.9652  0.5108 -3.6365
   14SAPS  H11B 1741   4.782   3.798   2.212  0.1743 -1.5986 -1.7305
   14SAPS     P 1742   4.877   3.587   2.361 -0.1679  0.2883  0.1111
   14SAPS   O13 1743   4.859   3.448   2.304 -0.0613 -0.4872  0.5648
   14SAPS   O14 1744   4.983   3.671   2.303 -0.0241 -0.1443 -0.1967
   14SAPS   O12 1745   4.741   3.659   2.362 -0.4705 -0.1691  0.0774
   14SAPS   O11 1746   4.904   3.571   2.515 -0.1095 -0.1916 -0.1191
   14SAPS    C1 1747   4.807   3.517   2.608 -0.5205 -0.1327 -0.3948
   14SAPS    HA 1748   4.713   3.490   2.555 -0.8016  2.2251 -1.1932
   14SAPS    HB 1749   4.842   3.426   2.661  0.9833 -0.6407 -2.1528
   14SAPS    C2 1750   4.783   3.623   2.723  0.5197  0.2309  0.0037
   14SAPS    HS 1751   4.721   3.581   2.805  0.6051 -0.0144 -0.0555
   14SAPS   O21 1752   4.717   3.738   2.670 -0.6878  0.0243 -0.6583
   14SAPS   C21 1753   4.590   3.708   2.648 -1.0320  0.1885  0.1015
   14SAPS   O22 1754   4.534   3.601   2.670 -0.0251  0.0013  0.1646
   14SAPS   C22 1755   4.519   3.834   2.613  0.6977 -0.6452  0.3670
   14SAPS   H2R 1756   4.558   3.923   2.668 -1.8770  0.2634  0.8476
   14SAPS   H2S 1757   4.544   3.850   2.506 -1.9756 -0.9303 -0.3765
   14SAPS    C3 1758   4.918   3.665   2.781  0.6660  0.6172 -0.2528
   14SAPS    HX 1759   4.975   3.713   2.698  2.1540  0.0834  0.4353
   14SAPS    HY 1760   4.972   3.575   2.818  0.9845  0.4217 -1.1626
   14SAPS   O31 1761   4.899   3.746   2.903  0.1963  0.2854 -0.3842
   14SAPS   C31 1762   4.921   3.866   2.888 -1.2668  0.1767 -0.1516
   14SAPS   O32 1763   4.956   3.918   2.784  0.1646  0.5126  0.2404
   14SAPS   C32 1764   4.880   3.939   3.018  1.0089  0.7638 -0.1327
   14SAPS   H2X 1765   4.921   3.892   3.109  0.6479  1.5284  0.4369
   14SAPS   H2Y 1766   4.768   3.938   3.021  0.9873  0.5895 -0.8594
   14SAPS   C23 1767   4.367   3.820   2.625  0.0863  0.3571 -0.0408
   14SAPS   H3R 1768   4.329   3.721   2.592  0.9565 -0.9058  2.4961
   14SAPS   H3S 1769   4.317   3.890   2.554  1.6569 -0.7325 -2.3327
   14SAPS   C24 1770   4.313   3.853   2.766  0.4558  0.7049  0.1435
   14SAPS   H4R 1771   4.363   3.781   2.834  2.2054  1.4114 -0.3320
   14SAPS   H4S 1772   4.204   3.842   2.783  0.5687  0.3325  0.6750
   14SAPS   C25 1773   4.357   3.990   2.824 -0.6995  0.5848 -0.5202
   14SAPS   H5R 1774   4.364   4.073   2.752 -1.8309  1.2758  0.1458
   14SAPS   C26 1775   4.383   4.013   2.954  0.6190  0.1208 -0.2085
   14SAPS   H6R 1776   4.418   4.115   2.979 -0.9922  0.2586  1.7390
   14SAPS   C27 1777   4.367   3.921   3.071 -0.4043 -0.1145  0.8406
   14SAPS   H7R 1778   4.465   3.908   3.122  0.0140  2.9803  1.0052
   14SAPS   H7S 1779   4.330   3.827   3.027 -1.0938  0.5085  0.0631
   14SAPS   C28 1780   4.259   3.970   3.153  0.5516  0.0837 -0.4002
   14SAPS   H8R 1781   4.167   3.998   3.100 -1.2582 -0.2176  2.4052
   14SAPS   C29 1782   4.250   3.959   3.283 -0.1891  0.3278 -0.9691
   14SAPS   H9R 1783   4.158   3.995   3.331  0.1428  1.7744 -1.3786
   14SAPS  C210 1784   4.358   3.922   3.380 -0.2803 -0.6953  0.4708
   14SAPS  H10R 1785   4.421   4.012   3.397  2.5157 -2.1979 -1.0468
   14SAPS  H10S 1786   4.436   3.862   3.327  0.2035  1.7859 -1.8222
   14SAPS  C211 1787   4.315   3.850   3.503 -0.5543  0.3383  0.4718
   14SAPS  H11R 1788   4.253   3.760   3.493 -0.2894  0.3629 -2.0301
   14SAPS  C212 1789   4.349   3.889   3.628 -0.4556  0.3051  0.4710
   14SAPS  H12R 1790   4.318   3.836   3.719 -1.4095 -1.3191 -0.7561
   14SAPS  C213 1791   4.435   4.012   3.664  0.2443 -0.0570 -0.0303
   14SAPS  H13R 1792   4.360   4.085   3.701 -1.9112 -2.2826  0.2594
   14SAPS  H13S 1793   4.485   4.065   3.580  0.6110 -0.5109 -0.1008
   14SAPS  C214 1794   4.548   3.971   3.756 -0.6397 -0.8818  0.4099
   14SAPS  H14R 1795   4.572   3.864   3.769  0.9809 -0.7249 -0.9473
   14SAPS  C215 1796   4.615   4.060   3.837 -0.0474 -0.1435  0.2558
   14SAPS  H15R 1797   4.688   4.021   3.910  0.3936  0.5482  0.2009
   14SAPS  C216 1798   4.597   4.210   3.844  0.4231 -0.3383  0.0033
   14SAPS  H16R 1799   4.518   4.238   3.917 -0.1465 -1.4856 -0.1478
   14SAPS  H16S 1800   4.559   4.248   3.747  0.0243 -0.1104  0.2446
   14SAPS  C217 1801   4.726   4.290   3.875 -0.8763  0.2642 -0.4616
   14SAPS  H17R 1802   4.709   4.395   3.843  3.9880  2.0647  1.8300
   14SAPS  H17S 1803   4.799   4.246   3.803 -2.9479 -2.6347 -0.9490
   14SAPS  C218 1804   4.771   4.307   4.020 -0.1290 -0.1921 -1.0750
   14SAPS  H18R 1805   4.819   4.211   4.048  1.7765  1.0020 -0.0156
   14SAPS  H18S 1806   4.689   4.335   4.090  0.4063  0.5576 -0.7237
   14SAPS  C219 1807   4.881   4.407   4.055 -1.0158  0.2128 -0.6389
   14SAPS  H19R 1808   4.857   4.509   4.018 -1.4999  0.8485  1.2817
   14SAPS  H19S 1809   4.974   4.374   4.006 -0.1511  1.5780  0.0196
   14SAPS  C220 1810   4.905   4.431   4.206 -0.0016  0.3171 -0.1803
   14SAPS  H20R 1811   4.920   4.334   4.258  0.7100  0.5825  0.1249
   14SAPS  H20S 1812   4.814   4.476   4.251  1.1969 -0.3317  3.1082
   14SAPS  H20T 1813   4.992   4.497   4.227 -0.7351  0.8979  1.1520
   14SAPS   C33 1814   4.909   4.094   3.023  0.0329 -0.1241 -0.6989
   14SAPS   H3X 1815   4.843   4.149   2.953  2.1925  2.2197 -1.0130
   14SAPS   H3Y 1816   5.010   4.131   2.997  0.1096 -0.0801 -0.3557
   14SAPS   C34 1817   4.881   4.155   3.160 -0.2065 -0.0619 -0.2052
   14SAPS   H4X 1818   4.933   4.096   3.238  1.7851 -0.8385 -2.0112
   14SAPS   H4Y 1819   4.777   4.127   3.186  0.4835 -1.8241  0.8184
   14SAPS   C35 1820   4.889   4.306   3.180  0.7202  0.0630  0.5149
   14SAPS   H5X 1821   4.847   4.362   3.094  3.4328  4.6702  1.8028
   14SAPS   H5Y 1822   4.994   4.343   3.171  0.8457 -0.5263 -0.6026
   14SAPS   C36 1823   4.816   4.364   3.296  0.2870 -0.3760  0.2038
   14SAPS   H6X 1824   4.713   4.322   3.294  0.5019 -0.9153  0.2878
   14SAPS   H6Y 1825   4.817   4.474   3.281  6.0161 -0.0229  0.9128
   14SAPS   C37 1826   4.866   4.330   3.434 -0.0163  0.3456 -0.1394
   14SAPS   H7X 1827   4.890   4.222   3.450 -0.5430 -0.1671 -2.4166
   14SAPS   H7Y 1828   4.789   4.343   3.512  2.0863 -0.4789  2.2020
   14SAPS   C38 1829   4.990   4.414   3.465  0.0175 -0.1927 -0.0359
   14SAPS   H8X 1830   4.970   4.522   3.448  0.0790 -0.3066 -0.8607
   14SAPS   H8Y 1831   5.069   4.393   3.390 -0.5430  3.0016 -1.7358
   14SAPS   C39 1832   5.041   4.390   3.609 -0.0894  0.0858  0.4750
   14SAPS   H9X 1833   5.058   4.283   3.634 -0.7250 -0.0081  0.5261
   14SAPS   H9Y 1834   4.952   4.412   3.672 -0.0073  1.2714  0.1836
   14SAPS  C310 1835   5.148   4.493   3.653 -0.3401  0.1963  0.3077
   14SAPS  H10X 1836   5.114   4.594   3.622 -2.5799 -1.1183 -1.8742
   14SAPS  H10Y 1837   5.245   4.474   3.602  1.5139  0.3140  3.5006
   14SAPS  C311 1838   5.175   4.475   3.805  0.3532 -0.7788 -0.2925
   14SAPS  H11X 1839   5.201   4.370   3.827  1.8842 -0.6052 -1.1360
   14SAPS  H11Y 1840   5.083   4.508   3.860  0.3241  0.8698 -1.2694
   14SAPS  C312 1841   5.299   4.558   3.852 -0.5168  0.0722 -0.1594
   14SAPS  H12X 1842   5.277   4.663   3.822 -0.2418  0.3217  0.4864
   14SAPS  H12Y 1843   5.396   4.534   3.804 -1.0476 -0.3574 -1.0582
   14SAPS  C313 1844   5.324   4.552   4.001 -0.5572 -0.5669  0.5164
   14SAPS  H13X 1845   5.235   4.546   4.067 -1.6104 -0.6430 -0.8716
   14SAPS  H13Y 1846   5.378   4.642   4.036  0.5505 -1.5514  1.4304
   14SAPS  C314 1847   5.404   4.434   4.038  0.3199 -0.3646 -0.5697
   14SAPS  H14X 1848   5.482   4.417   3.961 -0.1298 -1.7983 -0.7448
   14SAPS  H14Y 1849   5.337   4.346   4.020 -0.2603 -0.0509  0.0019
   14SAPS  C315 1850   5.466   4.435   4.176  0.2913  0.2787 -1.1927
   14SAPS  H15X 1851   5.523   4.527   4.197  3.1644 -1.6870  0.3209
   14SAPS  H15Y 1852   5.531   4.345   4.177 -1.0536 -0.7374 -0.1241
   14SAPS  C316 1853   5.362   4.406   4.289  0.2607 -0.2721  0.7519
   14SAPS  H16X 1854   5.278   4.478   4.277  0.4576 -0.3461 -1.4839
   14SAPS  H16Y 1855   5.407   4.421   4.389 -0.6204  0.3348  1.0726
   14SAPS  C317 1856   5.317   4.260   4.286 -0.3512 -0.2351  0.3111
   14SAPS  H17X 1857   5.405   4.194   4.274  0.2508  0.6810 -0.4054
   14SAPS  H17Y 1858   5.246   4.241   4.202 -0.4109 -0.6194  0.4489
   14SAPS  C318 1859   5.243   4.234   4.415  0.0285 -0.2608 -0.0364
   14SAPS  H18X 1860   5.155   4.297   4.439 -0.4332 -0.2009 -1.7228
   14SAPS  H18Y 1861   5.317   4.249   4.495 -1.1773 -0.1707  1.0992
   14SAPS  H18Z 1862   5.203   4.130   4.417  0.0432 -0.2928 -1.0220
   15SAPS     N 1863   2.819   3.432   1.618 -0.3091  0.7308 -0.5653
   15SAPS   HN1 1864   2.912   3.409   1.577  0.6427  2.3701  0.5618
   15SAPS   HN2 1865   2.813   3.531   1.650 -2.4355  0.3088  0.4935
   15SAPS   HN3 1866   2.802   3.384   1.708 -0.7351 -0.8865 -1.4823
   15SAPS   C12 1867   2.704   3.421   1.521  1.0140  0.2943  0.2330
   15SAPS  H12A 1868   2.714   3.491   1.439 -0.9340 -0.2625 -0.5391
   15SAPS   C13 1869   2.681   3.277   1.459 -0.4166 -0.7825 -0.6050
   15SAPS  O13A 1870   2.719   3.174   1.519  0.3728  0.1808  0.4157
   15SAPS  O13B 1871   2.590   3.268   1.373  0.0575  0.4300  0.1539
   15SAPS   C11 1872   2.569   3.476   1.589  0.3276  0.3556  0.1886
   15SAPS  H11A 1873   2.556   3.441   1.694 -1.0321 -0.3428 -0.1755
   15SAPS  H11B 1874   2.488   3.429   1.528 -0.5944  2.9435 -0.7308
   15SAPS     P 1875   2.616   3.718   1.678  0.2044  0.0360  0.3853
   15SAPS   O13 1876   2.755   3.711   1.627 -0.9420  0.3202  0.0434
   15SAPS   O14 1877   2.548   3.850   1.678  0.1755 -0.0599 -0.1108
   15SAPS   O12 1878   2.540   3.616   1.584 -0.2873 -0.4025 -1.0194
   15SAPS   O11 1879   2.622   3.659   1.824 -0.2977 -0.3839 -0.0546
   15SAPS    C1 1880   2.710   3.727   1.916 -0.3881 -0.4753 -0.1299
   15SAPS    HA 1881   2.809   3.744   1.869 -0.4471  1.2955  0.3062
   15SAPS    HB 1882   2.676   3.828   1.947 -0.0391 -0.4411  0.1493
   15SAPS    C2 1883   2.736   3.645   2.044  0.1339  0.1859 -0.4438
   15SAPS    HS 1884   2.760   3.541   2.013  0.5042 -0.7267  2.5863
   15SAPS   O21 1885   2.609   3.644   2.115 -0.3443  0.5900 -0.5198
   15SAPS   C21 1886   2.572   3.533   2.172 -0.6297 -0.0855  0.4107
   15SAPS   O22 1887   2.630   3.428   2.183  0.0272  0.1548 -0.0194
   15SAPS   C22 1888   2.434   3.552   2.240  0.2146 -0.0322 -0.4081
   15SAPS   H2R 1889   2.440   3.634   2.314 -3.7647  1.0874 -1.0806
   15SAPS   H2S 1890   2.367   3.586   2.158  0.6818  0.2841 -0.6621
   15SAPS    C3 1891   2.859   3.689   2.129 -0.3700 -0.2176 -0.0886
   15SAPS    HX 1892   2.828   3.786   2.174 -0.9289 -0.7655  0.7147
   15SAPS    HY 1893   2.944   3.689   2.057 -1.0908  0.7738 -0.9781
   15SAPS   O31 1894   2.890   3.583   2.225  0.6513 -0.4786 -0.2778
   15SAPS   C31 1895   2.938   3.636   2.342  0.2125  0.3606 -0.0342
   15SAPS   O32 1896   2.967   3.756   2.347 -0.0960 -0.1274 -0.1385
   15SAPS   C32 1897   2.961   3.521   2.442  0.2377 -0.7037 -0.4788
   15SAPS   H2X 1898   3.061   3.531   2.490 -0.3046  3.0483  0.1680
   15SAPS   H2Y 1899   2.949   3.425   2.387 -1.3730  0.0834 -1.5644
   15SAPS   C23 1900   2.377   3.424   2.311 -0.2289 -0.3560  0.1042
   15SAPS   H3R 1901   2.415   3.338   2.252  0.6941  0.0690  0.0553
   15SAPS   H3S 1902   2.266   3.424   2.315 -0.3371  1.1492 -1.6068
   15SAPS   C24 1903   2.441   3.402   2.455 -0.2722 -0.3830 -0.0764
   15SAPS   H4R 1904   2.549   3.388   2.438 -0.4558 -1.8769 -0.2110
   15SAPS   H4S 1905   2.404   3.304   2.494  0.6612  0.0057  1.8916
   15SAPS   C25 1906   2.408   3.515   2.550  0.4599 -0.2118  0.3780
   15SAPS   H5R 1907   2.372   3.607   2.502 -0.7935 -0.8998 -0.0666
   15SAPS   C26 1908   2.392   3.500   2.683 -0.5460  0.0883  0.1995
   15SAPS   H6R 1909   2.340   3.583   2.733 -1.4462  0.3424 -1.1028
   15SAPS   C27 1910   2.417   3.383   2.775  0.2316  0.1134  0.3050
   15SAPS   H7R 1911   2.477   3.424   2.860  1.8993 -0.3185 -0.6164
   15SAPS   H7S 1912   2.484   3.311   2.723 -1.0725 -1.9334  1.3332
   15SAPS   C28 1913   2.292   3.308   2.814  0.3747  1.1414 -0.5928
   15SAPS   H8R 1914   2.193   3.329   2.772 -0.1318 -0.4360 -0.2850
   15SAPS   C29 1915   2.295   3.205   2.905 -0.2390 -0.2232 -0.2194
   15SAPS   H9R 1916   2.202   3.149   2.921 -0.2528  0.0923  0.8838
   15SAPS  C210 1917   2.416   3.157   2.984  0.1519  0.4516 -0.1157
   15SAPS  H10R 1918   2.501   3.128   2.918 -0.2972  0.4805 -0.7077
   15SAPS  H10S 1919   2.390   3.063   3.037 -1.2293 -0.0373 -1.5876
   15SAPS  C211 1920   2.447   3.256   3.096  0.1371 -0.2245 -0.2114
   15SAPS  H11R 1921   2.470   3.355   3.054  0.5289 -0.0888  0.3113
   15SAPS  C212 1922   2.422   3.248   3.230  0.0729 -0.3514 -0.1010
   15SAPS  H12R 1923   2.448   3.342   3.281  0.5022 -0.5033 -0.0329
   15SAPS  C213 1924   2.377   3.137   3.325  0.3358  0.0058  0.7219
   15SAPS  H13R 1925   2.463   3.110   3.389  0.5541  0.6970  0.7288
   15SAPS  H13S 1926   2.354   3.046   3.264  0.2449  0.2127  0.4461
   15SAPS  C214 1927   2.252   3.187   3.399  0.7312 -0.0779 -0.7035
   15SAPS  H14R 1928   2.163   3.198   3.337  0.5440 -3.3193 -1.1771
   15SAPS  C215 1929   2.248   3.228   3.530  0.1860  0.1871 -0.5603
   15SAPS  H15R 1930   2.158   3.270   3.577 -0.9902 -2.4003 -0.3258
   15SAPS  C216 1931   2.371   3.231   3.622  0.1274 -0.1093  0.1379
   15SAPS  H16R 1932   2.412   3.331   3.647  0.0702  0.0952 -0.5701
   15SAPS  H16S 1933   2.450   3.159   3.591  0.3906  0.1280  0.2653
   15SAPS  C217 1934   2.330   3.180   3.763 -0.1146  0.4079 -0.5760
   15SAPS  H17R 1935   2.294   3.075   3.758  1.7445 -0.2620 -0.4608
   15SAPS  H17S 1936   2.252   3.247   3.805  0.1831 -0.1054  0.8226
   15SAPS  C218 1937   2.445   3.193   3.860  0.1292 -0.4666 -0.5557
   15SAPS  H18R 1938   2.479   3.298   3.860  0.8581 -0.6882  0.1692
   15SAPS  H18S 1939   2.532   3.139   3.817  1.3949  0.5440  0.6790
   15SAPS  C219 1940   2.396   3.158   4.000 -0.4790 -0.7220  0.1843
   15SAPS  H19R 1941   2.372   3.050   4.007 -0.3289 -0.8288 -0.7245
   15SAPS  H19S 1942   2.303   3.218   4.011  0.8090  1.2822  0.7394
   15SAPS  C220 1943   2.498   3.202   4.113 -0.5150 -0.0587 -0.4662
   15SAPS  H20R 1944   2.581   3.128   4.108  1.7584  2.3808 -1.0805
   15SAPS  H20S 1945   2.454   3.196   4.215 -1.4328  0.8825 -0.7970
   15SAPS  H20T 1946   2.541   3.304   4.104 -2.1361  0.9880  2.2563
   15SAPS   C33 1947   2.856   3.521   2.550  0.6122 -0.2002  0.6427
   15SAPS   H3X 1948   2.904   3.454   2.625  1.3883  4.3935  4.7933
   15SAPS   H3Y 1949   2.760   3.480   2.514  0.3199  0.6546  0.4316
   15SAPS   C34 1950   2.843   3.655   2.616 -0.7725  0.3057  0.3408
   15SAPS   H4X 1951   2.828   3.738   2.544  4.3113  1.1567 -0.1036
   15SAPS   H4Y 1952   2.943   3.685   2.655  1.1837 -2.5211 -2.1021
   15SAPS   C35 1953   2.734   3.649   2.725  1.0098 -0.7335 -0.0075
   15SAPS   H5X 1954   2.641   3.609   2.680  0.3904  1.5082 -0.8725
   15SAPS   H5Y 1955   2.696   3.749   2.757 -3.5652 -2.0793 -0.5530
   15SAPS   C36 1956   2.778   3.573   2.849  0.1416  0.0159  0.3785
   15SAPS   H6X 1957   2.882   3.603   2.876  0.2447  3.5553 -3.1804
   15SAPS   H6Y 1958   2.778   3.465   2.823  0.0457  0.1426 -0.1522
   15SAPS   C37 1959   2.700   3.616   2.978  0.7768 -0.0857 -0.5364
   15SAPS   H7X 1960   2.593   3.624   2.950  1.0294 -0.0181 -1.5328
   15SAPS   H7Y 1961   2.735   3.716   3.010  0.3903 -0.0767 -0.1280
   15SAPS   C38 1962   2.731   3.528   3.101 -0.4078 -0.0150 -0.4635
   15SAPS   H8X 1963   2.840   3.513   3.109 -0.0563  0.7968 -2.8290
   15SAPS   H8Y 1964   2.697   3.425   3.077  1.5410 -1.2048  1.5632
   15SAPS   C39 1965   2.656   3.563   3.233 -0.3136 -0.1265 -0.1137
   15SAPS   H9X 1966   2.547   3.543   3.226 -0.1270 -2.0278  1.6759
   15SAPS   H9Y 1967   2.663   3.672   3.252  1.5623 -0.2028 -0.1885
   15SAPS  C310 1968   2.717   3.478   3.342 -0.7699  0.1240 -0.6568
   15SAPS  H10X 1969   2.825   3.504   3.343 -1.1734  1.9594 -0.1916
   15SAPS  H10Y 1970   2.709   3.373   3.308  1.2401 -0.3118  0.1099
   15SAPS  C311 1971   2.648   3.491   3.483  0.0067 -0.3203 -0.0789
   15SAPS  H11X 1972   2.545   3.458   3.458  0.0628 -0.8264  0.3425
   15SAPS  H11Y 1973   2.639   3.597   3.514 -0.0984 -0.3458 -0.0192
   15SAPS  C312 1974   2.708   3.395   3.587  0.9127  0.5506  0.2464
   15SAPS  H12X 1975   2.700   3.291   3.547  3.6893  0.9612 -1.6741
   15SAPS  H12Y 1976   2.630   3.405   3.665 -2.6560  1.4265 -3.1559
   15SAPS  C313 1977   2.849   3.429   3.621 -0.1210 -0.9679 -0.4249
   15SAPS  H13X 1978   2.852   3.539   3.639 -1.4591 -1.2001  1.4991
   15SAPS  H13Y 1979   2.921   3.407   3.540 -1.2721 -0.1924 -1.7266
   15SAPS  C314 1980   2.903   3.349   3.745  0.4099 -0.0703  0.3952
   15SAPS  H14X 1981   2.945   3.253   3.709  0.7167  0.8953 -2.0024
   15SAPS  H14Y 1982   2.810   3.329   3.804  0.4868 -0.4453  0.3915
   15SAPS  C315 1983   3.001   3.429   3.831 -0.0192 -0.4885  0.5853
   15SAPS  H15X 1984   2.958   3.522   3.873 -1.8615 -0.6001 -0.9430
   15SAPS  H15Y 1985   3.078   3.466   3.761  0.1917  0.9089  1.5210
   15SAPS  C316 1986   3.074   3.348   3.944  0.1197 -0.4612 -1.0572
   15SAPS  H16X 1987   3.157   3.411   3.984 -1.4967  0.4833  1.0177
   15SAPS  H16Y 1988   3.113   3.254   3.899  3.8050  0.4718 -0.1566
   15SAPS  C317 1989   2.980   3.313   4.058 -0.1061 -0.2360  0.1467
   15SAPS  H17X 1990   3.034   3.230   4.108  0.0279  0.2005  0.7350
   15SAPS  H17Y 1991   2.890   3.273   4.007 -1.4926  3.8609 -1.0224
   15SAPS  C318 1992   2.941   3.424   4.152 -0.2913  0.1043  0.1568
   15SAPS  H18X 1993   2.917   3.382   4.252 -0.2530 -0.1298  0.0670
   15SAPS  H18Y 1994   2.853   3.482   4.119 -0.0979  0.2991 -0.0224
   15SAPS  H18Z 1995   3.025   3.498   4.156 -0.3631  0.1770  0.3867
   16SAPS     N 1996   3.289   3.147   1.621 -0.1371 -0.1934 -0.1622
   16SAPS   HN1 1997   3.273   3.133   1.519 -0.2723  2.4956 -0.5844
   16SAPS   HN2 1998   3.376   3.111   1.664 -0.1323  0.9654  0.8481
   16SAPS   HN3 1999   3.221   3.087   1.672  0.6645 -3.6878 -2.8052
   16SAPS   C12 2000   3.257   3.291   1.648 -0.5592 -0.1162  0.1031
   16SAPS  H12A 2001   3.335   3.341   1.593  2.6132  0.5802  4.6486
   16SAPS   C13 2002   3.131   3.353   1.603 -0.1672 -0.4109 -0.4267
   16SAPS  O13A 2003   3.056   3.284   1.533  0.4194  0.4497  0.5160
   16SAPS  O13B 2004   3.115   3.481   1.614 -0.0977 -0.3089  0.7281
   16SAPS   C11 2005   3.284   3.319   1.806  0.2112 -0.4928  0.0534
   16SAPS  H11A 2006   3.284   3.428   1.826  2.2599 -0.8380  2.4945
   16SAPS  H11B 2007   3.386   3.281   1.826  0.9084  0.8986 -0.7900
   16SAPS     P 2008   3.137   3.262   2.025 -0.0063 -0.3434  0.4235
   16SAPS   O13 2009   2.993   3.298   2.019 -0.3598  0.1126 -0.2136
   16SAPS   O14 2010   3.187   3.138   2.096  0.0867 -0.2225  0.1851
   16SAPS   O12 2011   3.186   3.243   1.880 -0.0809 -0.8280  0.4323
   16SAPS   O11 2012   3.224   3.385   2.069  0.3791  0.2641 -0.0519
   16SAPS    C1 2013   3.357   3.374   2.122 -0.3670  0.4169  0.6976
   16SAPS    HA 2014   3.407   3.276   2.107  1.1245  0.8705  2.3497
   16SAPS    HB 2015   3.424   3.442   2.065 -0.3987 -1.0977 -1.2391
   16SAPS    C2 2016   3.374   3.426   2.261 -0.0971 -0.2516  0.0730
   16SAPS    HS 2017   3.473   3.401   2.303 -0.3719  1.3565  1.7858
   16SAPS   O21 2018   3.269   3.363   2.334 -0.5403  0.0005  0.3754
   16SAPS   C21 2019   3.306   3.240   2.379  0.1523 -0.0741  0.1341
   16SAPS   O22 2020   3.418   3.194   2.373  0.5008  0.2445  0.2105
   16SAPS   C22 2021   3.191   3.164   2.430 -0.0439  0.2666  0.3113
   16SAPS   H2R 2022   3.102   3.194   2.370 -0.5702 -0.3680  0.7578
   16SAPS   H2S 2023   3.210   3.060   2.396 -0.3061  0.6677 -1.1393
   16SAPS    C3 2024   3.351   3.572   2.284 -0.0105 -0.6226 -0.1884
   16SAPS    HX 2025   3.247   3.598   2.254  0.2959 -0.4039 -1.0839
   16SAPS    HY 2026   3.420   3.636   2.226  0.1670  1.1622  1.8406
   16SAPS   O31 2027   3.374   3.613   2.422  0.7098  0.2257  0.2073
   16SAPS   C31 2028   3.346   3.738   2.455 -0.2672  0.5231  0.3839
   16SAPS   O32 2029   3.313   3.823   2.373 -0.1542  0.2131 -0.0098
   16SAPS   C32 2030   3.356   3.772   2.605 -0.1230 -0.4558  0.4876
   16SAPS   H2X 2031   3.446   3.834   2.625  0.3537 -0.8591 -0.3708
   16SAPS   H2Y 2032   3.371   3.680   2.665 -0.7963  0.1269  1.5851
   16SAPS   C23 2033   3.152   3.168   2.577  0.4677  0.8214  0.2579
   16SAPS   H3R 2034   3.092   3.078   2.603  1.7211  0.2853  1.4469
   16SAPS   H3S 2035   3.096   3.262   2.596  2.8879  2.3207  0.3657
   16SAPS   C24 2036   3.279   3.167   2.667 -0.1340  0.0537  0.3740
   16SAPS   H4R 2037   3.338   3.260   2.652  2.7417 -1.6506  0.1336
   16SAPS   H4S 2038   3.351   3.087   2.639  2.3309  2.0592  0.6137
   16SAPS   C25 2039   3.234   3.144   2.806 -0.5296  0.2375  0.7740
   16SAPS   H5R 2040   3.199   3.041   2.821 -2.3407  0.7611  0.4674
   16SAPS   C26 2041   3.237   3.235   2.907  0.8596  0.4619 -0.4247
   16SAPS   H6R 2042   3.215   3.199   3.008  1.6876  0.9450 -0.0649
   16SAPS   C27 2043   3.260   3.381   2.893 -0.0555 -1.1736  0.0208
   16SAPS   H7R 2044   3.266   3.405   2.784 -2.1208  0.6995  0.2495
   16SAPS   H7S 2045   3.361   3.411   2.926 -0.0898  1.3537 -1.8733
   16SAPS   C28 2046   3.156   3.471   2.964  0.0219 -0.0457  0.5701
   16SAPS   H8R 2047   3.099   3.528   2.889  0.4062  0.0758  0.3640
   16SAPS   C29 2048   3.149   3.489   3.096  0.2964 -0.1322 -0.2700
   16SAPS   H9R 2049   3.069   3.551   3.138  0.1780 -1.7872  2.1504
   16SAPS  C210 2050   3.245   3.429   3.197  0.3856  0.5802  0.4132
   16SAPS  H10R 2051   3.331   3.489   3.233 -0.4889  1.8134  0.4791
   16SAPS  H10S 2052   3.290   3.334   3.159 -0.0134 -0.0733  1.5116
   16SAPS  C211 2053   3.148   3.402   3.311 -0.2675  0.0754  0.5884
   16SAPS  H11R 2054   3.057   3.463   3.315 -0.4107 -0.1242  0.3560
   16SAPS  C212 2055   3.166   3.299   3.399 -0.1055 -0.1169 -0.1021
   16SAPS  H12R 2056   3.101   3.290   3.488  1.2803  0.4834  1.0065
   16SAPS  C213 2057   3.291   3.210   3.401 -0.7196 -0.5347  0.3112
   16SAPS  H13R 2058   3.371   3.241   3.472  0.3025 -2.9315  0.3052
   16SAPS  H13S 2059   3.344   3.201   3.304  0.6020  1.8569  0.7115
   16SAPS  C214 2060   3.235   3.079   3.448  0.2816 -0.1708 -0.0024
   16SAPS  H14R 2061   3.177   3.026   3.371 -0.6497 -1.1096  1.3072
   16SAPS  C215 2062   3.236   3.029   3.571  0.7433  0.0608  0.7668
   16SAPS  H15R 2063   3.190   2.929   3.574 -0.5089  0.5549 -0.6872
   16SAPS  C216 2064   3.294   3.097   3.695  0.3822 -0.3975 -0.2343
   16SAPS  H16R 2065   3.212   3.119   3.766 -1.2278 -0.8646 -1.8847
   16SAPS  H16S 2066   3.329   3.198   3.666 -0.8507 -0.2940 -1.4757
   16SAPS  C217 2067   3.406   3.021   3.754 -0.6957  0.4948 -0.2117
   16SAPS  H17R 2068   3.481   3.001   3.676 -1.6570  0.5714 -1.1822
   16SAPS  H17S 2069   3.359   2.926   3.789  3.2011 -1.1991  0.9704
   16SAPS  C218 2070   3.478   3.101   3.863 -0.7655  0.1395 -0.1066
   16SAPS  H18R 2071   3.395   3.152   3.916 -0.5437 -0.1388  0.5084
   16SAPS  H18S 2072   3.545   3.170   3.806  2.2807 -2.4529  0.0178
   16SAPS  C219 2073   3.541   3.025   3.966  0.5708  0.5939  0.7162
   16SAPS  H19R 2074   3.597   2.943   3.917 -0.9506  1.2860 -2.4173
   16SAPS  H19S 2075   3.468   2.955   4.013  0.1416 -0.0444 -0.8250
   16SAPS  C220 2076   3.609   3.096   4.077 -0.5382 -0.7098  0.2223
   16SAPS  H20R 2077   3.547   3.177   4.121  1.8860  1.0660  0.5733
   16SAPS  H20S 2078   3.700   3.137   4.029 -1.0270  1.9780  1.4184
   16SAPS  H20T 2079   3.633   3.040   4.170 -1.5453 -0.6402  0.5391
   16SAPS   C33 2080   3.231   3.844   2.660 -0.2582  0.4536  0.6877
   16SAPS   H3X 2081   3.145   3.776   2.646 -1.0456  1.8094 -1.5159
   16SAPS   H3Y 2082   3.213   3.936   2.601  0.0406  0.7344  1.0253
   16SAPS   C34 2083   3.234   3.878   2.807  0.7764 -0.4270  0.4705
   16SAPS   H4X 2084   3.299   3.967   2.817  0.6017  0.1616 -2.7464
   16SAPS   H4Y 2085   3.266   3.790   2.867 -0.7556 -0.9010  0.6547
   16SAPS   C35 2086   3.093   3.914   2.858 -0.2623 -0.0597  0.6315
   16SAPS   H5X 2087   3.026   3.831   2.829 -1.5341  0.2151  2.5836
   16SAPS   H5Y 2088   3.063   4.011   2.813 -0.7849 -0.2586  0.5415
   16SAPS   C36 2089   3.088   3.945   3.008 -0.2031  0.1084 -0.1126
   16SAPS   H6X 2090   3.154   4.034   3.021  0.7657 -0.5649 -0.3542
   16SAPS   H6Y 2091   3.130   3.858   3.062 -0.3232  0.8463  1.1966
   16SAPS   C37 2092   2.950   3.981   3.063 -0.0459  0.6004  0.6978
   16SAPS   H7X 2093   2.874   3.917   3.013  0.2462  2.2207 -2.0704
   16SAPS   H7Y 2094   2.913   4.078   3.022 -1.0244 -0.8078 -2.0052
   16SAPS   C38 2095   2.932   3.961   3.221  0.5626  1.0105  0.2267
   16SAPS   H8X 2096   2.822   3.975   3.233  0.3276 -0.3266 -0.2469
   16SAPS   H8Y 2097   2.996   4.035   3.274  3.0310 -0.9760  0.1962
   16SAPS   C39 2098   2.972   3.820   3.271 -0.7124 -0.2267 -0.1697
   16SAPS   H9X 2099   3.080   3.821   3.296 -1.4006 -0.9948  3.3095
   16SAPS   H9Y 2100   2.958   3.745   3.190 -0.9125  0.6065 -0.9201
   16SAPS  C310 2101   2.907   3.779   3.403  0.5634 -0.0320 -0.3519
   16SAPS  H10X 2102   2.945   3.678   3.429  0.7837 -0.3897 -1.9910
   16SAPS  H10Y 2103   2.796   3.782   3.391  0.7114 -0.0053 -1.8794
   16SAPS  C311 2104   2.952   3.879   3.516  0.4910  1.2845  0.6625
   16SAPS  H11X 2105   2.928   3.982   3.483  1.1817  1.3423  0.3269
   16SAPS  H11Y 2106   3.062   3.873   3.530  0.6238 -2.2054 -0.7301
   16SAPS  C312 2107   2.880   3.845   3.648  0.1858 -0.3998 -0.0788
   16SAPS  H12X 2108   2.923   3.748   3.681  1.2997 -0.3267 -1.2392
   16SAPS  H12Y 2109   2.771   3.825   3.634  0.2535  0.5388 -2.2740
   16SAPS  C313 2110   2.895   3.950   3.766 -0.5093  0.3398  0.7953
   16SAPS  H13X 2111   2.822   3.949   3.850  1.4113  0.0560  2.5348
   16SAPS  H13Y 2112   2.865   4.048   3.721  0.3869  0.8084  1.1985
   16SAPS  C314 2113   3.043   3.969   3.803 -0.2096  0.6585  0.1615
   16SAPS  H14X 2114   3.110   3.983   3.715  0.8896 -2.1679  0.4287
   16SAPS  H14Y 2115   3.074   3.870   3.842 -0.0590 -0.2056 -2.0153
   16SAPS  C315 2116   3.075   4.084   3.894  0.2171 -1.2670 -0.1467
   16SAPS  H15X 2117   3.050   4.184   3.852  1.1712 -0.8513  0.2459
   16SAPS  H15Y 2118   3.185   4.078   3.912 -0.0785 -1.1245  1.9285
   16SAPS  C316 2119   3.007   4.064   4.024  1.1963  0.2834 -0.5049
   16SAPS  H16X 2120   3.008   3.958   4.059  1.2133 -0.4698 -2.6325
   16SAPS  H16Y 2121   2.898   4.082   4.013  1.0467  0.6210  1.2507
   16SAPS  C317 2122   3.064   4.153   4.132  0.4270  0.2665 -0.1615
   16SAPS  H17X 2123   3.072   4.257   4.092 -4.0737 -0.0039 -2.3688
   16SAPS  H17Y 2124   3.168   4.125   4.162  0.0192 -0.0139  1.0511
   16SAPS  C318 2125   2.975   4.161   4.256  0.3516 -0.0414  0.4355
   16SAPS  H18X 2126   2.966   4.269   4.282 -0.2759 -0.8669  4.1667
   16SAPS  H18Y 2127   3.032   4.106   4.334 -0.7970 -0.6905  0.8361
   16SAPS  H18Z 2128   2.876   4.112   4.248 -0.4542  0.6767  4.1654
   17SAPS     N 2129   0.822   4.708   1.723  0.3289 -0.9081  0.6253
   17SAPS   HN1 2130   0.854   4.734   1.627 -1.0341 -0.4742  0.2735
   17SAPS   HN2 2131   0.813   4.604   1.726  0.6769 -0.9410  0.6841
   17SAPS   HN3 2132   0.726   4.743   1.742  0.3032 -0.5004 -0.2330
   17SAPS   C12 2133   0.926   4.733   1.831 -0.7650  0.1875  0.2621
   17SAPS  H12A 2134   1.018   4.681   1.810  1.2465  3.2872  0.6829
   17SAPS   C13 2135   0.983   4.872   1.838  0.7014 -0.7362  0.7936
   17SAPS  O13A 2136   0.942   4.963   1.759  0.0329  0.1574 -0.1210
   17SAPS  O13B 2137   1.086   4.895   1.905  0.1260 -0.1349 -0.3956
   17SAPS   C11 2138   0.874   4.675   1.967  0.3235 -0.5601 -0.2020
   17SAPS  H11A 2139   0.781   4.734   1.985  0.0545 -1.0367 -0.0261
   17SAPS  H11B 2140   0.946   4.694   2.050 -0.4642  0.4971  0.2724
   17SAPS     P 2141   0.914   4.415   2.004 -0.1623  0.3471  0.2340
   17SAPS   O13 2142   0.866   4.289   1.943  0.5249 -0.0866  0.1108
   17SAPS   O14 2143   1.061   4.444   1.992  0.3790 -0.4030 -0.6002
   17SAPS   O12 2144   0.829   4.538   1.953 -0.4409  0.1034 -0.0632
   17SAPS   O11 2145   0.878   4.409   2.150  0.3685  0.0935 -0.7965
   17SAPS    C1 2146   0.869   4.506   2.254 -0.3656 -0.3292  0.0343
   17SAPS    HA 2147   0.961   4.568   2.244 -2.4890  2.7086 -2.7027
   17SAPS    HB 2148   0.780   4.571   2.244 -1.6609 -2.2499 -1.7922
   17SAPS    C2 2149   0.855   4.447   2.395 -0.3660 -0.1387  0.2488
   17SAPS    HS 2150   0.958   4.420   2.427 -0.9052  0.4925  2.7713
   17SAPS   O21 2151   0.767   4.330   2.396  0.2740  0.3225 -0.5680
   17SAPS   C21 2152   0.809   4.224   2.447  0.2606 -0.1048 -0.9956
   17SAPS   O22 2153   0.922   4.208   2.493 -0.1408 -0.0421  0.2254
   17SAPS   C22 2154   0.707   4.111   2.428  1.0797  0.0212 -0.1545
   17SAPS   H2R 2155   0.693   4.109   2.318 -0.9446  1.5082  0.0068
   17SAPS   H2S 2156   0.750   4.018   2.470 -1.2303 -1.0895 -0.0782
   17SAPS    C3 2157   0.822   4.559   2.504  0.4321 -0.2402 -0.1995
   17SAPS    HX 2158   0.714   4.584   2.490  0.7150  1.1088 -0.0690
   17SAPS    HY 2159   0.878   4.652   2.482 -0.4340  1.1212  2.8006
   17SAPS   O31 2160   0.858   4.516   2.640  0.5260  0.5026  0.5146
   17SAPS   C31 2161   0.781   4.448   2.713  1.1961  0.3539 -0.0389
   17SAPS   O32 2162   0.664   4.419   2.682 -0.2411  0.1524  0.2960
   17SAPS   C32 2163   0.850   4.417   2.847  0.7188 -0.2939  0.3261
   17SAPS   H2X 2164   0.895   4.512   2.885  0.3844  0.3483 -0.8393
   17SAPS   H2Y 2165   0.930   4.346   2.818  1.6935  0.6730  0.5268
   17SAPS   C23 2166   0.559   4.136   2.482  0.1468  0.5342 -0.2420
   17SAPS   H3R 2167   0.534   4.244   2.476 -0.3809  0.3806 -1.0536
   17SAPS   H3S 2168   0.567   4.106   2.589 -0.1727  2.7168  0.4280
   17SAPS   C24 2169   0.457   4.050   2.413 -0.0186 -0.2336 -0.8742
   17SAPS   H4R 2170   0.457   4.081   2.306  0.4996 -0.3823 -0.9167
   17SAPS   H4S 2171   0.354   4.066   2.452  0.7664  0.7851  0.9391
   17SAPS   C25 2172   0.501   3.907   2.417  0.2231 -0.1281 -0.1150
   17SAPS   H5R 2173   0.591   3.891   2.357 -1.0970  1.5197 -2.7172
   17SAPS   C26 2174   0.442   3.803   2.466 -0.1593  0.3035  0.2525
   17SAPS   H6R 2175   0.488   3.704   2.453  0.2880  0.5408 -0.0185
   17SAPS   C27 2176   0.312   3.792   2.533 -0.2637 -0.7284 -0.2842
   17SAPS   H7R 2177   0.289   3.889   2.580 -3.5712 -1.7166  0.4394
   17SAPS   H7S 2178   0.307   3.710   2.608  0.6195 -1.1958 -0.7139
   17SAPS   C28 2179   0.206   3.774   2.425  0.1125  0.7641 -0.0453
   17SAPS   H8R 2180   0.226   3.822   2.328  0.0623  0.9054  0.0133
   17SAPS   C29 2181   0.096   3.702   2.435  0.2475 -0.4365  0.6034
   17SAPS   H9R 2182   0.034   3.708   2.344  0.9303  1.5556  0.2373
   17SAPS  C210 2183   0.047   3.625   2.555 -0.1856  0.4306 -0.7722
   17SAPS  H10R 2184  -0.052   3.584   2.526 -0.9941  1.9900 -0.3184
   17SAPS  H10S 2185   0.026   3.703   2.631 -3.2340  2.0934 -3.0903
   17SAPS  C211 2186   0.131   3.511   2.612 -0.1093 -0.0894 -0.1288
   17SAPS  H11R 2187   0.176   3.444   2.537  1.2222  0.5083  0.1193
   17SAPS  C212 2188   0.170   3.488   2.738  0.4473 -0.0608 -0.5324
   17SAPS  H12R 2189   0.226   3.396   2.757  1.7939  0.7987 -0.2154
   17SAPS  C213 2190   0.117   3.571   2.855 -0.7974 -0.0667  0.7693
   17SAPS  H13R 2191   0.007   3.564   2.863 -0.8832  1.0929  0.7542
   17SAPS  H13S 2192   0.139   3.676   2.827  1.6704 -0.9525 -0.9668
   17SAPS  C214 2193   0.184   3.534   2.986  0.0591 -0.7311 -0.3572
   17SAPS  H14R 2194   0.256   3.609   3.021 -2.9116  1.5571  1.3175
   17SAPS  C215 2195   0.148   3.434   3.070  0.4045 -0.2867  0.1894
   17SAPS  H15R 2196   0.195   3.437   3.169  1.0551  1.6728 -0.1388
   17SAPS  C216 2197   0.041   3.332   3.063  0.4269  0.1323 -0.2376
   17SAPS  H16R 2198   0.088   3.233   3.045  1.3541  0.9453 -2.8337
   17SAPS  H16S 2199  -0.028   3.347   2.977 -1.0211 -2.5859  0.3399
   17SAPS  C217 2200  -0.046   3.325   3.189  0.0946  0.1636  0.0628
   17SAPS  H17R 2201   0.024   3.298   3.271  0.0652  0.6052  0.2391
   17SAPS  H17S 2202  -0.119   3.242   3.183 -2.1221  1.9450  0.7946
   17SAPS  C218 2203  -0.130   3.447   3.218 -0.5963  0.1391  0.2915
   17SAPS  H18R 2204  -0.217   3.465   3.151 -0.4970 -1.2578 -0.2528
   17SAPS  H18S 2205  -0.053   3.526   3.219  0.2282 -0.6510  0.0612
   17SAPS  C219 2206  -0.181   3.430   3.363  0.2776  0.6656 -0.0345
   17SAPS  H19R 2207  -0.239   3.524   3.379  1.5310  1.5243 -0.3798
   17SAPS  H19S 2208  -0.109   3.429   3.447 -0.5500 -2.9081  0.7857
   17SAPS  C220 2209  -0.282   3.320   3.372 -0.3681  0.2376 -0.2095
   17SAPS  H20R 2210  -0.338   3.332   3.467 -0.3572 -1.4368  0.0549
   17SAPS  H20S 2211  -0.231   3.222   3.387 -0.5100  0.3638  1.3151
   17SAPS  H20T 2212  -0.348   3.319   3.282 -0.4426 -0.5139 -0.1533
   17SAPS   C33 2213   0.758   4.370   2.962 -1.0702  0.4923  0.2104
   17SAPS   H3X 2214   0.733   4.262   2.957 -2.2270  0.7498  0.1469
   17SAPS   H3Y 2215   0.659   4.416   2.943 -1.0850  0.2042 -0.4140
   17SAPS   C34 2216   0.801   4.417   3.104 -0.0315  0.8356 -0.4918
   17SAPS   H4X 2217   0.822   4.526   3.112 -2.8533  1.5239 -1.2365
   17SAPS   H4Y 2218   0.898   4.368   3.127 -0.1218 -0.0003 -1.8227
   17SAPS   C35 2219   0.695   4.393   3.207  0.8964 -0.2349  0.0050
   17SAPS   H5X 2220   0.657   4.290   3.192  1.2187 -0.1729 -1.3017
   17SAPS   H5Y 2221   0.608   4.462   3.204 -0.1705 -1.1660  3.7789
   17SAPS   C36 2222   0.754   4.406   3.344  0.5789  0.2290  0.1117
   17SAPS   H6X 2223   0.781   4.512   3.362  0.4086  0.8675 -2.9023
   17SAPS   H6Y 2224   0.846   4.344   3.351 -0.1404 -0.9216 -0.2893
   17SAPS   C37 2225   0.652   4.347   3.451 -0.1223  0.0329  0.5791
   17SAPS   H7X 2226   0.618   4.246   3.421  0.0714  0.0936  0.1512
   17SAPS   H7Y 2227   0.561   4.411   3.454 -1.9461 -2.3500 -0.1424
   17SAPS   C38 2228   0.705   4.338   3.597  0.0190  0.6101  0.7949
   17SAPS   H8X 2229   0.624   4.292   3.658 -1.1745 -1.3587 -2.0203
   17SAPS   H8Y 2230   0.713   4.438   3.643  0.8976 -0.4778  3.1594
   17SAPS   C39 2231   0.824   4.250   3.618  0.0747 -0.3112  0.3748
   17SAPS   H9X 2232   0.845   4.230   3.725 -0.8142 -1.3074  0.3782
   17SAPS   H9Y 2233   0.911   4.303   3.571  0.2108 -0.7125  0.1676
   17SAPS  C310 2234   0.812   4.113   3.558  0.4559 -0.0729  0.5821
   17SAPS  H10X 2235   0.803   4.114   3.448  0.4528 -0.4669  0.5747
   17SAPS  H10Y 2236   0.717   4.070   3.598  0.1076 -0.7640 -0.9306
   17SAPS  C311 2237   0.936   4.024   3.590 -0.3683  0.5508  0.2062
   17SAPS  H11X 2238   0.938   4.015   3.701  0.1988  0.5008  0.1944
   17SAPS  H11Y 2239   1.023   4.084   3.557  1.4523 -1.8767  0.3218
   17SAPS  C312 2240   0.920   3.895   3.519 -0.1925 -0.2616  0.7008
   17SAPS  H12X 2241   0.816   3.857   3.536 -0.0900 -0.3059  1.2324
   17SAPS  H12Y 2242   0.999   3.831   3.563  0.0544 -0.8137 -0.4965
   17SAPS  C313 2243   0.958   3.901   3.374  0.1075  0.3838  0.1269
   17SAPS  H13X 2244   1.069   3.902   3.376  0.3057 -1.4371 -3.0355
   17SAPS  H13Y 2245   0.916   3.989   3.320 -0.9718 -1.0333 -1.4576
   17SAPS  C314 2246   0.898   3.775   3.306 -0.0853  0.2874 -0.6807
   17SAPS  H14X 2247   0.788   3.779   3.319  0.0575 -0.7178  1.2966
   17SAPS  H14Y 2248   0.915   3.684   3.367 -1.6004  0.2745 -0.2347
   17SAPS  C315 2249   0.927   3.752   3.162 -0.6089  0.1670 -0.1189
   17SAPS  H15X 2250   0.888   3.653   3.131  0.5203 -0.5138  0.5993
   17SAPS  H15Y 2251   1.037   3.753   3.144 -0.6917  1.1296 -0.6917
   17SAPS  C316 2252   0.862   3.856   3.065 -0.3110 -0.5697 -0.1125
   17SAPS  H16X 2253   0.883   3.958   3.103 -0.0264 -0.6836  0.0348
   17SAPS  H16Y 2254   0.751   3.845   3.069 -0.3646 -0.4199 -1.0973
   17SAPS  C317 2255   0.917   3.834   2.927 -0.5104  0.9302  0.6488
   17SAPS  H17X 2256   0.866   3.744   2.886  1.0376  1.2392 -2.1721
   17SAPS  H17Y 2257   1.025   3.817   2.912 -0.8946  0.5472 -2.1138
   17SAPS  C318 2258   0.875   3.936   2.819 -0.2546 -0.1279  0.0526
   17SAPS  H18X 2259   0.902   3.897   2.718 -0.3465  0.2261 -0.1104
   17SAPS  H18Y 2260   0.920   4.037   2.824 -0.2682  0.1255 -3.0028
   17SAPS  H18Z 2261   0.765   3.954   2.821 -0.4099 -1.0658  1.0658
   18SAPS     N 2262   5.571   2.623   1.913 -0.2814  0.3595  0.7339
   18SAPS   HN1 2263   5.579   2.707   1.852 -2.3480  1.1310  1.4427
   18SAPS   HN2 2264   5.654   2.622   1.977 -0.5978  0.1947  1.1478
   18SAPS   HN3 2265   5.578   2.551   1.839 -0.8670  1.1065 -0.0720
   18SAPS   C12 2266   5.437   2.626   1.982 -0.1994 -0.2409  0.0042
   18SAPS  H12A 2267   5.364   2.647   1.906  1.0802  0.7290 -1.0202
   18SAPS   C13 2268   5.402   2.490   2.042 -0.1894 -0.0686 -0.3575
   18SAPS  O13A 2269   5.481   2.393   2.035  0.1463 -0.1568  0.1637
   18SAPS  O13B 2270   5.286   2.471   2.077  0.4623 -0.0046 -0.0529
   18SAPS   C11 2271   5.431   2.735   2.087  0.1913 -0.3240 -0.8616
   18SAPS  H11A 2272   5.513   2.708   2.157 -1.9560 -2.2841  1.0762
   18SAPS  H11B 2273   5.337   2.731   2.146 -0.5047 -0.9431 -1.9819
   18SAPS     P 2274   5.395   2.986   2.123  0.2449  0.4020  0.4830
   18SAPS   O13 2275   5.445   3.115   2.072 -0.2425  0.5401  0.5157
   18SAPS   O14 2276   5.247   2.966   2.130  0.2553  0.0699  0.4288
   18SAPS   O12 2277   5.448   2.869   2.032  0.5037  0.0781  0.8429
   18SAPS   O11 2278   5.452   2.949   2.268 -0.4533 -1.0330 -0.2462
   18SAPS    C1 2279   5.403   2.994   2.390  0.1865  0.4531  0.7332
   18SAPS    HA 2280   5.431   3.101   2.397  1.9107  0.2485 -1.8194
   18SAPS    HB 2281   5.293   2.977   2.387  0.0356  0.5192  3.3834
   18SAPS    C2 2282   5.468   2.918   2.505 -0.1775 -0.5034 -0.1730
   18SAPS    HS 2283   5.421   2.944   2.602 -0.4728 -0.0713 -0.4298
   18SAPS   O21 2284   5.606   2.938   2.506  0.3142  0.6196 -0.4998
   18SAPS   C21 2285   5.652   3.057   2.561  0.7471  0.0246 -0.3055
   18SAPS   O22 2286   5.580   3.138   2.611  0.4083 -0.3326  0.2617
   18SAPS   C22 2287   5.804   3.059   2.566 -0.6485  0.0196 -0.3373
   18SAPS   H2R 2288   5.827   2.998   2.476 -2.8126  0.0859 -0.9857
   18SAPS   H2S 2289   5.840   3.164   2.554 -0.1698 -0.1630 -0.5365
   18SAPS    C3 2290   5.433   2.770   2.499  0.1534 -0.2582  1.1122
   18SAPS    HX 2291   5.453   2.745   2.393 -0.8097 -0.1793  0.9038
   18SAPS    HY 2292   5.327   2.753   2.527 -0.3146 -0.1893 -0.5534
   18SAPS   O31 2293   5.511   2.680   2.583 -0.2521  0.7984  0.5862
   18SAPS   C31 2294   5.501   2.545   2.551 -0.3934  0.2635 -0.1897
   18SAPS   O32 2295   5.421   2.495   2.477  0.3017 -0.0599  0.0560
   18SAPS   C32 2296   5.595   2.469   2.642  0.5715  0.0667  0.1653
   18SAPS   H2X 2297   5.550   2.479   2.743  0.4177  1.8286 -0.0422
   18SAPS   H2Y 2298   5.691   2.522   2.622  0.0288  0.8791 -0.3044
   18SAPS   C23 2299   5.874   2.974   2.675  0.2581 -0.2782  0.3548
   18SAPS   H3R 2300   5.983   2.989   2.664  0.1067  0.3457 -0.4096
   18SAPS   H3S 2301   5.841   2.868   2.671  1.4847 -0.6418 -1.4996
   18SAPS   C24 2302   5.859   3.039   2.817  0.2578  0.1577  0.1922
   18SAPS   H4R 2303   5.753   3.070   2.826  0.4606  0.6543  1.0139
   18SAPS   H4S 2304   5.915   3.135   2.812 -3.3675  2.3899 -1.6235
   18SAPS   C25 2305   5.908   2.946   2.922 -0.2377  0.2519  0.2599
   18SAPS   H5R 2306   6.004   2.896   2.898  0.5691  1.1979  1.3832
   18SAPS   C26 2307   5.851   2.919   3.038 -0.4852  0.7549 -0.2686
   18SAPS   H6R 2308   5.904   2.848   3.103 -0.5465 -0.4002 -1.4371
   18SAPS   C27 2309   5.710   2.950   3.096 -0.0701  0.7404  0.1710
   18SAPS   H7R 2310   5.694   3.059   3.108 -3.1860  0.4087 -0.2841
   18SAPS   H7S 2311   5.699   2.898   3.193  0.4600 -2.8195 -1.5260
   18SAPS   C28 2312   5.599   2.888   3.010 -0.2409 -0.5210  0.3317
   18SAPS   H8R 2313   5.626   2.806   2.941 -2.7239 -0.2523 -1.0607
   18SAPS   C29 2314   5.487   2.946   2.978  0.3170  0.0345 -0.0200
   18SAPS   H9R 2315   5.435   2.893   2.897 -0.8119  0.9793  0.0633
   18SAPS  C210 2316   5.431   3.076   3.031  0.4162  0.0654  0.0470
   18SAPS  H10R 2317   5.457   3.080   3.139  0.5417 -2.5459  0.1738
   18SAPS  H10S 2318   5.321   3.079   3.014  0.5683  1.5049 -0.7884
   18SAPS  C211 2319   5.477   3.195   2.949 -0.3141  0.2293  0.4044
   18SAPS  H11R 2320   5.477   3.188   2.839 -1.5831  0.8693  0.3428
   18SAPS  C212 2321   5.514   3.314   3.001  0.3041  0.1388  0.0566
   18SAPS  H12R 2322   5.561   3.396   2.945  2.3549 -0.5644  0.6336
   18SAPS  C213 2323   5.509   3.349   3.147  0.1661  0.4034  1.2711
   18SAPS  H13R 2324   5.430   3.286   3.194 -0.3739 -0.0086 -0.1338
   18SAPS  H13S 2325   5.472   3.453   3.155  3.0445  1.5793  0.6148
   18SAPS  C214 2326   5.631   3.331   3.228 -0.5791  0.8488  0.0541
   18SAPS  H14R 2327   5.705   3.256   3.195 -0.5692  0.6346  0.5443
   18SAPS  C215 2328   5.670   3.401   3.329  0.3206 -0.0696  0.6792
   18SAPS  H15R 2329   5.759   3.360   3.379  1.7556  0.1628 -1.5353
   18SAPS  C216 2330   5.607   3.526   3.392 -0.3710 -0.6917  0.5473
   18SAPS  H16R 2331   5.512   3.553   3.340  1.3312  2.8739 -1.1020
   18SAPS  H16S 2332   5.674   3.614   3.377 -1.6390 -0.0112 -1.7071
   18SAPS  C217 2333   5.591   3.515   3.538  0.1982  0.4127  0.6684
   18SAPS  H17R 2334   5.686   3.490   3.588 -0.4494 -1.4947  1.0357
   18SAPS  H17S 2335   5.532   3.422   3.553 -1.5850  1.0392 -1.7412
   18SAPS  C218 2336   5.523   3.640   3.593  0.8481 -0.8820 -0.0518
   18SAPS  H18R 2337   5.416   3.655   3.567  0.3542 -2.2840  1.1038
   18SAPS  H18S 2338   5.567   3.727   3.538  1.2787 -0.8132  0.3926
   18SAPS  C219 2339   5.543   3.658   3.744  0.5544 -0.3083 -0.9741
   18SAPS  H19R 2340   5.514   3.763   3.768  0.1764 -0.2028 -1.8484
   18SAPS  H19S 2341   5.647   3.636   3.775  0.1765  0.4872  0.9900
   18SAPS  C220 2342   5.436   3.581   3.823  0.3047  0.3573  0.1243
   18SAPS  H20R 2343   5.437   3.620   3.927  2.2235 -0.2788  0.3857
   18SAPS  H20S 2344   5.454   3.472   3.830  0.5415  0.2729 -1.4382
   18SAPS  H20T 2345   5.336   3.590   3.774 -0.2262 -2.1996  0.6368
   18SAPS   C33 2346   5.604   2.323   2.605  0.6325 -0.5322 -0.3727
   18SAPS   H3X 2347   5.609   2.316   2.494  0.4474 -2.7233 -0.2823
   18SAPS   H3Y 2348   5.512   2.270   2.637  0.8300  0.4020  1.8782
   18SAPS   C34 2349   5.730   2.245   2.636 -1.2833 -0.6439 -0.7428
   18SAPS   H4X 2350   5.821   2.298   2.602 -0.6509 -1.3034 -0.1313
   18SAPS   H4Y 2351   5.720   2.162   2.563  0.2733 -0.2281 -1.4749
   18SAPS   C35 2352   5.734   2.194   2.779 -0.0079 -0.5412 -0.2805
   18SAPS   H5X 2353   5.760   2.277   2.850 -0.7007 -0.2979 -0.3027
   18SAPS   H5Y 2354   5.809   2.113   2.791  1.6695  1.1710  1.8057
   18SAPS   C36 2355   5.608   2.149   2.850  0.3660 -0.2182  1.0866
   18SAPS   H6X 2356   5.549   2.085   2.781  0.9186  0.5690 -0.1407
   18SAPS   H6Y 2357   5.546   2.238   2.873 -1.5539 -1.1442 -0.2812
   18SAPS   C37 2358   5.632   2.069   2.980 -0.6983 -0.3471  0.1986
   18SAPS   H7X 2359   5.717   1.999   2.964 -0.1355  0.4289 -0.3078
   18SAPS   H7Y 2360   5.550   1.997   3.003 -1.1687  0.3818  0.8772
   18SAPS   C38 2361   5.667   2.160   3.104  0.0955  0.3559 -0.6229
   18SAPS   H8X 2362   5.752   2.226   3.077  0.4116 -0.8924 -2.9281
   18SAPS   H8Y 2363   5.702   2.100   3.190  2.4584  0.9279 -1.1321
   18SAPS   C39 2364   5.546   2.247   3.148  0.6719  0.0348  0.2860
   18SAPS   H9X 2365   5.460   2.184   3.181 -0.0274  0.5976 -0.4082
   18SAPS   H9Y 2366   5.513   2.301   3.056  0.0839 -1.1369 -0.2166
   18SAPS  C310 2367   5.590   2.348   3.260 -0.0654 -0.7291 -0.0260
   18SAPS  H10X 2368   5.508   2.417   3.288  2.2998  2.8687 -1.2569
   18SAPS  H10Y 2369   5.655   2.422   3.209 -0.5517 -0.6667 -0.5606
   18SAPS  C311 2370   5.650   2.280   3.382  0.4016  0.1851  0.5473
   18SAPS  H11X 2371   5.685   2.355   3.455 -1.6195  0.1057  1.6819
   18SAPS  H11Y 2372   5.736   2.217   3.351 -1.2498 -0.5317 -3.2074
   18SAPS  C312 2373   5.538   2.185   3.441  0.3403 -0.1909 -0.1237
   18SAPS  H12X 2374   5.498   2.112   3.366 -3.3581  0.4508  0.9984
   18SAPS  H12Y 2375   5.455   2.250   3.476  0.3738  0.5477 -1.3713
   18SAPS  C313 2376   5.570   2.115   3.573 -0.9024 -0.5075 -0.9541
   18SAPS  H13X 2377   5.472   2.077   3.610 -1.6183  1.9537 -0.1370
   18SAPS  H13Y 2378   5.598   2.188   3.652 -1.6658  0.3437 -1.4453
   18SAPS  C314 2379   5.674   1.996   3.563 -0.4329 -0.1698 -0.1179
   18SAPS  H14X 2380   5.767   2.040   3.521  2.1030 -3.4537  1.5163
   18SAPS  H14Y 2381   5.641   1.931   3.479  1.8652  0.8267 -1.9299
   18SAPS  C315 2382   5.702   1.917   3.693  0.0191 -0.2839  0.0560
   18SAPS  H15X 2383   5.604   1.897   3.740 -1.1994  0.2461 -2.1549
   18SAPS  H15Y 2384   5.764   1.983   3.758  3.0666 -0.0783 -2.7914
   18SAPS  C316 2385   5.767   1.781   3.668  1.0374  0.2119 -0.4076
   18SAPS  H16X 2386   5.873   1.771   3.634  0.7865 -1.7668 -0.7449
   18SAPS  H16Y 2387   5.715   1.728   3.586  0.0717 -2.3286  1.7113
   18SAPS  C317 2388   5.761   1.685   3.790 -0.1896 -0.0118 -0.2811
   18SAPS  H17X 2389   5.757   1.579   3.757  0.8054 -1.1200  2.7628
   18SAPS  H17Y 2390   5.662   1.707   3.835 -0.2086 -0.6354 -0.0022
   18SAPS  C318 2391   5.873   1.700   3.895 -0.5709 -0.2731  0.2349
   18SAPS  H18X 2392   5.857   1.665   3.999  0.9546 -1.4386  0.1032
   18SAPS  H18Y 2393   5.898   1.808   3.893 -2.8716  0.3322 -1.5916
   18SAPS  H18Z 2394   5.966   1.646   3.867 -0.5596 -1.4436  2.3434
   19SAPS     N 2395   2.112   5.767   2.007 -0.7315 -0.4133 -0.7432
   19SAPS   HN1 2396   2.173   5.695   1.963  2.4404  0.8002  1.3244
   19SAPS   HN2 2397   2.074   5.834   1.937 -0.0468  1.0068  0.1915
   19SAPS   HN3 2398   2.166   5.818   2.080 -1.8433 -0.3808  0.0768
   19SAPS   C12 2399   1.983   5.719   2.071 -0.5019  0.2876 -0.1727
   19SAPS  H12A 2400   2.008   5.680   2.169  1.6509 -0.8408 -1.0873
   19SAPS   C13 2401   1.865   5.821   2.079  0.6873 -0.5354 -0.0108
   19SAPS  O13A 2402   1.885   5.929   2.027 -0.4449  0.1309  0.5180
   19SAPS  O13B 2403   1.747   5.791   2.128 -0.3911  0.0404 -0.1947
   19SAPS   C11 2404   1.922   5.593   2.006 -0.5055  0.6431  0.2751
   19SAPS  H11A 2405   1.899   5.628   1.903  0.8493  3.1001  0.7315
   19SAPS  H11B 2406   1.825   5.574   2.056 -1.5774  4.1107 -0.2350
   19SAPS     P 2407   2.018   5.375   2.103  0.4332 -0.0406  0.1398
   19SAPS   O13 2408   1.880   5.348   2.150 -0.3968 -0.4672  0.3686
   19SAPS   O14 2409   2.107   5.257   2.086  0.0816  0.3791 -0.1305
   19SAPS   O12 2410   2.012   5.479   1.987 -0.0853 -0.1516  0.0049
   19SAPS   O11 2411   2.088   5.449   2.223  0.3224 -0.3114  0.0331
   19SAPS    C1 2412   2.228   5.456   2.236  0.1747 -0.1409  0.9868
   19SAPS    HA 2413   2.279   5.444   2.137  0.0687  1.1734  0.7546
   19SAPS    HB 2414   2.265   5.558   2.259  0.7529  0.4636 -2.1316
   19SAPS    C2 2415   2.280   5.351   2.335  0.0104  0.0591  0.1612
   19SAPS    HS 2416   2.248   5.254   2.291  4.2717 -1.2492 -0.5500
   19SAPS   O21 2417   2.226   5.370   2.467 -0.0722 -0.3172  0.1585
   19SAPS   C21 2418   2.198   5.254   2.537 -0.2183 -0.1393  0.1537
   19SAPS   O22 2419   2.216   5.142   2.495  0.5493 -0.1603  0.0095
   19SAPS   C22 2420   2.153   5.291   2.678  0.9302  0.0313  0.4071
   19SAPS   H2R 2421   2.186   5.396   2.693 -1.1360  1.1126 -1.8428
   19SAPS   H2S 2422   2.042   5.288   2.682  0.9250  0.9782  1.4405
   19SAPS    C3 2423   2.434   5.353   2.342 -0.6299 -0.2344  0.2717
   19SAPS    HX 2424   2.464   5.451   2.383  0.0522 -0.3153 -0.0343
   19SAPS    HY 2425   2.470   5.331   2.239 -0.7286 -2.3113  0.6337
   19SAPS   O31 2426   2.494   5.272   2.444  0.7322  0.6688 -0.1123
   19SAPS   C31 2427   2.518   5.143   2.411  0.2653 -0.2804  0.1091
   19SAPS   O32 2428   2.485   5.084   2.313  0.3031  0.0653  0.2278
   19SAPS   C32 2429   2.607   5.078   2.516  0.3494 -0.3127  0.3882
   19SAPS   H2X 2430   2.703   5.132   2.523  0.7884 -1.0147 -0.1525
   19SAPS   H2Y 2431   2.634   4.977   2.479  3.2124  0.2679  0.6907
   19SAPS   C23 2432   2.213   5.195   2.775 -0.1120 -0.7664  0.5085
   19SAPS   H3R 2433   2.324   5.190   2.762 -0.0116  0.4211  0.7744
   19SAPS   H3S 2434   2.163   5.100   2.745 -0.3453 -0.8909  1.2603
   19SAPS   C24 2435   2.167   5.229   2.913 -0.4812  0.2480  0.3123
   19SAPS   H4R 2436   2.207   5.146   2.974  1.4080 -2.6229 -4.3054
   19SAPS   H4S 2437   2.057   5.219   2.924 -0.5242  1.2987  1.0124
   19SAPS   C25 2438   2.221   5.359   2.961  0.2490 -0.1691  0.4153
   19SAPS   H5R 2439   2.330   5.370   2.952  0.0178  1.2150 -1.2725
   19SAPS   C26 2440   2.149   5.460   3.011 -0.2885 -0.1310  0.5848
   19SAPS   H6R 2441   2.197   5.548   3.055 -0.6960 -0.5569  1.9420
   19SAPS   C27 2442   1.996   5.483   3.016 -0.5414 -0.4505 -0.4162
   19SAPS   H7R 2443   1.952   5.534   3.104 -0.7502 -0.9829 -0.2070
   19SAPS   H7S 2444   1.945   5.385   3.011 -0.3292 -0.7470  1.8821
   19SAPS   C28 2445   1.966   5.559   2.886  0.7039 -0.1186  1.0790
   19SAPS   H8R 2446   2.026   5.528   2.799 -1.0839 -0.2105 -0.1816
   19SAPS   C29 2447   1.869   5.648   2.866  0.4204 -0.6134 -0.0314
   19SAPS   H9R 2448   1.866   5.697   2.768  1.5772  0.4990  0.4584
   19SAPS  C210 2449   1.780   5.714   2.965 -0.3278 -0.6096  0.0937
   19SAPS  H10R 2450   1.775   5.823   2.942  1.2241 -0.3070  1.0762
   19SAPS  H10S 2451   1.832   5.719   3.063  0.8221 -0.2427 -0.5280
   19SAPS  C211 2452   1.634   5.667   2.976  0.1567 -0.6868 -0.5921
   19SAPS  H11R 2453   1.581   5.641   2.883 -2.1127  1.7482 -0.1076
   19SAPS  C212 2454   1.559   5.663   3.089  0.7635 -0.1561  0.1422
   19SAPS  H12R 2455   1.459   5.617   3.085  1.3357 -1.3961 -1.3881
   19SAPS  C213 2456   1.605   5.691   3.226 -0.0387  0.6904 -0.2263
   19SAPS  H13R 2457   1.518   5.716   3.290 -0.0566 -0.6490  0.3104
   19SAPS  H13S 2458   1.657   5.790   3.225 -0.4125  0.9298 -2.7140
   19SAPS  C214 2459   1.687   5.578   3.278 -0.1463 -0.6150 -0.3618
   19SAPS  H14R 2460   1.750   5.529   3.203 -0.0652  1.0065 -1.4129
   19SAPS  C215 2461   1.690   5.530   3.406 -0.4883 -0.0787 -0.4929
   19SAPS  H15R 2462   1.759   5.448   3.431  2.3178  1.7353 -1.7293
   19SAPS  C216 2463   1.592   5.581   3.507  0.2632 -0.0667 -0.5408
   19SAPS  H16R 2464   1.500   5.627   3.464  0.5283  0.6385 -0.3677
   19SAPS  H16S 2465   1.637   5.665   3.564  3.7635 -0.9614 -1.7479
   19SAPS  C217 2466   1.542   5.470   3.607  0.4733  0.3415  0.0122
   19SAPS  H17R 2467   1.637   5.426   3.643  0.2426  0.9511  1.4676
   19SAPS  H17S 2468   1.482   5.400   3.546  0.6113 -0.1996  0.4890
   19SAPS  C218 2469   1.451   5.522   3.721  0.4269  0.1940 -0.6669
   19SAPS  H18R 2470   1.380   5.599   3.683  1.6158  1.4888 -0.3714
   19SAPS  H18S 2471   1.516   5.567   3.799  2.2353 -0.8346 -1.5302
   19SAPS  C219 2472   1.362   5.428   3.811 -0.5916  0.6830  0.5507
   19SAPS  H19R 2473   1.425   5.342   3.840  0.2811  0.6148 -1.3962
   19SAPS  H19S 2474   1.291   5.384   3.738  1.8238  0.9049 -2.1382
   19SAPS  C220 2475   1.295   5.494   3.925 -0.3061  0.0697  0.1838
   19SAPS  H20R 2476   1.260   5.413   3.992  2.3279 -0.8884  0.4969
   19SAPS  H20S 2477   1.213   5.559   3.887 -2.3418 -1.6949  1.3075
   19SAPS  H20T 2478   1.364   5.565   3.976 -0.9654  1.9164 -1.3693
   19SAPS   C33 2479   2.538   5.065   2.652 -1.1578  0.6475  0.1280
   19SAPS   H3X 2480   2.434   5.028   2.642 -1.8660  2.8189 -1.6265
   19SAPS   H3Y 2481   2.530   5.162   2.706 -2.6022  0.0324  1.0992
   19SAPS   C34 2482   2.620   4.964   2.735 -0.4405  0.4852  0.1266
   19SAPS   H4X 2483   2.723   5.005   2.747 -1.4092  2.8368  1.0619
   19SAPS   H4Y 2484   2.616   4.874   2.671 -4.4870  0.4268  0.2222
   19SAPS   C35 2485   2.562   4.930   2.873 -0.3092 -0.2035  0.4272
   19SAPS   H5X 2486   2.636   4.862   2.919  1.0463  0.5710 -0.5398
   19SAPS   H5Y 2487   2.468   4.873   2.857 -1.9295  2.5901 -0.7813
   19SAPS   C36 2488   2.526   5.056   2.965 -0.1731 -0.6402 -0.6331
   19SAPS   H6X 2489   2.466   5.134   2.913 -0.5340 -0.5715 -0.1193
   19SAPS   H6Y 2490   2.620   5.085   3.016 -0.0394  0.5739 -1.5092
   19SAPS   C37 2491   2.435   5.010   3.081  0.2422 -0.7984  0.6397
   19SAPS   H7X 2492   2.333   5.002   3.036  0.6784  0.4599 -0.6471
   19SAPS   H7Y 2493   2.423   5.100   3.145 -2.2425 -1.1856  0.8274
   19SAPS   C38 2494   2.479   4.878   3.147 -0.0560  0.1811  0.1493
   19SAPS   H8X 2495   2.588   4.889   3.161  0.5683  1.3157 -4.0647
   19SAPS   H8Y 2496   2.475   4.798   3.069  0.9414  0.5060 -0.2581
   19SAPS   C39 2497   2.394   4.849   3.267 -0.5534  0.1271 -0.0344
   19SAPS   H9X 2498   2.380   4.739   3.273 -1.4765  0.2927  1.6101
   19SAPS   H9Y 2499   2.298   4.902   3.252 -0.0895  1.4426  1.3183
   19SAPS  C310 2500   2.461   4.910   3.393  0.3677 -0.5616 -0.9931
   19SAPS  H10X 2501   2.492   5.014   3.369  1.1688 -0.7831 -0.9398
   19SAPS  H10Y 2502   2.552   4.846   3.394 -0.9565 -2.5318 -1.1639
   19SAPS  C311 2503   2.381   4.886   3.524 -0.4746  0.2456 -0.2086
   19SAPS  H11X 2504   2.356   4.778   3.530 -1.8871  0.5742  0.0820
   19SAPS  H11Y 2505   2.280   4.929   3.510 -0.3292  0.3187 -1.1231
   19SAPS  C312 2506   2.446   4.931   3.662  0.4404 -0.5716 -0.6596
   19SAPS  H12X 2507   2.469   5.039   3.653 -2.2669 -0.0557 -2.1150
   19SAPS  H12Y 2508   2.538   4.868   3.654  0.6332 -0.0553 -3.1924
   19SAPS  C313 2509   2.356   4.890   3.784 -0.1955 -0.5924 -0.4712
   19SAPS  H13X 2510   2.349   4.780   3.778  0.1744 -0.6052 -0.7230
   19SAPS  H13Y 2511   2.263   4.947   3.763  0.3344 -0.0498 -1.4563
   19SAPS  C314 2512   2.398   4.940   3.925 -0.1797  0.4371  0.0326
   19SAPS  H14X 2513   2.461   5.031   3.917  0.8544 -0.2818 -0.2054
   19SAPS  H14Y 2514   2.459   4.865   3.980 -0.4500  1.4015  1.7097
   19SAPS  C315 2515   2.273   4.965   4.017 -0.2457  0.3425 -0.4839
   19SAPS  H15X 2516   2.204   5.038   3.970 -0.1303  0.6914 -0.1144
   19SAPS  H15Y 2517   2.312   4.987   4.119  1.0443 -2.8017 -0.1670
   19SAPS  C316 2518   2.206   4.832   4.043  0.5647  0.4543 -0.8129
   19SAPS  H16X 2519   2.288   4.757   4.029  0.1605 -0.1335 -0.0843
   19SAPS  H16Y 2520   2.135   4.806   3.961  0.7502 -1.1613 -0.5117
   19SAPS  C317 2521   2.125   4.829   4.178  0.0131  0.8565 -0.3204
   19SAPS  H17X 2522   2.207   4.820   4.253  1.3223  0.0672 -1.7680
   19SAPS  H17Y 2523   2.070   4.732   4.178  0.7381  0.4318  0.2406
   19SAPS  C318 2524   2.033   4.946   4.205  0.2063 -0.0419  0.0013
   19SAPS  H18X 2525   2.071   4.993   4.298 -1.6718  0.6984  0.4465
   19SAPS  H18Y 2526   1.928   4.921   4.234 -0.1841 -0.1334 -1.4143
   19SAPS  H18Z 2527   2.027   5.024   4.127  0.2024 -1.8008 -1.8525
   20SAPS     N 2528   4.369   0.058   1.833  0.1120  0.3222  0.1736
   20SAPS   HN1 2529   4.312   0.089   1.751  0.9938 -1.3214 -1.1352
   20SAPS   HN2 2530   4.461   0.105   1.831  0.2733  0.0682  1.0933
   20SAPS   HN3 2531   4.398  -0.041   1.819 -2.0331 -0.0896 -2.1612
   20SAPS   C12 2532   4.304   0.070   1.965  0.0688  0.0413 -0.3878
   20SAPS  H12A 2533   4.277   0.174   1.981 -0.3711 -0.3169  1.3471
   20SAPS   C13 2534   4.175  -0.015   1.990  0.7407 -0.6128  0.6231
   20SAPS  O13A 2535   4.133  -0.089   1.897 -0.0655 -0.4938 -0.0543
   20SAPS  O13B 2536   4.115  -0.012   2.100 -0.3005  0.3619  0.3869
   20SAPS   C11 2537   4.411   0.035   2.075  0.0373 -0.0163 -0.2129
   20SAPS  H11A 2538   4.420  -0.074   2.062  1.0471  0.1024 -0.5351
   20SAPS  H11B 2539   4.366   0.070   2.171  0.1388 -1.5317  0.4107
   20SAPS     P 2540   4.666   0.048   2.084 -0.1655 -0.1705 -0.2463
   20SAPS   O13 2541   4.682  -0.075   2.002  0.0003  0.1062  0.0772
   20SAPS   O14 2542   4.774   0.148   2.080 -0.0966 -0.8118  0.1972
   20SAPS   O12 2543   4.530   0.112   2.054 -0.9816  0.3509 -0.0919
   20SAPS   O11 2544   4.639  -0.005   2.235  0.4929  0.0110  0.7700
   20SAPS    C1 2545   4.630   0.099   2.334 -0.3780 -1.2601  0.0539
   20SAPS    HA 2546   4.727   0.136   2.375  0.3683  0.1003 -2.6399
   20SAPS    HB 2547   4.597   0.191   2.280 -1.2143 -2.1770 -1.0274
   20SAPS    C2 2548   4.522   0.072   2.434  0.2176  0.9255 -0.3742
   20SAPS    HS 2549   4.440   0.026   2.375  0.6680  0.4519 -0.6389
   20SAPS   O21 2550   4.498   0.200   2.490 -0.0499 -0.0824  0.3359
   20SAPS   C21 2551   4.381   0.209   2.555 -0.5615  0.4746  0.3140
   20SAPS   O22 2552   4.280   0.152   2.518 -0.1534 -0.0711  0.1450
   20SAPS   C22 2553   4.408   0.301   2.682  0.7195 -0.1628  0.1412
   20SAPS   H2R 2554   4.415   0.411   2.669  0.4803 -0.2283 -0.6004
   20SAPS   H2S 2555   4.317   0.285   2.744 -1.6197  0.4397 -2.8753
   20SAPS    C3 2556   4.564  -0.033   2.541 -0.1449  0.1830  0.4129
   20SAPS    HX 2557   4.649   0.017   2.591  0.4945  0.6849 -1.1041
   20SAPS    HY 2558   4.590  -0.128   2.491 -1.1205 -1.8187  3.4648
   20SAPS   O31 2559   4.459  -0.060   2.640  0.4681 -0.3766  0.0320
   20SAPS   C31 2560   4.493  -0.126   2.743  0.1220 -0.0987  1.0150
   20SAPS   O32 2561   4.607  -0.174   2.753  0.4950 -0.5425  0.7422
   20SAPS   C32 2562   4.381  -0.150   2.839 -0.1570 -0.2325 -0.1508
   20SAPS   H2X 2563   4.294  -0.184   2.777 -0.1168  1.1399 -1.0062
   20SAPS   H2Y 2564   4.340  -0.054   2.877  0.0179 -0.4201  0.5235
   20SAPS   C23 2565   4.529   0.255   2.769 -0.4916  0.2692  0.5429
   20SAPS   H3R 2566   4.625   0.300   2.737  0.3729 -1.6917  0.2097
   20SAPS   H3S 2567   4.543   0.145   2.767 -2.5409 -0.1195  2.6726
   20SAPS   C24 2568   4.519   0.293   2.925 -0.4690 -0.0664 -0.1241
   20SAPS   H4R 2569   4.496   0.402   2.922  2.0574  0.5614  0.9315
   20SAPS   H4S 2570   4.619   0.267   2.965 -0.1825  0.2128 -0.6477
   20SAPS   C25 2571   4.411   0.216   2.993 -0.3128 -0.4343 -0.9167
   20SAPS   H5R 2572   4.327   0.174   2.935 -1.8908  0.8140  0.3675
   20SAPS   C26 2573   4.403   0.210   3.128  0.9944  0.4842  0.2838
   20SAPS   H6R 2574   4.322   0.154   3.177 -0.0803  1.6170 -0.1317
   20SAPS   C27 2575   4.498   0.283   3.221 -0.1010 -0.5098  0.2281
   20SAPS   H7R 2576   4.463   0.386   3.241  3.0817  0.5847  0.7342
   20SAPS   H7S 2577   4.598   0.295   3.175 -1.2223 -1.5247 -2.6899
   20SAPS   C28 2578   4.512   0.220   3.357 -0.2878  1.2402  0.2291
   20SAPS   H8R 2579   4.613   0.187   3.383 -0.8211  0.1446  0.9928
   20SAPS   C29 2580   4.422   0.216   3.455  0.1361 -0.3807  0.1786
   20SAPS   H9R 2581   4.454   0.168   3.548  0.1138 -0.5416  0.1025
   20SAPS  C210 2582   4.287   0.279   3.465 -1.0230 -0.2253  0.1435
   20SAPS  H10R 2583   4.234   0.198   3.520 -0.1275 -1.0819 -0.2284
   20SAPS  H10S 2584   4.241   0.293   3.365  0.0278 -0.6289 -0.4088
   20SAPS  C211 2585   4.296   0.415   3.535 -0.1666 -0.4937 -0.2978
   20SAPS  H11R 2586   4.333   0.489   3.463 -2.9939 -1.4921 -2.9540
   20SAPS  C212 2587   4.276   0.437   3.662  1.2147 -1.1428  0.5175
   20SAPS  H12R 2588   4.271   0.542   3.692 -0.5327 -0.5114 -1.6598
   20SAPS  C213 2589   4.239   0.332   3.768  0.1940 -0.3931 -0.1548
   20SAPS  H13R 2590   4.323   0.328   3.840  1.7036 -2.4050 -1.8966
   20SAPS  H13S 2591   4.235   0.228   3.728  0.4692 -0.4299 -0.0859
   20SAPS  C214 2592   4.106   0.360   3.829  0.3828 -0.4183 -0.9867
   20SAPS  H14R 2593   4.029   0.375   3.753 -1.0989 -1.3933  0.2672
   20SAPS  C215 2594   4.074   0.345   3.960 -0.3563  0.0115 -0.0375
   20SAPS  H15R 2595   3.969   0.363   3.987 -0.7193 -1.0182 -0.7036
   20SAPS  C216 2596   4.151   0.324   4.087  0.4170 -0.1070 -0.1070
   20SAPS  H16R 2597   4.215   0.233   4.079  0.6644  0.0871 -0.3669
   20SAPS  H16S 2598   4.088   0.297   4.174 -0.1893 -0.1394 -0.5458
   20SAPS  C217 2599   4.217   0.455   4.135 -0.0019  0.0909 -0.8429
   20SAPS  H17R 2600   4.256   0.508   4.046 -2.2729 -0.0228 -1.9781
   20SAPS  H17S 2601   4.292   0.417   4.208 -0.5511  0.9869  0.2123
   20SAPS  C218 2602   4.109   0.547   4.200 -1.3076 -0.2993  0.6759
   20SAPS  H18R 2603   4.030   0.572   4.126  0.8348 -0.1925 -1.6708
   20SAPS  H18S 2604   4.146   0.649   4.224  0.1730 -0.5184 -0.5546
   20SAPS  C219 2605   4.036   0.497   4.330  0.0763  0.0065 -0.3974
   20SAPS  H19R 2606   4.112   0.468   4.406  0.2128 -0.7220 -0.8018
   20SAPS  H19S 2607   3.981   0.407   4.294 -0.4109  1.1457 -2.7093
   20SAPS  C220 2608   3.934   0.597   4.391 -0.0379 -0.1973 -0.2762
   20SAPS  H20R 2609   3.842   0.579   4.331  1.7060  0.7403 -3.4425
   20SAPS  H20S 2610   3.972   0.701   4.387  0.5558 -0.4223 -0.6659
   20SAPS  H20T 2611   3.917   0.559   4.494  2.5597  0.8273  0.5907
   20SAPS   C33 2612   4.420  -0.243   2.954  0.4613  0.1164 -1.0829
   20SAPS   H3X 2613   4.531  -0.243   2.968  0.2074  0.0917  1.2536
   20SAPS   H3Y 2614   4.377  -0.342   2.928  0.3062  0.2960 -1.5148
   20SAPS   C34 2615   4.363  -0.196   3.089 -0.7366 -0.0867 -0.3389
   20SAPS   H4X 2616   4.254  -0.175   3.092 -0.5935  0.9827  4.2366
   20SAPS   H4Y 2617   4.410  -0.098   3.110 -0.2548 -0.2252 -0.7355
   20SAPS   C35 2618   4.394  -0.288   3.207 -0.0528  0.2404 -0.0096
   20SAPS   H5X 2619   4.501  -0.278   3.236  0.2192 -2.4388  0.1519
   20SAPS   H5Y 2620   4.371  -0.391   3.171 -0.9032  0.3094  0.3180
   20SAPS   C36 2621   4.303  -0.279   3.328  0.0481 -0.2476 -0.3217
   20SAPS   H6X 2622   4.338  -0.364   3.391  2.1218 -0.5179 -1.7357
   20SAPS   H6Y 2623   4.197  -0.301   3.302 -0.4017  0.2106  1.0246
   20SAPS   C37 2624   4.327  -0.156   3.412 -0.5925 -0.3977 -0.1106
   20SAPS   H7X 2625   4.267  -0.074   3.369  1.6442  2.0333  1.1259
   20SAPS   H7Y 2626   4.432  -0.119   3.416 -1.4924  2.2908  0.7061
   20SAPS   C38 2627   4.290  -0.181   3.556 -0.0349 -0.0203  0.0962
   20SAPS   H8X 2628   4.188  -0.222   3.564  0.1525 -0.6173 -0.4433
   20SAPS   H8Y 2629   4.289  -0.082   3.607 -0.1511  0.6989 -1.2543
   20SAPS   C39 2630   4.392  -0.263   3.634 -0.3009 -0.2131  0.1864
   20SAPS   H9X 2631   4.490  -0.211   3.629 -0.7281  0.6119  0.1862
   20SAPS   H9Y 2632   4.393  -0.369   3.600  0.1025 -0.6520  1.5103
   20SAPS  C310 2633   4.348  -0.262   3.773  0.3584  0.3229  0.1924
   20SAPS  H10X 2634   4.319  -0.159   3.804  0.5088  0.3446  0.2605
   20SAPS  H10Y 2635   4.423  -0.299   3.845  0.2899  1.7288  1.0257
   20SAPS  C311 2636   4.233  -0.362   3.794 -0.0246 -0.9711 -0.2743
   20SAPS  H11X 2637   4.260  -0.464   3.757  1.0397 -0.1730 -1.8038
   20SAPS  H11Y 2638   4.143  -0.319   3.746  0.5378  1.2418  0.5482
   20SAPS  C312 2639   4.204  -0.375   3.942  0.1346  0.2367  0.3227
   20SAPS  H12X 2640   4.164  -0.278   3.978  0.0183  0.2916  0.0501
   20SAPS  H12Y 2641   4.301  -0.402   3.989  0.3581 -1.3198 -0.9501
   20SAPS  C313 2642   4.091  -0.474   3.978 -0.3874 -0.4183 -0.0146
   20SAPS  H13X 2643   4.104  -0.579   3.946 -0.4347 -0.2931 -0.4499
   20SAPS  H13Y 2644   3.996  -0.438   3.934 -0.3955  2.4149  2.0192
   20SAPS  C314 2645   4.067  -0.479   4.133  0.7134 -0.0378 -0.2550
   20SAPS  H14X 2646   4.029  -0.383   4.172  1.6171 -0.1689  1.0172
   20SAPS  H14Y 2647   4.162  -0.490   4.190 -0.0121 -0.2248  0.9438
   20SAPS  C315 2648   3.968  -0.587   4.187  0.3490  0.8342 -0.9460
   20SAPS  H15X 2649   4.010  -0.683   4.150  3.7469  1.1369  1.6653
   20SAPS  H15Y 2650   3.868  -0.575   4.140 -0.6183  0.0935  0.8511
   20SAPS  C316 2651   3.958  -0.588   4.342  0.0018  0.6033  0.5827
   20SAPS  H16X 2652   3.871  -0.525   4.372 -1.9481 -0.5199 -2.3392
   20SAPS  H16Y 2653   4.053  -0.544   4.380  0.1115  0.4838  0.4469
   20SAPS  C317 2654   3.929  -0.729   4.401 -0.2559  0.5327  0.9317
   20SAPS  H17X 2655   3.998  -0.808   4.367 -0.8419  0.5906 -0.4342
   20SAPS  H17Y 2656   3.827  -0.766   4.379  0.5347 -2.6292  2.1067
   20SAPS  C318 2657   3.920  -0.727   4.553  0.2105 -0.4372  0.2744
   20SAPS  H18X 2658   3.881  -0.823   4.593 -1.5154 -1.0212 -2.5587
   20SAPS  H18Y 2659   3.844  -0.653   4.588 -0.4477 -1.0833  0.2508
   20SAPS  H18Z 2660   4.009  -0.701   4.613  0.3640  2.0196 -0.9146
   21CHL1    C3 2661   2.400   0.932   5.534 -0.0497 -0.4054 -0.1714
   21CHL1    H3 2662   2.316   0.986   5.485 -0.4991  1.6091  2.5904
   21CHL1    O3 2663   2.390   0.949   5.675 -0.6293 -0.2855  0.0210
   21CHL1   H3' 2664   2.478   0.967   5.709 -0.5461 -0.4352 -0.1134
   21CHL1    C4 2665   2.375   0.790   5.494  0.0474 -0.5495 -0.0795
   21CHL1   H4A 2666   2.437   0.717   5.550  1.9599  0.9832 -0.0929
   21CHL1   H4B 2667   2.280   0.750   5.535 -0.7732  1.1465 -0.2290
   21CHL1    C5 2668   2.384   0.772   5.351 -0.3116  0.0620  0.1604
   21CHL1    C6 2669   2.275   0.732   5.285 -0.1383  0.3224  0.0577
   21CHL1    H6 2670   2.181   0.710   5.338 -0.4313  0.7739 -0.2691
   21CHL1    C7 2671   2.267   0.702   5.139  0.4288  0.7161 -0.2960
   21CHL1   H7A 2672   2.215   0.607   5.117 -1.1000  0.4135  3.8315
   21CHL1   H7B 2673   2.222   0.791   5.091  0.6794  1.0749  0.1231
   21CHL1    C8 2674   2.415   0.692   5.071  0.2753  0.1594  0.4240
   21CHL1    H8 2675   2.459   0.594   5.100  0.7163  0.5466  1.0802
   21CHL1   C14 2676   2.415   0.701   4.925 -0.4596  0.0858 -0.0773
   21CHL1   H14 2677   2.369   0.800   4.909 -1.3426 -0.1387  0.9202
   21CHL1   C15 2678   2.317   0.602   4.849  0.2711 -0.4847 -0.3793
   21CHL1  H15A 2679   2.346   0.501   4.886 -0.6445 -1.0618 -1.2157
   21CHL1  H15B 2680   2.208   0.619   4.857  0.5370  3.0997 -2.4037
   21CHL1   C16 2681   2.364   0.600   4.707  0.1921 -0.2674 -0.3641
   21CHL1  H16A 2682   2.401   0.496   4.693  0.6276 -0.2959  0.8867
   21CHL1  H16B 2683   2.288   0.622   4.629  0.1336 -1.0037 -0.5251
   21CHL1   C17 2684   2.486   0.700   4.702  0.6606 -0.1275 -0.3130
   21CHL1   H17 2685   2.432   0.797   4.704 -0.9560 -1.0031  2.3390
   21CHL1   C13 2686   2.544   0.703   4.847 -0.0412 -0.0867  0.5721
   21CHL1   C18 2687   2.622   0.574   4.874 -0.1648 -0.1548  0.1688
   21CHL1  H18A 2688   2.638   0.556   4.982  0.4496  0.4761  0.1879
   21CHL1  H18B 2689   2.568   0.483   4.840 -0.4331 -1.1712  3.0385
   21CHL1  H18C 2690   2.725   0.578   4.831  0.4684 -0.1418  1.6227
   21CHL1   C12 2691   2.622   0.823   4.888 -0.9281  0.1224 -0.0692
   21CHL1  H12A 2692   2.723   0.827   4.842 -1.7034  1.4496 -1.8093
   21CHL1  H12B 2693   2.567   0.913   4.851 -0.1590  0.1210 -1.2988
   21CHL1   C11 2694   2.637   0.830   5.042  0.2047 -0.0172 -0.1784
   21CHL1  H11A 2695   2.704   0.748   5.075 -0.5216 -0.6428 -0.2252
   21CHL1  H11B 2696   2.688   0.923   5.075 -0.0122  1.0926 -2.7201
   21CHL1    C9 2697   2.499   0.811   5.121 -0.0998 -0.1627  0.3220
   21CHL1    H9 2698   2.441   0.903   5.099  0.6242  0.1023 -0.5408
   21CHL1   C10 2699   2.519   0.811   5.277  0.2376 -0.6516  1.2081
   21CHL1   C19 2700   2.635   0.721   5.322  0.4238  0.8528  0.1004
   21CHL1  H19A 2701   2.616   0.614   5.298  0.8887  1.5128 -3.7752
   21CHL1  H19B 2702   2.734   0.753   5.285  0.5996  0.3420  0.1210
   21CHL1  H19C 2703   2.638   0.710   5.433  1.6496 -0.9170 -0.0643
   21CHL1    C1 2704   2.547   0.962   5.324 -0.2257  0.5811 -0.2240
   21CHL1   H1A 2705   2.652   0.987   5.296 -0.9185  1.0831 -2.5917
   21CHL1   H1B 2706   2.488   1.032   5.261 -0.7287  0.8335  0.5023
   21CHL1    C2 2707   2.533   0.990   5.474  0.9512 -0.3202  0.0855
   21CHL1   H2A 2708   2.528   1.094   5.513 -1.8057  0.1687 -1.3315
   21CHL1   H2B 2709   2.614   0.944   5.536  0.4006 -2.6086 -0.7922
   21CHL1   C20 2710   2.585   0.693   4.581  0.5611 -0.3356 -0.5936
   21CHL1   H20 2711   2.681   0.739   4.612  1.0274  0.3208 -2.7938
   21CHL1   C21 2712   2.542   0.783   4.465  0.2342  0.7481  0.0505
   21CHL1  H21A 2713   2.635   0.808   4.410  2.7206 -3.0970  1.9903
   21CHL1  H21B 2714   2.499   0.875   4.509 -2.5330 -1.2266  1.7937
   21CHL1  H21C 2715   2.461   0.726   4.415  2.7754 -0.6802 -2.7862
   21CHL1   C22 2716   2.610   0.549   4.540 -0.2653 -0.0818 -0.4172
   21CHL1  H22A 2717   2.647   0.491   4.627  0.8176  2.0502  0.6236
   21CHL1  H22B 2718   2.510   0.512   4.508 -0.7581 -1.3582  2.3240
   21CHL1   C23 2719   2.715   0.533   4.426  0.1429  0.3008  0.5074
   21CHL1  H23A 2720   2.679   0.583   4.333  2.4797  1.7884  0.3181
   21CHL1  H23B 2721   2.804   0.592   4.456  1.0341 -0.3779 -0.7254
   21CHL1   C24 2722   2.769   0.389   4.386  0.2575 -0.4147  0.2641
   21CHL1  H24A 2723   2.850   0.417   4.315 -1.3078  2.2540 -0.6004
   21CHL1  H24B 2724   2.814   0.336   4.474 -0.1640 -0.5330  0.4104
   21CHL1   C25 2725   2.666   0.288   4.327 -0.2846  0.3883 -0.3769
   21CHL1   H25 2726   2.590   0.265   4.404 -0.9296  3.5306  0.0480
   21CHL1   C26 2727   2.599   0.341   4.202  0.7592  0.5972 -0.4015
   21CHL1  H26A 2728   2.534   0.428   4.227  0.8477  0.7334 -0.6390
   21CHL1  H26B 2729   2.675   0.375   4.128  0.4736 -0.9601 -1.4550
   21CHL1  H26C 2730   2.525   0.274   4.154  1.0822 -0.4300  0.4978
   21CHL1   C27 2731   2.747   0.154   4.304 -0.8799  0.9722 -0.1804
   21CHL1  H27A 2732   2.800   0.122   4.396  0.2241  0.8849 -0.8366
   21CHL1  H27B 2733   2.685   0.065   4.279 -0.5600  1.0229 -1.2229
   21CHL1  H27C 2734   2.817   0.183   4.222  0.2783  1.0641  0.8241
   22CHL1    C3 2735   5.115   2.551   5.842 -0.5112  0.6024 -0.6077
   22CHL1    H3 2736   5.011   2.511   5.839 -0.7495  1.2604 -3.0168
   22CHL1    O3 2737   5.150   2.581   5.976  0.7019 -0.5714 -0.2307
   22CHL1   H3' 2738   5.242   2.603   5.959  0.2871  0.3451 -1.4362
   22CHL1    C4 2739   5.207   2.441   5.787 -0.2704 -0.2692  0.2889
   22CHL1   H4A 2740   5.310   2.483   5.797  1.1321 -2.7814 -2.1276
   22CHL1   H4B 2741   5.208   2.360   5.863  1.2485 -0.3902  0.1794
   22CHL1    C5 2742   5.171   2.398   5.646  0.5115  0.7371  0.0241
   22CHL1    C6 2743   5.142   2.272   5.603  0.8229  0.0335  0.1666
   22CHL1    H6 2744   5.148   2.193   5.679  0.7904 -0.6948 -0.5711
   22CHL1    C7 2745   5.132   2.234   5.461  0.2883 -0.2195 -0.2745
   22CHL1   H7A 2746   5.195   2.147   5.431 -1.0511 -1.6743  0.8946
   22CHL1   H7B 2747   5.027   2.201   5.441 -0.2051  1.3263 -0.3678
   22CHL1    C8 2748   5.166   2.346   5.363  0.2680 -0.0435 -0.2402
   22CHL1    H8 2749   5.277   2.348   5.353  0.2716  2.3339 -0.4160
   22CHL1   C14 2750   5.094   2.311   5.231 -0.5603 -0.1595  0.3333
   22CHL1   H14 2751   4.986   2.314   5.257 -1.7758 -4.0553 -3.2037
   22CHL1   C15 2752   5.111   2.170   5.179  0.1221  0.4371  0.5241
   22CHL1  H15A 2753   5.217   2.149   5.154 -0.4749 -1.4507 -0.6341
   22CHL1  H15B 2754   5.072   2.090   5.246 -2.3065 -0.5774 -1.9284
   22CHL1   C16 2755   5.021   2.173   5.054 -0.7445  0.0460  0.7955
   22CHL1  H16A 2756   5.063   2.096   4.985  0.6699  2.0749 -0.7173
   22CHL1  H16B 2757   4.919   2.139   5.081 -1.3662  1.8927  0.8898
   22CHL1   C17 2758   5.014   2.319   5.009 -0.1658 -0.4349  0.2013
   22CHL1   H17 2759   4.911   2.356   5.026 -0.4626  0.1655 -2.4706
   22CHL1   C13 2760   5.104   2.406   5.113  0.1421 -0.1934 -0.7469
   22CHL1   C18 2761   5.244   2.415   5.053 -0.7550 -0.2251  0.2536
   22CHL1  H18A 2762   5.321   2.433   5.131  0.2928 -1.0752 -0.5576
   22CHL1  H18B 2763   5.263   2.319   5.000 -1.8953 -0.7869  0.8137
   22CHL1  H18C 2764   5.238   2.495   4.977 -1.4124  1.9456  2.4665
   22CHL1   C12 2765   5.057   2.546   5.168 -0.0291  0.0238 -0.7642
   22CHL1  H12A 2766   5.062   2.613   5.079 -6.3465  0.3869 -1.2758
   22CHL1  H12B 2767   4.949   2.548   5.192  0.3521 -1.3908  1.2739
   22CHL1   C11 2768   5.131   2.591   5.296  0.1909  0.0141  0.1097
   22CHL1  H11A 2769   5.236   2.609   5.264 -0.0192  2.4112  0.6166
   22CHL1  H11B 2770   5.080   2.687   5.319 -0.2182  0.4864 -2.4975
   22CHL1    C9 2771   5.120   2.483   5.412 -1.0687 -0.5128 -0.5244
   22CHL1    H9 2772   5.010   2.469   5.426 -1.1219 -0.9280 -1.2587
   22CHL1   C10 2773   5.177   2.517   5.553 -0.7894 -0.5488  0.3973
   22CHL1   C19 2774   5.325   2.553   5.520 -0.3852 -0.1149  0.1195
   22CHL1  H19A 2775   5.332   2.644   5.456  1.0776 -1.9406 -2.4804
   22CHL1  H19B 2776   5.370   2.573   5.620  0.9559 -0.9319 -0.2936
   22CHL1  H19C 2777   5.388   2.473   5.474 -0.0592  0.0943  0.1946
   22CHL1    C1 2778   5.103   2.641   5.610 -0.1212 -0.0734  0.5718
   22CHL1   H1A 2779   5.115   2.721   5.534  1.8303  1.1810  2.1120
   22CHL1   H1B 2780   4.994   2.628   5.594  0.0524  0.5507 -1.3541
   22CHL1    C2 2781   5.128   2.681   5.758 -0.6446 -0.0688  0.0008
   22CHL1   H2A 2782   5.060   2.767   5.774 -0.8671 -0.2477  0.0137
   22CHL1   H2B 2783   5.230   2.724   5.759 -0.8310  0.5150 -2.1009
   22CHL1   C20 2784   5.015   2.350   4.857 -0.0687  1.1531 -0.7363
   22CHL1   H20 2785   5.119   2.330   4.823 -0.7862 -3.3931 -0.8279
   22CHL1   C21 2786   4.963   2.500   4.845 -0.4360 -0.7730 -0.5599
   22CHL1  H21A 2787   4.859   2.508   4.883 -1.2379  0.0742 -2.7478
   22CHL1  H21B 2788   4.957   2.535   4.740  2.5431 -0.0307 -0.5564
   22CHL1  H21C 2789   5.030   2.572   4.896  0.6096 -2.0120 -0.1411
   22CHL1   C22 2790   4.939   2.242   4.785  0.2611 -0.0078 -0.8155
   22CHL1  H22A 2791   4.987   2.143   4.779 -0.8151 -0.5442 -0.7806
   22CHL1  H22B 2792   4.838   2.233   4.830 -0.4816  0.1882 -2.3814
   22CHL1   C23 2793   4.919   2.291   4.643  0.8086  0.0619  0.0985
   22CHL1  H23A 2794   4.844   2.371   4.626  0.6794 -0.2360 -0.8352
   22CHL1  H23B 2795   5.017   2.333   4.614  0.9073  0.4676  1.0040
   22CHL1   C24 2796   4.895   2.170   4.552 -0.6286  0.1491 -0.7922
   22CHL1  H24A 2797   4.988   2.109   4.548 -0.5129  0.2392  0.1150
   22CHL1  H24B 2798   4.813   2.111   4.600 -1.5252  0.4379 -1.9317
   22CHL1   C25 2799   4.853   2.197   4.409 -0.2741  0.0292  0.0043
   22CHL1   H25 2800   4.752   2.243   4.400 -1.2108 -2.0974 -1.2150
   22CHL1   C26 2801   4.955   2.280   4.330 -0.2216 -0.1361 -1.1926
   22CHL1  H26A 2802   4.984   2.378   4.374  1.9721 -1.5937  0.8537
   22CHL1  H26B 2803   5.045   2.214   4.325 -0.0532 -0.1074  0.6438
   22CHL1  H26C 2804   4.916   2.297   4.228 -2.5443  0.6788 -0.2332
   22CHL1   C27 2805   4.842   2.069   4.327 -0.0412  0.3135 -0.7959
   22CHL1  H27A 2806   4.817   1.972   4.375  1.1418 -1.7588 -4.0461
   22CHL1  H27B 2807   4.765   2.098   4.252 -0.4766  1.2341 -0.0127
   22CHL1  H27C 2808   4.938   2.051   4.275  1.3550  0.3234  1.6225
   23CHL1    C3 2809   0.894   2.472   5.537 -0.1114  0.0926 -0.1822
   23CHL1    H3 2810   1.000   2.441   5.549 -0.4533 -0.2713  2.9871
   23CHL1    O3 2811   0.844   2.516   5.660  0.0243  0.0135 -0.0055
   23CHL1   H3' 2812   0.848   2.436   5.712 -0.8652 -0.7832 -1.1102
   23CHL1    C4 2813   0.875   2.578   5.423  0.1163  0.0950  0.8973
   23CHL1   H4A 2814   0.780   2.635   5.421 -0.5800 -1.0251 -0.6916
   23CHL1   H4B 2815   0.951   2.655   5.450  1.8854 -0.9464 -0.8417
   23CHL1    C5 2816   0.893   2.525   5.282 -0.0451  1.3874  0.0970
   23CHL1    C6 2817   0.987   2.578   5.207  0.6266 -0.4137  1.0177
   23CHL1    H6 2818   1.035   2.663   5.257  1.9909 -1.0368  0.8110
   23CHL1    C7 2819   1.007   2.548   5.063 -0.2606  0.2389 -0.6255
   23CHL1   H7A 2820   0.987   2.635   4.997 -3.2894 -0.1595 -0.3745
   23CHL1   H7B 2821   1.113   2.516   5.053 -0.0630  0.0284  1.6398
   23CHL1    C8 2822   0.905   2.445   5.009  0.3176  0.7147  0.4475
   23CHL1    H8 2823   0.806   2.496   5.013 -0.0591  0.0657 -0.2535
   23CHL1   C14 2824   0.947   2.384   4.876  0.5066  0.4290 -0.6311
   23CHL1   H14 2825   1.045   2.335   4.896  0.3395  0.7910  1.3096
   23CHL1   C15 2826   0.979   2.490   4.772  0.4035 -0.1728  0.4762
   23CHL1  H15A 2827   0.925   2.586   4.785  1.9149  1.0223 -1.4837
   23CHL1  H15B 2828   1.086   2.519   4.768  0.2857  0.5254  1.7513
   23CHL1   C16 2829   0.947   2.421   4.630  0.3836 -0.2396 -0.1324
   23CHL1  H16A 2830   0.866   2.478   4.580  1.3156 -0.1801 -1.6622
   23CHL1  H16B 2831   1.042   2.426   4.571  1.2242  2.5935  1.2930
   23CHL1   C17 2832   0.898   2.275   4.673 -0.0997 -0.5357  1.2210
   23CHL1   H17 2833   0.991   2.215   4.679 -0.2039 -1.1829 -1.9763
   23CHL1   C13 2834   0.844   2.288   4.820  1.4649 -0.1242  0.8832
   23CHL1   C18 2835   0.710   2.358   4.811  0.2184 -0.0117 -0.1015
   23CHL1  H18A 2836   0.653   2.365   4.906  0.2044 -0.6323 -0.0552
   23CHL1  H18B 2837   0.726   2.460   4.771  3.3457 -0.6377 -0.8016
   23CHL1  H18C 2838   0.639   2.309   4.742 -0.9529  0.3276  0.8420
   23CHL1   C12 2839   0.840   2.165   4.904  0.5380 -0.0163 -0.3311
   23CHL1  H12A 2840   0.774   2.087   4.862  0.9185 -1.6086  1.8664
   23CHL1  H12B 2841   0.947   2.134   4.909  1.0405  1.6381  0.0999
   23CHL1   C11 2842   0.814   2.207   5.051  0.7308  0.0626  0.0865
   23CHL1  H11A 2843   0.704   2.209   5.065  0.8588  0.9036  1.0216
   23CHL1  H11B 2844   0.857   2.121   5.107  1.1705 -1.3395 -2.2638
   23CHL1    C9 2845   0.883   2.333   5.115  0.2560 -0.5442  0.6965
   23CHL1    H9 2846   0.984   2.293   5.137  0.5887 -0.4502 -0.6154
   23CHL1   C10 2847   0.830   2.393   5.244 -0.4909  0.0442 -0.2972
   23CHL1   C19 2848   0.679   2.411   5.234  0.0986  0.3209 -0.4580
   23CHL1  H19A 2849   0.627   2.319   5.202 -0.9907  1.1521 -1.1601
   23CHL1  H19B 2850   0.631   2.450   5.327 -0.4544  1.7847 -1.3074
   23CHL1  H19C 2851   0.651   2.476   5.148 -1.2535 -0.3898 -0.5923
   23CHL1    C1 2852   0.855   2.296   5.366 -1.2334 -0.4848 -0.3232
   23CHL1   H1A 2853   0.812   2.198   5.338  0.4736 -1.8164  1.4525
   23CHL1   H1B 2854   0.965   2.280   5.367 -1.2930 -0.9233  0.9968
   23CHL1    C2 2855   0.816   2.349   5.500  0.0884 -0.1231  0.4573
   23CHL1   H2A 2856   0.841   2.267   5.571  0.6517 -0.0320  0.3697
   23CHL1   H2B 2857   0.706   2.362   5.512 -0.3284 -2.0049 -0.8952
   23CHL1   C20 2858   0.815   2.211   4.557 -0.1566 -0.7849 -0.0823
   23CHL1   H20 2859   0.721   2.269   4.540  0.6047 -0.1871 -2.6585
   23CHL1   C21 2860   0.761   2.076   4.594  0.4463  0.1009  0.7634
   23CHL1  H21A 2861   0.692   2.091   4.680 -0.7829 -0.1955 -0.1523
   23CHL1  H21B 2862   0.842   2.004   4.617  1.4631  0.9319 -0.1122
   23CHL1  H21C 2863   0.698   2.037   4.511 -0.6341  1.0106  1.1395
   23CHL1   C22 2864   0.870   2.208   4.417 -0.4247 -0.0411  0.3796
   23CHL1  H22A 2865   0.925   2.302   4.396 -0.9294 -0.1435 -1.6381
   23CHL1  H22B 2866   0.946   2.128   4.404  1.3902  1.5649  0.7346
   23CHL1   C23 2867   0.755   2.199   4.319 -0.0695  0.1950 -0.1957
   23CHL1  H23A 2868   0.719   2.095   4.305  1.6014 -0.5260  0.6609
   23CHL1  H23B 2869   0.668   2.265   4.341  0.0642  1.0083 -1.8987
   23CHL1   C24 2870   0.804   2.228   4.175  0.0088  0.0708  0.5029
   23CHL1  H24A 2871   0.836   2.333   4.161 -1.2421  0.5781  1.2317
   23CHL1  H24B 2872   0.897   2.171   4.158  2.1351  3.0034  1.5192
   23CHL1   C25 2873   0.698   2.204   4.062  0.5074 -0.1342 -0.1682
   23CHL1   H25 2874   0.674   2.096   4.063  2.1547 -0.5436  1.7307
   23CHL1   C26 2875   0.563   2.285   4.082  0.3126  0.2166  0.1890
   23CHL1  H26A 2876   0.490   2.251   4.006 -1.2803 -1.8235  2.4921
   23CHL1  H26B 2877   0.510   2.280   4.180  1.7661  0.8591  1.0450
   23CHL1  H26C 2878   0.589   2.391   4.063  0.4447  0.1349 -0.0905
   23CHL1   C27 2879   0.760   2.236   3.927  0.1457 -0.1945 -0.0288
   23CHL1  H27A 2880   0.853   2.179   3.906  0.9147  1.5501 -1.6799
   23CHL1  H27B 2881   0.684   2.229   3.846  0.5670 -0.1142 -0.4333
   23CHL1  H27C 2882   0.793   2.342   3.923  1.7685 -0.6472  0.8303
   24CHL1    C3 2883   4.110   2.711   5.929 -0.9566  0.4378  0.9435
   24CHL1    H3 2884   4.096   2.821   5.917  1.7136  0.8850  1.2483
   24CHL1    O3 2885   4.111   2.667   6.064 -0.9851 -0.0282 -0.1737
   24CHL1   H3' 2886   4.111   2.573   6.046  0.7702 -0.4791  1.7573
   24CHL1    C4 2887   3.994   2.651   5.852  0.1617  0.3033  0.3469
   24CHL1   H4A 2888   3.989   2.541   5.869  0.6761  0.2486  0.1537
   24CHL1   H4B 2889   3.904   2.701   5.895 -0.7839 -1.4523  0.4815
   24CHL1    C5 2890   3.997   2.686   5.704  0.1258 -0.3769  0.2083
   24CHL1    C6 2891   3.885   2.725   5.637 -0.1156  0.1966 -0.5321
   24CHL1    H6 2892   3.789   2.738   5.688 -0.6800 -1.6654 -1.0457
   24CHL1    C7 2893   3.883   2.747   5.483 -0.0077 -0.2525 -0.3079
   24CHL1   H7A 2894   3.789   2.713   5.435 -0.5802  1.4916 -0.4998
   24CHL1   H7B 2895   3.896   2.854   5.457 -0.5340 -0.6403 -2.2995
   24CHL1    C8 2896   4.003   2.674   5.410  0.0177  0.4660 -0.3824
   24CHL1    H8 2897   3.980   2.565   5.414  1.5348  0.1519  0.8010
   24CHL1   C14 2898   4.018   2.717   5.264 -0.0208 -0.0109 -0.5670
   24CHL1   H14 2899   4.042   2.823   5.286  1.8367 -0.5939  0.4411
   24CHL1   C15 2900   3.901   2.709   5.159  0.0882  0.6273 -0.4426
   24CHL1  H15A 2901   3.863   2.606   5.176 -1.0332  1.1226  0.1965
   24CHL1  H15B 2902   3.820   2.781   5.186 -0.8821 -0.5131 -0.2023
   24CHL1   C16 2903   3.965   2.741   5.028 -0.3406 -0.2716  0.6609
   24CHL1  H16A 2904   3.924   2.678   4.946  0.4203  1.7895 -1.4267
   24CHL1  H16B 2905   3.946   2.846   4.998 -0.6913 -0.3239  0.6957
   24CHL1   C17 2906   4.119   2.726   5.052 -0.5386  0.2446  0.4730
   24CHL1   H17 2907   4.164   2.827   5.067  0.7313 -0.1880 -0.3215
   24CHL1   C13 2908   4.139   2.653   5.194  0.0870 -0.4093 -0.4440
   24CHL1   C18 2909   4.116   2.506   5.180 -0.4937  0.9180  0.2869
   24CHL1  H18A 2910   4.088   2.454   5.274 -1.6329  0.0247 -0.5202
   24CHL1  H18B 2911   4.036   2.478   5.108 -0.0814 -1.8720  0.8090
   24CHL1  H18C 2912   4.206   2.456   5.137 -0.9106  1.0703 -0.8050
   24CHL1   C12 2913   4.278   2.691   5.262 -0.0146  0.0315  0.3414
   24CHL1  H12A 2914   4.365   2.641   5.214  0.8889  2.8130 -1.1394
   24CHL1  H12B 2915   4.313   2.796   5.262  0.5583 -0.1276 -1.5349
   24CHL1   C11 2916   4.262   2.657   5.411 -0.3405 -0.1153  0.9024
   24CHL1  H11A 2917   4.284   2.548   5.423 -0.8099 -0.0460  2.8493
   24CHL1  H11B 2918   4.353   2.694   5.464 -1.0306  2.4780  0.3780
   24CHL1    C9 2919   4.136   2.702   5.486  1.0821  0.2135  0.1568
   24CHL1    H9 2920   4.154   2.810   5.502  0.3410  0.3091  0.4192
   24CHL1   C10 2921   4.133   2.651   5.636  0.8437  0.0616  0.7972
   24CHL1   C19 2922   4.130   2.496   5.632 -0.0633  0.2247 -0.1993
   24CHL1  H19A 2923   4.062   2.448   5.559  0.6337 -2.0796  0.5757
   24CHL1  H19B 2924   4.226   2.445   5.611 -0.7217 -1.8727  1.5530
   24CHL1  H19C 2925   4.101   2.458   5.733  0.8189 -1.1740 -0.4424
   24CHL1    C1 2926   4.247   2.712   5.719  0.0310  0.0935  0.6634
   24CHL1   H1A 2927   4.346   2.676   5.684  0.6840  2.2503  0.1908
   24CHL1   H1B 2928   4.245   2.823   5.714 -0.2853  0.0407 -0.7266
   24CHL1    C2 2929   4.241   2.670   5.864  0.8913  0.3864  0.2586
   24CHL1   H2A 2930   4.326   2.724   5.911 -0.7213  2.3667  1.0523
   24CHL1   H2B 2931   4.255   2.560   5.872 -1.2528  0.0351 -0.1078
   24CHL1   C20 2932   4.186   2.666   4.927 -0.0166 -0.3168  0.3227
   24CHL1   H20 2933   4.165   2.557   4.928 -0.7403 -0.1862  1.0315
   24CHL1   C21 2934   4.332   2.687   4.943  0.3487 -0.0555  0.3420
   24CHL1  H21A 2935   4.370   2.624   4.860 -0.7977 -1.2333  0.6862
   24CHL1  H21B 2936   4.376   2.634   5.030 -0.3666  0.3172  0.9455
   24CHL1  H21C 2937   4.360   2.795   4.938  0.4639 -0.1284 -1.0303
   24CHL1   C22 2938   4.144   2.725   4.781  0.5495 -0.1400 -0.9527
   24CHL1  H22A 2939   4.036   2.706   4.761  0.6279 -1.3189 -0.3304
   24CHL1  H22B 2940   4.150   2.836   4.783  2.3664 -0.2015 -1.3771
   24CHL1   C23 2941   4.219   2.676   4.653 -0.5885 -0.0652 -0.1911
   24CHL1  H23A 2942   4.326   2.703   4.664 -0.3616 -0.5223 -1.1544
   24CHL1  H23B 2943   4.223   2.566   4.638  3.2078  0.1124 -1.5939
   24CHL1   C24 2944   4.160   2.744   4.528 -0.2860  0.1340 -0.1185
   24CHL1  H24A 2945   4.049   2.747   4.529 -0.2996  2.4915 -1.5611
   24CHL1  H24B 2946   4.192   2.851   4.531 -1.0100  0.4170 -1.6034
   24CHL1   C25 2947   4.209   2.665   4.408 -0.2371  0.6160  0.3465
   24CHL1   H25 2948   4.196   2.559   4.438  0.5874  1.0324  2.2964
   24CHL1   C26 2949   4.125   2.691   4.278  0.2541  0.0336  0.0329
   24CHL1  H26A 2950   4.159   2.649   4.181  0.4950  0.3240 -0.0095
   24CHL1  H26B 2951   4.020   2.657   4.289 -0.2753  1.6398  0.2243
   24CHL1  H26C 2952   4.114   2.801   4.266 -3.4788 -0.4154 -2.1824
   24CHL1   C27 2953   4.364   2.688   4.374 -0.0593  0.2540 -0.1161
   24CHL1  H27A 2954   4.390   2.790   4.339  0.8631 -0.3304 -1.1803
   24CHL1  H27B 2955   4.430   2.648   4.454 -0.9952 -1.7911 -0.3041
   24CHL1  H27C 2956   4.388   2.633   4.281  2.4762  1.4962 -0.2798
   25CHL1    C3 2957   6.021   6.252   5.705 -0.2407  0.6643  0.5997
   25CHL1    H3 2958   6.069   6.157   5.675 -0.8869  1.3499 -3.0734
   25CHL1    O3 2959   6.032   6.281   5.846 -0.6734 -0.3284 -0.2830
   25CHL1   H3' 2960   6.004   6.371   5.866 -0.0292 -0.7597  3.1058
   25CHL1    C4 2961   6.091   6.363   5.623 -0.2237 -0.0264  0.6419
   25CHL1   H4A 2962   6.049   6.461   5.656 -0.7421 -0.4322  1.2097
   25CHL1   H4B 2963   6.198   6.370   5.649 -0.6922  0.4715  2.6684
   25CHL1    C5 2964   6.064   6.340   5.474 -0.6122 -0.2978  0.2445
   25CHL1    C6 2965   6.169   6.331   5.388 -0.9816 -0.5232 -0.2759
   25CHL1    H6 2966   6.272   6.345   5.424 -0.3605 -1.8412 -1.4287
   25CHL1    C7 2967   6.153   6.324   5.241 -0.1641  0.1800  0.0689
   25CHL1   H7A 2968   6.229   6.388   5.192 -0.2240 -0.6894 -1.1800
   25CHL1   H7B 2969   6.160   6.219   5.207 -0.3620  0.1980 -0.0265
   25CHL1    C8 2970   6.009   6.368   5.200 -0.1955  0.1952  0.3477
   25CHL1    H8 2971   6.014   6.479   5.203  0.5557  0.1772  0.1468
   25CHL1   C14 2972   5.981   6.325   5.058  0.0127  0.2666 -0.0264
   25CHL1   H14 2973   5.993   6.214   5.054  0.3604  0.2575  0.9409
   25CHL1   C15 2974   6.082   6.380   4.956  0.0622 -0.4532  0.4811
   25CHL1  H15A 2975   6.106   6.486   4.977 -1.3296 -0.0838  0.2820
   25CHL1  H15B 2976   6.178   6.325   4.949  0.2349 -0.0790 -0.1385
   25CHL1   C16 2977   6.004   6.376   4.820 -0.0512  0.4047 -0.7460
   25CHL1  H16A 2978   6.012   6.472   4.765 -0.4739 -0.1675 -1.8464
   25CHL1  H16B 2979   6.047   6.297   4.755 -1.0726  0.1762 -1.1668
   25CHL1   C17 2980   5.852   6.325   4.852  0.3121  0.0465  0.8651
   25CHL1   H17 2981   5.850   6.214   4.844 -0.3482 -0.0591  2.0764
   25CHL1   C13 2982   5.839   6.361   5.004 -0.7822  0.8622 -0.1934
   25CHL1   C18 2983   5.815   6.515   5.016 -0.2195 -0.4767 -0.8497
   25CHL1  H18A 2984   5.707   6.539   5.007  0.1979  1.3665 -1.2721
   25CHL1  H18B 2985   5.857   6.555   5.111 -0.8878 -0.9620 -0.3403
   25CHL1  H18C 2986   5.872   6.559   4.932  0.1837 -1.6429 -1.2101
   25CHL1   C12 2987   5.737   6.276   5.083 -0.6682 -0.0107  0.0471
   25CHL1  H12A 2988   5.640   6.316   5.044 -0.6394  0.6081  0.6057
   25CHL1  H12B 2989   5.742   6.167   5.058  0.8280  0.4287 -1.8382
   25CHL1   C11 2990   5.756   6.317   5.235 -0.0438 -0.7435  0.3528
   25CHL1  H11A 2991   5.726   6.423   5.248 -1.0145 -0.9628  0.0134
   25CHL1  H11B 2992   5.685   6.250   5.289  0.2754  0.1168  1.8904
   25CHL1    C9 2993   5.903   6.303   5.287  0.9299  0.1583  0.0844
   25CHL1    H9 2994   5.924   6.194   5.288 -2.1648 -0.5523 -0.7513
   25CHL1   C10 2995   5.915   6.338   5.433 -0.0035 -0.6361  0.2343
   25CHL1   C19 2996   5.842   6.472   5.457  0.3977  0.1806 -0.5560
   25CHL1  H19A 2997   5.731   6.469   5.462  0.4248 -0.8087 -0.3085
   25CHL1  H19B 2998   5.867   6.520   5.553  3.2703  0.3579 -1.2927
   25CHL1  H19C 2999   5.852   6.538   5.368 -0.0942 -0.6913 -1.2727
   25CHL1    C1 3000   5.850   6.225   5.523 -0.3016  0.1805  0.1303
   25CHL1   H1A 3001   5.743   6.230   5.493 -0.0241  1.7147 -0.7023
   25CHL1   H1B 3002   5.889   6.127   5.487 -2.4766 -0.8510  0.4307
   25CHL1    C2 3003   5.871   6.238   5.672  0.4664 -0.6751  0.8129
   25CHL1   H2A 3004   5.828   6.151   5.726 -0.0258 -0.4936  0.7210
   25CHL1   H2B 3005   5.829   6.331   5.718 -2.0119 -1.0262 -0.5543
   25CHL1   C20 3006   5.741   6.376   4.756  0.4045 -0.7235 -0.1043
   25CHL1   H20 3007   5.693   6.469   4.794  0.4814  0.2543 -2.2345
   25CHL1   C21 3008   5.638   6.262   4.752 -0.3819  0.0504  0.1733
   25CHL1  H21A 3009   5.660   6.188   4.673  3.1879 -0.5790  1.5673
   25CHL1  H21B 3010   5.537   6.302   4.728  0.2044  1.7335  0.3612
   25CHL1  H21C 3011   5.613   6.209   4.846 -1.3246 -1.9238 -1.1425
   25CHL1   C22 3012   5.783   6.407   4.614 -0.2229 -0.0205 -0.1334
   25CHL1  H22A 3013   5.855   6.492   4.626 -0.1811 -0.4038  3.6114
   25CHL1  H22B 3014   5.839   6.320   4.573 -0.8841  0.2892 -1.7878
   25CHL1   C23 3015   5.673   6.458   4.525  0.2097  0.0861  0.2151
   25CHL1  H23A 3016   5.658   6.376   4.452  3.5234  1.1721 -1.9171
   25CHL1  H23B 3017   5.581   6.479   4.584  1.1831  0.7935  1.5405
   25CHL1   C24 3018   5.717   6.580   4.444  0.1523 -0.3518  0.2537
   25CHL1  H24A 3019   5.742   6.657   4.520 -0.7898  0.9688 -0.7373
   25CHL1  H24B 3020   5.810   6.557   4.387  1.1560  2.7158  0.4797
   25CHL1   C25 3021   5.611   6.623   4.344 -0.0383 -0.4118  0.6863
   25CHL1   H25 3022   5.524   6.641   4.410 -0.2448  2.0311 -0.1833
   25CHL1   C26 3023   5.643   6.755   4.274 -0.1399 -0.0986  0.6715
   25CHL1  H26A 3024   5.673   6.829   4.351 -3.0541  0.8775  1.0041
   25CHL1  H26B 3025   5.724   6.737   4.200 -0.1735 -2.3019  1.1050
   25CHL1  H26C 3026   5.560   6.797   4.212  0.7235  0.5127 -0.1037
   25CHL1   C27 3027   5.589   6.522   4.229  0.3164  0.2747  0.3348
   25CHL1  H27A 3028   5.684   6.510   4.172 -0.6652  0.4618 -1.4193
   25CHL1  H27B 3029   5.557   6.424   4.270 -1.4439  1.3061  1.5725
   25CHL1  H27C 3030   5.509   6.558   4.161 -0.5416 -2.0887  0.0075
   26CHL1    C3 3031   4.629   2.412   5.815 -0.3319 -0.6511  0.0866
   26CHL1    H3 3032   4.545   2.485   5.807 -0.5743 -0.9009  0.2868
   26CHL1    O3 3033   4.693   2.410   5.941 -0.0889  0.1548 -0.0057
   26CHL1   H3' 3034   4.734   2.495   5.955 -0.8676  0.5183  0.0877
   26CHL1    C4 3035   4.580   2.273   5.779 -0.1571 -0.3509 -0.2083
   26CHL1   H4A 3036   4.660   2.198   5.797 -0.3600 -0.1682  1.6886
   26CHL1   H4B 3037   4.505   2.242   5.855 -0.3123 -0.5413 -0.4410
   26CHL1    C5 3038   4.532   2.272   5.640 -0.0111 -0.5709 -0.2553
   26CHL1    C6 3039   4.410   2.232   5.608 -0.0797  0.0803 -0.6883
   26CHL1    H6 3040   4.347   2.203   5.694  0.7048  0.3212 -0.0224
   26CHL1    C7 3041   4.372   2.212   5.467  0.2362 -0.0077  0.1922
   26CHL1   H7A 3042   4.323   2.112   5.465  1.5675 -0.6805  0.4323
   26CHL1   H7B 3043   4.287   2.280   5.446 -1.8184 -2.2835  0.5599
   26CHL1    C8 3044   4.476   2.224   5.362  0.0526  0.2906 -0.1744
   26CHL1    H8 3045   4.543   2.135   5.370  0.6694  0.6255 -1.3864
   26CHL1   C14 3046   4.412   2.233   5.217  0.0980 -0.0970  0.0689
   26CHL1   H14 3047   4.349   2.324   5.228  0.6672  0.1359  1.6146
   26CHL1   C15 3048   4.325   2.116   5.169  0.9009 -0.7815  0.3152
   26CHL1  H15A 3049   4.392   2.027   5.173  1.0661 -0.7823 -1.5260
   26CHL1  H15B 3050   4.239   2.102   5.237  0.4649  1.5861  0.3401
   26CHL1   C16 3051   4.301   2.161   5.022  0.5656  0.0909 -0.1430
   26CHL1  H16A 3052   4.320   2.074   4.956  1.5237  1.1649 -1.3221
   26CHL1  H16B 3053   4.195   2.194   5.021  0.7432  1.1117  3.2500
   26CHL1   C17 3054   4.401   2.270   4.988 -0.3288  0.2395  0.1310
   26CHL1   H17 3055   4.354   2.371   5.000 -0.8094 -0.0547  0.8128
   26CHL1   C13 3056   4.509   2.267   5.099 -0.2223  0.3917 -0.6445
   26CHL1   C18 3057   4.605   2.149   5.064  0.1110  0.2978  0.4655
   26CHL1  H18A 3058   4.555   2.050   5.055  1.2763 -0.3992  1.3210
   26CHL1  H18B 3059   4.666   2.165   4.973 -0.2697 -1.9360 -0.2504
   26CHL1  H18C 3060   4.667   2.135   5.155 -1.1082 -2.1590  1.0017
   26CHL1   C12 3061   4.582   2.399   5.138 -0.4537 -0.0776 -1.2942
   26CHL1  H12A 3062   4.645   2.415   5.048 -1.3809  0.5527 -1.8461
   26CHL1  H12B 3063   4.511   2.484   5.146  0.0744  0.3092 -0.6328
   26CHL1   C11 3064   4.661   2.382   5.269  0.3157  0.2458 -1.0326
   26CHL1  H11A 3065   4.736   2.304   5.247  0.8937 -0.7345  3.4316
   26CHL1  H11B 3066   4.716   2.474   5.302  1.2610 -1.2870  2.0733
   26CHL1    C9 3067   4.572   2.341   5.394 -0.1675  0.0152 -0.2975
   26CHL1    H9 3068   4.508   2.432   5.406  0.3114  0.1651  1.5386
   26CHL1   C10 3069   4.636   2.321   5.530 -0.5009 -0.1376  0.4809
   26CHL1   C19 3070   4.745   2.210   5.513 -0.2018 -0.0741 -0.1698
   26CHL1  H19A 3071   4.701   2.109   5.505 -1.9972  0.6285  0.3322
   26CHL1  H19B 3072   4.804   2.233   5.421 -0.6856  3.1741  0.1967
   26CHL1  H19C 3073   4.819   2.210   5.595 -0.6751 -0.2945  0.2580
   26CHL1    C1 3074   4.697   2.456   5.570  0.7912 -0.4565  0.4947
   26CHL1   H1A 3075   4.781   2.487   5.504 -0.7178  1.4283 -0.6444
   26CHL1   H1B 3076   4.620   2.534   5.553  1.3211  0.2386  1.2131
   26CHL1    C2 3077   4.744   2.458   5.713 -0.0027 -0.0400  0.1602
   26CHL1   H2A 3078   4.779   2.557   5.749 -1.3835 -0.1420  1.9114
   26CHL1   H2B 3079   4.825   2.382   5.727  0.8707  1.0134  1.0754
   26CHL1   C20 3080   4.457   2.253   4.841 -0.0406  0.8700 -0.7765
   26CHL1   H20 3081   4.499   2.151   4.832  0.6990  0.9081  1.6125
   26CHL1   C21 3082   4.551   2.367   4.804 -0.0221 -0.1752 -0.3736
   26CHL1  H21A 3083   4.537   2.405   4.701 -0.0772 -2.9961 -1.4845
   26CHL1  H21B 3084   4.655   2.340   4.830 -0.2960  0.1914  1.2051
   26CHL1  H21C 3085   4.522   2.453   4.869 -2.8844 -2.6695  1.9608
   26CHL1   C22 3086   4.337   2.253   4.738  0.2522  0.0838  0.1515
   26CHL1  H22A 3087   4.257   2.184   4.771  0.2018  0.2988  0.4865
   26CHL1  H22B 3088   4.303   2.359   4.741 -3.0991 -0.7906 -1.9267
   26CHL1   C23 3089   4.374   2.210   4.595 -0.0764  0.1770 -0.2470
   26CHL1  H23A 3090   4.302   2.244   4.517  2.0966  0.9644 -2.0304
   26CHL1  H23B 3091   4.474   2.252   4.569 -1.0187  1.3479 -2.2032
   26CHL1   C24 3092   4.372   2.058   4.589 -0.1967 -0.5580 -0.8646
   26CHL1  H24A 3093   4.462   2.029   4.647 -1.3338 -1.0309  0.7247
   26CHL1  H24B 3094   4.287   2.016   4.647  1.7386 -1.2252  1.6728
   26CHL1   C25 3095   4.354   2.004   4.450  0.8524  0.5910  0.2889
   26CHL1   H25 3096   4.418   2.060   4.378  0.4325  1.0108  0.2401
   26CHL1   C26 3097   4.398   1.856   4.439 -0.2344  0.5616  0.5864
   26CHL1  H26A 3098   4.327   1.798   4.502 -0.8218  1.1358  0.4632
   26CHL1  H26B 3099   4.393   1.817   4.335 -1.0046 -0.6905  1.0634
   26CHL1  H26C 3100   4.497   1.833   4.485 -1.4201 -0.2663  2.8805
   26CHL1   C27 3101   4.209   2.010   4.398  0.3701  0.2190  0.2594
   26CHL1  H27A 3102   4.169   2.113   4.391 -3.5469 -1.2031 -0.6118
   26CHL1  H27B 3103   4.202   1.966   4.297  1.4617  0.4697  0.0562
   26CHL1  H27C 3104   4.145   1.946   4.462  0.6158  1.3650  1.7201
   27CHL1    C3 3105   2.012   1.279   5.590  0.1809  0.7667  0.7027
   27CHL1    H3 3106   1.905   1.262   5.565  0.8073 -0.1247 -1.6594
   27CHL1    O3 3107   2.019   1.307   5.725  0.2268 -0.2147  0.3226
   27CHL1   H3' 3108   2.115   1.312   5.723  0.2148  0.2783 -2.6762
   27CHL1    C4 3109   2.089   1.152   5.539  0.9546 -0.1354  0.0117
   27CHL1   H4A 3110   2.196   1.146   5.569  0.4905 -0.6612  1.6901
   27CHL1   H4B 3111   2.047   1.062   5.588  4.5801 -1.4993  0.9239
   27CHL1    C5 3112   2.070   1.135   5.391  0.3720  0.1155 -0.1748
   27CHL1    C6 3113   2.010   1.028   5.338  0.4621  0.4140 -0.1896
   27CHL1    H6 3114   1.980   0.957   5.416 -3.0471  2.7011  0.8156
   27CHL1    C7 3115   2.003   1.004   5.185  0.8223 -0.5851 -0.4356
   27CHL1   H7A 3116   2.039   0.905   5.150  0.9235 -0.1552 -1.5660
   27CHL1   H7B 3117   1.905   1.038   5.146  0.6241  0.2065  0.7204
   27CHL1    C8 3118   2.106   1.090   5.104 -0.0020 -0.0569 -0.1868
   27CHL1    H8 3119   2.208   1.060   5.135  0.3611 -0.5274 -1.7741
   27CHL1   C14 3120   2.077   1.082   4.952 -0.0844 -0.8746  0.1099
   27CHL1   H14 3121   1.977   1.129   4.941 -0.4874 -1.7302 -0.0143
   27CHL1   C15 3122   2.070   0.944   4.885 -0.3760 -0.4568 -0.0761
   27CHL1  H15A 3123   2.143   0.871   4.926  0.0571 -0.3882 -0.7256
   27CHL1  H15B 3124   1.964   0.908   4.893 -0.4276 -0.5440 -1.0698
   27CHL1   C16 3125   2.094   0.980   4.732  0.3210  0.0550  0.5211
   27CHL1  H16A 3126   2.170   0.908   4.696  0.4884  0.6411 -0.3201
   27CHL1  H16B 3127   2.001   0.954   4.677  0.2513 -0.5068  0.8952
   27CHL1   C17 3128   2.128   1.134   4.721  0.0292 -0.2919 -0.4792
   27CHL1   H17 3129   2.037   1.196   4.709  0.3836  0.0453 -1.5750
   27CHL1   C13 3130   2.171   1.167   4.865 -0.6086  0.7995  0.3973
   27CHL1   C18 3131   2.315   1.125   4.896 -0.3376 -0.5829 -0.4545
   27CHL1  H18A 3132   2.317   1.019   4.865  1.3101 -0.3475 -1.3033
   27CHL1  H18B 3133   2.387   1.177   4.828 -0.9429  0.8944 -0.0083
   27CHL1  H18C 3134   2.352   1.118   5.000  0.7908  0.0955 -0.7899
   27CHL1   C12 3135   2.156   1.311   4.918 -0.6955 -0.2497  0.0891
   27CHL1  H12A 3136   2.228   1.373   4.862 -1.7410  1.6135  0.7325
   27CHL1  H12B 3137   2.053   1.344   4.892 -0.0375  0.6949 -1.4816
   27CHL1   C11 3138   2.182   1.329   5.063  0.8356  0.3019 -0.0736
   27CHL1  H11A 3139   2.291   1.330   5.084  0.6452  0.1969  0.9768
   27CHL1  H11B 3140   2.152   1.433   5.090 -1.4238 -0.8284  2.0727
   27CHL1    C9 3141   2.097   1.231   5.152 -0.2391 -1.1593 -0.8396
   27CHL1    H9 3142   1.989   1.256   5.144 -0.3795 -1.8465 -1.1720
   27CHL1   C10 3143   2.122   1.250   5.306 -0.8564 -0.4518  0.1230
   27CHL1   C19 3144   2.273   1.263   5.321 -0.2372 -1.0387 -0.0894
   27CHL1  H19A 3145   2.337   1.184   5.278 -0.4231 -0.8358 -0.7567
   27CHL1  H19B 3146   2.311   1.355   5.271  0.5470 -1.0496  0.4758
   27CHL1  H19C 3147   2.309   1.267   5.426  0.4099  1.1912 -0.3289
   27CHL1    C1 3148   2.044   1.373   5.358 -0.3052  0.6961  0.2476
   27CHL1   H1A 3149   2.084   1.461   5.303  1.9764 -0.2961  0.1867
   27CHL1   H1B 3150   1.934   1.367   5.343 -0.4064  1.1274  0.7630
   27CHL1    C2 3151   2.060   1.399   5.510  0.5073 -0.5712  0.0795
   27CHL1   H2A 3152   2.007   1.496   5.523  1.5205  0.2227 -1.4739
   27CHL1   H2B 3153   2.163   1.429   5.538  0.4361  0.1347 -0.3687
   27CHL1   C20 3154   2.222   1.175   4.613 -0.0752 -0.2723  0.0587
   27CHL1   H20 3155   2.328   1.169   4.644 -0.3119 -0.3855  0.8535
   27CHL1   C21 3156   2.205   1.327   4.578 -0.3441  0.3193  0.2672
   27CHL1  H21A 3157   2.261   1.357   4.487  0.5532  1.9867  1.3220
   27CHL1  H21B 3158   2.257   1.391   4.653 -1.1203  2.1540 -0.7223
   27CHL1  H21C 3159   2.097   1.352   4.574 -0.5128 -0.3502  0.4347
   27CHL1   C22 3160   2.206   1.090   4.484  0.1838 -0.9089 -0.1797
   27CHL1  H22A 3161   2.288   1.118   4.415  3.1347 -1.1425  2.9718
   27CHL1  H22B 3162   2.228   0.983   4.504  1.5067 -0.9078 -1.4493
   27CHL1   C23 3163   2.072   1.095   4.409  0.8194 -0.4350 -0.4840
   27CHL1  H23A 3164   1.996   1.046   4.474  0.0283  2.5611  1.0694
   27CHL1  H23B 3165   2.042   1.201   4.400 -0.0659 -0.4908  1.4081
   27CHL1   C24 3166   2.066   1.018   4.281 -0.3875 -0.6818  0.9627
   27CHL1  H24A 3167   2.155   1.058   4.228 -1.4042 -0.5143 -0.6956
   27CHL1  H24B 3168   2.081   0.909   4.298 -0.4853 -0.8824 -0.1611
   27CHL1   C25 3169   1.948   1.057   4.189  0.5920  0.4067  0.8057
   27CHL1   H25 3170   1.953   1.165   4.162  0.0724 -0.2922 -2.4533
   27CHL1   C26 3171   1.966   0.989   4.058 -0.1649  0.4003  0.1238
   27CHL1  H26A 3172   2.066   1.025   4.024  0.0408 -0.4687 -0.2341
   27CHL1  H26B 3173   1.964   0.879   4.071 -0.1336  0.5243  1.2913
   27CHL1  H26C 3174   1.890   1.028   3.988 -0.4234  1.6430  1.0451
   27CHL1   C27 3175   1.810   1.028   4.237  0.0452  0.2807 -0.7453
   27CHL1  H27A 3176   1.786   0.919   4.238 -3.8444  0.9974  0.2368
   27CHL1  H27B 3177   1.726   1.073   4.180 -1.7623 -1.2224  0.5863
   27CHL1  H27C 3178   1.791   1.072   4.337 -0.0388  0.7013 -0.9446
   28CHL1    C3 3179   6.172   1.531   5.279 -0.5680  0.0695  0.5269
   28CHL1    H3 3180   6.176   1.621   5.214 -0.8467  0.9268  1.6656
   28CHL1    O3 3181   6.142   1.555   5.412 -0.2133  0.4678  0.6164
   28CHL1   H3' 3182   6.149   1.467   5.450 -1.0674  0.8063  1.6363
   28CHL1    C4 3183   6.064   1.447   5.219  0.1597  0.4955 -0.6263
   28CHL1   H4A 3184   6.020   1.372   5.289  0.2577  0.8548 -0.1704
   28CHL1   H4B 3185   5.981   1.519   5.201 -0.7662 -0.2035  0.6983
   28CHL1    C5 3186   6.096   1.398   5.080  0.1913  0.1589  0.4709
   28CHL1    C6 3187   6.013   1.419   4.979  0.2441 -0.2706 -0.7935
   28CHL1    H6 3188   5.919   1.475   4.989  0.8008  1.0908 -2.5808
   28CHL1    C7 3189   6.045   1.383   4.842  0.1524  0.5070 -0.1579
   28CHL1   H7A 3190   5.962   1.337   4.785  1.7971 -3.9572  0.6365
   28CHL1   H7B 3191   6.095   1.470   4.795 -1.7363  0.4615 -2.4201
   28CHL1    C8 3192   6.154   1.271   4.831 -0.5033  0.6748  0.5056
   28CHL1    H8 3193   6.110   1.174   4.864 -1.0658  0.8474  0.2643
   28CHL1   C14 3194   6.201   1.244   4.693 -0.1061 -0.1923  0.4057
   28CHL1   H14 3195   6.251   1.338   4.659  1.9609 -1.9966 -1.9133
   28CHL1   C15 3196   6.100   1.202   4.575 -0.0297  0.4066  0.3073
   28CHL1  H15A 3197   6.038   1.118   4.612 -0.0914  0.1009 -0.4659
   28CHL1  H15B 3198   6.044   1.292   4.542 -0.7043  0.6973  2.1347
   28CHL1   C16 3199   6.190   1.143   4.465 -0.7062 -0.5575 -0.2165
   28CHL1  H16A 3200   6.150   1.045   4.430  0.0338 -0.7589 -0.5046
   28CHL1  H16B 3201   6.198   1.203   4.372 -0.4573  0.8854  0.7028
   28CHL1   C17 3202   6.334   1.135   4.530 -0.2244 -0.3916 -0.0152
   28CHL1   H17 3203   6.383   1.233   4.515 -0.1829 -0.2742  0.8350
   28CHL1   C13 3204   6.310   1.135   4.681 -0.4035  0.6655 -0.7876
   28CHL1   C18 3205   6.259   0.993   4.712  0.9010  0.0612  0.5218
   28CHL1  H18A 3206   6.194   0.955   4.631  1.5185  2.4894 -1.2255
   28CHL1  H18B 3207   6.352   0.933   4.720  1.0654  0.2534  0.0659
   28CHL1  H18C 3208   6.208   0.993   4.811 -0.3185 -0.5060 -0.0813
   28CHL1   C12 3209   6.433   1.161   4.776 -0.2653 -0.8338  0.2737
   28CHL1  H12A 3210   6.520   1.092   4.774  1.8170  1.6275  0.4515
   28CHL1  H12B 3211   6.471   1.258   4.737 -1.0194 -0.9070 -0.6935
   28CHL1   C11 3212   6.384   1.182   4.923  0.4655  0.2284 -0.3171
   28CHL1  H11A 3213   6.361   1.082   4.965  0.7290  0.1709 -0.3076
   28CHL1  H11B 3214   6.467   1.215   4.988  0.1331 -2.3188  1.5329
   28CHL1    C9 3215   6.270   1.290   4.929  0.5213 -0.2137 -0.6997
   28CHL1    H9 3216   6.326   1.380   4.895  0.4118 -0.3435 -1.2270
   28CHL1   C10 3217   6.226   1.323   5.068 -0.8824  0.6010  0.2762
   28CHL1   C19 3218   6.207   1.182   5.137  0.3013  0.1254  0.2148
   28CHL1  H19A 3219   6.153   1.197   5.233  0.6398 -0.0036  0.4266
   28CHL1  H19B 3220   6.151   1.114   5.069  1.0010 -0.4842  0.2244
   28CHL1  H19C 3221   6.308   1.138   5.150 -0.9010 -4.2217 -2.9110
   28CHL1    C1 3222   6.337   1.398   5.144 -0.1041  0.2906 -0.4223
   28CHL1   H1A 3223   6.429   1.341   5.166  1.2481  2.3864 -0.3585
   28CHL1   H1B 3224   6.370   1.471   5.066 -0.8742 -0.1798 -1.2114
   28CHL1    C2 3225   6.302   1.453   5.282  0.1238 -0.0559 -0.5800
   28CHL1   H2A 3226   6.387   1.520   5.309 -0.0936  0.1314 -0.3669
   28CHL1   H2B 3227   6.303   1.368   5.353  1.3717  0.9400  0.6566
   28CHL1   C20 3228   6.417   1.021   4.464 -0.0767  0.0034 -0.0410
   28CHL1   H20 3229   6.366   0.927   4.495  3.2444 -1.0795  2.8112
   28CHL1   C21 3230   6.559   1.018   4.522  0.4476  0.1802 -0.4573
   28CHL1  H21A 3231   6.622   0.951   4.459 -0.1083  0.5339 -1.4124
   28CHL1  H21B 3232   6.565   0.971   4.622  1.0491  1.5451  0.1752
   28CHL1  H21C 3233   6.595   1.122   4.534  0.7638 -0.0000  0.1614
   28CHL1   C22 3234   6.413   1.020   4.307  0.4213  0.0575  1.0900
   28CHL1  H22A 3235   6.323   1.073   4.269 -0.0170 -1.6171 -0.3670
   28CHL1  H22B 3236   6.504   1.067   4.263 -0.8321  0.9120 -0.7147
   28CHL1   C23 3237   6.417   0.876   4.257  0.1124 -0.1852  0.3304
   28CHL1  H23A 3238   6.502   0.830   4.312  1.9187  0.4063 -1.7896
   28CHL1  H23B 3239   6.322   0.821   4.274  1.1020 -3.0460 -2.2703
   28CHL1   C24 3240   6.450   0.868   4.108 -0.0755  0.0381 -0.1122
   28CHL1  H24A 3241   6.387   0.942   4.054 -1.3471  0.0144  1.2705
   28CHL1  H24B 3242   6.551   0.910   4.092 -0.2681  0.4138 -0.3885
   28CHL1   C25 3243   6.440   0.730   4.040 -0.1152 -0.6053  0.4066
   28CHL1   H25 3244   6.335   0.698   4.057 -1.0227  1.7225 -0.3442
   28CHL1   C26 3245   6.461   0.739   3.886 -0.6271  0.2488 -0.1922
   28CHL1  H26A 3246   6.429   0.639   3.850 -0.9657  0.1769  0.3060
   28CHL1  H26B 3247   6.386   0.808   3.843 -2.5909 -2.4719 -1.3971
   28CHL1  H26C 3248   6.565   0.763   3.855 -0.2168  2.2337  2.3421
   28CHL1   C27 3249   6.541   0.626   4.097 -0.5365 -0.5169  0.1591
   28CHL1  H27A 3250   6.524   0.617   4.206 -1.0150  3.0367  0.4884
   28CHL1  H27B 3251   6.520   0.531   4.042 -1.4212  0.6959 -1.6979
   28CHL1  H27C 3252   6.648   0.650   4.075 -1.0163  1.9418  0.2309
   29CHL1    C3 3253   0.989   1.604   5.392 -0.0278  0.0193  1.3497
   29CHL1    H3 3254   1.040   1.505   5.400 -1.3736 -0.6966  1.4209
   29CHL1    O3 3255   0.957   1.648   5.531  0.2420  0.5165 -0.0320
   29CHL1   H3' 3256   0.894   1.720   5.524  0.3056  0.5976  0.2134
   29CHL1    C4 3257   1.073   1.708   5.317 -0.5405  0.4319 -0.3005
   29CHL1   H4A 3258   1.038   1.814   5.324  0.8180  0.9379 -0.7992
   29CHL1   H4B 3259   1.170   1.714   5.371 -0.8818  2.4370  0.1735
   29CHL1    C5 3260   1.089   1.670   5.167  0.6193 -0.2536  0.3617
   29CHL1    C6 3261   1.206   1.654   5.104 -0.1858  0.3131  0.5997
   29CHL1    H6 3262   1.297   1.667   5.163  1.4253 -2.9940 -0.8693
   29CHL1    C7 3263   1.213   1.605   4.964 -0.3180  0.1533 -0.6548
   29CHL1   H7A 3264   1.310   1.642   4.924 -0.4552  1.2886  0.0299
   29CHL1   H7B 3265   1.225   1.495   4.968 -0.6614 -0.0086 -2.8198
   29CHL1    C8 3266   1.095   1.646   4.876  0.3472  0.4100 -0.1589
   29CHL1    H8 3267   1.091   1.757   4.871 -0.6873  0.6101  2.9739
   29CHL1   C14 3268   1.106   1.578   4.734 -0.2929 -0.2683 -0.1295
   29CHL1   H14 3269   1.119   1.469   4.750  1.3073 -0.0733  0.0656
   29CHL1   C15 3270   1.237   1.627   4.661  0.4551 -0.0004 -0.0091
   29CHL1  H15A 3271   1.235   1.737   4.678  1.5849  0.3239 -1.7167
   29CHL1  H15B 3272   1.333   1.587   4.700  0.8277 -0.3071 -1.2056
   29CHL1   C16 3273   1.210   1.590   4.514  0.3057 -0.2914  0.0263
   29CHL1  H16A 3274   1.231   1.671   4.441 -2.5522 -1.1915 -1.9896
   29CHL1  H16B 3275   1.271   1.501   4.487 -0.7766 -0.4493 -2.1066
   29CHL1   C17 3276   1.049   1.544   4.513 -0.3326 -0.0863 -0.4450
   29CHL1   H17 3277   1.050   1.434   4.529  3.1609 -0.3080 -1.3574
   29CHL1   C13 3278   0.989   1.609   4.644 -0.8253  0.0073 -1.2356
   29CHL1   C18 3279   0.973   1.769   4.628 -0.5527  0.4402 -0.3582
   29CHL1  H18A 3280   0.997   1.828   4.719  1.4753  0.4252 -0.8311
   29CHL1  H18B 3281   1.054   1.800   4.558  0.6377 -1.3890  0.1614
   29CHL1  H18C 3282   0.870   1.790   4.590 -0.7000 -0.2265 -0.3408
   29CHL1   C12 3283   0.863   1.553   4.711 -0.0084  0.1760 -0.7074
   29CHL1  H12A 3284   0.770   1.579   4.656  0.2911  1.9434 -0.4461
   29CHL1  H12B 3285   0.860   1.442   4.709  1.0220  0.1097  0.3654
   29CHL1   C11 3286   0.840   1.609   4.851 -0.1315  0.0358  0.2552
   29CHL1  H11A 3287   0.819   1.718   4.843  1.8508  0.3028 -2.4977
   29CHL1  H11B 3288   0.758   1.558   4.907  0.0846  0.4545  0.9711
   29CHL1    C9 3289   0.967   1.596   4.940  0.4336 -0.3744 -1.3707
   29CHL1    H9 3290   0.982   1.487   4.948  1.4168 -0.1707 -0.1662
   29CHL1   C10 3291   0.953   1.648   5.085  0.2590 -0.0708 -0.4939
   29CHL1   C19 3292   0.882   1.783   5.090  0.4027 -0.8759 -0.0199
   29CHL1  H19A 3293   0.878   1.840   5.185  2.6746  1.5501 -1.2584
   29CHL1  H19B 3294   0.948   1.851   5.032 -0.7720  0.1755 -0.1702
   29CHL1  H19C 3295   0.782   1.781   5.041 -0.5657  0.4027  1.7822
   29CHL1    C1 3296   0.866   1.550   5.169 -0.0045 -0.2560  0.3848
   29CHL1   H1A 3297   0.758   1.554   5.142 -0.4950 -1.7976  1.8799
   29CHL1   H1B 3298   0.912   1.451   5.150  2.1064  0.9949 -1.3996
   29CHL1    C2 3299   0.851   1.579   5.321 -0.1996  0.5387  0.0209
   29CHL1   H2A 3300   0.811   1.489   5.372  0.6773  0.1653  0.0584
   29CHL1   H2B 3301   0.786   1.667   5.344 -0.6422  0.6434 -1.4782
   29CHL1   C20 3302   0.978   1.575   4.383 -0.2704 -0.2030  0.7782
   29CHL1   H20 3303   0.944   1.681   4.381  0.5801  0.0636 -1.2623
   29CHL1   C21 3304   0.848   1.485   4.380 -0.4569 -0.4147 -0.6692
   29CHL1  H21A 3305   0.771   1.517   4.307  0.2578  3.3564  0.0471
   29CHL1  H21B 3306   0.796   1.484   4.479 -0.4064 -0.8589 -0.6445
   29CHL1  H21C 3307   0.872   1.381   4.348  0.1367 -0.3861 -0.3355
   29CHL1   C22 3308   1.063   1.552   4.250  0.8391  0.0552  0.2749
   29CHL1  H22A 3309   1.006   1.586   4.161  2.2127  1.0682 -0.2436
   29CHL1  H22B 3310   1.144   1.627   4.245 -0.9956  2.0724 -1.1317
   29CHL1   C23 3311   1.119   1.411   4.225  0.0996 -0.2178  0.4690
   29CHL1  H23A 3312   1.164   1.365   4.315  1.9233 -1.8460 -1.1682
   29CHL1  H23B 3313   1.029   1.350   4.198  0.4006 -0.2031 -0.6184
   29CHL1   C24 3314   1.209   1.417   4.102  0.0389 -0.8136  0.2170
   29CHL1  H24A 3315   1.158   1.454   4.010  4.5705  1.9210 -1.5361
   29CHL1  H24B 3316   1.291   1.491   4.110 -0.1680 -0.6748  1.0844
   29CHL1   C25 3317   1.269   1.282   4.066  0.0437  0.2158  0.3572
   29CHL1   H25 3318   1.186   1.209   4.077  1.9766 -1.8318  2.3659
   29CHL1   C26 3319   1.316   1.277   3.920  0.0083  0.6130 -0.2948
   29CHL1  H26A 3320   1.384   1.364   3.908  0.2436  0.7169  1.5223
   29CHL1  H26B 3321   1.367   1.181   3.898  1.9681  1.8927 -1.6446
   29CHL1  H26C 3322   1.230   1.291   3.852  0.9821  0.0865 -1.6747
   29CHL1   C27 3323   1.369   1.225   4.165 -0.0186  0.2752 -0.7555
   29CHL1  H27A 3324   1.340   1.210   4.272 -1.0954 -2.9759 -1.3860
   29CHL1  H27B 3325   1.408   1.129   4.125  2.2119  1.1132 -0.7261
   29CHL1  H27C 3326   1.457   1.292   4.173  1.3247 -1.5366  0.4561
   30CHL1    C3 3327   4.468   3.206   5.933 -0.2139  0.0322  0.4408
   30CHL1    H3 3328   4.368   3.159   5.920 -0.3677  0.5563 -0.3826
   30CHL1    O3 3329   4.473   3.262   6.070 -0.2245  0.2141 -0.0731
   30CHL1   H3' 3330   4.567   3.263   6.091 -0.2281  2.8745  0.2528
   30CHL1    C4 3331   4.583   3.114   5.920  0.0040  0.6772 -0.2315
   30CHL1   H4A 3332   4.682   3.160   5.936  2.6881 -4.3608 -0.1768
   30CHL1   H4B 3333   4.579   3.033   5.996  0.1802 -0.8370 -1.7762
   30CHL1    C5 3334   4.581   3.057   5.778  0.7065  0.1008 -0.0663
   30CHL1    C6 3335   4.579   2.924   5.757  1.0189 -0.5458 -0.0101
   30CHL1    H6 3336   4.563   2.867   5.850 -1.8260  0.5834  0.2971
   30CHL1    C7 3337   4.595   2.867   5.623  0.4316 -0.1993  0.7037
   30CHL1   H7A 3338   4.670   2.785   5.619 -1.7739 -2.3720  1.3963
   30CHL1   H7B 3339   4.497   2.819   5.601  0.4435 -0.0567  0.3418
   30CHL1    C8 3340   4.651   2.962   5.511 -0.1509  0.2075  0.3450
   30CHL1    H8 3341   4.761   2.972   5.527  0.0231  1.2714 -1.2562
   30CHL1   C14 3342   4.618   2.908   5.375  0.3152 -0.1786  0.3081
   30CHL1   H14 3343   4.507   2.904   5.375  0.3442 -1.4034 -0.2649
   30CHL1   C15 3344   4.666   2.769   5.343  0.6476  0.1698 -0.1608
   30CHL1  H15A 3345   4.769   2.758   5.382  0.7061  2.3837  0.4506
   30CHL1  H15B 3346   4.612   2.682   5.385 -1.0747  1.0428 -0.4463
   30CHL1   C16 3347   4.665   2.759   5.192  0.9383  0.4338 -0.2729
   30CHL1  H16A 3348   4.766   2.729   5.156  0.0925 -1.9727 -0.8356
   30CHL1  H16B 3349   4.585   2.685   5.169 -1.1144  1.2697  3.4000
   30CHL1   C17 3350   4.646   2.906   5.139 -0.0014 -0.2384 -0.1165
   30CHL1   H17 3351   4.538   2.927   5.128  0.0156 -0.3230 -0.4606
   30CHL1   C13 3352   4.679   2.996   5.262 -0.8365  0.0587  0.3797
   30CHL1   C18 3353   4.832   3.011   5.264 -0.1282  0.1357  0.1697
   30CHL1  H18A 3354   4.881   2.912   5.252  3.0353  1.8436 -2.9826
   30CHL1  H18B 3355   4.861   3.078   5.180  0.9907 -0.7392 -0.1700
   30CHL1  H18C 3356   4.866   3.067   5.353 -0.0483 -0.4458  0.5058
   30CHL1   C12 3357   4.606   3.134   5.269 -0.2889 -0.1854  0.1447
   30CHL1  H12A 3358   4.652   3.204   5.196  0.2375 -0.1269  0.5288
   30CHL1  H12B 3359   4.499   3.122   5.242 -0.5128 -0.1330  0.9769
   30CHL1   C11 3360   4.624   3.202   5.405  0.0856  0.2298 -0.2774
   30CHL1  H11A 3361   4.728   3.242   5.406 -0.6112  2.2231  1.8035
   30CHL1  H11B 3362   4.549   3.283   5.418 -0.3231 -0.1364 -0.3635
   30CHL1    C9 3363   4.589   3.100   5.523 -0.1928 -0.2525 -0.1996
   30CHL1    H9 3364   4.481   3.082   5.507  0.0925 -0.0692 -2.9246
   30CHL1   C10 3365   4.600   3.160   5.666  0.4574  0.3312 -0.0705
   30CHL1   C19 3366   4.743   3.219   5.677 -0.7820  0.0149  0.7770
   30CHL1  H19A 3367   4.770   3.296   5.601 -1.8288  2.0943  2.3814
   30CHL1  H19B 3368   4.760   3.261   5.778  0.1571 -2.0772  1.5275
   30CHL1  H19C 3369   4.805   3.127   5.678 -3.3862 -1.8460  2.0375
   30CHL1    C1 3370   4.497   3.272   5.680 -0.5789  0.0353  0.1115
   30CHL1   H1A 3371   4.542   3.361   5.633  1.0313  0.2902  2.0082
   30CHL1   H1B 3372   4.401   3.255   5.626  0.7730 -1.2129 -2.0507
   30CHL1    C2 3373   4.472   3.318   5.828 -0.1923  0.4239  0.0876
   30CHL1   H2A 3374   4.381   3.382   5.829  0.2853  1.1628 -1.2337
   30CHL1   H2B 3375   4.558   3.386   5.848  0.3503 -0.3965  0.6047
   30CHL1   C20 3376   4.710   2.927   4.996  0.8319 -0.0915  0.7867
   30CHL1   H20 3377   4.817   2.899   5.007 -0.0428 -3.3727  2.2478
   30CHL1   C21 3378   4.688   3.073   4.944  0.4857  0.3460  0.0302
   30CHL1  H21A 3379   4.582   3.092   4.917 -0.8336 -3.9030  1.3690
   30CHL1  H21B 3380   4.751   3.085   4.854 -0.3231  1.3762 -0.4051
   30CHL1  H21C 3381   4.722   3.152   5.015 -1.1759  1.5301 -0.4361
   30CHL1   C22 3382   4.644   2.834   4.881 -0.8048 -0.5157 -0.3705
   30CHL1  H22A 3383   4.643   2.726   4.909  4.4845 -1.2002 -1.6152
   30CHL1  H22B 3384   4.544   2.878   4.866  0.6338  3.1618 -0.1773
   30CHL1   C23 3385   4.713   2.835   4.747 -0.3049 -0.2729 -0.4856
   30CHL1  H23A 3386   4.701   2.935   4.700  2.2468  0.6857  0.6851
   30CHL1  H23B 3387   4.823   2.824   4.765 -0.2280  2.0847  0.9974
   30CHL1   C24 3388   4.664   2.719   4.662 -0.1340  0.4388 -0.4464
   30CHL1  H24A 3389   4.663   2.627   4.725  1.7075  1.0685  0.5900
   30CHL1  H24B 3390   4.567   2.745   4.616 -0.5085 -2.0877 -1.2366
   30CHL1   C25 3391   4.759   2.692   4.543 -0.4264  0.1652  0.5811
   30CHL1   H25 3392   4.866   2.688   4.574 -0.0509 -0.8746 -0.7747
   30CHL1   C26 3393   4.723   2.560   4.471  0.8398 -0.1094 -0.7732
   30CHL1  H26A 3394   4.679   2.497   4.551  0.6746  0.6767 -0.2333
   30CHL1  H26B 3395   4.640   2.580   4.399  2.1573  0.7517 -2.1329
   30CHL1  H26C 3396   4.808   2.502   4.430  0.6992 -0.8698 -0.0050
   30CHL1   C27 3397   4.752   2.808   4.433 -0.1542  0.6295 -0.6100
   30CHL1  H27A 3398   4.740   2.910   4.476 -1.4450 -0.3858  1.6508
   30CHL1  H27B 3399   4.835   2.808   4.359  0.0436  2.0207 -0.4100
   30CHL1  H27C 3400   4.671   2.786   4.360  1.5984  1.1831 -2.8319
   31CHL1    C3 3401   2.470   2.726   5.762 -1.0344 -0.2428  0.0269
   31CHL1    H3 3402   2.414   2.821   5.770 -0.2304  0.4407 -2.0168
   31CHL1    O3 3403   2.500   2.678   5.892  0.0368  0.2763  0.8681
   31CHL1   H3' 3404   2.535   2.753   5.941 -1.7380 -0.1666  2.9970
   31CHL1    C4 3405   2.403   2.604   5.690 -0.1225 -0.5357  0.1716
   31CHL1   H4A 3406   2.468   2.513   5.689  2.0154  0.8963 -1.6452
   31CHL1   H4B 3407   2.314   2.575   5.750 -1.0937 -1.6683 -1.7094
   31CHL1    C5 3408   2.370   2.643   5.546  0.5431  0.6879  0.4476
   31CHL1    C6 3409   2.239   2.645   5.510 -0.1688  0.4433  0.3622
   31CHL1    H6 3410   2.162   2.602   5.575 -1.2489  0.2427 -0.9979
   31CHL1    C7 3411   2.203   2.686   5.371  0.4425  0.1445  0.5616
   31CHL1   H7A 3412   2.126   2.612   5.338  1.1891 -0.5094  0.2653
   31CHL1   H7B 3413   2.161   2.788   5.379 -1.7075 -0.5735 -0.7684
   31CHL1    C8 3414   2.311   2.687   5.261 -0.0060 -0.3824 -0.0535
   31CHL1    H8 3415   2.344   2.585   5.232 -0.8837  0.0744 -2.9840
   31CHL1   C14 3416   2.262   2.759   5.136  0.0674 -0.1557  0.0169
   31CHL1   H14 3417   2.243   2.864   5.167  2.5626  0.6678 -0.9466
   31CHL1   C15 3418   2.148   2.697   5.056  0.4646  0.0247  0.0501
   31CHL1  H15A 3419   2.150   2.587   5.043  2.0416 -0.1738  1.6497
   31CHL1  H15B 3420   2.048   2.723   5.097  0.3379 -0.0815 -0.1898
   31CHL1   C16 3421   2.166   2.752   4.911 -0.1994  0.4461  0.0764
   31CHL1  H16A 3422   2.186   2.673   4.836 -0.4527  0.6643 -0.2227
   31CHL1  H16B 3423   2.078   2.814   4.882 -0.6666 -0.8709 -1.4804
   31CHL1   C17 3424   2.290   2.847   4.915  0.0733  0.0289 -0.1723
   31CHL1   H17 3425   2.247   2.942   4.953  0.3265 -0.4321  1.3297
   31CHL1   C13 3426   2.374   2.784   5.028 -0.2226 -0.1647  0.0030
   31CHL1   C18 3427   2.437   2.648   4.983  0.1868 -0.5546  0.3832
   31CHL1  H18A 3428   2.360   2.585   4.934 -0.6450  1.3842 -0.9319
   31CHL1  H18B 3429   2.528   2.655   4.920 -0.0663 -1.3235 -0.0782
   31CHL1  H18C 3430   2.475   2.597   5.074 -0.4144  0.3384  1.1597
   31CHL1   C12 3431   2.479   2.881   5.087  0.0741  0.1240 -1.1561
   31CHL1  H12A 3432   2.564   2.902   5.018  0.3810 -0.2880 -0.9093
   31CHL1  H12B 3433   2.418   2.970   5.113  0.8357 -0.0959  1.7496
   31CHL1   C11 3434   2.533   2.812   5.218 -0.6054 -0.0068 -0.1588
   31CHL1  H11A 3435   2.597   2.727   5.187 -0.2885 -0.3986  1.4753
   31CHL1  H11B 3436   2.605   2.884   5.261  1.8612 -1.4601 -1.6116
   31CHL1    C9 3437   2.426   2.763   5.321  0.2082  0.4605 -0.0243
   31CHL1    H9 3438   2.383   2.860   5.353 -2.4021 -0.7383  0.3751
   31CHL1   C10 3439   2.481   2.695   5.456 -0.3598  0.1195 -0.1215
   31CHL1   C19 3440   2.581   2.583   5.415  0.7392 -0.5461 -0.1534
   31CHL1  H19A 3441   2.551   2.528   5.323  2.7210 -0.5330 -0.8749
   31CHL1  H19B 3442   2.678   2.631   5.385 -0.3000  1.6981 -0.1692
   31CHL1  H19C 3443   2.611   2.516   5.498  2.4856  0.5152  0.1209
   31CHL1    C1 3444   2.560   2.804   5.542 -0.9064  0.5275  0.6905
   31CHL1   H1A 3445   2.653   2.830   5.487 -1.6978  0.7342 -0.5888
   31CHL1   H1B 3446   2.495   2.894   5.552  0.1083  1.3787 -0.1588
   31CHL1    C2 3447   2.601   2.774   5.688 -0.5999  0.2281 -0.0358
   31CHL1   H2A 3448   2.657   2.846   5.751  1.2148 -1.5338  0.4665
   31CHL1   H2B 3449   2.672   2.688   5.680  0.0943  0.7895  0.0131
   31CHL1   C20 3450   2.361   2.883   4.787  0.3433 -0.3079  0.2228
   31CHL1   H20 3451   2.469   2.898   4.805 -0.0437  2.2659  0.8745
   31CHL1   C21 3452   2.296   3.015   4.737 -0.4883 -0.0692  0.6469
   31CHL1  H21A 3453   2.353   3.038   4.645  2.0869 -3.7144  1.0935
   31CHL1  H21B 3454   2.314   3.097   4.810 -0.9281  0.6628 -0.0461
   31CHL1  H21C 3455   2.187   3.009   4.718 -0.1628 -0.5721 -1.2405
   31CHL1   C22 3456   2.360   2.774   4.671  0.7678 -0.1968 -0.3598
   31CHL1  H22A 3457   2.402   2.679   4.710 -2.0448 -0.4812  2.3601
   31CHL1  H22B 3458   2.258   2.744   4.640  1.4506 -3.3426  0.0538
   31CHL1   C23 3459   2.436   2.804   4.539 -0.7858  0.3989 -0.1496
   31CHL1  H23A 3460   2.421   2.715   4.475 -0.3704  0.2926 -0.1057
   31CHL1  H23B 3461   2.396   2.892   4.485 -1.0288  0.8256  0.6976
   31CHL1   C24 3462   2.581   2.847   4.571  0.2216  0.4604  0.1283
   31CHL1  H24A 3463   2.580   2.943   4.627 -0.6684 -0.4130  1.7016
   31CHL1  H24B 3464   2.641   2.770   4.624  1.3540  1.5487  0.4478
   31CHL1   C25 3465   2.668   2.876   4.445 -0.0045 -0.4353 -0.3921
   31CHL1   H25 3466   2.773   2.897   4.472 -0.6827  1.7285  0.8119
   31CHL1   C26 3467   2.666   2.760   4.338 -0.2670  0.1142 -0.3411
   31CHL1  H26A 3468   2.565   2.746   4.294 -1.1751 -1.6831  2.0747
   31CHL1  H26B 3469   2.732   2.787   4.253 -0.1284 -3.2724 -1.4697
   31CHL1  H26C 3470   2.680   2.656   4.375 -0.6090  0.6134  1.2749
   31CHL1   C27 3471   2.618   3.010   4.373 -0.7112 -0.1134 -0.6182
   31CHL1  H27A 3472   2.691   3.027   4.290  3.0568  0.3350  2.4806
   31CHL1  H27B 3473   2.516   2.993   4.335  0.0922 -1.0195 -2.5078
   31CHL1  H27C 3474   2.631   3.103   4.433 -2.7236 -0.6028  0.6557
   32CHL1    C3 3475   3.892   2.123   5.765 -0.0596 -0.2903 -0.3919
   32CHL1    H3 3476   3.859   2.024   5.802 -0.3091 -0.6216 -1.4686
   32CHL1    O3 3477   3.920   2.208   5.871  0.1904 -0.0933  0.4742
   32CHL1   H3' 3478   3.835   2.224   5.914  0.5777 -0.0830  1.2336
   32CHL1    C4 3479   4.019   2.116   5.669 -0.3985  0.0299 -0.2155
   32CHL1   H4A 3480   4.055   2.220   5.656  0.5076  0.6149  4.8847
   32CHL1   H4B 3481   4.100   2.065   5.726 -0.8750  1.5323  1.9500
   32CHL1    C5 3482   3.990   2.045   5.539  0.7720 -0.1396  0.0508
   32CHL1    C6 3483   4.054   1.933   5.501 -0.6179  0.0461 -0.2618
   32CHL1    H6 3484   4.136   1.890   5.559  1.1093  1.2472 -1.7043
   32CHL1    C7 3485   4.025   1.852   5.381 -0.4679  0.4863  0.2038
   32CHL1   H7A 3486   4.120   1.815   5.337  1.9676  2.3720  3.4511
   32CHL1   H7B 3487   3.964   1.765   5.414 -2.6922  1.8246 -0.1604
   32CHL1    C8 3488   3.936   1.928   5.280 -0.2854 -0.4393 -0.1141
   32CHL1    H8 3489   3.993   2.003   5.220 -0.6452  2.4929  2.9440
   32CHL1   C14 3490   3.873   1.831   5.170 -0.1187  0.0772  0.1398
   32CHL1   H14 3491   3.807   1.771   5.237  0.3665  1.9448  2.4391
   32CHL1   C15 3492   3.966   1.742   5.086  0.8359 -0.6735 -0.5593
   32CHL1  H15A 3493   4.045   1.812   5.051 -1.6130  1.1779 -2.8312
   32CHL1  H15B 3494   4.001   1.667   5.160  0.1043  0.7037  1.2617
   32CHL1   C16 3495   3.885   1.690   4.967  0.1373  0.2090  0.2458
   32CHL1  H16A 3496   3.938   1.702   4.870 -0.9040 -0.1847 -0.3956
   32CHL1  H16B 3497   3.856   1.584   4.984 -1.1752  0.7688  1.7218
   32CHL1   C17 3498   3.748   1.776   4.976 -0.5975  0.3574 -0.2899
   32CHL1   H17 3499   3.686   1.706   5.035 -1.5638 -1.5607 -3.3513
   32CHL1   C13 3500   3.778   1.896   5.068 -0.0156  0.0478 -0.3664
   32CHL1   C18 3501   3.849   2.004   4.991 -0.2821 -1.0082 -0.6977
   32CHL1  H18A 3502   3.936   1.974   4.929 -1.1832 -0.7555 -2.1320
   32CHL1  H18B 3503   3.785   2.071   4.929  2.3166  1.0747 -1.3470
   32CHL1  H18C 3504   3.895   2.067   5.070 -1.1591 -1.2649  0.0228
   32CHL1   C12 3505   3.664   1.962   5.147  0.2654  0.1771 -0.4240
   32CHL1  H12A 3506   3.586   2.011   5.086 -0.4815 -0.6771 -0.1812
   32CHL1  H12B 3507   3.609   1.886   5.207  2.0184  0.9862  2.3857
   32CHL1   C11 3508   3.720   2.072   5.246  0.6843  0.5329  0.1640
   32CHL1  H11A 3509   3.763   2.155   5.186 -0.1381  0.0698 -1.0952
   32CHL1  H11B 3510   3.641   2.122   5.305 -0.2105  0.8002 -1.2252
   32CHL1    C9 3511   3.824   2.011   5.339 -0.7122  0.9534 -0.6431
   32CHL1    H9 3512   3.762   1.935   5.391  2.9916 -3.0011 -1.5273
   32CHL1   C10 3513   3.872   2.103   5.453 -0.2982 -0.2877 -0.9060
   32CHL1   C19 3514   3.917   2.243   5.408  0.3450 -0.0003  0.2900
   32CHL1  H19A 3515   3.849   2.283   5.330 -0.6173  1.0247  1.6031
   32CHL1  H19B 3516   3.950   2.310   5.491  1.2338  0.0861 -0.1227
   32CHL1  H19C 3517   4.010   2.230   5.349 -0.9426  0.6603 -1.9731
   32CHL1    C1 3518   3.751   2.119   5.545 -0.1833 -0.3506 -0.3758
   32CHL1   H1A 3519   3.670   2.173   5.492 -0.0059 -1.7393 -2.1563
   32CHL1   H1B 3520   3.701   2.022   5.566 -1.8983  0.5113 -0.3058
   32CHL1    C2 3521   3.775   2.186   5.684  0.5823 -0.0821  0.6016
   32CHL1   H2A 3522   3.678   2.179   5.737  0.6125 -1.3786  0.5200
   32CHL1   H2B 3523   3.792   2.295   5.670  0.3569  0.0585  1.3386
   32CHL1   C20 3524   3.680   1.798   4.841 -0.4992 -0.0464 -0.0707
   32CHL1   H20 3525   3.744   1.856   4.771 -0.0943 -0.9830 -0.4907
   32CHL1   C21 3526   3.553   1.890   4.854 -0.0931 -0.1898 -0.7747
   32CHL1  H21A 3527   3.572   1.998   4.876  0.3511 -0.4981  0.4188
   32CHL1  H21B 3528   3.482   1.852   4.930 -0.5381  0.7021 -0.7211
   32CHL1  H21C 3529   3.494   1.883   4.760  0.7217  2.9585 -1.6700
   32CHL1   C22 3530   3.661   1.665   4.767  0.2652 -0.1049 -0.0240
   32CHL1  H22A 3531   3.747   1.597   4.783  1.4821  1.2343 -0.6145
   32CHL1  H22B 3532   3.568   1.608   4.787  0.2875 -0.1202  0.0352
   32CHL1   C23 3533   3.654   1.691   4.613  0.1422  0.2684  0.0363
   32CHL1  H23A 3534   3.623   1.595   4.566 -0.2212  0.6448 -0.5016
   32CHL1  H23B 3535   3.581   1.774   4.604  0.5568  0.6123 -0.2039
   32CHL1   C24 3536   3.788   1.729   4.553 -0.0024 -0.7197 -0.1942
   32CHL1  H24A 3537   3.828   1.826   4.589  0.8931 -1.2335  0.2246
   32CHL1  H24B 3538   3.862   1.656   4.591  1.9083  0.4230 -1.5452
   32CHL1   C25 3539   3.784   1.729   4.399  0.0645  0.6272 -0.4375
   32CHL1   H25 3540   3.688   1.683   4.369  0.0769 -0.0229  0.4924
   32CHL1   C26 3541   3.774   1.876   4.348 -0.6953 -0.0503 -0.1251
   32CHL1  H26A 3542   3.699   1.928   4.411 -2.0589 -1.4206 -0.5549
   32CHL1  H26B 3543   3.874   1.922   4.360  1.2925 -3.8545 -0.7826
   32CHL1  H26C 3544   3.740   1.881   4.243 -0.7480  2.4449 -0.0588
   32CHL1   C27 3545   3.896   1.651   4.339  0.1514  0.2393  0.1691
   32CHL1  H27A 3546   3.993   1.704   4.337 -0.7371  1.9116 -0.6466
   32CHL1  H27B 3547   3.924   1.561   4.398 -0.1551 -1.1181 -1.6933
   32CHL1  H27C 3548   3.870   1.620   4.236 -0.4321 -0.6164  0.5598
   33CHL1    C3 3549   1.084   1.116   5.522  0.2659  0.0879  0.1090
   33CHL1    H3 3550   1.004   1.040   5.512 -3.6597  3.7693  0.8814
   33CHL1    O3 3551   1.095   1.152   5.659 -0.5474 -0.4578  0.2388
   33CHL1   H3' 3552   1.178   1.201   5.660 -0.0130 -1.2720 -0.9927
   33CHL1    C4 3553   1.223   1.067   5.471  1.5415 -0.0767 -1.5480
   33CHL1   H4A 3554   1.289   1.155   5.481  0.4382  0.4951  2.8067
   33CHL1   H4B 3555   1.260   0.992   5.544 -0.6427  1.4466  1.3851
   33CHL1    C5 3556   1.216   1.023   5.324  0.0099 -0.7992  0.1818
   33CHL1    C6 3557   1.255   0.908   5.283 -0.7518  0.7133  0.2147
   33CHL1    H6 3558   1.302   0.839   5.355 -2.4018 -0.1458  0.5103
   33CHL1    C7 3559   1.245   0.862   5.139 -0.1778 -0.2881  0.6934
   33CHL1   H7A 3560   1.334   0.804   5.107  0.9789  1.2625  1.0349
   33CHL1   H7B 3561   1.155   0.796   5.134  0.3422 -0.9197 -1.5446
   33CHL1    C8 3562   1.211   0.980   5.035  0.2569 -0.1112  0.3340
   33CHL1    H8 3563   1.299   1.042   5.009 -0.6755  0.0097 -3.0220
   33CHL1   C14 3564   1.154   0.926   4.901  0.2895  0.7934  0.3531
   33CHL1   H14 3565   1.053   0.886   4.925 -0.4178  2.2837 -0.0244
   33CHL1   C15 3566   1.225   0.814   4.829 -0.5109 -0.5772  0.1066
   33CHL1  H15A 3567   1.332   0.838   4.815 -0.5030 -1.6743 -2.2956
   33CHL1  H15B 3568   1.212   0.716   4.880 -1.7056 -1.3290 -1.5239
   33CHL1   C16 3569   1.178   0.821   4.681  0.0924  0.3447  0.2287
   33CHL1  H16A 3570   1.269   0.813   4.618 -0.9174  1.6685 -1.4867
   33CHL1  H16B 3571   1.117   0.731   4.659 -0.4517  0.2955  1.8437
   33CHL1   C17 3572   1.092   0.949   4.667 -0.7803  1.0861 -0.1831
   33CHL1   H17 3573   0.985   0.919   4.674 -1.0276  1.4145 -1.9859
   33CHL1   C13 3574   1.125   1.028   4.796 -0.6290 -0.3068  0.1492
   33CHL1   C18 3575   1.258   1.108   4.756  0.3135 -0.3129 -0.3645
   33CHL1  H18A 3576   1.303   1.164   4.842 -1.7682 -1.2674  1.4251
   33CHL1  H18B 3577   1.335   1.040   4.712 -1.6865 -2.7552 -0.2893
   33CHL1  H18C 3578   1.234   1.188   4.682  2.5527  0.9288  0.1333
   33CHL1   C12 3579   1.023   1.120   4.857 -0.0703 -0.8296  0.3830
   33CHL1  H12A 3580   1.004   1.206   4.789 -0.9153 -1.8217 -0.6758
   33CHL1  H12B 3581   0.925   1.069   4.872 -1.1774  1.1815  0.2815
   33CHL1   C11 3582   1.071   1.183   4.991 -0.4085  0.8103  0.2819
   33CHL1  H11A 3583   1.146   1.264   4.979  1.3833 -0.9063 -0.5896
   33CHL1  H11B 3584   0.982   1.235   5.033 -2.6982 -1.6005 -1.2551
   33CHL1    C9 3585   1.114   1.076   5.099 -0.1402  0.4098  0.3227
   33CHL1    H9 3586   1.020   1.016   5.109 -1.3874  2.2453  0.1370
   33CHL1   C10 3587   1.157   1.132   5.234 -0.3494 -0.8087 -0.5586
   33CHL1   C19 3588   1.263   1.248   5.214  0.7886 -0.0122 -0.3567
   33CHL1  H19A 3589   1.201   1.330   5.173  0.2561  0.5857  1.5438
   33CHL1  H19B 3590   1.302   1.297   5.306  0.6253  0.3430 -0.4768
   33CHL1  H19C 3591   1.331   1.214   5.133  2.1815 -1.5690  1.3851
   33CHL1    C1 3592   1.024   1.183   5.295  0.2831 -0.2490  0.3608
   33CHL1   H1A 3593   1.003   1.275   5.235 -0.0314  0.3277  1.3331
   33CHL1   H1B 3594   0.934   1.118   5.293 -2.0701  2.7854 -1.0444
   33CHL1    C2 3595   1.037   1.232   5.437  0.1239 -0.0367  0.6883
   33CHL1   H2A 3596   0.938   1.261   5.478 -0.4221  0.2334 -0.7649
   33CHL1   H2B 3597   1.114   1.313   5.445  0.6919 -0.3038 -1.4454
   33CHL1   C20 3598   1.108   1.012   4.525 -0.4974  0.5674 -0.4713
   33CHL1   H20 3599   1.214   1.034   4.501  0.0029 -0.1906  0.9408
   33CHL1   C21 3600   1.008   1.131   4.520 -0.3338  0.1078 -0.1183
   33CHL1  H21A 3601   0.900   1.109   4.537 -0.7791 -0.9488 -3.5149
   33CHL1  H21B 3602   1.002   1.183   4.422 -0.3708 -0.2402 -0.3037
   33CHL1  H21C 3603   1.053   1.203   4.592 -0.5323 -1.2305  1.3944
   33CHL1   C22 3604   1.063   0.914   4.406 -0.4439  0.5445  0.2636
   33CHL1  H22A 3605   1.125   0.822   4.411 -0.4170  0.6007  0.9652
   33CHL1  H22B 3606   0.957   0.891   4.432 -0.3582 -0.4525 -0.2058
   33CHL1   C23 3607   1.070   0.968   4.257 -0.3629  0.6466  0.2529
   33CHL1  H23A 3608   0.990   1.044   4.249  0.5344  1.7274  1.1564
   33CHL1  H23B 3609   1.167   1.019   4.239  0.4484 -0.2901  1.7344
   33CHL1   C24 3610   1.052   0.861   4.152 -0.5739 -0.7170 -0.1670
   33CHL1  H24A 3611   1.122   0.775   4.156 -0.4481 -0.7783 -2.5063
   33CHL1  H24B 3612   0.950   0.816   4.151 -0.3976 -1.1619  0.6843
   33CHL1   C25 3613   1.078   0.929   4.010 -0.2361  0.6934  0.5629
   33CHL1   H25 3614   1.174   0.983   4.018 -0.3007  1.4469 -2.4716
   33CHL1   C26 3615   1.106   0.827   3.897 -0.2077  0.0022 -0.4457
   33CHL1  H26A 3616   1.023   0.756   3.873  0.3385 -0.2704 -1.5703
   33CHL1  H26B 3617   1.123   0.893   3.809  0.5127  1.6481  0.8682
   33CHL1  H26C 3618   1.198   0.768   3.919 -0.9530 -1.3252 -0.8036
   33CHL1   C27 3619   0.970   1.020   3.964 -0.1611  0.6058  0.6469
   33CHL1  H27A 3620   1.013   1.090   3.890  1.4095 -0.4071  0.5521
   33CHL1  H27B 3621   0.884   0.975   3.910 -0.4023  2.1912 -0.3485
   33CHL1  H27C 3622   0.923   1.073   4.050 -1.1021 -1.3703  1.4318
   34CHL1    C3 3623   3.324   3.396   5.835  0.1930 -1.0114  0.4214
   34CHL1    H3 3624   3.226   3.430   5.795  0.6660 -0.2422 -0.1037
   34CHL1    O3 3625   3.337   3.434   5.972 -0.2071 -0.3324 -0.1538
   34CHL1   H3' 3626   3.412   3.383   6.003 -0.2901 -1.8075 -2.1840
   34CHL1    C4 3627   3.334   3.240   5.823  0.6312  0.5707  0.1599
   34CHL1   H4A 3628   3.424   3.212   5.881 -1.2432 -1.2329  2.3962
   34CHL1   H4B 3629   3.247   3.192   5.872  3.3189 -2.7398  2.1029
   34CHL1    C5 3630   3.342   3.193   5.681 -0.2718  0.6286  0.3031
   34CHL1    C6 3631   3.250   3.102   5.636 -0.0765 -0.1267  0.2286
   34CHL1    H6 3632   3.175   3.068   5.709  0.3712  0.3226  0.9138
   34CHL1    C7 3633   3.267   3.044   5.498  0.8242 -0.6718 -0.1440
   34CHL1   H7A 3634   3.240   2.937   5.514 -0.3887 -0.5423 -1.1647
   34CHL1   H7B 3635   3.198   3.087   5.422  2.3467 -0.4978 -1.4717
   34CHL1    C8 3636   3.412   3.076   5.441 -0.0035  0.5741 -0.7116
   34CHL1    H8 3637   3.490   3.013   5.489  1.8274 -0.0774 -4.2260
   34CHL1   C14 3638   3.410   3.029   5.299  0.6912 -0.1563  0.3792
   34CHL1   H14 3639   3.324   3.083   5.252 -0.4640 -0.8812  1.5786
   34CHL1   C15 3640   3.362   2.895   5.268  0.6347 -0.5949  0.7237
   34CHL1  H15A 3641   3.419   2.822   5.330 -1.7331 -0.5087  3.1575
   34CHL1  H15B 3642   3.255   2.871   5.282  0.3847  0.8433  1.4044
   34CHL1   C16 3643   3.399   2.877   5.111 -0.5065 -0.0899 -0.1837
   34CHL1  H16A 3644   3.461   2.786   5.096  0.4941  0.3710  1.0336
   34CHL1  H16B 3645   3.305   2.880   5.053 -0.2269 -0.7995 -0.6917
   34CHL1   C17 3646   3.476   3.004   5.075 -0.2352 -0.4479  0.3950
   34CHL1   H17 3647   3.403   3.080   5.043  0.3104  0.1271  0.4933
   34CHL1   C13 3648   3.527   3.063   5.210 -0.3033  0.6212 -0.5342
   34CHL1   C18 3649   3.647   2.986   5.265 -0.2040  0.7521 -0.0724
   34CHL1  H18A 3650   3.661   3.002   5.374 -0.5025 -0.4475  0.1599
   34CHL1  H18B 3651   3.630   2.876   5.256  2.2319  0.2564  0.4695
   34CHL1  H18C 3652   3.738   3.018   5.209  0.0584  0.9986  0.4898
   34CHL1   C12 3653   3.559   3.213   5.215 -0.2592  0.3197  0.1053
   34CHL1  H12A 3654   3.658   3.225   5.166 -1.6448  0.5828 -2.8794
   34CHL1  H12B 3655   3.483   3.281   5.170 -0.9510 -1.3501 -1.3463
   34CHL1   C11 3656   3.567   3.257   5.365 -0.2822  0.3599  0.1516
   34CHL1  H11A 3657   3.664   3.216   5.399 -1.2973 -0.7441  1.8491
   34CHL1  H11B 3658   3.569   3.368   5.359 -2.0291  0.5133  1.5336
   34CHL1    C9 3659   3.442   3.225   5.448  0.5893  0.5397  0.3074
   34CHL1    H9 3660   3.349   3.267   5.405  0.7792  2.3875  1.5709
   34CHL1   C10 3661   3.450   3.267   5.595  0.3896 -0.1000 -0.2466
   34CHL1   C19 3662   3.595   3.218   5.646 -0.1817 -0.5332 -0.0173
   34CHL1  H19A 3663   3.623   3.115   5.617  4.9427  0.9429 -1.1989
   34CHL1  H19B 3664   3.671   3.286   5.603 -0.5944  0.0108  0.0958
   34CHL1  H19C 3665   3.604   3.203   5.756 -0.3725 -1.1397 -0.0790
   34CHL1    C1 3666   3.439   3.420   5.597 -0.0142 -0.1514 -0.7507
   34CHL1   H1A 3667   3.538   3.451   5.556  0.8187 -1.1971  0.4081
   34CHL1   H1B 3668   3.350   3.468   5.552 -0.7928  0.9808  1.8471
   34CHL1    C2 3669   3.436   3.465   5.749 -1.1772  0.6223 -0.1528
   34CHL1   H2A 3670   3.430   3.576   5.757  0.3562  0.6531  1.2595
   34CHL1   H2B 3671   3.539   3.439   5.782 -1.4510 -2.1179 -1.1629
   34CHL1   C20 3672   3.571   2.994   4.951  0.0497  1.2648 -0.5006
   34CHL1   H20 3673   3.663   2.936   4.975 -1.8964 -2.0225 -0.3565
   34CHL1   C21 3674   3.601   3.136   4.905  0.2006  0.1209 -0.1396
   34CHL1  H21A 3675   3.641   3.135   4.802 -0.6254 -0.9606 -0.4693
   34CHL1  H21B 3676   3.669   3.190   4.974 -2.0155  0.4350  1.9269
   34CHL1  H21C 3677   3.506   3.193   4.898 -0.6707 -1.2656  0.1129
   34CHL1   C22 3678   3.527   2.891   4.842 -0.0332  0.4986 -0.7940
   34CHL1  H22A 3679   3.502   2.793   4.888  1.6069 -0.0793 -1.0693
   34CHL1  H22B 3680   3.435   2.930   4.793 -0.3848 -0.3540 -0.8423
   34CHL1   C23 3681   3.616   2.857   4.720  1.0138 -0.4618 -0.1487
   34CHL1  H23A 3682   3.631   2.958   4.675  2.2930 -0.3571  0.4883
   34CHL1  H23B 3683   3.710   2.829   4.770  0.1341 -0.3127  1.6752
   34CHL1   C24 3684   3.553   2.761   4.617 -0.4345 -0.8212 -0.1789
   34CHL1  H24A 3685   3.550   2.659   4.660  0.6901 -0.1090  1.7046
   34CHL1  H24B 3686   3.450   2.789   4.587 -0.1142  0.8948  0.2124
   34CHL1   C25 3687   3.634   2.763   4.486 -0.4230 -0.8217  0.0746
   34CHL1   H25 3688   3.640   2.867   4.448  4.0874 -0.3090  1.6165
   34CHL1   C26 3689   3.777   2.724   4.510 -0.9379  0.0486  0.3851
   34CHL1  H26A 3690   3.828   2.788   4.585  0.1246 -2.1297  1.6300
   34CHL1  H26B 3691   3.784   2.619   4.545  0.2346 -0.7262 -1.9981
   34CHL1  H26C 3692   3.833   2.725   4.414 -1.3680 -0.2569  0.1253
   34CHL1   C27 3693   3.574   2.669   4.386  0.2545 -0.1843 -0.1851
   34CHL1  H27A 3694   3.606   2.565   4.411  2.6747 -0.0635 -2.4155
   34CHL1  H27B 3695   3.463   2.681   4.394  0.4586  0.7377  2.9210
   34CHL1  H27C 3696   3.617   2.689   4.286  0.9760  1.4407  0.4076
   35CHL1    C3 3697   5.277   5.929   5.802  0.2144  0.7040 -0.4501
   35CHL1    H3 3698   5.197   5.998   5.836 -0.7006 -0.3281 -0.4548
   35CHL1    O3 3699   5.375   5.898   5.908  0.0715 -0.6314 -0.1574
   35CHL1   H3' 3700   5.458   5.946   5.910 -0.2885 -0.0200  0.4827
   35CHL1    C4 3701   5.201   5.797   5.767  0.1192  0.2850  0.3617
   35CHL1   H4A 3702   5.272   5.720   5.731 -0.4801  0.4357 -1.2480
   35CHL1   H4B 3703   5.159   5.760   5.863 -0.0393  0.2256  0.2706
   35CHL1    C5 3704   5.095   5.826   5.662  0.0634  1.2399  0.4612
   35CHL1    C6 3705   4.966   5.797   5.684 -0.2495 -0.5339  0.1806
   35CHL1    H6 3706   4.942   5.748   5.779  2.1988  0.5094  1.4084
   35CHL1    C7 3707   4.854   5.824   5.581  0.0875 -0.0772  0.1237
   35CHL1   H7A 3708   4.784   5.738   5.584 -0.3280  0.2814  0.9464
   35CHL1   H7B 3709   4.803   5.917   5.614  2.0072  0.7420  0.9429
   35CHL1    C8 3710   4.899   5.859   5.441  0.2776 -0.3523  0.6923
   35CHL1    H8 3711   4.928   5.760   5.400 -1.2986 -0.6751  0.2854
   35CHL1   C14 3712   4.792   5.928   5.373 -0.1300 -0.2719 -0.5336
   35CHL1   H14 3713   4.778   6.020   5.433 -0.5074 -0.6541 -0.0274
   35CHL1   C15 3714   4.656   5.847   5.364  0.2610 -0.3013  0.1524
   35CHL1  H15A 3715   4.664   5.738   5.344  0.8604 -0.1560 -0.4405
   35CHL1  H15B 3716   4.586   5.874   5.447 -2.5180 -0.5575 -1.9476
   35CHL1   C16 3717   4.586   5.910   5.240 -0.4872  0.1709  0.2739
   35CHL1  H16A 3718   4.568   5.830   5.165 -2.5401 -1.9580  2.8033
   35CHL1  H16B 3719   4.481   5.937   5.264 -0.4401 -0.6157  1.4451
   35CHL1   C17 3720   4.685   6.015   5.184 -0.2286 -0.3115  0.2579
   35CHL1   H17 3721   4.670   6.113   5.232  1.0224 -1.1521  2.5079
   35CHL1   C13 3722   4.822   5.964   5.230  0.0133  0.3277  0.0120
   35CHL1   C18 3723   4.856   5.841   5.150 -0.4041 -0.0074 -0.2671
   35CHL1  H18A 3724   4.946   5.789   5.190 -0.6984  0.4656  1.0392
   35CHL1  H18B 3725   4.775   5.765   5.145  1.6803 -2.4039  0.0319
   35CHL1  H18C 3726   4.884   5.870   5.046  0.8277  2.8725  0.7751
   35CHL1   C12 3727   4.947   6.054   5.219 -0.0470  0.0244 -0.2692
   35CHL1  H12A 3728   4.979   6.085   5.117  0.8169  0.7731  0.2165
   35CHL1  H12B 3729   4.903   6.143   5.270  0.2574  0.8330 -1.3679
   35CHL1   C11 3730   5.069   6.010   5.300  0.5315 -0.0347  0.2876
   35CHL1  H11A 3731   5.117   5.925   5.249  0.6859  0.3928 -0.2884
   35CHL1  H11B 3732   5.133   6.100   5.307 -2.7277  2.4694  0.7255
   35CHL1    C9 3733   5.024   5.957   5.445 -0.7150  0.9909  0.0273
   35CHL1    H9 3734   4.996   6.044   5.508  1.0403  2.0076 -0.5072
   35CHL1   C10 3735   5.144   5.900   5.536  0.5854  0.2256  0.1973
   35CHL1   C19 3736   5.214   5.782   5.464  0.1720  0.3502  0.1564
   35CHL1  H19A 3737   5.269   5.815   5.373 -0.4381  0.8127 -0.0510
   35CHL1  H19B 3738   5.287   5.729   5.528  0.0173 -1.1579 -0.8747
   35CHL1  H19C 3739   5.146   5.707   5.419  0.6823  0.3742 -0.6712
   35CHL1    C1 3740   5.250   6.009   5.567 -0.2457  0.5639  0.0853
   35CHL1   H1A 3741   5.302   6.022   5.470  2.7664  0.7791  1.6048
   35CHL1   H1B 3742   5.208   6.108   5.594 -1.3358  0.4386 -1.0737
   35CHL1    C2 3743   5.351   5.968   5.675  0.1459 -0.2269 -0.2875
   35CHL1   H2A 3744   5.422   6.052   5.693 -0.5977  0.0936  1.3130
   35CHL1   H2B 3745   5.408   5.875   5.652 -1.3230 -2.0399  2.7630
   35CHL1   C20 3746   4.671   6.031   5.025  0.1691  0.2068  0.1681
   35CHL1   H20 3747   4.745   5.962   4.978  1.7892  0.9053  1.5610
   35CHL1   C21 3748   4.709   6.173   4.992  0.5667  0.1103 -0.0408
   35CHL1  H21A 3749   4.638   6.246   5.037 -0.3291 -0.1022 -1.0699
   35CHL1  H21B 3750   4.710   6.199   4.884 -0.9586 -0.7639 -0.2848
   35CHL1  H21C 3751   4.814   6.189   5.026  0.8834  0.0443 -0.9472
   35CHL1   C22 3752   4.530   5.999   4.974 -0.2636 -0.3704 -0.0130
   35CHL1  H22A 3753   4.517   5.891   4.995  2.5841 -0.5575  1.3510
   35CHL1  H22B 3754   4.446   6.057   5.018 -2.7502 -2.9537 -1.1138
   35CHL1   C23 3755   4.529   6.005   4.816 -0.6309 -0.1392 -0.0090
   35CHL1  H23A 3756   4.556   6.106   4.778 -0.8882 -0.3668 -0.8314
   35CHL1  H23B 3757   4.607   5.931   4.785 -3.0052 -1.7249 -2.7215
   35CHL1   C24 3758   4.395   5.980   4.760  0.0466  0.9613 -0.1773
   35CHL1  H24A 3759   4.343   5.900   4.817 -0.2903  0.0062 -1.7563
   35CHL1  H24B 3760   4.332   6.071   4.767 -1.2190  0.0781  0.3621
   35CHL1   C25 3761   4.403   5.936   4.606  0.5714 -0.2099 -0.1282
   35CHL1   H25 3762   4.468   5.846   4.610  0.7056 -0.3495 -3.2314
   35CHL1   C26 3763   4.268   5.899   4.546 -0.1347 -0.1325 -0.1031
   35CHL1  H26A 3764   4.212   5.835   4.618  0.7979  0.2019  0.9596
   35CHL1  H26B 3765   4.216   5.997   4.536  0.8392  0.3050 -1.0019
   35CHL1  H26C 3766   4.273   5.856   4.444  1.4325  0.1494 -0.1666
   35CHL1   C27 3767   4.458   6.063   4.530  0.3025 -0.9480 -0.0551
   35CHL1  H27A 3768   4.475   6.044   4.422 -2.2392 -0.5991 -0.5869
   35CHL1  H27B 3769   4.398   6.153   4.554  1.5285  0.0631 -0.6779
   35CHL1  H27C 3770   4.556   6.095   4.571  0.0919 -1.1704  0.6412
   36CHL1    C3 3771   1.385   2.219   5.631 -0.3764  0.5630  0.4888
   36CHL1    H3 3772   1.475   2.281   5.610 -0.7624  1.2057  0.7104
   36CHL1    O3 3773   1.351   2.244   5.764  0.1020 -0.1111  0.3863
   36CHL1   H3' 3774   1.345   2.161   5.813 -2.4589  1.0009  2.1745
   36CHL1    C4 3775   1.279   2.269   5.536 -0.6590 -0.4850  0.8803
   36CHL1   H4A 3776   1.182   2.219   5.556 -1.3935  0.6124  0.1769
   36CHL1   H4B 3777   1.258   2.373   5.569  1.2288 -0.3757  1.9317
   36CHL1    C5 3778   1.316   2.255   5.389  0.3316  0.2448 -0.0997
   36CHL1    C6 3779   1.304   2.362   5.305 -0.2806 -0.2787  0.1847
   36CHL1    H6 3780   1.271   2.463   5.335 -0.9611 -0.9093  1.6475
   36CHL1    C7 3781   1.344   2.355   5.161  0.2731  0.2737  0.2924
   36CHL1   H7A 3782   1.276   2.411   5.094 -1.0788 -2.8755 -1.1643
   36CHL1   H7B 3783   1.441   2.407   5.147  0.2611  0.0566 -0.6651
   36CHL1    C8 3784   1.352   2.209   5.111  0.7838  0.0776  0.7546
   36CHL1    H8 3785   1.247   2.179   5.092  0.7752  1.2289 -1.3482
   36CHL1   C14 3786   1.422   2.197   4.975 -0.2003  0.2471 -0.0132
   36CHL1   H14 3787   1.525   2.223   5.006 -0.6230  1.2481  0.6141
   36CHL1   C15 3788   1.377   2.291   4.861 -0.7228  0.2757 -0.4032
   36CHL1  H15A 3789   1.266   2.300   4.864 -0.5962  1.7968  0.6954
   36CHL1  H15B 3790   1.419   2.394   4.860  1.2077 -0.4642 -1.2620
   36CHL1   C16 3791   1.429   2.226   4.727  0.5922  0.2247 -0.3340
   36CHL1  H16A 3792   1.351   2.217   4.650  0.9441 -0.6358 -0.5964
   36CHL1  H16B 3793   1.508   2.290   4.682  1.1419 -0.0004  0.2845
   36CHL1   C17 3794   1.488   2.084   4.770 -0.3352  0.0370 -0.3949
   36CHL1   H17 3795   1.596   2.106   4.775 -0.4925  0.8907 -0.6623
   36CHL1   C13 3796   1.431   2.058   4.910  0.3932 -0.1063 -0.2638
   36CHL1   C18 3797   1.285   2.011   4.898  0.0834  0.1485  0.8928
   36CHL1  H18A 3798   1.227   2.014   4.993 -0.5923  1.1337  0.4616
   36CHL1  H18B 3799   1.225   2.058   4.817 -0.4018  0.7665  1.5960
   36CHL1  H18C 3800   1.298   1.904   4.873 -0.7070  0.5118 -1.2514
   36CHL1   C12 3801   1.514   1.972   5.006  0.4714  0.1069 -0.3229
   36CHL1  H12A 3802   1.502   1.868   4.968 -0.8333 -0.0132  0.3597
   36CHL1  H12B 3803   1.623   1.991   4.994  1.0386 -3.1726 -1.5548
   36CHL1   C11 3804   1.456   1.980   5.153  1.1193  0.4677 -0.0270
   36CHL1  H11A 3805   1.360   1.925   5.167  0.5809  1.7036  1.3026
   36CHL1  H11B 3806   1.537   1.930   5.210  1.6716  3.0583  1.5852
   36CHL1    C9 3807   1.424   2.120   5.212 -0.8799  0.5946  0.6885
   36CHL1    H9 3808   1.529   2.155   5.219 -0.7112 -0.2174  2.5936
   36CHL1   C10 3809   1.365   2.118   5.350 -0.1086  0.1564  0.2119
   36CHL1   C19 3810   1.236   2.030   5.351  0.1147 -0.6497  0.0106
   36CHL1  H19A 3811   1.272   1.925   5.339  4.0438  0.6893 -2.1349
   36CHL1  H19B 3812   1.184   2.034   5.449 -0.1575 -2.2890 -0.0271
   36CHL1  H19C 3813   1.164   2.054   5.270  1.1501  1.3577 -0.3842
   36CHL1    C1 3814   1.463   2.057   5.455 -0.0611 -0.0587  0.2514
   36CHL1   H1A 3815   1.482   1.948   5.444 -1.6030 -0.3158 -0.0401
   36CHL1   H1B 3816   1.562   2.108   5.443 -1.2117  2.4599  0.6766
   36CHL1    C2 3817   1.417   2.075   5.600 -0.0678 -0.1783  0.7877
   36CHL1   H2A 3818   1.489   2.036   5.675 -2.5893 -0.5363  3.1667
   36CHL1   H2B 3819   1.332   2.006   5.617 -0.3128  0.2633  1.3962
   36CHL1   C20 3820   1.473   1.974   4.660  0.1514 -0.3195 -0.8698
   36CHL1   H20 3821   1.371   1.932   4.652  0.2402 -0.3324 -1.9689
   36CHL1   C21 3822   1.570   1.856   4.682  0.7688  0.8185  0.4469
   36CHL1  H21A 3823   1.670   1.877   4.638  0.2681  2.2128 -0.0858
   36CHL1  H21B 3824   1.530   1.764   4.635  1.1042  1.3811 -0.9922
   36CHL1  H21C 3825   1.581   1.825   4.788 -1.6557 -3.4792 -0.3322
   36CHL1   C22 3826   1.494   2.031   4.520 -0.2036  0.2753  0.2768
   36CHL1  H22A 3827   1.409   2.097   4.492 -0.4768 -0.0119  0.4225
   36CHL1  H22B 3828   1.587   2.089   4.503  1.9119 -2.3930  1.7682
   36CHL1   C23 3829   1.495   1.914   4.415  0.2234 -0.4517 -0.5851
   36CHL1  H23A 3830   1.595   1.868   4.401 -0.5127 -1.3127 -4.1386
   36CHL1  H23B 3831   1.425   1.836   4.451  0.5932  0.2347  1.7739
   36CHL1   C24 3832   1.437   1.948   4.273  0.7628  0.2393  0.1053
   36CHL1  H24A 3833   1.512   2.014   4.224  0.7973  0.9879  1.1284
   36CHL1  H24B 3834   1.432   1.849   4.225 -0.4763  0.8381 -1.0470
   36CHL1   C25 3835   1.296   2.011   4.272 -0.1207 -0.4002  0.0287
   36CHL1   H25 3836   1.312   2.104   4.330  0.7434 -0.7899  0.4306
   36CHL1   C26 3837   1.251   2.061   4.136  0.1128  0.0447  0.7662
   36CHL1  H26A 3838   1.226   1.975   4.071  0.4424 -0.7536  1.6795
   36CHL1  H26B 3839   1.162   2.125   4.154  1.3219  1.9195  0.4345
   36CHL1  H26C 3840   1.327   2.116   4.076  0.5724 -1.3244  0.0720
   36CHL1   C27 3841   1.189   1.925   4.332  0.1858  0.0976  0.0782
   36CHL1  H27A 3842   1.093   1.976   4.353 -1.1231 -1.1048 -2.4950
   36CHL1  H27B 3843   1.156   1.846   4.262 -2.0422  1.6979 -0.7919
   36CHL1  H27C 3844   1.217   1.889   4.433  2.9137  1.8787  0.0602
   37CHL1    C3 3845   1.745   0.275   5.529  1.2611  0.1638  0.0522
   37CHL1    H3 3846   1.668   0.353   5.517  2.0201  0.7412 -1.3513
   37CHL1    O3 3847   1.784   0.294   5.662  0.2221  0.5267 -0.6830
   37CHL1   H3' 3848   1.703   0.282   5.711  0.2352  1.6584 -0.3466
   37CHL1    C4 3849   1.679   0.133   5.497 -0.4023 -0.3051 -0.9212
   37CHL1   H4A 3850   1.751   0.055   5.529 -0.4719 -0.2352 -0.5955
   37CHL1   H4B 3851   1.586   0.126   5.557 -0.4983 -0.0364 -1.0363
   37CHL1    C5 3852   1.657   0.092   5.350 -0.6636  0.3559  0.8408
   37CHL1    C6 3853   1.536   0.050   5.304 -0.8443  0.2443  0.1475
   37CHL1    H6 3854   1.454   0.032   5.375  0.2797 -0.1726  1.3667
   37CHL1    C7 3855   1.513   0.002   5.162  0.4358 -0.4853 -0.5958
   37CHL1   H7A 3856   1.460  -0.096   5.169  2.2097 -1.3989  0.4881
   37CHL1   H7B 3857   1.438   0.077   5.128 -0.2236 -0.2427  1.2864
   37CHL1    C8 3858   1.635   0.006   5.070 -0.0934 -0.3450 -0.9711
   37CHL1    H8 3859   1.691  -0.089   5.077  0.1810 -0.2974 -2.2937
   37CHL1   C14 3860   1.593   0.012   4.924  0.0288  0.3259  0.1831
   37CHL1   H14 3861   1.543   0.109   4.903  0.8566  1.1980  2.0497
   37CHL1   C15 3862   1.488  -0.087   4.873  0.0306  0.0798  0.3935
   37CHL1  H15A 3863   1.518  -0.190   4.902  1.7824  0.4885  0.1359
   37CHL1  H15B 3864   1.390  -0.073   4.924  0.5989  0.7244  1.3522
   37CHL1   C16 3865   1.497  -0.073   4.727 -0.0154 -0.5322 -0.2188
   37CHL1  H16A 3866   1.501  -0.170   4.674  0.5303 -0.3333 -0.5436
   37CHL1  H16B 3867   1.409  -0.016   4.690  1.0521  0.7723 -0.8471
   37CHL1   C17 3868   1.622   0.019   4.691 -0.5043 -0.4804 -0.9260
   37CHL1   H17 3869   1.578   0.121   4.695  0.6003  0.0031  2.5151
   37CHL1   C13 3870   1.710   0.007   4.826 -0.2175 -0.2130 -0.7118
   37CHL1   C18 3871   1.790  -0.132   4.829 -0.0077 -0.1081  0.7475
   37CHL1  H18A 3872   1.873  -0.138   4.755 -0.1475  1.1907  0.4622
   37CHL1  H18B 3873   1.821  -0.156   4.933  1.2855 -0.2090  0.3610
   37CHL1  H18C 3874   1.712  -0.206   4.800 -0.9017  1.0052  0.2491
   37CHL1   C12 3875   1.808   0.121   4.857  0.4258 -0.2624  0.1999
   37CHL1  H12A 3876   1.905   0.105   4.805  1.4971  0.2064  1.9547
   37CHL1  H12B 3877   1.771   0.223   4.836  0.8652  0.5723  3.1181
   37CHL1   C11 3878   1.848   0.113   5.006 -0.1161  0.4611 -0.1634
   37CHL1  H11A 3879   1.893   0.011   5.013  0.0269  0.4826 -0.6871
   37CHL1  H11B 3880   1.923   0.191   5.031  1.3681 -1.0558  0.2739
   37CHL1    C9 3881   1.734   0.123   5.106 -0.6851  0.2848 -0.5499
   37CHL1    H9 3882   1.683   0.219   5.083 -1.2338  0.5049  1.4084
   37CHL1   C10 3883   1.779   0.122   5.256 -0.2004  0.0760  0.2530
   37CHL1   C19 3884   1.885   0.012   5.279 -0.7410  0.0949  0.1610
   37CHL1  H19A 3885   1.852  -0.092   5.260  2.0463 -0.8149 -0.2290
   37CHL1  H19B 3886   1.974   0.036   5.216 -2.0126  1.0631 -1.3503
   37CHL1  H19C 3887   1.922   0.023   5.383 -0.6251  1.1956  0.0136
   37CHL1    C1 3888   1.827   0.264   5.298  0.4201 -0.6426 -0.2091
   37CHL1   H1A 3889   1.928   0.273   5.252  0.7194 -0.4434  0.4644
   37CHL1   H1B 3890   1.754   0.344   5.271  1.2392 -0.2275 -1.2747
   37CHL1    C2 3891   1.865   0.284   5.441 -0.4951  0.4386 -0.1858
   37CHL1   H2A 3892   1.908   0.387   5.436 -2.2529  1.2257  0.1284
   37CHL1   H2B 3893   1.946   0.211   5.461 -1.2633 -0.3338  0.1256
   37CHL1   C20 3894   1.690  -0.014   4.557 -0.3476 -0.6099  0.1099
   37CHL1   H20 3895   1.753  -0.104   4.569  2.3282  1.4407  2.8124
   37CHL1   C21 3896   1.774   0.106   4.505  0.4724 -0.3660 -0.2217
   37CHL1  H21A 3897   1.711   0.197   4.492  0.9071  0.4314  2.5300
   37CHL1  H21B 3898   1.839   0.075   4.421  0.8766 -2.6450  0.8503
   37CHL1  H21C 3899   1.843   0.127   4.590  1.1233 -0.9043 -0.6078
   37CHL1   C22 3900   1.584  -0.040   4.443  0.2567 -0.7956 -0.1161
   37CHL1  H22A 3901   1.518  -0.125   4.471 -0.8193  0.1213  0.1923
   37CHL1  H22B 3902   1.515   0.047   4.449 -0.2542 -1.0631 -1.7906
   37CHL1   C23 3903   1.636  -0.057   4.300 -0.1975 -0.2963  0.2002
   37CHL1  H23A 3904   1.685   0.032   4.256 -1.9618 -0.2066 -1.6925
   37CHL1  H23B 3905   1.715  -0.134   4.316 -0.1917 -0.2786  0.2573
   37CHL1   C24 3906   1.529  -0.094   4.201  0.0164 -0.1468  0.5989
   37CHL1  H24A 3907   1.490  -0.195   4.224  0.9032 -1.0388 -1.5983
   37CHL1  H24B 3908   1.450  -0.016   4.211 -0.8324 -1.2311  3.0179
   37CHL1   C25 3909   1.577  -0.100   4.052  0.5415  0.2986 -0.1546
   37CHL1   H25 3910   1.656  -0.177   4.043 -0.2457 -0.7124  1.3036
   37CHL1   C26 3911   1.463  -0.153   3.962  0.5245 -0.3331 -0.5762
   37CHL1  H26A 3912   1.379  -0.083   3.984  1.8590  0.5330  2.1178
   37CHL1  H26B 3913   1.485  -0.179   3.856  2.5361 -0.0510 -0.2535
   37CHL1  H26C 3914   1.429  -0.252   4.000 -2.6522  0.2999 -1.4642
   37CHL1   C27 3915   1.617   0.031   3.987 -0.0051 -0.0347  0.0470
   37CHL1  H27A 3916   1.701   0.092   4.024 -2.2190  1.7902  2.4616
   37CHL1  H27B 3917   1.638   0.016   3.879 -1.1908 -0.1977 -0.1766
   37CHL1  H27C 3918   1.532   0.102   3.994  1.0156  1.2167  0.1264
   38CHL1    C3 3919   2.519   0.550   5.901  0.1551  0.8178 -0.3255
   38CHL1    H3 3920   2.480   0.645   5.859 -1.4626  0.3031 -0.0573
   38CHL1    O3 3921   2.539   0.580   6.036 -0.7701  0.5370 -0.5810
   38CHL1   H3' 3922   2.634   0.568   6.047 -1.1387 -4.0490 -0.6919
   38CHL1    C4 3923   2.416   0.436   5.888 -0.4270  0.2650 -0.0717
   38CHL1   H4A 3924   2.426   0.340   5.942 -2.2912 -0.1080 -0.3203
   38CHL1   H4B 3925   2.318   0.467   5.930 -0.1752  1.9376 -0.6367
   38CHL1    C5 3926   2.391   0.414   5.740 -0.3143  0.0746  1.1116
   38CHL1    C6 3927   2.277   0.438   5.673  0.0253 -0.1057  0.1227
   38CHL1    H6 3928   2.193   0.476   5.733 -0.6258 -0.8428 -0.2975
   38CHL1    C7 3929   2.259   0.418   5.529  0.5687  0.5514  0.1394
   38CHL1   H7A 3930   2.157   0.379   5.511  0.8108  0.5047 -1.2946
   38CHL1   H7B 3931   2.263   0.519   5.482 -2.3032  0.1462 -1.1719
   38CHL1    C8 3932   2.356   0.313   5.464 -0.1609  0.3735 -0.2839
   38CHL1    H8 3933   2.326   0.209   5.488  0.4732 -0.0736 -1.3065
   38CHL1   C14 3934   2.336   0.324   5.313 -0.6248  0.7456 -0.2049
   38CHL1   H14 3935   2.361   0.429   5.286  3.6388 -0.5017 -1.9141
   38CHL1   C15 3936   2.200   0.300   5.254  0.5469  0.4215 -1.0817
   38CHL1  H15A 3937   2.147   0.214   5.300 -1.5167  1.0233 -2.1892
   38CHL1  H15B 3938   2.138   0.390   5.272 -0.1812 -0.0645 -1.0941
   38CHL1   C16 3939   2.226   0.278   5.108 -0.3920 -0.4014  0.5795
   38CHL1  H16A 3940   2.184   0.181   5.073  1.7035 -1.6395  1.3333
   38CHL1  H16B 3941   2.190   0.360   5.043 -0.5998  0.4264  1.7179
   38CHL1   C17 3942   2.380   0.266   5.085 -0.5899  0.1182  0.6132
   38CHL1   H17 3943   2.405   0.372   5.068  0.2741  0.0544  1.4296
   38CHL1   C13 3944   2.434   0.244   5.229  0.7405  0.2242 -0.6264
   38CHL1   C18 3945   2.420   0.095   5.250  0.6241 -0.3315 -0.0333
   38CHL1  H18A 3946   2.434   0.060   5.354  0.5227  0.5125  0.2710
   38CHL1  H18B 3947   2.320   0.062   5.215 -0.1913  1.1179  0.8599
   38CHL1  H18C 3948   2.493   0.032   5.193  0.6872  0.9776 -1.4873
   38CHL1   C12 3949   2.570   0.288   5.268 -0.1224  0.1652  0.0514
   38CHL1  H12A 3950   2.649   0.229   5.216  0.0718  0.2657  0.2274
   38CHL1  H12B 3951   2.586   0.393   5.237 -1.0821  0.4253  0.4044
   38CHL1   C11 3952   2.602   0.286   5.419 -0.4003  0.5778  0.4864
   38CHL1  H11A 3953   2.603   0.176   5.433  0.4280 -0.0422 -3.4630
   38CHL1  H11B 3954   2.700   0.337   5.434 -1.1934  4.4204 -4.5228
   38CHL1    C9 3955   2.495   0.368   5.498  0.0960 -0.7452 -0.2812
   38CHL1    H9 3956   2.506   0.474   5.465  0.5360 -1.0184 -1.0465
   38CHL1   C10 3957   2.519   0.369   5.655  0.3120 -0.2966  0.9335
   38CHL1   C19 3958   2.553   0.229   5.706 -0.2440  0.2051 -0.8021
   38CHL1  H19A 3959   2.652   0.199   5.666 -1.2056 -1.5924 -1.9732
   38CHL1  H19B 3960   2.553   0.231   5.817  0.2618  1.6011 -0.8072
   38CHL1  H19C 3961   2.492   0.145   5.666  1.2081 -1.3123  0.0556
   38CHL1    C1 3962   2.632   0.469   5.686  0.0394 -0.4329 -0.1695
   38CHL1   H1A 3963   2.727   0.435   5.639 -0.3234 -0.2289 -1.0683
   38CHL1   H1B 3964   2.601   0.561   5.632 -2.2752 -1.6008 -0.9734
   38CHL1    C2 3965   2.649   0.510   5.835  0.4999 -0.0299 -0.0677
   38CHL1   H2A 3966   2.723   0.592   5.837  0.1697  0.2991 -0.8462
   38CHL1   H2B 3967   2.685   0.423   5.895  0.0006  0.3423  0.7925
   38CHL1   C20 3968   2.424   0.177   4.961  0.1515  0.0966  0.5478
   38CHL1   H20 3969   2.397   0.072   4.987  0.1208  0.1265  0.6404
   38CHL1   C21 3970   2.577   0.194   4.942  0.1625  0.2017 -0.1975
   38CHL1  H21A 3971   2.609   0.122   4.864  0.3858 -0.8898  0.8568
   38CHL1  H21B 3972   2.633   0.156   5.031 -3.6073 -1.6569  1.6212
   38CHL1  H21C 3973   2.610   0.296   4.914 -2.4108  1.0691 -0.2937
   38CHL1   C22 3974   2.351   0.208   4.833 -0.1268 -0.2768  0.6673
   38CHL1  H22A 3975   2.246   0.189   4.863 -0.5104 -0.1050 -0.5067
   38CHL1  H22B 3976   2.367   0.311   4.795 -2.4226  1.1662  3.2270
   38CHL1   C23 3977   2.383   0.102   4.722  0.0384 -0.0526 -0.5171
   38CHL1  H23A 3978   2.491   0.093   4.697  0.0601 -1.1847 -0.0792
   38CHL1  H23B 3979   2.347   0.004   4.760  1.6149 -0.0948  0.9611
   38CHL1   C24 3980   2.298   0.135   4.595 -0.4205  0.2331 -0.3905
   38CHL1  H24A 3981   2.216   0.205   4.623 -1.3877 -0.6724 -0.8995
   38CHL1  H24B 3982   2.356   0.202   4.527  0.5704  1.6790  1.7752
   38CHL1   C25 3983   2.223   0.016   4.523  0.7318 -0.0424  0.3082
   38CHL1   H25 3984   2.161  -0.042   4.594  1.5580  0.0633  1.1443
   38CHL1   C26 3985   2.114   0.087   4.433  0.3544 -0.4424 -0.0274
   38CHL1  H26A 3986   2.069   0.020   4.357 -1.3091  1.3299 -0.6801
   38CHL1  H26B 3987   2.026   0.133   4.484  0.6687  1.3390 -1.0238
   38CHL1  H26C 3988   2.163   0.171   4.379  1.2965 -1.0401 -0.1250
   38CHL1   C27 3989   2.307  -0.087   4.437  0.3704 -0.1209  0.3242
   38CHL1  H27A 3990   2.364  -0.027   4.363  0.1093  0.0837  0.2874
   38CHL1  H27B 3991   2.373  -0.128   4.516  1.5141  1.1374  0.0472
   38CHL1  H27C 3992   2.231  -0.157   4.394  0.0660  0.2676  0.2229
   39CHL1    C3 3993   3.286   5.530   5.996  0.2112  0.2617 -0.5008
   39CHL1    H3 3994   3.186   5.554   5.954 -1.4781 -4.4238  0.2185
   39CHL1    O3 3995   3.315   5.595   6.119  0.8262  0.0630  0.2508
   39CHL1   H3' 3996   3.395   5.551   6.148 -0.5321 -1.4829  1.8832
   39CHL1    C4 3997   3.270   5.379   6.018  0.2077  0.4044 -0.4514
   39CHL1   H4A 3998   3.362   5.342   6.069  0.1267 -0.5448 -0.9735
   39CHL1   H4B 3999   3.190   5.371   6.095  1.1926 -1.0243  0.4841
   39CHL1    C5 4000   3.246   5.305   5.893 -0.1373  0.3442 -0.6488
   39CHL1    C6 4001   3.129   5.244   5.861  0.4308  0.0593  0.7866
   39CHL1    H6 4002   3.051   5.234   5.938 -2.0238 -0.4579 -1.6134
   39CHL1    C7 4003   3.079   5.182   5.734 -0.2882 -0.0175  0.1532
   39CHL1   H7A 4004   3.046   5.080   5.761 -1.0641  0.3929  0.8093
   39CHL1   H7B 4005   2.995   5.237   5.686 -0.9041 -2.5128 -1.7872
   39CHL1    C8 4006   3.196   5.166   5.633 -0.1630  0.0855  0.3888
   39CHL1    H8 4007   3.258   5.087   5.680  0.2456  1.5613  2.4887
   39CHL1   C14 4008   3.147   5.150   5.486 -0.5763  0.4869 -0.4094
   39CHL1   H14 4009   3.091   5.244   5.472 -1.4923  0.0459  0.2067
   39CHL1   C15 4010   3.040   5.044   5.457  0.1946  0.2491  0.0812
   39CHL1  H15A 4011   3.068   4.943   5.494 -1.2432  0.4064  1.7584
   39CHL1  H15B 4012   2.939   5.067   5.498 -0.7377 -1.6952 -1.0068
   39CHL1   C16 4013   3.038   5.044   5.307 -0.5008 -0.8178  0.3467
   39CHL1  H16A 4014   3.030   4.942   5.263 -2.4557 -0.0574 -1.2037
   39CHL1  H16B 4015   2.956   5.096   5.254  0.1593  1.3359  1.3185
   39CHL1   C17 4016   3.166   5.125   5.257  0.5476  0.6345 -0.0118
   39CHL1   H17 4017   3.129   5.227   5.232  1.6409  0.9779 -0.2837
   39CHL1   C13 4018   3.259   5.145   5.384 -0.3430  0.1724  0.4614
   39CHL1   C18 4019   3.346   5.019   5.405 -0.1438  0.1171 -0.0163
   39CHL1  H18A 4020   3.280   4.935   5.374 -0.7145  1.4698 -2.7647
   39CHL1  H18B 4021   3.434   5.022   5.337 -1.5041  1.5324 -1.8086
   39CHL1  H18C 4022   3.382   5.010   5.510  2.0039 -1.3696 -0.7954
   39CHL1   C12 4023   3.345   5.271   5.391  0.2856 -0.3910  1.3134
   39CHL1  H12A 4024   3.427   5.263   5.316 -0.5235 -1.5971  0.5244
   39CHL1  H12B 4025   3.293   5.364   5.360 -1.2692 -2.1056 -1.6718
   39CHL1   C11 4026   3.402   5.288   5.533 -0.0694 -0.3016  0.1997
   39CHL1  H11A 4027   3.468   5.201   5.548  1.3161  0.9624  1.8218
   39CHL1  H11B 4028   3.463   5.381   5.534  0.0391 -0.1187 -4.0791
   39CHL1    C9 4029   3.295   5.285   5.640  1.2817  0.4942 -0.2142
   39CHL1    H9 4030   3.228   5.368   5.611 -1.8649 -1.5255  0.6921
   39CHL1   C10 4031   3.344   5.332   5.782  0.3782 -0.5929 -0.4924
   39CHL1   C19 4032   3.466   5.248   5.811  0.1427  0.0458 -0.7064
   39CHL1  H19A 4033   3.437   5.143   5.794  0.9061 -0.1691 -0.6940
   39CHL1  H19B 4034   3.545   5.289   5.744 -1.5946  1.4715 -2.0084
   39CHL1  H19C 4035   3.504   5.261   5.915  0.2566  1.3875 -0.8870
   39CHL1    C1 4036   3.375   5.479   5.774 -0.0829  0.1141  0.4616
   39CHL1   H1A 4037   3.474   5.488   5.726  0.0329  2.6153  0.9963
   39CHL1   H1B 4038   3.300   5.544   5.723  0.9446  1.2081  0.2893
   39CHL1    C2 4039   3.398   5.558   5.900  0.7781 -1.0195  0.1608
   39CHL1   H2A 4040   3.417   5.667   5.892 -0.8373 -0.7223  0.0897
   39CHL1   H2B 4041   3.493   5.528   5.949 -0.9516 -2.9148  2.5720
   39CHL1   C20 4042   3.224   5.069   5.128 -0.7793 -0.0502 -0.0556
   39CHL1   H20 4043   3.257   4.963   5.136 -0.9508 -0.1786 -0.9865
   39CHL1   C21 4044   3.348   5.157   5.093  0.0101 -0.1323 -0.0238
   39CHL1  H21A 4045   3.388   5.133   4.992  0.8250  1.4638 -0.1155
   39CHL1  H21B 4046   3.428   5.149   5.170  1.8356  5.7634 -0.7735
   39CHL1  H21C 4047   3.325   5.265   5.108  1.7756  0.0467  1.9408
   39CHL1   C22 4048   3.113   5.080   5.017  0.1365 -0.0192 -0.5522
   39CHL1  H22A 4049   3.013   5.035   5.036  0.1019 -0.2849 -1.3362
   39CHL1  H22B 4050   3.095   5.189   5.005  1.1419  0.0743 -1.2667
   39CHL1   C23 4051   3.143   5.024   4.881 -1.1273 -0.3835 -0.1307
   39CHL1  H23A 4052   3.237   5.071   4.845 -0.7190 -0.0568  1.2838
   39CHL1  H23B 4053   3.162   4.916   4.894  0.2563 -0.2582 -0.8696
   39CHL1   C24 4054   3.028   5.048   4.784 -0.3160  0.0229  0.6941
   39CHL1  H24A 4055   2.938   4.996   4.822 -0.6113 -0.5436 -0.7285
   39CHL1  H24B 4056   3.008   5.157   4.769  0.6518  0.4748  2.3663
   39CHL1   C25 4057   3.064   4.990   4.635  0.4820 -0.1725 -0.0251
   39CHL1   H25 4058   3.104   4.887   4.640 -1.2361 -0.9362 -1.1050
   39CHL1   C26 4059   2.942   4.981   4.543 -0.1892 -0.5736 -0.3984
   39CHL1  H26A 4060   2.965   4.944   4.442 -0.8580 -1.8925 -0.0848
   39CHL1  H26B 4061   2.870   4.908   4.586  0.8105 -0.5080  1.4941
   39CHL1  H26C 4062   2.898   5.083   4.536 -2.0941 -1.4114 -1.4895
   39CHL1   C27 4063   3.168   5.085   4.569 -0.4099  0.4785 -0.2265
   39CHL1  H27A 4064   3.166   5.094   4.459 -0.8817 -1.5145 -0.4208
   39CHL1  H27B 4065   3.161   5.184   4.619  0.9431  0.2502  0.4730
   39CHL1  H27C 4066   3.273   5.053   4.590 -0.3130 -0.0573 -1.4696
   40CHL1    C3 4067   5.773   5.129   5.852  0.0473 -1.0550  0.7282
   40CHL1    H3 4068   5.796   5.236   5.872 -2.0160 -0.2115 -1.0761
   40CHL1    O3 4069   5.787   5.042   5.964  0.3136 -0.0921 -0.5222
   40CHL1   H3' 4070   5.877   5.007   5.961  0.1283 -0.7214  0.6556
   40CHL1    C4 4071   5.626   5.118   5.803  0.0518 -0.0891 -0.4537
   40CHL1   H4A 4072   5.586   5.014   5.799 -1.4255  0.4932 -1.9827
   40CHL1   H4B 4073   5.559   5.164   5.877 -1.9763 -0.9548 -1.6574
   40CHL1    C5 4074   5.604   5.191   5.668  0.8267 -0.7073  0.6094
   40CHL1    C6 4075   5.510   5.288   5.662 -0.3755 -0.6778  0.3440
   40CHL1    H6 4076   5.443   5.301   5.748  1.5685  1.9280  1.5950
   40CHL1    C7 4077   5.478   5.368   5.538 -0.1589 -0.0394  0.1617
   40CHL1   H7A 4078   5.368   5.376   5.529 -0.3625 -0.7749  1.7353
   40CHL1   H7B 4079   5.520   5.469   5.559 -0.0700 -0.1418  0.4793
   40CHL1    C8 4080   5.536   5.302   5.409 -0.5081 -0.2238 -0.6973
   40CHL1    H8 4081   5.473   5.214   5.384 -1.5076  0.5670 -1.0315
   40CHL1   C14 4082   5.537   5.392   5.283 -0.6483 -0.6526 -0.4171
   40CHL1   H14 4083   5.591   5.487   5.304 -1.0031 -0.5337 -0.0152
   40CHL1   C15 4084   5.393   5.431   5.237  0.4676 -0.5303  0.5622
   40CHL1  H15A 4085   5.344   5.332   5.243  0.7821 -0.6611  1.0713
   40CHL1  H15B 4086   5.330   5.499   5.299 -1.1801 -0.6028 -0.9501
   40CHL1   C16 4087   5.419   5.493   5.098  0.1917 -0.3522 -0.1643
   40CHL1  H16A 4088   5.346   5.455   5.024  2.7568 -2.6495 -1.7324
   40CHL1  H16B 4089   5.403   5.602   5.112  0.3437 -0.1458 -1.4729
   40CHL1   C17 4090   5.567   5.472   5.067  0.1903  0.0148  0.5815
   40CHL1   H17 4091   5.625   5.554   5.116 -1.7329  0.5084  2.1913
   40CHL1   C13 4092   5.605   5.350   5.157  0.2131 -0.0884  0.9040
   40CHL1   C18 4093   5.551   5.218   5.099 -0.1364  1.0306  0.7477
   40CHL1  H18A 4094   5.535   5.132   5.169 -1.0825  1.0058  0.5218
   40CHL1  H18B 4095   5.457   5.236   5.042  0.1172 -0.6194 -0.2701
   40CHL1  H18C 4096   5.628   5.175   5.032  0.0663 -0.8106  2.0709
   40CHL1   C12 4097   5.750   5.323   5.187 -0.1026 -0.7379  0.4643
   40CHL1  H12A 4098   5.794   5.273   5.098 -2.7843 -2.7395  0.1357
   40CHL1  H12B 4099   5.799   5.419   5.212  0.4529 -1.1583  1.0221
   40CHL1   C11 4100   5.769   5.222   5.308 -0.0219  0.4157 -0.1994
   40CHL1  H11A 4101   5.750   5.119   5.271  0.5328  0.7338 -1.4390
   40CHL1  H11B 4102   5.874   5.229   5.344  0.5801  1.1338 -2.0048
   40CHL1    C9 4103   5.687   5.262   5.437  0.0916  0.1890  0.1658
   40CHL1    H9 4104   5.734   5.354   5.480 -1.2909  1.8520 -1.6775
   40CHL1   C10 4105   5.700   5.160   5.549  0.0151  0.3455 -0.1052
   40CHL1   C19 4106   5.668   5.013   5.503  0.6418 -1.0232 -0.2455
   40CHL1  H19A 4107   5.752   4.981   5.437  1.1978 -0.0986 -0.0156
   40CHL1  H19B 4108   5.667   4.936   5.583  0.3295  1.9848  2.8529
   40CHL1  H19C 4109   5.572   5.013   5.447  0.8413 -4.0343 -0.7550
   40CHL1    C1 4110   5.843   5.161   5.608 -0.1192 -0.0677  0.0727
   40CHL1   H1A 4111   5.912   5.121   5.530 -2.0971 -1.2531 -1.1687
   40CHL1   H1B 4112   5.877   5.264   5.628  0.4068 -0.2111 -0.0539
   40CHL1    C2 4113   5.870   5.082   5.740  0.3461 -0.3780 -0.0071
   40CHL1   H2A 4114   5.971   5.102   5.782  0.5215  0.1513 -0.6574
   40CHL1   H2B 4115   5.864   4.973   5.724  0.1528 -0.4873  0.7844
   40CHL1   C20 4116   5.593   5.462   4.914 -0.0696  0.7367  0.2464
   40CHL1   H20 4117   5.551   5.368   4.871  0.1997  0.5358  0.4206
   40CHL1   C21 4118   5.745   5.464   4.883  0.3777 -0.6106  0.2244
   40CHL1  H21A 4119   5.800   5.384   4.938  2.3208  0.8990  0.5960
   40CHL1  H21B 4120   5.781   5.560   4.926 -2.6385 -0.3511  2.5211
   40CHL1  H21C 4121   5.776   5.455   4.777  0.7300 -0.4444  0.3088
   40CHL1   C22 4122   5.515   5.576   4.835 -0.3420  0.0930 -0.8322
   40CHL1  H22A 4123   5.407   5.552   4.834 -0.5218  0.7916 -3.1357
   40CHL1  H22B 4124   5.525   5.670   4.894 -3.9650 -0.3031  0.7146
   40CHL1   C23 4125   5.555   5.599   4.688 -0.6448 -0.1922  0.9076
   40CHL1  H23A 4126   5.654   5.649   4.695 -0.3885 -0.6899  0.8425
   40CHL1  H23B 4127   5.563   5.496   4.648  1.1167  0.3816 -0.3774
   40CHL1   C24 4128   5.450   5.671   4.607 -0.8908  0.5438  0.0909
   40CHL1  H24A 4129   5.359   5.610   4.627 -1.1802  0.8084 -0.3790
   40CHL1  H24B 4130   5.429   5.771   4.651 -1.2539  0.3259  0.4118
   40CHL1   C25 4131   5.472   5.695   4.457 -0.5142 -0.9925 -0.1597
   40CHL1   H25 4132   5.557   5.766   4.451 -1.5979  0.6556  2.3962
   40CHL1   C26 4133   5.514   5.570   4.383 -0.6958  0.2915  0.3795
   40CHL1  H26A 4134   5.544   5.595   4.279 -2.4423  0.5325 -0.1006
   40CHL1  H26B 4135   5.594   5.518   4.439 -0.2008 -2.0806 -2.2804
   40CHL1  H26C 4136   5.428   5.500   4.376 -2.2795  2.2719 -2.0242
   40CHL1   C27 4137   5.348   5.753   4.381 -0.4516  0.2559  0.2126
   40CHL1  H27A 4138   5.263   5.701   4.430  1.2351 -3.6998 -0.6928
   40CHL1  H27B 4139   5.347   5.864   4.386 -0.8774  0.2439  0.4310
   40CHL1  H27C 4140   5.350   5.728   4.273 -0.7354  2.1673 -0.2723
   41CHL1    C3 4141   0.556   4.432   5.761  0.1220  0.4518 -0.2407
   41CHL1    H3 4142   0.662   4.461   5.751 -0.1529  1.3017 -0.8416
   41CHL1    O3 4143   0.525   4.394   5.892  0.4120 -0.5671  0.6424
   41CHL1   H3' 4144   0.430   4.402   5.901  0.2951 -0.5230 -0.4528
   41CHL1    C4 4145   0.473   4.552   5.717  0.1673  0.1897  0.6955
   41CHL1   H4A 4146   0.364   4.533   5.722  0.2446 -0.9339 -0.9952
   41CHL1   H4B 4147   0.505   4.633   5.787 -0.1680  1.5194 -0.6467
   41CHL1    C5 4148   0.509   4.588   5.571  0.2145 -0.5743 -0.2928
   41CHL1    C6 4149   0.555   4.712   5.542  0.8463  0.1843  0.2826
   41CHL1    H6 4150   0.554   4.788   5.621  0.6633 -0.3163  0.7659
   41CHL1    C7 4151   0.585   4.767   5.409 -0.2870  0.1469 -0.3927
   41CHL1   H7A 4152   0.532   4.865   5.401 -2.2020 -0.9287 -1.5965
   41CHL1   H7B 4153   0.693   4.794   5.407 -0.3431  0.6848  1.7510
   41CHL1    C8 4154   0.542   4.668   5.296 -0.2654 -0.0829 -0.5623
   41CHL1    H8 4155   0.431   4.673   5.286 -0.4027  1.2095  1.0848
   41CHL1   C14 4156   0.619   4.701   5.172  0.0922  0.5029  0.3569
   41CHL1   H14 4157   0.724   4.675   5.195 -0.8954 -2.1422  2.5208
   41CHL1   C15 4158   0.626   4.849   5.120 -0.5538  0.3138 -0.5261
   41CHL1  H15A 4159   0.530   4.905   5.125  0.6761  2.6132 -1.3116
   41CHL1  H15B 4160   0.699   4.906   5.181 -0.6097 -1.2619  1.1008
   41CHL1   C16 4161   0.660   4.841   4.969  0.0700 -0.1595  0.6459
   41CHL1  H16A 4162   0.574   4.889   4.918  0.3546  0.3644  0.6486
   41CHL1  H16B 4163   0.753   4.901   4.960 -1.1402  1.7383  0.0701
   41CHL1   C17 4164   0.664   4.686   4.936  0.2526 -0.4828  0.4241
   41CHL1   H17 4165   0.773   4.666   4.929  0.7284  1.5301  1.4447
   41CHL1   C13 4166   0.592   4.619   5.053 -0.1329  0.7789  0.4089
   41CHL1   C18 4167   0.436   4.626   5.033  0.0145 -0.7375 -0.1158
   41CHL1  H18A 4168   0.373   4.592   5.119  1.0890 -0.3652  0.8401
   41CHL1  H18B 4169   0.409   4.732   5.014  0.1164 -0.6509  0.2132
   41CHL1  H18C 4170   0.418   4.556   4.948  1.4535 -1.4900  0.1680
   41CHL1   C12 4171   0.638   4.474   5.093  0.2471 -0.3733  1.2627
   41CHL1  H12A 4172   0.613   4.405   5.009  1.8693  0.2271  0.2400
   41CHL1  H12B 4173   0.747   4.476   5.116  0.7477 -1.7995 -0.7343
   41CHL1   C11 4174   0.562   4.425   5.215 -0.1001 -0.4763 -0.0909
   41CHL1  H11A 4175   0.457   4.410   5.182 -0.2751  1.0419 -0.2685
   41CHL1  H11B 4176   0.599   4.323   5.241  2.6821  0.4799  0.0750
   41CHL1    C9 4177   0.574   4.522   5.336 -0.1690  0.7153  0.5453
   41CHL1    H9 4178   0.684   4.520   5.355  0.0742 -0.3961 -0.8115
   41CHL1   C10 4179   0.507   4.478   5.475 -1.2101 -0.1151  0.5336
   41CHL1   C19 4180   0.357   4.451   5.448  0.4926  0.2680 -0.1367
   41CHL1  H19A 4181   0.295   4.534   5.406  0.8901  0.7022  0.1188
   41CHL1  H19B 4182   0.353   4.369   5.374  1.1324 -1.0614  1.2412
   41CHL1  H19C 4183   0.298   4.413   5.534 -0.9799  1.1134 -0.7341
   41CHL1    C1 4184   0.585   4.355   5.529  0.1226  0.0665 -0.0358
   41CHL1   H1A 4185   0.567   4.269   5.461  1.3628 -0.0914 -0.1785
   41CHL1   H1B 4186   0.693   4.374   5.517  0.0783 -0.8607 -2.4161
   41CHL1    C2 4187   0.542   4.312   5.670  0.0240 -0.0840  0.1027
   41CHL1   H2A 4188   0.603   4.228   5.709 -0.8173 -0.7343  0.0486
   41CHL1   H2B 4189   0.435   4.286   5.687 -0.3785 -0.6976 -2.8332
   41CHL1   C20 4190   0.614   4.654   4.792  0.0382  0.0292 -0.6534
   41CHL1   H20 4191   0.505   4.676   4.794  0.0367  0.0101 -0.2179
   41CHL1   C21 4192   0.636   4.508   4.764  0.8884 -1.0809  0.3784
   41CHL1  H21A 4193   0.732   4.483   4.812  0.3874  0.5668  2.3370
   41CHL1  H21B 4194   0.630   4.484   4.655 -2.6004  1.2649 -0.1045
   41CHL1  H21C 4195   0.563   4.436   4.806 -0.1770 -0.3436 -0.1542
   41CHL1   C22 4196   0.671   4.743   4.682 -0.3871 -0.7679  0.1660
   41CHL1  H22A 4197   0.676   4.850   4.712  0.9699 -0.2863 -1.6131
   41CHL1  H22B 4198   0.767   4.700   4.645 -0.9224 -1.5685 -0.3155
   41CHL1   C23 4199   0.587   4.726   4.550 -0.3468 -0.1870 -0.2303
   41CHL1  H23A 4200   0.600   4.622   4.514  2.4740 -0.0293  0.0827
   41CHL1  H23B 4201   0.480   4.747   4.568 -0.5584 -2.2518  1.4046
   41CHL1   C24 4202   0.651   4.823   4.449 -0.2877  0.3017 -0.0557
   41CHL1  H24A 4203   0.609   4.924   4.470 -1.1091 -0.3891  1.9114
   41CHL1  H24B 4204   0.761   4.835   4.449 -0.1607 -0.7565 -0.4285
   41CHL1   C25 4205   0.598   4.796   4.305 -1.1745 -0.2204  0.0463
   41CHL1   H25 4206   0.661   4.841   4.225 -0.5766 -2.9840 -1.1492
   41CHL1   C26 4207   0.589   4.646   4.269 -0.0828 -0.5140  0.8803
   41CHL1  H26A 4208   0.568   4.646   4.160 -0.2619 -0.8555  0.9141
   41CHL1  H26B 4209   0.691   4.607   4.286  0.8881  0.7338 -1.4809
   41CHL1  H26C 4210   0.504   4.604   4.326  1.0961 -0.3421  2.8706
   41CHL1   C27 4211   0.457   4.850   4.283  0.4549  0.2175  0.2605
   41CHL1  H27A 4212   0.384   4.797   4.348 -0.6272 -2.9873 -3.2171
   41CHL1  H27B 4213   0.460   4.958   4.308 -0.9618  0.7138 -1.5471
   41CHL1  H27C 4214   0.428   4.837   4.177 -0.0765 -0.2273  0.4553
   42CHL1    C3 4215   6.631   5.531   5.739  0.6196  0.9103 -0.0337
   42CHL1    H3 4216   6.591   5.435   5.699 -1.8164  1.2152  1.5032
   42CHL1    O3 4217   6.620   5.538   5.875 -0.2332  0.0581 -0.3418
   42CHL1   H3' 4218   6.672   5.614   5.905  1.3056 -0.8831 -0.5391
   42CHL1    C4 4219   6.778   5.559   5.697 -0.3016 -0.0927 -0.0131
   42CHL1   H4A 4220   6.812   5.658   5.733 -1.1729  0.6122 -1.0549
   42CHL1   H4B 4221   6.836   5.483   5.753  1.6940  0.8838 -0.6448
   42CHL1    C5 4222   6.787   5.547   5.544 -0.4148 -0.5176  0.1437
   42CHL1    C6 4223   6.865   5.453   5.489 -0.4987  0.5798  0.0919
   42CHL1    H6 4224   6.942   5.407   5.553 -0.2225  3.7044  2.2137
   42CHL1    C7 4225   6.885   5.445   5.333  0.0332 -0.2793 -0.3503
   42CHL1   H7A 4226   6.992   5.453   5.305  0.0651  2.5131  0.1950
   42CHL1   H7B 4227   6.837   5.346   5.317 -0.2310 -0.0287 -1.1403
   42CHL1    C8 4228   6.809   5.558   5.254 -0.0153 -1.0718  0.5422
   42CHL1    H8 4229   6.873   5.648   5.264 -0.2924 -0.8304  0.1813
   42CHL1   C14 4230   6.790   5.520   5.105 -0.5754 -0.2825  0.2942
   42CHL1   H14 4231   6.728   5.429   5.115 -0.1259 -0.6074  0.1748
   42CHL1   C15 4232   6.924   5.482   5.029  0.0875 -0.7157  0.3909
   42CHL1  H15A 4233   7.013   5.544   5.051  1.7608 -2.2382 -1.6225
   42CHL1  H15B 4234   6.967   5.385   5.063 -1.0589 -0.8503  1.5496
   42CHL1   C16 4235   6.886   5.487   4.877  0.3682 -0.1258  0.4005
   42CHL1  H16A 4236   6.964   5.537   4.816 -0.5196 -1.8914 -2.3696
   42CHL1  H16B 4237   6.864   5.386   4.836 -0.2811  0.1190  0.1311
   42CHL1   C17 4238   6.739   5.549   4.872 -0.1541 -0.2297  0.7079
   42CHL1   H17 4239   6.685   5.454   4.892 -1.0983  0.6833  2.8234
   42CHL1   C13 4240   6.718   5.618   5.015  0.0521 -0.2797  0.2331
   42CHL1   C18 4241   6.793   5.752   5.014  0.2693 -0.6196  0.4556
   42CHL1  H18A 4242   6.883   5.752   4.949  0.5288 -2.7727  0.7322
   42CHL1  H18B 4243   6.730   5.831   4.967  1.6300 -1.0418 -2.3006
   42CHL1  H18C 4244   6.824   5.779   5.117  1.0299 -0.3251  0.1550
   42CHL1   C12 4245   6.574   5.626   5.079 -0.0668 -0.2514 -0.2428
   42CHL1  H12A 4246   6.509   5.706   5.037 -1.4248 -1.2109 -0.0126
   42CHL1  H12B 4247   6.518   5.532   5.060 -0.8506  0.2554 -0.4611
   42CHL1   C11 4248   6.580   5.663   5.228  0.1007 -0.3786  0.2635
   42CHL1  H11A 4249   6.599   5.772   5.217  0.0748 -0.4550 -0.6653
   42CHL1  H11B 4250   6.477   5.664   5.270 -0.2390  1.3596 -0.5021
   42CHL1    C9 4251   6.675   5.582   5.319  0.1334 -0.0827 -0.0244
   42CHL1    H9 4252   6.632   5.480   5.330 -1.6396  0.4048 -1.9071
   42CHL1   C10 4253   6.686   5.635   5.466 -0.4883 -0.0138  0.3933
   42CHL1   C19 4254   6.744   5.778   5.467  0.8186  0.2343 -0.2353
   42CHL1  H19A 4255   6.836   5.785   5.405  0.5351  2.2929 -0.4709
   42CHL1  H19B 4256   6.671   5.844   5.416 -1.6713 -1.1983  1.2713
   42CHL1  H19C 4257   6.760   5.816   5.570  2.7917  1.3135 -0.8880
   42CHL1    C1 4258   6.547   5.631   5.526 -0.1122  0.3169 -0.1116
   42CHL1   H1A 4259   6.500   5.719   5.476  2.0470 -0.1030 -3.1761
   42CHL1   H1B 4260   6.497   5.536   5.496 -0.1862  0.4546 -0.4369
   42CHL1    C2 4261   6.549   5.643   5.678 -0.4512  0.2160 -0.2266
   42CHL1   H2A 4262   6.452   5.642   5.733 -1.2036 -0.5724 -1.5219
   42CHL1   H2B 4263   6.592   5.743   5.700 -0.0292 -0.3794  1.8809
   42CHL1   C20 4264   6.694   5.622   4.746  1.2431 -0.7009 -0.8798
   42CHL1   H20 4265   6.753   5.716   4.741  2.8680 -1.5029  1.2706
   42CHL1   C21 4266   6.547   5.647   4.757 -0.1481 -0.2250 -0.3492
   42CHL1  H21A 4267   6.530   5.729   4.831 -0.3988 -1.2792  0.7988
   42CHL1  H21B 4268   6.480   5.564   4.787 -0.7614  0.1001 -0.8028
   42CHL1  H21C 4269   6.501   5.678   4.661 -1.9070 -2.4883 -0.3215
   42CHL1   C22 4270   6.740   5.548   4.619 -0.4653 -0.2571 -0.1986
   42CHL1  H22A 4271   6.729   5.616   4.532 -1.7486 -0.9766 -0.6264
   42CHL1  H22B 4272   6.849   5.530   4.623 -0.2383  0.1671 -2.8267
   42CHL1   C23 4273   6.671   5.416   4.590  0.0086  0.3509  0.0006
   42CHL1  H23A 4274   6.692   5.338   4.666  0.8942 -2.1103 -2.5976
   42CHL1  H23B 4275   6.564   5.446   4.579  0.6359  3.7877  1.7846
   42CHL1   C24 4276   6.693   5.351   4.452 -0.4736  0.7975  0.4472
   42CHL1  H24A 4277   6.625   5.265   4.435  1.0388 -0.2059 -0.7520
   42CHL1  H24B 4278   6.666   5.426   4.374 -1.6010  0.5220  0.5438
   42CHL1   C25 4279   6.836   5.295   4.429  0.3258 -0.1169 -0.5509
   42CHL1   H25 4280   6.905   5.381   4.423 -0.2687  0.4144  0.0653
   42CHL1   C26 4281   6.891   5.211   4.550 -0.8196  0.2921  0.4417
   42CHL1  H26A 4282   6.990   5.169   4.520 -1.2857  0.4928 -1.4932
   42CHL1  H26B 4283   6.905   5.268   4.645 -0.6146 -0.7926  1.0720
   42CHL1  H26C 4284   6.830   5.121   4.569  1.2507 -0.8176  2.3526
   42CHL1   C27 4285   6.840   5.211   4.302  0.4838 -0.5635 -1.0709
   42CHL1  H27A 4286   6.777   5.251   4.220  0.5873  1.7852 -0.0854
   42CHL1  H27B 4287   6.945   5.203   4.266  1.0945 -2.0226  0.8192
   42CHL1  H27C 4288   6.818   5.107   4.334 -0.6932 -0.1250 -0.4265
   43CHL1    C3 4289   6.602   0.779   5.370 -0.3241  0.7765  0.0080
   43CHL1    H3 4290   6.695   0.719   5.375  0.2004  1.6386  0.9179
   43CHL1    O3 4291   6.599   0.841   5.495 -0.4319 -0.0863 -0.0144
   43CHL1   H3' 4292   6.588   0.933   5.470  0.0508  0.0366  0.2263
   43CHL1    C4 4293   6.616   0.880   5.242 -0.3511 -0.2453 -0.3189
   43CHL1   H4A 4294   6.551   0.970   5.245  2.4565  1.9433 -1.0623
   43CHL1   H4B 4295   6.718   0.923   5.252 -1.6589  3.2985 -0.7713
   43CHL1    C5 4296   6.603   0.805   5.115 -0.1267 -0.3247  0.1528
   43CHL1    C6 4297   6.702   0.812   5.027 -0.3407  0.4039 -0.3332
   43CHL1    H6 4298   6.787   0.879   5.047  0.4768 -0.8621  0.5780
   43CHL1    C7 4299   6.701   0.744   4.896  0.0977 -0.2708 -0.0315
   43CHL1   H7A 4300   6.736   0.819   4.823  0.3730 -0.6316 -0.2727
   43CHL1   H7B 4301   6.778   0.664   4.887  2.2612  1.7876 -0.6653
   43CHL1    C8 4302   6.566   0.682   4.855 -0.3041 -0.7942 -0.2830
   43CHL1    H8 4303   6.502   0.763   4.814  0.4327 -0.6322 -1.1826
   43CHL1   C14 4304   6.587   0.580   4.746  0.0374  0.7541  0.3038
   43CHL1   H14 4305   6.635   0.494   4.797  0.4541  0.8227  0.0333
   43CHL1   C15 4306   6.659   0.628   4.617 -0.6505 -0.3597 -0.2263
   43CHL1  H15A 4307   6.622   0.727   4.584  3.4111  1.0634 -1.0773
   43CHL1  H15B 4308   6.768   0.632   4.639 -0.7638  1.3185  0.1556
   43CHL1   C16 4309   6.629   0.518   4.513  0.3252 -0.2812 -0.4929
   43CHL1  H16A 4310   6.598   0.563   4.416 -1.8533  4.2645  1.9549
   43CHL1  H16B 4311   6.720   0.455   4.518  0.9178  0.6393  1.4913
   43CHL1   C17 4312   6.514   0.428   4.573 -0.4856 -0.7030 -0.3070
   43CHL1   H17 4313   6.577   0.351   4.621 -1.4272 -0.5096  1.2957
   43CHL1   C13 4314   6.463   0.508   4.694 -0.9803 -0.3304  0.0887
   43CHL1   C18 4315   6.358   0.616   4.635 -0.2661  1.1344 -0.0648
   43CHL1  H18A 4316   6.399   0.661   4.542  2.0301  0.0442  0.3565
   43CHL1  H18B 4317   6.261   0.564   4.627  0.6569 -0.7875  0.6180
   43CHL1  H18C 4318   6.353   0.702   4.706  0.9753  1.1937 -0.0212
   43CHL1   C12 4319   6.407   0.435   4.812  0.8261 -0.5943 -0.5541
   43CHL1  H12A 4320   6.310   0.385   4.796  0.8321 -0.5299 -0.8070
   43CHL1  H12B 4321   6.477   0.354   4.841  1.2255  0.0494  0.3095
   43CHL1   C11 4322   6.380   0.532   4.928 -0.5380  0.4617  0.6916
   43CHL1  H11A 4323   6.298   0.599   4.894 -0.9332  1.2365  3.0375
   43CHL1  H11B 4324   6.339   0.477   5.014  2.2567 -1.0642  1.1761
   43CHL1    C9 4325   6.509   0.618   4.977  0.8197  0.4019  0.2098
   43CHL1    H9 4326   6.579   0.541   5.015  0.9123  0.3053 -0.1521
   43CHL1   C10 4327   6.485   0.703   5.103 -0.0938 -0.2884  0.4363
   43CHL1   C19 4328   6.360   0.782   5.079 -0.3633 -0.8211 -0.6143
   43CHL1  H19A 4329   6.345   0.847   5.169  0.6574 -1.2737 -0.1030
   43CHL1  H19B 4330   6.359   0.848   4.989  2.8348  1.4295  0.7891
   43CHL1  H19C 4331   6.277   0.709   5.078  1.6579 -3.3842  1.6385
   43CHL1    C1 4332   6.488   0.616   5.231 -0.3093  0.5753  0.2369
   43CHL1   H1A 4333   6.409   0.539   5.222 -1.1330  1.5155 -1.0000
   43CHL1   H1B 4334   6.584   0.561   5.226 -0.5044  0.3126 -1.5627
   43CHL1    C2 4335   6.486   0.684   5.361  0.3177  0.8411 -0.0132
   43CHL1   H2A 4336   6.477   0.614   5.447 -0.7394  2.0868  0.9305
   43CHL1   H2B 4337   6.388   0.734   5.361  0.5921  1.5583 -3.2471
   43CHL1   C20 4338   6.422   0.372   4.472  0.0699  0.0821 -0.5498
   43CHL1   H20 4339   6.368   0.447   4.410  1.8378  1.1360 -0.8792
   43CHL1   C21 4340   6.318   0.285   4.546  0.4716  0.4017 -0.1764
   43CHL1  H21A 4341   6.357   0.230   4.634  1.2846 -0.7206 -1.2061
   43CHL1  H21B 4342   6.261   0.223   4.474  0.9271  1.3685 -1.4094
   43CHL1  H21C 4343   6.239   0.345   4.597  1.1417 -0.1770  1.5977
   43CHL1   C22 4344   6.490   0.279   4.366  0.2744  0.1283 -0.1503
   43CHL1  H22A 4345   6.415   0.241   4.293 -2.8387  0.7518  2.4945
   43CHL1  H22B 4346   6.574   0.332   4.315  0.1788 -1.7811 -2.4760
   43CHL1   C23 4347   6.552   0.151   4.426 -0.2130 -0.4319 -0.2648
   43CHL1  H23A 4348   6.612   0.177   4.517 -0.7117 -2.4002  0.6807
   43CHL1  H23B 4349   6.479   0.075   4.462 -1.2731  0.2226 -1.0150
   43CHL1   C24 4350   6.644   0.091   4.322 -0.2186 -0.2552 -0.8310
   43CHL1  H24A 4351   6.584   0.072   4.231 -0.3890 -1.8702 -0.3998
   43CHL1  H24B 4352   6.706   0.179   4.295  2.1629 -1.6721 -0.2723
   43CHL1   C25 4353   6.745  -0.010   4.385 -0.3148  0.1740 -0.1099
   43CHL1   H25 4354   6.773   0.023   4.488 -0.3054  0.8512 -0.3202
   43CHL1   C26 4355   6.660  -0.143   4.393  0.2593  0.0372  0.1701
   43CHL1  H26A 4356   6.689  -0.209   4.308 -2.8963 -0.4256 -0.6475
   43CHL1  H26B 4357   6.679  -0.204   4.484 -0.3504 -0.4700 -0.0359
   43CHL1  H26C 4358   6.551  -0.121   4.394  0.6046  1.9649 -0.1703
   43CHL1   C27 4359   6.876  -0.020   4.303 -0.2753  0.2986  1.0184
   43CHL1  H27A 4360   6.948  -0.100   4.330  0.4095  0.4293 -0.3066
   43CHL1  H27B 4361   6.847  -0.041   4.198 -0.7717 -2.1282  1.5687
   43CHL1  H27C 4362   6.922   0.081   4.296  1.0673 -0.1170  3.0070
   44CHL1    C3 4363   0.303   2.970   5.632 -0.2729  0.2857 -0.3110
   44CHL1    H3 4364   0.280   2.861   5.636 -1.1909  0.4956  1.2901
   44CHL1    O3 4365   0.282   3.024   5.764  0.3650 -0.4171 -0.0317
   44CHL1   H3' 4366   0.355   3.007   5.825 -1.5449 -0.1289  2.4877
   44CHL1    C4 4367   0.449   2.987   5.593  0.3017 -0.1850 -0.1736
   44CHL1   H4A 4368   0.483   3.093   5.596  2.8560 -0.8864 -1.9870
   44CHL1   H4B 4369   0.515   2.935   5.665  0.5559 -0.9569 -0.9469
   44CHL1    C5 4370   0.468   2.937   5.453  0.9590 -0.2153  0.3721
   44CHL1    C6 4371   0.558   2.836   5.418  0.0615 -0.4459 -0.1100
   44CHL1    H6 4372   0.620   2.799   5.501  0.3936  1.2328  0.4362
   44CHL1    C7 4373   0.588   2.789   5.278 -1.1011 -0.7543  0.0207
   44CHL1   H7A 4374   0.695   2.783   5.249 -1.0390  1.6411 -0.3892
   44CHL1   H7B 4375   0.542   2.696   5.237 -2.2205  0.6878 -2.2011
   44CHL1    C8 4376   0.542   2.900   5.173  0.4184  0.3898 -0.1626
   44CHL1    H8 4377   0.603   2.993   5.165  1.4463 -0.3342 -0.9607
   44CHL1   C14 4378   0.534   2.834   5.035  0.7274  0.0998  0.2593
   44CHL1   H14 4379   0.462   2.749   5.039  0.2668  0.4630 -0.0877
   44CHL1   C15 4380   0.659   2.761   4.989 -0.8385 -0.4151  0.1854
   44CHL1  H15A 4381   0.751   2.812   5.024 -1.9955 -0.9238  4.4949
   44CHL1  H15B 4382   0.672   2.656   5.023  0.0967 -1.5776 -3.3203
   44CHL1   C16 4383   0.649   2.751   4.836  0.0947  0.1092  0.7576
   44CHL1  H16A 4384   0.741   2.793   4.788 -0.9935  0.2813 -1.2889
   44CHL1  H16B 4385   0.646   2.644   4.807  2.8558  0.0315  0.4267
   44CHL1   C17 4386   0.516   2.828   4.800 -0.4739  0.3629  0.0097
   44CHL1   H17 4387   0.442   2.746   4.787  0.7960 -0.4217 -3.2127
   44CHL1   C13 4388   0.491   2.921   4.921  0.9421  0.0211  0.0014
   44CHL1   C18 4389   0.581   3.047   4.911  0.0585 -0.0753  0.2440
   44CHL1  H18A 4390   0.579   3.115   4.999 -1.4720  1.9600 -1.2321
   44CHL1  H18B 4391   0.684   3.030   4.872  0.2273  1.1358  0.1235
   44CHL1  H18C 4392   0.555   3.123   4.834  2.8686  2.8428  1.8974
   44CHL1   C12 4393   0.346   2.961   4.948 -0.7913 -0.3876 -0.8977
   44CHL1  H12A 4394   0.307   3.027   4.868 -0.4239  0.1401 -0.6435
   44CHL1  H12B 4395   0.289   2.865   4.953 -1.7099  0.1638 -0.5812
   44CHL1   C11 4396   0.334   3.034   5.091 -1.0210  0.4959  0.7010
   44CHL1  H11A 4397   0.378   3.133   5.068  0.3272 -0.4525 -1.0128
   44CHL1  H11B 4398   0.225   3.049   5.110 -1.9202 -1.5052 -2.2047
   44CHL1    C9 4399   0.402   2.948   5.209  0.5090  0.0573  0.2005
   44CHL1    H9 4400   0.347   2.852   5.197  0.8297  0.1208 -2.4541
   44CHL1   C10 4401   0.389   3.011   5.344  0.2397 -0.5376  0.6181
   44CHL1   C19 4402   0.431   3.160   5.336  0.0791 -0.3621 -0.5358
   44CHL1  H19A 4403   0.540   3.148   5.316  0.1139  0.9316 -1.2096
   44CHL1  H19B 4404   0.376   3.214   5.256  0.7200  0.3330 -0.5228
   44CHL1  H19C 4405   0.421   3.224   5.427  2.8593 -0.9500  0.2823
   44CHL1    C1 4406   0.242   2.991   5.388  0.2021 -0.2722 -0.0531
   44CHL1   H1A 4407   0.174   3.050   5.323 -0.4800 -1.3023 -0.2876
   44CHL1   H1B 4408   0.223   2.883   5.375 -0.0167 -0.4808  1.6956
   44CHL1    C2 4409   0.215   3.037   5.529  0.0166  0.2947 -0.2303
   44CHL1   H2A 4410   0.108   3.030   5.560  0.2212  0.4613  0.5405
   44CHL1   H2B 4411   0.225   3.147   5.538 -0.5851  0.2696  0.9583
   44CHL1   C20 4412   0.521   2.896   4.658  0.2100  0.5164  1.3593
   44CHL1   H20 4413   0.574   2.993   4.642  1.5417 -0.3690  0.2593
   44CHL1   C21 4414   0.375   2.916   4.610 -0.1415 -0.0569 -0.4322
   44CHL1  H21A 4415   0.328   2.816   4.604  1.9544 -1.3417  2.3748
   44CHL1  H21B 4416   0.370   2.959   4.507 -0.6810  0.6109 -0.1395
   44CHL1  H21C 4417   0.318   2.981   4.680  2.1773  2.1216 -0.4521
   44CHL1   C22 4418   0.585   2.801   4.548 -0.7038 -0.7898 -0.1994
   44CHL1  H22A 4419   0.685   2.778   4.592 -0.4695  1.1048  0.3602
   44CHL1  H22B 4420   0.535   2.703   4.535  0.2192 -1.1211 -1.4494
   44CHL1   C23 4421   0.615   2.878   4.415 -0.9837  0.4660 -0.6800
   44CHL1  H23A 4422   0.520   2.904   4.365 -0.8174  1.2780 -0.5858
   44CHL1  H23B 4423   0.658   2.975   4.448 -3.5395  0.9161  1.7658
   44CHL1   C24 4424   0.717   2.800   4.327  0.0885  0.0206  0.1584
   44CHL1  H24A 4425   0.804   2.777   4.391 -0.3719 -1.6491  0.2467
   44CHL1  H24B 4426   0.669   2.702   4.306  0.2299 -0.3941  1.6824
   44CHL1   C25 4427   0.773   2.885   4.210 -0.0222  0.1414 -0.5287
   44CHL1   H25 4428   0.693   2.957   4.181 -0.3837  0.2903  0.7497
   44CHL1   C26 4429   0.895   2.969   4.245 -0.3714  0.0533 -0.4260
   44CHL1  H26A 4430   0.872   3.053   4.313 -2.5705 -0.4905 -0.4209
   44CHL1  H26B 4431   0.963   2.900   4.299 -1.3421 -1.4529 -1.0645
   44CHL1  H26C 4432   0.935   3.014   4.152  3.0872  0.3087  1.0541
   44CHL1   C27 4433   0.808   2.799   4.090  0.3667 -0.1300 -0.5647
   44CHL1  H27A 4434   0.818   2.862   4.000 -0.7437  1.1521  0.1788
   44CHL1  H27B 4435   0.899   2.735   4.103 -0.3893 -0.9504  0.9467
   44CHL1  H27C 4436   0.715   2.741   4.074 -1.3619  2.4470 -0.3260
   45CHL1    C3 4437   0.682   3.436   5.580  0.5892  0.1753  0.2295
   45CHL1    H3 4438   0.677   3.329   5.552  1.2972  0.2042 -0.0220
   45CHL1    O3 4439   0.658   3.455   5.717 -0.7365 -0.4067 -0.4632
   45CHL1   H3' 4440   0.740   3.496   5.746  0.0983 -0.9965 -1.8651
   45CHL1    C4 4441   0.826   3.498   5.559 -0.3901  0.0242 -0.2248
   45CHL1   H4A 4442   0.821   3.600   5.602  0.3632 -0.9291  2.2621
   45CHL1   H4B 4443   0.901   3.443   5.620 -0.0639 -1.3909 -1.8200
   45CHL1    C5 4444   0.861   3.493   5.414 -0.5490 -0.5034  0.2614
   45CHL1    C6 4445   0.979   3.446   5.372 -0.9956 -0.4531 -0.0552
   45CHL1    H6 4446   1.045   3.393   5.443 -2.1885 -1.5945  0.2508
   45CHL1    C7 4447   1.020   3.449   5.229 -0.1162 -0.6996 -0.2694
   45CHL1   H7A 4448   1.127   3.473   5.210 -0.3185 -0.9494 -1.9521
   45CHL1   H7B 4449   1.002   3.351   5.179  0.7571  0.0785 -2.2338
   45CHL1    C8 4450   0.941   3.545   5.132  0.0770  0.0277  0.1595
   45CHL1    H8 4451   0.975   3.648   5.153 -0.5474  0.2610  0.0239
   45CHL1   C14 4452   0.962   3.516   4.984 -0.2053  0.0982  0.6095
   45CHL1   H14 4453   0.912   3.417   4.976 -0.4127  0.2566 -0.0997
   45CHL1   C15 4454   1.104   3.482   4.931  0.1716  0.1909  0.2241
   45CHL1  H15A 4455   1.177   3.536   4.994 -2.3837  1.2847  2.4384
   45CHL1  H15B 4456   1.117   3.372   4.931 -0.5629  0.0832  1.4275
   45CHL1   C16 4457   1.095   3.516   4.778 -0.8527  0.7452 -0.3284
   45CHL1  H16A 4458   1.135   3.620   4.770  0.1266  0.3260 -1.0907
   45CHL1  H16B 4459   1.136   3.443   4.706 -2.4476  0.4798 -1.0218
   45CHL1   C17 4460   0.938   3.533   4.745 -0.7332  0.1231  0.6563
   45CHL1   H17 4461   0.896   3.430   4.746 -1.6121  0.4639  2.0574
   45CHL1   C13 4462   0.889   3.595   4.884 -0.3217 -0.4996 -0.2573
   45CHL1   C18 4463   0.919   3.748   4.893  0.2101 -0.2520 -0.6024
   45CHL1  H18A 4464   0.875   3.794   4.802  0.0111  0.7436 -0.0192
   45CHL1  H18B 4465   0.879   3.793   4.986 -3.9800  0.8685 -2.7211
   45CHL1  H18C 4466   1.029   3.768   4.891 -0.1605  2.7001  1.0976
   45CHL1   C12 4467   0.740   3.568   4.918  0.2360 -0.3591 -0.0328
   45CHL1  H12A 4468   0.671   3.611   4.842  0.5108 -0.6244 -0.4409
   45CHL1  H12B 4469   0.737   3.458   4.906 -0.3713 -0.4547  0.9192
   45CHL1   C11 4470   0.702   3.602   5.065  0.3218 -0.6240 -0.4916
   45CHL1  H11A 4471   0.708   3.713   5.069  0.5456 -0.6305 -0.6355
   45CHL1  H11B 4472   0.597   3.576   5.091  0.2377 -0.2270 -0.4161
   45CHL1    C9 4473   0.795   3.529   5.170 -1.2073 -0.0093  0.2974
   45CHL1    H9 4474   0.774   3.421   5.152 -0.8429  0.4880 -4.3655
   45CHL1   C10 4475   0.759   3.559   5.320 -1.0731  0.1931  0.4817
   45CHL1   C19 4476   0.765   3.709   5.333 -0.1523  0.0419  0.6300
   45CHL1  H19A 4477   0.861   3.745   5.291 -1.4136  0.2600 -2.3373
   45CHL1  H19B 4478   0.683   3.757   5.275 -0.1571  1.5451  1.8273
   45CHL1  H19C 4479   0.748   3.749   5.435 -2.1872 -0.4056  0.5198
   45CHL1    C1 4480   0.615   3.501   5.354 -0.4596 -1.2716  0.4648
   45CHL1   H1A 4481   0.547   3.566   5.296  0.6977 -0.7383 -0.3358
   45CHL1   H1B 4482   0.617   3.399   5.309  1.0329 -0.3621 -1.6646
   45CHL1    C2 4483   0.579   3.516   5.503  0.3800  0.3073  0.0096
   45CHL1   H2A 4484   0.478   3.481   5.534 -0.7145  2.9220 -0.3489
   45CHL1   H2B 4485   0.590   3.622   5.531 -0.1443  0.2134  0.6020
   45CHL1   C20 4486   0.909   3.600   4.611 -0.3769 -0.0614  0.9000
   45CHL1   H20 4487   0.944   3.705   4.626 -1.1431  0.6834 -1.9005
   45CHL1   C21 4488   0.764   3.597   4.569  0.2435  0.3120 -0.1916
   45CHL1  H21A 4489   0.696   3.633   4.650 -1.2328  0.5505 -1.4999
   45CHL1  H21B 4490   0.725   3.493   4.558  0.6889 -0.1440  2.0206
   45CHL1  H21C 4491   0.738   3.661   4.483 -1.4101 -0.3327 -0.2298
   45CHL1   C22 4492   1.001   3.557   4.495 -0.1386 -0.2423 -0.0162
   45CHL1  H22A 4493   1.109   3.565   4.515 -0.4252  1.9944  0.9012
   45CHL1  H22B 4494   0.981   3.449   4.480 -0.0111 -0.5790  1.9910
   45CHL1   C23 4495   0.970   3.613   4.351  0.6967 -0.2378  0.9071
   45CHL1  H23A 4496   0.866   3.587   4.323  2.1398 -2.4549 -3.2374
   45CHL1  H23B 4497   0.971   3.724   4.347  1.4706 -0.2605 -3.2298
   45CHL1   C24 4498   1.059   3.559   4.244  0.1188 -0.1662 -0.2299
   45CHL1  H24A 4499   1.037   3.608   4.147 -0.0102 -0.5489 -0.3969
   45CHL1  H24B 4500   1.163   3.589   4.267  0.4318  1.0808 -2.8916
   45CHL1   C25 4501   1.056   3.412   4.219 -0.2372  0.6162  0.4577
   45CHL1   H25 4502   1.066   3.345   4.307  0.0522 -0.2329 -0.1947
   45CHL1   C26 4503   0.921   3.384   4.149 -0.1759 -0.2833 -0.0042
   45CHL1  H26A 4504   0.912   3.452   4.061 -0.0463 -0.7707 -0.3972
   45CHL1  H26B 4505   0.915   3.279   4.114 -0.8721  0.5726 -2.7868
   45CHL1  H26C 4506   0.835   3.413   4.214 -2.1237 -0.1025 -2.4914
   45CHL1   C27 4507   1.183   3.387   4.133  0.3824 -0.1051  0.2868
   45CHL1  H27A 4508   1.198   3.463   4.053 -2.7258 -0.2179 -0.5192
   45CHL1  H27B 4509   1.274   3.393   4.196 -0.8472  0.1947  2.0868
   45CHL1  H27C 4510   1.190   3.287   4.083  1.2427 -0.2144  0.6147
   46CHL1    C3 4511   2.874   3.200   5.878  0.0547  0.1251  0.0514
   46CHL1    H3 4512   2.983   3.184   5.883  0.1479 -0.2447 -2.4169
   46CHL1    O3 4513   2.817   3.226   6.006  0.2595 -0.0451 -0.1388
   46CHL1   H3' 4514   2.723   3.220   5.990 -0.2719  0.2788  2.3244
   46CHL1    C4 4515   2.852   3.320   5.795  0.4862  0.0054  0.1692
   46CHL1   H4A 4516   2.741   3.327   5.798  0.3798 -0.0580 -1.9498
   46CHL1   H4B 4517   2.898   3.407   5.846  0.2324  0.7667 -0.8777
   46CHL1    C5 4518   2.897   3.305   5.649 -0.5786 -0.1015  0.4541
   46CHL1    C6 4519   2.977   3.400   5.594 -0.6202 -0.0024 -0.2823
   46CHL1    H6 4520   3.007   3.485   5.657  2.1652 -0.5879 -0.6679
   46CHL1    C7 4521   3.027   3.390   5.447  0.9457  0.4969  0.1051
   46CHL1   H7A 4522   3.007   3.486   5.396 -0.4014  0.6641  0.8906
   46CHL1   H7B 4523   3.135   3.365   5.449  0.4947 -1.6756  1.8718
   46CHL1    C8 4524   2.943   3.288   5.358 -0.2184  0.1267 -0.1113
   46CHL1    H8 4525   2.847   3.336   5.329 -1.2953 -2.6213 -1.4609
   46CHL1   C14 4526   3.017   3.244   5.232  0.3006  0.5629  0.3620
   46CHL1   H14 4527   3.103   3.182   5.266  1.4329  1.4472 -0.8347
   46CHL1   C15 4528   3.084   3.346   5.135  0.2378  0.2578  0.1407
   46CHL1  H15A 4529   3.013   3.424   5.103  0.6297  1.0554  1.1459
   46CHL1  H15B 4530   3.177   3.392   5.175  0.4698 -0.5507  0.5653
   46CHL1   C16 4531   3.119   3.266   5.012 -0.1976 -0.4670 -0.6220
   46CHL1  H16A 4532   3.077   3.320   4.924 -3.7920  0.0498  1.2336
   46CHL1  H16B 4533   3.228   3.251   4.991 -0.2423  0.2064 -1.3883
   46CHL1   C17 4534   3.047   3.132   5.026 -0.0183  0.6799  0.0199
   46CHL1   H17 4535   3.119   3.061   5.071  1.7201  1.2231 -1.7713
   46CHL1   C13 4536   2.933   3.154   5.138 -0.1411  0.3987  1.3523
   46CHL1   C18 4537   2.807   3.223   5.068  0.0700 -0.6872 -0.5695
   46CHL1  H18A 4538   2.850   3.307   5.010 -0.6248 -0.6008 -0.9659
   46CHL1  H18B 4539   2.752   3.150   5.006 -2.5401  1.1960 -0.6555
   46CHL1  H18C 4540   2.729   3.266   5.135  0.2438  0.2434 -0.9473
   46CHL1   C12 4541   2.896   3.028   5.222 -0.5883  0.2539  0.6723
   46CHL1  H12A 4542   2.830   2.958   5.166 -1.4749  0.2734  1.6739
   46CHL1  H12B 4543   2.983   2.970   5.259  1.9686  2.9392 -0.6960
   46CHL1   C11 4544   2.821   3.063   5.354 -0.4268 -0.2649 -0.6889
   46CHL1  H11A 4545   2.723   3.099   5.317  0.1307  1.6600 -0.3794
   46CHL1  H11B 4546   2.828   2.966   5.408  2.7247 -0.0112 -0.4662
   46CHL1    C9 4547   2.899   3.161   5.443  0.4433  0.0208 -0.8554
   46CHL1    H9 4548   2.998   3.113   5.461  0.2435 -0.5027 -1.1418
   46CHL1   C10 4549   2.834   3.188   5.578  0.8445  0.0355 -0.0274
   46CHL1   C19 4550   2.677   3.208   5.567  0.0169 -0.0552  0.2706
   46CHL1  H19A 4551   2.624   3.131   5.508 -2.4234  0.9180  1.0916
   46CHL1  H19B 4552   2.624   3.230   5.662  0.3906  1.0433  0.2404
   46CHL1  H19C 4553   2.664   3.307   5.517  0.9836  0.2926  0.6682
   46CHL1    C1 4554   2.859   3.062   5.673 -0.5401 -0.7360  0.3019
   46CHL1   H1A 4555   2.822   2.973   5.617  0.4140 -0.4497 -0.8343
   46CHL1   H1B 4556   2.969   3.046   5.675 -0.5496 -0.8523  0.0081
   46CHL1    C2 4557   2.807   3.071   5.811  0.0740  0.0252  1.0707
   46CHL1   H2A 4558   2.831   2.972   5.856 -0.0064 -0.4383  0.1231
   46CHL1   H2B 4559   2.697   3.079   5.809  0.0412 -0.4228 -0.4191
   46CHL1   C20 4560   3.002   3.063   4.895  0.3406 -0.5540  0.0637
   46CHL1   H20 4561   2.937   3.139   4.847  2.2329  2.3146  1.7112
   46CHL1   C21 4562   2.927   2.934   4.920 -1.3943  0.1726 -0.0082
   46CHL1  H21A 4563   2.825   2.964   4.952 -1.2253  2.4638 -1.4188
   46CHL1  H21B 4564   2.971   2.869   4.998 -1.1107  1.5067  0.9733
   46CHL1  H21C 4565   2.921   2.872   4.828 -1.1546 -1.4205  1.0093
   46CHL1   C22 4566   3.114   3.028   4.790  0.2424 -0.5680 -0.4204
   46CHL1  H22A 4567   3.193   3.106   4.793  0.9019 -1.2241 -0.3153
   46CHL1  H22B 4568   3.165   2.935   4.822  2.2368 -0.0233 -1.7559
   46CHL1   C23 4569   3.055   3.030   4.650 -0.2263  0.3414  0.2585
   46CHL1  H23A 4570   2.986   2.949   4.617  0.4002 -0.4342  0.8261
   46CHL1  H23B 4571   3.008   3.131   4.639  1.0547  0.7007 -2.7563
   46CHL1   C24 4572   3.170   3.027   4.536 -0.2221 -1.1143 -0.0243
   46CHL1  H24A 4573   3.217   3.128   4.548 -0.9264 -0.6091 -1.3157
   46CHL1  H24B 4574   3.246   2.946   4.544  1.3398  0.3208  0.3247
   46CHL1   C25 4575   3.114   3.016   4.394  1.2120  0.4083 -0.1575
   46CHL1   H25 4576   3.058   2.920   4.390 -1.5320  1.8410  0.6341
   46CHL1   C26 4577   3.016   3.125   4.367  0.3508  0.2480 -0.0235
   46CHL1  H26A 4578   2.960   3.093   4.277  0.4542 -2.1237  0.6846
   46CHL1  H26B 4579   2.945   3.143   4.450 -1.4454 -0.1856 -1.4202
   46CHL1  H26C 4580   3.073   3.220   4.355  0.8468  0.4687  3.1004
   46CHL1   C27 4581   3.229   3.008   4.289  0.0728  0.2316 -0.1793
   46CHL1  H27A 4582   3.307   2.934   4.317  0.2706  0.5198  0.0385
   46CHL1  H27B 4583   3.183   2.990   4.189  0.9404 -0.2145 -0.5105
   46CHL1  H27C 4584   3.268   3.111   4.292  0.6478  0.0072  0.2636
   47CHL1    C3 4585   4.434   3.753   5.542  0.0660  0.3762 -0.0115
   47CHL1    H3 4586   4.493   3.842   5.513 -0.4428 -0.0867 -2.6893
   47CHL1    O3 4587   4.394   3.769   5.679 -0.2313  0.2492 -0.6544
   47CHL1   H3' 4588   4.468   3.749   5.736 -1.2800  1.0196  1.0811
   47CHL1    C4 4589   4.308   3.746   5.456 -0.8174  0.8530 -0.2395
   47CHL1   H4A 4590   4.249   3.656   5.483  1.7099 -0.3894  1.5358
   47CHL1   H4B 4591   4.244   3.837   5.469 -0.1374  1.3902 -0.5834
   47CHL1    C5 4592   4.357   3.741   5.309 -0.1288 -0.7527  0.9461
   47CHL1    C6 4593   4.335   3.844   5.226  0.2169  0.6929 -0.0925
   47CHL1    H6 4594   4.262   3.921   5.253  0.5591  0.8814  0.3171
   47CHL1    C7 4595   4.393   3.847   5.086  0.1996  0.9965  0.3063
   47CHL1   H7A 4596   4.316   3.900   5.027 -0.5975  0.8900  1.2295
   47CHL1   H7B 4597   4.481   3.915   5.093  1.7192 -0.7814 -0.6350
   47CHL1    C8 4598   4.418   3.709   5.033  0.4439  0.2246  0.3037
   47CHL1    H8 4599   4.321   3.654   5.029  0.8876 -0.5203 -1.7552
   47CHL1   C14 4600   4.483   3.708   4.893 -0.2317  0.0351  0.5676
   47CHL1   H14 4601   4.579   3.761   4.910  0.0032 -0.6134  1.3217
   47CHL1   C15 4602   4.412   3.793   4.789  0.0009  1.1370  0.0010
   47CHL1  H15A 4603   4.304   3.768   4.787 -0.3126  2.5023 -1.5891
   47CHL1  H15B 4604   4.436   3.898   4.816 -1.3147  0.8989  2.3602
   47CHL1   C16 4605   4.464   3.740   4.654  0.0050  0.0268  0.2708
   47CHL1  H16A 4606   4.387   3.692   4.590  1.2733  0.5055 -1.7145
   47CHL1  H16B 4607   4.517   3.824   4.604  2.7826 -1.7568  0.0661
   47CHL1   C17 4608   4.575   3.633   4.688  0.0187  0.6428  0.3611
   47CHL1   H17 4609   4.666   3.692   4.713  0.3056  0.6285 -0.6398
   47CHL1   C13 4610   4.528   3.575   4.828  0.6343 -0.4121  0.3886
   47CHL1   C18 4611   4.411   3.474   4.807  0.1674 -0.0957  0.2405
   47CHL1  H18A 4612   4.443   3.386   4.747  0.0221 -0.4243  0.6441
   47CHL1  H18B 4613   4.379   3.443   4.909 -2.7133  2.3817  0.2399
   47CHL1  H18C 4614   4.317   3.510   4.760  0.5101 -0.3397 -0.6521
   47CHL1   C12 4615   4.634   3.523   4.929 -0.0624 -0.3823 -0.4210
   47CHL1  H12A 4616   4.675   3.426   4.891  1.5720 -0.0044  0.2743
   47CHL1  H12B 4617   4.718   3.595   4.938 -1.2351  0.9072  0.5118
   47CHL1   C11 4618   4.574   3.506   5.066  0.4535 -0.6330 -0.1460
   47CHL1  H11A 4619   4.491   3.433   5.057  1.5788 -1.9960  0.2674
   47CHL1  H11B 4620   4.647   3.463   5.138  0.2716  0.1485  0.5287
   47CHL1    C9 4621   4.519   3.641   5.124  0.6183 -1.1104  0.7813
   47CHL1    H9 4622   4.601   3.716   5.130  0.2395 -0.6821  0.5791
   47CHL1   C10 4623   4.448   3.631   5.271  0.7786  0.3973  0.1478
   47CHL1   C19 4624   4.367   3.498   5.270  0.6904  0.1652  0.0189
   47CHL1  H19A 4625   4.428   3.407   5.253 -1.1548 -1.1731  0.2575
   47CHL1  H19B 4626   4.323   3.478   5.370  1.1057  0.1320  0.2005
   47CHL1  H19C 4627   4.283   3.501   5.198 -1.5722 -0.3782  2.4941
   47CHL1    C1 4628   4.567   3.616   5.378  0.6025 -0.1421 -0.4419
   47CHL1   H1A 4629   4.620   3.520   5.363 -1.1707 -0.9525 -2.0095
   47CHL1   H1B 4630   4.636   3.699   5.354  0.1329  0.5221  0.4250
   47CHL1    C2 4631   4.518   3.625   5.525 -0.3329 -0.2552 -0.2660
   47CHL1   H2A 4632   4.606   3.640   5.591 -0.8964  2.4630 -0.0218
   47CHL1   H2B 4633   4.455   3.537   5.551  0.1255 -0.5227 -0.0400
   47CHL1   C20 4634   4.602   3.537   4.575  0.1927 -0.5241 -0.1378
   47CHL1   H20 4635   4.513   3.477   4.544  1.1164 -0.4506 -3.2559
   47CHL1   C21 4636   4.710   3.437   4.609  0.2754 -0.3486 -0.8261
   47CHL1  H21A 4637   4.661   3.364   4.677 -0.0572  0.3301 -0.3293
   47CHL1  H21B 4638   4.800   3.487   4.650  1.5289 -1.1816 -2.3995
   47CHL1  H21C 4639   4.755   3.386   4.520 -1.7623  0.0026 -2.1312
   47CHL1   C22 4640   4.649   3.620   4.445  0.1176  0.3091  0.3773
   47CHL1  H22A 4641   4.694   3.549   4.372 -1.0502  0.4079 -0.4649
   47CHL1  H22B 4642   4.564   3.672   4.396  1.4146  1.9208 -0.2533
   47CHL1   C23 4643   4.761   3.718   4.472 -0.8735  0.2939 -0.3542
   47CHL1  H23A 4644   4.731   3.783   4.557  0.2044 -0.2744  0.4919
   47CHL1  H23B 4645   4.849   3.655   4.499 -2.0342 -1.0422  0.4707
   47CHL1   C24 4646   4.798   3.817   4.358  0.7210  0.9079 -0.3222
   47CHL1  H24A 4647   4.874   3.776   4.288  0.4826 -1.8047  0.8681
   47CHL1  H24B 4648   4.708   3.849   4.301  0.5702 -0.8077 -1.1204
   47CHL1   C25 4649   4.868   3.940   4.410 -0.4802 -0.3068 -0.6390
   47CHL1   H25 4650   4.800   3.987   4.484 -0.6923 -1.4348 -0.0842
   47CHL1   C26 4651   4.993   3.900   4.483  0.0291  0.5242  0.0175
   47CHL1  H26A 4652   5.052   3.823   4.431  0.9295 -0.3002  2.1233
   47CHL1  H26B 4653   5.046   3.998   4.489 -0.5466  0.9546 -1.4718
   47CHL1  H26C 4654   4.967   3.867   4.586 -1.5614 -1.3345 -0.9193
   47CHL1   C27 4655   4.894   4.039   4.295  0.0338 -0.6526 -0.1805
   47CHL1  H27A 4656   4.802   4.069   4.241  0.9111  0.9102 -0.8803
   47CHL1  H27B 4657   4.943   4.130   4.336 -0.9913 -1.1461  2.3380
   47CHL1  H27C 4658   4.958   3.994   4.217 -1.4172  0.1012 -1.8730
   48CHL1    C3 4659   1.847   5.043   5.881  0.1688 -0.1804  0.0663
   48CHL1    H3 4660   1.838   4.936   5.856  1.4689 -0.0966 -0.8761
   48CHL1    O3 4661   1.835   5.080   6.020  0.2316  0.5437 -0.6005
   48CHL1   H3' 4662   1.837   5.175   6.028  0.8275  0.5513 -0.8133
   48CHL1    C4 4663   1.985   5.093   5.842 -0.0451 -0.2020 -0.3405
   48CHL1   H4A 4664   1.980   5.202   5.867 -2.9944 -0.1561 -0.7836
   48CHL1   H4B 4665   2.068   5.046   5.899  0.6390  0.2724 -0.9220
   48CHL1    C5 4666   2.012   5.094   5.697  0.1433  0.4152 -0.3283
   48CHL1    C6 4667   2.119   5.028   5.648 -0.0580 -0.4242 -0.3384
   48CHL1    H6 4668   2.180   4.961   5.711  0.1809 -1.9276 -2.0620
   48CHL1    C7 4669   2.169   5.042   5.516  0.1238  0.3569 -0.0197
   48CHL1   H7A 4670   2.276   5.072   5.524  0.6155 -1.1580 -0.4594
   48CHL1   H7B 4671   2.169   4.942   5.468 -0.0753  0.7982 -0.9594
   48CHL1    C8 4672   2.086   5.139   5.420  0.2628 -0.8946 -0.1026
   48CHL1    H8 4673   2.146   5.231   5.436 -2.8204  1.0107  1.6401
   48CHL1   C14 4674   2.097   5.084   5.274  0.0443 -0.3934 -0.1534
   48CHL1   H14 4675   2.045   4.986   5.281 -0.7836 -0.0357 -1.1152
   48CHL1   C15 4676   2.235   5.060   5.214  0.2485 -0.0358  0.4670
   48CHL1  H15A 4677   2.304   5.139   5.251  1.1961 -1.1861  1.2073
   48CHL1  H15B 4678   2.266   4.957   5.240 -0.8384 -0.1156  1.4958
   48CHL1   C16 4679   2.206   5.067   5.063  0.4548 -0.1069 -0.5759
   48CHL1  H16A 4680   2.254   5.154   5.014 -2.3394 -0.2623 -4.0238
   48CHL1  H16B 4681   2.235   4.975   5.007  1.0616 -1.4297  1.7734
   48CHL1   C17 4682   2.057   5.085   5.046  0.3317  0.3216 -0.5394
   48CHL1   H17 4683   2.023   4.980   5.059  4.1709 -0.9268  0.5141
   48CHL1   C13 4684   2.016   5.159   5.172 -0.3576  0.1831 -0.0341
   48CHL1   C18 4685   2.076   5.308   5.168 -0.0599  0.1793  0.0603
   48CHL1  H18A 4686   2.030   5.366   5.085  0.0531  1.0068  0.5615
   48CHL1  H18B 4687   2.055   5.350   5.268 -2.7710 -2.3156  0.6693
   48CHL1  H18C 4688   2.182   5.315   5.137 -0.3341  1.2593 -0.6747
   48CHL1   C12 4689   1.871   5.166   5.215  0.1716 -0.0784 -0.2586
   48CHL1  H12A 4690   1.813   5.219   5.137 -1.9221 -2.8334 -0.7235
   48CHL1  H12B 4691   1.820   5.069   5.232  0.7954  0.1122  3.5695
   48CHL1   C11 4692   1.851   5.227   5.351  0.7170 -0.2597 -0.1289
   48CHL1  H11A 4693   1.878   5.335   5.351  0.7143 -0.2246 -1.8770
   48CHL1  H11B 4694   1.745   5.213   5.380  1.0942  0.5060  1.7855
   48CHL1    C9 4695   1.939   5.146   5.463  0.3878  0.8875 -1.2213
   48CHL1    H9 4696   1.895   5.045   5.449  0.2454  0.9700 -1.3751
   48CHL1   C10 4697   1.915   5.177   5.612  0.0139 -0.3489  0.9773
   48CHL1   C19 4698   1.935   5.325   5.635  0.2445  0.0011  0.4686
   48CHL1  H19A 4699   2.042   5.346   5.615 -0.1621 -0.4130 -2.5533
   48CHL1  H19B 4700   1.865   5.371   5.562  0.4550 -0.6101 -0.1266
   48CHL1  H19C 4701   1.908   5.363   5.736  0.2253  0.6011  0.2378
   48CHL1    C1 4702   1.779   5.123   5.657  0.4192  0.6271 -0.5491
   48CHL1   H1A 4703   1.700   5.178   5.600  0.3856  0.1294 -0.9843
   48CHL1   H1B 4704   1.764   5.015   5.636 -1.8428  0.2381  2.3885
   48CHL1    C2 4705   1.740   5.122   5.802 -0.3625  0.1260  0.3133
   48CHL1   H2A 4706   1.639   5.078   5.817 -0.6054  0.5601 -0.0287
   48CHL1   H2B 4707   1.736   5.226   5.840 -0.4289  0.0314  0.5671
   48CHL1   C20 4708   2.034   5.137   4.904  0.7541  0.5656 -0.0985
   48CHL1   H20 4709   2.091   5.232   4.900 -1.6210  2.0878 -0.0258
   48CHL1   C21 4710   1.882   5.167   4.875  0.0406  0.1616  0.1074
   48CHL1  H21A 4711   1.864   5.198   4.770 -1.2551  0.7105  0.4651
   48CHL1  H21B 4712   1.825   5.073   4.889 -1.4594  0.4718 -3.0227
   48CHL1  H21C 4713   1.846   5.242   4.949 -1.9341 -0.1409 -0.4965
   48CHL1   C22 4714   2.089   5.042   4.796  0.3202  0.5486 -0.7737
   48CHL1  H22A 4715   2.048   5.080   4.699  0.0815 -2.2366 -1.8608
   48CHL1  H22B 4716   2.200   5.047   4.787  0.5634 -0.2505  1.2917
   48CHL1   C23 4717   2.037   4.895   4.805 -0.2137  0.5983  0.7321
   48CHL1  H23A 4718   2.089   4.841   4.887  0.6611  3.2318  2.0512
   48CHL1  H23B 4719   1.926   4.896   4.818 -0.5033  1.2131 -1.4065
   48CHL1   C24 4720   2.067   4.823   4.671  0.4261 -0.1243 -0.3421
   48CHL1  H24A 4721   2.002   4.862   4.590 -0.6066 -0.7129  0.1900
   48CHL1  H24B 4722   2.168   4.855   4.639  1.9579 -2.2666  1.9427
   48CHL1   C25 4723   2.069   4.673   4.675  0.1855  0.5914 -0.3862
   48CHL1   H25 4724   2.143   4.651   4.755 -1.9059 -0.1239  1.4587
   48CHL1   C26 4725   1.929   4.622   4.727 -0.1085  0.1807  0.3630
   48CHL1  H26A 4726   1.853   4.678   4.668  1.0748  2.0245  0.4795
   48CHL1  H26B 4727   1.914   4.513   4.715 -0.8141  0.0571  2.1134
   48CHL1  H26C 4728   1.916   4.653   4.833 -2.0308  2.3247 -0.4224
   48CHL1   C27 4729   2.109   4.608   4.546  0.3771  0.0790  0.7342
   48CHL1  H27A 4730   2.126   4.498   4.548 -2.2303 -0.5358 -2.4189
   48CHL1  H27B 4731   2.033   4.633   4.469  1.2722  1.0035  0.1250
   48CHL1  H27C 4732   2.195   4.652   4.490 -1.2679  0.6697 -1.4957
   49CHL1    C3 4733   3.914   4.927   2.682 -0.1396 -0.0921 -1.7793
   49CHL1    H3 4734   4.001   4.895   2.744 -0.1477 -2.1566 -2.7473
   49CHL1    O3 4735   3.955   4.950   2.548 -0.3411  0.1601 -0.3424
   49CHL1   H3' 4736   3.883   4.917   2.493  0.2203  2.2720 -2.4890
   49CHL1    C4 4737   3.812   4.820   2.681 -0.2789  0.6299  0.2064
   49CHL1   H4A 4738   3.720   4.842   2.622 -0.3373  2.5605  0.9211
   49CHL1   H4B 4739   3.858   4.724   2.650 -2.9234 -0.5148 -0.4302
   49CHL1    C5 4740   3.756   4.791   2.820  0.1469  0.2554  0.5594
   49CHL1    C6 4741   3.751   4.660   2.865 -0.4265 -0.2904 -0.1287
   49CHL1    H6 4742   3.797   4.588   2.795  0.6793  1.1993 -1.0081
   49CHL1    C7 4743   3.689   4.624   2.999 -0.7122 -0.2382 -0.1656
   49CHL1   H7A 4744   3.635   4.529   2.981 -0.2355 -0.3467 -1.0824
   49CHL1   H7B 4745   3.765   4.599   3.077 -2.1915 -1.5918  0.8794
   49CHL1    C8 4746   3.604   4.736   3.063  0.1421 -0.2117  0.8798
   49CHL1    H8 4747   3.505   4.745   3.012  0.9415 -0.6452 -0.8216
   49CHL1   C14 4748   3.597   4.721   3.214  0.3416 -0.7780 -0.0436
   49CHL1   H14 4749   3.699   4.742   3.253  0.7634  0.8742 -1.8803
   49CHL1   C15 4750   3.546   4.583   3.271 -0.7389  0.4207  0.5147
   49CHL1  H15A 4751   3.469   4.521   3.220 -0.9368 -1.5559  3.0218
   49CHL1  H15B 4752   3.631   4.514   3.290 -2.4239 -2.1499 -0.7457
   49CHL1   C16 4753   3.493   4.617   3.413  0.0642 -0.1369 -0.3726
   49CHL1  H16A 4754   3.383   4.599   3.422  0.1021 -0.3734 -0.3721
   49CHL1  H16B 4755   3.543   4.560   3.494 -2.1214  0.2699  1.3573
   49CHL1   C17 4756   3.508   4.776   3.433  0.4324 -0.2807  1.0164
   49CHL1   H17 4757   3.608   4.795   3.477  2.4608 -2.7347 -2.0605
   49CHL1   C13 4758   3.506   4.827   3.291 -0.2857 -0.8754 -0.1170
   49CHL1   C18 4759   3.367   4.825   3.224 -0.4176  0.3621  0.0942
   49CHL1  H18A 4760   3.336   4.721   3.248  1.9038 -0.1773  1.0063
   49CHL1  H18B 4761   3.310   4.910   3.268  0.9944  1.1820  0.4120
   49CHL1  H18C 4762   3.364   4.827   3.113 -1.6771 -1.2892  0.0480
   49CHL1   C12 4763   3.580   4.966   3.268  0.1052  0.6241  0.1484
   49CHL1  H12A 4764   3.515   5.044   3.311 -0.8951 -0.2625  0.2869
   49CHL1  H12B 4765   3.677   4.993   3.315  0.2425 -0.1622  0.3302
   49CHL1   C11 4766   3.598   4.988   3.122  0.3659  0.4422  0.5818
   49CHL1  H11A 4767   3.494   4.995   3.083 -0.1850  2.2357  2.2025
   49CHL1  H11B 4768   3.643   5.086   3.095 -0.9520  0.4601 -1.8644
   49CHL1    C9 4769   3.666   4.874   3.042 -0.0983  0.9707  0.2604
   49CHL1    H9 4770   3.765   4.856   3.088  0.7622  1.9396 -1.1616
   49CHL1   C10 4771   3.695   4.910   2.893  0.2227 -0.3490 -0.4374
   49CHL1   C19 4772   3.563   4.940   2.822  0.1207 -0.3178  0.1967
   49CHL1  H19A 4773   3.500   4.849   2.832 -1.3294  0.4737 -1.2627
   49CHL1  H19B 4774   3.512   5.030   2.863  2.5181  0.6285  1.3047
   49CHL1  H19C 4775   3.568   4.956   2.712  2.5335  2.1503  0.5577
   49CHL1    C1 4776   3.786   5.033   2.875  0.1138 -0.7519 -0.9197
   49CHL1   H1A 4777   3.731   5.125   2.904 -1.0149 -1.3117 -1.2166
   49CHL1   H1B 4778   3.866   5.019   2.951 -0.4727  2.2781  0.3954
   49CHL1    C2 4779   3.846   5.055   2.737 -0.1885  0.2743 -0.0557
   49CHL1   H2A 4780   3.929   5.129   2.741  0.9600 -0.9224 -1.0554
   49CHL1   H2B 4781   3.763   5.086   2.669  2.0759  1.5938 -2.3937
   49CHL1   C20 4782   3.405   4.828   3.535 -0.4546 -1.1783  0.6759
   49CHL1   H20 4783   3.308   4.838   3.482 -0.6261 -0.2407  1.1368
   49CHL1   C21 4784   3.450   4.964   3.589  0.6574  0.2815 -0.2391
   49CHL1  H21A 4785   3.480   5.039   3.511 -0.0078  1.8255  0.9360
   49CHL1  H21B 4786   3.543   4.951   3.648  0.0536 -0.5282  0.5474
   49CHL1  H21C 4787   3.373   5.015   3.650 -0.1435  0.8329 -1.6634
   49CHL1   C22 4788   3.377   4.731   3.656 -0.2778 -0.7084 -0.0142
   49CHL1  H22A 4789   3.345   4.630   3.621 -0.9214 -0.6315  0.3233
   49CHL1  H22B 4790   3.457   4.735   3.733 -2.8943  2.4557  2.8431
   49CHL1   C23 4791   3.242   4.755   3.726  0.2183  0.5166  0.3356
   49CHL1  H23A 4792   3.241   4.848   3.787  0.4653  0.8396 -0.1466
   49CHL1  H23B 4793   3.163   4.762   3.649 -0.4915 -1.0080  0.8757
   49CHL1   C24 4794   3.209   4.638   3.817 -0.8564  0.0119 -0.1323
   49CHL1  H24A 4795   3.224   4.547   3.754 -0.5086 -1.8682  2.5173
   49CHL1  H24B 4796   3.284   4.640   3.898 -2.2306  0.8664  1.1621
   49CHL1   C25 4797   3.061   4.615   3.865  0.7505  0.3367 -0.0768
   49CHL1   H25 4798   2.994   4.642   3.781  0.1572  0.1745  0.3420
   49CHL1   C26 4799   3.048   4.465   3.899 -0.3887 -0.7197  0.4067
   49CHL1  H26A 4800   3.088   4.397   3.820  0.4887 -0.7094  0.8344
   49CHL1  H26B 4801   3.103   4.451   3.994 -0.9869 -2.0220  0.5841
   49CHL1  H26C 4802   2.944   4.438   3.928 -0.6045  0.0958  0.4191
   49CHL1   C27 4803   3.021   4.712   3.974 -0.6073  0.3244 -0.7321
   49CHL1  H27A 4804   2.913   4.716   3.997 -0.3791 -0.7454  0.6819
   49CHL1  H27B 4805   3.072   4.707   4.073 -0.8804 -1.9187 -0.6544
   49CHL1  H27C 4806   3.044   4.808   3.924 -1.0022  0.7727 -0.0717
   50CHL1    C3 4807   4.525   2.712   2.656 -0.7979  0.4480 -0.0663
   50CHL1    H3 4808   4.609   2.784   2.643  0.1935 -0.4589  1.0701
   50CHL1    O3 4809   4.508   2.659   2.528  0.2072 -0.0957  0.0060
   50CHL1   H3' 4810   4.597   2.634   2.500  0.0322  1.6964 -2.5161
   50CHL1    C4 4811   4.579   2.599   2.737  0.3674 -0.6794  0.2205
   50CHL1   H4A 4812   4.504   2.516   2.735 -0.8093  0.3460  0.1572
   50CHL1   H4B 4813   4.674   2.568   2.689  0.2211 -1.2724  0.3022
   50CHL1    C5 4814   4.605   2.638   2.878  0.0376  0.1403  0.0093
   50CHL1    C6 4815   4.724   2.631   2.941  0.2899  0.0782 -0.3834
   50CHL1    H6 4816   4.806   2.590   2.881 -1.7228  0.1218 -3.3687
   50CHL1    C7 4817   4.737   2.645   3.092 -0.2577 -0.0517 -0.1025
   50CHL1   H7A 4818   4.789   2.553   3.127  3.3178  1.6969 -0.3089
   50CHL1   H7B 4819   4.796   2.734   3.122 -0.3826  0.4670 -1.3268
   50CHL1    C8 4820   4.608   2.673   3.164  0.0473  0.2129  0.2382
   50CHL1    H8 4821   4.552   2.580   3.189  0.1671 -0.8840 -3.0620
   50CHL1   C14 4822   4.631   2.737   3.301 -0.4807 -0.5112 -0.5799
   50CHL1   H14 4823   4.675   2.836   3.276 -0.9803 -0.4748 -1.3553
   50CHL1   C15 4824   4.729   2.670   3.399 -0.0655  0.0445  0.2147
   50CHL1  H15A 4825   4.719   2.559   3.409  1.1901  0.1100  3.5031
   50CHL1  H15B 4826   4.834   2.679   3.362 -0.1378  0.3045  0.0744
   50CHL1   C16 4827   4.710   2.747   3.528 -0.2163  0.4141 -0.2756
   50CHL1  H16A 4828   4.710   2.673   3.611  2.1310  0.1612 -0.4510
   50CHL1  H16B 4829   4.793   2.818   3.545  0.9616 -1.0600  0.3216
   50CHL1   C17 4830   4.588   2.835   3.511  0.0788 -0.6787  0.9315
   50CHL1   H17 4831   4.630   2.931   3.475  2.1195 -1.0144  2.2616
   50CHL1   C13 4832   4.510   2.780   3.386  0.1539  0.4395 -0.1308
   50CHL1   C18 4833   4.429   2.659   3.432 -0.3525 -1.0212  0.4037
   50CHL1  H18A 4834   4.492   2.586   3.488 -0.0768 -0.4412  0.8618
   50CHL1  H18B 4835   4.345   2.689   3.499  0.4413 -0.9795  1.4097
   50CHL1  H18C 4836   4.384   2.613   3.342 -1.1946  0.9058 -0.2185
   50CHL1   C12 4837   4.428   2.879   3.304  0.4784  0.7069  0.8585
   50CHL1  H12A 4838   4.329   2.909   3.345 -0.1253  2.7868 -1.7971
   50CHL1  H12B 4839   4.480   2.977   3.308 -2.5724  2.6254 -1.5019
   50CHL1   C11 4840   4.401   2.824   3.167  0.1767  0.1054  0.1445
   50CHL1  H11A 4841   4.329   2.742   3.191  0.9066 -0.0602  1.9064
   50CHL1  H11B 4842   4.347   2.898   3.105  0.1053 -1.5525 -1.8712
   50CHL1    C9 4843   4.521   2.760   3.085  0.0203  0.0420 -0.6250
   50CHL1    H9 4844   4.580   2.851   3.064 -0.3650  0.7345  1.1448
   50CHL1   C10 4845   4.480   2.700   2.949  0.4144  0.5868 -0.2196
   50CHL1   C19 4846   4.368   2.597   2.964 -0.4064  0.4683 -0.8461
   50CHL1  H19A 4847   4.402   2.518   3.034  1.4568  1.4893 -0.5183
   50CHL1  H19B 4848   4.277   2.646   3.004 -0.0268 -0.4069  1.1979
   50CHL1  H19C 4849   4.339   2.556   2.865  0.0789  1.5087 -1.4335
   50CHL1    C1 4850   4.424   2.814   2.862 -0.0318 -0.0851 -0.5116
   50CHL1   H1A 4851   4.327   2.842   2.907  0.0536 -0.9776  0.2654
   50CHL1   H1B 4852   4.504   2.892   2.867 -0.8045  0.6677  0.6030
   50CHL1    C2 4853   4.400   2.772   2.715 -0.9469  0.1887 -0.6883
   50CHL1   H2A 4854   4.371   2.863   2.659  0.4937 -0.3768 -2.4376
   50CHL1   H2B 4855   4.325   2.689   2.720 -0.5883 -0.1544 -1.0014
   50CHL1   C20 4856   4.508   2.868   3.642 -0.1735  0.2045 -0.3370
   50CHL1   H20 4857   4.460   2.773   3.674 -0.5637 -0.1687 -1.9146
   50CHL1   C21 4858   4.387   2.959   3.622  0.4238 -0.2358  0.0890
   50CHL1  H21A 4859   4.349   2.977   3.725 -1.2134 -1.5659 -0.2481
   50CHL1  H21B 4860   4.309   2.913   3.559 -1.8743  1.6465  1.4133
   50CHL1  H21C 4861   4.415   3.059   3.583  0.9934  0.1494  1.4243
   50CHL1   C22 4862   4.605   2.935   3.747  0.7122  0.2880 -0.6962
   50CHL1  H22A 4863   4.708   2.912   3.715  0.8029  1.3344 -1.2286
   50CHL1  H22B 4864   4.584   3.042   3.769  1.8896 -0.0097  2.2000
   50CHL1   C23 4865   4.579   2.864   3.886  0.6162  0.6983 -0.3748
   50CHL1  H23A 4866   4.469   2.850   3.895  0.1773  2.8588 -1.5357
   50CHL1  H23B 4867   4.629   2.766   3.870  2.2142  0.7733  3.2713
   50CHL1   C24 4868   4.641   2.921   4.006  0.0556 -0.2221 -0.3430
   50CHL1  H24A 4869   4.607   3.026   4.018  1.1917  0.1137  0.0576
   50CHL1  H24B 4870   4.614   2.869   4.101 -0.8873 -0.2147 -0.5984
   50CHL1   C25 4871   4.791   2.944   4.001 -0.1311 -0.6172  0.0867
   50CHL1   H25 4872   4.804   2.995   3.903 -2.5268 -1.4653 -0.7542
   50CHL1   C26 4873   4.851   3.046   4.100 -0.2874 -0.6170 -1.1078
   50CHL1  H26A 4874   4.953   3.072   4.066 -0.4931  1.7533 -0.1233
   50CHL1  H26B 4875   4.796   3.142   4.089  0.8474  0.1727 -0.1459
   50CHL1  H26C 4876   4.856   3.002   4.202  0.4862  1.3098 -0.2627
   50CHL1   C27 4877   4.869   2.810   4.008  0.2042 -0.5550 -0.0792
   50CHL1  H27A 4878   4.836   2.738   3.931 -0.2003 -2.5524  1.8646
   50CHL1  H27B 4879   4.974   2.843   3.990  1.1048 -1.9300  2.2027
   50CHL1  H27C 4880   4.880   2.756   4.104  1.5609 -1.6868 -0.8242
   51CHL1    C3 4881   2.927   2.111   2.514 -0.4222 -0.5805  0.0451
   51CHL1    H3 4882   2.824   2.074   2.534  0.4748 -1.9504  2.6827
   51CHL1    O3 4883   2.953   2.085   2.374 -0.3727  0.0528 -0.3831
   51CHL1   H3' 4884   3.043   2.058   2.358 -0.1447 -0.4792  1.4773
   51CHL1    C4 4885   2.952   2.258   2.544  0.3513  0.3318  0.0238
   51CHL1   H4A 4886   3.050   2.298   2.511  1.5055 -1.3018  1.2982
   51CHL1   H4B 4887   2.873   2.318   2.493 -1.3316 -0.4498  1.5902
   51CHL1    C5 4888   2.951   2.276   2.699 -0.3575 -0.0241  0.2305
   51CHL1    C6 4889   2.883   2.382   2.751  0.1759  0.3609 -0.4411
   51CHL1    H6 4890   2.838   2.449   2.676 -0.7971  1.3531  0.9696
   51CHL1    C7 4891   2.870   2.415   2.898 -0.6435 -0.0137 -0.2563
   51CHL1   H7A 4892   2.898   2.522   2.910  0.3838 -0.3577  0.5834
   51CHL1   H7B 4893   2.764   2.396   2.924 -0.2274 -0.6473  1.0084
   51CHL1    C8 4894   2.956   2.315   2.984 -0.3329  0.0261  0.4075
   51CHL1    H8 4895   3.050   2.371   2.999 -0.5301  0.3302  0.5191
   51CHL1   C14 4896   2.893   2.307   3.123  0.8287  0.4651  0.0774
   51CHL1   H14 4897   2.792   2.261   3.117  0.4107  1.2770  0.7604
   51CHL1   C15 4898   2.866   2.438   3.193  0.1583 -0.1541  0.3770
   51CHL1  H15A 4899   2.951   2.508   3.175 -0.3058  0.0660 -1.0844
   51CHL1  H15B 4900   2.766   2.480   3.167 -1.7033 -3.1913  2.0517
   51CHL1   C16 4901   2.858   2.399   3.348 -0.1048 -0.9694 -0.2772
   51CHL1  H16A 4902   2.938   2.461   3.395  0.6021 -1.3795 -0.9247
   51CHL1  H16B 4903   2.764   2.427   3.401  1.2240  1.0306  1.1843
   51CHL1   C17 4904   2.892   2.250   3.363  0.1751  0.1562 -0.4022
   51CHL1   H17 4905   2.800   2.188   3.353  1.3974 -2.7743  3.7293
   51CHL1   C13 4906   2.974   2.224   3.227  1.0691 -0.1229 -0.1674
   51CHL1   C18 4907   3.114   2.287   3.242 -0.2738 -0.8254 -0.0687
   51CHL1  H18A 4908   3.173   2.240   3.323 -0.5318  1.9327  1.8631
   51CHL1  H18B 4909   3.168   2.282   3.145 -2.6578  0.5035 -1.5781
   51CHL1  H18C 4910   3.096   2.393   3.272 -0.9970 -1.1077  0.5079
   51CHL1   C12 4911   2.984   2.080   3.170 -0.2798 -1.3740 -0.0371
   51CHL1  H12A 4912   3.052   2.020   3.234 -0.5218 -0.4791  1.0955
   51CHL1  H12B 4913   2.883   2.036   3.160 -1.4200  1.4831 -2.5374
   51CHL1   C11 4914   3.047   2.079   3.023  0.2951 -0.3989  0.0989
   51CHL1  H11A 4915   3.156   2.097   3.017  0.7713 -3.1199 -1.2109
   51CHL1  H11B 4916   3.029   1.971   3.003 -0.0126 -0.3283 -0.0174
   51CHL1    C9 4917   2.966   2.171   2.925  0.1973 -0.4184 -0.3275
   51CHL1    H9 4918   2.858   2.144   2.936 -0.0406  0.7616  0.4055
   51CHL1   C10 4919   3.022   2.170   2.787 -0.3319  0.1237  0.3841
   51CHL1   C19 4920   3.178   2.201   2.778 -0.6047 -0.3567  0.2733
   51CHL1  H19A 4921   3.210   2.221   2.673  2.2729  0.3131  1.1719
   51CHL1  H19B 4922   3.187   2.306   2.814 -0.2241 -0.3556  0.1869
   51CHL1  H19C 4923   3.244   2.127   2.827  0.5578  0.4839  0.0320
   51CHL1    C1 4924   2.999   2.027   2.724 -0.3511 -0.4422 -0.0578
   51CHL1   H1A 4925   3.066   1.951   2.770 -0.0444  0.1161  0.4199
   51CHL1   H1B 4926   2.899   1.981   2.741  0.3810 -2.5011 -0.9162
   51CHL1    C2 4927   3.021   2.016   2.578  0.5829 -0.3754 -0.3643
   51CHL1   H2A 4928   3.006   1.915   2.533 -0.9982 -0.7357  0.8727
   51CHL1   H2B 4929   3.123   2.049   2.551  0.8071 -1.3190 -0.7067
   51CHL1   C20 4930   2.944   2.212   3.499  0.1319  0.1146 -0.8489
   51CHL1   H20 4931   3.040   2.265   3.518  0.0076  0.3497 -0.8702
   51CHL1   C21 4932   2.973   2.057   3.513 -0.3315 -0.0983 -0.0210
   51CHL1  H21A 4933   3.070   2.022   3.469 -0.1050 -3.0560  2.5126
   51CHL1  H21B 4934   2.893   2.005   3.457  1.9839 -2.5121 -1.3357
   51CHL1  H21C 4935   2.969   2.013   3.614 -0.9735 -1.3979 -0.5913
   51CHL1   C22 4936   2.845   2.254   3.611 -0.1210 -0.0491  0.3004
   51CHL1  H22A 4937   2.797   2.352   3.589  1.8700  0.6922 -1.0281
   51CHL1  H22B 4938   2.757   2.187   3.604 -0.4905  0.0668  2.8166
   51CHL1   C23 4939   2.901   2.260   3.758 -0.2926  0.5186  0.3023
   51CHL1  H23A 4940   2.916   2.160   3.804 -1.1451  0.4110  0.3624
   51CHL1  H23B 4941   2.998   2.313   3.761  0.0215 -0.0851  1.2768
   51CHL1   C24 4942   2.810   2.345   3.843  0.2456 -0.3710  0.4882
   51CHL1  H24A 4943   2.821   2.450   3.809  0.1690 -0.1437  1.1612
   51CHL1  H24B 4944   2.704   2.311   3.834 -0.2152  1.3421 -1.5038
   51CHL1   C25 4945   2.838   2.351   3.996 -0.6153  0.2017 -0.3493
   51CHL1   H25 4946   2.808   2.254   4.042  0.2670  0.6011  1.1328
   51CHL1   C26 4947   2.990   2.355   4.036 -0.3965 -0.1754  0.1690
   51CHL1  H26A 4948   3.046   2.435   3.981  0.0716  0.7734  1.9413
   51CHL1  H26B 4949   2.997   2.366   4.146 -0.3098 -0.7638  0.2230
   51CHL1  H26C 4950   3.043   2.260   4.016  0.7592  0.7128 -1.2064
   51CHL1   C27 4951   2.760   2.465   4.065 -0.3363 -0.1735  0.2643
   51CHL1  H27A 4952   2.778   2.460   4.174  1.0648 -0.5984  0.0372
   51CHL1  H27B 4953   2.798   2.564   4.032  0.0567 -0.1207  0.8740
   51CHL1  H27C 4954   2.652   2.449   4.044  0.0095 -2.9398  0.3254
   52CHL1    C3 4955   2.014   3.486   2.407  0.9017 -0.3396  0.1263
   52CHL1    H3 4956   2.097   3.424   2.449  1.5939  0.7674  0.4386
   52CHL1    O3 4957   2.033   3.539   2.279 -0.6002 -0.6398  0.8556
   52CHL1   H3' 4958   1.973   3.613   2.269  1.7602  1.0990 -1.8322
   52CHL1    C4 4959   1.886   3.397   2.417 -0.1326  0.2872  0.3622
   52CHL1   H4A 4960   1.800   3.459   2.384 -1.4414 -2.0071 -0.7947
   52CHL1   H4B 4961   1.892   3.320   2.337  0.4288  0.3729  0.3207
   52CHL1    C5 4962   1.865   3.338   2.551 -0.6614  0.3763  0.3196
   52CHL1    C6 4963   1.855   3.200   2.574 -0.2987  0.5001 -0.3879
   52CHL1    H6 4964   1.854   3.128   2.491  1.5222 -2.2074  1.7593
   52CHL1    C7 4965   1.838   3.146   2.716 -0.4135  0.4451  0.0284
   52CHL1   H7A 4966   1.762   3.065   2.717 -2.4820  2.3082 -0.5765
   52CHL1   H7B 4967   1.928   3.083   2.736 -2.3292 -1.5213  3.3792
   52CHL1    C8 4968   1.807   3.247   2.829  0.0720 -0.7590  0.5632
   52CHL1    H8 4969   1.699   3.270   2.825  0.2703  0.0546 -0.8368
   52CHL1   C14 4970   1.857   3.198   2.963  0.2889  0.1738 -0.0859
   52CHL1   H14 4971   1.968   3.192   2.958  0.3038 -2.0761  1.0893
   52CHL1   C15 4972   1.820   3.053   3.000 -0.7354  0.9499 -0.4058
   52CHL1  H15A 4973   1.710   3.045   2.985 -0.5175 -2.9897 -0.9693
   52CHL1  H15B 4974   1.869   2.974   2.940  0.4957  0.6125  0.9678
   52CHL1   C16 4975   1.853   3.045   3.149  0.3197 -0.2114  0.2140
   52CHL1  H16A 4976   1.774   2.986   3.200 -0.2735  0.8287  0.5346
   52CHL1  H16B 4977   1.950   2.993   3.161  0.8077  0.9411  1.5785
   52CHL1   C17 4978   1.870   3.190   3.199  0.0134  0.9566  0.1774
   52CHL1   H17 4979   1.978   3.208   3.218 -0.3306  1.1006  2.3360
   52CHL1   C13 4980   1.821   3.280   3.085 -0.0530  0.5116 -0.1345
   52CHL1   C18 4981   1.672   3.306   3.104 -0.5420 -0.4403  0.5296
   52CHL1  H18A 4982   1.625   3.205   3.107 -1.9093  0.1939  2.0740
   52CHL1  H18B 4983   1.643   3.376   3.185  0.0062  0.4338 -0.0190
   52CHL1  H18C 4984   1.631   3.348   3.010  0.2656  0.4888  0.5856
   52CHL1   C12 4985   1.900   3.412   3.068  0.3131 -0.0169 -0.6798
   52CHL1  H12A 4986   1.857   3.472   3.151 -0.6744 -0.2039 -1.0366
   52CHL1  H12B 4987   2.007   3.389   3.089 -0.3527 -1.1706  1.8136
   52CHL1   C11 4988   1.864   3.475   2.934 -0.4482 -0.7206  0.3938
   52CHL1  H11A 4989   1.757   3.507   2.938 -0.4042 -0.3399 -1.1368
   52CHL1  H11B 4990   1.918   3.571   2.917  1.4066 -1.8488 -0.2581
   52CHL1    C9 4991   1.886   3.383   2.808  0.3287  0.7043  0.4766
   52CHL1    H9 4992   1.992   3.349   2.813  0.0863  0.0497  1.2364
   52CHL1   C10 4993   1.865   3.452   2.668 -0.0111 -0.0522 -0.1528
   52CHL1   C19 4994   1.729   3.516   2.675 -0.3603 -0.5354  0.0703
   52CHL1  H19A 4995   1.733   3.599   2.748 -0.5680 -2.2222  2.1030
   52CHL1  H19B 4996   1.704   3.556   2.574  0.1022 -1.4066 -0.4047
   52CHL1  H19C 4997   1.644   3.449   2.700 -2.2515  1.7195  0.0303
   52CHL1    C1 4998   1.976   3.560   2.647 -0.2086 -0.1979 -0.0447
   52CHL1   H1A 4999   1.973   3.650   2.711  0.5813 -0.1514 -0.0633
   52CHL1   H1B 5000   2.073   3.525   2.689 -0.1414  2.2590  2.1065
   52CHL1    C2 5001   1.995   3.603   2.504  1.0240 -1.1790 -0.2583
   52CHL1   H2A 5002   2.082   3.671   2.502  1.1205 -1.2049  1.4049
   52CHL1   H2B 5003   1.902   3.659   2.483 -1.1225 -3.4937  2.1890
   52CHL1   C20 5004   1.806   3.203   3.342 -0.0931 -0.2686 -0.0743
   52CHL1   H20 5005   1.695   3.197   3.332 -0.0496  1.0641 -1.7411
   52CHL1   C21 5006   1.837   3.344   3.406  0.3610  0.0729  0.1195
   52CHL1  H21A 5007   1.782   3.417   3.344 -0.9225  0.8454  2.0631
   52CHL1  H21B 5008   1.947   3.363   3.403  0.4253 -0.1995  0.5482
   52CHL1  H21C 5009   1.796   3.353   3.509 -0.4004  1.0509 -0.2579
   52CHL1   C22 5010   1.860   3.095   3.436  0.1058  0.1817 -0.6155
   52CHL1  H22A 5011   1.815   2.997   3.407 -0.8378  0.0845  1.0369
   52CHL1  H22B 5012   1.968   3.088   3.413  0.4998 -0.9990  1.3861
   52CHL1   C23 5013   1.832   3.097   3.584  0.1804  0.4856 -0.5222
   52CHL1  H23A 5014   1.853   3.195   3.632  0.5052  0.1627  0.0187
   52CHL1  H23B 5015   1.722   3.085   3.592  0.1854  1.5023  1.8490
   52CHL1   C24 5016   1.894   2.991   3.667 -0.8962  0.1770  0.5288
   52CHL1  H24A 5017   1.888   2.890   3.620  0.9077 -0.6181  1.8822
   52CHL1  H24B 5018   2.000   3.012   3.692 -0.4032 -2.0744  0.5239
   52CHL1   C25 5019   1.837   2.974   3.815  0.3310  0.3148  0.5360
   52CHL1   H25 5020   1.727   2.969   3.802  0.0544 -2.1464  3.0326
   52CHL1   C26 5021   1.884   2.849   3.892 -0.4129  0.5916 -0.8910
   52CHL1  H26A 5022   1.989   2.855   3.928 -0.9078 -0.7272  0.9009
   52CHL1  H26B 5023   1.830   2.832   3.987  1.0474 -1.2540 -0.3409
   52CHL1  H26C 5024   1.899   2.753   3.838 -3.0373 -0.8440  0.7293
   52CHL1   C27 5025   1.872   3.102   3.896 -0.0895  0.3040  0.3734
   52CHL1  H27A 5026   1.982   3.117   3.882 -0.1460  0.2215 -0.1979
   52CHL1  H27B 5027   1.815   3.191   3.861 -0.1076 -0.3868 -1.4448
   52CHL1  H27C 5028   1.851   3.089   4.004  0.6304 -0.0895  0.4744
   53CHL1    C3 5029   1.293   2.519   2.426  0.1103 -1.1941  0.5703
   53CHL1    H3 5030   1.380   2.586   2.441 -2.6636  2.7680  0.2944
   53CHL1    O3 5031   1.274   2.492   2.289 -0.4550  0.3631 -0.1920
   53CHL1   H3' 5032   1.199   2.432   2.285 -0.5798  0.5793 -1.8269
   53CHL1    C4 5033   1.321   2.388   2.494  0.3829 -0.5863 -0.2536
   53CHL1   H4A 5034   1.253   2.305   2.467 -2.2056  1.2083  0.3215
   53CHL1   H4B 5035   1.422   2.357   2.461  0.6455  0.4956 -0.5253
   53CHL1    C5 5036   1.309   2.409   2.645  0.4847  0.1199 -0.4541
   53CHL1    C6 5037   1.411   2.374   2.721  0.1517 -0.0080 -0.0704
   53CHL1    H6 5038   1.495   2.318   2.676 -0.0455 -0.3720  0.0042
   53CHL1    C7 5039   1.418   2.385   2.867  0.2123  0.2910 -0.5117
   53CHL1   H7A 5040   1.443   2.284   2.906  1.1382  0.7648  0.1384
   53CHL1   H7B 5041   1.503   2.450   2.897  0.4685  0.7488 -2.1016
   53CHL1    C8 5042   1.286   2.424   2.926  0.7087  0.5680  0.4066
   53CHL1    H8 5043   1.212   2.342   2.932  0.9940  0.4152  3.4401
   53CHL1   C14 5044   1.299   2.465   3.068  0.3177  0.3213 -0.0354
   53CHL1   H14 5045   1.367   2.553   3.063  0.9470 -0.0914  0.9390
   53CHL1   C15 5046   1.370   2.364   3.156  0.3525  0.0530  0.2832
   53CHL1  H15A 5047   1.335   2.263   3.126  0.0795 -0.8011  3.1794
   53CHL1  H15B 5048   1.479   2.374   3.141  0.0119 -0.4168 -3.2017
   53CHL1   C16 5049   1.335   2.401   3.300 -0.1493  0.0280 -0.2647
   53CHL1  H16A 5050   1.288   2.309   3.341  2.9020 -2.2083 -1.4143
   53CHL1  H16B 5051   1.425   2.426   3.360  1.1888 -0.3512 -2.0284
   53CHL1   C17 5052   1.244   2.527   3.281 -0.5362  0.3341  0.4670
   53CHL1   H17 5053   1.310   2.612   3.256  1.6708 -1.7426 -1.2137
   53CHL1   C13 5054   1.177   2.509   3.138  0.2061  0.6293 -0.7457
   53CHL1   C18 5055   1.074   2.391   3.160  0.2664  0.0931 -0.3392
   53CHL1  H18A 5056   0.997   2.419   3.236  0.1432  2.5568 -1.2847
   53CHL1  H18B 5057   1.026   2.353   3.067  0.7376  0.1739 -0.6163
   53CHL1  H18C 5058   1.120   2.298   3.201 -2.8146 -1.4625 -0.1213
   53CHL1   C12 5059   1.121   2.628   3.062 -0.0965  0.2603 -0.6590
   53CHL1  H12A 5060   1.029   2.675   3.104 -0.4676 -0.9905 -0.0186
   53CHL1  H12B 5061   1.199   2.707   3.057 -0.4010  0.7945  1.6755
   53CHL1   C11 5062   1.083   2.589   2.919 -1.0354 -0.9468 -0.0052
   53CHL1  H11A 5063   1.012   2.504   2.930 -0.9108 -0.7300  3.8146
   53CHL1  H11B 5064   1.045   2.676   2.862  0.6083 -0.0484  0.2051
   53CHL1    C9 5065   1.214   2.537   2.847  0.1171  0.0682 -0.2118
   53CHL1    H9 5066   1.287   2.620   2.850  0.4291 -0.2031  2.6226
   53CHL1   C10 5067   1.191   2.492   2.701  0.8675 -0.2298 -1.0489
   53CHL1   C19 5068   1.065   2.397   2.697 -0.0861  0.9218 -0.1449
   53CHL1  H19A 5069   1.062   2.314   2.771 -4.1417  1.5740  0.6761
   53CHL1  H19B 5070   0.967   2.445   2.718 -0.5637  0.6772 -1.6611
   53CHL1  H19C 5071   1.061   2.341   2.601  1.5592 -0.1156  0.3621
   53CHL1    C1 5072   1.169   2.626   2.619  0.4793  0.3539 -0.3932
   53CHL1   H1A 5073   1.070   2.672   2.637  1.7040  2.6836  0.7627
   53CHL1   H1B 5074   1.241   2.709   2.633  0.4988  0.3218 -0.3062
   53CHL1    C2 5075   1.163   2.591   2.467  0.4029 -0.2130 -0.1166
   53CHL1   H2A 5076   1.145   2.685   2.411  0.9163 -0.1749 -0.2233
   53CHL1   H2B 5077   1.073   2.534   2.436  1.0043  0.1271 -2.7757
   53CHL1   C20 5078   1.159   2.568   3.405 -0.2150 -0.4377  0.4000
   53CHL1   H20 5079   1.100   2.477   3.429 -1.0184 -0.4755 -1.4998
   53CHL1   C21 5080   1.072   2.688   3.372  0.5222 -0.5283  0.6368
   53CHL1  H21A 5081   1.137   2.754   3.310 -0.2655 -0.9918 -0.7258
   53CHL1  H21B 5082   1.032   2.749   3.456 -1.0441 -0.1683 -0.3459
   53CHL1  H21C 5083   0.983   2.673   3.308 -0.6019  0.3112  1.9417
   53CHL1   C22 5084   1.240   2.594   3.535 -0.1331  0.0513 -0.1239
   53CHL1  H22A 5085   1.308   2.508   3.553 -0.8948 -0.1123  2.2423
   53CHL1  H22B 5086   1.303   2.685   3.532 -0.2757  0.1279 -1.5468
   53CHL1   C23 5087   1.144   2.625   3.650  0.1764  0.1237 -0.5103
   53CHL1  H23A 5088   1.106   2.729   3.639 -2.2004 -0.1060  3.5786
   53CHL1  H23B 5089   1.059   2.553   3.647  0.2263 -0.2507  2.9249
   53CHL1   C24 5090   1.201   2.616   3.793  0.1472  0.3095 -0.1832
   53CHL1  H24A 5091   1.260   2.521   3.801  0.1635  0.3538  0.2722
   53CHL1  H24B 5092   1.281   2.693   3.803  0.1156  0.0539  3.4760
   53CHL1   C25 5093   1.117   2.627   3.928  0.2036 -0.1364  0.6296
   53CHL1   H25 5094   1.048   2.714   3.919  0.3890  0.0221  0.7186
   53CHL1   C26 5095   1.021   2.503   3.921  0.2783  0.1783  0.0566
   53CHL1  H26A 5096   0.986   2.491   4.026 -0.5777 -0.4938 -0.2921
   53CHL1  H26B 5097   0.943   2.537   3.851  1.2182  0.3618 -0.9268
   53CHL1  H26C 5098   1.078   2.413   3.887 -0.5817  1.1352 -4.4995
   53CHL1   C27 5099   1.198   2.623   4.059  0.5293  0.0716 -0.0920
   53CHL1  H27A 5100   1.139   2.634   4.152  1.0652  2.5572 -0.0001
   53CHL1  H27B 5101   1.255   2.527   4.060  0.6769  0.1611  0.1030
   53CHL1  H27C 5102   1.273   2.705   4.056  0.0443  0.7144  2.8575
   54CHL1    C3 5103   2.789   5.553   2.570 -0.3170 -0.2469  0.4772
   54CHL1    H3 5104   2.876   5.615   2.599 -1.0595  1.0338  0.0229
   54CHL1    O3 5105   2.785   5.532   2.431 -0.1938  0.1947 -0.6433
   54CHL1   H3' 5106   2.840   5.455   2.414 -0.4572 -0.0614 -0.3438
   54CHL1    C4 5107   2.796   5.412   2.645 -0.6863 -0.0662 -0.1181
   54CHL1   H4A 5108   2.714   5.349   2.607 -0.2049 -1.4188  1.0215
   54CHL1   H4B 5109   2.893   5.364   2.618  0.2552  1.4716  0.3712
   54CHL1    C5 5110   2.777   5.419   2.796  0.2187 -0.3526  0.5746
   54CHL1    C6 5111   2.866   5.366   2.878  0.1917 -0.4527 -0.0460
   54CHL1    H6 5112   2.952   5.314   2.833  1.0670  0.3738  0.6191
   54CHL1    C7 5113   2.860   5.370   3.029  0.5450  0.6878  0.1375
   54CHL1   H7A 5114   2.889   5.269   3.064  3.2918  0.6547 -1.8391
   54CHL1   H7B 5115   2.923   5.452   3.070  1.8663 -0.5402  0.6338
   54CHL1    C8 5116   2.718   5.396   3.077 -0.2579 -0.7179  0.5108
   54CHL1    H8 5117   2.648   5.314   3.050  0.9375 -2.0922  1.4402
   54CHL1   C14 5118   2.711   5.412   3.226 -0.4698  0.5475  0.1779
   54CHL1   H14 5119   2.778   5.499   3.247  0.8643 -0.5406  0.5357
   54CHL1   C15 5120   2.757   5.294   3.320  0.1126 -0.2794 -0.7247
   54CHL1  H15A 5121   2.710   5.201   3.282  0.1230  0.4222 -2.5467
   54CHL1  H15B 5122   2.866   5.280   3.331  0.3255  0.6851 -1.4529
   54CHL1   C16 5123   2.704   5.332   3.455  0.0935 -0.0631  0.1064
   54CHL1  H16A 5124   2.659   5.240   3.499  0.2312 -1.4844 -2.5199
   54CHL1  H16B 5125   2.777   5.371   3.529  1.0948  0.1136 -0.9582
   54CHL1   C17 5126   2.597   5.452   3.438 -0.2169  0.4067 -0.3486
   54CHL1   H17 5127   2.668   5.536   3.454  0.2901 -0.0127 -0.3911
   54CHL1   C13 5128   2.579   5.451   3.288 -0.0391 -0.7694  0.9775
   54CHL1   C18 5129   2.469   5.339   3.266 -0.0137  0.6269  0.4111
   54CHL1  H18A 5130   2.368   5.378   3.291 -0.0843  2.1521 -1.9876
   54CHL1  H18B 5131   2.457   5.299   3.163  0.7786 -0.8816  0.8718
   54CHL1  H18C 5132   2.479   5.246   3.326 -2.0896  0.5636  0.7331
   54CHL1   C12 5133   2.541   5.581   3.217  0.8231  0.1876  0.5025
   54CHL1  H12A 5134   2.449   5.625   3.261 -1.0196 -0.3964 -2.5289
   54CHL1  H12B 5135   2.613   5.662   3.242  1.2721 -0.5600  1.7434
   54CHL1   C11 5136   2.523   5.567   3.069 -0.5462  0.3284  0.2205
   54CHL1  H11A 5137   2.440   5.497   3.046 -0.7221  1.2036 -2.1365
   54CHL1  H11B 5138   2.493   5.658   3.013 -0.7781  0.7005  0.9362
   54CHL1    C9 5139   2.660   5.520   2.996 -0.3352 -0.4737  0.4151
   54CHL1    H9 5140   2.736   5.600   3.013 -1.2922  0.8134 -1.0843
   54CHL1   C10 5141   2.658   5.496   2.847 -0.7104  0.0878  0.2806
   54CHL1   C19 5142   2.530   5.419   2.805 -0.2431 -0.0751 -0.1205
   54CHL1  H19A 5143   2.536   5.372   2.704  1.1930 -1.5954  0.6507
   54CHL1  H19B 5144   2.508   5.337   2.876 -2.3345  0.5004 -0.0106
   54CHL1  H19C 5145   2.444   5.490   2.807  1.4227  2.0844 -1.0685
   54CHL1    C1 5146   2.666   5.632   2.775  0.4394  0.3108  0.2764
   54CHL1   H1A 5147   2.565   5.677   2.792 -1.1009 -2.2564 -1.4094
   54CHL1   H1B 5148   2.752   5.694   2.807  1.0180  1.6464 -3.3399
   54CHL1    C2 5149   2.668   5.630   2.618  1.2819  0.9861  0.2545
   54CHL1   H2A 5150   2.674   5.734   2.580 -1.1035  1.2388  0.4681
   54CHL1   H2B 5151   2.574   5.587   2.576  1.2012  0.0595  1.3185
   54CHL1   C20 5152   2.488   5.464   3.541  0.2664  0.0434 -0.3292
   54CHL1   H20 5153   2.420   5.376   3.530 -1.0432  1.0519 -0.6116
   54CHL1   C21 5154   2.399   5.590   3.535  0.9757 -0.4753  0.7242
   54CHL1  H21A 5155   2.450   5.688   3.528  1.1037 -0.6219 -0.5867
   54CHL1  H21B 5156   2.336   5.613   3.624  2.1880  1.5948  1.1201
   54CHL1  H21C 5157   2.327   5.574   3.452 -0.5945 -1.1641  2.1415
   54CHL1   C22 5158   2.538   5.445   3.677  0.6020 -0.3832  0.1027
   54CHL1  H22A 5159   2.448   5.417   3.736  0.4592 -2.2912 -0.9317
   54CHL1  H22B 5160   2.623   5.374   3.688  2.8364  2.1795  0.5167
   54CHL1   C23 5161   2.601   5.575   3.739 -0.3763  0.2837  0.3442
   54CHL1  H23A 5162   2.669   5.638   3.678 -2.5002  2.8231  0.3622
   54CHL1  H23B 5163   2.522   5.651   3.760  1.2182  2.4323 -0.9965
   54CHL1   C24 5164   2.681   5.533   3.860 -0.0550  0.0699 -0.1909
   54CHL1  H24A 5165   2.627   5.448   3.906  0.2802  0.2136  0.4875
   54CHL1  H24B 5166   2.782   5.493   3.835 -0.9624 -2.6655  0.2583
   54CHL1   C25 5167   2.709   5.631   3.979 -0.2793  0.3521  0.3017
   54CHL1   H25 5168   2.610   5.667   4.013  0.6610  1.5332  1.9400
   54CHL1   C26 5169   2.784   5.544   4.082  0.5295 -0.6561  0.1183
   54CHL1  H26A 5170   2.894   5.554   4.065  0.5498 -0.4425  0.3609
   54CHL1  H26B 5171   2.769   5.596   4.179 -0.4667  0.1785 -0.4659
   54CHL1  H26C 5172   2.736   5.444   4.083 -0.7103 -0.1602 -2.5105
   54CHL1   C27 5173   2.795   5.756   3.940 -0.0520 -0.6903  0.5914
   54CHL1  H27A 5174   2.809   5.825   4.027  0.6876 -1.3872  1.0355
   54CHL1  H27B 5175   2.894   5.732   3.896 -0.4159 -1.3237  0.1002
   54CHL1  H27C 5176   2.743   5.808   3.857  0.3461 -1.5251 -0.1977
   55CHL1    C3 5177   4.724   2.120   2.596 -0.1502  0.3575 -0.3996
   55CHL1    H3 5178   4.831   2.104   2.618 -0.1500  1.0742  0.1693
   55CHL1    O3 5179   4.698   2.120   2.454 -0.1116 -0.0578 -0.3114
   55CHL1   H3' 5180   4.780   2.090   2.416 -0.3417  0.1480 -1.0010
   55CHL1    C4 5181   4.642   2.002   2.660 -0.0249  0.5095 -0.5349
   55CHL1   H4A 5182   4.535   2.013   2.630 -0.2613  0.2068  0.1791
   55CHL1   H4B 5183   4.677   1.905   2.620  0.2005  0.7313 -0.8903
   55CHL1    C5 5184   4.656   2.018   2.813  0.6857  0.8772 -1.0266
   55CHL1    C6 5185   4.693   1.913   2.886 -0.0652  0.2340 -0.4054
   55CHL1    H6 5186   4.707   1.815   2.838 -1.1231 -0.7128  1.1322
   55CHL1    C7 5187   4.700   1.904   3.037 -0.3867  0.2771 -0.7785
   55CHL1   H7A 5188   4.651   1.810   3.073  1.8560 -1.3673 -1.7806
   55CHL1   H7B 5189   4.805   1.894   3.072 -0.8314  2.3471  1.3210
   55CHL1    C8 5190   4.640   2.022   3.108  0.6187  0.4795 -0.0727
   55CHL1    H8 5191   4.530   2.004   3.097  0.3555  2.1570 -0.4555
   55CHL1   C14 5192   4.691   2.043   3.247 -0.3745  0.0307 -0.3936
   55CHL1   H14 5193   4.796   2.077   3.235 -1.0271  1.6587 -1.9522
   55CHL1   C15 5194   4.704   1.926   3.339  0.2544  0.6756 -0.6321
   55CHL1  H15A 5195   4.629   1.852   3.304  1.2954 -0.3256 -0.8175
   55CHL1  H15B 5196   4.798   1.873   3.312 -0.5564 -0.1286 -2.0011
   55CHL1   C16 5197   4.703   1.977   3.474  0.0796  1.1278 -0.5190
   55CHL1  H16A 5198   4.617   1.951   3.539  1.1446  4.3247  2.5146
   55CHL1  H16B 5199   4.792   1.956   3.537 -1.7474  0.6811  2.1291
   55CHL1   C17 5200   4.701   2.139   3.467 -0.6146 -0.2421  0.1378
   55CHL1   H17 5201   4.805   2.177   3.465 -0.8830  0.7000  2.0536
   55CHL1   C13 5202   4.631   2.157   3.333  0.7917  0.2198 -0.1643
   55CHL1   C18 5203   4.475   2.123   3.334 -0.2287  0.2917  0.3182
   55CHL1  H18A 5204   4.459   2.018   3.366  2.4361 -0.7800 -1.4824
   55CHL1  H18B 5205   4.417   2.186   3.404 -0.2283 -1.4725  1.9934
   55CHL1  H18C 5206   4.425   2.136   3.236 -0.3921  0.7494  0.4590
   55CHL1   C12 5207   4.659   2.296   3.252 -0.2733  0.6082 -0.0556
   55CHL1  H12A 5208   4.612   2.388   3.294 -1.9581  0.1871 -0.9142
   55CHL1  H12B 5209   4.769   2.311   3.263  0.0250 -1.5098  0.1652
   55CHL1   C11 5210   4.627   2.286   3.103 -0.0064  0.6138  0.1346
   55CHL1  H11A 5211   4.516   2.297   3.092  0.0323  0.7841 -0.0999
   55CHL1  H11B 5212   4.666   2.380   3.058 -0.0756  0.5418 -0.0797
   55CHL1    C9 5213   4.670   2.151   3.027 -0.5321  0.3150  0.2302
   55CHL1    H9 5214   4.781   2.155   3.030 -0.5081 -0.6836  2.1012
   55CHL1   C10 5215   4.620   2.148   2.881  0.5108 -0.1677  1.0093
   55CHL1   C19 5216   4.471   2.179   2.869  0.0259  0.3219  0.2142
   55CHL1  H19A 5217   4.410   2.114   2.937 -0.6906  0.7628  0.0081
   55CHL1  H19B 5218   4.451   2.284   2.896  1.8474  0.3060  1.8598
   55CHL1  H19C 5219   4.432   2.155   2.767 -3.4934 -0.0590  1.4950
   55CHL1    C1 5220   4.686   2.267   2.809 -0.3613 -0.4839  0.7574
   55CHL1   H1A 5221   4.649   2.361   2.856  0.2013 -0.4219  1.0801
   55CHL1   H1B 5222   4.797   2.258   2.809 -0.1961  0.4058 -1.9487
   55CHL1    C2 5223   4.666   2.253   2.653 -0.5520 -0.1056  0.4800
   55CHL1   H2A 5224   4.733   2.327   2.604  1.4116 -3.3599 -2.2538
   55CHL1   H2B 5225   4.563   2.268   2.615  0.3052 -0.6330 -2.2680
   55CHL1   C20 5226   4.640   2.200   3.599 -0.0299 -0.4453 -0.4968
   55CHL1   H20 5227   4.537   2.158   3.608  0.1902 -1.1599 -1.1576
   55CHL1   C21 5228   4.623   2.354   3.579 -0.2756 -0.0649 -0.0521
   55CHL1  H21A 5229   4.568   2.392   3.668  0.5292 -0.7686  0.7649
   55CHL1  H21B 5230   4.568   2.382   3.487  0.1825  0.7109 -0.1053
   55CHL1  H21C 5231   4.724   2.399   3.589 -0.9515  1.2097  1.4611
   55CHL1   C22 5232   4.709   2.155   3.726  0.2808  0.4741  0.0407
   55CHL1  H22A 5233   4.685   2.052   3.761 -0.1849 -0.4442 -2.7636
   55CHL1  H22B 5234   4.817   2.163   3.702  0.4901 -0.2116  0.7280
   55CHL1   C23 5235   4.688   2.237   3.859  0.2845  0.5588  0.3968
   55CHL1  H23A 5236   4.765   2.222   3.938  2.2882  3.6504 -0.7746
   55CHL1  H23B 5237   4.693   2.346   3.841 -0.8397  1.0509  2.7960
   55CHL1   C24 5238   4.553   2.219   3.923 -1.6169  0.0891  0.1835
   55CHL1  H24A 5239   4.475   2.268   3.861  1.3417  1.0648 -3.0458
   55CHL1  H24B 5240   4.538   2.109   3.919  1.5892 -0.3946 -2.3797
   55CHL1   C25 5241   4.545   2.260   4.071  0.4173  0.2923  0.4101
   55CHL1   H25 5242   4.622   2.205   4.129 -0.0053  1.2267  1.9040
   55CHL1   C26 5243   4.595   2.405   4.101  0.5201  0.3303  0.0066
   55CHL1  H26A 5244   4.578   2.432   4.208 -2.1909 -1.6574  0.1813
   55CHL1  H26B 5245   4.702   2.425   4.078 -0.3256  1.3314 -3.7676
   55CHL1  H26C 5246   4.534   2.474   4.039  0.1774 -2.0493 -2.4835
   55CHL1   C27 5247   4.407   2.231   4.135 -0.4976  0.0223  0.5250
   55CHL1  H27A 5248   4.340   2.311   4.098 -0.2208  0.6822  1.4145
   55CHL1  H27B 5249   4.375   2.127   4.113  1.3238 -0.6478  0.8073
   55CHL1  H27C 5250   4.425   2.240   4.244  0.8094  0.9208  0.2604
   56CHL1    C3 5251   0.005   1.530   2.141 -0.7943  0.3011 -0.1150
   56CHL1    H3 5252   0.016   1.422   2.118 -0.2072 -0.1576  2.0987
   56CHL1    O3 5253  -0.012   1.608   2.027 -0.7145  0.1839 -0.1049
   56CHL1   H3' 5254   0.078   1.620   1.996  0.1138 -0.0793  2.0521
   56CHL1    C4 5255  -0.124   1.531   2.232  0.1485  0.1590 -0.4396
   56CHL1   H4A 5256  -0.150   1.631   2.272 -1.2734 -1.4617  3.0545
   56CHL1   H4B 5257  -0.208   1.497   2.168  0.2782 -0.9075 -0.0570
   56CHL1    C5 5258  -0.101   1.435   2.352  0.2119  0.4211 -0.6990
   56CHL1    C6 5259  -0.183   1.340   2.391 -0.2467 -0.0145  0.1603
   56CHL1    H6 5260  -0.269   1.315   2.326 -0.7392  0.2331  0.7045
   56CHL1    C7 5261  -0.161   1.256   2.520 -0.3230  0.1666  0.5491
   56CHL1   H7A 5262  -0.252   1.244   2.582 -1.0440  0.0382 -0.5269
   56CHL1   H7B 5263  -0.142   1.150   2.494  0.1436  0.2452  0.5524
   56CHL1    C8 5264  -0.047   1.306   2.607  0.5411  0.2592  0.1681
   56CHL1    H8 5265  -0.085   1.400   2.655 -0.6411 -0.3476  0.4638
   56CHL1   C14 5266  -0.014   1.208   2.721  0.5487 -0.1422  0.4173
   56CHL1   H14 5267   0.025   1.119   2.668 -2.6422 -1.0318 -0.6649
   56CHL1   C15 5268  -0.133   1.163   2.797  0.1241  0.0097  0.4920
   56CHL1  H15A 5269  -0.191   1.251   2.833 -1.0546 -0.3117 -0.5750
   56CHL1  H15B 5270  -0.203   1.111   2.729  0.8338 -1.2856  0.7186
   56CHL1   C16 5271  -0.072   1.090   2.917 -0.0110  0.3178  0.0534
   56CHL1  H16A 5272  -0.129   1.112   3.009  1.0479  0.7063  0.6273
   56CHL1  H16B 5273  -0.070   0.983   2.885  0.9343  0.7439 -1.4117
   56CHL1   C17 5274   0.080   1.137   2.915 -0.5727  0.3150 -0.5655
   56CHL1   H17 5275   0.135   1.054   2.866 -0.6474 -0.0671 -0.0083
   56CHL1   C13 5276   0.093   1.254   2.820 -0.6656 -0.8341  0.1807
   56CHL1   C18 5277   0.048   1.394   2.888  1.0488  0.4412 -0.1049
   56CHL1  H18A 5278  -0.052   1.384   2.936  1.0740 -2.3512 -0.5043
   56CHL1  H18B 5279   0.122   1.416   2.968  2.0323  1.2777 -1.2000
   56CHL1  H18C 5280   0.031   1.479   2.818 -0.0233 -0.9311 -1.5613
   56CHL1   C12 5281   0.220   1.273   2.721 -0.2119 -0.0561 -0.6627
   56CHL1  H12A 5282   0.310   1.306   2.777 -0.7557  0.8193 -0.2648
   56CHL1  H12B 5283   0.240   1.175   2.674 -0.5516  0.5391 -2.1038
   56CHL1   C11 5284   0.192   1.385   2.618  0.3311  0.0121  0.2521
   56CHL1  H11A 5285   0.181   1.474   2.685 -0.0087 -1.1914  1.8570
   56CHL1  H11B 5286   0.286   1.400   2.561 -0.1126 -0.2154 -0.5571
   56CHL1    C9 5287   0.071   1.360   2.530 -0.5888  0.1025 -0.8961
   56CHL1    H9 5288   0.103   1.271   2.472 -1.4316 -1.2671  0.6821
   56CHL1   C10 5289   0.034   1.469   2.437  0.6287 -0.5692  0.4284
   56CHL1   C19 5290   0.010   1.601   2.519 -0.1423  0.5161 -0.0591
   56CHL1  H19A 5291  -0.025   1.678   2.448 -1.4831 -0.7071 -0.7930
   56CHL1  H19B 5292  -0.068   1.593   2.598 -0.9295  2.5161 -0.5789
   56CHL1  H19C 5293   0.104   1.636   2.567 -1.3761  0.9931  2.1435
   56CHL1    C1 5294   0.157   1.487   2.341 -0.2637 -0.3866  0.3861
   56CHL1   H1A 5295   0.240   1.535   2.398 -0.2616 -0.2244  0.2497
   56CHL1   H1B 5296   0.197   1.391   2.303  0.4501 -0.5238  1.4319
   56CHL1    C2 5297   0.132   1.574   2.220 -0.2037  0.4522 -0.3333
   56CHL1   H2A 5298   0.213   1.552   2.147 -0.7021 -2.4018 -0.1246
   56CHL1   H2B 5299   0.122   1.684   2.236 -2.0340  0.0388  1.6836
   56CHL1   C20 5300   0.138   1.162   3.059  0.6071  0.0674  0.4512
   56CHL1   H20 5301   0.073   1.238   3.108 -0.0352  0.7594 -1.3973
   56CHL1   C21 5302   0.281   1.211   3.050  0.3136  0.6011 -0.6111
   56CHL1  H21A 5303   0.349   1.142   2.997 -0.3318 -1.9354  1.6703
   56CHL1  H21B 5304   0.331   1.231   3.147  0.3981  1.3809 -0.8084
   56CHL1  H21C 5305   0.271   1.312   3.004 -0.2218 -0.0869 -2.0828
   56CHL1   C22 5306   0.125   1.042   3.149 -0.2883  0.5082  0.4157
   56CHL1  H22A 5307   0.022   1.004   3.134 -0.0504  0.1201 -0.3339
   56CHL1  H22B 5308   0.179   0.958   3.099 -2.0851 -0.6726  0.3582
   56CHL1   C23 5309   0.154   1.054   3.302  0.1482 -0.0373  0.0771
   56CHL1  H23A 5310   0.256   1.095   3.319  0.9014  0.2029 -3.9267
   56CHL1  H23B 5311   0.074   1.123   3.335 -1.0955 -0.5624 -1.6680
   56CHL1   C24 5312   0.142   0.921   3.376 -0.0023 -0.7533  0.0054
   56CHL1  H24A 5313   0.033   0.904   3.377  0.0793 -1.2847  0.5698
   56CHL1  H24B 5314   0.178   0.836   3.315 -0.0120  0.0596 -1.1616
   56CHL1   C25 5315   0.201   0.914   3.518 -0.1734  0.8997 -0.1957
   56CHL1   H25 5316   0.186   0.808   3.547 -0.7961  1.2272  0.7158
   56CHL1   C26 5317   0.351   0.924   3.523 -1.3443  0.1094  0.3147
   56CHL1  H26A 5318   0.381   1.030   3.523 -1.9436  0.2844  0.0854
   56CHL1  H26B 5319   0.385   0.882   3.620  0.1473 -0.2886 -0.3518
   56CHL1  H26C 5320   0.397   0.877   3.433 -1.5881  0.5518 -0.0450
   56CHL1   C27 5321   0.133   1.018   3.614 -0.3003  0.8111  0.5931
   56CHL1  H27A 5322   0.024   0.997   3.622 -0.2893 -0.5747 -1.7545
   56CHL1  H27B 5323   0.191   1.014   3.709  4.0467 -1.7598 -1.8302
   56CHL1  H27C 5324   0.151   1.122   3.579  0.7630 -0.1674 -2.0409
   57CHL1    C3 5325   4.315   1.627   2.828  0.1404 -0.0062  0.4967
   57CHL1    H3 5326   4.210   1.660   2.842  1.3341  3.9617  1.4073
   57CHL1    O3 5327   4.348   1.665   2.698  0.0945 -0.2357 -0.0317
   57CHL1   H3' 5328   4.443   1.661   2.696  0.1179  0.5440 -1.3668
   57CHL1    C4 5329   4.404   1.705   2.923 -0.2270  0.1653 -0.4487
   57CHL1   H4A 5330   4.506   1.662   2.910  0.8210  2.0025  1.2030
   57CHL1   H4B 5331   4.408   1.809   2.887 -2.7107 -0.4494 -2.8410
   57CHL1    C5 5332   4.359   1.684   3.066  0.8379 -0.1162 -0.0180
   57CHL1    C6 5333   4.315   1.787   3.151  0.3246  0.3841 -0.5473
   57CHL1    H6 5334   4.329   1.893   3.129  0.0450  0.1980 -1.6528
   57CHL1    C7 5335   4.271   1.754   3.293 -0.4896 -0.1328  0.1768
   57CHL1   H7A 5336   4.287   1.837   3.365 -1.1884  0.8494 -0.7838
   57CHL1   H7B 5337   4.161   1.740   3.291 -0.4579 -1.0551  2.2232
   57CHL1    C8 5338   4.316   1.617   3.347  0.3241 -0.2430  0.3856
   57CHL1    H8 5339   4.425   1.613   3.366  0.4073  1.4027  0.4141
   57CHL1   C14 5340   4.241   1.585   3.478  0.0171  0.0769  0.6339
   57CHL1   H14 5341   4.136   1.568   3.447  0.3768  0.2689 -0.7298
   57CHL1   C15 5342   4.253   1.695   3.590  0.7860  0.6538  0.1803
   57CHL1  H15A 5343   4.354   1.735   3.613  0.9294 -1.1725  3.3652
   57CHL1  H15B 5344   4.183   1.777   3.562 -0.3341 -0.0806  0.8019
   57CHL1   C16 5345   4.197   1.614   3.704 -0.4846  0.5164 -0.2583
   57CHL1  H16A 5346   4.266   1.622   3.791 -1.5121  0.1086  0.6277
   57CHL1  H16B 5347   4.094   1.645   3.732 -1.3833 -1.2839 -1.3831
   57CHL1   C17 5348   4.201   1.459   3.669  0.4983 -0.3365  0.4172
   57CHL1   H17 5349   4.095   1.439   3.643  1.1673 -2.0408 -1.2002
   57CHL1   C13 5350   4.282   1.453   3.541  0.5049 -0.0962 -0.2456
   57CHL1   C18 5351   4.427   1.452   3.580  0.3280 -0.1081 -0.2476
   57CHL1  H18A 5352   4.461   1.356   3.626 -0.5602  0.4381  1.6495
   57CHL1  H18B 5353   4.503   1.456   3.498  0.5098  1.8649 -0.0236
   57CHL1  H18C 5354   4.458   1.534   3.648  1.1273 -1.3347  0.9464
   57CHL1   C12 5355   4.253   1.340   3.444 -0.0381 -0.6830  0.3632
   57CHL1  H12A 5356   4.305   1.248   3.480 -0.2743 -0.5792  0.9834
   57CHL1  H12B 5357   4.144   1.330   3.431  0.1071 -1.9077 -0.0100
   57CHL1   C11 5358   4.305   1.364   3.299  0.0493  0.0909 -0.1027
   57CHL1  H11A 5359   4.410   1.328   3.299 -0.2434 -0.8485  1.3108
   57CHL1  H11B 5360   4.245   1.300   3.232 -0.1656  1.6183 -1.4311
   57CHL1    C9 5361   4.288   1.511   3.246  0.1711  0.0276 -0.1661
   57CHL1    H9 5362   4.179   1.526   3.230  0.1451  1.9450  1.3664
   57CHL1   C10 5363   4.357   1.536   3.105 -0.2549  0.1550  0.5016
   57CHL1   C19 5364   4.508   1.502   3.119 -0.4209  0.5320 -0.3730
   57CHL1  H19A 5365   4.564   1.566   3.191  1.6110  0.4404 -1.7787
   57CHL1  H19B 5366   4.511   1.397   3.156 -2.0558 -0.4114 -2.7064
   57CHL1  H19C 5367   4.560   1.498   3.021 -0.8372 -2.7389 -0.5744
   57CHL1    C1 5368   4.290   1.447   2.991  0.1703  0.1942  0.1453
   57CHL1   H1A 5369   4.313   1.341   3.014  1.1197  0.4515  0.4244
   57CHL1   H1B 5370   4.179   1.456   2.994  0.2077  0.5141  0.8056
   57CHL1    C2 5371   4.332   1.473   2.850  0.6866 -0.0911  0.1893
   57CHL1   H2A 5372   4.275   1.409   2.780  2.5758  0.0557 -1.5899
   57CHL1   H2B 5373   4.435   1.434   2.833  1.3425  1.6875 -0.0818
   57CHL1   C20 5374   4.237   1.368   3.788 -0.3653  0.1203  0.5012
   57CHL1   H20 5375   4.345   1.379   3.809 -0.7287  1.8307  1.7590
   57CHL1   C21 5376   4.185   1.232   3.755 -0.4730  0.1790  0.0360
   57CHL1  H21A 5377   4.182   1.157   3.837 -2.9569  0.3852  0.2077
   57CHL1  H21B 5378   4.244   1.196   3.668  0.0481  1.1815 -0.0409
   57CHL1  H21C 5379   4.080   1.244   3.720 -1.1136 -0.6322  1.5665
   57CHL1   C22 5380   4.157   1.410   3.914  0.0352 -0.0971 -0.3761
   57CHL1  H22A 5381   4.158   1.520   3.930 -0.8242 -0.1652  0.2308
   57CHL1  H22B 5382   4.051   1.379   3.895 -0.3752 -0.2983  1.8841
   57CHL1   C23 5383   4.222   1.346   4.039  0.4025  0.4377 -0.3358
   57CHL1  H23A 5384   4.175   1.245   4.037 -1.2864  1.1805  0.2068
   57CHL1  H23B 5385   4.333   1.331   4.044  0.3818  0.4281  0.2126
   57CHL1   C24 5386   4.184   1.424   4.167  0.0657 -0.9261  1.0051
   57CHL1  H24A 5387   4.233   1.523   4.155 -2.0386  0.2648  1.6283
   57CHL1  H24B 5388   4.075   1.443   4.159 -0.0978 -1.6913  1.3446
   57CHL1   C25 5389   4.222   1.356   4.296 -0.0573  0.2904  0.0439
   57CHL1   H25 5390   4.328   1.322   4.292  0.3287  0.6138  3.7522
   57CHL1   C26 5391   4.227   1.457   4.408  0.4065 -0.6794 -0.0618
   57CHL1  H26A 5392   4.305   1.534   4.387 -0.4776  0.0502 -0.7392
   57CHL1  H26B 5393   4.127   1.501   4.429 -0.0919 -1.6717 -0.3187
   57CHL1  H26C 5394   4.248   1.404   4.503 -2.7828  2.1834  2.4783
   57CHL1   C27 5395   4.127   1.239   4.331 -0.7585 -0.0939 -0.2069
   57CHL1  H27A 5396   4.132   1.159   4.254 -1.5151 -0.3200 -0.0303
   57CHL1  H27B 5397   4.139   1.189   4.429 -1.1352 -0.1357 -0.1804
   57CHL1  H27C 5398   4.025   1.282   4.326  0.1572  2.5439  1.4865
   58CHL1    C3 5399   4.090   2.044   2.876  0.1071  0.1178  1.1192
   58CHL1    H3 5400   4.189   2.012   2.915 -0.7175 -1.8058  1.7740
   58CHL1    O3 5401   4.076   1.991   2.744 -0.3431  0.0466  0.0291
   58CHL1   H3' 5402   3.998   2.024   2.698  1.0355  0.5028 -2.1683
   58CHL1    C4 5403   3.975   2.006   2.976  0.2932  0.1468  0.1868
   58CHL1   H4A 5404   3.878   2.043   2.938  0.1349  0.4296  0.8522
   58CHL1   H4B 5405   3.958   1.896   2.981 -1.1206  0.3891  1.2306
   58CHL1    C5 5406   4.008   2.064   3.116  0.0375 -0.0708 -0.3468
   58CHL1    C6 5407   4.019   1.982   3.225 -0.7899 -0.6294 -1.0944
   58CHL1    H6 5408   3.994   1.878   3.202 -1.9963 -0.0059 -2.8461
   58CHL1    C7 5409   4.050   2.034   3.360 -0.0435  0.1254 -0.1407
   58CHL1   H7A 5410   3.993   1.985   3.441  0.8276 -1.3721 -0.3987
   58CHL1   H7B 5411   4.159   2.024   3.379 -0.0695 -2.1420 -0.8645
   58CHL1    C8 5412   4.032   2.190   3.374  0.2955  0.2301 -0.2249
   58CHL1    H8 5413   3.924   2.208   3.391 -0.1819 -1.6504 -0.9670
   58CHL1   C14 5414   4.111   2.231   3.498  0.1961  0.0093  0.1607
   58CHL1   H14 5415   4.216   2.207   3.468 -0.2380  0.1027 -1.5437
   58CHL1   C15 5416   4.085   2.165   3.633 -0.4867 -0.9431  0.0527
   58CHL1  H15A 5417   3.974   2.156   3.642 -0.5205  0.2804  1.0293
   58CHL1  H15B 5418   4.121   2.061   3.645 -0.9282 -1.3525 -1.8095
   58CHL1   C16 5419   4.151   2.271   3.730  1.0991  0.0171  0.7496
   58CHL1  H16A 5420   4.080   2.294   3.813 -0.2941  0.2075 -0.4491
   58CHL1  H16B 5421   4.242   2.227   3.776  1.2793 -0.1102  0.2666
   58CHL1   C17 5422   4.184   2.406   3.647  0.8876 -0.6536 -0.3225
   58CHL1   H17 5423   4.288   2.391   3.612  0.1611 -0.1217 -2.9195
   58CHL1   C13 5424   4.106   2.388   3.513  0.6790  0.4370 -0.0391
   58CHL1   C18 5425   3.957   2.434   3.545 -0.2195 -0.0610  0.1720
   58CHL1  H18A 5426   3.898   2.428   3.451  1.5838 -2.2429 -0.9103
   58CHL1  H18B 5427   3.911   2.361   3.614 -0.2520 -1.1769 -0.9907
   58CHL1  H18C 5428   3.951   2.537   3.586  0.7095 -0.7508  2.1372
   58CHL1   C12 5429   4.162   2.453   3.396  0.0503 -0.0493  0.2299
   58CHL1  H12A 5430   4.165   2.559   3.427  0.5579 -0.2029  0.7301
   58CHL1  H12B 5431   4.266   2.413   3.386 -0.8142 -1.8624 -2.7113
   58CHL1   C11 5432   4.100   2.413   3.267  0.8359  0.8997 -0.1162
   58CHL1  H11A 5433   3.996   2.453   3.264  1.0985  1.7353  1.2492
   58CHL1  H11B 5434   4.162   2.456   3.185  0.9564 -0.3674 -0.7119
   58CHL1    C9 5435   4.089   2.256   3.251  0.3487  0.3238  0.0977
   58CHL1    H9 5436   4.195   2.226   3.242  0.8332  1.9029  0.1960
   58CHL1   C10 5437   4.027   2.212   3.121  0.1272  0.2424  0.0826
   58CHL1   C19 5438   3.882   2.262   3.108 -0.1906  0.0881 -0.2975
   58CHL1  H19A 5439   3.821   2.238   3.018 -2.8565  0.4228  1.3153
   58CHL1  H19B 5440   3.819   2.245   3.198  0.1593  1.0032  0.1328
   58CHL1  H19C 5441   3.889   2.373   3.100  2.5337 -0.1045 -1.7782
   58CHL1    C1 5442   4.111   2.268   3.006 -0.4200 -0.0573  0.1715
   58CHL1   H1A 5443   4.096   2.377   3.000 -1.9433 -0.2956 -0.7049
   58CHL1   H1B 5444   4.217   2.245   3.032  0.2584  0.3517 -2.0303
   58CHL1    C2 5445   4.087   2.203   2.868 -0.4895  0.7688 -0.7007
   58CHL1   H2A 5446   4.169   2.232   2.799 -0.1457  0.9623 -0.2139
   58CHL1   H2B 5447   3.990   2.240   2.829  0.7776  1.7897 -3.0848
   58CHL1   C20 5448   4.185   2.538   3.731  0.2259 -0.1786  0.4103
   58CHL1   H20 5449   4.170   2.619   3.657 -2.3332 -1.5942 -0.7496
   58CHL1   C21 5450   4.329   2.550   3.785  0.2668  0.6417 -0.0482
   58CHL1  H21A 5451   4.340   2.649   3.835 -4.0858  1.4238 -0.2606
   58CHL1  H21B 5452   4.407   2.555   3.706 -1.3118 -1.6941 -1.9132
   58CHL1  H21C 5453   4.375   2.471   3.849  0.1298  0.5773 -0.0284
   58CHL1   C22 5454   4.082   2.541   3.840 -0.8961  0.1193 -0.0488
   58CHL1  H22A 5455   3.990   2.479   3.828 -0.6249 -1.0301  2.9733
   58CHL1  H22B 5456   4.128   2.492   3.928  1.7330  0.1091 -1.3383
   58CHL1   C23 5457   4.034   2.682   3.873  0.2618  0.0024  0.3639
   58CHL1  H23A 5458   3.984   2.718   3.781  0.9295 -0.8779 -0.3592
   58CHL1  H23B 5459   3.961   2.684   3.957 -0.2262  2.9971 -0.0054
   58CHL1   C24 5460   4.142   2.784   3.904  0.2248 -0.1943  0.0255
   58CHL1  H24A 5461   4.208   2.734   3.977 -1.3111 -1.3409  0.6705
   58CHL1  H24B 5462   4.205   2.810   3.816 -0.2976 -2.9682 -1.2673
   58CHL1   C25 5463   4.103   2.930   3.950 -0.0296  0.2966  0.5918
   58CHL1   H25 5464   4.022   2.930   4.027 -1.1325 -1.3427 -0.5061
   58CHL1   C26 5465   4.224   3.000   4.008 -0.1679  0.5228 -0.0847
   58CHL1  H26A 5466   4.302   3.006   3.929 -1.2382 -0.7028 -1.3086
   58CHL1  H26B 5467   4.197   3.102   4.042 -1.5895  0.2653 -0.3679
   58CHL1  H26C 5468   4.268   2.941   4.091 -3.2297  1.4740  2.4103
   58CHL1   C27 5469   4.038   3.007   3.837 -0.4157 -0.7205  0.1484
   58CHL1  H27A 5470   4.035   3.113   3.870  0.4592 -0.0154 -1.8778
   58CHL1  H27B 5471   4.083   2.996   3.736  2.0925 -2.8659  1.3607
   58CHL1  H27C 5472   3.933   2.977   3.818  0.3222 -1.8301 -2.7764
   59CHL1    C3 5473   3.036   1.035   2.233  0.1579  0.5866 -0.8223
   59CHL1    H3 5474   3.054   0.925   2.227 -1.7842  0.2384 -0.7743
   59CHL1    O3 5475   3.034   1.088   2.102  0.1634  0.9528  0.2689
   59CHL1   H3' 5476   3.037   1.183   2.109  3.1006  0.8985  1.3533
   59CHL1    C4 5477   2.895   1.045   2.295 -0.1834 -0.1063  0.1936
   59CHL1   H4A 5478   2.864   1.144   2.255  0.5503 -0.8552 -2.4774
   59CHL1   H4B 5479   2.829   0.978   2.236  0.8557 -0.5040 -0.5441
   59CHL1    C5 5480   2.885   1.020   2.440 -0.3268 -0.1121 -0.4414
   59CHL1    C6 5481   2.782   0.951   2.491 -0.1421 -0.9630 -0.3490
   59CHL1    H6 5482   2.699   0.929   2.422 -2.8257  2.1377  1.5956
   59CHL1    C7 5483   2.762   0.928   2.643 -0.9395  0.0917  0.0710
   59CHL1   H7A 5484   2.657   0.940   2.677 -1.3099 -0.8546 -0.6959
   59CHL1   H7B 5485   2.793   0.825   2.671 -0.2991 -0.0283 -1.0391
   59CHL1    C8 5486   2.849   1.032   2.723 -0.5611  0.7419 -0.4222
   59CHL1    H8 5487   2.795   1.129   2.722  0.3036  1.2208 -1.1400
   59CHL1   C14 5488   2.850   0.977   2.865  0.3418 -0.2984 -0.0174
   59CHL1   H14 5489   2.906   0.881   2.861  1.9742  0.4481  2.5784
   59CHL1   C15 5490   2.718   0.948   2.940  0.0142  0.1926  0.2309
   59CHL1  H15A 5491   2.632   1.010   2.908 -0.2440 -0.3253 -0.0914
   59CHL1  H15B 5492   2.694   0.842   2.916  2.1117 -1.1974  3.5692
   59CHL1   C16 5493   2.751   0.962   3.090 -0.9726 -1.0806  0.5178
   59CHL1  H16A 5494   2.705   1.054   3.135  1.2822  0.6203 -0.4618
   59CHL1  H16B 5495   2.718   0.877   3.153 -1.7944  0.6272  2.5321
   59CHL1   C17 5496   2.905   0.996   3.095 -0.4441 -0.1215 -0.4796
   59CHL1   H17 5497   2.960   0.900   3.094  0.2140  0.2246  0.5576
   59CHL1   C13 5498   2.933   1.061   2.961  0.2408  0.1110 -0.0065
   59CHL1   C18 5499   2.883   1.207   2.970 -0.3243  0.2466  0.7184
   59CHL1  H18A 5500   2.786   1.212   3.023 -0.8178  0.0666 -0.1538
   59CHL1  H18B 5501   2.959   1.271   3.020  0.1744  1.3383 -1.2978
   59CHL1  H18C 5502   2.873   1.245   2.866 -0.8416  1.3642  1.1582
   59CHL1   C12 5503   3.072   1.076   2.907 -0.2115  0.1691 -0.6627
   59CHL1  H12A 5504   3.136   1.155   2.952  0.8289 -0.0247 -1.7532
   59CHL1  H12B 5505   3.130   0.982   2.915  1.3178  1.2319  4.2129
   59CHL1   C11 5506   3.081   1.121   2.765  0.5246  0.0852  0.0230
   59CHL1  H11A 5507   3.038   1.223   2.764 -1.9174 -0.8678  1.2829
   59CHL1  H11B 5508   3.185   1.116   2.726  0.5963 -0.4822  0.2770
   59CHL1    C9 5509   2.991   1.037   2.674 -0.0719  0.8489  0.4363
   59CHL1    H9 5510   3.016   0.929   2.676  1.2741  1.1029 -0.7535
   59CHL1   C10 5511   2.993   1.080   2.532  0.1308 -0.7400  0.1672
   59CHL1   C19 5512   2.972   1.241   2.520  0.7056 -1.1618 -0.1504
   59CHL1  H19A 5513   3.062   1.294   2.558  1.5945 -0.9444 -2.3740
   59CHL1  H19B 5514   2.947   1.276   2.417  1.6001 -0.0691 -0.0195
   59CHL1  H19C 5515   2.882   1.270   2.578  2.6558  0.8854  2.0935
   59CHL1    C1 5516   3.137   1.053   2.466 -0.1053 -0.5402 -0.2660
   59CHL1   H1A 5517   3.202   1.126   2.518  0.2006  0.2131 -1.6840
   59CHL1   H1B 5518   3.173   0.949   2.482 -2.3153 -1.2243  0.7713
   59CHL1    C2 5519   3.149   1.094   2.319 -0.3698  0.1624 -0.0332
   59CHL1   H2A 5520   3.247   1.054   2.286 -0.3242 -1.8740  2.2797
   59CHL1   H2B 5521   3.166   1.203   2.306  0.9324  0.0221  0.4002
   59CHL1   C20 5522   2.944   1.071   3.230  0.5815  0.6426  0.3257
   59CHL1   H20 5523   2.903   1.175   3.232  2.1770  1.2819  2.0795
   59CHL1   C21 5524   3.094   1.091   3.223 -0.4208  0.6557  0.2053
   59CHL1  H21A 5525   3.114   1.172   3.149 -0.3420  0.7816  0.3628
   59CHL1  H21B 5526   3.143   0.997   3.190 -0.2684  0.3315  1.3122
   59CHL1  H21C 5527   3.133   1.128   3.320  2.1218 -1.3571  0.0688
   59CHL1   C22 5528   2.898   0.995   3.351 -0.3617 -0.6321 -0.5330
   59CHL1  H22A 5529   2.787   0.997   3.355 -0.4100  3.1775  0.9491
   59CHL1  H22B 5530   2.940   0.894   3.373 -0.4551 -0.7789 -1.0165
   59CHL1   C23 5531   2.911   1.078   3.483  0.1158  0.0322  0.3620
   59CHL1  H23A 5532   3.007   1.133   3.491 -0.2409  0.9701 -1.3631
   59CHL1  H23B 5533   2.835   1.159   3.479 -0.0402  0.0504  2.5972
   59CHL1   C24 5534   2.870   0.995   3.604  0.4209  0.2726  0.1392
   59CHL1  H24A 5535   2.763   0.963   3.598  0.2048  1.0230 -0.0288
   59CHL1  H24B 5536   2.929   0.901   3.603 -1.9635 -1.3412  0.4547
   59CHL1   C25 5537   2.884   1.055   3.742  0.1977  0.0827  0.2884
   59CHL1   H25 5538   2.987   1.096   3.756  0.4951  0.2700 -2.0313
   59CHL1   C26 5539   2.779   1.163   3.754 -0.5645  0.3791 -0.0533
   59CHL1  H26A 5540   2.776   1.206   3.857  0.2016 -0.4968  0.3511
   59CHL1  H26B 5541   2.792   1.250   3.686 -2.4726 -1.3195 -2.7810
   59CHL1  H26C 5542   2.680   1.118   3.734 -0.4565  0.1350 -0.0497
   59CHL1   C27 5543   2.859   0.952   3.848  0.4220  0.0571 -0.1924
   59CHL1  H27A 5544   2.837   0.988   3.950  1.1243  0.1132 -0.0613
   59CHL1  H27B 5545   2.769   0.894   3.816  0.6692  0.1000 -1.0022
   59CHL1  H27C 5546   2.931   0.868   3.838  1.7558  1.0235  0.9908
   60CHL1    C3 5547   4.024   6.867   2.943  0.0414  0.0876  0.3358
   60CHL1    H3 5548   4.113   6.804   2.963 -2.0164 -3.9112 -1.7808
   60CHL1    O3 5549   4.021   6.911   2.810  0.0110  1.1482  0.7822
   60CHL1   H3' 5550   3.936   6.950   2.790  0.4398  1.1848 -1.1466
   60CHL1    C4 5551   3.905   6.774   2.977  0.5982  0.3755  0.7994
   60CHL1   H4A 5552   3.805   6.806   2.942 -0.0449 -2.3519 -0.1351
   60CHL1   H4B 5553   3.932   6.678   2.928  2.3071  1.0201  0.4128
   60CHL1    C5 5554   3.885   6.747   3.126 -0.1451  0.5130  0.7211
   60CHL1    C6 5555   3.881   6.624   3.179 -0.0236 -0.4053 -0.6346
   60CHL1    H6 5556   3.871   6.537   3.112 -2.3418  0.2616 -1.2548
   60CHL1    C7 5557   3.868   6.595   3.328 -0.6187  0.0702 -0.1673
   60CHL1   H7A 5558   3.802   6.509   3.355  1.2869 -1.7263 -0.9497
   60CHL1   H7B 5559   3.964   6.553   3.364  0.3309  1.1142 -1.3644
   60CHL1    C8 5560   3.815   6.713   3.407  0.3536 -0.3791 -0.0746
   60CHL1    H8 5561   3.714   6.743   3.373  0.0447 -1.7657 -0.4665
   60CHL1   C14 5562   3.821   6.683   3.553  0.2728  0.7273 -0.2144
   60CHL1   H14 5563   3.928   6.663   3.577 -0.2728 -1.3264  0.7164
   60CHL1   C15 5564   3.749   6.558   3.607  0.5016 -0.0567 -0.0079
   60CHL1  H15A 5565   3.646   6.548   3.568 -0.1091  0.1302  1.4882
   60CHL1  H15B 5566   3.795   6.458   3.589  0.3406 -0.0794 -0.2975
   60CHL1   C16 5567   3.749   6.589   3.762  0.0399  0.0417  0.2892
   60CHL1  H16A 5568   3.651   6.565   3.808  1.6832 -2.1405  2.9246
   60CHL1  H16B 5569   3.826   6.529   3.816  0.2235  2.8033  3.4384
   60CHL1   C17 5570   3.794   6.739   3.786 -0.1826 -0.3485  0.5929
   60CHL1   H17 5571   3.899   6.717   3.818  0.2837 -0.3988 -0.9136
   60CHL1   C13 5572   3.783   6.801   3.644 -0.1392  0.1769 -0.6237
   60CHL1   C18 5573   3.629   6.841   3.633  0.2327  0.8365  0.1458
   60CHL1  H18A 5574   3.556   6.762   3.662  0.3604  0.6127 -0.1383
   60CHL1  H18B 5575   3.608   6.933   3.692 -2.5697  1.2895 -1.4238
   60CHL1  H18C 5576   3.609   6.870   3.528  0.9126  1.2333  0.1175
   60CHL1   C12 5577   3.885   6.921   3.612  0.5400 -0.1510 -0.5412
   60CHL1  H12A 5578   3.857   7.008   3.674  1.8247 -0.8588  1.1099
   60CHL1  H12B 5579   3.990   6.897   3.641  0.0016 -0.2516  1.4566
   60CHL1   C11 5580   3.879   6.953   3.465 -0.6421  0.8558 -0.3027
   60CHL1  H11A 5581   3.775   6.989   3.450 -0.9287 -0.4035 -1.4924
   60CHL1  H11B 5582   3.943   7.044   3.461 -0.8289  0.9545 -1.1607
   60CHL1    C9 5583   3.900   6.835   3.365  0.7435 -0.0984  0.5838
   60CHL1    H9 5584   4.005   6.798   3.374  0.4220 -2.3473 -2.8975
   60CHL1   C10 5585   3.892   6.873   3.217 -0.4460  0.4123  0.4771
   60CHL1   C19 5586   3.765   6.962   3.211  0.0734 -0.4312 -0.3170
   60CHL1  H19A 5587   3.728   6.945   3.108  0.3214 -2.0944 -0.1666
   60CHL1  H19B 5588   3.687   6.926   3.283  2.2868 -0.6067  2.1663
   60CHL1  H19C 5589   3.780   7.071   3.221 -0.6141 -0.1996 -1.6464
   60CHL1    C1 5590   4.017   6.961   3.183 -0.4254  0.9642  0.4899
   60CHL1   H1A 5591   4.008   7.054   3.243  1.0343  2.0037 -0.8258
   60CHL1   H1B 5592   4.100   6.893   3.213 -2.3290 -0.9037  1.8071
   60CHL1    C2 5593   4.025   6.991   3.035  0.0161 -0.4479  0.2027
   60CHL1   H2A 5594   4.120   7.047   3.017  0.4588 -1.9286 -2.7539
   60CHL1   H2B 5595   3.936   7.051   3.005  0.1901 -0.3598 -0.1546
   60CHL1   C20 5596   3.725   6.805   3.912 -0.3284  0.4862  0.0953
   60CHL1   H20 5597   3.615   6.814   3.897 -0.0100 -0.3706 -3.7443
   60CHL1   C21 5598   3.778   6.949   3.934  0.7040 -0.0305 -0.0115
   60CHL1  H21A 5599   3.744   6.985   4.034  1.6583  1.8783 -0.3292
   60CHL1  H21B 5600   3.751   7.017   3.851  0.2577 -1.3435 -0.9796
   60CHL1  H21C 5601   3.888   6.960   3.943  0.5719  2.0106 -0.5282
   60CHL1   C22 5602   3.743   6.723   4.042  0.4269  0.7611  0.3788
   60CHL1  H22A 5603   3.703   6.620   4.028  2.0829  0.2206 -0.7003
   60CHL1  H22B 5604   3.847   6.690   4.062 -0.5029 -2.3153  0.6592
   60CHL1   C23 5605   3.665   6.778   4.163  0.6596 -0.1653 -0.3852
   60CHL1  H23A 5606   3.726   6.858   4.208  1.6326 -0.1166 -1.7340
   60CHL1  H23B 5607   3.573   6.830   4.128  0.5933  0.5601  0.8423
   60CHL1   C24 5608   3.615   6.663   4.255 -1.0044  0.4128  0.1181
   60CHL1  H24A 5609   3.542   6.599   4.201  0.6398 -0.8139 -0.7717
   60CHL1  H24B 5610   3.701   6.595   4.275 -3.1992 -3.6519 -2.7070
   60CHL1   C25 5611   3.538   6.709   4.379 -0.0276 -0.4461  0.7014
   60CHL1   H25 5612   3.456   6.780   4.356 -0.6240 -0.9656  1.1855
   60CHL1   C26 5613   3.471   6.583   4.433 -0.4255 -0.1214 -0.3466
   60CHL1  H26A 5614   3.390   6.612   4.502 -0.1413 -1.0377  0.4003
   60CHL1  H26B 5615   3.421   6.515   4.360  1.3076 -1.7973 -0.0677
   60CHL1  H26C 5616   3.547   6.520   4.484 -1.1887  0.1585  1.1563
   60CHL1   C27 5617   3.626   6.787   4.474  0.1535  0.4569 -0.3933
   60CHL1  H27A 5618   3.697   6.860   4.430 -1.8929  1.0234 -3.0466
   60CHL1  H27B 5619   3.559   6.843   4.542  2.2795  0.5168  1.7768
   60CHL1  H27C 5620   3.683   6.719   4.542 -1.2616  0.6157  1.0219
   61CHL1    C3 5621   5.907   0.763   2.696 -0.2879 -0.0395  1.4168
   61CHL1    H3 5622   5.987   0.816   2.751  2.0093 -0.7327 -1.0459
   61CHL1    O3 5623   5.942   0.761   2.557 -0.7526  0.0213 -0.2524
   61CHL1   H3' 5624   5.961   0.671   2.531  1.6658 -0.0461  1.4016
   61CHL1    C4 5625   5.885   0.619   2.742  0.6119 -0.1109  0.0198
   61CHL1   H4A 5626   5.800   0.585   2.679  1.0434 -1.4441  0.1204
   61CHL1   H4B 5627   5.971   0.551   2.722  0.4759  0.0009 -1.0436
   61CHL1    C5 5628   5.835   0.615   2.887 -1.0462 -1.1196 -0.1959
   61CHL1    C6 5629   5.905   0.553   2.982 -0.6010  0.0971  0.3099
   61CHL1    H6 5630   5.990   0.491   2.951 -1.2441 -0.5257 -0.2625
   61CHL1    C7 5631   5.862   0.544   3.122 -0.6718  0.5631  0.4217
   61CHL1   H7A 5632   5.885   0.443   3.163  3.0474  0.3717 -1.6085
   61CHL1   H7B 5633   5.919   0.620   3.179  0.3073 -0.2924  0.6187
   61CHL1    C8 5634   5.720   0.590   3.141 -0.3623 -0.3766  0.2356
   61CHL1    H8 5635   5.639   0.522   3.107 -1.4932  0.5075  1.0721
   61CHL1   C14 5636   5.699   0.604   3.291 -0.6367  0.5183 -0.4965
   61CHL1   H14 5637   5.781   0.674   3.315 -1.8717  2.5818 -1.8813
   61CHL1   C15 5638   5.707   0.477   3.377  0.4423 -0.5890 -0.2788
   61CHL1  H15A 5639   5.656   0.395   3.322  0.2080 -0.4863 -0.2162
   61CHL1  H15B 5640   5.815   0.448   3.380  0.6036  0.0860  2.3683
   61CHL1   C16 5641   5.655   0.528   3.515  0.0144 -0.1997  0.7005
   61CHL1  H16A 5642   5.572   0.462   3.549 -0.4275  0.2419  0.4918
   61CHL1  H16B 5643   5.745   0.520   3.579  2.2463 -2.5627 -2.4399
   61CHL1   C17 5644   5.588   0.671   3.492 -0.4004  0.2326 -0.1980
   61CHL1   H17 5645   5.663   0.747   3.526  0.6795 -0.1800 -1.5710
   61CHL1   C13 5646   5.582   0.681   3.340  0.3327 -0.3110  0.5620
   61CHL1   C18 5647   5.457   0.613   3.275  0.3534  0.3949  0.2240
   61CHL1  H18A 5648   5.371   0.682   3.291 -0.4801 -1.1410  2.7352
   61CHL1  H18B 5649   5.455   0.602   3.164 -1.9995  2.0000  0.0336
   61CHL1  H18C 5650   5.427   0.514   3.314 -2.4294  0.4225 -1.5055
   61CHL1   C12 5651   5.588   0.824   3.279 -0.2666 -0.4192 -0.9527
   61CHL1  H12A 5652   5.499   0.890   3.291 -0.6740 -0.7758 -1.9841
   61CHL1  H12B 5653   5.677   0.875   3.321  0.0955 -1.3875 -0.5107
   61CHL1   C11 5654   5.596   0.821   3.124 -0.1392  0.0724 -0.8566
   61CHL1  H11A 5655   5.497   0.800   3.078 -1.1610  1.8740  0.4030
   61CHL1  H11B 5656   5.628   0.919   3.084  3.3906 -1.4977 -2.2683
   61CHL1    C9 5657   5.709   0.724   3.068 -0.2670 -0.6669  0.5597
   61CHL1    H9 5658   5.804   0.774   3.096 -1.0723  0.4666  1.3987
   61CHL1   C10 5659   5.722   0.714   2.917  0.1627  0.3362 -0.5646
   61CHL1   C19 5660   5.592   0.657   2.845 -0.3578  0.4011 -0.1618
   61CHL1  H19A 5661   5.502   0.716   2.874 -0.6629  0.8099 -1.8106
   61CHL1  H19B 5662   5.598   0.660   2.734  1.2452  0.5526 -0.0988
   61CHL1  H19C 5663   5.573   0.557   2.888 -4.0325  1.0502  0.0541
   61CHL1    C1 5664   5.742   0.853   2.856  0.2391  0.1819 -0.0122
   61CHL1   H1A 5665   5.643   0.903   2.872 -0.5717 -1.4536  0.2445
   61CHL1   H1B 5666   5.830   0.894   2.910  0.5477 -0.7560  0.2020
   61CHL1    C2 5667   5.781   0.856   2.709  0.0371 -0.5794 -0.3523
   61CHL1   H2A 5668   5.817   0.957   2.680  1.1536 -1.0237 -0.5870
   61CHL1   H2B 5669   5.699   0.826   2.640 -0.5237  1.3699 -0.5706
   61CHL1   C20 5670   5.455   0.686   3.569 -0.3666 -0.0779 -0.2399
   61CHL1   H20 5671   5.382   0.621   3.518 -0.6648 -0.5394  0.7587
   61CHL1   C21 5672   5.399   0.828   3.559  0.3145 -0.2382  0.1330
   61CHL1  H21A 5673   5.462   0.906   3.609 -0.2986  0.2028  0.2384
   61CHL1  H21B 5674   5.305   0.821   3.617  0.1269 -0.1353 -0.1596
   61CHL1  H21C 5675   5.368   0.863   3.458 -2.6526  2.3378  1.7502
   61CHL1   C22 5676   5.451   0.648   3.718  0.1047  0.1831  0.3737
   61CHL1  H22A 5677   5.353   0.680   3.758 -0.3793 -1.9028  0.9713
   61CHL1  H22B 5678   5.455   0.537   3.716  0.1387  0.1936 -0.3791
   61CHL1   C23 5679   5.559   0.704   3.813  0.9634  0.9556  0.3535
   61CHL1  H23A 5680   5.663   0.672   3.789  1.1601  0.9779  1.1456
   61CHL1  H23B 5681   5.547   0.814   3.815 -2.6551  0.6790  0.0648
   61CHL1   C24 5682   5.530   0.660   3.955  0.4975  0.1979  0.1029
   61CHL1  H24A 5683   5.426   0.692   3.978  0.9065  0.6666  1.3577
   61CHL1  H24B 5684   5.550   0.552   3.967  1.0347  0.1974 -0.7565
   61CHL1   C25 5685   5.609   0.731   4.073 -1.0976 -0.0066  0.5505
   61CHL1   H25 5686   5.717   0.717   4.055 -0.8055 -0.3195  2.3551
   61CHL1   C26 5687   5.580   0.879   4.071  0.2210  0.3443 -0.1315
   61CHL1  H26A 5688   5.610   0.928   4.166 -1.7601 -1.2858  1.4132
   61CHL1  H26B 5689   5.625   0.930   3.983  1.7887 -0.3915  0.2031
   61CHL1  H26C 5690   5.470   0.879   4.059  0.2523 -0.7168 -0.5800
   61CHL1   C27 5691   5.600   0.656   4.213 -0.5693  0.0365  0.1345
   61CHL1  H27A 5692   5.495   0.642   4.247 -0.6869 -1.0541 -0.6284
   61CHL1  H27B 5693   5.659   0.563   4.225  1.0075  0.8097 -1.2949
   61CHL1  H27C 5694   5.651   0.712   4.294  0.6123  0.5250 -0.9141
   62CHL1    C3 5695   0.773   1.719   2.091  0.0991 -0.0715  0.1781
   62CHL1    H3 5696   0.787   1.828   2.110 -0.8657 -0.3383  2.9098
   62CHL1    O3 5697   0.790   1.686   1.953 -0.1091 -0.2908 -0.5895
   62CHL1   H3' 5698   0.861   1.743   1.922 -0.3044 -0.4873 -1.4162
   62CHL1    C4 5699   0.852   1.619   2.179 -0.0161 -0.5093  0.2111
   62CHL1   H4A 5700   0.824   1.519   2.141  0.2369 -1.2087  1.7973
   62CHL1   H4B 5701   0.959   1.640   2.157 -0.1972  1.0048  0.6702
   62CHL1    C5 5702   0.819   1.640   2.328 -0.1140  0.2176 -0.2596
   62CHL1    C6 5703   0.910   1.697   2.408  0.4649 -0.3682  0.2591
   62CHL1    H6 5704   1.011   1.711   2.367  0.1086  1.8457  0.0329
   62CHL1    C7 5705   0.895   1.713   2.554  0.0742 -0.3352  0.0788
   62CHL1   H7A 5706   0.991   1.690   2.605  0.1242 -2.2161 -0.8036
   62CHL1   H7B 5707   0.870   1.821   2.565  0.4818 -0.0898 -1.2583
   62CHL1    C8 5708   0.774   1.629   2.608  0.3480  0.3023  0.1474
   62CHL1    H8 5709   0.800   1.521   2.608 -0.3475  0.0239 -3.1109
   62CHL1   C14 5710   0.742   1.678   2.740 -0.9467 -0.1800  0.8725
   62CHL1   H14 5711   0.713   1.785   2.728 -3.3510 -0.9714 -1.2559
   62CHL1   C15 5712   0.855   1.685   2.838  0.1698 -0.0422 -0.3732
   62CHL1  H15A 5713   0.924   1.598   2.833 -1.6548 -1.6069  0.4717
   62CHL1  H15B 5714   0.913   1.779   2.826 -0.2464  0.0779 -1.5850
   62CHL1   C16 5715   0.788   1.679   2.976  0.2296 -0.0748  0.2341
   62CHL1  H16A 5716   0.825   1.591   3.033  1.5286 -0.0347 -0.4934
   62CHL1  H16B 5717   0.805   1.776   3.027  0.1671  0.4601 -0.7303
   62CHL1   C17 5718   0.634   1.682   2.940  0.0171  0.0051 -0.1263
   62CHL1   H17 5719   0.604   1.788   2.931  0.3402  0.2519  1.3411
   62CHL1   C13 5720   0.626   1.611   2.800  0.7911  0.7936  0.3895
   62CHL1   C18 5721   0.647   1.460   2.822 -0.0231 -0.5642 -0.3883
   62CHL1  H18A 5722   0.668   1.400   2.731  1.1920  0.0979 -0.5533
   62CHL1  H18B 5723   0.736   1.441   2.886 -1.3573  0.3392  1.8429
   62CHL1  H18C 5724   0.559   1.423   2.879 -2.6141  1.4040 -2.8307
   62CHL1   C12 5725   0.508   1.646   2.709 -0.7072  0.1625 -0.1904
   62CHL1  H12A 5726   0.412   1.600   2.742 -0.6826 -0.2212 -0.6458
   62CHL1  H12B 5727   0.491   1.755   2.707  0.0153  0.3072  0.8845
   62CHL1   C11 5728   0.528   1.595   2.567  0.0127  0.5205  0.3186
   62CHL1  H11A 5729   0.526   1.484   2.563 -0.0314  0.5146 -3.3118
   62CHL1  H11B 5730   0.440   1.629   2.508  0.2504  3.0790  1.2850
   62CHL1    C9 5731   0.654   1.646   2.504 -0.0430 -0.3473 -0.7676
   62CHL1    H9 5732   0.649   1.757   2.505  1.9482 -0.2204  0.1172
   62CHL1   C10 5733   0.678   1.607   2.363 -0.0392  0.1429  0.4747
   62CHL1   C19 5734   0.654   1.453   2.352  0.4362  0.3074  0.3641
   62CHL1  H19A 5735   0.722   1.409   2.428  0.9128  1.7639  0.8156
   62CHL1  H19B 5736   0.557   1.407   2.376 -0.5654  1.5620 -1.0360
   62CHL1  H19C 5737   0.673   1.416   2.249 -0.4022 -2.0529  1.0195
   62CHL1    C1 5738   0.588   1.689   2.267  0.2587 -0.7542 -0.6050
   62CHL1   H1A 5739   0.488   1.645   2.283  0.5956 -1.0921  0.6573
   62CHL1   H1B 5740   0.589   1.797   2.294 -2.5289 -0.4967 -1.3183
   62CHL1    C2 5741   0.623   1.687   2.117 -0.3653 -0.3160  0.0509
   62CHL1   H2A 5742   0.555   1.758   2.066  1.1607  0.8345 -0.4728
   62CHL1   H2B 5743   0.613   1.584   2.077 -1.6606  0.0466 -0.6145
   62CHL1   C20 5744   0.542   1.628   3.059 -0.2682  0.2970 -0.3894
   62CHL1   H20 5745   0.580   1.526   3.078  2.9507  1.2960 -0.9641
   62CHL1   C21 5746   0.393   1.626   3.014  0.4169 -0.0034  0.5076
   62CHL1  H21A 5747   0.349   1.726   2.995 -0.8103 -0.8916 -1.6738
   62CHL1  H21B 5748   0.331   1.578   3.093 -2.1291  0.0874 -1.3107
   62CHL1  H21C 5749   0.391   1.560   2.925 -1.1452 -2.6675  2.3457
   62CHL1   C22 5750   0.556   1.723   3.178  0.0969  0.7948 -0.0011
   62CHL1  H22A 5751   0.663   1.725   3.206  0.4309  0.0721 -1.1513
   62CHL1  H22B 5752   0.519   1.825   3.154 -1.0835  0.4426  0.2256
   62CHL1   C23 5753   0.491   1.671   3.314 -0.8022  1.4978  0.4620
   62CHL1  H23A 5754   0.551   1.709   3.399  0.0581  1.0361  0.0863
   62CHL1  H23B 5755   0.386   1.701   3.332 -2.0916 -1.6781 -0.8222
   62CHL1   C24 5756   0.498   1.520   3.334 -0.2431  0.5638  0.2480
   62CHL1  H24A 5757   0.435   1.460   3.266  1.7902  0.6542 -1.8307
   62CHL1  H24B 5758   0.601   1.480   3.319 -0.5722 -1.2879  2.3554
   62CHL1   C25 5759   0.440   1.467   3.470 -0.0200  0.1310 -0.1680
   62CHL1   H25 5760   0.455   1.357   3.468 -1.0343 -0.0534  1.0041
   62CHL1   C26 5761   0.520   1.524   3.591 -0.1705  0.3485  0.1801
   62CHL1  H26A 5762   0.493   1.632   3.595  3.6758  1.5698 -2.0485
   62CHL1  H26B 5763   0.493   1.463   3.679  1.0101 -2.1349 -1.0907
   62CHL1  H26C 5764   0.630   1.516   3.577 -0.2077 -0.1712  0.1768
   62CHL1   C27 5765   0.294   1.503   3.486 -0.3129  0.1494  0.0894
   62CHL1  H27A 5766   0.249   1.438   3.564 -2.4504 -0.1566 -1.3139
   62CHL1  H27B 5767   0.270   1.609   3.506  0.8065 -0.0253  2.8480
   62CHL1  H27C 5768   0.242   1.464   3.396  0.3397 -2.0845  0.6151
   63CHL1    C3 5769   4.384   5.135   2.576 -0.9089 -0.3332 -0.0471
   63CHL1    H3 5770   4.423   5.035   2.605 -0.8822  0.1997  1.8985
   63CHL1    O3 5771   4.342   5.138   2.441  0.0387 -0.4972 -0.2147
   63CHL1   H3' 5772   4.291   5.218   2.425  0.7498  0.5126  2.1427
   63CHL1    C4 5773   4.257   5.158   2.662 -0.8945 -0.2315  0.7680
   63CHL1   H4A 5774   4.196   5.244   2.628 -1.8066 -1.6806 -1.5342
   63CHL1   H4B 5775   4.185   5.077   2.637 -1.5588  0.4607  0.4145
   63CHL1    C5 5776   4.296   5.155   2.810 -0.9111 -0.2383  0.2138
   63CHL1    C6 5777   4.262   5.058   2.893 -0.2395 -0.3704  0.3888
   63CHL1    H6 5778   4.188   4.980   2.869 -0.4658  0.0121 -0.1648
   63CHL1    C7 5779   4.306   5.051   3.032  0.3634  0.2917  0.1075
   63CHL1   H7A 5780   4.226   5.012   3.099 -1.8231  1.9504 -1.3956
   63CHL1   H7B 5781   4.382   4.971   3.048  0.2483  0.3876  1.2250
   63CHL1    C8 5782   4.378   5.175   3.091 -0.0457  0.7589 -0.0394
   63CHL1    H8 5783   4.287   5.232   3.120 -0.9951 -0.2132 -0.9930
   63CHL1   C14 5784   4.456   5.138   3.212  0.2202  0.1368 -1.2023
   63CHL1   H14 5785   4.535   5.068   3.176  1.7762  0.8036  0.6909
   63CHL1   C15 5786   4.383   5.055   3.320 -0.4292 -0.2768  0.0409
   63CHL1  H15A 5787   4.284   5.104   3.333  1.8994  4.7482  1.2718
   63CHL1  H15B 5788   4.365   4.949   3.294 -0.5227 -0.1850 -0.2881
   63CHL1   C16 5789   4.468   5.064   3.448 -0.1748 -0.0484  0.7855
   63CHL1  H16A 5790   4.409   5.088   3.540 -2.5902 -0.2480 -0.6199
   63CHL1  H16B 5791   4.506   4.960   3.455  1.8772  0.6000 -0.1442
   63CHL1   C17 5792   4.570   5.173   3.412 -0.6703 -0.0678  0.6761
   63CHL1   H17 5793   4.664   5.122   3.381 -0.6552 -1.7234  3.2057
   63CHL1   C13 5794   4.526   5.256   3.285  0.4285  0.5618  0.6426
   63CHL1   C18 5795   4.428   5.363   3.332  0.6552 -0.1097 -0.6881
   63CHL1  H18A 5796   4.371   5.419   3.255  3.0639  3.7030 -0.0077
   63CHL1  H18B 5797   4.358   5.323   3.409  1.2537  2.2698  1.2211
   63CHL1  H18C 5798   4.486   5.439   3.389 -1.6349  0.7327  0.6550
   63CHL1   C12 5799   4.627   5.306   3.178 -0.0939  0.2700 -0.0791
   63CHL1  H12A 5800   4.673   5.396   3.224 -1.4784  0.5879  0.7627
   63CHL1  H12B 5801   4.698   5.221   3.170 -1.3936 -0.9208  0.5601
   63CHL1   C11 5802   4.560   5.344   3.047  0.7533  0.0068 -0.1271
   63CHL1  H11A 5803   4.502   5.436   3.068 -1.3284 -0.9719 -1.3045
   63CHL1  H11B 5804   4.641   5.377   2.978 -0.1388  0.9432 -0.7740
   63CHL1    C9 5805   4.476   5.233   2.987  0.2001 -0.1277  0.6913
   63CHL1    H9 5806   4.544   5.148   2.964  1.3416  0.9858 -0.1549
   63CHL1   C10 5807   4.416   5.258   2.842  1.0233  0.8009  0.0583
   63CHL1   C19 5808   4.341   5.398   2.854 -0.1427 -0.2596 -0.6434
   63CHL1  H19A 5809   4.415   5.479   2.869 -0.2571 -0.1474 -0.6863
   63CHL1  H19B 5810   4.296   5.422   2.755 -2.0738 -1.5224 -0.1503
   63CHL1  H19C 5811   4.260   5.407   2.930 -0.6442  0.2212 -1.2276
   63CHL1    C1 5812   4.530   5.252   2.742 -0.2076 -0.0714 -0.3744
   63CHL1   H1A 5813   4.589   5.344   2.759  2.0381 -1.5322  0.2882
   63CHL1   H1B 5814   4.600   5.167   2.761 -1.2308 -0.7155  0.6212
   63CHL1    C2 5815   4.491   5.244   2.595 -0.3283  0.2506  0.3979
   63CHL1   H2A 5816   4.579   5.216   2.532 -1.9920 -1.3162 -1.3715
   63CHL1   H2B 5817   4.451   5.343   2.563 -2.7678  0.0057  2.3994
   63CHL1   C20 5818   4.609   5.243   3.538 -0.3052  0.6028 -0.8688
   63CHL1   H20 5819   4.529   5.301   3.590 -0.0713 -1.3627  1.9277
   63CHL1   C21 5820   4.737   5.329   3.503  0.2465 -1.0870 -0.0622
   63CHL1  H21A 5821   4.772   5.371   3.600 -0.4116 -1.1040  0.1861
   63CHL1  H21B 5822   4.712   5.410   3.432  1.5779 -0.7631 -0.2008
   63CHL1  H21C 5823   4.824   5.269   3.467  1.5734  2.0495 -2.5088
   63CHL1   C22 5824   4.655   5.144   3.659 -0.1066 -0.1088 -0.5159
   63CHL1  H22A 5825   4.570   5.075   3.677 -2.3721  3.0046  1.9907
   63CHL1  H22B 5826   4.746   5.085   3.634 -0.5237 -1.8088  1.6645
   63CHL1   C23 5827   4.687   5.221   3.788 -0.4200  0.0413  0.0645
   63CHL1  H23A 5828   4.794   5.249   3.780  0.1305 -1.8281  0.4433
   63CHL1  H23B 5829   4.640   5.322   3.781  3.1821  1.8238 -0.3253
   63CHL1   C24 5830   4.655   5.140   3.913 -0.2936  0.3031 -0.4637
   63CHL1  H24A 5831   4.550   5.105   3.906  0.0126 -1.2251  1.6007
   63CHL1  H24B 5832   4.705   5.041   3.917 -1.4350 -0.2434  2.2825
   63CHL1   C25 5833   4.656   5.232   4.041 -0.4362  0.0231  0.2328
   63CHL1   H25 5834   4.753   5.284   4.051  0.0259 -0.9578  1.0612
   63CHL1   C26 5835   4.553   5.342   4.025 -0.6863  0.7616 -0.6595
   63CHL1  H26A 5836   4.587   5.421   3.955 -1.3781  0.4989 -1.3095
   63CHL1  H26B 5837   4.455   5.301   3.990 -0.8578  0.2676  0.3638
   63CHL1  H26C 5838   4.550   5.392   4.124  0.8169  0.5871 -0.5064
   63CHL1   C27 5839   4.641   5.151   4.173  0.3045  0.2747  0.7031
   63CHL1  H27A 5840   4.720   5.074   4.185  0.7205  0.7705  1.2778
   63CHL1  H27B 5841   4.653   5.225   4.256 -2.8764 -1.6435  3.1187
   63CHL1  H27C 5842   4.535   5.117   4.174 -0.3178  2.0187 -0.4290
   64CHL1    C3 5843   1.636   4.161   2.391  0.4301 -0.2393 -0.4341
   64CHL1    H3 5844   1.659   4.255   2.445  1.7424 -1.5270  1.3584
   64CHL1    O3 5845   1.655   4.186   2.252 -0.2099  0.3118  0.1896
   64CHL1   H3' 5846   1.572   4.209   2.210 -1.9762 -5.0370 -0.1110
   64CHL1    C4 5847   1.733   4.050   2.437  0.0292  0.4134  0.4594
   64CHL1   H4A 5848   1.722   3.953   2.384 -0.5690  2.4898 -3.6286
   64CHL1   H4B 5849   1.835   4.076   2.404 -0.0296  0.4854  0.3351
   64CHL1    C5 5850   1.716   4.020   2.585 -0.5384 -0.6636 -0.3625
   64CHL1    C6 5851   1.814   4.033   2.671 -0.3852 -0.8686 -0.4204
   64CHL1    H6 5852   1.913   4.069   2.638 -0.1173 -0.3321  0.9355
   64CHL1    C7 5853   1.796   3.997   2.808  0.5263  0.0794  0.2589
   64CHL1   H7A 5854   1.882   3.934   2.840 -2.0297 -3.4138  0.9008
   64CHL1   H7B 5855   1.788   4.082   2.880  1.7043  0.2482  0.2079
   64CHL1    C8 5856   1.669   3.905   2.839 -0.9138  0.5440 -0.1043
   64CHL1    H8 5857   1.684   3.809   2.784 -4.2336  1.0651 -2.2104
   64CHL1   C14 5858   1.657   3.888   2.990 -0.0740  0.2929  0.5094
   64CHL1   H14 5859   1.654   3.991   3.032  2.5903  0.6270  0.0714
   64CHL1   C15 5860   1.772   3.813   3.068 -0.5138  0.3292 -0.4920
   64CHL1  H15A 5861   1.805   3.725   3.008  0.4324 -0.1801  0.7365
   64CHL1  H15B 5862   1.859   3.881   3.078  0.4196 -1.0048  0.8566
   64CHL1   C16 5863   1.716   3.766   3.203  0.4900  0.4754  0.9879
   64CHL1  H16A 5864   1.715   3.655   3.202  0.8674  0.4641  1.4908
   64CHL1  H16B 5865   1.778   3.790   3.292  3.2278 -1.2398 -0.3407
   64CHL1   C17 5866   1.565   3.809   3.192  0.8038 -0.2029  0.2055
   64CHL1   H17 5867   1.562   3.915   3.226  0.0663 -0.4494  0.9200
   64CHL1   C13 5868   1.532   3.816   3.038 -0.0592  0.5456 -0.6296
   64CHL1   C18 5869   1.529   3.669   2.978  0.3208  0.3606  0.4907
   64CHL1  H18A 5870   1.426   3.634   2.999  0.1615  0.8945  0.6205
   64CHL1  H18B 5871   1.546   3.659   2.869 -0.9494 -1.6201  0.4285
   64CHL1  H18C 5872   1.598   3.606   3.038  1.0963  1.3271  0.6493
   64CHL1   C12 5873   1.408   3.897   2.990  0.0940 -0.0816 -0.2905
   64CHL1  H12A 5874   1.316   3.840   3.015  0.1344 -0.1195 -0.2291
   64CHL1  H12B 5875   1.413   3.990   3.051  0.7081  1.3250 -2.3471
   64CHL1   C11 5876   1.413   3.907   2.839  0.1434  0.1294  0.0856
   64CHL1  H11A 5877   1.389   3.806   2.798 -4.0730  1.8359 -2.3051
   64CHL1  H11B 5878   1.329   3.964   2.795 -1.1698 -1.6002  0.2236
   64CHL1    C9 5879   1.545   3.968   2.785  0.2175 -0.0801  0.5109
   64CHL1    H9 5880   1.554   4.070   2.828  0.4459 -0.0723  0.4429
   64CHL1   C10 5881   1.572   3.985   2.628  0.6604  0.2016  0.5831
   64CHL1   C19 5882   1.548   3.846   2.565  0.1412 -0.3673  0.0985
   64CHL1  H19A 5883   1.626   3.771   2.592  0.8212 -0.9776 -3.1398
   64CHL1  H19B 5884   1.443   3.812   2.576 -0.0654 -0.1181 -1.0232
   64CHL1  H19C 5885   1.549   3.846   2.454 -1.5388 -0.0229  0.0574
   64CHL1    C1 5886   1.478   4.095   2.575 -0.3134  0.1298  0.3757
   64CHL1   H1A 5887   1.372   4.069   2.592 -0.9706  2.9685  1.0408
   64CHL1   H1B 5888   1.501   4.188   2.631 -1.8596 -0.6056  2.3412
   64CHL1    C2 5889   1.489   4.119   2.426 -0.5955  0.0565  0.5490
   64CHL1   H2A 5890   1.420   4.201   2.395  1.6790  2.1451  0.6653
   64CHL1   H2B 5891   1.455   4.032   2.366 -1.4681  0.0703  1.0178
   64CHL1   C20 5892   1.476   3.724   3.289 -0.2181 -0.1786 -0.3460
   64CHL1   H20 5893   1.486   3.619   3.253 -3.1606 -1.2266  1.5446
   64CHL1   C21 5894   1.328   3.763   3.284 -0.4799 -0.5750  0.8544
   64CHL1  H21A 5895   1.259   3.709   3.353 -3.4995  1.0681 -0.6722
   64CHL1  H21B 5896   1.302   3.742   3.179 -2.2647 -0.4399  1.2416
   64CHL1  H21C 5897   1.317   3.872   3.300  0.4287 -0.2126 -0.8073
   64CHL1   C22 5898   1.522   3.717   3.434  0.2277  1.1203  0.0057
   64CHL1  H22A 5899   1.476   3.628   3.482  2.4700  1.4008  2.9593
   64CHL1  H22B 5900   1.630   3.704   3.458  0.2117  3.5794  1.8023
   64CHL1   C23 5901   1.497   3.837   3.519 -0.6345 -0.1889  0.5839
   64CHL1  H23A 5902   1.580   3.905   3.492 -0.8578 -0.3377 -0.5263
   64CHL1  H23B 5903   1.403   3.891   3.495 -0.0647  0.5650  0.0200
   64CHL1   C24 5904   1.508   3.812   3.670  0.7514  0.7258  0.8502
   64CHL1  H24A 5905   1.436   3.732   3.697  1.9408 -0.2875  1.1361
   64CHL1  H24B 5906   1.606   3.758   3.679 -0.4497 -1.8060 -0.1879
   64CHL1   C25 5907   1.483   3.931   3.758  0.5862 -0.2150  0.0722
   64CHL1   H25 5908   1.537   4.025   3.734 -0.8000  0.7282  0.4948
   64CHL1   C26 5909   1.337   3.969   3.739 -0.1972 -0.2448 -0.0574
   64CHL1  H26A 5910   1.303   4.023   3.831 -1.5964 -2.0663  0.5471
   64CHL1  H26B 5911   1.316   4.022   3.644  2.2341 -2.0542 -1.7188
   64CHL1  H26C 5912   1.276   3.877   3.743  0.1720 -0.5181 -0.6723
   64CHL1   C27 5913   1.502   3.900   3.903 -0.1192 -0.7409  0.4404
   64CHL1  H27A 5914   1.484   3.986   3.970 -0.7590 -0.2858 -0.3120
   64CHL1  H27B 5915   1.445   3.811   3.939  1.2185 -1.6513  0.4014
   64CHL1  H27C 5916   1.610   3.878   3.918  0.2485 -0.1450 -1.1534
   65CHL1    C3 5917   1.386   1.064   2.117 -0.4645 -0.5438 -0.7964
   65CHL1    H3 5918   1.333   1.155   2.153  2.0443  0.7495 -0.1616
   65CHL1    O3 5919   1.365   1.058   1.974 -0.2024 -0.2700 -0.4651
   65CHL1   H3' 5920   1.270   1.058   1.962 -0.1776  1.9986 -1.1446
   65CHL1    C4 5921   1.542   1.068   2.148 -0.6999 -0.8188  0.3421
   65CHL1   H4A 5922   1.580   0.976   2.099 -0.4036 -1.1753  1.2150
   65CHL1   H4B 5923   1.597   1.149   2.095 -0.0965 -0.1781  1.8845
   65CHL1    C5 5924   1.566   1.072   2.297  0.3322  0.7594 -0.5205
   65CHL1    C6 5925   1.621   1.178   2.362 -0.1970 -0.3097  0.3227
   65CHL1    H6 5926   1.671   1.252   2.298 -1.0823  1.6007  1.7666
   65CHL1    C7 5927   1.654   1.190   2.504  0.2426 -0.4346 -0.3868
   65CHL1   H7A 5928   1.758   1.224   2.521  0.9423 -1.7969 -1.6838
   65CHL1   H7B 5929   1.597   1.268   2.559 -0.2855 -1.4415  0.5321
   65CHL1    C8 5930   1.629   1.058   2.583  0.0137  0.2756  0.0722
   65CHL1    H8 5931   1.698   0.975   2.557 -1.0437  0.0370 -2.1620
   65CHL1   C14 5932   1.638   1.073   2.727 -0.0914  0.0742 -0.2705
   65CHL1   H14 5933   1.575   1.160   2.754 -0.2105 -0.5087  1.4331
   65CHL1   C15 5934   1.775   1.121   2.776 -0.2247  0.4273  0.1748
   65CHL1  H15A 5935   1.863   1.069   2.734 -1.3230 -1.1517 -0.2754
   65CHL1  H15B 5936   1.792   1.230   2.760  0.2873  0.4785  1.0299
   65CHL1   C16 5937   1.759   1.095   2.925 -0.1967 -0.6958 -0.1683
   65CHL1  H16A 5938   1.849   1.038   2.956 -0.6136 -1.8185 -0.9618
   65CHL1  H16B 5939   1.755   1.193   2.978  3.3226  0.0696 -1.0399
   65CHL1   C17 5940   1.636   1.002   2.951 -0.3160  0.0609  1.6354
   65CHL1   H17 5941   1.548   1.063   2.978  0.2014  0.0481  3.4620
   65CHL1   C13 5942   1.601   0.950   2.808  0.2922 -0.4593  0.0556
   65CHL1   C18 5943   1.688   0.834   2.774  0.8632  0.2989  0.0128
   65CHL1  H18A 5944   1.794   0.836   2.807  1.8574 -1.2446 -2.7501
   65CHL1  H18B 5945   1.646   0.737   2.809  1.0948 -0.3637 -1.4517
   65CHL1  H18C 5946   1.701   0.817   2.665  1.8347 -0.8842  0.2851
   65CHL1   C12 5947   1.448   0.919   2.779 -0.2122 -0.0975 -0.4597
   65CHL1  H12A 5948   1.413   0.825   2.827  0.9858 -0.6650 -0.6340
   65CHL1  H12B 5949   1.390   1.013   2.787  0.5321  0.4411 -1.1934
   65CHL1   C11 5950   1.447   0.881   2.629 -0.4680  0.9621  0.0556
   65CHL1  H11A 5951   1.499   0.783   2.621 -2.3031 -0.2510  2.0286
   65CHL1  H11B 5952   1.348   0.848   2.590 -0.0350 -1.0333  0.5205
   65CHL1    C9 5953   1.493   0.995   2.539  0.8318 -0.1928 -0.2311
   65CHL1    H9 5954   1.410   1.069   2.546  0.0100 -0.6356 -3.5950
   65CHL1   C10 5955   1.492   0.958   2.386 -0.2164  0.1634  0.0333
   65CHL1   C19 5956   1.562   0.830   2.355  0.2923 -0.3799  0.4393
   65CHL1  H19A 5957   1.562   0.791   2.251 -1.1899 -1.1486  0.7055
   65CHL1  H19B 5958   1.667   0.836   2.392 -0.1153  0.0552  1.5737
   65CHL1  H19C 5959   1.515   0.744   2.409 -1.5380  0.8300  0.8410
   65CHL1    C1 5960   1.347   0.942   2.328 -0.6246 -0.0429  0.4210
   65CHL1   H1A 5961   1.294   0.859   2.380  1.6933  0.3315  3.7158
   65CHL1   H1B 5962   1.293   1.036   2.354 -0.7763  0.1026 -0.3868
   65CHL1    C2 5963   1.330   0.933   2.173 -0.6285  0.4008  0.7996
   65CHL1   H2A 5964   1.221   0.932   2.155 -0.2083  0.5101 -2.1577
   65CHL1   H2B 5965   1.378   0.845   2.125 -0.2352  1.8933 -1.7039
   65CHL1   C20 5966   1.645   0.902   3.068  0.3331 -0.4816  0.1135
   65CHL1   H20 5967   1.725   0.825   3.057  0.4754 -1.2114  4.2921
   65CHL1   C21 5968   1.522   0.812   3.071  0.4337 -0.1461 -0.5655
   65CHL1  H21A 5969   1.519   0.735   2.991 -1.5422  0.6064 -1.2701
   65CHL1  H21B 5970   1.426   0.868   3.071  0.1673 -0.4407  2.2652
   65CHL1  H21C 5971   1.527   0.749   3.163  1.1094 -0.2458 -0.6688
   65CHL1   C22 5972   1.664   0.972   3.202  0.0041  0.3827 -0.8254
   65CHL1  H22A 5973   1.742   1.051   3.198  0.5571  0.0951  2.1814
   65CHL1  H22B 5974   1.570   1.016   3.239  0.8363 -0.1610  2.2398
   65CHL1   C23 5975   1.720   0.872   3.306  0.4178 -0.0077 -0.6219
   65CHL1  H23A 5976   1.653   0.783   3.314  0.7617 -0.2224 -0.0752
   65CHL1  H23B 5977   1.815   0.826   3.271  0.4924  0.0681 -0.5196
   65CHL1   C24 5978   1.759   0.920   3.447 -0.3643 -0.1598  0.3721
   65CHL1  H24A 5979   1.842   0.994   3.444 -0.3754 -0.1202  1.0522
   65CHL1  H24B 5980   1.674   0.976   3.491 -2.9959 -2.4633 -1.4259
   65CHL1   C25 5981   1.786   0.807   3.545 -0.3005 -0.7338 -0.3582
   65CHL1   H25 5982   1.697   0.741   3.544 -1.1377  0.2757  1.4265
   65CHL1   C26 5983   1.915   0.727   3.516  0.1185  0.3166  0.6918
   65CHL1  H26A 5984   1.916   0.629   3.570 -2.1150  0.0050  0.2379
   65CHL1  H26B 5985   1.909   0.697   3.410 -1.6228  0.7256  0.6510
   65CHL1  H26C 5986   2.004   0.793   3.525  1.2744 -1.1425  0.2823
   65CHL1   C27 5987   1.803   0.866   3.692 -0.2443 -0.3075  0.1620
   65CHL1  H27A 5988   1.852   0.794   3.761  2.0126  0.0858 -0.9208
   65CHL1  H27B 5989   1.876   0.949   3.695  0.3689 -0.8770  1.3282
   65CHL1  H27C 5990   1.706   0.898   3.734 -0.5738 -0.1737 -0.6671
   66CHL1    C3 5991   5.235   0.925   2.746 -0.2592 -0.3864 -0.4696
   66CHL1    H3 5992   5.310   0.846   2.765 -0.9017 -0.9939 -0.4040
   66CHL1    O3 5993   5.188   0.896   2.620  0.1786  0.1799 -0.4729
   66CHL1   H3' 5994   5.153   0.977   2.583 -1.0973 -0.9145 -1.7707
   66CHL1    C4 5995   5.117   0.927   2.842 -0.0183 -1.0832 -0.3813
   66CHL1   H4A 5996   5.044   1.001   2.804  0.7172  0.6404  1.4017
   66CHL1   H4B 5997   5.068   0.827   2.846  0.1268 -1.1296  0.5686
   66CHL1    C5 5998   5.164   0.974   2.974  0.7736  0.2458  0.0086
   66CHL1    C6 5999   5.139   0.907   3.092  0.0370  0.3731  0.7821
   66CHL1    H6 6000   5.081   0.813   3.094 -0.7220  0.7802 -0.8112
   66CHL1    C7 6001   5.198   0.951   3.223 -0.1745  0.4153  0.0597
   66CHL1   H7A 6002   5.130   0.922   3.306  0.2148  0.5905  0.4416
   66CHL1   H7B 6003   5.296   0.906   3.248 -0.8789 -1.8222 -0.9845
   66CHL1    C8 6004   5.217   1.101   3.237  0.2100  0.1085  0.6462
   66CHL1    H8 6005   5.122   1.159   3.239 -0.7659 -1.3408 -0.8126
   66CHL1   C14 6006   5.279   1.140   3.369  0.3136 -0.7709  0.0602
   66CHL1   H14 6007   5.366   1.072   3.378 -0.3009 -2.1576 -3.0227
   66CHL1   C15 6008   5.202   1.105   3.494  0.1836  0.3761 -0.0218
   66CHL1  H15A 6009   5.102   1.151   3.486 -0.2816 -0.6499 -0.3040
   66CHL1  H15B 6010   5.196   0.995   3.510  1.2541  0.5240  1.7690
   66CHL1   C16 6011   5.281   1.182   3.604  0.2521 -0.5790  0.6801
   66CHL1  H16A 6012   5.200   1.228   3.664 -1.0832  1.0920 -2.2162
   66CHL1  H16B 6013   5.344   1.111   3.663 -0.5823 -5.2946 -3.3898
   66CHL1   C17 6014   5.370   1.285   3.526  0.0375  0.2710 -0.0428
   66CHL1   H17 6015   5.465   1.227   3.533  0.5925  1.2840  1.1263
   66CHL1   C13 6016   5.328   1.286   3.378  0.1080  0.8123  0.1705
   66CHL1   C18 6017   5.209   1.379   3.346  0.1910  0.0505 -0.5136
   66CHL1  H18A 6018   5.167   1.371   3.244 -0.8056 -1.8042  0.0060
   66CHL1  H18B 6019   5.130   1.361   3.422 -0.1887  2.0384 -0.3875
   66CHL1  H18C 6020   5.243   1.485   3.353 -1.8767  0.6765  0.8185
   66CHL1   C12 6021   5.443   1.295   3.271  0.4538 -0.2359  0.0135
   66CHL1  H12A 6022   5.484   1.398   3.272 -0.7863  0.2810 -0.4860
   66CHL1  H12B 6023   5.532   1.232   3.288  0.7014 -0.0679 -0.6570
   66CHL1   C11 6024   5.381   1.274   3.133  0.4591  0.4622 -0.6907
   66CHL1  H11A 6025   5.317   1.363   3.111 -0.1907  0.3226  0.5383
   66CHL1  H11B 6026   5.462   1.285   3.058 -0.1348  0.8306 -1.3018
   66CHL1    C9 6027   5.310   1.136   3.119 -0.0919  0.5252  0.5095
   66CHL1    H9 6028   5.391   1.064   3.143  0.4726  0.8787 -0.3076
   66CHL1   C10 6029   5.251   1.105   2.980 -0.5119  0.3967  0.1365
   66CHL1   C19 6030   5.154   1.220   2.944 -0.1476  0.2319  0.1045
   66CHL1  H19A 6031   5.107   1.207   2.844  0.9753  2.7581 -0.8475
   66CHL1  H19B 6032   5.078   1.241   3.023 -0.0655 -3.2892  1.3015
   66CHL1  H19C 6033   5.208   1.316   2.929 -1.6187  0.6906 -2.9556
   66CHL1    C1 6034   5.367   1.092   2.874  0.1330  0.4316 -0.7594
   66CHL1   H1A 6035   5.441   1.174   2.886  1.6829 -0.2915 -4.1815
   66CHL1   H1B 6036   5.420   1.000   2.907 -2.0335 -0.2315  1.1409
   66CHL1    C2 6037   5.314   1.059   2.739 -1.2700  0.1058 -0.1638
   66CHL1   H2A 6038   5.402   1.043   2.672 -0.8049 -0.5547  0.5851
   66CHL1   H2B 6039   5.265   1.153   2.705 -1.4032  0.5737  1.2627
   66CHL1   C20 6040   5.398   1.424   3.577 -0.4264  0.6826 -0.7258
   66CHL1   H20 6041   5.426   1.488   3.490  0.2079  0.1536 -0.9199
   66CHL1   C21 6042   5.525   1.417   3.662  0.3436  0.0277 -0.5067
   66CHL1  H21A 6043   5.616   1.395   3.601  1.7141 -0.6660  1.6847
   66CHL1  H21B 6044   5.511   1.340   3.741  0.1523  0.5243 -0.0563
   66CHL1  H21C 6045   5.543   1.514   3.713 -0.3504 -0.1682  0.1298
   66CHL1   C22 6046   5.286   1.487   3.669 -0.8474 -0.3558  0.1455
   66CHL1  H22A 6047   5.187   1.459   3.628 -1.9123 -0.1782  2.4170
   66CHL1  H22B 6048   5.297   1.446   3.772 -0.5437 -1.7244 -0.4014
   66CHL1   C23 6049   5.291   1.641   3.667 -0.5029 -0.6571 -0.1224
   66CHL1  H23A 6050   5.391   1.672   3.705 -0.2814 -1.7644  0.2506
   66CHL1  H23B 6051   5.277   1.682   3.565 -0.2004  1.9882  0.8118
   66CHL1   C24 6052   5.179   1.706   3.757  0.1006  0.1256  0.6455
   66CHL1  H24A 6053   5.083   1.652   3.742  1.1326 -2.4795  2.6632
   66CHL1  H24B 6054   5.198   1.681   3.864  1.1944 -1.0462  0.2000
   66CHL1   C25 6055   5.167   1.859   3.745  0.4445 -0.2941  0.1494
   66CHL1   H25 6056   5.144   1.891   3.641 -1.1381  0.0206  0.5749
   66CHL1   C26 6057   5.057   1.910   3.837  0.5023  0.3638  0.0764
   66CHL1  H26A 6058   4.959   1.866   3.810  0.9219 -1.4609  1.3587
   66CHL1  H26B 6059   5.084   1.873   3.939 -0.3306  0.6017  0.3934
   66CHL1  H26C 6060   5.056   2.020   3.851  0.6765  0.7894 -2.7635
   66CHL1   C27 6061   5.298   1.912   3.798 -0.2650  0.0208  0.2111
   66CHL1  H27A 6062   5.288   2.020   3.817  1.3401 -0.2436  3.0729
   66CHL1  H27B 6063   5.389   1.909   3.733  0.6349 -1.6395  1.4747
   66CHL1  H27C 6064   5.324   1.857   3.891  0.2000  1.5891  1.0334
   67CHL1    C3 6065   2.992   0.562   2.311  0.2048  0.7607 -0.0886
   67CHL1    H3 6066   2.961   0.669   2.314 -1.3376  0.4151 -1.8553
   67CHL1    O3 6067   2.997   0.525   2.173  0.3046  0.0851  0.2034
   67CHL1   H3' 6068   3.044   0.598   2.130  1.0802  0.5099  1.7021
   67CHL1    C4 6069   3.127   0.538   2.387  0.2075 -0.3261  0.3026
   67CHL1   H4A 6070   3.144   0.431   2.361 -0.4496 -0.5708  0.8534
   67CHL1   H4B 6071   3.207   0.600   2.341  1.3545 -1.2910  0.9364
   67CHL1    C5 6072   3.113   0.552   2.543 -0.1289 -0.3921 -0.1893
   67CHL1    C6 6073   3.195   0.638   2.612  0.1128  0.1841  1.3245
   67CHL1    H6 6074   3.271   0.691   2.552  0.7199 -0.8882  1.1229
   67CHL1    C7 6075   3.179   0.665   2.758  0.4704  0.4808  0.0085
   67CHL1   H7A 6076   3.285   0.665   2.792  1.4066  1.2901 -2.6894
   67CHL1   H7B 6077   3.130   0.764   2.767  1.0156  0.7158  0.5153
   67CHL1    C8 6078   3.093   0.560   2.836 -0.1001  0.6173 -0.2223
   67CHL1    H8 6079   3.141   0.460   2.843 -1.3545 -0.0670 -0.9544
   67CHL1   C14 6080   3.053   0.607   2.978  0.4789 -0.9298  0.2429
   67CHL1   H14 6081   2.988   0.692   2.948  1.1716 -0.0022  1.3240
   67CHL1   C15 6082   3.153   0.663   3.082  0.3504 -0.1674  0.7290
   67CHL1  H15A 6083   3.243   0.598   3.080 -0.8755 -2.0839  2.9291
   67CHL1  H15B 6084   3.167   0.771   3.060 -1.1211 -0.1841 -0.4921
   67CHL1   C16 6085   3.075   0.663   3.208  0.3252  0.1923 -0.9453
   67CHL1  H16A 6086   3.138   0.623   3.290  0.3792 -1.0290 -1.5512
   67CHL1  H16B 6087   3.064   0.768   3.243  2.4879  0.2293 -0.2179
   67CHL1   C17 6088   2.941   0.594   3.194  0.1498  0.4593 -0.8692
   67CHL1   H17 6089   2.861   0.670   3.181 -2.5376 -1.9564  0.3605
   67CHL1   C13 6090   2.959   0.511   3.065 -0.4779 -0.5004  0.4262
   67CHL1   C18 6091   3.029   0.383   3.099  0.3294  1.0678  0.3369
   67CHL1  H18A 6092   2.959   0.308   3.141  2.9530 -1.5194  0.3594
   67CHL1  H18B 6093   3.072   0.327   3.013 -0.0043  0.5628  0.4936
   67CHL1  H18C 6094   3.118   0.395   3.164 -0.3196 -1.9216  1.9523
   67CHL1   C12 6095   2.835   0.493   2.979  0.1222 -0.4242  0.5176
   67CHL1  H12A 6096   2.752   0.433   3.023 -0.4452 -1.0282 -1.2773
   67CHL1  H12B 6097   2.789   0.593   2.959 -1.3647 -1.3995 -1.3359
   67CHL1   C11 6098   2.857   0.445   2.834 -0.0933 -0.6343 -0.3968
   67CHL1  H11A 6099   2.900   0.343   2.827  0.7839 -0.3412  0.4696
   67CHL1  H11B 6100   2.766   0.466   2.774 -0.2159  1.2213  0.3781
   67CHL1    C9 6101   2.966   0.530   2.756  0.1903  0.2163 -0.5158
   67CHL1    H9 6102   2.922   0.632   2.749  1.9250  0.9016 -3.3213
   67CHL1   C10 6103   2.991   0.485   2.610 -0.1351  0.8803 -0.1355
   67CHL1   C19 6104   3.029   0.332   2.609 -0.4184  0.1363 -0.5505
   67CHL1  H19A 6105   2.939   0.278   2.644 -0.5372  0.4014 -0.4396
   67CHL1  H19B 6106   3.059   0.289   2.511  1.1611 -1.5757  0.6243
   67CHL1  H19C 6107   3.109   0.315   2.684  1.2291  2.2179 -1.7098
   67CHL1    C1 6108   2.863   0.509   2.528 -0.5289  0.3982 -0.4853
   67CHL1   H1A 6109   2.784   0.431   2.542  0.5365 -0.2862  2.3115
   67CHL1   H1B 6110   2.828   0.613   2.540 -0.0557  0.4353  0.6954
   67CHL1    C2 6111   2.875   0.482   2.375  0.1845 -0.4293 -0.0664
   67CHL1   H2A 6112   2.787   0.511   2.314  0.8429 -3.2285 -2.5386
   67CHL1   H2B 6113   2.902   0.375   2.369  1.3944 -0.1532  0.1019
   67CHL1   C20 6114   2.893   0.525   3.322 -0.0177  0.1403  0.2862
   67CHL1   H20 6115   2.955   0.435   3.346  0.4935  0.8512  1.7481
   67CHL1   C21 6116   2.758   0.449   3.298 -0.2455 -1.1454 -0.1744
   67CHL1  H21A 6117   2.677   0.523   3.279  0.2388 -0.4345  0.4671
   67CHL1  H21B 6118   2.717   0.399   3.388  2.1133 -1.3948  0.8173
   67CHL1  H21C 6119   2.762   0.383   3.208  0.7495  1.4703 -2.1772
   67CHL1   C22 6120   2.901   0.614   3.452  0.9532 -0.2770  0.3996
   67CHL1  H22A 6121   2.985   0.686   3.457  2.4104 -1.9589  1.9666
   67CHL1  H22B 6122   2.807   0.673   3.448  0.4181 -1.0156  1.5417
   67CHL1   C23 6123   2.887   0.531   3.584  0.0606 -0.4112  0.3593
   67CHL1  H23A 6124   2.802   0.460   3.578  1.0375 -1.5976  0.0749
   67CHL1  H23B 6125   2.981   0.476   3.603  0.4797  0.6776  1.6603
   67CHL1   C24 6126   2.881   0.620   3.707 -1.3428  0.3290  0.2632
   67CHL1  H24A 6127   2.980   0.670   3.703 -0.8150 -0.5987  1.0724
   67CHL1  H24B 6128   2.798   0.692   3.718 -3.3360 -2.1197  3.1501
   67CHL1   C25 6129   2.875   0.520   3.830  0.1206  0.1270  0.1095
   67CHL1   H25 6130   2.796   0.443   3.816  0.7727 -1.0085  2.2401
   67CHL1   C26 6131   3.002   0.438   3.861 -0.0458  0.1737  0.4906
   67CHL1  H26A 6132   3.023   0.384   3.767 -1.7896  1.4845 -0.7263
   67CHL1  H26B 6133   3.091   0.500   3.883  0.2478  0.4523 -1.3627
   67CHL1  H26C 6134   2.979   0.373   3.949  1.5147 -1.0337  0.0514
   67CHL1   C27 6135   2.841   0.602   3.959 -0.2027 -0.1509  0.2030
   67CHL1  H27A 6136   2.833   0.531   4.044  2.7441 -1.7171 -0.7010
   67CHL1  H27B 6137   2.922   0.676   3.973 -0.1644 -0.3559  1.1349
   67CHL1  H27C 6138   2.745   0.652   3.934  0.5324 -0.1625 -3.0119
   68CHL1    C3 6139   0.721   0.033   2.279 -0.1560  0.3260  0.0697
   68CHL1    H3 6140   0.663  -0.057   2.308  0.5076 -0.0404  0.2886
   68CHL1    O3 6141   0.724   0.052   2.141 -0.7200 -0.9054 -0.5830
   68CHL1   H3' 6142   0.778  -0.019   2.106  0.2584 -1.1522  1.2744
   68CHL1    C4 6143   0.656   0.153   2.343  0.2589  0.1623 -0.3929
   68CHL1   H4A 6144   0.693   0.254   2.315  1.1170 -0.7893 -3.0259
   68CHL1   H4B 6145   0.556   0.162   2.295  1.1214  1.9228 -2.0137
   68CHL1    C5 6146   0.666   0.139   2.492 -0.3250  0.1506  0.1719
   68CHL1    C6 6147   0.565   0.130   2.582 -0.3425 -1.0206  0.4938
   68CHL1    H6 6148   0.463   0.147   2.545 -0.3605  0.9731  1.3421
   68CHL1    C7 6149   0.576   0.120   2.732  0.2929  0.3787  0.0327
   68CHL1   H7A 6150   0.491   0.169   2.785 -0.2589  0.7619 -1.1734
   68CHL1   H7B 6151   0.562   0.011   2.745  1.8506  0.2336  0.7197
   68CHL1    C8 6152   0.716   0.156   2.782  0.0716 -0.4948 -0.0368
   68CHL1    H8 6153   0.730   0.266   2.791 -0.0594 -0.2967 -1.9424
   68CHL1   C14 6154   0.737   0.106   2.926  0.1575 -0.3798 -0.0937
   68CHL1   H14 6155   0.732  -0.004   2.908  1.2959 -0.2860 -1.1164
   68CHL1   C15 6156   0.635   0.130   3.033  0.8998  0.2345 -0.6482
   68CHL1  H15A 6157   0.589   0.231   3.025 -0.0552 -0.2663 -1.7524
   68CHL1  H15B 6158   0.552   0.057   3.021 -1.9471  2.8279  1.6685
   68CHL1   C16 6159   0.709   0.093   3.158 -0.2945  0.4974  0.6652
   68CHL1  H16A 6160   0.713   0.188   3.216  2.9676 -0.2560  1.9314
   68CHL1  H16B 6161   0.654   0.014   3.215  0.7962 -2.0463 -1.5746
   68CHL1   C17 6162   0.854   0.060   3.125 -0.2052  0.3584  0.1413
   68CHL1   H17 6163   0.864  -0.051   3.115  0.1447  0.5055 -1.5089
   68CHL1   C13 6164   0.875   0.125   2.988 -0.3595 -0.0308 -0.0258
   68CHL1   C18 6165   0.896   0.280   3.006 -0.3662  0.9677 -0.1525
   68CHL1  H18A 6166   0.883   0.328   2.907 -1.1981  1.8969  0.3964
   68CHL1  H18B 6167   0.830   0.334   3.076 -0.2462  1.2272 -0.2369
   68CHL1  H18C 6168   0.994   0.309   3.050  0.4581  0.2894 -1.4627
   68CHL1   C12 6169   0.979   0.055   2.899  0.0548 -0.9830  0.0514
   68CHL1  H12A 6170   1.083   0.066   2.936 -0.4532  1.6392  0.9075
   68CHL1  H12B 6171   0.957  -0.051   2.876  0.0936 -0.9162 -0.3152
   68CHL1   C11 6172   0.976   0.114   2.756 -0.1094  0.5344  0.2302
   68CHL1  H11A 6173   0.989   0.224   2.756  1.0629  0.4120  0.9239
   68CHL1  H11B 6174   1.057   0.064   2.697  0.9976  1.1739  1.1606
   68CHL1    C9 6175   0.833   0.094   2.693 -0.0879 -0.3040 -0.7608
   68CHL1    H9 6176   0.814  -0.015   2.703  1.2682 -0.8248 -2.9427
   68CHL1   C10 6177   0.814   0.126   2.543  0.1160  0.0481  0.5176
   68CHL1   C19 6178   0.869   0.265   2.516 -0.4508 -0.8671  0.0725
   68CHL1  H19A 6179   0.818   0.346   2.572 -0.9038 -1.2159  0.1663
   68CHL1  H19B 6180   0.968   0.280   2.564 -0.8919 -1.5977  1.2726
   68CHL1  H19C 6181   0.873   0.289   2.408 -2.1354 -1.7713 -0.2235
   68CHL1    C1 6182   0.886   0.006   2.464  0.0295 -0.3493  0.1007
   68CHL1   H1A 6183   0.992  -0.003   2.495  0.2873 -0.5364 -0.7932
   68CHL1   H1B 6184   0.836  -0.089   2.494 -0.2016 -0.8251 -1.6539
   68CHL1    C2 6185   0.870   0.027   2.309 -0.4124 -0.1095  0.3026
   68CHL1   H2A 6186   0.918  -0.058   2.256 -0.4290  0.3365 -0.4477
   68CHL1   H2B 6187   0.925   0.121   2.285 -0.5602  0.3175  1.5929
   68CHL1   C20 6188   0.949   0.101   3.246  0.6277  0.3970  0.0264
   68CHL1   H20 6189   0.921   0.204   3.278 -2.7695 -0.6485  0.8706
   68CHL1   C21 6190   1.096   0.084   3.198  0.0267 -0.7052  0.0575
   68CHL1  H21A 6191   1.164   0.103   3.284 -0.9122  1.4045  0.4236
   68CHL1  H21B 6192   1.124   0.162   3.123  1.0441 -0.7936  0.3276
   68CHL1  H21C 6193   1.114  -0.018   3.160  0.9536 -1.2772  1.8930
   68CHL1   C22 6194   0.908   0.015   3.368  0.0963 -0.4803 -0.3442
   68CHL1  H22A 6195   0.799   0.027   3.390 -0.0473 -1.5790 -0.3993
   68CHL1  H22B 6196   0.924  -0.091   3.338  2.3956 -0.4465  0.5864
   68CHL1   C23 6197   0.990   0.022   3.502  0.2850 -0.2452  0.0968
   68CHL1  H23A 6198   1.093  -0.011   3.477 -0.6255 -1.2838 -2.6722
   68CHL1  H23B 6199   0.998   0.129   3.531 -1.0330  0.4617 -1.8604
   68CHL1   C24 6200   0.924  -0.051   3.628 -0.0020  0.1124  1.0785
   68CHL1  H24A 6201   0.830   0.001   3.655 -0.3566 -0.1511  0.3877
   68CHL1  H24B 6202   0.899  -0.154   3.595  0.6911  0.0772  0.6236
   68CHL1   C25 6203   1.016  -0.063   3.755 -0.4367 -0.0969  0.5817
   68CHL1   H25 6204   1.043   0.041   3.786  0.4194 -0.6199  1.6841
   68CHL1   C26 6205   0.950  -0.126   3.878  0.1752  0.8406 -0.0709
   68CHL1  H26A 6206   1.007  -0.116   3.973 -1.5990  1.2036  1.0130
   68CHL1  H26B 6207   0.854  -0.071   3.889  0.4046  0.9132  1.8845
   68CHL1  H26C 6208   0.940  -0.236   3.870  1.4712  0.7962 -1.6328
   68CHL1   C27 6209   1.152  -0.122   3.727 -0.6325  0.1879 -1.2333
   68CHL1  H27A 6210   1.216  -0.065   3.657  0.6073 -0.6278 -0.8022
   68CHL1  H27B 6211   1.218  -0.130   3.816 -2.6697 -1.1057  0.2575
   68CHL1  H27C 6212   1.132  -0.223   3.686  1.2832 -1.3208  1.2661
   69CHL1    C3 6213   5.712   6.201   2.517 -1.1778 -0.1766 -0.5317
   69CHL1    H3 6214   5.817   6.166   2.534 -0.7876  0.5211 -1.4168
   69CHL1    O3 6215   5.705   6.208   2.370  0.3339  0.2916 -0.3356
   69CHL1   H3' 6216   5.749   6.290   2.347  1.7745  0.4752  2.6520
   69CHL1    C4 6217   5.617   6.099   2.580 -0.4104 -0.2021  0.1200
   69CHL1   H4A 6218   5.513   6.122   2.547 -0.4753 -1.8043 -0.9067
   69CHL1   H4B 6219   5.641   6.002   2.532 -0.0627  1.0624 -2.4765
   69CHL1    C5 6220   5.648   6.088   2.733  0.3148 -0.3437  0.3291
   69CHL1    C6 6221   5.687   5.965   2.777  0.1001  0.1110 -0.6110
   69CHL1    H6 6222   5.702   5.885   2.703  3.2724  1.1082 -1.2060
   69CHL1    C7 6223   5.717   5.945   2.926  0.0017 -0.4080 -0.1026
   69CHL1   H7A 6224   5.659   5.857   2.960 -0.9841  0.3634  0.2625
   69CHL1   H7B 6225   5.826   5.928   2.941  0.3351 -1.0002 -2.7632
   69CHL1    C8 6226   5.671   6.067   3.018 -0.0720 -0.2170  0.5059
   69CHL1    H8 6227   5.560   6.061   3.014 -0.0502 -2.7859 -4.5060
   69CHL1   C14 6228   5.718   6.047   3.162  0.7020  0.2518  0.0307
   69CHL1   H14 6229   5.829   6.049   3.153  0.5971 -1.1389 -2.0532
   69CHL1   C15 6230   5.688   5.913   3.231  0.3948  0.0658 -0.2913
   69CHL1  H15A 6231   5.582   5.884   3.217  0.7668 -0.0349 -3.4650
   69CHL1  H15B 6232   5.743   5.824   3.196  0.5883 -0.1498  0.5268
   69CHL1   C16 6233   5.706   5.950   3.381 -0.0895  0.4619  0.3270
   69CHL1  H16A 6234   5.620   5.904   3.435  0.6613 -0.0451  1.1080
   69CHL1  H16B 6235   5.801   5.905   3.418 -1.0447 -0.7138  1.4816
   69CHL1   C17 6236   5.725   6.101   3.397  0.3345  0.4814 -0.3242
   69CHL1   H17 6237   5.835   6.114   3.403  0.3833  1.6167 -2.6836
   69CHL1   C13 6238   5.673   6.156   3.262 -0.9000 -0.0646 -0.2201
   69CHL1   C18 6239   5.522   6.161   3.254  0.2942 -0.9870 -0.3675
   69CHL1  H18A 6240   5.493   6.245   3.321  0.7818 -0.1635 -1.1676
   69CHL1  H18B 6241   5.476   6.174   3.154 -0.8270 -0.5878  0.1845
   69CHL1  H18C 6242   5.485   6.073   3.311  0.2999 -1.2288 -0.7347
   69CHL1   C12 6243   5.742   6.279   3.197  0.6734 -0.2216  0.0030
   69CHL1  H12A 6244   5.723   6.371   3.256  0.5150  0.1698 -0.6421
   69CHL1  H12B 6245   5.850   6.254   3.199  0.7958  0.0961 -1.5049
   69CHL1   C11 6246   5.704   6.322   3.058  0.3328  0.1440 -0.2186
   69CHL1  H11A 6247   5.602   6.366   3.062  0.1956 -0.0908  4.9091
   69CHL1  H11B 6248   5.759   6.415   3.032 -3.6139  2.7451 -0.1237
   69CHL1    C9 6249   5.709   6.206   2.953 -0.1130  0.6748 -0.2749
   69CHL1    H9 6250   5.820   6.202   2.942  0.2482 -1.0704  2.7359
   69CHL1   C10 6251   5.652   6.222   2.809  0.0798  0.7386 -0.0755
   69CHL1   C19 6252   5.504   6.274   2.821  0.3418 -0.3110 -0.6693
   69CHL1  H19A 6253   5.456   6.206   2.895  0.0060  0.3360 -0.2857
   69CHL1  H19B 6254   5.495   6.380   2.851  1.5239 -0.0866 -1.0768
   69CHL1  H19C 6255   5.443   6.266   2.728 -0.1050  1.6574 -0.5978
   69CHL1    C1 6256   5.732   6.335   2.734  0.5450 -0.2345 -0.1711
   69CHL1   H1A 6257   5.709   6.432   2.782 -0.4129 -1.0505  1.1056
   69CHL1   H1B 6258   5.840   6.314   2.750  1.1422  3.1364  1.0241
   69CHL1    C2 6259   5.700   6.337   2.579  0.1330 -0.4606  0.3275
   69CHL1   H2A 6260   5.773   6.408   2.535 -1.6463  1.9275  0.9957
   69CHL1   H2B 6261   5.597   6.370   2.551 -0.6913 -1.3452  2.0933
   69CHL1   C20 6262   5.664   6.158   3.529 -0.4777 -0.1542  0.2122
   69CHL1   H20 6263   5.554   6.157   3.512 -0.3645 -0.8471 -0.5259
   69CHL1   C21 6264   5.702   6.307   3.533 -0.3281  0.5369 -0.2397
   69CHL1  H21A 6265   5.664   6.354   3.440 -0.7939 -1.2485 -1.0068
   69CHL1  H21B 6266   5.813   6.312   3.542 -0.4728  0.2760  2.5028
   69CHL1  H21C 6267   5.655   6.350   3.623  2.0375 -1.8684  2.3691
   69CHL1   C22 6268   5.701   6.086   3.658  0.5204 -0.7958 -0.1229
   69CHL1  H22A 6269   5.667   5.980   3.650 -2.2702 -0.0008  0.0530
   69CHL1  H22B 6270   5.811   6.095   3.661  0.4367  0.2648  0.1100
   69CHL1   C23 6271   5.658   6.160   3.785 -0.2885  0.2926 -0.3123
   69CHL1  H23A 6272   5.732   6.242   3.801 -2.1908  1.9649  0.3283
   69CHL1  H23B 6273   5.554   6.189   3.757  0.2705 -0.2515 -3.2424
   69CHL1   C24 6274   5.655   6.071   3.909  0.1177  0.5629  0.9665
   69CHL1  H24A 6275   5.589   5.988   3.876 -1.1562  2.4344 -1.5599
   69CHL1  H24B 6276   5.755   6.027   3.928 -0.9042 -2.9295 -0.8093
   69CHL1   C25 6277   5.602   6.138   4.036 -0.3430  0.3989 -0.6037
   69CHL1   H25 6278   5.670   6.222   4.060  0.5966 -0.5873  0.3303
   69CHL1   C26 6279   5.461   6.195   4.035  0.0752 -0.0164 -0.5238
   69CHL1  H26A 6280   5.442   6.279   3.964  0.6691  2.3339  1.9029
   69CHL1  H26B 6281   5.388   6.116   4.006 -0.5466 -0.0262  1.0024
   69CHL1  H26C 6282   5.448   6.233   4.138  3.0201  0.1785 -0.1459
   69CHL1   C27 6283   5.620   6.039   4.156 -0.4162  0.1592  0.6993
   69CHL1  H27A 6284   5.619   6.095   4.253 -3.3170 -0.0994  0.9072
   69CHL1  H27B 6285   5.553   5.951   4.161  0.0657 -0.2188  0.4896
   69CHL1  H27C 6286   5.720   5.992   4.154  1.2201  3.3287 -2.0548
   70CHL1    C3 6287   2.692   2.975   2.408  0.3623  0.3872  0.0549
   70CHL1    H3 6288   2.612   3.044   2.442  1.2423 -0.1755  3.6758
   70CHL1    O3 6289   2.708   2.981   2.267  0.0554  0.5550 -0.5222
   70CHL1   H3' 6290   2.757   3.063   2.256  0.7538  0.3961  1.0330
   70CHL1    C4 6291   2.816   3.013   2.471 -0.6644  0.0277  0.0501
   70CHL1   H4A 6292   2.902   2.950   2.439  0.1456 -0.2044  2.4521
   70CHL1   H4B 6293   2.846   3.114   2.435  1.1850 -0.0027  1.3384
   70CHL1    C5 6294   2.810   3.013   2.620  0.2678 -0.7598  0.0991
   70CHL1    C6 6295   2.824   3.133   2.685 -0.2519 -0.1856 -0.3257
   70CHL1    H6 6296   2.862   3.219   2.629  0.1532 -0.1060  0.0600
   70CHL1    C7 6297   2.822   3.150   2.842  0.7504  0.3575  0.1800
   70CHL1   H7A 6298   2.910   3.210   2.873  1.8334  0.9412 -3.4699
   70CHL1   H7B 6299   2.732   3.211   2.861 -0.4301 -0.2313 -2.9465
   70CHL1    C8 6300   2.816   3.006   2.912 -0.3679  0.2657  0.1847
   70CHL1    H8 6301   2.913   2.953   2.900 -0.5620  0.4674 -2.9977
   70CHL1   C14 6302   2.778   3.028   3.062 -0.1791  0.2169 -0.5091
   70CHL1   H14 6303   2.673   3.064   3.060  0.3646  1.8569 -0.9337
   70CHL1   C15 6304   2.847   3.134   3.154 -0.0503  0.1011  0.0732
   70CHL1  H15A 6305   2.956   3.120   3.144 -0.3768 -3.3192  0.0088
   70CHL1  H15B 6306   2.807   3.234   3.126 -1.4179 -0.7476 -1.1676
   70CHL1   C16 6307   2.802   3.094   3.296 -0.4295  0.4145 -0.2836
   70CHL1  H16A 6308   2.893   3.089   3.360 -1.0522 -0.5897  0.5387
   70CHL1  H16B 6309   2.731   3.168   3.338  0.5054  1.2267 -0.0867
   70CHL1   C17 6310   2.733   2.954   3.281 -0.0668 -0.3044 -0.1759
   70CHL1   H17 6311   2.623   2.971   3.280  0.1740  1.4898  0.3050
   70CHL1   C13 6312   2.767   2.899   3.139 -0.0612 -0.7832  1.3194
   70CHL1   C18 6313   2.902   2.828   3.139  0.5175 -0.1255 -0.0924
   70CHL1  H18A 6314   2.973   2.904   3.177 -0.1605  0.6256 -0.3135
   70CHL1  H18B 6315   2.895   2.738   3.204  2.5184  2.3693  4.0410
   70CHL1  H18C 6316   2.943   2.800   3.040 -0.0593 -0.5674 -0.2087
   70CHL1   C12 6317   2.656   2.808   3.073  0.0154  0.5288 -0.3643
   70CHL1  H12A 6318   2.642   2.713   3.128  1.4603 -0.4814 -1.6537
   70CHL1  H12B 6319   2.559   2.862   3.072 -1.1119 -1.4051 -1.5720
   70CHL1   C11 6320   2.689   2.787   2.923  0.7284  0.6281  0.2887
   70CHL1  H11A 6321   2.766   2.708   2.914 -0.6358 -0.6472 -0.6582
   70CHL1  H11B 6322   2.595   2.745   2.884 -0.3728  2.1960  1.1368
   70CHL1    C9 6323   2.719   2.911   2.842  0.4591  0.1430  0.2981
   70CHL1    H9 6324   2.625   2.970   2.842 -1.7685 -3.1303 -0.6995
   70CHL1   C10 6325   2.755   2.889   2.691  0.5885 -1.1225 -0.1104
   70CHL1   C19 6326   2.865   2.778   2.680 -0.5242  0.3590  0.1637
   70CHL1  H19A 6327   2.963   2.825   2.701 -0.4817  1.1861 -1.6553
   70CHL1  H19B 6328   2.845   2.693   2.748 -2.0706 -0.5005 -1.2733
   70CHL1  H19C 6329   2.876   2.749   2.573 -0.8781  0.1209  0.1904
   70CHL1    C1 6330   2.628   2.840   2.613 -0.6125  0.1846 -0.2844
   70CHL1   H1A 6331   2.606   2.740   2.657  1.1940  1.6180  4.4722
   70CHL1   H1B 6332   2.537   2.897   2.640 -1.1416  0.1088 -1.7954
   70CHL1    C2 6333   2.644   2.835   2.460 -0.0927  0.9511  0.4132
   70CHL1   H2A 6334   2.556   2.787   2.413  0.6585 -2.9380  2.5444
   70CHL1   H2B 6335   2.733   2.770   2.441 -1.1735 -0.1327 -1.2620
   70CHL1   C20 6336   2.775   2.867   3.402 -0.3150  0.4327  0.2281
   70CHL1   H20 6337   2.885   2.857   3.404 -0.4664 -1.4914  1.2988
   70CHL1   C21 6338   2.717   2.720   3.403 -0.2029  0.3919 -0.5086
   70CHL1  H21A 6339   2.771   2.661   3.481 -1.4507 -0.6739 -0.4181
   70CHL1  H21B 6340   2.724   2.664   3.308 -0.1289  1.3055 -1.0487
   70CHL1  H21C 6341   2.608   2.721   3.421 -0.6599 -2.2108 -2.6528
   70CHL1   C22 6342   2.746   2.937   3.532 -0.0742 -0.0488  0.0543
   70CHL1  H22A 6343   2.755   3.048   3.542  2.2548 -0.2712  0.9853
   70CHL1  H22B 6344   2.638   2.919   3.551 -0.4591  0.1088 -1.8187
   70CHL1   C23 6345   2.838   2.896   3.648 -0.6769  0.9099 -0.1716
   70CHL1  H23A 6346   2.846   2.785   3.659  0.2667  1.0135  0.2336
   70CHL1  H23B 6347   2.939   2.924   3.612 -0.5112  0.0186 -0.4420
   70CHL1   C24 6348   2.808   2.954   3.792 -0.7526  0.5949 -0.3173
   70CHL1  H24A 6349   2.822   3.064   3.806  0.8900  0.2280  1.3120
   70CHL1  H24B 6350   2.699   2.936   3.809 -0.4262 -0.9591  0.2358
   70CHL1   C25 6351   2.892   2.896   3.901 -0.6532  0.7335 -0.2443
   70CHL1   H25 6352   2.894   2.785   3.898 -0.5901  0.6899  0.8513
   70CHL1   C26 6353   3.039   2.938   3.892  0.1704  0.2893 -0.2417
   70CHL1  H26A 6354   3.072   2.904   3.792 -1.7296 -2.3700 -0.1010
   70CHL1  H26B 6355   3.037   3.045   3.922 -0.9959  0.0147  0.7998
   70CHL1  H26C 6356   3.102   2.877   3.961  0.8497  1.3780  0.1213
   70CHL1   C27 6357   2.832   2.926   4.036  0.3406  0.1143 -0.7612
   70CHL1  H27A 6358   2.828   3.033   4.063  1.4474 -0.5252  2.4046
   70CHL1  H27B 6359   2.728   2.889   4.049 -1.0648  3.8590 -0.0298
   70CHL1  H27C 6360   2.894   2.876   4.114  0.6014  1.8202  0.1720
   71CHL1    C3 6361   6.846   0.032   2.328 -0.4120  1.3905  0.4338
   71CHL1    H3 6362   6.754  -0.024   2.350 -0.0575  1.1112  1.2429
   71CHL1    O3 6363   6.862   0.051   2.185 -0.3408 -0.1022  0.5771
   71CHL1   H3' 6364   6.943   0.099   2.164  0.4187 -1.8099 -0.6207
   71CHL1    C4 6365   6.834   0.172   2.404  0.5460  0.8412  0.2943
   71CHL1   H4A 6366   6.923   0.228   2.369  0.0820  1.5931  0.3069
   71CHL1   H4B 6367   6.749   0.231   2.366 -0.6613 -0.7234  0.4561
   71CHL1    C5 6368   6.829   0.152   2.560 -0.4365 -0.4402  0.3727
   71CHL1    C6 6369   6.722   0.203   2.625 -0.8172  0.1249  0.5781
   71CHL1    H6 6370   6.645   0.264   2.577 -1.7332  0.4025  2.3269
   71CHL1    C7 6371   6.710   0.189   2.774 -0.8105  0.0819  0.3596
   71CHL1   H7A 6372   6.691   0.289   2.818  1.5815  0.2374  1.1840
   71CHL1   H7B 6373   6.623   0.125   2.798  0.3393 -1.2969  1.0512
   71CHL1    C8 6374   6.839   0.130   2.850  0.3430  1.0525 -0.1332
   71CHL1    H8 6375   6.908   0.216   2.856  1.1616  0.4821 -1.0232
   71CHL1   C14 6376   6.798   0.071   2.988  0.4346 -0.2824 -0.5099
   71CHL1   H14 6377   6.737  -0.017   2.959  2.4192 -2.5313  1.6348
   71CHL1   C15 6378   6.744   0.168   3.094  0.0131  0.1232 -0.1964
   71CHL1  H15A 6379   6.793   0.267   3.080  0.8433 -0.2730 -0.1250
   71CHL1  H15B 6380   6.634   0.182   3.080  0.2433  0.9830 -1.3134
   71CHL1   C16 6381   6.766   0.095   3.224  0.3083  0.1420  0.5015
   71CHL1  H16A 6382   6.834   0.142   3.297  1.1317 -0.4424  0.1251
   71CHL1  H16B 6383   6.669   0.075   3.275 -0.2390 -0.0676 -0.5794
   71CHL1   C17 6384   6.845  -0.039   3.188  1.0204  0.0126  0.8478
   71CHL1   H17 6385   6.770  -0.116   3.158  2.1875 -1.6856  2.1010
   71CHL1   C13 6386   6.919  -0.003   3.060  0.5375  0.3251  0.0190
   71CHL1   C18 6387   7.034   0.100   3.089  0.7689 -0.5911  0.1855
   71CHL1  H18A 6388   7.063   0.166   3.004 -1.3688 -2.2775 -1.9840
   71CHL1  H18B 6389   7.009   0.169   3.173 -0.4515 -2.9730  1.9017
   71CHL1  H18C 6390   7.123   0.040   3.118 -0.0390 -1.4009  1.0735
   71CHL1   C12 6391   6.959  -0.125   2.977 -0.5360 -0.2238  0.7377
   71CHL1  H12A 6392   7.045  -0.181   3.021 -0.9313 -1.9641 -0.5976
   71CHL1  H12B 6393   6.879  -0.198   2.950 -1.2642 -0.0584  2.3075
   71CHL1   C11 6394   7.005  -0.058   2.842 -0.1468 -0.0837 -0.0081
   71CHL1  H11A 6395   7.098   0.001   2.859 -0.0107 -0.3407  0.1588
   71CHL1  H11B 6396   7.048  -0.137   2.775 -0.7814  2.2568 -3.4311
   71CHL1    C9 6397   6.897   0.018   2.766 -1.1217 -0.0269 -0.5797
   71CHL1    H9 6398   6.815  -0.056   2.748  0.0547 -1.1411 -1.5613
   71CHL1   C10 6399   6.938   0.064   2.623  0.3694 -0.0008 -0.8053
   71CHL1   C19 6400   7.073   0.130   2.623 -0.2341 -0.1163  0.2621
   71CHL1  H19A 6401   7.157   0.059   2.636  1.8839  2.5226  2.2533
   71CHL1  H19B 6402   7.096   0.179   2.526 -1.1636  0.0821  0.1331
   71CHL1  H19C 6403   7.094   0.196   2.710 -1.5432 -0.8208  1.1412
   71CHL1    C1 6404   6.956  -0.066   2.533 -0.3904 -0.4561 -0.1739
   71CHL1   H1A 6405   7.051  -0.116   2.560 -0.7063 -0.8139  0.2873
   71CHL1   H1B 6406   6.870  -0.136   2.535  0.5075 -1.7570 -2.7033
   71CHL1    C2 6407   6.971  -0.044   2.382  0.1647 -0.1085 -0.1611
   71CHL1   H2A 6408   6.987  -0.131   2.315  2.3519  0.4728 -0.4887
   71CHL1   H2B 6409   7.056   0.025   2.360  0.8256  0.6073  3.9358
   71CHL1   C20 6410   6.923  -0.100   3.305  0.2523  0.4840 -0.0341
   71CHL1   H20 6411   7.008  -0.033   3.331  0.6229 -0.0180  0.0706
   71CHL1   C21 6412   6.986  -0.239   3.288  0.4046  0.7308  0.1437
   71CHL1  H21A 6413   7.074  -0.241   3.222  0.3972 -1.5569  0.1116
   71CHL1  H21B 6414   6.908  -0.312   3.256 -0.1754  0.7748  1.3721
   71CHL1  H21C 6415   7.024  -0.267   3.389  0.9035 -1.5347 -0.6049
   71CHL1   C22 6416   6.844  -0.102   3.437 -0.7480  1.2652 -0.0739
   71CHL1  H22A 6417   6.755  -0.037   3.448 -1.6802  0.2348 -1.1624
   71CHL1  H22B 6418   6.797  -0.203   3.430 -1.4727  1.5492  0.6572
   71CHL1   C23 6419   6.935  -0.094   3.558  0.0421 -0.0021  0.7660
   71CHL1  H23A 6420   7.018  -0.167   3.557  0.5611  0.4508 -2.9788
   71CHL1  H23B 6421   6.976   0.009   3.552 -0.8252  0.2765 -3.4214
   71CHL1   C24 6422   6.856  -0.105   3.688 -0.1962  0.1877  0.3801
   71CHL1  H24A 6423   6.782  -0.024   3.704  0.6997  0.4967  3.8481
   71CHL1  H24B 6424   6.816  -0.208   3.694 -0.7005  0.2495 -1.3833
   71CHL1   C25 6425   6.942  -0.097   3.822 -0.2900  0.2396 -0.6479
   71CHL1   H25 6426   7.032  -0.157   3.797 -0.8485 -0.9589  0.0980
   71CHL1   C26 6427   6.984   0.048   3.850 -0.1488 -0.5951  0.3228
   71CHL1  H26A 6428   7.027   0.099   3.761 -1.8292  1.8805  0.8408
   71CHL1  H26B 6429   6.903   0.107   3.898 -1.1893 -1.0819 -0.7777
   71CHL1  H26C 6430   7.072   0.043   3.918  1.8984 -1.8256 -2.2319
   71CHL1   C27 6431   6.868  -0.176   3.936  1.0657  0.9321  0.0084
   71CHL1  H27A 6432   6.934  -0.185   4.025  0.6692  1.2982  0.3457
   71CHL1  H27B 6433   6.778  -0.117   3.963 -0.0223 -0.6541 -0.0096
   71CHL1  H27C 6434   6.834  -0.273   3.894 -0.5366  1.2563  0.4916
   72CHL1    C3 6435   5.104   4.861   2.594 -0.6590 -0.5699  0.1452
   72CHL1    H3 6436   5.034   4.933   2.641 -0.9984 -1.6335  1.3545
   72CHL1    O3 6437   5.067   4.857   2.462 -0.0716 -0.1589  0.8156
   72CHL1   H3' 6438   5.086   4.767   2.432 -0.4130  0.1625 -0.3979
   72CHL1    C4 6439   5.244   4.920   2.610  0.4890  0.0245 -0.1964
   72CHL1   H4A 6440   5.312   4.859   2.546 -0.3161 -0.9881 -0.1126
   72CHL1   H4B 6441   5.246   5.024   2.571  3.8118  0.4491  0.7862
   72CHL1    C5 6442   5.291   4.932   2.753 -1.0405 -0.1250 -0.2853
   72CHL1    C6 6443   5.326   5.050   2.805  0.0011 -0.0326 -0.1644
   72CHL1    H6 6444   5.336   5.144   2.748  3.2459  0.1345  0.4533
   72CHL1    C7 6445   5.381   5.065   2.945  0.6011  0.2901 -0.4132
   72CHL1   H7A 6446   5.462   5.139   2.958  0.0438  0.8539 -0.1076
   72CHL1   H7B 6447   5.298   5.102   3.008 -0.8250 -0.9458 -1.4707
   72CHL1    C8 6448   5.407   4.932   3.015 -0.0307  0.0688  0.0351
   72CHL1    H8 6449   5.504   4.886   2.987  0.4578  0.6952  0.6609
   72CHL1   C14 6450   5.422   4.954   3.165  0.2985  0.7654  0.8966
   72CHL1   H14 6451   5.323   4.992   3.195  0.6868  2.0898  0.5588
   72CHL1   C15 6452   5.525   5.059   3.210 -0.1686 -0.8839  0.0320
   72CHL1  H15A 6453   5.615   5.048   3.147 -0.2121  0.5156 -0.3223
   72CHL1  H15B 6454   5.487   5.164   3.202  1.1727 -0.4084 -0.4212
   72CHL1   C16 6455   5.548   5.014   3.353 -0.3498  0.7675 -0.5503
   72CHL1  H16A 6456   5.655   4.990   3.373  0.2573  3.6367  0.1736
   72CHL1  H16B 6457   5.523   5.089   3.431  0.1001  2.1865 -1.7119
   72CHL1   C17 6458   5.457   4.891   3.381  0.0160 -0.1026  0.1947
   72CHL1   H17 6459   5.356   4.931   3.403 -0.8780 -1.4702 -1.2602
   72CHL1   C13 6460   5.440   4.820   3.246  0.2520  0.3064  0.8577
   72CHL1   C18 6461   5.572   4.746   3.210 -0.6660 -0.2165 -0.6779
   72CHL1  H18A 6462   5.592   4.661   3.279  0.4999  0.8575  0.3409
   72CHL1  H18B 6463   5.578   4.707   3.106  2.1027  1.9897 -1.4536
   72CHL1  H18C 6464   5.661   4.812   3.212 -1.0102  0.2688  1.0497
   72CHL1   C12 6465   5.311   4.737   3.232 -0.2869 -0.1393  0.0949
   72CHL1  H12A 6466   5.313   4.646   3.295  2.8873 -0.5827 -0.4736
   72CHL1  H12B 6467   5.222   4.789   3.275  0.7407  0.9068  1.0166
   72CHL1   C11 6468   5.302   4.705   3.077 -0.4819 -0.2479  0.0882
   72CHL1  H11A 6469   5.395   4.653   3.045 -1.0782 -2.5901  1.8957
   72CHL1  H11B 6470   5.222   4.632   3.053 -0.1462 -0.6528  0.1750
   72CHL1    C9 6471   5.292   4.833   2.983  0.3209 -0.3907 -0.2584
   72CHL1    H9 6472   5.195   4.881   3.007  1.0136  0.5105  0.8416
   72CHL1   C10 6473   5.279   4.796   2.832 -0.6975 -0.1968  0.3442
   72CHL1   C19 6474   5.396   4.700   2.788 -0.0311  0.4253 -0.0081
   72CHL1  H19A 6475   5.393   4.680   2.679 -0.2937 -1.2178  0.2688
   72CHL1  H19B 6476   5.490   4.735   2.834  0.5035 -0.9522 -0.0159
   72CHL1  H19C 6477   5.376   4.598   2.828 -0.8924 -0.1111 -1.6649
   72CHL1    C1 6478   5.139   4.731   2.803  0.1160  0.1039 -0.9351
   72CHL1   H1A 6479   5.136   4.629   2.848  1.8583  0.1303 -0.6989
   72CHL1   H1B 6480   5.059   4.793   2.850  0.2102 -0.4852  0.0374
   72CHL1    C2 6481   5.094   4.718   2.657 -0.8691  0.6011 -0.4729
   72CHL1   H2A 6482   4.986   4.692   2.666 -1.2627  1.1044 -3.0172
   72CHL1   H2B 6483   5.154   4.641   2.605  1.2265 -0.5280  3.2358
   72CHL1   C20 6484   5.490   4.799   3.505 -0.0555 -0.2995 -0.5858
   72CHL1   H20 6485   5.458   4.698   3.473 -0.1293 -0.0770 -1.2340
   72CHL1   C21 6486   5.405   4.849   3.624  0.4446 -0.0436 -0.0755
   72CHL1  H21A 6487   5.429   4.787   3.713  0.9309 -1.6328 -1.2542
   72CHL1  H21B 6488   5.296   4.840   3.603  0.4242 -0.7127  0.2647
   72CHL1  H21C 6489   5.426   4.956   3.645 -0.5485  0.0659  0.4222
   72CHL1   C22 6490   5.646   4.792   3.539  0.5292  0.2430 -0.1137
   72CHL1  H22A 6491   5.706   4.774   3.448  0.8218 -0.5028  0.2156
   72CHL1  H22B 6492   5.674   4.895   3.569 -2.2743  1.0552  0.0350
   72CHL1   C23 6493   5.655   4.692   3.654 -0.0961  0.0261  1.2301
   72CHL1  H23A 6494   5.607   4.730   3.747  1.6800  2.4461  1.2498
   72CHL1  H23B 6495   5.614   4.599   3.609  1.5551  0.8442 -2.3408
   72CHL1   C24 6496   5.807   4.674   3.682 -0.3340 -0.2534  0.3280
   72CHL1  H24A 6497   5.842   4.635   3.584 -0.2795 -0.6542  0.5061
   72CHL1  H24B 6498   5.843   4.778   3.698 -2.3471  0.5815 -0.2146
   72CHL1   C25 6499   5.847   4.588   3.798 -0.0021 -0.0857  0.2132
   72CHL1   H25 6500   5.956   4.589   3.816 -0.1937  0.6923  1.4386
   72CHL1   C26 6501   5.799   4.647   3.930  0.0662 -0.3125 -0.1751
   72CHL1  H26A 6502   5.690   4.643   3.951 -0.1244  1.1674 -0.7619
   72CHL1  H26B 6503   5.842   4.586   4.013 -0.3212 -0.9100 -0.4004
   72CHL1  H26C 6504   5.844   4.748   3.943 -0.1524 -0.0568 -1.2960
   72CHL1   C27 6505   5.810   4.447   3.782 -0.6956  0.9524  0.2003
   72CHL1  H27A 6506   5.873   4.411   3.698  1.0205  0.2273  1.7282
   72CHL1  H27B 6507   5.841   4.379   3.864  1.7662 -0.2002 -1.5675
   72CHL1  H27C 6508   5.703   4.428   3.759 -0.4540 -1.5524  0.9595
   73CHL1    C3 6509   0.839   6.115   2.416  0.0673 -0.9429  1.3117
   73CHL1    H3 6510   0.942   6.107   2.458  0.3674 -1.5565  0.4904
   73CHL1    O3 6511   0.839   6.120   2.271 -0.1010 -0.0686 -0.2699
   73CHL1   H3' 6512   0.821   6.029   2.246  2.7274 -0.9643  0.5543
   73CHL1    C4 6513   0.755   5.996   2.472 -0.1343 -0.4760  0.8586
   73CHL1   H4A 6514   0.651   6.008   2.436 -0.4462  1.6234  2.3097
   73CHL1   H4B 6515   0.794   5.897   2.439 -0.3693 -0.5175  0.7092
   73CHL1    C5 6516   0.748   5.985   2.617 -0.3534  0.0903 -0.4083
   73CHL1    C6 6517   0.782   5.872   2.681  0.2767 -0.7528  0.2544
   73CHL1    H6 6518   0.816   5.782   2.628 -1.8575 -1.2006 -0.4547
   73CHL1    C7 6519   0.786   5.865   2.827 -0.4638 -0.2516 -0.5856
   73CHL1   H7A 6520   0.757   5.763   2.861 -0.4444 -0.4509 -1.1633
   73CHL1   H7B 6521   0.896   5.874   2.844 -0.3079 -1.4319 -0.9000
   73CHL1    C8 6522   0.696   5.967   2.896  0.0216  0.3991 -0.2486
   73CHL1    H8 6523   0.590   5.941   2.875  0.0834 -0.2949  0.2746
   73CHL1   C14 6524   0.711   5.962   3.055  0.0844  0.3973 -0.4521
   73CHL1   H14 6525   0.820   5.971   3.076  0.5691 -2.5762 -1.2745
   73CHL1   C15 6526   0.672   5.828   3.118 -0.2824  0.7070  0.0263
   73CHL1  H15A 6527   0.576   5.802   3.068  0.4205  2.0890 -2.2178
   73CHL1  H15B 6528   0.747   5.748   3.099 -0.5057  0.4040  0.3924
   73CHL1   C16 6529   0.668   5.868   3.265 -0.3551 -0.5200  0.3891
   73CHL1  H16A 6530   0.580   5.820   3.312 -2.5752  0.5483 -2.3526
   73CHL1  H16B 6531   0.764   5.828   3.304  0.5838  0.8179 -0.4733
   73CHL1   C17 6532   0.676   6.023   3.272  0.4480  0.5257 -0.5437
   73CHL1   H17 6533   0.784   6.046   3.281  0.3836  0.1463  2.2959
   73CHL1   C13 6534   0.638   6.072   3.132 -0.0460 -0.2122 -0.7190
   73CHL1   C18 6535   0.484   6.057   3.117  0.6483 -0.2094 -0.4444
   73CHL1  H18A 6536   0.426   6.140   3.164  1.0288  0.1869 -0.6602
   73CHL1  H18B 6537   0.459   6.056   3.009  0.1354 -2.5254 -0.3560
   73CHL1  H18C 6538   0.456   5.959   3.160  0.5072 -1.1669 -2.5870
   73CHL1   C12 6539   0.687   6.206   3.086  0.3740 -0.0803 -0.0103
   73CHL1  H12A 6540   0.623   6.274   3.147  1.0342  1.5813 -1.0893
   73CHL1  H12B 6541   0.796   6.209   3.109  0.1352 -1.4782  1.4951
   73CHL1   C11 6542   0.666   6.217   2.926  0.0084 -0.0763 -0.9221
   73CHL1  H11A 6543   0.559   6.241   2.909 -0.4398 -0.1537  1.5689
   73CHL1  H11B 6544   0.732   6.304   2.905  0.8236 -0.0984  1.2882
   73CHL1    C9 6545   0.728   6.105   2.836  0.0475 -0.0826  0.5317
   73CHL1    H9 6546   0.835   6.111   2.864 -0.0821  0.1142  0.9977
   73CHL1   C10 6547   0.707   6.116   2.686  0.3355  0.2206 -0.4092
   73CHL1   C19 6548   0.553   6.129   2.654 -0.0502 -0.5353  0.5370
   73CHL1  H19A 6549   0.515   6.218   2.710  0.0000 -0.0295 -0.2250
   73CHL1  H19B 6550   0.540   6.155   2.547 -1.0163 -0.9738  0.5379
   73CHL1  H19C 6551   0.497   6.038   2.683 -1.0662  0.4538  1.8644
   73CHL1    C1 6552   0.782   6.231   2.630  0.9956 -0.2134  0.3752
   73CHL1   H1A 6553   0.742   6.325   2.673  1.6202  0.5870 -0.7315
   73CHL1   H1B 6554   0.892   6.224   2.649  1.0296  2.4288  1.6287
   73CHL1    C2 6555   0.781   6.245   2.472  0.1059 -0.6065  0.3461
   73CHL1   H2A 6556   0.842   6.333   2.442 -0.7056 -0.3788 -0.6965
   73CHL1   H2B 6557   0.682   6.269   2.428  0.4012 -1.0596 -0.6049
   73CHL1   C20 6558   0.615   6.081   3.401  0.5181  0.5008 -0.6511
   73CHL1   H20 6559   0.509   6.046   3.410  0.9226 -0.4307  0.9027
   73CHL1   C21 6560   0.615   6.230   3.403 -0.2658  0.0035 -0.2496
   73CHL1  H21A 6561   0.535   6.275   3.340 -2.1529 -3.3883 -0.5288
   73CHL1  H21B 6562   0.710   6.283   3.379  0.2517  0.2656  2.1252
   73CHL1  H21C 6563   0.583   6.271   3.501 -1.3267 -2.2632  0.4269
   73CHL1   C22 6564   0.676   6.021   3.531  0.4747 -0.9181 -1.1614
   73CHL1  H22A 6565   0.680   5.910   3.526  0.5019 -1.0291  0.6649
   73CHL1  H22B 6566   0.776   6.063   3.558 -0.6016  1.4032 -0.5828
   73CHL1   C23 6567   0.597   6.053   3.663  0.2293 -0.3916 -0.3018
   73CHL1  H23A 6568   0.612   6.161   3.682  3.8143 -1.2087  2.8236
   73CHL1  H23B 6569   0.487   6.045   3.651 -0.5369  3.0875  2.6006
   73CHL1   C24 6570   0.659   5.975   3.780 -0.1230  0.4299  0.0931
   73CHL1  H24A 6571   0.651   5.867   3.753 -1.8084 -0.2075  2.7407
   73CHL1  H24B 6572   0.768   5.993   3.784  0.3902 -2.1297 -0.6403
   73CHL1   C25 6573   0.602   5.996   3.922 -0.2948 -1.1780 -0.3054
   73CHL1   H25 6574   0.596   6.104   3.947  0.9641 -0.8939 -1.1348
   73CHL1   C26 6575   0.458   5.931   3.939  0.5739  0.0608 -0.0209
   73CHL1  H26A 6576   0.441   5.826   3.908 -1.9824 -0.0755  1.4900
   73CHL1  H26B 6577   0.427   5.941   4.046 -2.7600 -1.2606 -0.7419
   73CHL1  H26C 6578   0.386   5.997   3.884 -0.3563 -0.4846  0.5096
   73CHL1   C27 6579   0.695   5.935   4.024  0.0506  0.4803 -0.2639
   73CHL1  H27A 6580   0.796   5.981   4.021  0.6783 -0.9038 -1.5481
   73CHL1  H27B 6581   0.653   5.954   4.125  1.2461  0.3674  0.2714
   73CHL1  H27C 6582   0.696   5.827   3.998  0.0717  0.4551 -0.1598
   74CHL1    C3 6583   0.393   5.178   2.917 -0.4642  0.4008  0.3166
   74CHL1    H3 6584   0.361   5.082   2.963 -1.4440  1.0240  0.9720
   74CHL1    O3 6585   0.344   5.195   2.784  0.1071 -0.2315 -0.4617
   74CHL1   H3' 6586   0.364   5.283   2.752 -0.0821 -0.2174 -0.5438
   74CHL1    C4 6587   0.335   5.289   3.007  0.6490 -0.4971  0.6887
   74CHL1   H4A 6588   0.352   5.381   2.948 -0.6612 -1.5564 -1.4664
   74CHL1   H4B 6589   0.224   5.285   3.011  0.6268 -0.3792  0.2362
   74CHL1    C5 6590   0.398   5.302   3.147 -0.2096 -0.3795 -0.0506
   74CHL1    C6 6591   0.325   5.278   3.259 -0.5497 -0.2608  0.4152
   74CHL1    H6 6592   0.217   5.260   3.249 -0.5359  0.2035 -0.7084
   74CHL1    C7 6593   0.366   5.287   3.403  0.2502 -0.2215 -0.0393
   74CHL1   H7A 6594   0.294   5.331   3.476 -0.6672 -2.3695  0.4325
   74CHL1   H7B 6595   0.389   5.191   3.453  1.1770  0.9723  1.9716
   74CHL1    C8 6596   0.510   5.352   3.396  1.1199 -0.4358  0.4478
   74CHL1    H8 6597   0.502   5.460   3.369  2.3146 -0.6922 -1.0281
   74CHL1   C14 6598   0.567   5.335   3.537  0.5776  0.8306  0.1020
   74CHL1   H14 6599   0.564   5.225   3.555 -1.1357  0.6218 -1.2338
   74CHL1   C15 6600   0.479   5.403   3.660  0.5406  0.0037  0.7005
   74CHL1  H15A 6601   0.432   5.502   3.638  0.4622  0.0111  0.9004
   74CHL1  H15B 6602   0.401   5.327   3.683  1.2937 -1.2579 -0.7444
   74CHL1   C16 6603   0.578   5.429   3.772  0.3156  0.2432  0.3442
   74CHL1  H16A 6604   0.577   5.534   3.807 -0.5460  0.7449 -1.1090
   74CHL1  H16B 6605   0.561   5.370   3.864 -3.8725  0.6627  0.0254
   74CHL1   C17 6606   0.716   5.381   3.714  0.8404 -0.1587  0.2923
   74CHL1   H17 6607   0.724   5.271   3.722 -0.8841 -0.2910  0.5582
   74CHL1   C13 6608   0.707   5.388   3.556  0.0957 -0.4924  0.0365
   74CHL1   C18 6609   0.717   5.535   3.530  0.4954 -0.2802  0.6709
   74CHL1  H18A 6610   0.656   5.601   3.596 -1.0856  0.1697 -1.1456
   74CHL1  H18B 6611   0.822   5.571   3.543  0.5898 -0.1860 -0.2604
   74CHL1  H18C 6612   0.693   5.561   3.425  1.6161 -0.0387  0.4591
   74CHL1   C12 6613   0.798   5.314   3.463  0.4104  0.1239  0.3119
   74CHL1  H12A 6614   0.904   5.343   3.477  0.6552 -0.5085 -0.1667
   74CHL1  H12B 6615   0.790   5.205   3.486  0.4293 -0.0068 -0.3007
   74CHL1   C11 6616   0.755   5.324   3.315 -0.3621 -0.0772 -0.3349
   74CHL1  H11A 6617   0.783   5.429   3.292  1.0050 -0.3787 -0.1569
   74CHL1  H11B 6618   0.829   5.251   3.275  0.7438  0.0041  1.4164
   74CHL1    C9 6619   0.605   5.289   3.299  0.7891 -0.0235  0.3235
   74CHL1    H9 6620   0.588   5.181   3.322 -0.8830  0.3115  0.7752
   74CHL1   C10 6621   0.553   5.315   3.154  0.1228  0.8281 -0.6456
   74CHL1   C19 6622   0.597   5.450   3.100  0.2069  0.3228  0.7436
   74CHL1  H19A 6623   0.573   5.467   2.993  0.5159  1.3502  0.8280
   74CHL1  H19B 6624   0.565   5.536   3.163  0.8798  0.7072  0.5696
   74CHL1  H19C 6625   0.708   5.447   3.100  0.2465  0.5784 -1.0928
   74CHL1    C1 6626   0.603   5.197   3.064 -0.0484  0.8182 -0.1973
   74CHL1   H1A 6627   0.713   5.197   3.057 -0.0654 -1.8123 -3.1444
   74CHL1   H1B 6628   0.572   5.104   3.118 -0.7209  1.1726  0.0353
   74CHL1    C2 6629   0.553   5.199   2.922  0.4885 -0.0503  1.1116
   74CHL1   H2A 6630   0.606   5.123   2.861 -2.0366 -0.2679 -0.9645
   74CHL1   H2B 6631   0.569   5.301   2.881 -1.4415 -0.1015  0.1307
   74CHL1   C20 6632   0.835   5.437   3.777 -0.5884 -0.8848  0.0876
   74CHL1   H20 6633   0.853   5.543   3.749  1.5267 -0.8498  1.3724
   74CHL1   C21 6634   0.961   5.348   3.747  0.2541  0.3709 -0.9249
   74CHL1  H21A 6635   1.043   5.365   3.819  1.2218 -0.9229 -1.6674
   74CHL1  H21B 6636   1.002   5.376   3.648  1.2452  1.2948 -0.2701
   74CHL1  H21C 6637   0.930   5.241   3.746 -0.0140  0.4479 -1.3706
   74CHL1   C22 6638   0.821   5.443   3.933  0.5757  0.0116  0.3123
   74CHL1  H22A 6639   0.921   5.479   3.964  1.6622 -1.4621 -1.2932
   74CHL1  H22B 6640   0.742   5.516   3.960 -0.7342 -1.6118  1.1029
   74CHL1   C23 6641   0.794   5.312   4.006  0.6434  0.2915  0.2261
   74CHL1  H23A 6642   0.710   5.259   3.956 -0.3245  2.1126 -0.1286
   74CHL1  H23B 6643   0.883   5.246   3.991 -1.2927 -2.6035  0.5677
   74CHL1   C24 6644   0.758   5.336   4.154 -0.1846 -0.1662 -0.0662
   74CHL1  H24A 6645   0.831   5.394   4.215 -0.7519  0.2285  0.2465
   74CHL1  H24B 6646   0.666   5.398   4.148 -0.6564 -0.9299 -0.9636
   74CHL1   C25 6647   0.726   5.199   4.229  0.1013 -0.0883 -0.0827
   74CHL1   H25 6648   0.638   5.156   4.177 -0.5987  1.6864 -0.4299
   74CHL1   C26 6649   0.837   5.089   4.218  0.7717 -0.2982 -0.2218
   74CHL1  H26A 6650   0.921   5.117   4.285 -0.0857  0.1836  0.6964
   74CHL1  H26B 6651   0.795   5.006   4.279 -1.4679  0.6180 -0.4101
   74CHL1  H26C 6652   0.864   5.063   4.114  0.3078 -0.9000 -0.1941
   74CHL1   C27 6653   0.698   5.223   4.373  0.0091 -0.4080  0.6304
   74CHL1  H27A 6654   0.788   5.270   4.419  1.0606 -2.1382  0.4328
   74CHL1  H27B 6655   0.614   5.295   4.378 -0.5028 -0.7769 -1.5242
   74CHL1  H27C 6656   0.670   5.136   4.437  2.6417 -1.3325  0.6835
   75CHL1    C3 6657   1.180   6.328   2.331 -0.6016 -0.7517  0.1438
   75CHL1    H3 6658   1.082   6.276   2.333 -1.4177  0.7263  0.1583
   75CHL1    O3 6659   1.220   6.344   2.190 -0.4314 -0.0725 -0.0031
   75CHL1   H3' 6660   1.287   6.411   2.201 -1.2887  0.5050  2.4364
   75CHL1    C4 6661   1.164   6.465   2.395 -0.1628 -0.2752 -0.4056
   75CHL1   H4A 6662   1.258   6.524   2.385  1.6685 -3.1981 -1.9210
   75CHL1   H4B 6663   1.085   6.513   2.334 -1.2770 -1.2955  0.2065
   75CHL1    C5 6664   1.124   6.461   2.539  0.2276 -0.2151 -0.2028
   75CHL1    C6 6665   1.025   6.525   2.591 -0.2239 -0.2558 -0.4348
   75CHL1    H6 6666   0.963   6.587   2.524  0.5944 -0.7156 -1.6441
   75CHL1    C7 6667   0.985   6.537   2.735 -0.7015  0.2822 -0.3561
   75CHL1   H7A 6668   0.961   6.642   2.759  2.0819  0.5363  1.7747
   75CHL1   H7B 6669   0.899   6.468   2.746  0.3039 -0.9887 -0.1361
   75CHL1    C8 6670   1.098   6.474   2.826  0.7431 -0.2829  0.3760
   75CHL1    H8 6671   1.175   6.554   2.830  0.2101  0.2365  0.3164
   75CHL1   C14 6672   1.046   6.443   2.964 -0.1202 -0.0189 -0.7553
   75CHL1   H14 6673   0.973   6.363   2.939 -0.2796  0.3909 -1.6169
   75CHL1   C15 6674   0.969   6.553   3.048 -0.5819  0.3637 -0.5822
   75CHL1  H15A 6675   0.992   6.658   3.020 -1.8675  0.2837 -2.1031
   75CHL1  H15B 6676   0.861   6.548   3.023 -1.1914 -1.6461  2.0215
   75CHL1   C16 6677   0.999   6.524   3.195  0.2542  0.3159 -0.0239
   75CHL1  H16A 6678   1.058   6.605   3.243  1.8271 -0.7241 -0.1570
   75CHL1  H16B 6679   0.900   6.519   3.246 -0.7319 -0.8909 -1.9563
   75CHL1   C17 6680   1.079   6.394   3.190 -0.4450  0.4252 -0.5126
   75CHL1   H17 6681   1.002   6.314   3.180  0.6228 -0.7360  0.2544
   75CHL1   C13 6682   1.154   6.388   3.058 -0.3071 -0.4259  0.9074
   75CHL1   C18 6683   1.280   6.488   3.077  0.7302 -0.9605  0.5873
   75CHL1  H18A 6684   1.340   6.504   2.985  0.3180 -2.7746 -0.0401
   75CHL1  H18B 6685   1.252   6.584   3.125 -2.9690 -0.8294 -1.4741
   75CHL1  H18C 6686   1.355   6.450   3.150  0.9915 -1.6055 -0.0024
   75CHL1   C12 6687   1.194   6.253   3.006 -0.3578 -0.4961 -0.3375
   75CHL1  H12A 6688   1.261   6.204   3.080 -1.2414  0.1333  0.9216
   75CHL1  H12B 6689   1.104   6.189   2.994 -0.7536  0.2373 -1.3907
   75CHL1   C11 6690   1.251   6.271   2.863 -0.2957 -0.4177 -0.1830
   75CHL1  H11A 6691   1.353   6.316   2.867  0.8090 -2.6926 -1.3934
   75CHL1  H11B 6692   1.262   6.173   2.813  1.3568  0.5200 -1.7986
   75CHL1    C9 6693   1.165   6.354   2.763  0.0089  0.5664  0.2090
   75CHL1    H9 6694   1.082   6.281   2.751  1.0569 -0.4578 -1.0921
   75CHL1   C10 6695   1.231   6.386   2.625  0.3266  0.4212 -0.4022
   75CHL1   C19 6696   1.363   6.459   2.639  0.3941 -0.6109  0.5164
   75CHL1  H19A 6697   1.398   6.481   2.536 -2.8585 -0.6316 -0.7346
   75CHL1  H19B 6698   1.354   6.556   2.693  1.8625  0.1213 -0.4806
   75CHL1  H19C 6699   1.438   6.402   2.697  1.4259  1.2617  1.1104
   75CHL1    C1 6700   1.258   6.248   2.552  0.7374  0.3633 -0.3302
   75CHL1   H1A 6701   1.349   6.206   2.601  0.4712  0.2480  0.0676
   75CHL1   H1B 6702   1.178   6.176   2.577  2.9715 -2.0036  0.4090
   75CHL1    C2 6703   1.293   6.252   2.399  0.0667  0.1198  0.3789
   75CHL1   H2A 6704   1.326   6.153   2.362  2.4452  0.9390  0.1161
   75CHL1   H2B 6705   1.390   6.305   2.391 -0.6752  1.3679 -0.9538
   75CHL1   C20 6706   1.145   6.364   3.322  0.4600  0.2604 -0.4908
   75CHL1   H20 6707   1.217   6.444   3.351  2.0629 -1.6771  1.2212
   75CHL1   C21 6708   1.222   6.234   3.325  0.1166 -0.1020 -0.7124
   75CHL1  H21A 6709   1.321   6.237   3.275  1.5779 -1.4125  1.9346
   75CHL1  H21B 6710   1.165   6.148   3.284 -1.0782 -0.0840  0.8250
   75CHL1  H21C 6711   1.250   6.204   3.428  0.8788 -0.7545 -1.1070
   75CHL1   C22 6712   1.051   6.367   3.442  0.6830 -0.5111 -0.7633
   75CHL1  H22A 6713   1.000   6.465   3.431  1.4030 -0.2786 -2.4024
   75CHL1  H22B 6714   0.970   6.293   3.428 -0.5219  0.5927  0.1663
   75CHL1   C23 6715   1.112   6.355   3.581 -0.0017  0.7706  0.4563
   75CHL1  H23A 6716   1.150   6.254   3.608 -0.9721  0.9394  2.7039
   75CHL1  H23B 6717   1.203   6.419   3.576 -0.1129  0.9099  0.2100
   75CHL1   C24 6718   1.032   6.397   3.702  0.1797  0.0436 -1.2019
   75CHL1  H24A 6719   1.013   6.505   3.718  0.1953 -0.2802  1.6005
   75CHL1  H24B 6720   0.928   6.360   3.685 -0.0090 -0.6882  1.1438
   75CHL1   C25 6721   1.079   6.335   3.840  0.0125  0.1709  0.3996
   75CHL1   H25 6722   1.084   6.226   3.818  0.7501 -0.3620  2.8807
   75CHL1   C26 6723   1.219   6.383   3.883  0.3522 -0.0556  0.4368
   75CHL1  H26A 6724   1.213   6.493   3.882 -1.8876 -0.1394 -0.5068
   75CHL1  H26B 6725   1.244   6.339   3.982  0.9715  4.8349  2.6990
   75CHL1  H26C 6726   1.293   6.350   3.806  0.4252  1.8841 -0.3847
   75CHL1   C27 6727   0.982   6.357   3.955  0.2633 -0.1678  0.4236
   75CHL1  H27A 6728   0.886   6.304   3.940  0.6411 -1.1848  1.4814
   75CHL1  H27B 6729   1.029   6.327   4.051 -0.9426 -1.9405  0.4949
   75CHL1  H27C 6730   0.976   6.466   3.977  2.9996  0.4125 -1.1498
   76CHL1    C3 6731   6.227   4.256   2.578 -0.4763  0.7106  1.3284
   76CHL1    H3 6732   6.219   4.145   2.573  1.8716  0.4906  0.9105
   76CHL1    O3 6733   6.185   4.300   2.449  0.0896  0.0977  0.9547
   76CHL1   H3' 6734   6.130   4.376   2.470 -0.6032 -0.1220  0.0056
   76CHL1    C4 6735   6.140   4.307   2.688  0.1801  0.8921  0.2532
   76CHL1   H4A 6736   6.138   4.418   2.687 -0.6712  0.8858  0.4918
   76CHL1   H4B 6737   6.038   4.266   2.677  0.8598 -0.6028 -0.8166
   76CHL1    C5 6738   6.180   4.274   2.834  1.2648  0.4386  1.2667
   76CHL1    C6 6739   6.101   4.209   2.925  0.1227  0.3198 -0.3610
   76CHL1    H6 6740   5.994   4.192   2.906 -0.2371  1.3295  0.6646
   76CHL1    C7 6741   6.157   4.181   3.065  0.6297 -0.3067  0.2719
   76CHL1   H7A 6742   6.085   4.203   3.147  2.4669  1.3631  1.5329
   76CHL1   H7B 6743   6.187   4.074   3.073 -0.1479 -0.4787  1.0308
   76CHL1    C8 6744   6.286   4.269   3.104 -0.1343  0.6508 -0.4766
   76CHL1    H8 6745   6.254   4.373   3.126  0.5726  0.5759  1.0428
   76CHL1   C14 6746   6.352   4.220   3.236  0.4842 -0.0667  0.3469
   76CHL1   H14 6747   6.377   4.113   3.222 -2.5270 -1.1360  2.2288
   76CHL1   C15 6748   6.258   4.200   3.357  0.4196 -0.5304  0.2904
   76CHL1  H15A 6749   6.206   4.295   3.380  0.1458 -0.7945  0.7777
   76CHL1  H15B 6750   6.190   4.113   3.341 -0.3275  0.3223 -1.4659
   76CHL1   C16 6751   6.357   4.165   3.468 -0.6619  0.3279  0.0368
   76CHL1  H16A 6752   6.328   4.229   3.554 -1.0184  1.7321 -1.0976
   76CHL1  H16B 6753   6.344   4.060   3.500 -1.8191  0.0611 -1.2216
   76CHL1   C17 6754   6.504   4.206   3.414 -0.5687  0.2560  0.0266
   76CHL1   H17 6755   6.536   4.108   3.373 -2.3943  0.6411 -2.5999
   76CHL1   C13 6756   6.477   4.290   3.280  0.4957 -0.5648  0.3564
   76CHL1   C18 6757   6.447   4.436   3.320 -0.7741 -0.0627 -0.0668
   76CHL1  H18A 6758   6.379   4.446   3.407  1.2900  1.4673  1.4364
   76CHL1  H18B 6759   6.536   4.501   3.337 -1.3407  0.7168  0.0155
   76CHL1  H18C 6760   6.385   4.487   3.242 -1.3587  1.4798  1.3571
   76CHL1   C12 6761   6.575   4.276   3.170 -0.8303  1.1573  0.5277
   76CHL1  H12A 6762   6.664   4.333   3.204 -0.2645  1.7034 -1.7394
   76CHL1  H12B 6763   6.601   4.168   3.168  1.1538  1.5991  0.3880
   76CHL1   C11 6764   6.523   4.325   3.034  0.0153 -0.4076  0.2215
   76CHL1  H11A 6765   6.509   4.435   3.049  0.2542 -0.6037  2.1235
   76CHL1  H11B 6766   6.602   4.311   2.958  1.3476  1.2900  1.2136
   76CHL1    C9 6767   6.384   4.255   2.991 -0.3962 -1.1673  0.0093
   76CHL1    H9 6768   6.400   4.147   2.970 -0.4061 -0.8884 -1.4893
   76CHL1   C10 6769   6.328   4.314   2.856 -0.1694 -0.4346 -0.0727
   76CHL1   C19 6770   6.332   4.471   2.859 -0.0647  0.2152  0.3903
   76CHL1  H19A 6771   6.259   4.515   2.930  1.7953  1.5491  1.5826
   76CHL1  H19B 6772   6.437   4.505   2.872 -0.5968  2.2614 -0.2787
   76CHL1  H19C 6773   6.302   4.519   2.763 -0.9862  1.6295  1.3341
   76CHL1    C1 6774   6.418   4.259   2.739  0.2099  0.2410 -0.5575
   76CHL1   H1A 6775   6.525   4.284   2.754 -0.4312  3.2823 -0.4171
   76CHL1   H1B 6776   6.415   4.148   2.737 -2.7456  0.2502 -1.4723
   76CHL1    C2 6777   6.375   4.302   2.602 -0.6738  0.2392  0.7482
   76CHL1   H2A 6778   6.438   4.262   2.520 -0.4391  2.1758 -0.0751
   76CHL1   H2B 6779   6.384   4.411   2.581 -1.2675  0.5427  1.9672
   76CHL1   C20 6780   6.609   4.266   3.517  0.6809  0.1840 -0.2933
   76CHL1   H20 6781   6.573   4.368   3.544  0.7583 -0.1622  1.1872
   76CHL1   C21 6782   6.754   4.260   3.464 -0.6384 -0.7497 -0.4216
   76CHL1  H21A 6783   6.834   4.299   3.531  0.2567 -1.1276 -1.2585
   76CHL1  H21B 6784   6.767   4.319   3.371  1.4811  0.5137  0.5980
   76CHL1  H21C 6785   6.789   4.156   3.447 -0.0075 -0.9459  1.7391
   76CHL1   C22 6786   6.598   4.180   3.646 -0.1289 -0.1338 -0.2640
   76CHL1  H22A 6787   6.494   4.192   3.683 -1.6851 -1.2079 -3.8068
   76CHL1  H22B 6788   6.595   4.074   3.615 -0.6167  0.2533 -1.6259
   76CHL1   C23 6789   6.693   4.212   3.772 -0.9145  0.1307  1.2824
   76CHL1  H23A 6790   6.783   4.147   3.768 -0.3757  0.8976 -1.0184
   76CHL1  H23B 6791   6.720   4.319   3.759  0.0004 -0.2919 -0.6689
   76CHL1   C24 6792   6.624   4.189   3.909  0.2644  0.3304 -0.7128
   76CHL1  H24A 6793   6.531   4.249   3.909  1.4848  2.3047 -0.9467
   76CHL1  H24B 6794   6.605   4.079   3.909  1.2597  0.1367  0.2958
   76CHL1   C25 6795   6.709   4.230   4.033 -0.2264 -0.4730 -0.3448
   76CHL1   H25 6796   6.813   4.191   4.023 -0.0767  0.1079 -1.1596
   76CHL1   C26 6797   6.734   4.378   4.049  0.1744  0.4888  0.0909
   76CHL1  H26A 6798   6.774   4.422   3.955 -0.3591  0.7706 -0.0121
   76CHL1  H26B 6799   6.646   4.436   4.086  0.0846 -0.4429  1.4193
   76CHL1  H26C 6800   6.804   4.385   4.135 -3.2463 -0.8602  3.2556
   76CHL1   C27 6801   6.641   4.176   4.159 -0.2235 -0.1298 -0.7166
   76CHL1  H27A 6802   6.704   4.202   4.247  0.5081 -0.8933 -0.9993
   76CHL1  H27B 6803   6.542   4.223   4.173  0.0141 -0.0184  0.7866
   76CHL1  H27C 6804   6.628   4.067   4.172 -0.9876  0.0913  0.5673
   77SOPE     N 6805   5.621   4.993   6.342  0.0315 -0.2466  0.1832
   77SOPE   HN1 6806   5.714   4.965   6.378  0.7363  2.5314  0.7723
   77SOPE   HN2 6807   5.568   5.018   6.428  0.5108 -2.4190  1.1842
   77SOPE   HN3 6808   5.576   4.911   6.297 -0.0641  0.0562 -0.2780
   77SOPE   C12 6809   5.663   5.114   6.259 -0.1407  0.6859 -0.1684
   77SOPE  H12A 6810   5.753   5.086   6.200  0.0751  2.1535 -0.5731
   77SOPE  H12B 6811   5.691   5.196   6.329 -1.6413  1.3253 -0.2829
   77SOPE   C11 6812   5.544   5.159   6.177  0.6350  0.0380  0.4761
   77SOPE  H11A 6813   5.501   5.076   6.116  0.0617  1.0723 -0.5633
   77SOPE  H11B 6814   5.588   5.232   6.106 -0.3490  0.0281 -0.1803
   77SOPE     P 6815   5.313   5.183   6.305 -0.0835  0.4929 -0.0803
   77SOPE   O13 6816   5.296   5.220   6.447  0.0902 -0.0055 -0.2068
   77SOPE   O14 6817   5.294   5.037   6.275 -0.0255 -0.3911 -0.3345
   77SOPE   O12 6818   5.450   5.235   6.256 -0.4472  0.4208 -0.4057
   77SOPE   O11 6819   5.209   5.266   6.229 -0.6121 -0.0490 -0.0398
   77SOPE    C1 6820   5.247   5.382   6.154 -0.1424  0.5024  0.0296
   77SOPE    HA 6821   5.355   5.410   6.151  0.5780 -1.9135  0.6612
   77SOPE    HB 6822   5.188   5.464   6.200  0.8519  0.3095  1.7624
   77SOPE    C2 6823   5.208   5.359   6.006 -0.2275  0.1222  0.4630
   77SOPE    HS 6824   5.098   5.355   5.998 -0.0799 -0.4010 -2.3236
   77SOPE   O21 6825   5.273   5.230   5.965  0.8608 -0.2669 -0.0189
   77SOPE   C21 6826   5.198   5.127   5.942  0.3166 -0.4675 -0.6959
   77SOPE   O22 6827   5.076   5.126   5.951 -0.2803  0.0753 -0.2137
   77SOPE   C22 6828   5.273   5.001   5.911 -0.4387  0.0568  0.0016
   77SOPE   H2R 6829   5.258   4.941   6.003  0.3682 -0.3849 -0.1408
   77SOPE   H2S 6830   5.380   5.026   5.895 -1.1511  2.6436 -1.3220
   77SOPE    C3 6831   5.263   5.467   5.914  0.5615 -0.0301  0.0485
   77SOPE    HX 6832   5.374   5.463   5.908  0.5144 -1.7497 -0.4455
   77SOPE    HY 6833   5.226   5.566   5.948 -1.1540 -0.2286 -1.1567
   77SOPE   O31 6834   5.219   5.446   5.777 -0.0624 -0.1873  0.6016
   77SOPE   C31 6835   5.095   5.466   5.739 -0.5079 -0.4371  0.2609
   77SOPE   O32 6836   5.009   5.506   5.813  0.3120 -0.3290 -0.1494
   77SOPE   C32 6837   5.085   5.454   5.585 -0.2751  0.2312  0.1871
   77SOPE   H2X 6838   5.184   5.485   5.545  0.7775 -2.0369  0.8631
   77SOPE   H2Y 6839   5.013   5.535   5.561 -1.4626 -0.2531  1.9056
   77SOPE   C23 6840   5.223   4.914   5.796  0.1143  0.5962 -0.2208
   77SOPE   H3R 6841   5.114   4.894   5.791  0.4961 -1.4926 -2.5094
   77SOPE   H3S 6842   5.267   4.812   5.803  0.6827  0.8489 -0.0297
   77SOPE   C24 6843   5.268   4.976   5.665  0.3483 -0.0447  0.3080
   77SOPE   H4R 6844   5.244   5.084   5.674  1.1648  0.4223 -2.3932
   77SOPE   H4S 6845   5.379   4.972   5.666  0.4821  2.4509  0.0546
   77SOPE   C25 6846   5.208   4.908   5.543  0.1152 -0.4255  0.9851
   77SOPE   H5R 6847   5.229   4.799   5.545 -0.8220 -0.8233 -2.9580
   77SOPE   H5S 6848   5.097   4.913   5.543  0.1180  0.1110 -0.6816
   77SOPE   C26 6849   5.260   4.959   5.411  0.1796  0.2645  0.7561
   77SOPE   H6R 6850   5.272   5.069   5.404 -0.6675  0.2545 -3.5467
   77SOPE   H6S 6851   5.360   4.917   5.389 -0.6802 -0.6278 -1.8642
   77SOPE   C27 6852   5.167   4.917   5.290  0.0301 -0.0673  0.0227
   77SOPE   H7R 6853   5.151   4.808   5.274  2.1129 -0.1527 -2.0962
   77SOPE   H7S 6854   5.070   4.966   5.310 -0.9961 -1.7438 -0.6333
   77SOPE   C28 6855   5.210   4.981   5.144 -0.7906  0.8046 -0.3479
   77SOPE   H8R 6856   5.201   5.089   5.168 -1.5165  0.9577 -1.2289
   77SOPE   H8S 6857   5.316   4.949   5.130 -0.7413  1.3719 -1.4060
   77SOPE   C29 6858   5.115   4.944   5.037  0.6047  0.5584  0.0372
   77SOPE   H91 6859   5.061   4.851   5.056 -1.6433  1.8700  0.4193
   77SOPE  C210 6860   5.104   5.005   4.915 -0.3180 -0.1171  0.1158
   77SOPE  H101 6861   5.042   4.959   4.838 -0.8215  0.2497  0.2957
   77SOPE  C211 6862   5.181   5.129   4.877 -0.8151  0.1417 -0.4285
   77SOPE  H11R 6863   5.254   5.160   4.955 -1.5089  0.3899  0.1285
   77SOPE  H11S 6864   5.123   5.216   4.840 -0.1174  0.4852 -0.7459
   77SOPE  C212 6865   5.273   5.108   4.753 -0.4075 -0.4859  0.5815
   77SOPE  H12R 6866   5.353   5.041   4.791  1.0195  0.3764 -0.7394
   77SOPE  H12S 6867   5.335   5.194   4.720 -1.4688  0.1430  0.1836
   77SOPE  C213 6868   5.196   5.049   4.633 -0.0877 -0.1456  0.2321
   77SOPE  H13R 6869   5.160   4.947   4.656 -0.1063 -0.0496  0.6357
   77SOPE  H13S 6870   5.268   5.033   4.551  0.0348  1.9880 -0.1402
   77SOPE  C214 6871   5.087   5.142   4.581 -0.2264 -0.0370  0.2192
   77SOPE  H14R 6872   5.002   5.156   4.651  0.8386  0.4357  1.4571
   77SOPE  H14S 6873   5.037   5.089   4.497  1.3705 -0.0902 -0.7443
   77SOPE  C215 6874   5.142   5.271   4.522  0.9856  0.0114 -0.2327
   77SOPE  H15R 6875   5.195   5.253   4.426  0.2725  1.8060 -1.0169
   77SOPE  H15S 6876   5.220   5.310   4.590 -1.3287  0.4248  2.3949
   77SOPE  C216 6877   5.020   5.371   4.494  0.7435  0.0734  0.5930
   77SOPE  H16R 6878   5.071   5.461   4.454 -0.6374  0.4460 -0.4204
   77SOPE  H16S 6879   4.960   5.396   4.584 -0.0271  0.3733  0.0145
   77SOPE  C217 6880   4.920   5.329   4.381  0.3833 -0.2646  0.1588
   77SOPE  H17R 6881   4.873   5.232   4.408  2.4837 -2.0770 -2.1702
   77SOPE  H17S 6882   4.980   5.315   4.288  0.0853 -1.9137  0.1738
   77SOPE  C218 6883   4.812   5.435   4.359  0.3797 -0.3144 -0.3424
   77SOPE  H18R 6884   4.857   5.536   4.364  2.5362 -1.2750  1.1714
   77SOPE  H18S 6885   4.742   5.431   4.445  1.8250  3.2494  1.1724
   77SOPE  H18T 6886   4.747   5.427   4.269 -0.4692  0.2349  0.2027
   77SOPE   C33 6887   5.048   5.311   5.538 -0.7538 -0.2557 -0.2676
   77SOPE   H3X 6888   4.948   5.282   5.576 -0.4923 -1.7843 -0.6851
   77SOPE   H3Y 6889   5.114   5.240   5.592 -1.9608 -0.7906  0.5430
   77SOPE   C34 6890   5.032   5.312   5.387 -0.0781 -0.5183  0.1838
   77SOPE   H4X 6891   4.991   5.218   5.343 -3.1089  1.4325 -1.5307
   77SOPE   H4Y 6892   5.135   5.337   5.355  0.2328 -1.2717  0.5802
   77SOPE   C35 6893   4.951   5.429   5.335 -0.3873 -0.2697 -0.4713
   77SOPE   H5X 6894   5.002   5.527   5.339  0.3862 -0.5903 -1.6534
   77SOPE   H5Y 6895   4.857   5.431   5.394  0.5216 -1.3329  1.0827
   77SOPE   C36 6896   4.906   5.423   5.186  0.1767 -0.0854 -1.2848
   77SOPE   H6X 6897   4.836   5.508   5.167 -0.9471 -0.3637  1.1298
   77SOPE   H6Y 6898   4.841   5.338   5.158  1.1812 -0.6752 -1.8589
   77SOPE   C37 6899   5.026   5.438   5.090 -0.4260  0.1554  0.3890
   77SOPE   H7X 6900   5.095   5.351   5.096 -1.6507 -0.7877  1.4044
   77SOPE   H7Y 6901   5.095   5.515   5.131  0.5166 -1.5470  2.1631
   77SOPE   C38 6902   4.988   5.468   4.949  0.3174  0.8645 -0.4796
   77SOPE   H8X 6903   4.922   5.393   4.901 -0.1589 -0.0446  1.4684
   77SOPE   H8Y 6904   5.078   5.448   4.887  1.0563  0.4151  0.6946
   77SOPE   C39 6905   4.935   5.607   4.921 -0.3830 -0.3947 -0.5300
   77SOPE   H9X 6906   5.010   5.674   4.967  1.7411 -2.5500 -0.6891
   77SOPE   H9Y 6907   4.836   5.629   4.967  0.1934 -0.4432  0.7642
   77SOPE  C310 6908   4.929   5.637   4.774  0.1186 -0.5045  0.7308
   77SOPE  H10X 6909   4.860   5.573   4.716 -1.4082  0.1025  1.7986
   77SOPE  H10Y 6910   5.028   5.610   4.731  0.0312  0.4022 -0.0800
   77SOPE  C311 6911   4.910   5.791   4.751 -0.3478  0.5168  0.0017
   77SOPE  H11X 6912   4.995   5.843   4.800  1.2185 -0.5157 -1.5256
   77SOPE  H11Y 6913   4.814   5.811   4.803  0.8014  2.3170  1.5738
   77SOPE  C312 6914   4.911   5.824   4.599  0.8083 -0.2761 -0.9836
   77SOPE  H12X 6915   4.865   5.736   4.548  0.5778 -0.0372 -1.1920
   77SOPE  H12Y 6916   5.019   5.829   4.574  0.7835  0.2039 -1.0111
   77SOPE  C313 6917   4.839   5.959   4.571  0.2590 -0.3543  0.4449
   77SOPE  H13X 6918   4.885   6.048   4.620 -0.7002  0.4138 -0.0022
   77SOPE  H13Y 6919   4.731   5.955   4.598  0.0923  1.6661  0.2220
   77SOPE  C314 6920   4.825   6.000   4.426  0.4163  0.0599  0.6813
   77SOPE  H14X 6921   4.923   6.046   4.401  0.5405  0.2438  1.4508
   77SOPE  H14Y 6922   4.755   6.085   4.413 -0.8945 -1.2049 -0.7982
   77SOPE  C315 6923   4.773   5.881   4.346  0.4415 -0.6710  0.0330
   77SOPE  H15X 6924   4.682   5.842   4.397 -1.0939  1.8250 -0.6565
   77SOPE  H15Y 6925   4.857   5.809   4.332  1.5475  0.4489  0.7456
   77SOPE  C316 6926   4.722   5.933   4.208  0.1312  1.0724 -0.4554
   77SOPE  H16X 6927   4.649   6.017   4.214 -2.8549 -1.3164 -0.8491
   77SOPE  H16Y 6928   4.650   5.856   4.171  0.1810  0.7869  0.0264
   77SOPE  C317 6929   4.838   5.941   4.110 -0.3513  0.3073 -0.3141
   77SOPE  H17X 6930   4.889   5.843   4.119 -0.4478  0.2908  0.0745
   77SOPE  H17Y 6931   4.903   6.025   4.143  1.0334 -1.5718  2.1573
   77SOPE  C318 6932   4.799   5.978   3.967  1.1710  0.1574 -0.1699
   77SOPE  H18X 6933   4.737   6.069   3.978  1.1227 -0.0138  1.0916
   77SOPE  H18Y 6934   4.731   5.900   3.926 -0.7272  1.4416  0.3860
   77SOPE  H18Z 6935   4.887   5.999   3.903  2.2004  0.0252  1.1492
   78SOPE     N 6936   2.520   2.621   6.475  0.2457 -0.0815 -0.4724
   78SOPE   HN1 6937   2.436   2.682   6.478 -0.7697 -1.3940 -1.0201
   78SOPE   HN2 6938   2.531   2.561   6.560  2.4715  0.8286 -0.0442
   78SOPE   HN3 6939   2.598   2.688   6.458 -0.0031  0.9863  2.1625
   78SOPE   C12 6940   2.502   2.515   6.369  0.5262  0.3940 -0.8580
   78SOPE  H12A 6941   2.482   2.566   6.273  1.2163 -0.6467 -1.5815
   78SOPE  H12B 6942   2.419   2.444   6.391  1.0735  0.6337  2.5056
   78SOPE   C11 6943   2.630   2.436   6.368 -0.3374  0.7807  0.6869
   78SOPE  H11A 6944   2.711   2.510   6.350 -2.1036  2.3435 -1.2972
   78SOPE  H11B 6945   2.634   2.372   6.278  0.0914 -0.3597  1.4874
   78SOPE     P 6946   2.779   2.377   6.581 -0.1162 -0.3828 -0.2024
   78SOPE   O13 6947   2.782   2.277   6.686 -0.1372 -0.3889 -0.1899
   78SOPE   O14 6948   2.781   2.516   6.625  0.0504  0.1107 -0.4226
   78SOPE   O12 6949   2.650   2.355   6.483  0.4047 -0.6262  0.4030
   78SOPE   O11 6950   2.899   2.349   6.482  0.0527  0.0085 -0.4092
   78SOPE    C1 6951   2.924   2.214   6.434  0.2795 -0.5666 -0.4730
   78SOPE    HA 6952   2.831   2.153   6.432 -0.1681  0.0881  0.1389
   78SOPE    HB 6953   3.001   2.167   6.499 -0.1210  1.3753  1.5305
   78SOPE    C2 6954   2.965   2.208   6.282 -0.3452  0.0308 -0.2738
   78SOPE    HS 6955   3.068   2.250   6.287  0.7880 -2.5919  0.1100
   78SOPE   O21 6956   2.879   2.291   6.202  0.1285  0.2025 -0.3130
   78SOPE   C21 6957   2.933   2.365   6.107 -0.7200 -0.3698 -0.1940
   78SOPE   O22 6958   3.053   2.366   6.077 -0.4867 -0.2269 -0.5158
   78SOPE   C22 6959   2.827   2.461   6.046  0.1500 -0.5257  0.5422
   78SOPE   H2R 6960   2.763   2.497   6.130 -0.3142  1.4972 -0.6296
   78SOPE   H2S 6961   2.748   2.403   5.993 -1.9934 -2.2269  5.0779
   78SOPE    C3 6962   2.968   2.067   6.221 -0.1210  0.2226  0.1252
   78SOPE    HX 6963   2.867   2.020   6.227  0.2160 -0.4818  0.4930
   78SOPE    HY 6964   3.036   2.007   6.285  0.1912 -0.8135 -1.1392
   78SOPE   O31 6965   3.009   2.071   6.080  0.3059 -0.3122 -0.1081
   78SOPE   C31 6966   3.140   2.093   6.064 -0.0028  0.4034 -0.5215
   78SOPE   O32 6967   3.226   2.094   6.151 -0.0516  0.2771  0.0384
   78SOPE   C32 6968   3.181   2.090   5.909  0.3995 -0.5805  0.1463
   78SOPE   H2X 6969   3.090   2.071   5.849 -1.4728 -0.0400  2.6394
   78SOPE   H2Y 6970   3.256   2.008   5.899 -0.3422 -1.0891 -1.5542
   78SOPE   C23 6971   2.877   2.586   5.969  0.1938  0.3839  0.1379
   78SOPE   H3R 6972   2.967   2.619   6.025 -0.8027  0.0857  2.0014
   78SOPE   H3S 6973   2.796   2.661   5.966 -1.4729 -1.3096  0.8883
   78SOPE   C24 6974   2.934   2.549   5.830 -0.1981 -0.2300 -0.0420
   78SOPE   H4R 6975   3.016   2.475   5.838  1.3085  1.2382 -1.1708
   78SOPE   H4S 6976   2.858   2.517   5.756  0.2098 -1.0053 -0.1394
   78SOPE   C25 6977   3.012   2.673   5.777 -0.6326 -0.1721 -0.7834
   78SOPE   H5R 6978   2.942   2.759   5.783 -0.0111  0.2768  0.4808
   78SOPE   H5S 6979   3.103   2.700   5.834  0.1777 -0.3734 -1.9386
   78SOPE   C26 6980   3.069   2.642   5.633  0.4719  0.3147 -0.8860
   78SOPE   H6R 6981   3.127   2.733   5.608 -0.3694  1.0742 -0.1672
   78SOPE   H6S 6982   3.139   2.556   5.625 -1.1012 -0.8578 -3.2077
   78SOPE   C27 6983   2.969   2.640   5.518  0.2092 -0.8132 -0.3683
   78SOPE   H7R 6984   2.921   2.541   5.511 -1.2452 -0.0282 -2.5364
   78SOPE   H7S 6985   2.889   2.717   5.523 -0.9357 -1.8345 -2.0906
   78SOPE   C28 6986   3.034   2.672   5.383 -0.4930  0.3541  0.3615
   78SOPE   H8R 6987   3.077   2.775   5.384 -2.6343  1.3841 -2.2203
   78SOPE   H8S 6988   3.119   2.601   5.368 -1.3205 -0.4484 -0.6114
   78SOPE   C29 6989   2.933   2.673   5.266 -0.4833 -0.6804 -0.4883
   78SOPE   H91 6990   2.831   2.707   5.288  0.6404  2.8432 -0.1542
   78SOPE  C210 6991   2.961   2.621   5.146  0.3121  0.2103  0.8034
   78SOPE  H101 6992   2.879   2.610   5.074  1.6604  1.4445 -0.9836
   78SOPE  C211 6993   3.086   2.551   5.103 -0.1041  0.7833  0.2731
   78SOPE  H11R 6994   3.074   2.441   5.096 -0.1199  0.8659 -1.3680
   78SOPE  H11S 6995   3.167   2.588   5.169  2.0702 -0.7499 -1.3912
   78SOPE  C212 6996   3.139   2.597   4.964 -1.2285  0.5810 -0.7169
   78SOPE  H12R 6997   3.240   2.553   4.955 -1.9212 -1.4283  0.4192
   78SOPE  H12S 6998   3.153   2.707   4.964 -2.5390  0.7716  0.3677
   78SOPE  C213 6999   3.041   2.554   4.852 -0.7784  0.0239  0.2405
   78SOPE  H13R 7000   2.954   2.620   4.868  0.2474  1.4612  0.0976
   78SOPE  H13S 7001   3.019   2.446   4.862 -0.3839  0.0406  1.5199
   78SOPE  C214 7002   3.090   2.602   4.715 -0.3937 -0.8906 -0.1243
   78SOPE  H14R 7003   3.185   2.564   4.672  1.1628  3.1603 -0.7014
   78SOPE  H14S 7004   3.104   2.711   4.732  1.3802 -0.9173 -1.1711
   78SOPE  C215 7005   2.981   2.586   4.612  0.1052 -0.7884 -0.4866
   78SOPE  H15R 7006   2.893   2.646   4.645 -0.4303 -1.8401  0.0604
   78SOPE  H15S 7007   2.950   2.479   4.613 -1.7280 -0.2987 -0.3178
   78SOPE  C216 7008   3.016   2.635   4.473  0.5273  0.0351  0.0394
   78SOPE  H16R 7009   3.052   2.739   4.491  0.4025  0.0113  0.4283
   78SOPE  H16S 7010   2.919   2.648   4.421  1.3207  0.0347 -1.4971
   78SOPE  C217 7011   3.112   2.540   4.392  0.4123  0.5271 -0.5265
   78SOPE  H17R 7012   3.068   2.438   4.383 -0.5001  0.8927 -0.3160
   78SOPE  H17S 7013   3.208   2.521   4.444 -0.4517 -0.9772  0.5853
   78SOPE  C218 7014   3.142   2.595   4.253 -0.5190  0.0974  0.0260
   78SOPE  H18R 7015   3.051   2.625   4.195 -0.4991  0.2053  0.0504
   78SOPE  H18S 7016   3.197   2.522   4.191  0.1475  0.6844 -0.0861
   78SOPE  H18T 7017   3.222   2.673   4.252  0.1897 -0.6234 -0.1033
   78SOPE   C33 7018   3.246   2.220   5.863  0.4841  0.5172  0.3810
   78SOPE   H3X 7019   3.320   2.254   5.940  1.7702  0.0204 -0.6002
   78SOPE   H3Y 7020   3.172   2.302   5.851  0.2688  0.5605  1.7492
   78SOPE   C34 7021   3.329   2.209   5.735  0.2593  0.7843 -0.1864
   78SOPE   H4X 7022   3.419   2.145   5.753 -1.3262 -1.9359 -1.2748
   78SOPE   H4Y 7023   3.367   2.301   5.685  0.2939 -0.3429 -2.3665
   78SOPE   C35 7024   3.257   2.132   5.623 -0.3756  0.0699  0.0625
   78SOPE   H5X 7025   3.151   2.163   5.629  0.0045  1.4359 -0.0375
   78SOPE   H5Y 7026   3.273   2.025   5.650 -0.2859  0.6566  2.5739
   78SOPE   C36 7027   3.307   2.166   5.480 -0.1361 -0.3376 -0.5193
   78SOPE   H6X 7028   3.418   2.167   5.482 -0.1355 -0.1596  1.2916
   78SOPE   H6Y 7029   3.265   2.263   5.448  0.2241 -0.2408 -0.7072
   78SOPE   C37 7030   3.258   2.064   5.385  0.6511  0.2471  0.0057
   78SOPE   H7X 7031   3.164   2.015   5.416  1.8208 -2.0046  0.1462
   78SOPE   H7Y 7032   3.346   1.997   5.377  2.8911  3.0503 -0.8037
   78SOPE   C38 7033   3.224   2.118   5.246 -1.3076 -0.4979 -0.0922
   78SOPE   H8X 7034   3.307   2.187   5.217  0.0622 -2.1020 -0.1216
   78SOPE   H8Y 7035   3.133   2.181   5.245 -0.5343  0.6792 -1.5893
   78SOPE   C39 7036   3.202   2.031   5.121 -0.2734 -0.5578 -0.1985
   78SOPE   H9X 7037   3.110   1.971   5.136 -0.7334  0.1463 -0.1495
   78SOPE   H9Y 7038   3.302   1.989   5.094 -0.0176 -0.4930  0.6205
   78SOPE  C310 7039   3.167   2.126   4.999 -0.2216  0.2405 -0.2279
   78SOPE  H10X 7040   3.250   2.193   4.965  1.4253 -0.5375  2.0329
   78SOPE  H10Y 7041   3.079   2.190   5.019 -0.5447 -0.0127 -0.8258
   78SOPE  C311 7042   3.117   2.040   4.878 -0.0655  0.0923 -0.1795
   78SOPE  H11X 7043   3.031   1.977   4.909 -0.3753  0.1060 -0.9915
   78SOPE  H11Y 7044   3.203   1.979   4.842 -0.4402 -0.4637 -0.1540
   78SOPE  C312 7045   3.062   2.134   4.770  0.0910 -0.6765 -0.1558
   78SOPE  H12X 7046   3.144   2.208   4.753 -0.5774  0.6078  1.8674
   78SOPE  H12Y 7047   2.977   2.193   4.809 -1.5175 -1.7722 -1.8420
   78SOPE  C313 7048   3.008   2.064   4.640 -0.7544  0.3100 -0.5492
   78SOPE  H13X 7049   2.913   2.011   4.666 -1.0832  1.6723  1.2489
   78SOPE  H13Y 7050   3.077   1.986   4.601  0.9479  2.1764 -1.4174
   78SOPE  C314 7051   2.987   2.163   4.524  0.6838 -0.0954 -0.1572
   78SOPE  H14X 7052   3.088   2.205   4.502  0.8943 -1.3670 -1.7598
   78SOPE  H14Y 7053   2.913   2.236   4.563  0.4293 -0.4278 -0.0142
   78SOPE  C315 7054   2.940   2.096   4.399  0.2228 -0.7803 -0.3878
   78SOPE  H15X 7055   2.955   2.171   4.318  0.4837  1.0812  1.2935
   78SOPE  H15Y 7056   2.830   2.080   4.410 -0.0965  1.5005  0.3119
   78SOPE  C316 7057   3.009   1.973   4.353  0.1005 -0.6135  0.5664
   78SOPE  H16X 7058   2.990   1.885   4.418 -2.1510 -0.1207  0.6375
   78SOPE  H16Y 7059   3.118   1.996   4.356 -0.0465  0.4221 -1.1423
   78SOPE  C317 7060   2.963   1.932   4.214  0.1850  0.1265  0.1973
   78SOPE  H17X 7061   2.978   2.020   4.148  2.1644 -0.2139  0.1479
   78SOPE  H17Y 7062   2.853   1.915   4.210  0.5915 -2.7921 -0.9003
   78SOPE  C318 7063   3.037   1.808   4.155  0.3981 -0.2267  0.0873
   78SOPE  H18X 7064   2.959   1.751   4.100 -1.7468  2.4115  0.1723
   78SOPE  H18Y 7065   3.081   1.752   4.240 -0.8272  0.6665  1.3574
   78SOPE  H18Z 7066   3.119   1.833   4.084  0.8396 -2.4692 -0.2806
   79SOPE     N 7067   3.423   0.536   6.655  0.0049  0.3105  0.2874
   79SOPE   HN1 7068   3.503   0.591   6.692  0.4608  1.0708 -1.6891
   79SOPE   HN2 7069   3.382   0.601   6.585 -0.6374  0.9001  1.1878
   79SOPE   HN3 7070   3.347   0.529   6.726  0.6048  1.2480  1.0405
   79SOPE   C12 7071   3.456   0.410   6.588  0.3079 -0.4651 -0.0043
   79SOPE  H12A 7072   3.513   0.352   6.664  1.7305 -1.3597 -1.6753
   79SOPE  H12B 7073   3.520   0.426   6.498 -0.6752  1.3565 -0.4166
   79SOPE   C11 7074   3.342   0.314   6.563 -0.4124 -0.6868 -0.2265
   79SOPE  H11A 7075   3.404   0.240   6.509  1.1368  0.9964 -0.8230
   79SOPE  H11B 7076   3.265   0.353   6.493 -0.2643  0.4503  0.2235
   79SOPE     P 7077   3.158   0.181   6.679  0.1568  0.2932 -0.2715
   79SOPE   O13 7078   3.040   0.268   6.704 -0.0469  0.5495 -0.1861
   79SOPE   O14 7079   3.169   0.054   6.757  0.2347 -0.1462 -0.5134
   79SOPE   O12 7080   3.292   0.270   6.690  0.3780  0.9129 -0.4225
   79SOPE   O11 7081   3.159   0.132   6.530  0.1379  0.0932 -0.2327
   79SOPE    C1 7082   3.067   0.034   6.491  0.5610  0.5171 -0.0394
   79SOPE    HA 7083   2.961   0.061   6.510  0.8437  1.7143 -0.0866
   79SOPE    HB 7084   3.082  -0.061   6.547  0.7034 -0.2641 -1.3497
   79SOPE    C2 7085   3.081  -0.001   6.343 -0.1226 -1.1572  0.1402
   79SOPE    HS 7086   3.183  -0.039   6.320 -0.1263 -0.5090 -1.0165
   79SOPE   O21 7087   3.054   0.116   6.261 -0.3989  0.7314  0.4575
   79SOPE   C21 7088   3.126   0.119   6.147 -0.2895  0.9078 -0.0399
   79SOPE   O22 7089   3.210   0.037   6.112  0.1258  0.2703  0.3600
   79SOPE   C22 7090   3.066   0.233   6.067  0.3542  0.0504  0.3031
   79SOPE   H2R 7091   3.045   0.330   6.116  0.3471 -0.2044  0.8116
   79SOPE   H2S 7092   2.965   0.199   6.032  1.2044 -0.0209 -2.3401
   79SOPE    C3 7093   2.982  -0.104   6.306  0.8971  0.0737 -0.0436
   79SOPE    HX 7094   2.877  -0.067   6.298  0.4204 -1.2828 -0.2629
   79SOPE    HY 7095   2.965  -0.183   6.383 -1.1640  0.4797 -0.0278
   79SOPE   O31 7096   3.008  -0.168   6.189  0.1748 -0.6405  0.8134
   79SOPE   C31 7097   3.109  -0.259   6.182  0.1313 -0.0232  0.1326
   79SOPE   O32 7098   3.173  -0.307   6.277 -0.6392  0.5527 -0.4818
   79SOPE   C32 7099   3.134  -0.302   6.042  0.9898  0.1276  0.1365
   79SOPE   H2X 7100   3.186  -0.219   5.990 -1.6050  0.6576 -1.8322
   79SOPE   H2Y 7101   3.032  -0.305   5.998  1.4894 -0.6481 -1.0160
   79SOPE   C23 7102   3.158   0.260   5.948  0.1014 -0.0825 -0.2206
   79SOPE   H3R 7103   3.159   0.165   5.891 -0.6219 -1.1434  1.4558
   79SOPE   H3S 7104   3.267   0.271   5.968  0.0182 -0.6114  0.5974
   79SOPE   C24 7105   3.103   0.378   5.865 -0.5910  0.2049  0.0519
   79SOPE   H4R 7106   2.993   0.381   5.880 -0.8803  1.6593 -1.8521
   79SOPE   H4S 7107   3.129   0.482   5.896  1.6936 -0.3402  0.1535
   79SOPE   C25 7108   3.122   0.371   5.706 -0.1396 -1.0626 -0.2319
   79SOPE   H5R 7109   3.232   0.363   5.690  0.0390  0.5292  0.0938
   79SOPE   H5S 7110   3.062   0.279   5.688 -1.2714 -1.0179  2.8032
   79SOPE   C26 7111   3.053   0.487   5.630  0.4193  0.3738  0.0274
   79SOPE   H6R 7112   2.955   0.517   5.672  0.1429  1.2429 -1.1905
   79SOPE   H6S 7113   3.126   0.570   5.617  1.8164 -0.6849  0.7991
   79SOPE   C27 7114   3.017   0.432   5.489 -0.6825  0.5178  0.2551
   79SOPE   H7R 7115   3.099   0.385   5.432  1.5581  2.1391  1.9698
   79SOPE   H7S 7116   2.949   0.344   5.502  2.0123 -1.9013 -1.0575
   79SOPE   C28 7117   2.945   0.537   5.410 -0.1380 -0.8027 -0.4305
   79SOPE   H8R 7118   2.847   0.572   5.450  0.8811  2.0772 -0.2175
   79SOPE   H8S 7119   2.996   0.634   5.425 -1.9517  0.0883  0.2666
   79SOPE   C29 7120   2.941   0.520   5.262  0.5553  0.2040 -0.4875
   79SOPE   H91 7121   2.853   0.460   5.234 -0.2101  1.1089 -0.0724
   79SOPE  C210 7122   3.038   0.537   5.170  0.5425 -0.2654  0.0342
   79SOPE  H101 7123   3.012   0.509   5.067 -3.1155 -2.0894  1.2746
   79SOPE  C211 7124   3.164   0.605   5.190  0.0330 -0.3608  0.3724
   79SOPE  H11R 7125   3.181   0.654   5.289  0.7077  1.3207 -0.5266
   79SOPE  H11S 7126   3.163   0.694   5.124 -2.4650  0.3593  1.2659
   79SOPE  C212 7127   3.292   0.526   5.158  0.1048  0.3864 -0.2501
   79SOPE  H12R 7128   3.298   0.424   5.201 -1.4398  0.5040  0.3238
   79SOPE  H12S 7129   3.386   0.577   5.186  1.1712 -1.8788  0.5235
   79SOPE  C213 7130   3.303   0.507   5.005 -0.1112 -0.0682  0.2896
   79SOPE  H13R 7131   3.288   0.609   4.964 -0.3176 -0.0667  0.3657
   79SOPE  H13S 7132   3.232   0.427   4.974  0.8540 -1.9121  2.5142
   79SOPE  C214 7133   3.445   0.478   4.949  0.1641 -0.3600  0.3461
   79SOPE  H14R 7134   3.483   0.381   4.986 -3.0891 -2.4443 -1.3308
   79SOPE  H14S 7135   3.508   0.562   4.986  1.1563 -1.4680  1.2298
   79SOPE  C215 7136   3.456   0.482   4.799 -0.1192 -0.1956  0.1360
   79SOPE  H15R 7137   3.454   0.586   4.761 -1.5352 -0.4410 -0.5075
   79SOPE  H15S 7138   3.368   0.433   4.753 -0.1304  0.7150 -0.8593
   79SOPE  C216 7139   3.585   0.406   4.747  0.2909 -0.3764 -0.5128
   79SOPE  H16R 7140   3.590   0.311   4.803  1.5214  0.7285  1.3391
   79SOPE  H16S 7141   3.678   0.461   4.770  1.2863 -2.1963 -0.0670
   79SOPE  C217 7142   3.588   0.390   4.593  1.0346 -0.0784  0.6142
   79SOPE  H17R 7143   3.683   0.346   4.557 -0.1681 -0.6733 -2.1105
   79SOPE  H17S 7144   3.573   0.493   4.553  3.8321  0.9036  1.8711
   79SOPE  C218 7145   3.480   0.305   4.525 -0.2919  0.0730 -0.0466
   79SOPE  H18R 7146   3.378   0.350   4.527  0.2387  1.4282 -1.3317
   79SOPE  H18S 7147   3.475   0.205   4.573  1.1834  0.4016  0.8196
   79SOPE  H18T 7148   3.485   0.279   4.417 -0.3047  2.1979 -0.5943
   79SOPE   C33 7149   3.204  -0.443   6.028 -0.4202 -0.4504  0.6194
   79SOPE   H3X 7150   3.119  -0.511   6.050  1.0597 -1.9974  1.8687
   79SOPE   H3Y 7151   3.284  -0.459   6.104 -0.2751  1.1246  0.8365
   79SOPE   C34 7152   3.249  -0.486   5.889  0.4635 -0.6193  0.0170
   79SOPE   H4X 7153   3.289  -0.589   5.899  1.8286 -0.1646 -0.4814
   79SOPE   H4Y 7154   3.329  -0.420   5.847 -0.6882 -0.9130 -2.8596
   79SOPE   C35 7155   3.137  -0.493   5.786 -0.4406  0.8494  0.3991
   79SOPE   H5X 7156   3.104  -0.387   5.779 -1.0335  0.7038  0.8885
   79SOPE   H5Y 7157   3.061  -0.562   5.828 -0.1184 -0.0567 -0.4788
   79SOPE   C36 7158   3.196  -0.546   5.645 -0.2213 -0.7393 -0.1430
   79SOPE   H6X 7159   3.223  -0.651   5.668 -2.4818 -1.4113 -0.2596
   79SOPE   H6Y 7160   3.293  -0.501   5.615 -0.8579  0.4202 -0.5314
   79SOPE   C37 7161   3.084  -0.548   5.539 -0.4122  0.2166 -0.5750
   79SOPE   H7X 7162   3.030  -0.450   5.537  0.5830  0.7676 -1.0857
   79SOPE   H7Y 7163   3.019  -0.633   5.570 -0.2319  0.3645  0.2291
   79SOPE   C38 7164   3.140  -0.550   5.392 -0.3097 -0.1887  0.1680
   79SOPE   H8X 7165   3.210  -0.468   5.365 -0.2272 -0.0543  0.7824
   79SOPE   H8Y 7166   3.047  -0.539   5.332 -1.8956  0.6640  2.6407
   79SOPE   C39 7167   3.203  -0.683   5.360 -0.4517 -0.2446 -0.4562
   79SOPE   H9X 7168   3.135  -0.762   5.397 -3.1971  3.4501  3.3849
   79SOPE   H9Y 7169   3.294  -0.693   5.423 -0.4070 -2.5875 -0.8149
   79SOPE  C310 7170   3.241  -0.710   5.220  0.7816  0.2211  0.0435
   79SOPE  H10X 7171   3.310  -0.796   5.211 -1.1115 -1.2706 -1.1872
   79SOPE  H10Y 7172   3.298  -0.622   5.184 -1.1046  1.8498  0.8117
   79SOPE  C311 7173   3.118  -0.749   5.131 -0.0879  0.3047 -0.4788
   79SOPE  H11X 7174   3.118  -0.682   5.042  0.4377 -0.8928 -1.4033
   79SOPE  H11Y 7175   3.019  -0.724   5.174 -0.0195  0.4920 -0.4289
   79SOPE  C312 7176   3.109  -0.900   5.091  0.3721  0.6785 -0.8449
   79SOPE  H12X 7177   3.003  -0.929   5.075 -0.3906  1.6650  1.8051
   79SOPE  H12Y 7178   3.152  -0.974   5.162 -0.0670 -0.2775 -1.5486
   79SOPE  C313 7179   3.187  -0.935   4.964  0.6968  0.0126 -0.2522
   79SOPE  H13X 7180   3.205  -1.044   4.957  1.5804 -0.0265  2.0432
   79SOPE  H13Y 7181   3.284  -0.881   4.969  0.2636  1.0077 -1.6548
   79SOPE  C314 7182   3.109  -0.886   4.840  0.0410  0.2107 -0.1274
   79SOPE  H14X 7183   3.064  -0.786   4.859 -2.3192  0.1028 -4.0566
   79SOPE  H14Y 7184   3.014  -0.944   4.832  0.0287  0.2517 -0.2840
   79SOPE  C315 7185   3.185  -0.890   4.710  0.3096 -0.4998  0.0607
   79SOPE  H15X 7186   3.098  -0.883   4.643 -0.9615 -1.3300  1.5489
   79SOPE  H15Y 7187   3.242  -0.983   4.686 -1.3618 -1.3882 -0.6325
   79SOPE  C316 7188   3.275  -0.767   4.698 -0.3802 -0.9314 -0.0807
   79SOPE  H16X 7189   3.351  -0.764   4.779  0.8106  1.1800 -1.1743
   79SOPE  H16Y 7190   3.218  -0.671   4.693 -0.0074 -0.6181  1.2871
   79SOPE  C317 7191   3.339  -0.772   4.555 -0.0477  0.2781 -0.2307
   79SOPE  H17X 7192   3.273  -0.829   4.485  0.1173 -2.2737  1.5696
   79SOPE  H17Y 7193   3.431  -0.834   4.558 -0.7526 -0.7816  0.1445
   79SOPE  C318 7194   3.383  -0.642   4.493  0.8344  0.1110  0.0397
   79SOPE  H18X 7195   3.292  -0.581   4.475  0.9883  0.6958  1.1556
   79SOPE  H18Y 7196   3.437  -0.661   4.398  0.4905 -3.1434  0.3739
   79SOPE  H18Z 7197   3.448  -0.589   4.566  0.7226 -1.6454  1.5091
   80SOPE     N 7198   2.139   1.641   6.383 -0.3774  0.3935 -0.7710
   80SOPE   HN1 7199   2.228   1.693   6.388  0.2191 -0.6582  0.1589
   80SOPE   HN2 7200   2.079   1.716   6.423  0.7359  1.4254 -1.0013
   80SOPE   HN3 7201   2.133   1.559   6.447  0.0654 -0.0070 -1.2365
   80SOPE   C12 7202   2.093   1.601   6.247 -0.3759  0.3403  0.0520
   80SOPE  H12A 7203   2.013   1.525   6.262 -2.0390  1.7781 -1.1140
   80SOPE  H12B 7204   2.175   1.558   6.186 -0.4198  0.6715 -0.2459
   80SOPE   C11 7205   2.036   1.713   6.165  0.9033 -0.0515 -0.0185
   80SOPE  H11A 7206   2.020   1.685   6.059  0.7486  1.7412 -0.5032
   80SOPE  H11B 7207   2.105   1.799   6.157 -0.5323  1.0660 -0.8955
   80SOPE     P 7208   1.881   1.882   6.293  0.3607 -0.5218  0.2010
   80SOPE   O13 7209   1.964   1.890   6.418  0.0504 -0.4986 -0.2627
   80SOPE   O14 7210   1.738   1.892   6.314  0.4048 -0.0662  0.0096
   80SOPE   O12 7211   1.908   1.750   6.226 -0.4038  0.0749  0.2864
   80SOPE   O11 7212   1.934   1.988   6.186  0.3286  0.8748  0.1456
   80SOPE    C1 7213   1.850   2.015   6.072  0.3028  0.6968  0.1646
   80SOPE    HA 7214   1.802   2.114   6.088  0.0638  0.6371 -0.1738
   80SOPE    HB 7215   1.756   1.956   6.071  0.2597  0.6829  2.1738
   80SOPE    C2 7216   1.926   2.016   5.937 -0.5715  0.2776  0.1910
   80SOPE    HS 7217   1.891   2.103   5.877  0.4513 -0.5064 -1.6238
   80SOPE   O21 7218   1.906   1.899   5.856  0.3713 -0.1346 -0.5931
   80SOPE   C21 7219   1.780   1.873   5.827 -0.1025 -0.4636 -0.4375
   80SOPE   O22 7220   1.688   1.953   5.820 -0.1867 -0.0861 -0.0467
   80SOPE   C22 7221   1.764   1.721   5.796 -0.1604 -0.0821 -0.2750
   80SOPE   H2R 7222   1.738   1.665   5.889  0.6322 -1.2935 -0.7558
   80SOPE   H2S 7223   1.856   1.687   5.744 -1.1383  1.0514 -2.9274
   80SOPE    C3 7224   2.081   2.048   5.945  0.2970  0.1689  0.2560
   80SOPE    HX 7225   2.124   1.968   6.010  1.8591  0.0864 -0.8185
   80SOPE    HY 7226   2.088   2.141   6.005  0.5575 -0.4588  1.2232
   80SOPE   O31 7227   2.143   2.054   5.816 -0.6593  0.0209  0.0720
   80SOPE   C31 7228   2.152   2.176   5.766  0.5136  0.0416  0.1239
   80SOPE   O32 7229   2.146   2.284   5.821  0.4333  0.4310 -0.2787
   80SOPE   C32 7230   2.201   2.163   5.617 -0.3290 -0.1318 -0.5807
   80SOPE   H2X 7231   2.113   2.131   5.557 -1.7854  2.0530  0.2894
   80SOPE   H2Y 7232   2.273   2.078   5.608 -1.6108 -1.4366  0.8760
   80SOPE   C23 7233   1.637   1.696   5.711  0.4111 -0.4655 -0.2242
   80SOPE   H3R 7234   1.644   1.773   5.631 -0.0171 -1.9220 -1.7132
   80SOPE   H3S 7235   1.543   1.717   5.766  2.8026  0.0150  4.1133
   80SOPE   C24 7236   1.637   1.553   5.646  0.1715 -0.2951  0.3163
   80SOPE   H4R 7237   1.741   1.534   5.610 -0.2980 -1.3812 -0.4996
   80SOPE   H4S 7238   1.615   1.467   5.713 -0.4578 -0.5531 -0.2218
   80SOPE   C25 7239   1.545   1.537   5.534  0.0760 -0.2788 -0.3143
   80SOPE   H5R 7240   1.526   1.429   5.517  2.3234 -0.5436 -1.5716
   80SOPE   H5S 7241   1.450   1.591   5.548 -0.2999 -1.2607  1.0832
   80SOPE   C26 7242   1.614   1.586   5.407  0.2575 -0.3994 -0.0210
   80SOPE   H6R 7243   1.640   1.694   5.411  1.1386 -0.6181  0.7130
   80SOPE   H6S 7244   1.711   1.534   5.392  0.2677 -0.4547  0.2328
   80SOPE   C27 7245   1.528   1.539   5.284 -0.7547 -0.4213  0.0648
   80SOPE   H7R 7246   1.504   1.431   5.293  0.4021 -0.8350 -1.4162
   80SOPE   H7S 7247   1.432   1.595   5.287 -0.7310 -0.2664 -1.3987
   80SOPE   C28 7248   1.597   1.558   5.149  0.6436  0.5867 -0.0587
   80SOPE   H8R 7249   1.516   1.526   5.081 -0.7321  1.0399  1.3184
   80SOPE   H8S 7250   1.598   1.669   5.141 -2.7553  0.5986 -2.0898
   80SOPE   C29 7251   1.733   1.496   5.121 -0.8927  0.8621  0.2366
   80SOPE   H91 7252   1.756   1.410   5.186 -0.7832 -0.2498 -1.2109
   80SOPE  C210 7253   1.823   1.516   5.030 -0.3370  0.8344  0.1948
   80SOPE  H101 7254   1.918   1.462   5.027 -0.6816  0.2425 -0.2532
   80SOPE  C211 7255   1.797   1.612   4.913  0.6051 -0.0573 -0.2006
   80SOPE  H11R 7256   1.716   1.684   4.940 -0.1323 -0.0223 -2.2820
   80SOPE  H11S 7257   1.766   1.559   4.820 -2.2620  0.9494  0.0785
   80SOPE  C212 7258   1.924   1.689   4.877  0.3300  0.1673  0.2708
   80SOPE  H12R 7259   1.895   1.745   4.785 -0.4735 -0.1322  0.3322
   80SOPE  H12S 7260   2.003   1.619   4.842 -0.1735  0.1296 -0.8401
   80SOPE  C213 7261   1.980   1.783   4.976 -0.1464 -0.7633  0.3684
   80SOPE  H13R 7262   2.075   1.821   4.934  0.2759 -1.4672  0.6732
   80SOPE  H13S 7263   2.000   1.746   5.079  1.6237  0.1672  0.3971
   80SOPE  C214 7264   1.891   1.907   4.989 -0.0239  0.2300 -0.0467
   80SOPE  H14R 7265   1.786   1.871   4.997 -0.9408  2.3063 -1.6854
   80SOPE  H14S 7266   1.909   1.964   4.895 -0.7293 -0.9485 -0.9194
   80SOPE  C215 7267   1.926   1.989   5.106  0.9123 -0.2447 -0.4547
   80SOPE  H15R 7268   1.922   2.100   5.098  1.5990 -0.0662  1.3026
   80SOPE  H15S 7269   2.037   1.984   5.118  0.9509  1.9891  0.4915
   80SOPE  C216 7270   1.868   1.939   5.242  0.5556  0.0171  0.4191
   80SOPE  H16R 7271   1.882   1.829   5.234 -1.8430 -0.2913 -0.3591
   80SOPE  H16S 7272   1.759   1.958   5.233  0.4546 -1.1236 -1.0739
   80SOPE  C217 7273   1.942   1.983   5.365 -0.1799 -0.0528  0.8112
   80SOPE  H17R 7274   1.936   2.094   5.362  0.0788  0.0081  1.9580
   80SOPE  H17S 7275   2.045   1.945   5.350 -0.7236 -1.0432 -0.6303
   80SOPE  C218 7276   1.877   1.945   5.498  0.0107  0.2432  0.3204
   80SOPE  H18R 7277   1.959   1.905   5.562  1.1197 -0.6211 -1.5509
   80SOPE  H18S 7278   1.792   1.874   5.487 -0.2972  0.8016 -0.9868
   80SOPE  H18T 7279   1.822   2.020   5.558 -3.0467 -3.1747  2.2170
   80SOPE   C33 7280   2.264   2.290   5.560 -0.2232 -0.7832 -0.0890
   80SOPE   H3X 7281   2.343   2.305   5.637 -1.7351 -0.8970  1.5594
   80SOPE   H3Y 7282   2.201   2.382   5.567  1.6248  0.7601 -2.2338
   80SOPE   C34 7283   2.322   2.281   5.420 -0.3790 -0.8615  0.3342
   80SOPE   H4X 7284   2.379   2.188   5.398  0.3804 -0.6524  1.3708
   80SOPE   H4Y 7285   2.411   2.347   5.414 -1.1544  0.4573  2.2692
   80SOPE   C35 7286   2.231   2.305   5.301  0.5221 -0.0075  0.0576
   80SOPE   H5X 7287   2.178   2.403   5.299  0.6405  0.0518 -0.5015
   80SOPE   H5Y 7288   2.153   2.226   5.297  0.4151  0.0954  0.1055
   80SOPE   C36 7289   2.306   2.302   5.168  0.0318 -0.3128 -0.3678
   80SOPE   H6X 7290   2.378   2.218   5.170 -0.0154 -0.3352  1.6201
   80SOPE   H6Y 7291   2.360   2.395   5.141 -0.8055  1.1126  2.5079
   80SOPE   C37 7292   2.218   2.258   5.054  0.3804  0.0198  0.4823
   80SOPE   H7X 7293   2.126   2.320   5.042 -2.4401 -3.8282  0.2144
   80SOPE   H7Y 7294   2.162   2.171   5.095  0.1657 -0.1583 -0.1767
   80SOPE   C38 7295   2.286   2.239   4.922 -0.0558 -0.1563 -0.3985
   80SOPE   H8X 7296   2.385   2.192   4.935  0.7233  1.7385  0.8942
   80SOPE   H8Y 7297   2.315   2.341   4.890 -1.0120  0.7091  1.3717
   80SOPE   C39 7298   2.203   2.173   4.808  0.5800 -0.2308 -0.3811
   80SOPE   H9X 7299   2.195   2.065   4.830  0.6275 -0.4846 -1.5623
   80SOPE   H9Y 7300   2.257   2.170   4.711 -1.5166 -1.1080 -1.5977
   80SOPE  C310 7301   2.062   2.226   4.778  0.0305 -0.1144  0.4778
   80SOPE  H10X 7302   2.072   2.336   4.762 -1.5655 -0.0763 -0.4571
   80SOPE  H10Y 7303   1.984   2.225   4.856 -0.3955  1.4885  0.1182
   80SOPE  C311 7304   2.014   2.175   4.639 -0.1259  0.0616 -0.2622
   80SOPE  H11X 7305   2.013   2.064   4.645  1.3414 -0.0019 -0.7018
   80SOPE  H11Y 7306   2.090   2.191   4.559 -0.3261  1.3251 -0.2196
   80SOPE  C312 7307   1.892   2.254   4.586  0.1275  0.4204 -0.0543
   80SOPE  H12X 7308   1.910   2.363   4.575  1.3368  0.1428 -1.1759
   80SOPE  H12Y 7309   1.810   2.258   4.660 -0.2940  1.9313 -0.5818
   80SOPE  C313 7310   1.838   2.207   4.450 -0.4370 -0.4790  0.1168
   80SOPE  H13X 7311   1.734   2.245   4.448 -0.0526  0.6209  0.3785
   80SOPE  H13Y 7312   1.854   2.097   4.454  1.5689 -0.1935  1.4196
   80SOPE  C314 7313   1.917   2.284   4.348 -0.4357 -0.6333 -0.1569
   80SOPE  H14X 7314   2.020   2.246   4.365 -0.7782 -0.4109  3.0567
   80SOPE  H14Y 7315   1.921   2.392   4.373  2.1983 -0.7493  0.2704
   80SOPE  C315 7316   1.876   2.271   4.200  0.1642  0.1640 -0.4980
   80SOPE  H15X 7317   1.769   2.300   4.184  0.0041 -1.3948 -2.7696
   80SOPE  H15Y 7318   1.894   2.163   4.184  1.4583  0.4226 -0.8809
   80SOPE  C316 7319   1.962   2.358   4.110  0.0392 -0.2367  0.4731
   80SOPE  H16X 7320   2.069   2.329   4.118  0.0914 -1.1875 -2.4044
   80SOPE  H16Y 7321   1.945   2.467   4.125  1.4116 -0.2447  2.4811
   80SOPE  C317 7322   1.921   2.331   3.959 -0.1954 -0.3821  0.0277
   80SOPE  H17X 7323   1.818   2.369   3.941 -0.1478 -0.3452 -0.1649
   80SOPE  H17Y 7324   1.898   2.224   3.941 -2.3049  0.3886 -2.4550
   80SOPE  C318 7325   2.018   2.400   3.854  0.5724 -0.4455 -0.5227
   80SOPE  H18X 7326   2.115   2.347   3.842  0.2653 -1.3589  0.7797
   80SOPE  H18Y 7327   2.037   2.508   3.873  2.8615 -0.6619 -1.2206
   80SOPE  H18Z 7328   1.955   2.400   3.763 -1.6649  1.1694  0.9342
   81SOPE     N 7329   4.876   4.225   6.428 -0.2357  0.0018 -0.0743
   81SOPE   HN1 7330   4.890   4.166   6.513  2.9709  1.3337  0.4704
   81SOPE   HN2 7331   4.968   4.231   6.379 -0.7283 -0.6617 -1.1207
   81SOPE   HN3 7332   4.839   4.315   6.464  2.4519  1.1874 -0.0274
   81SOPE   C12 7333   4.778   4.176   6.330  0.7337 -0.1808 -0.0494
   81SOPE  H12A 7334   4.680   4.157   6.378 -1.6363  3.1209 -3.0879
   81SOPE  H12B 7335   4.816   4.076   6.298  0.9137 -0.5787  1.3156
   81SOPE   C11 7336   4.765   4.276   6.215  0.6600 -0.1619 -0.1268
   81SOPE  H11A 7337   4.709   4.230   6.131 -0.7298 -0.1977  0.7782
   81SOPE  H11B 7338   4.869   4.300   6.183  0.1390  0.3692 -1.5053
   81SOPE     P 7339   4.606   4.480   6.170  0.1424 -0.1707  0.1341
   81SOPE   O13 7340   4.637   4.626   6.175  0.7366 -0.4057 -0.3647
   81SOPE   O14 7341   4.466   4.439   6.200  0.3430 -0.1638 -0.3525
   81SOPE   O12 7342   4.700   4.395   6.265 -0.5931  0.4724 -0.6287
   81SOPE   O11 7343   4.650   4.430   6.021  0.4567  0.5562 -0.4283
   81SOPE    C1 7344   4.544   4.396   5.931 -0.6177 -0.3204 -0.7458
   81SOPE    HA 7345   4.462   4.471   5.933 -1.1163 -0.8677  0.2291
   81SOPE    HB 7346   4.497   4.300   5.961 -0.4424 -0.0237  0.5148
   81SOPE    C2 7347   4.596   4.397   5.781  0.5802 -0.5027 -0.5317
   81SOPE    HS 7348   4.511   4.360   5.721 -1.0069 -0.7414  1.7216
   81SOPE   O21 7349   4.711   4.312   5.759 -0.1189 -0.3263 -0.1337
   81SOPE   C21 7350   4.682   4.181   5.783 -0.3547 -0.7449 -0.6275
   81SOPE   O22 7351   4.573   4.134   5.807  0.6246 -0.4343 -0.3802
   81SOPE   C22 7352   4.810   4.101   5.777 -0.0467  0.0433 -0.3671
   81SOPE   H2R 7353   4.831   4.044   5.870 -0.8604 -1.5332 -1.1112
   81SOPE   H2S 7354   4.898   4.168   5.767 -0.1225  0.1403 -0.3902
   81SOPE    C3 7355   4.631   4.543   5.742  0.1266 -0.3291  0.4886
   81SOPE    HX 7356   4.682   4.539   5.643  0.9911  0.2059  0.9056
   81SOPE    HY 7357   4.700   4.590   5.815 -1.7626  0.0947  2.0884
   81SOPE   O31 7358   4.508   4.624   5.739 -0.1881  0.2975  0.0039
   81SOPE   C31 7359   4.439   4.628   5.631 -1.1677 -0.0883 -0.1734
   81SOPE   O32 7360   4.468   4.570   5.527 -0.6988  0.2439 -0.7341
   81SOPE   C32 7361   4.314   4.718   5.660 -0.0152  0.7557 -0.5999
   81SOPE   H2X 7362   4.328   4.810   5.721  0.0394  1.6616 -1.9349
   81SOPE   H2Y 7363   4.262   4.659   5.738  0.5779  1.8287  0.6447
   81SOPE   C23 7364   4.810   3.989   5.674  0.4096  0.5521 -0.6443
   81SOPE   H3R 7365   4.727   3.916   5.686  0.1707  1.0422  0.9660
   81SOPE   H3S 7366   4.905   3.935   5.693  1.1333  1.9065 -0.3071
   81SOPE   C24 7367   4.825   4.045   5.531  0.1904  0.3629  0.1526
   81SOPE   H4R 7368   4.730   4.091   5.496  0.5483 -1.6299 -4.0221
   81SOPE   H4S 7369   4.899   4.128   5.536 -1.2438  1.8941 -2.1158
   81SOPE   C25 7370   4.865   3.948   5.416 -0.5052  0.7823  0.2339
   81SOPE   H5R 7371   4.970   3.913   5.430 -1.6823 -4.1690 -1.3241
   81SOPE   H5S 7372   4.810   3.852   5.427 -0.9241  1.0669  0.6327
   81SOPE   C26 7373   4.854   3.998   5.260  0.0548 -0.0788  0.2319
   81SOPE   H6R 7374   4.746   4.019   5.247  0.2187  1.1907  0.7632
   81SOPE   H6S 7375   4.910   4.092   5.242 -0.0067 -0.2815 -1.1309
   81SOPE   C27 7376   4.896   3.888   5.158  0.1565 -0.3023  0.8629
   81SOPE   H7R 7377   4.963   3.803   5.187 -2.7413 -3.7694 -1.6878
   81SOPE   H7S 7378   4.800   3.837   5.134 -0.1399  0.1107  1.1536
   81SOPE   C28 7379   4.971   3.965   5.039  0.0580 -0.0833  0.1643
   81SOPE   H8R 7380   4.904   4.040   4.991  0.1878 -0.0650  0.0137
   81SOPE   H8S 7381   5.062   4.012   5.082  1.2874 -0.8787 -1.4613
   81SOPE   C29 7382   5.005   3.859   4.940 -0.2282  0.3477  0.8799
   81SOPE   H91 7383   4.915   3.810   4.900 -0.9013 -0.1215  2.8450
   81SOPE  C210 7384   5.128   3.829   4.902 -0.6773 -0.6382  0.4941
   81SOPE  H101 7385   5.135   3.760   4.817 -0.5228  0.7324 -0.6432
   81SOPE  C211 7386   5.254   3.909   4.923 -0.8422  0.5309 -0.4841
   81SOPE  H11R 7387   5.333   3.832   4.913 -0.4476  0.9544 -0.6477
   81SOPE  H11S 7388   5.268   3.953   5.023  1.2955 -1.5952  0.2578
   81SOPE  C212 7389   5.276   4.025   4.826  0.1520  0.0207 -0.0887
   81SOPE  H12R 7390   5.194   4.099   4.838  0.1127  0.2485 -1.5599
   81SOPE  H12S 7391   5.271   3.987   4.722  0.9330  1.0865 -0.5330
   81SOPE  C213 7392   5.411   4.093   4.846 -0.2103 -0.3495 -0.0377
   81SOPE  H13R 7393   5.495   4.020   4.844  0.5630  0.4024  1.9969
   81SOPE  H13S 7394   5.421   4.141   4.946 -0.9350 -3.8822  1.8987
   81SOPE  C214 7395   5.433   4.206   4.740  0.1131  0.0540  0.0144
   81SOPE  H14R 7396   5.426   4.162   4.638 -1.7941  0.3482 -0.0214
   81SOPE  H14S 7397   5.541   4.232   4.747  0.2900 -0.9063  1.2507
   81SOPE  C215 7398   5.344   4.328   4.769  0.0646  0.1964 -0.0088
   81SOPE  H15R 7399   5.358   4.350   4.877  0.2402  0.9874 -0.1903
   81SOPE  H15S 7400   5.236   4.308   4.753  0.5238 -1.2616 -1.6100
   81SOPE  C216 7401   5.378   4.453   4.685 -0.2350 -0.2990  0.8008
   81SOPE  H16R 7402   5.358   4.431   4.579  1.5068 -0.4738  0.4676
   81SOPE  H16S 7403   5.488   4.470   4.693 -0.3078 -0.2866  2.1141
   81SOPE  C217 7404   5.299   4.582   4.710 -0.6717  0.1132 -0.3868
   81SOPE  H17R 7405   5.312   4.608   4.817  2.0362  1.3886 -0.9118
   81SOPE  H17S 7406   5.200   4.539   4.685  0.1362 -0.5247 -2.8053
   81SOPE  C218 7407   5.338   4.698   4.620 -0.0814  0.1280 -0.3784
   81SOPE  H18R 7408   5.289   4.792   4.653 -1.3004  0.4933 -3.0072
   81SOPE  H18S 7409   5.329   4.669   4.514 -1.1677  0.3528 -0.3648
   81SOPE  H18T 7410   5.445   4.719   4.641  0.0643  0.1320 -1.1092
   81SOPE   C33 7411   4.223   4.748   5.537  0.4060  0.3292 -0.0863
   81SOPE   H3X 7412   4.132   4.786   5.587  1.9175 -0.0671  3.2388
   81SOPE   H3Y 7413   4.198   4.657   5.478  0.5093 -0.4940  1.1148
   81SOPE   C34 7414   4.271   4.859   5.442  0.0989 -0.3757 -0.0236
   81SOPE   H4X 7415   4.375   4.847   5.406  0.0630 -3.9924  0.7440
   81SOPE   H4Y 7416   4.264   4.948   5.508  0.3883 -0.6884  0.4319
   81SOPE   C35 7417   4.174   4.882   5.323  0.1574  0.3927 -0.5608
   81SOPE   H5X 7418   4.195   4.977   5.269 -1.2687  1.6695  1.0316
   81SOPE   H5Y 7419   4.074   4.904   5.366  0.5197  0.5471  0.2208
   81SOPE   C36 7420   4.163   4.766   5.227 -0.3202 -0.3405  0.5093
   81SOPE   H6X 7421   4.125   4.672   5.273 -0.1228 -0.4541  0.4419
   81SOPE   H6Y 7422   4.265   4.749   5.185 -0.6972 -0.0612 -0.5396
   81SOPE   C37 7423   4.080   4.793   5.098  0.1384 -0.7594 -0.7345
   81SOPE   H7X 7424   4.115   4.890   5.055 -1.2656 -0.7084 -1.8334
   81SOPE   H7Y 7425   3.974   4.804   5.129  0.5498  1.9584 -0.0225
   81SOPE   C38 7426   4.105   4.688   4.995 -0.2080  0.1771  0.3689
   81SOPE   H8X 7427   4.076   4.587   5.030  0.4828  0.1344  0.8532
   81SOPE   H8Y 7428   4.213   4.688   4.968  0.2010 -0.1643  1.8694
   81SOPE   C39 7429   4.014   4.718   4.877  1.1500 -0.1400  0.2014
   81SOPE   H9X 7430   4.044   4.819   4.843  1.3080  0.2713  1.5177
   81SOPE   H9Y 7431   3.915   4.717   4.927  2.2472 -1.4033  2.5252
   81SOPE  C310 7432   4.002   4.633   4.743  0.1020  0.3167  0.2284
   81SOPE  H10X 7433   3.967   4.532   4.772  1.1648 -0.4193 -0.9758
   81SOPE  H10Y 7434   4.104   4.620   4.703  1.4333  0.1939  3.3876
   81SOPE  C311 7435   3.898   4.687   4.637 -0.6284 -0.4484  0.4050
   81SOPE  H11X 7436   3.797   4.679   4.683 -0.4207  0.8125  1.1526
   81SOPE  H11Y 7437   3.920   4.615   4.556  2.1173 -1.0221  1.5380
   81SOPE  C312 7438   3.916   4.831   4.594  0.3106 -0.6322 -0.1274
   81SOPE  H12X 7439   4.022   4.858   4.572 -0.1961  3.9787  1.9824
   81SOPE  H12Y 7440   3.891   4.894   4.682 -1.1670  1.3340 -1.8722
   81SOPE  C313 7441   3.838   4.868   4.465  0.5826  0.5365  0.7267
   81SOPE  H13X 7442   3.730   4.843   4.463  0.8175 -0.4922 -0.2815
   81SOPE  H13Y 7443   3.871   4.799   4.384 -1.8647 -0.9419  0.8882
   81SOPE  C314 7444   3.886   5.004   4.420 -0.7954 -0.5509  0.1004
   81SOPE  H14X 7445   3.997   5.000   4.420 -0.7528 -0.1877  1.7439
   81SOPE  H14Y 7446   3.860   5.073   4.504  1.0787  0.5629 -0.1809
   81SOPE  C315 7447   3.836   5.066   4.288 -0.3350  0.2272 -0.5087
   81SOPE  H15X 7448   3.735   5.025   4.272 -1.7382  3.1090  0.2618
   81SOPE  H15Y 7449   3.891   5.028   4.199  0.8424  1.5097 -0.3701
   81SOPE  C316 7450   3.841   5.218   4.292 -0.0340  0.5811  0.0647
   81SOPE  H16X 7451   3.777   5.246   4.378 -1.6319 -4.2342  0.7160
   81SOPE  H16Y 7452   3.789   5.253   4.200 -1.2523 -1.1542  0.0488
   81SOPE  C317 7453   3.983   5.277   4.294 -0.1133 -0.0767 -0.5316
   81SOPE  H17X 7454   4.031   5.204   4.226 -1.4013 -0.9801 -0.5259
   81SOPE  H17Y 7455   4.020   5.258   4.398 -0.4174  1.8647 -0.0378
   81SOPE  C318 7456   4.000   5.421   4.237 -0.3835  0.0367  0.7197
   81SOPE  H18X 7457   3.940   5.495   4.294 -0.2779 -1.5497  3.0585
   81SOPE  H18Y 7458   3.970   5.417   4.130 -0.4325 -2.4855  0.7611
   81SOPE  H18Z 7459   4.106   5.453   4.246  0.0796 -1.2572  0.1894
   82SOPE     N 7460   3.500   4.417   6.327  0.6061 -0.5559 -0.3548
   82SOPE   HN1 7461   3.503   4.313   6.320  2.6208 -0.7988  2.6138
   82SOPE   HN2 7462   3.595   4.439   6.362  1.8634 -2.5350 -2.2423
   82SOPE   HN3 7463   3.430   4.443   6.400  0.5289 -2.2938  0.2373
   82SOPE   C12 7464   3.475   4.480   6.196  0.2244 -0.5643  0.0367
   82SOPE  H12A 7465   3.377   4.444   6.159  1.0866 -0.7028 -2.2951
   82SOPE  H12B 7466   3.556   4.452   6.125  0.0946  1.5777 -1.0679
   82SOPE   C11 7467   3.446   4.636   6.205  0.4785 -0.5593  0.4019
   82SOPE  H11A 7468   3.396   4.679   6.115  0.4934 -1.1151  0.1240
   82SOPE  H11B 7469   3.548   4.678   6.198 -0.7846  2.7363 -0.1395
   82SOPE     P 7470   3.255   4.640   6.381  0.0944  0.1509  0.4635
   82SOPE   O13 7471   3.177   4.745   6.451 -0.0855 -0.3701 -0.0175
   82SOPE   O14 7472   3.268   4.511   6.448  0.7537 -0.1488  0.2056
   82SOPE   O12 7473   3.396   4.684   6.333  0.3230 -0.2141  0.2601
   82SOPE   O11 7474   3.187   4.610   6.240  0.1832 -0.1708  0.2218
   82SOPE    C1 7475   3.057   4.659   6.194 -0.8490  0.1306 -0.3861
   82SOPE    HA 7476   3.063   4.707   6.094  0.1161  1.1932  0.1533
   82SOPE    HB 7477   3.008   4.736   6.256 -1.5382  0.2260 -1.0378
   82SOPE    C2 7478   2.950   4.544   6.186  0.0530 -0.6395  0.6845
   82SOPE    HS 7479   2.967   4.466   6.263 -1.6406  1.0285  2.9130
   82SOPE   O21 7480   2.955   4.485   6.052 -0.2107 -0.0412 -0.4676
   82SOPE   C21 7481   2.901   4.365   6.037  0.4415 -0.1458 -0.6329
   82SOPE   O22 7482   2.842   4.301   6.122  0.6520  0.3853  0.0039
   82SOPE   C22 7483   2.927   4.321   5.890 -0.1346 -0.7919 -0.0282
   82SOPE   H2R 7484   3.023   4.266   5.902  0.2073  0.2610  2.9878
   82SOPE   H2S 7485   2.930   4.407   5.820  1.6284  0.3400  1.3387
   82SOPE    C3 7486   2.808   4.597   6.226 -0.1557  0.0302  0.5702
   82SOPE    HX 7487   2.810   4.615   6.336 -1.5286 -0.4064  0.6846
   82SOPE    HY 7488   2.730   4.521   6.206  0.4184 -1.4429  3.4140
   82SOPE   O31 7489   2.775   4.714   6.149  0.3527 -0.3134 -0.0588
   82SOPE   C31 7490   2.725   4.692   6.024  0.0691 -0.5791 -0.1476
   82SOPE   O32 7491   2.685   4.586   5.986  0.0774  0.0768  0.2178
   82SOPE   C32 7492   2.730   4.822   5.949  0.4167  0.1246 -0.3593
   82SOPE   H2X 7493   2.832   4.842   5.909  0.4932  1.5057  0.4710
   82SOPE   H2Y 7494   2.711   4.903   6.022 -2.1019 -0.0411 -0.7570
   82SOPE   C23 7495   2.820   4.221   5.839 -0.1190 -0.4454  0.4405
   82SOPE   H3R 7496   2.719   4.267   5.851 -0.4958 -0.6196 -1.6753
   82SOPE   H3S 7497   2.825   4.132   5.906  0.2381 -1.9637 -1.5307
   82SOPE   C24 7498   2.816   4.190   5.688  0.8489  0.1117  0.0415
   82SOPE   H4R 7499   2.771   4.089   5.693 -1.8396  1.2708  3.1385
   82SOPE   H4S 7500   2.751   4.266   5.639 -1.0352  0.0563  2.2764
   82SOPE   C25 7501   2.948   4.184   5.608 -0.3748  0.7578  0.3178
   82SOPE   H5R 7502   2.985   4.289   5.597 -1.1023  1.0488  0.6037
   82SOPE   H5S 7503   3.008   4.115   5.671  1.5320  0.9051 -1.2205
   82SOPE   C26 7504   2.926   4.117   5.464 -0.5357  0.2918 -0.8559
   82SOPE   H6R 7505   2.904   4.011   5.489  0.9109  0.3849  1.0623
   82SOPE   H6S 7506   2.834   4.167   5.428 -0.9628  0.4275  0.3852
   82SOPE   C27 7507   3.041   4.133   5.361 -0.0959  0.2319  0.6763
   82SOPE   H7R 7508   3.050   4.242   5.345 -1.0249  0.4442  1.5267
   82SOPE   H7S 7509   3.140   4.105   5.403 -0.3783  0.3355  1.4305
   82SOPE   C28 7510   3.009   4.047   5.234 -0.6284 -0.6994  0.3139
   82SOPE   H8R 7511   2.996   3.939   5.256 -0.1506 -1.0552 -1.0541
   82SOPE   H8S 7512   2.914   4.086   5.193 -1.0293 -0.0080  1.8131
   82SOPE   C29 7513   3.121   4.051   5.128  0.1581  0.1649  0.1620
   82SOPE   H91 7514   3.223   4.033   5.167  2.0137  2.0098 -3.3877
   82SOPE  C210 7515   3.114   4.086   4.998  0.1821  0.2365 -0.0301
   82SOPE  H101 7516   3.208   4.074   4.942  1.9362 -0.5099  2.8587
   82SOPE  C211 7517   2.994   4.130   4.925  0.3607  0.1315  0.5248
   82SOPE  H11R 7518   3.015   4.233   4.890 -0.5810  0.3583  0.6142
   82SOPE  H11S 7519   2.901   4.136   4.985 -0.4491  1.4149 -0.7795
   82SOPE  C212 7520   2.964   4.035   4.803  0.8840  0.2641  0.0889
   82SOPE  H12R 7521   2.921   3.942   4.848  0.0238  0.0126 -1.2032
   82SOPE  H12S 7522   3.057   4.009   4.747  1.1433 -2.8870  1.7042
   82SOPE  C213 7523   2.865   4.107   4.712 -0.3477  0.5175 -1.1296
   82SOPE  H13R 7524   2.910   4.205   4.683  0.4150  1.0800  1.6734
   82SOPE  H13S 7525   2.770   4.134   4.764  1.7038  1.6468  2.3761
   82SOPE  C214 7526   2.818   4.025   4.589  0.1726 -1.3391 -0.7445
   82SOPE  H14R 7527   2.901   3.995   4.521  1.4847 -0.3820  0.3819
   82SOPE  H14S 7528   2.759   4.092   4.522 -0.0826 -1.0159 -0.2084
   82SOPE  C215 7529   2.731   3.902   4.623 -0.1217 -0.1949  0.1087
   82SOPE  H15R 7530   2.794   3.832   4.683  2.8044  0.4289 -2.0098
   82SOPE  H15S 7531   2.699   3.868   4.522  0.1529 -2.5369  0.7500
   82SOPE  C216 7532   2.603   3.933   4.706 -0.2606  0.3885 -0.4229
   82SOPE  H16R 7533   2.531   3.998   4.652 -2.6810 -1.2724  0.6529
   82SOPE  H16S 7534   2.621   3.998   4.794 -3.3364 -0.4802  0.9794
   82SOPE  C217 7535   2.531   3.801   4.746 -0.1031  0.4033 -0.4064
   82SOPE  H17R 7536   2.610   3.729   4.776 -2.5960 -2.5643 -0.4183
   82SOPE  H17S 7537   2.485   3.765   4.651  0.4470 -1.5986  0.0349
   82SOPE  C218 7538   2.441   3.812   4.866 -0.0276  0.6711  0.0112
   82SOPE  H18R 7539   2.345   3.862   4.844  0.3079  0.5843 -1.7653
   82SOPE  H18S 7540   2.490   3.879   4.940  4.8401 -1.6691 -0.6673
   82SOPE  H18T 7541   2.420   3.710   4.907 -0.1953 -0.1417 -1.9908
   82SOPE   C33 7542   2.633   4.824   5.832  0.5685 -0.0874 -0.8970
   82SOPE   H3X 7543   2.528   4.835   5.866  0.1795 -2.9377 -0.8949
   82SOPE   H3Y 7544   2.623   4.726   5.782  1.8146 -0.1377 -1.0818
   82SOPE   C34 7545   2.676   4.932   5.732 -0.3723 -0.1023  0.5078
   82SOPE   H4X 7546   2.775   4.902   5.694 -0.4969 -0.1220  0.1924
   82SOPE   H4Y 7547   2.694   5.023   5.793  0.9981  0.1266 -0.2182
   82SOPE   C35 7548   2.591   4.951   5.603  0.5008 -0.0232 -0.3840
   82SOPE   H5X 7549   2.500   5.011   5.625  0.0835 -1.3606  1.8603
   82SOPE   H5Y 7550   2.563   4.850   5.567  0.6826 -0.4206  0.5623
   82SOPE   C36 7551   2.670   5.030   5.492 -0.1450  0.1716 -0.4811
   82SOPE   H6X 7552   2.763   4.975   5.464  1.5888  2.4749  0.4761
   82SOPE   H6Y 7553   2.694   5.132   5.529 -1.1177 -0.4735  2.1895
   82SOPE   C37 7554   2.586   5.046   5.365  0.5020 -0.2827  0.0526
   82SOPE   H7X 7555   2.506   5.119   5.393  0.0941 -1.3851  1.8859
   82SOPE   H7Y 7556   2.532   4.955   5.331 -1.0663  1.5006 -2.7336
   82SOPE   C38 7557   2.677   5.089   5.249 -0.3945 -0.2432 -0.8927
   82SOPE   H8X 7558   2.770   5.029   5.239  0.7134  1.4505 -1.0796
   82SOPE   H8Y 7559   2.721   5.185   5.283 -0.5808 -0.2134 -0.7281
   82SOPE   C39 7560   2.606   5.102   5.113  0.1897  0.3187 -0.2198
   82SOPE   H9X 7561   2.524   5.177   5.114 -0.5715 -0.5098 -0.2279
   82SOPE   H9Y 7562   2.564   5.005   5.079  1.9008 -0.4856 -0.1882
   82SOPE  C310 7563   2.705   5.145   5.004 -0.4583  0.0315  0.2609
   82SOPE  H10X 7564   2.785   5.067   5.002 -0.2142  0.1896  1.9775
   82SOPE  H10Y 7565   2.755   5.242   5.024  1.8569 -1.0341  0.0528
   82SOPE  C311 7566   2.647   5.131   4.864 -0.0508 -0.0729 -0.2317
   82SOPE  H11X 7567   2.610   5.028   4.847  2.9608 -1.7961  2.6576
   82SOPE  H11Y 7568   2.732   5.140   4.793 -1.1301 -0.3006 -1.5963
   82SOPE  C312 7569   2.536   5.235   4.834  0.2338 -0.6450  0.6847
   82SOPE  H12X 7570   2.575   5.338   4.831 -0.4528 -0.3987 -0.5027
   82SOPE  H12Y 7571   2.476   5.223   4.927  0.9331 -2.7334  0.9251
   82SOPE  C313 7572   2.455   5.207   4.704 -0.9361 -0.1075  0.0715
   82SOPE  H13X 7573   2.429   5.100   4.702 -0.8427 -0.1420  0.5345
   82SOPE  H13Y 7574   2.525   5.230   4.620 -1.4437 -3.1782 -1.3040
   82SOPE  C314 7575   2.327   5.291   4.673 -0.2837 -0.6903 -0.4508
   82SOPE  H14X 7576   2.351   5.398   4.654 -1.8014 -0.1117  0.7516
   82SOPE  H14Y 7577   2.249   5.297   4.751 -0.0039  1.2448 -0.2697
   82SOPE  C315 7578   2.265   5.242   4.543 -0.3716 -0.5101  0.1367
   82SOPE  H15X 7579   2.222   5.141   4.559 -0.3944 -0.8624 -1.9559
   82SOPE  H15Y 7580   2.339   5.243   4.461  0.8920  3.2962  1.0985
   82SOPE  C316 7581   2.139   5.327   4.503 -0.2754 -0.0677 -0.1740
   82SOPE  H16X 7582   2.189   5.413   4.453  1.4173 -0.7317  0.2921
   82SOPE  H16Y 7583   2.088   5.364   4.594 -0.3525  0.1598 -0.3088
   82SOPE  C317 7584   2.051   5.255   4.406 -0.2653  0.1965  0.0613
   82SOPE  H17X 7585   1.998   5.180   4.468 -0.3477  0.3523  0.1810
   82SOPE  H17Y 7586   2.108   5.197   4.331 -2.5759 -3.9041  1.1395
   82SOPE  C318 7587   1.952   5.342   4.329 -0.1913 -0.3835  0.2761
   82SOPE  H18X 7588   2.009   5.436   4.316  0.1879 -0.4212  1.5653
   82SOPE  H18Y 7589   1.871   5.379   4.395  0.8095  0.4344  1.0748
   82SOPE  H18Z 7590   1.919   5.292   4.235  0.4623  1.8349 -1.2193
   83SOPE     N 7591   0.992   5.337   2.223  0.0627  0.2411  0.4981
   83SOPE   HN1 7592   0.995   5.339   2.119 -1.8217  1.8568  0.4119
   83SOPE   HN2 7593   1.076   5.287   2.259  0.5219  1.2305  0.8470
   83SOPE   HN3 7594   0.909   5.301   2.275  0.6366 -0.0808  1.2022
   83SOPE   C12 7595   1.000   5.485   2.255  1.1298  0.1181  0.0987
   83SOPE  H12A 7596   1.079   5.532   2.193  1.8336 -1.3430 -0.1430
   83SOPE  H12B 7597   1.020   5.490   2.364 -1.8020  1.9431  0.6811
   83SOPE   C11 7598   0.864   5.554   2.218  0.1190 -0.0068 -0.1853
   83SOPE  H11A 7599   0.863   5.555   2.107 -2.0763 -1.9042 -0.2499
   83SOPE  H11B 7600   0.875   5.654   2.265  0.1091  1.6446 -3.4307
   83SOPE     P 7601   0.611   5.554   2.254  0.0731  0.7580 -0.0530
   83SOPE   O13 7602   0.524   5.464   2.170 -0.3293 -0.1989  0.5678
   83SOPE   O14 7603   0.636   5.692   2.207 -0.4877 -0.6862  0.8694
   83SOPE   O12 7604   0.751   5.486   2.272  0.3655 -0.4481  0.2121
   83SOPE   O11 7605   0.571   5.546   2.405 -0.3819  0.1756  0.2915
   83SOPE    C1 7606   0.564   5.427   2.492 -0.5364  0.5387 -0.6573
   83SOPE    HA 7607   0.611   5.340   2.442  2.5347  1.5569  0.2663
   83SOPE    HB 7608   0.458   5.393   2.498 -0.8780  1.4011 -1.4718
   83SOPE    C2 7609   0.626   5.451   2.634 -0.1102 -0.5946 -0.6917
   83SOPE    HS 7610   0.614   5.357   2.692  1.2691 -0.9830 -0.9935
   83SOPE   O21 7611   0.569   5.565   2.699  0.3935 -0.2981 -0.0320
   83SOPE   C21 7612   0.437   5.549   2.732  0.9155  0.1017 -0.2900
   83SOPE   O22 7613   0.378   5.444   2.714 -0.0132 -0.2343 -0.6667
   83SOPE   C22 7614   0.380   5.669   2.788  0.4350  0.4679  0.3433
   83SOPE   H2R 7615   0.301   5.711   2.722  2.3182  1.0383 -1.6387
   83SOPE   H2S 7616   0.458   5.747   2.803  1.7795 -0.8800  0.5626
   83SOPE    C3 7617   0.778   5.478   2.621  0.4337 -0.3439 -0.0415
   83SOPE    HX 7618   0.787   5.562   2.549 -0.3785 -1.3577 -1.3629
   83SOPE    HY 7619   0.823   5.398   2.558 -1.2841  0.3555 -2.3086
   83SOPE   O31 7620   0.846   5.519   2.741  0.0648 -0.0428 -0.7096
   83SOPE   C31 7621   0.885   5.418   2.818  0.0638 -0.2089  0.3488
   83SOPE   O32 7622   0.868   5.298   2.804 -0.9316 -0.6522 -0.0494
   83SOPE   C32 7623   0.980   5.476   2.922  0.8889 -0.0720  0.0077
   83SOPE   H2X 7624   0.932   5.559   2.977  1.2730 -0.9407  1.7068
   83SOPE   H2Y 7625   1.062   5.523   2.864 -0.5297  1.7918 -0.5847
   83SOPE   C23 7626   0.313   5.657   2.936  0.1036 -0.2907 -0.7168
   83SOPE   H3R 7627   0.394   5.639   3.010 -1.1211 -0.0635  0.7192
   83SOPE   H3S 7628   0.253   5.564   2.931  1.5143 -1.3467  0.9410
   83SOPE   C24 7629   0.234   5.791   2.974  0.0347  0.2624  0.9218
   83SOPE   H4R 7630   0.304   5.873   2.999  1.4484 -1.0113  1.3026
   83SOPE   H4S 7631   0.167   5.814   2.888  0.8957 -0.6138 -0.0227
   83SOPE   C25 7632   0.136   5.773   3.093 -0.7192  0.4380  0.0875
   83SOPE   H5R 7633   0.079   5.865   3.117 -2.4065 -0.2749 -0.9562
   83SOPE   H5S 7634   0.056   5.710   3.048  0.9237 -0.2692 -2.0782
   83SOPE   C26 7635   0.205   5.704   3.210  0.3822 -0.6781 -0.3884
   83SOPE   H6R 7636   0.246   5.603   3.190  0.2675 -0.9517  0.6785
   83SOPE   H6S 7637   0.287   5.772   3.242 -0.0483  0.4051 -1.5059
   83SOPE   C27 7638   0.111   5.700   3.335 -0.0507  0.4020 -0.4916
   83SOPE   H7R 7639   0.084   5.798   3.379 -0.5275 -0.2274  0.6852
   83SOPE   H7S 7640   0.023   5.636   3.313 -0.0483  0.3981 -0.4901
   83SOPE   C28 7641   0.175   5.626   3.447  0.2872  0.3826 -0.3050
   83SOPE   H8R 7642   0.100   5.602   3.525 -0.8066  0.4188 -1.3119
   83SOPE   H8S 7643   0.217   5.531   3.407 -1.6066 -0.7652  0.3135
   83SOPE   C29 7644   0.292   5.703   3.504 -0.4526  0.2394  0.6395
   83SOPE   H91 7645   0.395   5.672   3.480 -0.2202  0.7444  0.9695
   83SOPE  C210 7646   0.285   5.818   3.574  0.4490 -0.0939  0.0565
   83SOPE  H101 7647   0.380   5.864   3.606  0.8907 -0.9086 -0.0334
   83SOPE  C211 7648   0.162   5.885   3.630 -0.2838  0.0683 -0.3371
   83SOPE  H11R 7649   0.079   5.880   3.556 -0.9103 -1.5046  0.4220
   83SOPE  H11S 7650   0.193   5.990   3.646 -0.3883  0.1203 -0.4775
   83SOPE  C212 7651   0.117   5.845   3.771 -0.7804 -0.1813  0.3849
   83SOPE  H12R 7652   0.184   5.900   3.840  1.4603 -1.1379 -0.9099
   83SOPE  H12S 7653   0.124   5.738   3.797 -0.3387  0.0058  1.0594
   83SOPE  C213 7654  -0.030   5.891   3.789 -0.0879  0.3629 -1.1639
   83SOPE  H13R 7655  -0.089   5.834   3.714 -1.4451  1.5117 -1.0141
   83SOPE  H13S 7656  -0.045   6.001   3.779 -0.2525  0.8830  3.1488
   83SOPE  C214 7657  -0.085   5.850   3.929 -0.2651  0.8361  0.1275
   83SOPE  H14R 7658  -0.067   5.740   3.935 -0.0511  0.7823 -1.2367
   83SOPE  H14S 7659  -0.195   5.865   3.922 -0.2517  0.9445  0.1476
   83SOPE  C215 7660  -0.004   5.922   4.044  0.3361 -0.4632 -0.0855
   83SOPE  H15R 7661  -0.012   6.030   4.018 -2.3423 -0.9968 -1.8839
   83SOPE  H15S 7662   0.105   5.910   4.060  0.6065  0.8006 -0.8650
   83SOPE  C216 7663  -0.064   5.887   4.184  1.0224 -0.2276  1.2739
   83SOPE  H16R 7664  -0.046   5.777   4.183  1.4500 -0.1770  2.1211
   83SOPE  H16S 7665  -0.173   5.909   4.186  0.6793 -1.6771  0.0213
   83SOPE  C217 7666   0.013   5.943   4.308  0.3487  0.5286  0.5764
   83SOPE  H17R 7667   0.011   6.054   4.303  1.4783  0.5545  0.3730
   83SOPE  H17S 7668   0.122   5.926   4.302  0.3807  0.9454 -0.2153
   83SOPE  C218 7669  -0.032   5.897   4.448  0.0570  0.0675  0.5852
   83SOPE  H18R 7670   0.050   5.932   4.515  2.2003  0.8050 -2.2278
   83SOPE  H18S 7671  -0.030   5.786   4.459 -0.3507  0.0582  0.5894
   83SOPE  H18T 7672  -0.132   5.939   4.475 -1.2391 -2.3431 -0.2092
   83SOPE   C33 7673   1.019   5.365   3.019 -0.2952 -0.2563  0.5343
   83SOPE   H3X 7674   1.047   5.278   2.956 -0.2924  1.9671 -2.7611
   83SOPE   H3Y 7675   0.928   5.334   3.075 -2.0874  2.2114 -0.7928
   83SOPE   C34 7676   1.140   5.412   3.100 -0.2443  0.3724  0.4751
   83SOPE   H4X 7677   1.113   5.490   3.174 -0.4660 -1.0554  1.9353
   83SOPE   H4Y 7678   1.223   5.450   3.037 -0.0188  1.1768  1.2394
   83SOPE   C35 7679   1.195   5.286   3.167  0.0557  0.2120 -0.8940
   83SOPE   H5X 7680   1.217   5.202   3.097 -0.6194  0.9165 -1.9817
   83SOPE   H5Y 7681   1.122   5.244   3.239  1.0395 -1.0308 -0.5729
   83SOPE   C36 7682   1.322   5.318   3.251 -0.8211 -1.1209 -0.2863
   83SOPE   H6X 7683   1.312   5.423   3.285 -3.4638 -0.1734 -3.4287
   83SOPE   H6Y 7684   1.412   5.303   3.187 -0.4732 -2.6151  0.4968
   83SOPE   C37 7685   1.336   5.226   3.369 -0.8135  0.1973  0.1162
   83SOPE   H7X 7686   1.437   5.242   3.412 -0.7075 -0.6008  0.1702
   83SOPE   H7Y 7687   1.326   5.120   3.338 -0.4676 -0.4455  2.0894
   83SOPE   C38 7688   1.244   5.250   3.495 -0.3642 -0.5702  0.6646
   83SOPE   H8X 7689   1.143   5.237   3.450  0.1917  0.2415 -0.8837
   83SOPE   H8Y 7690   1.265   5.357   3.511  0.0334 -0.9416  3.0578
   83SOPE   C39 7691   1.276   5.158   3.609  0.2270  0.2249  0.0110
   83SOPE   H9X 7692   1.215   5.199   3.692  1.8858 -0.6733  1.7429
   83SOPE   H9Y 7693   1.382   5.163   3.641  0.4233 -0.1491 -0.5517
   83SOPE  C310 7694   1.244   5.009   3.584  0.0071  0.2734 -0.2716
   83SOPE  H10X 7695   1.336   4.965   3.541 -0.4498  0.1544 -1.1673
   83SOPE  H10Y 7696   1.171   4.985   3.503 -0.4301 -3.4089  1.0045
   83SOPE  C311 7697   1.210   4.926   3.712  0.0677 -0.2940  0.5417
   83SOPE  H11X 7698   1.301   4.928   3.774  1.3834  1.8755 -1.2926
   83SOPE  H11Y 7699   1.206   4.821   3.677  1.9878 -0.6830  1.3791
   83SOPE  C312 7700   1.083   4.968   3.795 -0.2680 -0.2061 -0.2024
   83SOPE  H12X 7701   1.042   5.061   3.752  0.2991  0.7275  1.2256
   83SOPE  H12Y 7702   1.105   4.996   3.900  1.7140  3.0292 -1.3526
   83SOPE  C313 7703   0.970   4.859   3.779  0.5191  0.2626 -0.2084
   83SOPE  H13X 7704   0.980   4.820   3.676 -0.6686 -1.0671  0.1485
   83SOPE  H13Y 7705   0.874   4.914   3.788 -2.0620 -3.4204 -2.2686
   83SOPE  C314 7706   0.980   4.755   3.883 -0.1798  0.4787 -0.5300
   83SOPE  H14X 7707   0.983   4.800   3.985  0.0820 -0.5200 -0.0736
   83SOPE  H14Y 7708   1.074   4.696   3.868 -0.3003 -0.5113  2.0364
   83SOPE  C315 7709   0.865   4.660   3.868 -0.3179 -0.2868  0.4858
   83SOPE  H15X 7710   0.881   4.600   3.777  1.4091  1.7294 -0.6195
   83SOPE  H15Y 7711   0.772   4.721   3.865 -0.2282  0.0886  2.9272
   83SOPE  C316 7712   0.850   4.570   3.988  0.9428 -0.2499 -0.7131
   83SOPE  H16X 7713   0.774   4.491   3.969  0.6819 -0.1059 -0.2951
   83SOPE  H16Y 7714   0.816   4.630   4.076  1.3489  2.8313 -2.5146
   83SOPE  C317 7715   0.977   4.492   4.031  1.1998  0.4808  0.0958
   83SOPE  H17X 7716   1.054   4.560   4.073 -0.9897  2.0886  1.7822
   83SOPE  H17Y 7717   1.017   4.445   3.939 -1.9855  0.0240 -1.1751
   83SOPE  C318 7718   0.933   4.383   4.132  0.1375 -0.2035 -0.2622
   83SOPE  H18X 7719   0.885   4.429   4.221 -0.7532 -0.4132 -0.6208
   83SOPE  H18Y 7720   1.021   4.321   4.160  0.4886  0.3963 -0.0321
   83SOPE  H18Z 7721   0.860   4.314   4.082 -0.4316  0.8476 -0.9364
   84SOPE     N 7722   1.327   2.853   1.924  0.2204 -0.0330 -0.2377
   84SOPE   HN1 7723   1.337   2.834   2.026  0.9730  0.1413 -0.2749
   84SOPE   HN2 7724   1.376   2.940   1.897  2.0606  0.3729  3.6651
   84SOPE   HN3 7725   1.224   2.859   1.907  0.3570  1.8011 -0.6112
   84SOPE   C12 7726   1.378   2.753   1.824  0.2509 -0.5262 -0.8573
   84SOPE  H12A 7727   1.485   2.734   1.844 -0.2324 -0.3195  2.4744
   84SOPE  H12B 7728   1.364   2.803   1.725 -1.2227  0.9227  0.0296
   84SOPE   C11 7729   1.294   2.628   1.828  0.1090  0.3299  0.8998
   84SOPE  H11A 7730   1.306   2.585   1.930 -1.1446  0.1160  0.9799
   84SOPE  H11B 7731   1.336   2.552   1.759 -0.3414  2.3691 -1.7806
   84SOPE     P 7732   1.058   2.548   1.748  0.1891 -0.0684  0.2066
   84SOPE   O13 7733   1.108   2.460   1.641  0.3076 -0.1707 -0.2341
   84SOPE   O14 7734   0.924   2.607   1.729 -0.2218  0.2279 -0.4435
   84SOPE   O12 7735   1.159   2.661   1.786 -0.2879 -0.1271 -0.0974
   84SOPE   O11 7736   1.051   2.458   1.882 -0.3093  0.0895  0.3170
   84SOPE    C1 7737   1.018   2.490   2.011 -0.1630  0.4587  0.2673
   84SOPE    HA 7738   1.000   2.599   2.025  0.4420  0.5504  0.3518
   84SOPE    HB 7739   1.104   2.472   2.078 -0.5745  0.2514  0.7387
   84SOPE    C2 7740   0.897   2.413   2.083 -0.7655 -0.9460 -0.7675
   84SOPE    HS 7741   0.879   2.447   2.187 -0.7832 -1.4157 -0.6157
   84SOPE   O21 7742   0.915   2.273   2.098  0.1979  0.5086 -0.1202
   84SOPE   C21 7743   0.991   2.233   2.199 -0.0309  0.1254  0.3051
   84SOPE   O22 7744   1.050   2.306   2.276 -0.3285  0.6882  0.5358
   84SOPE   C22 7745   1.001   2.086   2.182  0.1459 -0.6123 -0.1397
   84SOPE   H2R 7746   1.020   2.072   2.074  1.6269 -0.1295  0.0389
   84SOPE   H2S 7747   0.909   2.035   2.218 -0.1119  0.9117  1.4979
   84SOPE    C3 7748   0.767   2.433   2.004  0.4226  0.2757 -0.2120
   84SOPE    HX 7749   0.780   2.412   1.896  0.8340  2.5818 -0.6681
   84SOPE    HY 7750   0.748   2.542   2.011  1.7006  0.3986  2.4192
   84SOPE   O31 7751   0.658   2.365   2.069  0.2332  0.3731  0.0116
   84SOPE   C31 7752   0.631   2.246   2.016  0.7737  0.5394  0.2358
   84SOPE   O32 7753   0.683   2.197   1.917 -0.2674 -0.1017 -0.2422
   84SOPE   C32 7754   0.521   2.180   2.099  0.0218 -0.0324 -0.0996
   84SOPE   H2X 7755   0.452   2.125   2.031 -1.1668  0.5642  0.5935
   84SOPE   H2Y 7756   0.466   2.264   2.146  1.6352 -0.2354  2.3361
   84SOPE   C23 7757   1.126   2.029   2.249 -0.2581 -0.2994 -0.3657
   84SOPE   H3R 7758   1.225   2.073   2.224  0.9190 -2.2130  0.6375
   84SOPE   H3S 7759   1.143   1.922   2.222  2.1526 -0.0626 -0.0086
   84SOPE   C24 7760   1.111   2.017   2.409 -0.2975  0.3382 -0.0771
   84SOPE   H4R 7761   1.059   2.103   2.457  1.7103  0.7786  1.4310
   84SOPE   H4S 7762   1.056   1.922   2.425  2.7557 -1.6853 -0.7476
   84SOPE   C25 7763   1.249   1.990   2.479  0.5517  0.9883  0.0656
   84SOPE   H5R 7764   1.317   1.922   2.422 -0.6447 -0.8771  0.7853
   84SOPE   H5S 7765   1.305   2.085   2.484  0.9496  0.9569 -2.3621
   84SOPE   C26 7766   1.235   1.931   2.620  0.6578 -0.0877 -0.4323
   84SOPE   H6R 7767   1.161   1.848   2.626 -1.3421  1.6486  0.0972
   84SOPE   H6S 7768   1.334   1.884   2.641  2.4288  1.9484 -3.5056
   84SOPE   C27 7769   1.192   2.038   2.725 -0.1020 -0.3892  0.7096
   84SOPE   H7R 7770   1.271   2.115   2.740  1.4538 -1.5271 -1.1249
   84SOPE   H7S 7771   1.099   2.081   2.684  0.4043  0.3693  0.3275
   84SOPE   C28 7772   1.161   1.982   2.863 -0.3775  0.2498 -0.9727
   84SOPE   H8R 7773   1.115   2.067   2.919 -0.9306 -0.6343 -0.0505
   84SOPE   H8S 7774   1.073   1.914   2.860 -0.5195  0.2390  1.5034
   84SOPE   C29 7775   1.278   1.911   2.930  1.0569  0.1824 -0.0414
   84SOPE   H91 7776   1.377   1.958   2.919  1.1800 -0.4238 -1.8299
   84SOPE  C210 7777   1.277   1.802   3.009 -0.2325  0.1758 -0.6001
   84SOPE  H101 7778   1.369   1.753   3.046 -0.1028  1.7046  1.2711
   84SOPE  C211 7779   1.151   1.736   3.049  0.4568  0.0858 -0.0517
   84SOPE  H11R 7780   1.135   1.632   3.013 -2.8880  0.7593 -0.8725
   84SOPE  H11S 7781   1.063   1.794   3.015  0.6224 -1.1203 -2.7733
   84SOPE  C212 7782   1.132   1.715   3.203 -0.3135 -0.2054  0.4086
   84SOPE  H12R 7783   1.029   1.690   3.235  0.2633 -0.2558  2.4225
   84SOPE  H12S 7784   1.152   1.820   3.234 -1.8879  0.3261 -0.2889
   84SOPE  C213 7785   1.226   1.620   3.278 -0.2863  1.1621  0.9239
   84SOPE  H13R 7786   1.325   1.664   3.252 -1.1869  2.3576 -0.7149
   84SOPE  H13S 7787   1.218   1.517   3.236  2.9972  0.8635  0.7642
   84SOPE  C214 7788   1.211   1.624   3.423 -0.4000 -0.7818 -0.5230
   84SOPE  H14R 7789   1.111   1.583   3.449 -0.1249 -1.4432 -0.4915
   84SOPE  H14S 7790   1.217   1.731   3.454  1.5158 -0.3763 -2.1119
   84SOPE  C215 7791   1.313   1.536   3.498 -0.2333 -0.3831  0.1952
   84SOPE  H15R 7792   1.414   1.561   3.460 -1.1956  2.2515 -0.8975
   84SOPE  H15S 7793   1.279   1.433   3.475 -2.7081  0.3172  0.3533
   84SOPE  C216 7794   1.311   1.550   3.652  0.0122 -0.4024  0.0709
   84SOPE  H16R 7795   1.325   1.452   3.703 -0.4989  0.4759  2.0409
   84SOPE  H16S 7796   1.208   1.589   3.671  0.5405  2.0988 -1.6634
   84SOPE  C217 7797   1.414   1.655   3.703  0.1385  0.9423 -0.1157
   84SOPE  H17R 7798   1.414   1.735   3.626  0.5959  0.9421 -0.1191
   84SOPE  H17S 7799   1.514   1.609   3.696 -0.2063  0.0144  0.7669
   84SOPE  C218 7800   1.388   1.718   3.838  0.5889 -0.2534  0.1488
   84SOPE  H18R 7801   1.295   1.776   3.855  0.5998  0.2917 -1.4944
   84SOPE  H18S 7802   1.466   1.795   3.853  0.0848  0.9719 -2.8089
   84SOPE  H18T 7803   1.384   1.644   3.921  2.0931 -1.9450 -1.2217
   84SOPE   C33 7804   0.571   2.091   2.216 -0.1915 -0.6789  0.7589
   84SOPE   H3X 7805   0.644   2.015   2.182 -0.4055 -0.1641 -1.0037
   84SOPE   H3Y 7806   0.489   2.019   2.236  0.7473 -2.3354 -0.9819
   84SOPE   C34 7807   0.615   2.166   2.336  0.1756  0.1147  0.1639
   84SOPE   H4X 7808   0.524   2.208   2.385  0.0379 -0.2486  0.2164
   84SOPE   H4Y 7809   0.684   2.251   2.317  0.8202 -0.0768  1.5633
   84SOPE   C35 7810   0.681   2.079   2.434  0.2106  0.4959 -0.2151
   84SOPE   H5X 7811   0.755   2.018   2.379 -1.7758 -0.9095 -1.4038
   84SOPE   H5Y 7812   0.608   2.007   2.477  0.3676  0.7425  0.4954
   84SOPE   C36 7813   0.738   2.161   2.551  0.0657  0.2071 -0.3854
   84SOPE   H6X 7814   0.669   2.245   2.571  1.9882  1.4127  1.7880
   84SOPE   H6Y 7815   0.838   2.206   2.533  1.5552 -1.7247  2.2575
   84SOPE   C37 7816   0.751   2.073   2.670  0.2126  0.1032 -0.2572
   84SOPE   H7X 7817   0.830   1.996   2.656 -1.3985 -1.6466 -0.2174
   84SOPE   H7Y 7818   0.653   2.023   2.686 -0.8631  2.1227 -0.2077
   84SOPE   C38 7819   0.781   2.157   2.797  0.7478  0.2401  0.3362
   84SOPE   H8X 7820   0.686   2.211   2.817  1.2488  0.6132  1.8415
   84SOPE   H8Y 7821   0.864   2.229   2.783  0.8211  0.6747  2.5967
   84SOPE   C39 7822   0.796   2.063   2.917 -0.0771 -0.0903  0.1336
   84SOPE   H9X 7823   0.883   1.995   2.909 -0.0944 -0.5200  2.6789
   84SOPE   H9Y 7824   0.709   1.994   2.919  0.0907 -0.3024  1.9572
   84SOPE  C310 7825   0.785   2.149   3.050 -0.0223  0.4114  0.1620
   84SOPE  H10X 7826   0.684   2.195   3.055  0.1201  0.6778  0.6957
   84SOPE  H10Y 7827   0.859   2.232   3.052  1.3232 -0.7707  0.7575
   84SOPE  C311 7828   0.812   2.058   3.167  0.1118  0.0790 -0.1318
   84SOPE  H11X 7829   0.907   2.002   3.157  1.2439  1.8113  0.5286
   84SOPE  H11Y 7830   0.733   1.979   3.165 -0.7039  0.8378  0.8740
   84SOPE  C312 7831   0.823   2.130   3.312  0.1808  0.6542 -0.4568
   84SOPE  H12X 7832   0.720   2.155   3.344 -0.1062 -1.2023  0.1916
   84SOPE  H12Y 7833   0.881   2.224   3.305  1.0233  0.2533  0.8997
   84SOPE  C313 7834   0.871   2.031   3.419  0.1170  0.4881 -0.6167
   84SOPE  H13X 7835   0.976   2.003   3.396  0.1145 -0.0567  0.0142
   84SOPE  H13Y 7836   0.807   1.940   3.418  1.5383 -0.6112  1.3245
   84SOPE  C314 7837   0.839   2.089   3.551  0.3565  0.2962 -0.3619
   84SOPE  H14X 7838   0.729   2.090   3.563  0.1740  2.2726 -1.7374
   84SOPE  H14Y 7839   0.876   2.193   3.546  2.6742 -0.3926  0.9893
   84SOPE  C315 7840   0.909   2.012   3.659  0.7321  0.6323 -0.1089
   84SOPE  H15X 7841   0.897   2.055   3.761  0.9094  0.8865 -0.1932
   84SOPE  H15Y 7842   1.018   2.020   3.643  1.0101 -2.9246 -0.8303
   84SOPE  C316 7843   0.861   1.867   3.659 -0.2767  0.2735 -0.6516
   84SOPE  H16X 7844   0.883   1.822   3.560 -1.6546  1.6882 -1.6448
   84SOPE  H16Y 7845   0.753   1.859   3.683  0.0064 -0.2449  0.5647
   84SOPE  C317 7846   0.933   1.790   3.773 -0.3724  0.4346  0.4128
   84SOPE  H17X 7847   0.906   1.833   3.872  1.0164  2.9567 -0.2255
   84SOPE  H17Y 7848   1.043   1.793   3.756 -0.3214 -0.5795  0.5331
   84SOPE  C318 7849   0.911   1.638   3.775  0.1287 -0.8260  0.3041
   84SOPE  H18X 7850   0.936   1.604   3.878  0.7005  0.8256  0.7356
   84SOPE  H18Y 7851   0.963   1.588   3.691 -0.7895  1.7898 -1.9608
   84SOPE  H18Z 7852   0.804   1.611   3.757 -0.8183  1.4294  2.0281
   85SOPE     N 7853   4.578   3.952   1.777 -0.0061  0.1006 -0.2356
   85SOPE   HN1 7854   4.619   3.907   1.693  1.0067  1.5841 -0.5826
   85SOPE   HN2 7855   4.641   4.029   1.809  2.4831 -1.9457  0.1453
   85SOPE   HN3 7856   4.577   3.882   1.854  0.8308  1.1611  0.7793
   85SOPE   C12 7857   4.436   4.002   1.754 -1.1942 -0.5251  0.1253
   85SOPE  H12A 7858   4.370   3.914   1.737 -1.4265 -0.2213 -0.5940
   85SOPE  H12B 7859   4.446   4.072   1.668 -0.2966  0.4094  0.9655
   85SOPE   C11 7860   4.377   4.099   1.855  0.3901 -0.1102 -0.0003
   85SOPE  H11A 7861   4.327   4.044   1.938  0.0151 -0.5881 -0.5294
   85SOPE  H11B 7862   4.293   4.140   1.795  1.6352  0.5826 -1.3159
   85SOPE     P 7863   4.438   4.290   2.021 -0.0124 -0.0186 -0.1958
   85SOPE   O13 7864   4.296   4.325   2.022 -0.0314 -0.2159  0.0865
   85SOPE   O14 7865   4.535   4.408   2.024  0.2155  0.0531 -0.3178
   85SOPE   O12 7866   4.469   4.199   1.899  0.4456 -0.5067  0.2224
   85SOPE   O11 7867   4.473   4.204   2.149  0.2725  0.1757  0.2195
   85SOPE    C1 7868   4.579   4.219   2.239 -0.1220 -0.6339 -0.0322
   85SOPE    HA 7869   4.637   4.307   2.205 -3.0049  1.5260  0.2108
   85SOPE    HB 7870   4.642   4.128   2.229  1.4588  0.1361  2.0432
   85SOPE    C2 7871   4.540   4.251   2.392  0.7732 -0.0956  0.2001
   85SOPE    HS 7872   4.477   4.174   2.442  0.4455  0.1575  0.1814
   85SOPE   O21 7873   4.485   4.385   2.392  0.2605  0.3474  0.0160
   85SOPE   C21 7874   4.348   4.386   2.392 -0.2678  0.1817 -0.1164
   85SOPE   O22 7875   4.276   4.288   2.396 -0.0077  0.4291 -0.1345
   85SOPE   C22 7876   4.302   4.530   2.373  0.5922  0.3984 -0.0585
   85SOPE   H2R 7877   4.272   4.535   2.267  2.6779  0.7822 -0.6711
   85SOPE   H2S 7878   4.381   4.605   2.394 -0.2573  1.0095  1.1255
   85SOPE    C3 7879   4.666   4.254   2.471 -0.5219 -0.0531 -0.2583
   85SOPE    HX 7880   4.741   4.311   2.412  1.4415 -0.1379  2.0367
   85SOPE    HY 7881   4.712   4.153   2.485  0.9976  0.8196  1.5361
   85SOPE   O31 7882   4.647   4.316   2.602 -0.2234  0.0810  0.0507
   85SOPE   C31 7883   4.744   4.399   2.642 -0.7803  0.0879  0.2719
   85SOPE   O32 7884   4.837   4.440   2.573 -0.3900  0.1788  0.4313
   85SOPE   C32 7885   4.709   4.443   2.789 -0.0100 -0.2283 -0.1265
   85SOPE   H2X 7886   4.698   4.553   2.780 -0.8852 -0.2309  0.8309
   85SOPE   H2Y 7887   4.793   4.415   2.857  3.6155 -0.0210 -4.0597
   85SOPE   C23 7888   4.182   4.551   2.468  0.2646 -0.1723 -0.0810
   85SOPE   H3R 7889   4.100   4.479   2.451  0.0353 -0.2160  1.1123
   85SOPE   H3S 7890   4.140   4.649   2.436 -1.8790 -1.3131 -0.9796
   85SOPE   C24 7891   4.226   4.567   2.618 -0.7218  0.3441 -0.5353
   85SOPE   H4R 7892   4.184   4.480   2.673 -0.3558 -0.0643 -0.8940
   85SOPE   H4S 7893   4.337   4.559   2.615 -0.7106  0.7563 -1.4385
   85SOPE   C25 7894   4.208   4.698   2.691 -0.2200 -0.4302  0.8591
   85SOPE   H5R 7895   4.275   4.768   2.638  3.4481 -2.9044  1.8327
   85SOPE   H5S 7896   4.102   4.726   2.677 -0.3696 -0.5562  1.7117
   85SOPE   C26 7897   4.254   4.687   2.835 -0.1499  0.3295 -0.7947
   85SOPE   H6R 7898   4.322   4.605   2.864 -2.2827 -1.0693  0.5372
   85SOPE   H6S 7899   4.303   4.780   2.872  0.0349 -0.2873  0.5573
   85SOPE   C27 7900   4.135   4.680   2.930  0.1515 -0.3828  0.0967
   85SOPE   H7R 7901   4.061   4.759   2.906  0.9884  0.4795  0.3158
   85SOPE   H7S 7902   4.085   4.581   2.920  0.1051 -0.4877  1.2231
   85SOPE   C28 7903   4.164   4.694   3.077  0.2235 -0.5593 -0.2061
   85SOPE   H8R 7904   4.243   4.628   3.119 -0.4066 -1.6556 -0.6865
   85SOPE   H8S 7905   4.213   4.794   3.078 -0.9558  0.0271  0.6854
   85SOPE   C29 7906   4.047   4.689   3.174 -1.0061  0.6982 -0.1124
   85SOPE   H91 7907   3.947   4.680   3.127 -0.8797  1.0330 -0.4477
   85SOPE  C210 7908   4.072   4.705   3.307  0.0837 -0.0758 -0.4500
   85SOPE  H101 7909   3.981   4.703   3.368 -0.4789  0.6349 -1.2447
   85SOPE  C211 7910   4.207   4.719   3.376  1.3710  0.9161  0.2960
   85SOPE  H11R 7911   4.288   4.751   3.306  0.2217 -1.1210 -2.1144
   85SOPE  H11S 7912   4.230   4.619   3.417  0.9285  0.2930 -0.9376
   85SOPE  C212 7913   4.198   4.826   3.491 -0.1974  0.2555 -0.1963
   85SOPE  H12R 7914   4.192   4.919   3.430 -1.0495  0.2391 -0.1512
   85SOPE  H12S 7915   4.294   4.826   3.546  0.0413  1.2110 -0.5992
   85SOPE  C213 7916   4.083   4.800   3.595 -0.2284  0.0333  0.6560
   85SOPE  H13R 7917   4.086   4.696   3.632  1.7293 -0.3610 -0.4611
   85SOPE  H13S 7918   3.984   4.813   3.548  0.8623  0.5227 -1.6766
   85SOPE  C214 7919   4.094   4.899   3.714  0.6579 -0.3582  0.2491
   85SOPE  H14R 7920   4.108   5.003   3.676  2.4814 -1.0316 -1.0510
   85SOPE  H14S 7921   4.195   4.875   3.753  1.2271  0.8701 -0.4188
   85SOPE  C215 7922   4.004   4.863   3.828  0.1210  0.0364  0.2264
   85SOPE  H15R 7923   3.992   4.949   3.897 -4.5885 -0.6045  0.5102
   85SOPE  H15S 7924   4.050   4.780   3.887 -0.8023 -1.1294 -0.6503
   85SOPE  C216 7925   3.860   4.835   3.794 -0.6744 -0.3651 -0.3185
   85SOPE  H16R 7926   3.854   4.733   3.751 -1.0193 -1.8492  2.9361
   85SOPE  H16S 7927   3.812   4.909   3.727 -1.2025 -0.6306 -0.2369
   85SOPE  C217 7928   3.758   4.833   3.913  0.0197 -0.7271  0.0225
   85SOPE  H17R 7929   3.652   4.810   3.891 -0.8832 -0.0574  3.1303
   85SOPE  H17S 7930   3.758   4.938   3.948  1.3981  0.1272 -2.3259
   85SOPE  C218 7931   3.801   4.749   4.027  0.1415  0.4001  0.3512
   85SOPE  H18R 7932   3.892   4.782   4.081  0.0706 -0.9103  1.2971
   85SOPE  H18S 7933   3.807   4.643   3.997 -1.0961  0.2458  0.5866
   85SOPE  H18T 7934   3.719   4.750   4.102 -0.4173 -0.2057 -0.2372
   85SOPE   C33 7935   4.581   4.377   2.840  0.0441  0.5560 -0.5673
   85SOPE   H3X 7936   4.579   4.270   2.810  0.5606  0.9163 -1.9648
   85SOPE   H3Y 7937   4.503   4.437   2.788 -2.5927 -1.0547  1.2767
   85SOPE   C34 7938   4.561   4.388   2.986 -0.2085 -0.4749 -0.4334
   85SOPE   H4X 7939   4.604   4.485   3.018  0.3554 -1.0811  0.7242
   85SOPE   H4Y 7940   4.629   4.306   3.019  0.2497 -1.0906 -2.7329
   85SOPE   C35 7941   4.418   4.381   3.029  0.5961 -0.5225 -0.1242
   85SOPE   H5X 7942   4.367   4.328   2.946  1.1605 -1.4631  0.1101
   85SOPE   H5Y 7943   4.370   4.480   3.043  0.8566 -0.3474 -0.4778
   85SOPE   C36 7944   4.391   4.312   3.162 -0.8702  0.1242  0.4807
   85SOPE   H6X 7945   4.434   4.210   3.166  1.9713  1.1380 -1.2716
   85SOPE   H6Y 7946   4.280   4.306   3.164 -1.0282  0.9320 -2.2052
   85SOPE   C37 7947   4.444   4.402   3.277  0.2655  0.9283 -0.0400
   85SOPE   H7X 7948   4.381   4.492   3.290  1.0738  1.4550  0.3398
   85SOPE   H7Y 7949   4.549   4.437   3.266  0.7281 -0.6602 -1.1208
   85SOPE   C38 7950   4.422   4.314   3.403 -0.0899  0.2582 -0.0746
   85SOPE   H8X 7951   4.511   4.258   3.440 -0.0944  0.3582  0.0878
   85SOPE   H8Y 7952   4.349   4.233   3.383 -0.0507  0.3721 -0.6779
   85SOPE   C39 7953   4.366   4.382   3.530  0.1336  0.6651  0.0148
   85SOPE   H9X 7954   4.344   4.303   3.605 -0.1924  0.8489  0.1134
   85SOPE   H9Y 7955   4.269   4.434   3.515 -1.3768 -1.8456  0.5247
   85SOPE  C310 7956   4.470   4.477   3.585 -0.3363 -0.1344  0.1932
   85SOPE  H10X 7957   4.481   4.558   3.510  1.0971  1.7490  2.2894
   85SOPE  H10Y 7958   4.566   4.423   3.599  0.0067  0.6683  1.0022
   85SOPE  C311 7959   4.434   4.533   3.724  0.8823  0.4035  0.2338
   85SOPE  H11X 7960   4.422   4.445   3.791 -1.3937  0.3352 -0.1986
   85SOPE  H11Y 7961   4.328   4.564   3.716 -0.1143 -2.7093  0.3847
   85SOPE  C312 7962   4.527   4.646   3.756  0.0100  0.0460  0.8971
   85SOPE  H12X 7963   4.536   4.711   3.666  0.1286 -1.2718 -0.0804
   85SOPE  H12Y 7964   4.627   4.600   3.775 -0.7996 -1.8610  0.7433
   85SOPE  C313 7965   4.486   4.732   3.873 -0.0803  0.1686 -0.5516
   85SOPE  H13X 7966   4.393   4.790   3.860  0.1638  0.5150 -0.7665
   85SOPE  H13Y 7967   4.569   4.806   3.883  1.6834 -1.7825 -0.0161
   85SOPE  C314 7968   4.489   4.655   4.009 -0.6725 -0.0923  0.3762
   85SOPE  H14X 7969   4.591   4.623   4.039 -1.2483 -0.9003  1.5072
   85SOPE  H14Y 7970   4.429   4.563   3.992 -1.2689  0.2047  0.8519
   85SOPE  C315 7971   4.437   4.742   4.125 -0.3248 -0.3347  0.3190
   85SOPE  H15X 7972   4.503   4.830   4.111 -0.6894  0.2432  2.0505
   85SOPE  H15Y 7973   4.451   4.684   4.219 -0.8297  0.6584  1.0146
   85SOPE  C316 7974   4.282   4.761   4.120 -0.9715  0.1140  0.5053
   85SOPE  H16X 7975   4.229   4.665   4.102 -0.3045  0.1308 -1.9571
   85SOPE  H16Y 7976   4.262   4.826   4.032 -1.5729  2.7740  2.4715
   85SOPE  C317 7977   4.219   4.852   4.230 -0.6401  0.0681 -0.2857
   85SOPE  H17X 7978   4.213   4.783   4.317 -2.2266 -0.6871 -0.9536
   85SOPE  H17Y 7979   4.116   4.881   4.201 -1.5958 -1.7262  1.1183
   85SOPE  C318 7980   4.297   4.984   4.248  0.0982 -0.2774 -0.0711
   85SOPE  H18X 7981   4.400   4.966   4.286  0.0326  1.5312  1.0774
   85SOPE  H18Y 7982   4.233   5.050   4.310 -0.6433 -1.3023  0.2761
   85SOPE  H18Z 7983   4.313   5.029   4.147  0.4242  1.0122  0.5377
   86SOPE     N 7984   5.145   0.974   2.129 -0.0692 -0.2129 -0.1285
   86SOPE   HN1 7985   5.080   1.046   2.090  0.8830 -0.9916 -3.4980
   86SOPE   HN2 7986   5.089   0.903   2.180 -1.0798  0.0501 -0.8459
   86SOPE   HN3 7987   5.215   1.025   2.188 -1.1769  1.2638 -0.0221
   86SOPE   C12 7988   5.213   0.906   2.020  0.1933 -0.2922 -0.4152
   86SOPE  H12A 7989   5.323   0.911   2.037  0.0794 -0.1347  0.3055
   86SOPE  H12B 7990   5.187   0.969   1.932 -4.1664 -0.5374  0.4606
   86SOPE   C11 7991   5.158   0.759   2.005 -0.3467 -0.5603  0.0543
   86SOPE  H11A 7992   5.212   0.718   1.917  0.0277  0.7524 -0.3377
   86SOPE  H11B 7993   5.049   0.765   1.983 -0.5891 -2.4519  0.5421
   86SOPE     P 7994   5.162   0.526   2.117  0.5443  0.3070  0.2131
   86SOPE   O13 7995   5.269   0.477   2.037 -0.6104  0.0101  0.2388
   86SOPE   O14 7996   5.028   0.492   2.060  0.3460  0.9367 -0.0563
   86SOPE   O12 7997   5.179   0.684   2.125 -0.1732 -0.5280 -0.2436
   86SOPE   O11 7998   5.191   0.480   2.266 -0.3319  0.4379 -0.9293
   86SOPE    C1 7999   5.176   0.573   2.369  0.7949 -0.0781 -0.0394
   86SOPE    HA 8000   5.081   0.630   2.353  0.5450 -0.5992 -0.4323
   86SOPE    HB 8001   5.265   0.640   2.373  0.6414  0.1043  0.3616
   86SOPE    C2 8002   5.153   0.506   2.508  0.5245 -0.7478  0.4440
   86SOPE    HS 8003   5.165   0.581   2.589 -0.7538 -0.5760  0.4829
   86SOPE   O21 8004   5.243   0.393   2.535  0.0186 -0.0443 -0.1640
   86SOPE   C21 8005   5.367   0.422   2.565 -0.1842  0.2148 -0.5214
   86SOPE   O22 8006   5.416   0.535   2.556  0.5213 -0.0619  0.4209
   86SOPE   C22 8007   5.446   0.303   2.617 -0.2627  0.0906 -1.3281
   86SOPE   H2R 8008   5.551   0.331   2.639 -0.8137  0.8594  0.4851
   86SOPE   H2S 8009   5.457   0.232   2.533 -2.5855 -2.2742  0.2047
   86SOPE    C3 8010   5.007   0.452   2.509 -0.0461 -0.1777 -0.5598
   86SOPE    HX 8011   5.007   0.374   2.430  3.9834 -0.7903 -0.2009
   86SOPE    HY 8012   4.935   0.530   2.477 -1.3739 -0.3194  1.8348
   86SOPE   O31 8013   4.963   0.396   2.640 -0.5403  0.4429  0.1702
   86SOPE   C31 8014   4.937   0.489   2.735  1.3335  1.1562  0.4116
   86SOPE   O32 8015   4.935   0.607   2.714  0.5929  0.8577  0.2556
   86SOPE   C32 8016   4.906   0.434   2.871 -0.4244  0.4320 -0.3798
   86SOPE   H2X 8017   4.996   0.373   2.892 -0.4531  0.3529 -0.4817
   86SOPE   H2Y 8018   4.816   0.369   2.865 -0.7466  0.8583 -0.2360
   86SOPE   C23 8019   5.380   0.233   2.738 -0.1810  0.1122  0.1542
   86SOPE   H3R 8020   5.444   0.142   2.748  0.5932  0.5073 -1.0516
   86SOPE   H3S 8021   5.274   0.212   2.712  0.2239 -0.8684 -0.7843
   86SOPE   C24 8022   5.391   0.305   2.875  0.2355  0.7642  0.0657
   86SOPE   H4R 8023   5.501   0.321   2.887  0.6949 -1.2414 -0.9712
   86SOPE   H4S 8024   5.339   0.403   2.876  1.3866  1.4288 -1.2403
   86SOPE   C25 8025   5.317   0.233   2.986 -0.4139  0.2136  0.0438
   86SOPE   H5R 8026   5.218   0.214   2.939  0.8715 -0.2907 -2.6658
   86SOPE   H5S 8027   5.374   0.139   2.998  2.6559  2.0741  1.5438
   86SOPE   C26 8028   5.323   0.307   3.120 -0.2956 -0.9408 -0.2127
   86SOPE   H6R 8029   5.426   0.310   3.159  0.0244 -0.7278 -1.0445
   86SOPE   H6S 8030   5.297   0.414   3.099 -0.1183 -0.5105  1.5832
   86SOPE   C27 8031   5.221   0.250   3.214  0.9590 -0.2383 -0.8363
   86SOPE   H7R 8032   5.131   0.197   3.178 -2.3566  4.1362  0.2542
   86SOPE   H7S 8033   5.273   0.166   3.264  0.2224  0.5226  1.3021
   86SOPE   C28 8034   5.183   0.360   3.323  0.2200 -0.5868 -0.4622
   86SOPE   H8R 8035   5.285   0.394   3.351 -0.3601  0.8901 -0.0346
   86SOPE   H8S 8036   5.131   0.450   3.285  1.0929  0.4693  0.7293
   86SOPE   C29 8037   5.101   0.301   3.432  0.3316 -0.2743 -0.0392
   86SOPE   H91 8038   5.006   0.259   3.395  1.4594 -0.5697 -2.8896
   86SOPE  C210 8039   5.129   0.296   3.567 -0.0560 -0.2319  0.5985
   86SOPE  H101 8040   5.065   0.232   3.631 -0.4642 -3.0941 -2.4155
   86SOPE  C211 8041   5.248   0.349   3.632  0.4486 -1.1070  0.8245
   86SOPE  H11R 8042   5.218   0.427   3.706 -2.6287 -0.4247 -0.9702
   86SOPE  H11S 8043   5.319   0.397   3.562  0.7738  0.3430  2.0875
   86SOPE  C212 8044   5.321   0.242   3.713 -0.2651 -0.3566  0.1978
   86SOPE  H12R 8045   5.249   0.206   3.790  1.0882 -1.6795  0.8874
   86SOPE  H12S 8046   5.412   0.273   3.769  0.2802 -0.3038 -0.7031
   86SOPE  C213 8047   5.359   0.120   3.630  0.3542  0.8679  0.1374
   86SOPE  H13R 8048   5.418   0.164   3.547  0.0698 -0.1328 -0.6206
   86SOPE  H13S 8049   5.273   0.064   3.586 -0.6710  2.4367  0.0665
   86SOPE  C214 8050   5.443   0.020   3.715  0.3531  0.1113  0.6473
   86SOPE  H14R 8051   5.508   0.081   3.780  0.7942  1.5763 -1.0900
   86SOPE  H14S 8052   5.503  -0.044   3.648  0.6306 -0.0109  1.0121
   86SOPE  C215 8053   5.360  -0.068   3.807  0.2767  0.6113  0.1790
   86SOPE  H15R 8054   5.302  -0.134   3.739  1.4231 -0.4663  0.2135
   86SOPE  H15S 8055   5.292  -0.014   3.877  0.2832  0.1215  0.5690
   86SOPE  C216 8056   5.451  -0.163   3.889 -0.3863 -0.5907 -0.6134
   86SOPE  H16R 8057   5.386  -0.232   3.948 -0.0048 -1.2549 -0.9539
   86SOPE  H16S 8058   5.504  -0.102   3.965  0.2735 -2.6874  0.6871
   86SOPE  C217 8059   5.549  -0.243   3.804 -0.4875  0.8694 -0.1376
   86SOPE  H17R 8060   5.630  -0.186   3.754  0.1440  0.9587  0.9484
   86SOPE  H17S 8061   5.493  -0.292   3.722  0.6605  1.9364 -1.6264
   86SOPE  C218 8062   5.617  -0.343   3.894  0.4223  0.5498  0.4692
   86SOPE  H18R 8063   5.674  -0.282   3.968 -0.3202  3.4537 -1.1807
   86SOPE  H18S 8064   5.695  -0.402   3.841 -0.5886  0.6618 -1.2086
   86SOPE  H18T 8065   5.549  -0.415   3.942  0.4682 -1.6507 -2.4828
   86SOPE   C33 8066   4.885   0.550   2.971 -0.0246  0.1051  0.6288
   86SOPE   H3X 8067   4.792   0.605   2.943 -0.2286 -1.5414 -2.2364
   86SOPE   H3Y 8068   4.971   0.619   2.989  1.2491 -1.2556 -0.0328
   86SOPE   C34 8069   4.849   0.485   3.110  0.2354  0.3401 -0.6591
   86SOPE   H4X 8070   4.917   0.402   3.138 -2.3770 -1.2206  1.5403
   86SOPE   H4Y 8071   4.753   0.430   3.095  0.4127  0.2395 -1.4447
   86SOPE   C35 8072   4.838   0.591   3.225  0.0821 -0.6694  0.1206
   86SOPE   H5X 8073   4.780   0.676   3.183  2.1348  1.0153  0.4957
   86SOPE   H5Y 8074   4.934   0.637   3.256  0.2204 -0.5465 -0.4886
   86SOPE   C36 8075   4.771   0.543   3.357  0.2412 -0.2493  0.4285
   86SOPE   H6X 8076   4.830   0.463   3.406 -0.4612 -0.2383  1.3215
   86SOPE   H6Y 8077   4.673   0.496   3.332  0.6670 -1.2257  0.5848
   86SOPE   C37 8078   4.752   0.651   3.459  0.0073  0.3647  0.1500
   86SOPE   H7X 8079   4.663   0.629   3.521 -0.1855  2.6123  0.7396
   86SOPE   H7Y 8080   4.738   0.751   3.413  3.9018  0.9934 -0.0115
   86SOPE   C38 8081   4.889   0.673   3.536  0.4009 -0.0116  0.2825
   86SOPE   H8X 8082   4.970   0.706   3.469 -0.6906 -1.3810 -1.8326
   86SOPE   H8Y 8083   4.925   0.577   3.579 -0.3127  0.4440  1.9795
   86SOPE   C39 8084   4.876   0.771   3.651 -0.4384  0.3123 -0.2812
   86SOPE   H9X 8085   4.788   0.751   3.716  1.2395 -0.1497  1.9760
   86SOPE   H9Y 8086   4.860   0.869   3.602 -0.0909  0.7389  0.4540
   86SOPE  C310 8087   4.997   0.773   3.746 -0.6359  0.0001  0.0592
   86SOPE  H10X 8088   5.002   0.871   3.798  0.9790  0.0766 -0.1801
   86SOPE  H10Y 8089   5.090   0.764   3.685 -1.2443 -1.9099 -0.6730
   86SOPE  C311 8090   4.980   0.649   3.839 -0.3171  0.7467  0.2333
   86SOPE  H11X 8091   5.011   0.560   3.780 -0.7506 -0.4146  1.6678
   86SOPE  H11Y 8092   4.876   0.629   3.874 -1.1314  1.1899 -1.8155
   86SOPE  C312 8093   5.080   0.642   3.955  0.2049 -0.0771  0.2772
   86SOPE  H12X 8094   5.037   0.715   4.027 -1.4943 -0.3853 -0.3940
   86SOPE  H12Y 8095   5.189   0.663   3.942  0.8011 -1.9257  1.8424
   86SOPE  C313 8096   5.079   0.505   4.025  0.3337 -0.2259  0.5075
   86SOPE  H13X 8097   5.159   0.437   3.990  0.0558 -2.0186  3.0906
   86SOPE  H13Y 8098   4.985   0.445   4.017 -0.0093 -0.0080  2.3685
   86SOPE  C314 8099   5.101   0.525   4.181  0.2916  0.2653  0.3203
   86SOPE  H14X 8100   5.018   0.588   4.221 -0.0647 -0.3365  0.5456
   86SOPE  H14Y 8101   5.196   0.578   4.201  0.3810 -0.6863  2.6453
   86SOPE  C315 8102   5.092   0.391   4.253 -0.1039  0.2260 -0.1592
   86SOPE  H15X 8103   5.170   0.330   4.202  0.7021  0.0856  1.2012
   86SOPE  H15Y 8104   4.999   0.333   4.232  0.0116 -0.1753  0.4138
   86SOPE  C316 8105   5.112   0.404   4.405 -0.1638 -0.0729 -0.2859
   86SOPE  H16X 8106   5.035   0.464   4.457 -0.8653 -0.6846 -0.6055
   86SOPE  H16Y 8107   5.210   0.454   4.421  0.0228 -0.3835 -0.4397
   86SOPE  C317 8108   5.133   0.267   4.470  0.8456  0.3545  0.3083
   86SOPE  H17X 8109   5.171   0.200   4.390  0.0471 -0.1166  0.3107
   86SOPE  H17Y 8110   5.029   0.237   4.492  0.9124 -2.6151 -2.6060
   86SOPE  C318 8111   5.234   0.243   4.588  0.1991 -0.3733  0.2761
   86SOPE  H18X 8112   5.245   0.134   4.606 -0.7388 -0.5514 -0.1612
   86SOPE  H18Y 8113   5.192   0.280   4.684 -0.2399 -0.6156  0.1793
   86SOPE  H18Z 8114   5.333   0.288   4.568  0.1799  1.1775  3.1763
   87SOPE     N 8115   4.825   0.269   1.848 -0.3125  0.0627  0.2201
   87SOPE   HN1 8116   4.868   0.361   1.868  1.2522 -0.7622  0.8534
   87SOPE   HN2 8117   4.729   0.284   1.812 -1.5543 -1.4178  2.5986
   87SOPE   HN3 8118   4.813   0.223   1.941  0.3141  1.2206  0.8999
   87SOPE   C12 8119   4.920   0.194   1.756 -0.4657 -0.4812  0.1088
   87SOPE  H12A 8120   4.964   0.272   1.689 -0.4013  0.7914  1.5901
   87SOPE  H12B 8121   4.864   0.128   1.687  1.4706 -1.2664 -0.7919
   87SOPE   C11 8122   5.029   0.126   1.831 -0.6642 -0.2929 -0.1634
   87SOPE  H11A 8123   5.089   0.201   1.888  0.1485  0.0328 -1.4016
   87SOPE  H11B 8124   5.098   0.091   1.751  1.2931  2.4038  0.2068
   87SOPE     P 8125   5.096  -0.073   1.973  0.3938  0.2228 -0.2369
   87SOPE   O13 8126   5.181  -0.128   1.864  0.2527  0.6700  0.2223
   87SOPE   O14 8127   5.030  -0.167   2.065 -0.6047 -0.3682 -0.5119
   87SOPE   O12 8128   4.980   0.019   1.910 -0.0163 -0.3510 -0.1026
   87SOPE   O11 8129   5.174   0.023   2.063 -1.3135  0.0863  0.3430
   87SOPE    C1 8130   5.128   0.133   2.144 -0.5854 -0.2559  0.0415
   87SOPE    HA 8131   5.024   0.160   2.114 -0.7537 -1.6375 -0.7067
   87SOPE    HB 8132   5.187   0.219   2.107  0.5553 -2.3480 -3.4395
   87SOPE    C2 8133   5.144   0.109   2.296 -0.0796 -0.1335 -0.2347
   87SOPE    HS 8134   5.157   0.209   2.342  1.7597 -0.2486 -0.3964
   87SOPE   O21 8135   5.261   0.028   2.320 -0.4541  0.8096  0.0061
   87SOPE   C21 8136   5.376   0.068   2.272  0.0501  0.4797 -0.0841
   87SOPE   O22 8137   5.394   0.173   2.213 -0.4865 -0.5703 -0.4420
   87SOPE   C22 8138   5.486  -0.041   2.270  0.9262 -0.5993  0.0638
   87SOPE   H2R 8139   5.566  -0.021   2.195  0.8980  0.8712  0.3855
   87SOPE   H2S 8140   5.438  -0.138   2.245  1.0382 -0.3679 -1.1221
   87SOPE    C3 8141   5.023   0.034   2.356 -1.0810  0.0536  0.7361
   87SOPE    HX 8142   5.017  -0.061   2.299 -0.6970  0.3731  0.1588
   87SOPE    HY 8143   4.933   0.093   2.329 -0.9013 -0.2722 -0.6575
   87SOPE   O31 8144   5.034   0.014   2.492 -0.3711  0.6813 -0.7392
   87SOPE   C31 8145   5.057  -0.107   2.544  0.1494  0.3200 -0.0569
   87SOPE   O32 8146   5.067  -0.208   2.472  0.2990  0.2630 -0.8215
   87SOPE   C32 8147   5.067  -0.103   2.696  0.0727 -0.4258 -0.4569
   87SOPE   H2X 8148   5.170  -0.088   2.735  0.1538  0.1853 -0.8877
   87SOPE   H2Y 8149   5.036  -0.207   2.723 -2.5033 -0.5696 -3.3918
   87SOPE   C23 8150   5.550  -0.045   2.408  0.0277  0.0190 -0.0459
   87SOPE   H3R 8151   5.570   0.054   2.455  2.4428 -1.5221  2.5038
   87SOPE   H3S 8152   5.649  -0.093   2.393 -0.0839 -0.8733  1.7045
   87SOPE   C24 8153   5.470  -0.119   2.515 -0.5038 -0.2753  0.2208
   87SOPE   H4R 8154   5.376  -0.065   2.542 -1.2307 -0.0647 -2.3887
   87SOPE   H4S 8155   5.429  -0.207   2.461  0.0627 -1.9573  2.4185
   87SOPE   C25 8156   5.551  -0.163   2.638 -0.3418 -0.4752 -0.5320
   87SOPE   H5R 8157   5.592  -0.264   2.617  1.4343 -0.2494  1.5280
   87SOPE   H5S 8158   5.631  -0.089   2.659 -0.5476 -0.3836 -0.0662
   87SOPE   C26 8159   5.463  -0.172   2.757  0.5431  0.3771  0.3141
   87SOPE   H6R 8160   5.397  -0.083   2.768  0.9228  0.5034  1.8402
   87SOPE   H6S 8161   5.414  -0.271   2.742 -0.2854  0.9461 -0.8873
   87SOPE   C27 8162   5.535  -0.174   2.894  0.1181  0.5547 -0.3193
   87SOPE   H7R 8163   5.608  -0.259   2.888 -0.0066  0.4134  0.1115
   87SOPE   H7S 8164   5.586  -0.077   2.913  1.0392 -0.0023  0.1804
   87SOPE   C28 8165   5.430  -0.203   3.006  0.9271  0.0841 -0.6220
   87SOPE   H8R 8166   5.354  -0.121   3.004  0.6400 -0.1821 -0.6432
   87SOPE   H8S 8167   5.373  -0.296   2.988 -1.1240  1.1463  0.0325
   87SOPE   C29 8168   5.501  -0.225   3.138 -0.6994  0.2634 -1.3412
   87SOPE   H91 8169   5.606  -0.258   3.135 -0.6966  0.0745 -0.0432
   87SOPE  C210 8170   5.441  -0.208   3.260 -0.4005  0.3190 -0.0040
   87SOPE  H101 8171   5.498  -0.217   3.354 -1.0913  2.9301  0.7655
   87SOPE  C211 8172   5.296  -0.162   3.286 -0.7750  0.2741 -0.0901
   87SOPE  H11R 8173   5.224  -0.216   3.221  0.4254  0.1782 -1.4076
   87SOPE  H11S 8174   5.275  -0.053   3.277  0.7886  0.7207  1.2190
   87SOPE  C212 8175   5.246  -0.208   3.424  0.0983 -0.5209  0.2847
   87SOPE  H12R 8176   5.144  -0.170   3.446  0.9455  0.7305  2.4271
   87SOPE  H12S 8177   5.304  -0.150   3.500 -1.8169 -0.4002  1.7072
   87SOPE  C213 8178   5.255  -0.356   3.463 -0.0022  0.1167  0.4036
   87SOPE  H13R 8179   5.363  -0.386   3.462  0.4410  1.5503  1.5361
   87SOPE  H13S 8180   5.202  -0.426   3.395  1.7921 -1.3348  0.3858
   87SOPE  C214 8181   5.218  -0.374   3.611  0.3921  0.0423 -0.3560
   87SOPE  H14R 8182   5.131  -0.307   3.630  0.2364 -0.3622  0.3831
   87SOPE  H14S 8183   5.305  -0.343   3.673 -0.1300 -2.6505  1.9008
   87SOPE  C215 8184   5.195  -0.519   3.652 -0.5499  0.3200 -0.0306
   87SOPE  H15R 8185   5.291  -0.575   3.647 -0.7612  0.0165 -0.9866
   87SOPE  H15S 8186   5.123  -0.574   3.587  1.3574 -1.5274 -0.7117
   87SOPE  C216 8187   5.151  -0.524   3.795 -0.3240 -0.6085 -0.3443
   87SOPE  H16R 8188   5.057  -0.468   3.812 -0.3843 -1.0462  0.7842
   87SOPE  H16S 8189   5.236  -0.476   3.848 -0.8052  0.4692 -0.5139
   87SOPE  C217 8190   5.122  -0.664   3.845 -0.0677 -0.5518  0.2375
   87SOPE  H17R 8191   5.218  -0.719   3.832 -1.9569 -3.9242 -0.6152
   87SOPE  H17S 8192   5.043  -0.723   3.795  0.4449 -1.3716  0.3773
   87SOPE  C218 8193   5.098  -0.655   3.989  0.3849  0.6133  0.7290
   87SOPE  H18R 8194   5.158  -0.568   4.023  0.2817  1.5382 -1.2897
   87SOPE  H18S 8195   5.130  -0.742   4.050 -1.0301  0.2027  0.9149
   87SOPE  H18T 8196   4.997  -0.616   4.015  0.9814  3.2910 -0.5546
   87SOPE   C33 8197   4.968   0.005   2.746 -0.2310 -0.1732 -0.7752
   87SOPE   H3X 8198   4.871  -0.001   2.693  0.1771  0.6919 -1.6443
   87SOPE   H3Y 8199   5.007   0.105   2.719 -1.8105  0.7789  0.2827
   87SOPE   C34 8200   4.944  -0.011   2.892 -0.4821 -0.0008  0.3397
   87SOPE   H4X 8201   5.025   0.039   2.950 -0.3146 -0.6772  0.6999
   87SOPE   H4Y 8202   4.944  -0.119   2.920  1.4111 -0.4676 -1.2588
   87SOPE   C35 8203   4.819   0.058   2.939  0.3209 -0.6207 -0.1928
   87SOPE   H5X 8204   4.732   0.022   2.881  0.1877 -1.5669  0.5675
   87SOPE   H5Y 8205   4.839   0.167   2.936 -0.4917 -0.4676 -2.4962
   87SOPE   C36 8206   4.766   0.008   3.071  0.3528 -0.3651  0.0476
   87SOPE   H6X 8207   4.750  -0.100   3.050  1.2509 -0.6146  0.5997
   87SOPE   H6Y 8208   4.666   0.056   3.082  1.8143  2.3604  2.7480
   87SOPE   C37 8209   4.850   0.032   3.194  0.1845 -0.2729  0.3286
   87SOPE   H7X 8210   4.858   0.143   3.196  0.5014 -0.2703 -0.6310
   87SOPE   H7Y 8211   4.956   0.004   3.173 -0.4516 -1.3130 -1.6838
   87SOPE   C38 8212   4.809  -0.047   3.321 -1.0388 -0.0034  0.3763
   87SOPE   H8X 8213   4.845  -0.152   3.316 -0.7066  0.1030  0.4884
   87SOPE   H8Y 8214   4.699  -0.055   3.336 -1.1683  0.7836 -0.0873
   87SOPE   C39 8215   4.867   0.007   3.451 -0.3257  0.8504  0.0484
   87SOPE   H9X 8216   4.807   0.094   3.484  0.6903  0.5295  3.0745
   87SOPE   H9Y 8217   4.976   0.026   3.458  0.5795 -3.2058 -0.5943
   87SOPE  C310 8218   4.852  -0.099   3.556  0.3305 -0.5209  0.2019
   87SOPE  H10X 8219   4.899  -0.193   3.521  1.8994  0.2844  0.0378
   87SOPE  H10Y 8220   4.744  -0.111   3.579  0.7309  0.4876  2.9509
   87SOPE  C311 8221   4.915  -0.053   3.690  0.1263 -0.5579  0.2333
   87SOPE  H11X 8222   4.875   0.051   3.699 -2.4728 -1.5278  0.9159
   87SOPE  H11Y 8223   5.017  -0.032   3.652  0.1733 -2.8741 -1.1059
   87SOPE  C312 8224   4.910  -0.152   3.803  0.2175  0.4055 -0.2729
   87SOPE  H12X 8225   4.896  -0.252   3.758  0.7538  0.4278 -0.5044
   87SOPE  H12Y 8226   4.818  -0.132   3.862 -0.9195  1.9192 -2.4035
   87SOPE  C313 8227   5.028  -0.149   3.898 -0.3713 -0.3070 -0.0055
   87SOPE  H13X 8228   5.046  -0.047   3.936  1.4479 -1.3780  2.2930
   87SOPE  H13Y 8229   5.118  -0.182   3.841 -0.5469 -1.3047  0.2621
   87SOPE  C314 8230   5.008  -0.243   4.015  0.0883  0.0791  0.0880
   87SOPE  H14X 8231   5.009  -0.349   3.979  0.6571  0.5679 -1.4064
   87SOPE  H14Y 8232   4.907  -0.229   4.057 -0.4325 -1.7062 -0.4572
   87SOPE  C315 8233   5.118  -0.223   4.123  0.4640  0.3299  0.0461
   87SOPE  H15X 8234   5.210  -0.167   4.094  0.3342  1.8871  2.3869
   87SOPE  H15Y 8235   5.154  -0.326   4.143 -1.9543 -0.3226  1.4351
   87SOPE  C316 8236   5.071  -0.170   4.257 -0.2784  0.1508 -0.7014
   87SOPE  H16X 8237   4.993  -0.241   4.293  1.2503 -1.2950 -0.1096
   87SOPE  H16Y 8238   5.026  -0.068   4.248 -0.6366  0.4511  2.7462
   87SOPE  C317 8239   5.164  -0.179   4.379 -0.2827 -0.0320 -0.7094
   87SOPE  H17X 8240   5.201  -0.284   4.390 -0.0427  0.0429 -0.7846
   87SOPE  H17Y 8241   5.106  -0.155   4.470  2.2802 -1.7500  1.5291
   87SOPE  C318 8242   5.287  -0.091   4.372  0.3008  0.5218  0.4701
   87SOPE  H18X 8243   5.335  -0.090   4.472  0.9725 -0.6707  0.1814
   87SOPE  H18Y 8244   5.278   0.010   4.326  1.1298  1.4228  2.1876
   87SOPE  H18Z 8245   5.353  -0.144   4.301 -2.1515 -0.6328 -1.0997
   88SOPE     N 8246   6.780   0.763   1.455  0.1251  0.0181 -0.5408
   88SOPE   HN1 8247   6.834   0.783   1.542 -1.7149  0.1895  0.6325
   88SOPE   HN2 8248   6.754   0.855   1.415  1.2231  0.9824  0.8788
   88SOPE   HN3 8249   6.687   0.724   1.480  0.3513  0.7667  1.7645
   88SOPE   C12 8250   6.855   0.678   1.355  0.4028  0.3016  0.2667
   88SOPE  H12A 8251   6.956   0.719   1.334  0.9625 -0.7852  0.7877
   88SOPE  H12B 8252   6.799   0.668   1.259 -2.1993 -1.0459  1.8016
   88SOPE   C11 8253   6.873   0.530   1.399 -0.7325 -0.3268 -0.2190
   88SOPE  H11A 8254   6.924   0.465   1.324 -0.4178 -2.0855  1.4432
   88SOPE  H11B 8255   6.775   0.479   1.416  0.0300 -1.0497  2.3453
   88SOPE     P 8256   7.049   0.440   1.562  0.2732  0.3629  0.3623
   88SOPE   O13 8257   7.173   0.515   1.576 -0.4872  0.3075 -0.8562
   88SOPE   O14 8258   7.064   0.327   1.467 -0.0909 -0.2930  0.2080
   88SOPE   O12 8259   6.937   0.542   1.529  0.0394 -0.0356  0.1088
   88SOPE   O11 8260   7.014   0.376   1.705 -0.0227  0.5964  0.7273
   88SOPE    C1 8261   6.880   0.353   1.738  0.2387 -0.1825 -0.5203
   88SOPE    HA 8262   6.879   0.256   1.793  1.1577  0.2158  0.2231
   88SOPE    HB 8263   6.809   0.337   1.654  0.1351  0.4420 -0.5549
   88SOPE    C2 8264   6.825   0.468   1.816  0.0532  0.0596  0.4381
   88SOPE    HS 8265   6.849   0.558   1.755  0.1537 -1.2749 -1.6313
   88SOPE   O21 8266   6.869   0.476   1.953  0.2794  0.1814  0.4583
   88SOPE   C21 8267   6.895   0.594   1.997 -0.3649 -0.5317  0.1665
   88SOPE   O22 8268   6.897   0.703   1.939  0.1100  0.1193 -0.2627
   88SOPE   C22 8269   6.908   0.577   2.146 -0.2457 -0.3185 -0.0481
   88SOPE   H2R 8270   7.006   0.526   2.159  0.6871  1.3710 -0.2500
   88SOPE   H2S 8271   6.819   0.518   2.179 -1.8169  1.4397 -0.9594
   88SOPE    C3 8272   6.667   0.458   1.818 -0.3423 -0.5106  0.3156
   88SOPE    HX 8273   6.634   0.370   1.877 -3.4367 -0.7361 -1.5246
   88SOPE    HY 8274   6.624   0.429   1.720  2.3614  0.4058 -1.2455
   88SOPE   O31 8275   6.609   0.575   1.878  0.2409 -0.1271 -0.2357
   88SOPE   C31 8276   6.572   0.672   1.795  0.8911 -0.2174  1.2595
   88SOPE   O32 8277   6.602   0.684   1.676 -0.2170  1.0428 -0.2470
   88SOPE   C32 8278   6.482   0.774   1.875  0.1892 -0.0267  0.7485
   88SOPE   H2X 8279   6.379   0.765   1.836  0.2460 -0.9065  0.7754
   88SOPE   H2Y 8280   6.519   0.878   1.861  3.1367 -1.1553 -0.5720
   88SOPE   C23 8281   6.909   0.704   2.227  0.2009 -0.7321  0.0941
   88SOPE   H3R 8282   6.817   0.758   2.196  1.0605 -0.5075 -2.3026
   88SOPE   H3S 8283   6.987   0.777   2.196 -1.7436  0.7975 -1.5129
   88SOPE   C24 8284   6.917   0.665   2.377  0.7635  0.4499  0.3008
   88SOPE   H4R 8285   6.813   0.636   2.401 -0.1549  2.3168 -1.1883
   88SOPE   H4S 8286   6.984   0.578   2.391  0.5625  0.4979  1.7094
   88SOPE   C25 8287   6.970   0.781   2.464 -0.1315  0.1659  0.2519
   88SOPE   H5R 8288   7.073   0.809   2.435  0.2896 -0.6687  0.8724
   88SOPE   H5S 8289   6.914   0.875   2.446 -1.8074 -0.5459  1.4367
   88SOPE   C26 8290   6.985   0.739   2.611  0.3881 -0.5724 -1.0489
   88SOPE   H6R 8291   7.021   0.822   2.675 -1.0174 -0.9685  0.3241
   88SOPE   H6S 8292   6.890   0.704   2.656  1.5707 -0.1880  1.9948
   88SOPE   C27 8293   7.086   0.623   2.639 -0.3458  0.0421  0.5083
   88SOPE   H7R 8294   7.057   0.530   2.585 -1.9210 -1.5881  3.8334
   88SOPE   H7S 8295   7.175   0.671   2.595  0.5735 -1.0296  1.1537
   88SOPE   C28 8296   7.105   0.597   2.786  0.4263 -0.1065 -0.8472
   88SOPE   H8R 8297   7.181   0.518   2.798 -0.1972 -0.4428  1.1154
   88SOPE   H8S 8298   7.138   0.694   2.827  1.1389 -0.6675 -0.0769
   88SOPE   C29 8299   6.982   0.544   2.861 -0.4169  0.4283  0.0099
   88SOPE   H91 8300   6.926   0.467   2.806 -0.8347 -0.0027  1.0203
   88SOPE  C210 8301   6.948   0.570   2.983 -0.6328  0.2760 -0.2771
   88SOPE  H101 8302   6.862   0.517   3.025  1.1191 -3.1832 -0.6970
   88SOPE  C211 8303   7.019   0.665   3.076  0.2415  0.1302 -0.3755
   88SOPE  H11R 8304   6.943   0.700   3.149  1.1695  2.5478 -0.4846
   88SOPE  H11S 8305   7.051   0.753   3.017 -1.1387  0.0667 -1.2794
   88SOPE  C212 8306   7.130   0.593   3.149 -0.2002 -0.6746 -0.1539
   88SOPE  H12R 8307   7.185   0.674   3.201 -1.8875 -0.3957  1.2933
   88SOPE  H12S 8308   7.202   0.545   3.079  0.2024 -2.2912  1.3139
   88SOPE  C213 8309   7.082   0.488   3.251 -0.0638 -0.2682 -0.4862
   88SOPE  H13R 8310   7.007   0.419   3.206  0.1939 -1.6837  1.1719
   88SOPE  H13S 8311   7.023   0.550   3.322  0.3203  0.7943 -1.0595
   88SOPE  C214 8312   7.190   0.404   3.323  0.1289  0.5341  0.5788
   88SOPE  H14R 8313   7.244   0.460   3.402  0.5180  1.4015 -0.2762
   88SOPE  H14S 8314   7.269   0.365   3.256 -0.3848  1.1398 -0.4136
   88SOPE  C215 8315   7.127   0.279   3.400  0.6957 -0.3994 -0.2723
   88SOPE  H15R 8316   7.111   0.186   3.342 -0.4039 -1.1781  1.2122
   88SOPE  H15S 8317   7.029   0.323   3.427  0.5794  0.4734 -1.9701
   88SOPE  C216 8318   7.200   0.235   3.523  0.1879 -0.1473 -0.1210
   88SOPE  H16R 8319   7.140   0.157   3.574  0.3695  0.9705  1.8727
   88SOPE  H16S 8320   7.217   0.318   3.594  1.1805  1.0305 -1.6638
   88SOPE  C217 8321   7.340   0.177   3.491 -1.1036  1.1686 -0.6149
   88SOPE  H17R 8322   7.413   0.250   3.449  1.4238 -1.6760 -1.5153
   88SOPE  H17S 8323   7.342   0.106   3.406 -2.7045 -0.3869  0.5729
   88SOPE  C218 8324   7.398   0.110   3.612  0.0980  0.8712  0.0581
   88SOPE  H18R 8325   7.508   0.108   3.605  0.3436  2.8533  2.1143
   88SOPE  H18S 8326   7.356   0.008   3.625 -0.1402  0.7932 -1.2217
   88SOPE  H18T 8327   7.377   0.167   3.705  2.1210  1.2710  0.3155
   88SOPE   C33 8328   6.470   0.747   2.031 -0.0356  0.0451  0.7986
   88SOPE   H3X 8329   6.577   0.738   2.060  0.6302  0.1257 -1.4397
   88SOPE   H3Y 8330   6.418   0.655   2.065  0.0709  0.2412  1.4987
   88SOPE   C34 8331   6.402   0.864   2.099  0.0518  0.5832  0.1562
   88SOPE   H4X 8332   6.303   0.889   2.056  0.7107  1.0359 -1.1488
   88SOPE   H4Y 8333   6.471   0.946   2.069  0.6828 -0.7548 -2.3962
   88SOPE   C35 8334   6.389   0.839   2.251 -0.2050  0.0176  0.5306
   88SOPE   H5X 8335   6.368   0.733   2.276  0.5567 -1.5645 -4.3550
   88SOPE   H5Y 8336   6.297   0.898   2.274 -0.8151  0.3917 -2.3899
   88SOPE   C36 8337   6.511   0.870   2.340 -0.2498  0.0855  0.3975
   88SOPE   H6X 8338   6.528   0.979   2.330 -0.4300 -0.0866 -2.6528
   88SOPE   H6Y 8339   6.605   0.827   2.298 -1.0409 -0.0234 -1.3286
   88SOPE   C37 8340   6.498   0.812   2.477  0.3218 -0.1858 -0.2194
   88SOPE   H7X 8341   6.510   0.702   2.467 -2.5358 -0.6561  0.5911
   88SOPE   H7Y 8342   6.391   0.821   2.505 -0.6606 -1.7844 -3.0470
   88SOPE   C38 8343   6.585   0.875   2.583  0.7010 -0.2664  0.0396
   88SOPE   H8X 8344   6.561   0.981   2.602  3.1240 -0.0039  2.2920
   88SOPE   H8Y 8345   6.691   0.882   2.550  0.6013  0.9449 -0.0546
   88SOPE   C39 8346   6.599   0.789   2.717  0.3911  0.9792  0.1861
   88SOPE   H9X 8347   6.673   0.843   2.781  3.7607 -0.9661 -1.7535
   88SOPE   H9Y 8348   6.650   0.697   2.684  2.3058  2.5774 -1.6210
   88SOPE  C310 8349   6.465   0.767   2.790 -0.1630  0.0288 -0.8319
   88SOPE  H10X 8350   6.392   0.718   2.722 -1.8275 -0.1140  0.9836
   88SOPE  H10Y 8351   6.438   0.869   2.825  1.5019  0.4863 -0.7611
   88SOPE  C311 8352   6.470   0.676   2.912 -0.4131  0.3576 -0.5914
   88SOPE  H11X 8353   6.543   0.597   2.882 -0.2156  0.4071 -0.2428
   88SOPE  H11Y 8354   6.366   0.646   2.939 -0.2436  0.3746  0.1082
   88SOPE  C312 8355   6.536   0.744   3.037  0.0566 -0.6660  0.4132
   88SOPE  H12X 8356   6.492   0.846   3.044 -1.1370 -1.1529  0.3134
   88SOPE  H12Y 8357   6.640   0.761   3.002 -0.5471  0.1021 -1.0913
   88SOPE  C313 8358   6.518   0.672   3.171 -0.2300  0.2635 -0.1931
   88SOPE  H13X 8359   6.505   0.567   3.138  1.6171 -0.0891  0.0948
   88SOPE  H13Y 8360   6.424   0.691   3.227  0.7338  0.6454  1.3480
   88SOPE  C314 8361   6.643   0.689   3.258 -0.3300 -0.0957 -0.4155
   88SOPE  H14X 8362   6.653   0.799   3.268 -3.7137  0.4552 -1.8379
   88SOPE  H14Y 8363   6.734   0.645   3.211 -1.2414 -0.3055 -2.0305
   88SOPE  C315 8364   6.643   0.629   3.396  0.0950 -0.2149  0.1812
   88SOPE  H15X 8365   6.640   0.521   3.370 -2.0208 -0.5473  1.5774
   88SOPE  H15Y 8366   6.551   0.660   3.451 -0.9283  0.5091 -1.8245
   88SOPE  C316 8367   6.763   0.666   3.479 -0.0268  0.1210 -0.7250
   88SOPE  H16X 8368   6.747   0.773   3.506  0.9024 -0.6603  3.9177
   88SOPE  H16Y 8369   6.860   0.665   3.427  0.5334 -0.7764  0.2958
   88SOPE  C317 8370   6.781   0.593   3.613  0.2011 -1.0270  0.5834
   88SOPE  H17X 8371   6.677   0.576   3.650  0.2044 -0.1722  0.9989
   88SOPE  H17Y 8372   6.838   0.660   3.680  0.3312 -1.4261  0.8773
   88SOPE  C318 8373   6.857   0.460   3.605 -0.2133 -0.7029 -0.2639
   88SOPE  H18X 8374   6.816   0.391   3.527 -1.7900 -1.0837  0.8430
   88SOPE  H18Y 8375   6.847   0.401   3.699 -2.9959 -1.7257 -1.0911
   88SOPE  H18Z 8376   6.964   0.477   3.581 -0.5535  1.6304 -0.2859
   89SAPC     N 8377   5.239   2.031   6.874 -0.2165 -0.7070  0.1102
   89SAPC   C12 8378   5.302   2.089   6.744 -0.1210  0.2653  0.6897
   89SAPC  H12A 8379   5.400   2.045   6.734 -0.0789  0.4373  0.2989
   89SAPC  H12B 8380   5.322   2.195   6.757 -2.0573  0.5995  1.4161
   89SAPC   C13 8381   5.097   2.082   6.881  0.2621  0.1684 -1.1215
   89SAPC  H13A 8382   5.030   2.038   6.808 -0.8633 -0.4593  0.2337
   89SAPC  H13B 8383   5.047   2.071   6.976  1.0003 -1.0394 -0.8577
   89SAPC  H13C 8384   5.088   2.186   6.853 -0.2869  0.1567 -1.0137
   89SAPC   C14 8385   5.233   1.886   6.859 -0.3107 -0.5484  0.3797
   89SAPC  H14A 8386   5.206   1.837   6.951 -2.1925 -1.9134 -0.8073
   89SAPC  H14B 8387   5.154   1.852   6.794  0.2307 -0.7864 -0.1676
   89SAPC  H14C 8388   5.321   1.841   6.814 -1.8946 -2.4525 -1.0256
   89SAPC   C15 8389   5.314   2.072   7.001  0.4996 -0.2236  0.2719
   89SAPC  H15A 8390   5.417   2.040   6.997  0.3672 -0.5333 -2.4404
   89SAPC  H15B 8391   5.309   2.177   7.026  2.2141  0.3576 -1.5397
   89SAPC  H15C 8392   5.266   2.025   7.085 -0.2129  1.1882  0.6999
   89SAPC   C11 8393   5.229   2.064   6.611 -0.1860 -0.4929  0.3118
   89SAPC  H11A 8394   5.294   2.109   6.533 -0.4990 -0.0444  0.3107
   89SAPC  H11B 8395   5.132   2.117   6.619 -0.0570  0.0682 -1.5170
   89SAPC     P 8396   5.087   1.868   6.498  0.1243 -0.1035  0.4093
   89SAPC   O13 8397   5.098   1.721   6.510  0.2399 -0.4239 -0.4028
   89SAPC   O14 8398   4.959   1.930   6.546  0.5231  0.5110 -0.7174
   89SAPC   O12 8399   5.212   1.930   6.574  0.2388 -0.3520 -0.0000
   89SAPC   O11 8400   5.110   1.916   6.349 -0.2505  0.0130 -0.4858
   89SAPC    C1 8401   5.235   1.938   6.285 -0.1292  0.7092  0.0200
   89SAPC    HA 8402   5.273   2.041   6.298 -1.0962  1.3493 -1.8726
   89SAPC    HB 8403   5.319   1.873   6.319 -1.0019 -0.1311  0.6423
   89SAPC    C2 8404   5.226   1.912   6.136  0.7424  0.2338  0.1223
   89SAPC    HS 8405   5.146   1.979   6.099 -0.5694 -0.2253  1.9533
   89SAPC   O21 8406   5.207   1.765   6.120  0.0753 -0.4359 -0.2381
   89SAPC   C21 8407   5.085   1.735   6.081 -0.4552 -0.1242  0.5107
   89SAPC   O22 8408   4.997   1.807   6.046  1.0058 -0.0905  0.6728
   89SAPC   C22 8409   5.069   1.580   6.085 -0.4324 -0.4847 -0.0428
   89SAPC   H2R 8410   5.148   1.535   6.022 -0.5445 -0.0828 -0.4708
   89SAPC   H2S 8411   5.088   1.550   6.191 -2.2651  1.1485  0.8136
   89SAPC    C3 8412   5.360   1.955   6.077 -0.5130 -0.7944 -0.0240
   89SAPC    HX 8413   5.437   1.896   6.133 -0.8483 -0.9976  0.2256
   89SAPC    HY 8414   5.372   2.064   6.097 -2.3584 -0.4703 -0.5199
   89SAPC   O31 8415   5.360   1.912   5.940 -0.2578 -0.0776 -0.2921
   89SAPC   C31 8416   5.319   2.006   5.853 -0.4783  0.1909  0.4265
   89SAPC   O32 8417   5.283   2.116   5.891  0.5640 -0.4490  0.4314
   89SAPC   C32 8418   5.340   1.957   5.711  0.3512  0.2133  0.0483
   89SAPC   H2X 8419   5.448   1.947   5.690  0.1098 -3.6692  0.0566
   89SAPC   H2Y 8420   5.314   2.038   5.639  2.5830  0.4368 -0.5932
   89SAPC   C23 8421   4.926   1.533   6.052  0.2629  0.2626 -0.2601
   89SAPC   H3R 8422   4.844   1.592   6.097 -1.8603 -3.6669  1.5321
   89SAPC   H3S 8423   4.921   1.431   6.097  2.7339  0.0327 -0.3694
   89SAPC   C24 8424   4.906   1.511   5.898 -0.5179 -0.2688  0.2357
   89SAPC   H4R 8425   4.998   1.459   5.864  1.1238  1.9017  1.1607
   89SAPC   H4S 8426   4.917   1.612   5.854 -1.6047 -0.0971  0.3418
   89SAPC   C25 8427   4.776   1.450   5.852 -0.0408 -0.1645  0.4991
   89SAPC   H5R 8428   4.716   1.414   5.936 -0.9976 -0.3886 -0.2558
   89SAPC   C26 8429   4.738   1.443   5.722 -0.3107 -0.3112  0.2983
   89SAPC   H6R 8430   4.643   1.391   5.699 -0.9291  0.9627 -0.1406
   89SAPC   C27 8431   4.805   1.505   5.600  0.3146  0.0260 -0.4899
   89SAPC   H7R 8432   4.884   1.582   5.618  1.9552 -1.1053 -2.4544
   89SAPC   H7S 8433   4.718   1.555   5.552  0.2605  2.3836  1.8155
   89SAPC   C28 8434   4.850   1.403   5.502 -0.6733  0.1643  0.0336
   89SAPC   H8R 8435   4.937   1.356   5.549 -1.7556 -1.7125  0.2569
   89SAPC   C29 8436   4.793   1.329   5.406 -0.0438  0.6883 -0.5279
   89SAPC   H9R 8437   4.853   1.258   5.348 -1.8722 -1.9157  0.5926
   89SAPC  C210 8438   4.657   1.361   5.348 -0.0183  0.1940  0.2133
   89SAPC  H10R 8439   4.690   1.411   5.254  0.6242 -0.6558 -0.0396
   89SAPC  H10S 8440   4.604   1.431   5.415  0.8825  1.3909 -0.2941
   89SAPC  C211 8441   4.574   1.243   5.314  0.0026 -0.2304 -0.3904
   89SAPC  H11R 8442   4.563   1.161   5.387  3.1412 -0.0034  0.5011
   89SAPC  C212 8443   4.533   1.212   5.192  0.2628  0.6750 -0.0589
   89SAPC  H12R 8444   4.450   1.140   5.183  0.1210  1.0816 -2.8887
   89SAPC  C213 8445   4.558   1.300   5.069 -0.1374 -0.2541  0.1241
   89SAPC  H13R 8446   4.558   1.408   5.096 -0.5473 -0.0807 -0.5379
   89SAPC  H13S 8447   4.470   1.285   5.002 -1.3932  1.0417  1.3994
   89SAPC  C214 8448   4.693   1.274   4.997  0.6118 -0.4862 -0.7050
   89SAPC  H14R 8449   4.777   1.310   5.058  0.7457  2.4980 -2.4089
   89SAPC  C215 8450   4.713   1.217   4.881 -0.1577 -0.2392  0.1576
   89SAPC  H15R 8451   4.811   1.183   4.846 -0.5026 -1.3604  0.2495
   89SAPC  C216 8452   4.595   1.177   4.791 -0.4672 -0.1343 -0.4873
   89SAPC  H16R 8453   4.510   1.248   4.779 -0.6030 -0.7051 -3.9936
   89SAPC  H16S 8454   4.561   1.081   4.835 -0.2903  0.2376  0.4745
   89SAPC  C217 8455   4.654   1.129   4.655 -0.2553 -0.1056  0.5721
   89SAPC  H17R 8456   4.568   1.086   4.600 -0.1917  0.4906 -0.0042
   89SAPC  H17S 8457   4.729   1.048   4.663 -0.7793 -0.5417  1.2052
   89SAPC  C218 8458   4.701   1.238   4.570 -0.4683  1.2623  0.2406
   89SAPC  H18R 8459   4.726   1.199   4.469  1.8896  1.6272  0.6335
   89SAPC  H18S 8460   4.798   1.273   4.610  0.4253  0.3248 -1.0404
   89SAPC  C219 8461   4.605   1.355   4.549 -0.0937  0.9015 -0.2419
   89SAPC  H19R 8462   4.569   1.402   4.643 -1.3384  1.0079 -0.7650
   89SAPC  H19S 8463   4.518   1.303   4.505  0.0054  0.3864  0.1544
   89SAPC  C220 8464   4.659   1.465   4.457  0.3849  0.3690  0.0083
   89SAPC  H20R 8465   4.686   1.421   4.359 -1.9233 -0.8399 -0.1664
   89SAPC  H20S 8466   4.742   1.519   4.507  1.7384 -1.1319 -0.5341
   89SAPC  H20T 8467   4.579   1.526   4.411  1.8049  0.7396 -2.1023
   89SAPC   C33 8468   5.266   1.825   5.669  0.2711 -0.7333 -0.0902
   89SAPC   H3X 8469   5.160   1.835   5.698 -0.2248  0.0245 -2.0048
   89SAPC   H3Y 8470   5.311   1.737   5.720  0.6069  0.5869  2.0249
   89SAPC   C34 8471   5.282   1.804   5.519 -0.6286  0.5694  0.2346
   89SAPC   H4X 8472   5.389   1.801   5.489  0.5745  0.1750  4.0167
   89SAPC   H4Y 8473   5.229   1.881   5.458 -0.6601  2.0786  2.0779
   89SAPC   C35 8474   5.237   1.661   5.475  0.5520  0.1977 -0.2714
   89SAPC   H5X 8475   5.137   1.635   5.514  0.3754 -1.8452 -1.8867
   89SAPC   H5Y 8476   5.302   1.589   5.531 -0.1087  0.0162  0.2686
   89SAPC   C36 8477   5.246   1.649   5.321 -0.1257  0.6646 -0.0631
   89SAPC   H6X 8478   5.220   1.737   5.258 -0.8824 -0.9759 -2.1094
   89SAPC   H6Y 8479   5.168   1.577   5.288  0.8399  0.2781 -1.5923
   89SAPC   C37 8480   5.395   1.613   5.272  0.2207 -0.5407 -0.4943
   89SAPC   H7X 8481   5.409   1.514   5.320 -0.6536  0.5011  2.0798
   89SAPC   H7Y 8482   5.461   1.691   5.316 -3.2189  2.7479 -0.5430
   89SAPC   C38 8483   5.412   1.625   5.121  0.0608  0.9105  0.4399
   89SAPC   H8X 8484   5.513   1.604   5.081  1.2484  1.8482  2.8082
   89SAPC   H8Y 8485   5.381   1.726   5.085  2.8526  1.3565 -1.0159
   89SAPC   C39 8486   5.310   1.524   5.044 -0.3412 -0.4180 -0.4647
   89SAPC   H9X 8487   5.205   1.554   5.062 -0.6012 -1.3414 -0.3997
   89SAPC   H9Y 8488   5.323   1.419   5.079 -2.0709 -0.2416  0.8030
   89SAPC  C310 8489   5.316   1.521   4.885  0.5152 -0.1949 -0.4666
   89SAPC  H10X 8490   5.411   1.474   4.850 -0.0987 -2.3865  0.5856
   89SAPC  H10Y 8491   5.288   1.627   4.868 -1.0480 -0.5583 -0.3435
   89SAPC  C311 8492   5.201   1.447   4.812 -0.3016  0.3270 -0.3329
   89SAPC  H11X 8493   5.105   1.501   4.830 -0.3315  0.1540  0.0446
   89SAPC  H11Y 8494   5.189   1.347   4.859  0.0939  0.1650 -0.5765
   89SAPC  C312 8495   5.214   1.420   4.662  0.1665 -0.8996 -0.1535
   89SAPC  H12X 8496   5.302   1.353   4.659  1.2765  0.4827  0.2423
   89SAPC  H12Y 8497   5.239   1.511   4.604  0.3646 -0.2435  0.9305
   89SAPC  C313 8498   5.092   1.363   4.589 -0.2921 -0.0109 -0.0347
   89SAPC  H13X 8499   5.037   1.444   4.537  1.0843  1.0518  0.1039
   89SAPC  H13Y 8500   5.023   1.321   4.665  1.1986 -1.5912  0.5074
   89SAPC  C314 8501   5.150   1.259   4.484  0.1561 -0.0191  0.4409
   89SAPC  H14X 8502   5.234   1.308   4.431  0.0366  0.3732  0.6103
   89SAPC  H14Y 8503   5.071   1.252   4.406  1.9349  2.1925 -1.7270
   89SAPC  C315 8504   5.179   1.126   4.540  0.0686  0.2710 -0.7198
   89SAPC  H15X 8505   5.092   1.076   4.587  3.2170 -1.6836  3.6827
   89SAPC  H15Y 8506   5.250   1.145   4.624  2.6621  1.1942 -2.9649
   89SAPC  C316 8507   5.258   1.036   4.449 -0.7652 -0.0663  0.2984
   89SAPC  H16X 8508   5.304   0.957   4.512 -1.3929 -0.5828  0.1196
   89SAPC  H16Y 8509   5.335   1.093   4.392 -0.9769 -0.4181 -0.3474
   89SAPC  C317 8510   5.156   0.970   4.356 -0.3746  0.4035  0.8513
   89SAPC  H17X 8511   5.091   1.043   4.305  0.0895  0.4242  0.2714
   89SAPC  H17Y 8512   5.082   0.912   4.414 -4.8602  2.6708 -2.0828
   89SAPC  C318 8513   5.215   0.880   4.244 -0.0543 -0.3900  0.4230
   89SAPC  H18X 8514   5.319   0.847   4.266  0.4576  0.3633 -0.7444
   89SAPC  H18Y 8515   5.228   0.941   4.152  1.7516  0.5801  1.2781
   89SAPC  H18Z 8516   5.150   0.792   4.224  0.1651 -0.8574  1.6540
   90SAPC     N 8517   2.035   5.670   6.930 -0.1640  0.1846 -0.5591
   90SAPC   C12 8518   2.094   5.667   6.793  0.2426 -0.6342 -0.5383
   90SAPC  H12A 8519   2.040   5.592   6.736  1.1597 -2.9848  1.4974
   90SAPC  H12B 8520   2.196   5.632   6.803  0.8255  1.3263  0.7312
   90SAPC   C13 8521   1.885   5.687   6.918 -0.2078 -0.1053  0.3100
   90SAPC  H13A 8522   1.839   5.719   7.010 -0.0107  1.1703 -0.0129
   90SAPC  H13B 8523   1.873   5.762   6.842 -2.1528 -0.4021  0.2730
   90SAPC  H13C 8524   1.839   5.593   6.892 -2.2011  1.2703 -1.4362
   90SAPC   C14 8525   2.074   5.548   7.015 -0.3003  0.3156 -0.4471
   90SAPC  H14A 8526   2.023   5.549   7.110 -1.1620 -3.8176 -0.6724
   90SAPC  H14B 8527   2.054   5.452   6.970  1.2604 -1.4182  2.2690
   90SAPC  H14C 8528   2.181   5.534   7.029 -0.3498 -2.1620 -1.8717
   90SAPC   C15 8529   2.078   5.791   7.016 -0.1680 -0.2031  0.4553
   90SAPC  H15A 8530   2.028   5.772   7.110 -0.0478 -1.7481  0.2399
   90SAPC  H15B 8531   2.186   5.795   7.026 -0.2726  0.2669  1.4765
   90SAPC  H15C 8532   2.046   5.884   6.973 -1.2042 -0.1684  1.2627
   90SAPC   C11 8533   2.078   5.791   6.705 -0.1899  0.0147 -0.1467
   90SAPC  H11A 8534   2.147   5.785   6.619  1.8169  1.5596  1.2418
   90SAPC  H11B 8535   2.112   5.884   6.756 -0.6377  0.5267 -0.7731
   90SAPC     P 8536   1.894   5.713   6.550  0.0033 -0.1191  0.2817
   90SAPC   O13 8537   1.906   5.577   6.607  0.8279  0.2386  0.3477
   90SAPC   O14 8538   1.758   5.752   6.512 -0.0766  0.1236 -0.8995
   90SAPC   O12 8539   1.949   5.815   6.656 -0.0226 -0.2525 -0.4176
   90SAPC   O11 8540   1.999   5.733   6.430 -0.6431 -0.4359  0.4051
   90SAPC    C1 8541   1.983   5.854   6.353  0.2260 -0.2519  0.0996
   90SAPC    HA 8542   1.931   5.938   6.404 -1.4321 -0.3951 -1.2695
   90SAPC    HB 8543   2.079   5.896   6.317  0.6008 -1.1911 -0.0201
   90SAPC    C2 8544   1.899   5.826   6.225  0.5676  0.5954  0.6537
   90SAPC    HS 8545   1.814   5.760   6.251  0.0009  1.1631  0.2591
   90SAPC   O21 8546   1.990   5.767   6.119  0.2297 -0.1767  0.5435
   90SAPC   C21 8547   1.940   5.656   6.065  0.7915 -0.2431 -0.4807
   90SAPC   O22 8548   1.825   5.612   6.078 -0.2103  0.5438 -0.3053
   90SAPC   C22 8549   2.051   5.588   5.984 -0.7079 -0.3451  0.1079
   90SAPC   H2R 8550   2.154   5.621   6.009 -0.7277  1.8493 -2.2960
   90SAPC   H2S 8551   2.036   5.480   6.002 -0.3908 -0.1625  1.5793
   90SAPC    C3 8552   1.839   5.956   6.165  0.0057  0.0728  0.5118
   90SAPC    HX 8553   1.915   6.032   6.136 -0.7702  0.7839  0.3406
   90SAPC    HY 8554   1.785   6.000   6.251  2.6636  1.8983  1.3968
   90SAPC   O31 8555   1.756   5.924   6.052 -0.1273  0.1834 -0.6017
   90SAPC   C31 8556   1.628   5.918   6.070 -0.2493  0.6237 -0.9366
   90SAPC   O32 8557   1.566   5.933   6.178 -0.7352 -0.2338  0.3482
   90SAPC   C32 8558   1.568   5.884   5.938 -0.0846 -0.8310 -0.1461
   90SAPC   H2X 8559   1.621   5.796   5.894  1.8934  0.0354  0.3655
   90SAPC   H2Y 8560   1.600   5.967   5.872 -0.8124 -1.3082 -1.1144
   90SAPC   C23 8561   2.025   5.599   5.827  0.0099 -0.3219  0.0357
   90SAPC   H3R 8562   1.920   5.567   5.807  0.1948 -1.5287  0.8982
   90SAPC   H3S 8563   2.091   5.528   5.772 -0.7322 -0.2965 -0.9244
   90SAPC   C24 8564   2.053   5.735   5.773 -0.0831  0.3677  0.5666
   90SAPC   H4R 8565   2.072   5.736   5.664 -1.1394  1.7798  0.3485
   90SAPC   H4S 8566   2.148   5.773   5.816  0.7618 -0.2109 -0.7442
   90SAPC   C25 8567   1.935   5.830   5.798 -0.3351  0.1956 -0.1339
   90SAPC   H5R 8568   1.929   5.883   5.894 -2.3697  1.5096 -0.9057
   90SAPC   C26 8569   1.846   5.876   5.705  0.0458  0.4497 -0.3770
   90SAPC   H6R 8570   1.764   5.941   5.737  1.2258  2.0779 -0.5131
   90SAPC   C27 8571   1.828   5.834   5.558  0.3975 -0.0988  0.1542
   90SAPC   H7R 8572   1.739   5.771   5.537  1.4628 -0.8205 -2.7191
   90SAPC   H7S 8573   1.909   5.762   5.537 -1.0812 -2.6226  2.5157
   90SAPC   C28 8574   1.851   5.947   5.464  0.3451  0.0252  0.0661
   90SAPC   H8R 8575   1.857   6.046   5.510  3.5355  0.2979 -0.7412
   90SAPC   C29 8576   1.853   5.935   5.333 -0.5722 -1.0370  0.0903
   90SAPC   H9R 8577   1.862   6.033   5.284  1.3048 -1.9406 -1.4930
   90SAPC  C210 8578   1.817   5.816   5.250 -0.3611  0.1928 -0.4332
   90SAPC  H10R 8579   1.714   5.830   5.210 -0.4151  1.2089  0.0369
   90SAPC  H10S 8580   1.809   5.718   5.303 -1.3054  1.6187  2.2625
   90SAPC  C211 8581   1.918   5.811   5.137  0.3752  0.2590 -0.1823
   90SAPC  H11R 8582   2.016   5.858   5.153  1.0458 -1.6491  1.9585
   90SAPC  C212 8583   1.894   5.780   5.012  0.4815  0.3831  0.0216
   90SAPC  H12R 8584   1.975   5.799   4.941 -0.2226  1.2069 -0.5790
   90SAPC  C213 8585   1.767   5.733   4.959  0.6154 -0.0841 -0.0397
   90SAPC  H13R 8586   1.765   5.793   4.865 -1.4144 -0.0474 -0.0171
   90SAPC  H13S 8587   1.684   5.746   5.031 -0.9412 -2.1637 -1.3610
   90SAPC  C214 8588   1.763   5.588   4.910  0.7927  0.3720  0.3858
   90SAPC  H14R 8589   1.760   5.516   4.993 -3.3137 -0.1851 -0.0498
   90SAPC  C215 8590   1.769   5.549   4.783 -0.0282  0.2812 -0.0840
   90SAPC  H15R 8591   1.783   5.444   4.752 -0.6589 -0.0718  0.8186
   90SAPC  C216 8592   1.782   5.638   4.661  0.7670  0.2726 -0.1443
   90SAPC  H16R 8593   1.745   5.742   4.677  2.9349  1.0521  0.0230
   90SAPC  H16S 8594   1.727   5.586   4.579 -0.8793 -1.9900  2.2134
   90SAPC  C217 8595   1.929   5.636   4.620 -0.2435  0.7663  0.4804
   90SAPC  H17R 8596   1.975   5.536   4.615  0.2127  0.9785  0.3792
   90SAPC  H17S 8597   1.985   5.690   4.700 -2.1595 -0.0943  2.5078
   90SAPC  C218 8598   1.958   5.710   4.484 -0.0980  0.7198 -0.1349
   90SAPC  H18R 8599   1.913   5.657   4.398  1.2970  1.5087 -1.3991
   90SAPC  H18S 8600   2.068   5.709   4.467  0.7149  1.4688  4.0723
   90SAPC  C219 8601   1.913   5.856   4.494  0.6484 -0.2597 -0.0874
   90SAPC  H19R 8602   1.972   5.910   4.571 -1.4507  1.1240  0.6372
   90SAPC  H19S 8603   1.805   5.864   4.518  0.8057  1.1919  0.2391
   90SAPC  C220 8604   1.925   5.927   4.355 -0.0790  0.3692  0.2405
   90SAPC  H20R 8605   1.864   5.870   4.282 -1.9763  2.2592  0.2705
   90SAPC  H20S 8606   2.029   5.901   4.326  0.3707 -0.1556  2.1625
   90SAPC  H20T 8607   1.905   6.036   4.353  1.3276  0.6317 -0.8104
   90SAPC   C33 8608   1.414   5.880   5.939  0.9932  0.4714 -0.2598
   90SAPC   H3X 8609   1.372   5.979   5.968 -0.4292 -0.2511  0.2797
   90SAPC   H3Y 8610   1.381   5.804   6.013  0.7401  0.3548 -0.4922
   90SAPC   C34 8611   1.350   5.841   5.802 -0.8355  0.2670 -0.0514
   90SAPC   H4X 8612   1.361   5.731   5.788 -0.3155  0.0873  1.5280
   90SAPC   H4Y 8613   1.412   5.883   5.719 -0.2023  0.3459  0.4499
   90SAPC   C35 8614   1.196   5.878   5.787 -0.4225  0.7415 -0.1658
   90SAPC   H5X 8615   1.175   5.847   5.682 -0.4749  0.8661 -0.1914
   90SAPC   H5Y 8616   1.185   5.988   5.794  0.3427  0.8144 -0.0122
   90SAPC   C36 8617   1.112   5.799   5.885  0.5246  0.0628  0.7885
   90SAPC   H6X 8618   1.105   5.854   5.981 -2.2218  2.2622 -0.5125
   90SAPC   H6Y 8619   1.164   5.702   5.894  0.7409  0.0232 -0.6773
   90SAPC   C37 8620   0.964   5.770   5.842  0.5450  0.1681  0.5182
   90SAPC   H7X 8621   0.925   5.873   5.858  0.9343  0.2260  1.1489
   90SAPC   H7Y 8622   0.916   5.697   5.911 -2.2114  0.8484 -0.5199
   90SAPC   C38 8623   0.946   5.716   5.699  0.2798  0.0687  0.3295
   90SAPC   H8X 8624   1.004   5.624   5.674  1.3151  0.9522 -0.5813
   90SAPC   H8Y 8625   0.990   5.793   5.632 -1.4011  1.2246  0.5036
   90SAPC   C39 8626   0.799   5.703   5.659  0.4925 -0.3081 -0.3563
   90SAPC   H9X 8627   0.743   5.799   5.663  1.0434 -0.0225  0.7841
   90SAPC   H9Y 8628   0.747   5.642   5.735 -0.5787 -1.5974 -2.0380
   90SAPC  C310 8629   0.772   5.641   5.518 -0.0781 -0.3079 -0.7237
   90SAPC  H10X 8630   0.846   5.560   5.498  2.1261  1.5010 -0.2978
   90SAPC  H10Y 8631   0.800   5.717   5.442  0.7783  0.2875  0.1591
   90SAPC  C311 8632   0.630   5.598   5.495  0.0913  0.3552 -0.5290
   90SAPC  H11X 8633   0.595   5.532   5.578  2.2221 -0.2373 -0.0302
   90SAPC  H11Y 8634   0.620   5.560   5.391  0.1108 -0.9706 -0.0668
   90SAPC  C312 8635   0.542   5.729   5.485 -0.2407  0.6098 -0.4837
   90SAPC  H12X 8636   0.603   5.820   5.466 -2.7723  2.9558  1.6121
   90SAPC  H12Y 8637   0.509   5.757   5.587  3.4866  0.0375  1.0591
   90SAPC  C313 8638   0.418   5.717   5.388 -0.2943 -0.0348 -0.5017
   90SAPC  H13X 8639   0.349   5.800   5.413  0.7677  0.5832  0.5151
   90SAPC  H13Y 8640   0.365   5.619   5.388 -2.7637  1.2294 -0.8355
   90SAPC  C314 8641   0.463   5.752   5.241 -0.6015 -0.9138  0.6670
   90SAPC  H14X 8642   0.547   5.683   5.216 -1.0817 -0.7505 -1.6179
   90SAPC  H14Y 8643   0.503   5.855   5.228 -0.7844 -0.6917  1.7979
   90SAPC  C315 8644   0.348   5.731   5.139  0.6428  0.4596 -0.2493
   90SAPC  H15X 8645   0.253   5.777   5.172  0.8524  0.2255  0.6895
   90SAPC  H15Y 8646   0.322   5.628   5.108  2.5229 -0.3861  0.7896
   90SAPC  C316 8647   0.368   5.807   5.008 -0.6901 -0.0685  0.4610
   90SAPC  H16X 8648   0.474   5.793   4.980 -0.7454 -2.5423  1.2859
   90SAPC  H16Y 8649   0.348   5.914   5.030 -0.5630 -0.4148  2.4483
   90SAPC  C317 8650   0.285   5.756   4.884 -1.0621 -0.2326  0.8315
   90SAPC  H17X 8651   0.300   5.821   4.796  0.0652 -0.4187  0.8712
   90SAPC  H17Y 8652   0.180   5.755   4.921 -0.3655 -1.7386  3.0258
   90SAPC  C318 8653   0.324   5.617   4.839 -0.1411 -0.5736 -0.3759
   90SAPC  H18X 8654   0.278   5.543   4.908  0.3662 -2.6532 -2.1371
   90SAPC  H18Y 8655   0.435   5.604   4.840  0.0935  1.1423 -0.8447
   90SAPC  H18Z 8656   0.304   5.602   4.730  1.0879  0.9547 -0.8487
   91SAPC     N 8657   6.072   6.300   6.641 -0.3042 -0.0065  0.2604
   91SAPC   C12 8658   6.118   6.443   6.622 -0.8112  0.3592 -0.4394
   91SAPC  H12A 8659   6.169   6.477   6.711 -1.3931  1.3634 -0.4700
   91SAPC  H12B 8660   6.032   6.508   6.614 -1.5194 -0.5881 -0.7231
   91SAPC   C13 8661   5.972   6.288   6.760  0.5234 -0.6311  0.0102
   91SAPC  H13A 8662   6.016   6.326   6.850  1.9364 -1.9535 -0.0786
   91SAPC  H13B 8663   5.876   6.337   6.749  0.0682 -1.4839  0.0433
   91SAPC  H13C 8664   5.961   6.182   6.776  1.7460 -0.6949  0.5055
   91SAPC   C14 8665   5.993   6.257   6.521  0.1603  0.1453  0.2306
   91SAPC  H14A 8666   5.947   6.159   6.531  1.6795 -0.5851  0.3499
   91SAPC  H14B 8667   5.924   6.333   6.487 -1.1959 -1.3778 -0.6048
   91SAPC  H14C 8668   6.059   6.254   6.435  0.4967  0.2730  0.4805
   91SAPC   C15 8669   6.182   6.200   6.660  0.0818 -0.1671 -0.7348
   91SAPC  H15A 8670   6.244   6.217   6.747  0.8885 -0.7390 -1.1737
   91SAPC  H15B 8671   6.132   6.104   6.660 -2.1945  0.9543 -0.8886
   91SAPC  H15C 8672   6.253   6.198   6.578  0.9516  0.5091 -0.0178
   91SAPC   C11 8673   6.216   6.466   6.497  0.1680 -0.5721 -0.0163
   91SAPC  H11A 8674   6.233   6.575   6.482  0.5455 -0.4826  1.0153
   91SAPC  H11B 8675   6.163   6.436   6.404 -0.2218  1.4386 -0.4928
   91SAPC     P 8676   6.470   6.438   6.584  0.1851  0.0575 -0.3046
   91SAPC   O13 8677   6.442   6.522   6.704 -0.2796  0.1515 -0.4344
   91SAPC   O14 8678   6.542   6.311   6.613  0.3225  0.2416  0.4595
   91SAPC   O12 8679   6.337   6.395   6.510  0.3010  0.1471  0.2244
   91SAPC   O11 8680   6.546   6.519   6.480 -0.1476 -0.3795  0.0295
   91SAPC    C1 8681   6.582   6.465   6.347 -0.3718  0.2178  0.8477
   91SAPC    HA 8682   6.633   6.368   6.363  0.3611  0.8845  2.9246
   91SAPC    HB 8683   6.486   6.447   6.294  1.0603 -0.1882 -1.7346
   91SAPC    C2 8684   6.677   6.557   6.272 -0.1847 -0.0495  0.5370
   91SAPC    HS 8685   6.765   6.566   6.340  2.0662 -2.1737 -1.8663
   91SAPC   O21 8686   6.617   6.679   6.240 -0.2297 -0.2595  0.2776
   91SAPC   C21 8687   6.693   6.787   6.210 -0.4472  0.5334 -0.4097
   91SAPC   O22 8688   6.814   6.786   6.218 -0.5974 -0.2207 -0.1923
   91SAPC   C22 8689   6.609   6.908   6.165 -0.0151  0.4219  0.5758
   91SAPC   H2R 8690   6.501   6.891   6.186 -0.1012  2.2643  1.8383
   91SAPC   H2S 8691   6.649   6.995   6.221 -0.2289  0.1808  1.1069
   91SAPC    C3 8692   6.741   6.501   6.136  0.0482 -0.2247 -0.7296
   91SAPC    HX 8693   6.815   6.424   6.166  0.4491  0.0785 -0.9312
   91SAPC    HY 8694   6.804   6.581   6.092 -0.1515 -1.0477 -2.6026
   91SAPC   O31 8695   6.648   6.460   6.036 -0.2751 -0.0656  0.1834
   91SAPC   C31 8696   6.689   6.386   5.936 -0.2477 -0.4024 -0.7893
   91SAPC   O32 8697   6.805   6.344   5.925 -0.2604 -0.2267 -0.5936
   91SAPC   C32 8698   6.572   6.346   5.848  0.4553  0.5150  0.6153
   91SAPC   H2X 8699   6.522   6.442   5.822  4.1544  3.1923  2.4046
   91SAPC   H2Y 8700   6.500   6.279   5.900 -0.5148  1.0757  0.0187
   91SAPC   C23 8701   6.609   6.941   6.010 -0.6656 -0.5128 -0.0584
   91SAPC   H3R 8702   6.714   6.930   5.974 -0.5283 -0.3454  0.2908
   91SAPC   H3S 8703   6.583   7.049   6.007  0.1193 -0.1457  2.8719
   91SAPC   C24 8704   6.501   6.868   5.922 -0.1088 -0.1448 -0.0537
   91SAPC   H4R 8705   6.398   6.878   5.961 -1.0644 -3.5484 -1.3710
   91SAPC   H4S 8706   6.517   6.759   5.931 -0.0966 -0.0478  1.2237
   91SAPC   C25 8707   6.502   6.920   5.775  0.4033 -0.1869 -0.0667
   91SAPC   H5R 8708   6.533   7.025   5.765 -0.6147  0.1605  0.3374
   91SAPC   C26 8709   6.488   6.850   5.664  0.3551 -0.1651 -0.2666
   91SAPC   H6R 8710   6.494   6.902   5.567 -1.3431  0.9225  0.1749
   91SAPC   C27 8711   6.452   6.706   5.636  0.6294 -0.1396 -0.1140
   91SAPC   H7R 8712   6.430   6.662   5.736 -0.6109  0.6488 -0.0222
   91SAPC   H7S 8713   6.536   6.651   5.589  1.0756 -1.0879  1.7069
   91SAPC   C28 8714   6.334   6.690   5.547  0.4372  0.2822  0.5821
   91SAPC   H8R 8715   6.238   6.695   5.600 -1.4933 -1.8171 -2.4219
   91SAPC   C29 8716   6.339   6.678   5.413 -0.5671  0.4230  0.8712
   91SAPC   H9R 8717   6.254   6.671   5.344  0.6910  0.2031 -0.7249
   91SAPC  C210 8718   6.470   6.681   5.335 -0.1981 -0.5336 -0.4065
   91SAPC  H10R 8719   6.550   6.746   5.377 -2.4718  1.0345  1.7130
   91SAPC  H10S 8720   6.450   6.728   5.236 -0.3252  1.9362  0.7143
   91SAPC  C211 8721   6.533   6.544   5.314 -0.2938 -0.1582 -0.4860
   91SAPC  H11R 8722   6.551   6.481   5.403 -2.4583 -0.4341 -0.1781
   91SAPC  C212 8723   6.563   6.496   5.193 -0.4566  1.0078 -0.5170
   91SAPC  H12R 8724   6.618   6.401   5.202 -0.7949  1.0065  2.4896
   91SAPC  C213 8725   6.533   6.543   5.061 -0.0947 -0.6536 -0.0503
   91SAPC  H13R 8726   6.441   6.606   5.059  0.4498  0.1451 -0.2895
   91SAPC  H13S 8727   6.517   6.447   5.008  0.1487 -0.9585  0.4271
   91SAPC  C214 8728   6.641   6.622   4.992 -0.3795  0.3732  0.2359
   91SAPC  H14R 8729   6.632   6.729   5.018  1.3308  0.3834  0.9519
   91SAPC  C215 8730   6.732   6.567   4.903  0.3241  0.3043  0.3629
   91SAPC  H15R 8731   6.804   6.639   4.862  0.5426 -0.5351 -0.7645
   91SAPC  C216 8732   6.732   6.419   4.857  0.2746  0.0661  0.1150
   91SAPC  H16R 8733   6.789   6.412   4.762  1.2637  0.1214  0.6844
   91SAPC  H16S 8734   6.626   6.397   4.833  0.6148 -0.6122 -0.8218
   91SAPC  C217 8735   6.798   6.326   4.962  0.2022 -0.6211  0.3543
   91SAPC  H17R 8736   6.735   6.237   4.944 -0.1779  0.1738 -2.8665
   91SAPC  H17S 8737   6.768   6.351   5.066  1.0266  0.5809  0.3262
   91SAPC  C218 8738   6.948   6.328   4.947  0.2857 -0.2901  0.7787
   91SAPC  H18R 8739   6.982   6.422   4.994  0.4200  0.4365 -0.7053
   91SAPC  H18S 8740   6.977   6.335   4.839  0.7401 -1.1720  0.8287
   91SAPC  C219 8741   7.021   6.209   5.013 -0.2290 -0.6291  0.2205
   91SAPC  H19R 8742   7.012   6.222   5.123 -1.1266 -0.7121  0.1641
   91SAPC  H19S 8743   7.128   6.219   4.983 -0.7200 -0.5287 -1.6091
   91SAPC  C220 8744   6.962   6.075   4.972  1.0791  1.0699 -0.0589
   91SAPC  H20R 8745   6.949   6.085   4.862 -1.0066  1.3917  0.1645
   91SAPC  H20S 8746   6.861   6.066   5.018  0.2977  0.3555 -1.7986
   91SAPC  H20T 8747   7.029   5.989   4.993 -1.5055 -0.6560  1.8657
   91SAPC   C33 8748   6.640   6.283   5.721  0.5064  0.4128 -0.1125
   91SAPC   H3X 8749   6.688   6.184   5.738 -0.8698  0.0668  2.1392
   91SAPC   H3Y 8750   6.713   6.358   5.684  2.6802 -1.7063 -0.3570
   91SAPC   C34 8751   6.538   6.250   5.611  0.4257 -0.1824 -0.2082
   91SAPC   H4X 8752   6.487   6.342   5.574  0.9380 -0.1012 -0.7391
   91SAPC   H4Y 8753   6.452   6.197   5.655  1.3124 -0.9292  0.6703
   91SAPC   C35 8754   6.613   6.189   5.492 -0.3653  0.0738 -1.0075
   91SAPC   H5X 8755   6.660   6.096   5.531 -2.9043 -1.0315 -0.4003
   91SAPC   H5Y 8756   6.690   6.253   5.442  2.3923 -1.2754  1.2428
   91SAPC   C36 8757   6.523   6.156   5.372 -0.7341 -0.6543 -0.3394
   91SAPC   H6X 8758   6.477   6.245   5.325  0.4990 -0.1133 -0.5760
   91SAPC   H6Y 8759   6.445   6.083   5.401 -0.4782 -1.3353 -1.2880
   91SAPC   C37 8760   6.612   6.096   5.262  0.3365 -0.1465  0.4398
   91SAPC   H7X 8761   6.665   6.009   5.307  0.2343  0.3787  1.6208
   91SAPC   H7Y 8762   6.690   6.167   5.227  1.2098 -1.1704  0.2817
   91SAPC   C38 8763   6.526   6.052   5.137  0.1690 -0.4007 -0.1634
   91SAPC   H8X 8764   6.447   5.979   5.167  0.5797 -0.1664  1.5940
   91SAPC   H8Y 8765   6.598   6.003   5.068 -1.3492 -2.2444 -0.5353
   91SAPC   C39 8766   6.461   6.164   5.048  0.3430 -0.0503 -0.5843
   91SAPC   H9X 8767   6.548   6.223   5.013  1.1708 -1.1808 -0.4999
   91SAPC   H9Y 8768   6.399   6.223   5.119  3.2941  0.5570  1.7028
   91SAPC  C310 8769   6.386   6.093   4.934  0.1893 -0.0625  0.2635
   91SAPC  H10X 8770   6.314   6.167   4.893  0.0816  0.0777  0.7008
   91SAPC  H10Y 8771   6.327   6.008   4.975 -0.3106 -0.9507 -2.1557
   91SAPC  C311 8772   6.478   6.040   4.814  0.1857 -0.1331 -0.1798
   91SAPC  H11X 8773   6.556   5.971   4.853  0.2308 -0.4500 -0.8294
   91SAPC  H11Y 8774   6.527   6.135   4.784 -0.6141  0.4257  0.2442
   91SAPC  C312 8775   6.384   5.989   4.709 -0.3925 -0.0581  0.7622
   91SAPC  H12X 8776   6.308   6.064   4.678  1.6471  0.8917 -2.3992
   91SAPC  H12Y 8777   6.332   5.900   4.753 -0.8186  0.2072  0.7973
   91SAPC  C313 8778   6.461   5.954   4.573  0.6369 -0.7123 -0.0392
   91SAPC  H13X 8779   6.545   5.882   4.575 -1.7064 -3.6498  0.2434
   91SAPC  H13Y 8780   6.510   6.049   4.543  0.4067 -0.3756  0.6307
   91SAPC  C314 8781   6.357   5.897   4.466  0.4725  0.0790 -0.2654
   91SAPC  H14X 8782   6.286   5.979   4.442  0.4597  0.0194 -0.4333
   91SAPC  H14Y 8783   6.302   5.806   4.497  1.7112 -0.7368 -0.4226
   91SAPC  C315 8784   6.421   5.864   4.332 -0.2111  0.7590 -0.1537
   91SAPC  H15X 8785   6.508   5.795   4.337  1.1087  2.3793  0.0620
   91SAPC  H15Y 8786   6.482   5.951   4.299  0.5506  0.5195  0.6048
   91SAPC  C316 8787   6.319   5.813   4.233  0.2324  0.0106 -0.1527
   91SAPC  H16X 8788   6.229   5.879   4.232  0.3982  0.2303 -0.7967
   91SAPC  H16Y 8789   6.288   5.712   4.266 -0.3427 -0.0438 -0.8320
   91SAPC  C317 8790   6.387   5.793   4.097  0.3298  0.1852 -0.3460
   91SAPC  H17X 8791   6.302   5.741   4.047 -0.7894 -1.0105  2.5129
   91SAPC  H17Y 8792   6.474   5.725   4.109  0.0916  0.2490  2.5135
   91SAPC  C318 8793   6.429   5.910   4.010  0.1686  0.0933  0.6154
   91SAPC  H18X 8794   6.349   5.985   3.991  0.4777 -0.0838 -1.8240
   91SAPC  H18Y 8795   6.458   5.877   3.908 -1.3005  2.6683 -0.7456
   91SAPC  H18Z 8796   6.511   5.969   4.054  0.5681  0.9266 -1.1516
   92SAPC     N 8797   0.699   3.957   6.583  0.3335 -0.3412 -0.1465
   92SAPC   C12 8798   0.737   3.928   6.438 -0.0029  0.7105  0.7668
   92SAPC  H12A 8799   0.660   3.860   6.405  1.4033 -0.3653 -0.4319
   92SAPC  H12B 8800   0.829   3.871   6.434  1.3267  2.8579 -1.3218
   92SAPC   C13 8801   0.664   3.828   6.649 -0.3791 -0.0939  0.5261
   92SAPC  H13A 8802   0.750   3.763   6.645  0.6212  1.1914 -2.3224
   92SAPC  H13B 8803   0.663   3.847   6.755 -0.1528  2.0418  0.1916
   92SAPC  H13C 8804   0.564   3.799   6.621 -0.3061 -0.2482  0.4234
   92SAPC   C14 8805   0.804   4.028   6.654 -0.0191 -0.3208 -0.6476
   92SAPC  H14A 8806   0.897   3.975   6.647  0.2417 -0.0148  0.3315
   92SAPC  H14B 8807   0.818   4.120   6.598  2.0516  0.3621  0.8554
   92SAPC  H14C 8808   0.779   4.057   6.755 -0.6877  0.4601 -1.0196
   92SAPC   C15 8809   0.573   4.033   6.593  0.6752  0.6824  0.2560
   92SAPC  H15A 8810   0.553   4.065   6.694  0.1632  0.7254  0.1456
   92SAPC  H15B 8811   0.574   4.121   6.531 -0.7057  0.1526 -0.5773
   92SAPC  H15C 8812   0.497   3.974   6.544  1.7893 -0.3512 -0.2923
   92SAPC   C11 8813   0.748   4.052   6.347  0.6921  0.2224  0.3660
   92SAPC  H11A 8814   0.648   4.099   6.355  0.5824 -0.2170  1.9207
   92SAPC  H11B 8815   0.764   3.999   6.250 -0.5535  0.6363 -0.0885
   92SAPC     P 8816   1.000   4.114   6.356  0.3557  0.0597  0.3464
   92SAPC   O13 8817   1.087   4.208   6.433 -0.2483 -0.1313 -0.3243
   92SAPC   O14 8818   1.023   3.971   6.388 -0.5997 -0.5872  0.1195
   92SAPC   O12 8819   0.849   4.145   6.383 -0.5480 -0.1189 -0.3690
   92SAPC   O11 8820   1.015   4.139   6.197  0.1823 -0.2840 -0.5703
   92SAPC    C1 8821   0.922   4.222   6.124  0.4202 -0.2012  0.5467
   92SAPC    HA 8822   0.817   4.187   6.126 -0.2308  1.6124  0.4797
   92SAPC    HB 8823   0.919   4.321   6.176  0.2055 -1.0393  2.2036
   92SAPC    C2 8824   0.965   4.240   5.974  0.8357  0.7313 -0.2412
   92SAPC    HS 8825   0.963   4.137   5.930  1.0060  1.3780 -1.8386
   92SAPC   O21 8826   1.101   4.287   5.961 -0.5205 -0.2437  0.2073
   92SAPC   C21 8827   1.130   4.406   6.005  0.1753  0.2548 -0.5616
   92SAPC   O22 8828   1.049   4.485   6.054 -0.6457  0.0476  0.0357
   92SAPC   C22 8829   1.285   4.433   6.007  0.8556  0.8028 -0.3466
   92SAPC   H2R 8830   1.302   4.498   6.096  0.6843 -1.3847  1.3697
   92SAPC   H2S 8831   1.340   4.341   6.036  0.3397  0.5325 -0.2186
   92SAPC    C3 8832   0.856   4.320   5.893  0.5440  0.3943  0.7260
   92SAPC    HX 8833   0.846   4.416   5.947  4.2753  1.3774 -0.0799
   92SAPC    HY 8834   0.763   4.263   5.917  1.7459 -0.8363  2.7643
   92SAPC   O31 8835   0.894   4.329   5.752  0.7873 -0.2216  0.3817
   92SAPC   C31 8836   0.885   4.219   5.680 -0.5649 -0.5794  0.2602
   92SAPC   O32 8837   0.830   4.116   5.703  0.2714  0.5019  0.4083
   92SAPC   C32 8838   0.956   4.230   5.543  0.4423 -0.7254  0.5485
   92SAPC   H2X 8839   1.063   4.239   5.569  0.4647  2.3316 -0.1850
   92SAPC   H2Y 8840   0.937   4.331   5.501  1.5095 -0.3985  0.8336
   92SAPC   C23 8841   1.335   4.498   5.887  0.0434  0.3289  0.3413
   92SAPC   H3R 8842   1.446   4.492   5.883 -0.0169 -1.0765  0.0909
   92SAPC   H3S 8843   1.300   4.604   5.888 -0.4365  0.3056 -2.8609
   92SAPC   C24 8844   1.271   4.436   5.754  0.3577 -0.2297 -0.2305
   92SAPC   H4R 8845   1.291   4.510   5.674  0.4714 -1.6987 -1.6157
   92SAPC   H4S 8846   1.160   4.434   5.758  0.3837 -0.5063  0.3527
   92SAPC   C25 8847   1.314   4.295   5.727 -0.6774 -0.2297  0.0285
   92SAPC   H5R 8848   1.306   4.221   5.808  0.5440  0.1680  0.5363
   92SAPC   C26 8849   1.377   4.250   5.617 -0.0845  0.0552  0.1427
   92SAPC   H6R 8850   1.414   4.146   5.624  1.8852  0.5939 -1.3255
   92SAPC   C27 8851   1.417   4.323   5.499  0.0713  0.4682  0.4264
   92SAPC   H7R 8852   1.493   4.264   5.443 -0.0636 -0.0319  0.7571
   92SAPC   H7S 8853   1.478   4.406   5.541  0.6040 -0.6796  2.0111
   92SAPC   C28 8854   1.307   4.366   5.413  0.7723 -0.2586  1.1556
   92SAPC   H8R 8855   1.213   4.401   5.458  0.1114  2.9868 -2.1907
   92SAPC   C29 8856   1.325   4.412   5.289  0.8943 -0.5869  0.1020
   92SAPC   H9R 8857   1.242   4.442   5.225  0.2497 -2.2880  0.1018
   92SAPC  C210 8858   1.458   4.410   5.219 -0.5699  0.0663  0.0193
   92SAPC  H10R 8859   1.541   4.425   5.292 -0.2312  1.0361 -0.5452
   92SAPC  H10S 8860   1.460   4.499   5.153  0.3306  0.0189 -0.0351
   92SAPC  C211 8861   1.468   4.280   5.138 -0.0141 -0.4768 -0.2191
   92SAPC  H11R 8862   1.448   4.197   5.207 -2.2613  2.0913  2.5004
   92SAPC  C212 8863   1.490   4.251   5.011 -0.3860 -0.6530  0.2858
   92SAPC  H12R 8864   1.503   4.148   4.975 -0.4829 -1.0659  1.3782
   92SAPC  C213 8865   1.552   4.350   4.911  0.1227  0.2016 -0.1088
   92SAPC  H13R 8866   1.604   4.433   4.965 -0.7740  0.4065  0.4643
   92SAPC  H13S 8867   1.468   4.398   4.856  0.7219  1.0112 -0.3417
   92SAPC  C214 8868   1.649   4.287   4.809  0.3274 -0.3412  1.0329
   92SAPC  H14R 8869   1.741   4.245   4.852  0.2444  0.3929  1.9814
   92SAPC  C215 8870   1.620   4.279   4.672 -0.2541 -0.5111 -0.4018
   92SAPC  H15R 8871   1.697   4.231   4.610 -1.2196 -2.5409 -0.1053
   92SAPC  C216 8872   1.499   4.336   4.598 -0.1355 -0.1217 -0.3586
   92SAPC  H16R 8873   1.514   4.441   4.566 -1.1156  0.1676  0.1072
   92SAPC  H16S 8874   1.405   4.315   4.654 -0.2266 -0.7167 -0.7176
   92SAPC  C217 8875   1.494   4.260   4.459  0.4471 -0.1216  0.7895
   92SAPC  H17R 8876   1.476   4.154   4.487  1.1030 -1.1718 -2.3028
   92SAPC  H17S 8877   1.591   4.274   4.407 -1.1102 -0.5129 -2.5592
   92SAPC  C218 8878   1.364   4.299   4.374 -0.0253 -0.4012  0.0884
   92SAPC  H18R 8879   1.313   4.387   4.417 -0.2124 -1.7261  2.7860
   92SAPC  H18S 8880   1.288   4.218   4.374 -2.5723  1.8499  0.3778
   92SAPC  C219 8881   1.395   4.343   4.225 -0.2613 -0.1628  0.3171
   92SAPC  H19R 8882   1.440   4.445   4.233  2.9421 -1.5492  2.1629
   92SAPC  H19S 8883   1.297   4.345   4.173 -0.5121 -0.6207  0.7656
   92SAPC  C220 8884   1.491   4.251   4.148  0.5701 -0.9041 -0.2478
   92SAPC  H20R 8885   1.599   4.273   4.168  0.0388 -0.0038  1.8814
   92SAPC  H20S 8886   1.468   4.249   4.040 -1.3516  0.4849  0.0832
   92SAPC  H20T 8887   1.480   4.143   4.172  1.4118 -0.9104  0.1539
   92SAPC   C33 8888   0.920   4.124   5.443 -0.4875 -0.1361  0.0232
   92SAPC   H3X 8889   0.811   4.119   5.419 -0.5404 -0.0757  0.2425
   92SAPC   H3Y 8890   0.934   4.026   5.494  2.8388  0.1544 -0.1291
   92SAPC   C34 8891   1.006   4.143   5.314  0.7331 -0.0963  0.0944
   92SAPC   H4X 8892   1.000   4.040   5.271  0.0768 -0.4325  0.9798
   92SAPC   H4Y 8893   1.111   4.163   5.344  0.1996 -0.8615  2.6586
   92SAPC   C35 8894   0.944   4.238   5.207 -0.5646 -0.2418  0.1647
   92SAPC   H5X 8895   0.924   4.345   5.232 -4.5544  0.0487 -3.1932
   92SAPC   H5Y 8896   0.846   4.199   5.174 -1.6940  1.2530  1.6078
   92SAPC   C36 8897   1.033   4.239   5.082 -0.0144  0.1230 -0.2082
   92SAPC   H6X 8898   1.013   4.142   5.032 -1.2173 -0.2145  0.8990
   92SAPC   H6Y 8899   1.142   4.251   5.104  0.2187 -1.6524 -0.2237
   92SAPC   C37 8900   0.992   4.350   4.983  0.1146 -0.1448  0.0101
   92SAPC   H7X 8901   1.024   4.453   5.011  1.7906 -1.1978  2.2584
   92SAPC   H7Y 8902   0.881   4.353   4.982  0.1096 -0.1378  0.3776
   92SAPC   C38 8903   1.052   4.315   4.839 -0.2847  0.4580  0.0559
   92SAPC   H8X 8904   1.028   4.210   4.811  0.6722  0.7364 -2.0623
   92SAPC   H8Y 8905   1.163   4.318   4.844 -0.2303  2.5626 -1.2453
   92SAPC   C39 8906   1.006   4.409   4.732  0.1570 -0.1483 -0.6067
   92SAPC   H9X 8907   1.007   4.519   4.750 -1.8513 -0.0257 -1.0347
   92SAPC   H9Y 8908   0.900   4.378   4.715 -0.2338  0.6456  0.2562
   92SAPC  C310 8909   1.078   4.380   4.602  0.5780 -0.1597 -0.0701
   92SAPC  H10X 8910   1.090   4.271   4.584 -1.8858 -0.3955 -0.7021
   92SAPC  H10Y 8911   1.180   4.423   4.604  0.1980  0.8519 -0.9983
   92SAPC  C311 8912   1.001   4.438   4.474 -0.4129 -0.0456 -0.2103
   92SAPC  H11X 8913   0.896   4.404   4.480  0.0235 -1.1222  2.7774
   92SAPC  H11Y 8914   1.043   4.386   4.386  2.7559  1.3501  0.3100
   92SAPC  C312 8915   1.011   4.593   4.457  0.0025  0.3482 -0.1946
   92SAPC  H12X 8916   0.974   4.653   4.543  2.4164  1.3644  0.2122
   92SAPC  H12Y 8917   0.943   4.616   4.373  0.0347 -0.0497 -0.3312
   92SAPC  C313 8918   1.144   4.649   4.403 -0.8866  0.3958 -0.0176
   92SAPC  H13X 8919   1.193   4.562   4.354 -0.5835 -0.0408  1.0186
   92SAPC  H13Y 8920   1.220   4.687   4.475 -0.7030 -0.8030  0.4462
   92SAPC  C314 8921   1.117   4.762   4.300 -0.2661  0.2759  0.4035
   92SAPC  H14X 8922   1.052   4.835   4.353 -2.8678 -2.9665  2.0812
   92SAPC  H14Y 8923   1.062   4.728   4.210  1.8730 -1.0600 -0.4983
   92SAPC  C315 8924   1.251   4.823   4.252 -0.6584 -0.0557  0.1303
   92SAPC  H15X 8925   1.278   4.756   4.169 -0.2572 -0.5035  0.6146
   92SAPC  H15Y 8926   1.317   4.844   4.339 -1.0370  2.2316 -0.0580
   92SAPC  C316 8927   1.251   4.957   4.177  0.3733  0.1192  0.1897
   92SAPC  H16X 8928   1.172   4.966   4.100 -0.3645  1.2729  1.0556
   92SAPC  H16Y 8929   1.352   4.978   4.135  2.0954 -0.2452  3.7488
   92SAPC  C317 8930   1.243   5.084   4.265 -0.2731 -0.8041 -0.1524
   92SAPC  H17X 8931   1.341   5.109   4.311 -1.5038  1.6953  1.3303
   92SAPC  H17Y 8932   1.169   5.069   4.346 -1.0947  2.7587 -0.0592
   92SAPC  C318 8933   1.190   5.200   4.176  0.1043  0.1934  0.8478
   92SAPC  H18X 8934   1.242   5.206   4.078  0.3224  2.8043  1.0457
   92SAPC  H18Y 8935   1.212   5.298   4.225  0.8103  0.4754 -0.0079
   92SAPC  H18Z 8936   1.080   5.189   4.168  0.4430 -4.5096 -0.4197
   93SAPC     N 8937   2.695   5.106   6.707 -0.2966 -0.5207 -0.9646
   93SAPC   C12 8938   2.619   5.210   6.799  0.0413  0.7830 -0.1675
   93SAPC  H12A 8939   2.662   5.214   6.898  0.9325 -0.7835 -0.4561
   93SAPC  H12B 8940   2.523   5.163   6.809  0.1946  0.3154 -0.7770
   93SAPC   C13 8941   2.645   5.101   6.565  0.2989  0.2717  0.2438
   93SAPC  H13A 8942   2.669   5.193   6.513 -0.4881 -0.3402 -1.2872
   93SAPC  H13B 8943   2.694   5.023   6.509 -1.3655 -1.3218  0.9013
   93SAPC  H13C 8944   2.542   5.068   6.562  1.0231 -2.1386 -1.5498
   93SAPC   C14 8945   2.838   5.135   6.701  0.4897  0.0469  0.2212
   93SAPC  H14A 8946   2.894   5.070   6.635  1.8721 -0.4844  1.8470
   93SAPC  H14B 8947   2.850   5.233   6.658  2.4097 -0.7616 -1.2765
   93SAPC  H14C 8948   2.876   5.131   6.802  0.9355  0.6724  0.0852
   93SAPC   C15 8949   2.679   4.970   6.763 -0.0424  0.3278 -0.0862
   93SAPC  H15A 8950   2.726   4.889   6.710 -1.2637 -0.5389  0.1181
   93SAPC  H15B 8951   2.700   4.975   6.869  0.2443  2.2699 -0.1899
   93SAPC  H15C 8952   2.576   4.941   6.746 -0.3507  2.0041 -1.4284
   93SAPC   C11 8953   2.595   5.355   6.750 -0.3632 -0.0993 -0.1530
   93SAPC  H11A 8954   2.558   5.418   6.834  0.5213  0.2994 -0.0546
   93SAPC  H11B 8955   2.515   5.347   6.673 -0.0564 -0.3472 -0.4477
   93SAPC     P 8956   2.721   5.553   6.638  0.0043 -0.2196 -0.5060
   93SAPC   O13 8957   2.703   5.655   6.745 -0.7567  0.1561 -0.1699
   93SAPC   O14 8958   2.851   5.561   6.571 -0.1706 -0.0219 -0.0662
   93SAPC   O12 8959   2.716   5.405   6.692  0.1168 -0.2140  0.0218
   93SAPC   O11 8960   2.605   5.563   6.544 -0.2049 -0.1707  0.3829
   93SAPC    C1 8961   2.594   5.489   6.425 -0.2923 -0.5115  0.4030
   93SAPC    HA 8962   2.677   5.415   6.422  3.1445  2.9485  1.7628
   93SAPC    HB 8963   2.494   5.443   6.410 -0.9088  0.8611  0.2093
   93SAPC    C2 8964   2.627   5.583   6.307 -0.3258  0.7684 -0.7611
   93SAPC    HS 8965   2.716   5.644   6.334 -0.2245  0.0110  0.6732
   93SAPC   O21 8966   2.524   5.682   6.293  0.8959 -0.0854  0.3514
   93SAPC   C21 8967   2.542   5.800   6.241  0.5392 -0.2611  0.6039
   93SAPC   O22 8968   2.651   5.847   6.201  0.0271 -0.5010  0.0486
   93SAPC   C22 8969   2.409   5.876   6.246  0.3494  0.6518 -0.2355
   93SAPC   H2R 8970   2.324   5.805   6.241  0.3547  0.7051 -1.5377
   93SAPC   H2S 8971   2.413   5.925   6.345 -0.8954 -0.4071  0.3737
   93SAPC    C3 8972   2.645   5.509   6.168 -0.3076 -0.1879 -0.0153
   93SAPC    HX 8973   2.539   5.487   6.146  0.2654 -0.6080 -2.6345
   93SAPC    HY 8974   2.711   5.420   6.178  4.0170  2.4958 -1.8700
   93SAPC   O31 8975   2.692   5.603   6.064  0.2126  0.7610 -0.0848
   93SAPC   C31 8976   2.823   5.629   6.071  0.2511 -0.1242 -0.1321
   93SAPC   O32 8977   2.900   5.599   6.161  0.3072  0.5547 -0.1580
   93SAPC   C32 8978   2.872   5.709   5.946 -0.5438  0.1073 -0.4215
   93SAPC   H2X 8979   2.982   5.692   5.955 -1.0068 -3.9874 -0.5751
   93SAPC   H2Y 8980   2.848   5.817   5.957  1.8113  0.6890 -0.4957
   93SAPC   C23 8981   2.389   5.985   6.138  0.0325  0.2150 -0.8259
   93SAPC   H3R 8982   2.450   6.076   6.160 -0.4765  0.2635  0.5073
   93SAPC   H3S 8983   2.283   6.016   6.153  0.3944  1.8391 -1.3860
   93SAPC   C24 8984   2.407   5.941   5.994 -0.1896  0.3012 -0.0606
   93SAPC   H4R 8985   2.336   5.863   5.959  0.2816 -0.1977  0.0879
   93SAPC   H4S 8986   2.507   5.896   5.980 -0.4712 -0.0072 -1.1819
   93SAPC   C25 8987   2.382   6.060   5.904  0.2220 -0.1299  0.0238
   93SAPC   H5R 8988   2.315   6.139   5.942 -1.0910 -0.4283 -1.5583
   93SAPC   C26 8989   2.433   6.076   5.779  0.3553  0.0136 -0.9165
   93SAPC   H6R 8990   2.400   6.169   5.730 -2.7315  0.5647  1.8940
   93SAPC   C27 8991   2.534   5.985   5.709  1.5999 -0.0927 -0.4134
   93SAPC   H7R 8992   2.522   5.981   5.599  2.6934 -1.2333 -0.5121
   93SAPC   H7S 8993   2.504   5.880   5.730  2.2443 -0.3217 -0.6383
   93SAPC   C28 8994   2.674   6.009   5.751  0.2792 -0.4136  0.6822
   93SAPC   H8R 8995   2.690   6.007   5.860 -1.8762 -1.0517  1.0356
   93SAPC   C29 8996   2.774   6.031   5.674 -0.5471  0.1217 -0.2743
   93SAPC   H9R 8997   2.873   6.030   5.722 -0.4866 -0.6094 -0.4068
   93SAPC  C210 8998   2.782   6.038   5.527 -0.3655  0.3444  0.9304
   93SAPC  H10R 8999   2.856   6.117   5.505  0.3621 -0.8213 -1.1761
   93SAPC  H10S 9000   2.687   6.077   5.483  1.5121  1.3523 -2.5720
   93SAPC  C211 9001   2.814   5.903   5.466 -0.2887 -0.1818 -0.6425
   93SAPC  H11R 9002   2.877   5.847   5.536 -0.5083  0.3649  0.0054
   93SAPC  C212 9003   2.791   5.864   5.341 -0.6667  0.2442 -0.3459
   93SAPC  H12R 9004   2.831   5.763   5.323  0.9217  0.4932  1.4762
   93SAPC  C213 9005   2.723   5.940   5.227 -0.2988 -0.1775  0.3194
   93SAPC  H13R 9006   2.746   6.048   5.239  0.3529  0.0457 -2.4267
   93SAPC  H13S 9007   2.617   5.922   5.257  0.3304 -1.6387  1.7785
   93SAPC  C214 9008   2.725   5.889   5.080 -1.0024  0.0821 -0.5403
   93SAPC  H14R 9009   2.712   5.781   5.065  1.3731 -0.6300  1.7390
   93SAPC  C215 9010   2.748   5.961   4.971  0.7836  0.7011 -0.0648
   93SAPC  H15R 9011   2.753   5.910   4.873  2.2584  1.0564 -0.2021
   93SAPC  C216 9012   2.773   6.106   4.982 -0.9943 -0.7776 -0.0379
   93SAPC  H16R 9013   2.834   6.145   4.898 -0.2199  0.4493  1.0508
   93SAPC  H16S 9014   2.836   6.125   5.072  0.0278  2.3128 -1.2568
   93SAPC  C217 9015   2.639   6.188   5.003 -0.2802 -0.2778  0.9264
   93SAPC  H17R 9016   2.584   6.163   5.097  0.0590 -0.5276  1.0627
   93SAPC  H17S 9017   2.579   6.172   4.911  0.1036  0.3038  0.5732
   93SAPC  C218 9018   2.665   6.341   5.020  0.4600 -0.1363 -0.1789
   93SAPC  H18R 9019   2.569   6.392   5.045  0.6734 -0.9602  2.5538
   93SAPC  H18S 9020   2.707   6.381   4.925  1.6285 -1.3559 -0.2005
   93SAPC  C219 9021   2.762   6.363   5.136  0.5305 -0.1274  0.3358
   93SAPC  H19R 9022   2.862   6.332   5.098 -0.0413 -0.8234 -0.6307
   93SAPC  H19S 9023   2.731   6.309   5.229  0.4341  1.6322  1.3678
   93SAPC  C220 9024   2.763   6.508   5.185 -0.6839  0.2555 -1.0122
   93SAPC  H20R 9025   2.832   6.525   5.271  1.0393 -2.9495 -1.5924
   93SAPC  H20S 9026   2.660   6.537   5.214  0.4879  1.1563  2.7043
   93SAPC  H20T 9027   2.804   6.573   5.105  0.1613 -0.2671 -1.0208
   93SAPC   C33 9028   2.813   5.657   5.818 -0.1330  0.4117  0.5748
   93SAPC   H3X 9029   2.868   5.710   5.738 -2.3575  1.1686 -0.5568
   93SAPC   H3Y 9030   2.707   5.688   5.805  0.4120  1.6976 -1.1652
   93SAPC   C34 9031   2.832   5.511   5.801  0.2900  0.1039 -0.3797
   93SAPC   H4X 9032   2.770   5.450   5.870 -1.7563  1.4688 -0.8971
   93SAPC   H4Y 9033   2.940   5.490   5.813  0.3970  0.1502 -1.2054
   93SAPC   C35 9034   2.793   5.455   5.663  0.7767 -0.5575 -0.5793
   93SAPC   H5X 9035   2.697   5.491   5.620  0.2953 -0.9346  0.1628
   93SAPC   H5Y 9036   2.780   5.345   5.669  0.2460 -0.5894 -1.9331
   93SAPC   C36 9037   2.892   5.491   5.553 -0.4006 -0.8675 -0.3523
   93SAPC   H6X 9038   2.998   5.463   5.575  0.7288  0.9710 -2.8989
   93SAPC   H6Y 9039   2.893   5.602   5.546 -0.4002 -0.8682 -0.3590
   93SAPC   C37 9040   2.848   5.435   5.424 -0.6634 -0.4020 -0.2882
   93SAPC   H7X 9041   2.750   5.482   5.402  0.4606  0.9239 -3.0671
   93SAPC   H7Y 9042   2.841   5.324   5.429  1.5481 -0.5759  0.0991
   93SAPC   C38 9043   2.943   5.470   5.307 -0.0462 -0.4250  0.0500
   93SAPC   H8X 9044   3.035   5.408   5.312  1.1955  1.1310 -1.8927
   93SAPC   H8Y 9045   2.975   5.576   5.316  3.2336 -1.2893  0.0225
   93SAPC   C39 9046   2.889   5.452   5.174 -0.2601  0.3935  0.6582
   93SAPC   H9X 9047   2.814   5.371   5.180 -0.9959  1.0942  0.9951
   93SAPC   H9Y 9048   2.973   5.432   5.103 -2.7727  2.1601 -3.1000
   93SAPC  C310 9049   2.832   5.572   5.107  0.1982  0.7557  0.0743
   93SAPC  H10X 9050   2.911   5.649   5.095 -0.5803  1.6495  0.4847
   93SAPC  H10Y 9051   2.743   5.608   5.164  1.1991  1.5851  1.1705
   93SAPC  C311 9052   2.781   5.542   4.966  0.3389 -0.8455 -1.1087
   93SAPC  H11X 9053   2.694   5.610   4.952 -0.3373 -1.4197  0.1465
   93SAPC  H11Y 9054   2.741   5.438   4.971  0.3129 -0.7859  0.4123
   93SAPC  C312 9055   2.876   5.557   4.851  0.5631 -0.1405 -0.5690
   93SAPC  H12X 9056   2.978   5.520   4.875  0.5103  0.5177  0.8022
   93SAPC  H12Y 9057   2.878   5.664   4.819 -2.1700 -0.4246 -1.9237
   93SAPC  C313 9058   2.833   5.488   4.724  0.7175  0.2860  0.2486
   93SAPC  H13X 9059   2.736   5.532   4.693 -0.2223 -1.3553  0.7555
   93SAPC  H13Y 9060   2.808   5.384   4.755  1.3689  0.6531  2.1703
   93SAPC  C314 9061   2.938   5.494   4.610 -0.5846 -0.1808 -0.0495
   93SAPC  H14X 9062   3.035   5.476   4.661  0.6096  1.4255 -1.6224
   93SAPC  H14Y 9063   2.945   5.596   4.569  0.9064  0.0222  0.6489
   93SAPC  C315 9064   2.909   5.403   4.490 -0.6546  0.1624  0.8808
   93SAPC  H15X 9065   2.802   5.417   4.462 -0.4353 -1.7106 -1.1821
   93SAPC  H15Y 9066   2.916   5.298   4.523 -0.4207  0.2026  0.9636
   93SAPC  C316 9067   3.005   5.432   4.378 -0.3760  0.0176  0.1279
   93SAPC  H16X 9068   3.104   5.443   4.426 -0.0822 -0.0592 -0.4520
   93SAPC  H16Y 9069   2.977   5.527   4.327  0.8326  0.5287  0.3937
   93SAPC  C317 9070   3.022   5.318   4.268 -0.4967 -0.5097 -0.6824
   93SAPC  H17X 9071   2.936   5.316   4.198 -0.2811 -2.2458 -0.9317
   93SAPC  H17Y 9072   3.027   5.215   4.310 -0.0570 -0.9406 -1.7411
   93SAPC  C318 9073   3.154   5.345   4.185  0.2717 -0.8267 -0.1805
   93SAPC  H18X 9074   3.156   5.293   4.087  1.5332  0.5803 -0.9467
   93SAPC  H18Y 9075   3.248   5.323   4.240  0.4622  1.7612  0.7014
   93SAPC  H18Z 9076   3.163   5.456   4.177  1.3239 -0.8261  0.6730
   94SAPC     N 9077   1.417   3.978   6.550 -0.8595  0.3356 -0.0546
   94SAPC   C12 9078   1.391   3.870   6.444  0.6210 -0.3768 -0.4489
   94SAPC  H12A 9079   1.305   3.910   6.392 -0.6127  0.1991  1.8797
   94SAPC  H12B 9080   1.349   3.781   6.489  0.4582 -0.2729 -0.3935
   94SAPC   C13 9081   1.530   3.926   6.634  0.0741  0.4423  0.2082
   94SAPC  H13A 9082   1.623   3.923   6.579  0.1783  2.4439  0.2056
   94SAPC  H13B 9083   1.541   3.995   6.715 -1.8081  0.3743  0.5778
   94SAPC  H13C 9084   1.499   3.828   6.668 -1.3792  1.3521  1.6808
   94SAPC   C14 9085   1.462   4.107   6.493 -0.1280  0.6245  0.0921
   94SAPC  H14A 9086   1.397   4.132   6.410  0.2636 -2.3470 -1.2533
   94SAPC  H14B 9087   1.456   4.185   6.567 -2.0174  0.1355  0.5131
   94SAPC  H14C 9088   1.556   4.101   6.440 -0.8945 -3.2179 -1.1269
   94SAPC   C15 9089   1.291   3.995   6.635 -0.1209  0.1151  0.7011
   94SAPC  H15A 9090   1.215   4.016   6.562  2.0733  0.4335 -1.6172
   94SAPC  H15B 9091   1.270   3.901   6.684 -0.5739  0.5324  1.3175
   94SAPC  H15C 9092   1.307   4.073   6.709  0.0232 -1.0319  1.9229
   94SAPC   C11 9093   1.498   3.827   6.339 -0.0614 -0.1334  0.1775
   94SAPC  H11A 9094   1.518   3.929   6.298  0.7373 -0.6103 -0.6495
   94SAPC  H11B 9095   1.458   3.766   6.256  0.8394  0.1786 -0.5020
   94SAPC     P 9096   1.592   3.620   6.459 -0.0810 -0.2986  0.4542
   94SAPC   O13 9097   1.713   3.591   6.537 -0.2630  0.3346 -0.0472
   94SAPC   O14 9098   1.463   3.598   6.531 -0.1259 -1.0542 -0.4183
   94SAPC   O12 9099   1.610   3.768   6.401  0.3884  0.2181  0.4876
   94SAPC   O11 9100   1.587   3.539   6.319 -0.7644 -0.0230 -0.9702
   94SAPC    C1 9101   1.684   3.545   6.216 -0.2261  0.0667 -0.3449
   94SAPC    HA 9102   1.772   3.603   6.252 -0.2113  0.1952 -0.5823
   94SAPC    HB 9103   1.717   3.442   6.190 -0.3349  0.4993 -2.3823
   94SAPC    C2 9104   1.619   3.604   6.090 -0.3152 -0.2103  0.7003
   94SAPC    HS 9105   1.575   3.702   6.117  0.1250  0.0088  0.6431
   94SAPC   O21 9106   1.511   3.510   6.063 -0.5272  0.3958  0.0261
   94SAPC   C21 9107   1.410   3.557   5.987 -0.1811  0.0769 -0.7543
   94SAPC   O22 9108   1.391   3.676   5.960  0.4906  0.3323 -0.2360
   94SAPC   C22 9109   1.316   3.444   5.948 -0.3075  0.2632 -1.2676
   94SAPC   H2R 9110   1.376   3.354   5.974  1.0260  1.5521  0.3111
   94SAPC   H2S 9111   1.226   3.448   6.013 -1.7191 -0.9431 -3.0448
   94SAPC    C3 9112   1.722   3.619   5.979 -0.7196 -0.5473  0.6372
   94SAPC    HX 9113   1.763   3.522   5.943 -2.3796 -0.7988 -0.7338
   94SAPC    HY 9114   1.815   3.668   6.014 -2.1627  2.3731  0.6671
   94SAPC   O31 9115   1.673   3.682   5.864 -0.1753 -0.2555  0.5117
   94SAPC   C31 9116   1.726   3.791   5.808 -0.1506  0.2332  0.5024
   94SAPC   O32 9117   1.815   3.860   5.863  0.3951  0.7423  0.1977
   94SAPC   C32 9118   1.662   3.826   5.675  0.3240 -0.2424  0.0316
   94SAPC   H2X 9119   1.556   3.846   5.700  0.4549  0.2857  0.1669
   94SAPC   H2Y 9120   1.660   3.736   5.609 -0.6191  1.2622 -2.1157
   94SAPC   C23 9121   1.264   3.450   5.805 -0.8202 -0.8356  0.4578
   94SAPC   H3R 9122   1.346   3.460   5.731 -1.1668  1.8495  0.3398
   94SAPC   H3S 9123   1.197   3.538   5.792 -0.1336 -0.6058 -1.9159
   94SAPC   C24 9124   1.181   3.335   5.763 -0.0489  0.0253 -0.0785
   94SAPC   H4R 9125   1.147   3.365   5.662  1.2646 -1.6847 -1.0927
   94SAPC   H4S 9126   1.094   3.316   5.829 -0.5483  1.2578 -0.3679
   94SAPC   C25 9127   1.245   3.193   5.756 -0.4319 -0.0670  0.2343
   94SAPC   H5R 9128   1.273   3.153   5.855 -0.0469  1.2072  0.6578
   94SAPC   C26 9129   1.289   3.141   5.634  0.0456  0.1258 -0.1578
   94SAPC   H6R 9130   1.345   3.046   5.634  1.6746  1.0442  1.1731
   94SAPC   C27 9131   1.273   3.200   5.495 -1.2469 -0.4379  0.1078
   94SAPC   H7R 9132   1.167   3.212   5.463 -1.2150 -0.0481  0.1476
   94SAPC   H7S 9133   1.309   3.122   5.425 -1.7116 -1.0498  0.5335
   94SAPC   C28 9134   1.335   3.330   5.458 -0.2471 -0.1990  0.3256
   94SAPC   H8R 9135   1.374   3.387   5.543  1.0377 -0.2101 -0.2278
   94SAPC   C29 9136   1.381   3.365   5.336 -0.5022  0.4358  0.1757
   94SAPC   H9R 9137   1.430   3.463   5.324 -1.1551  0.8790  1.0414
   94SAPC  C210 9138   1.355   3.278   5.215 -0.2263 -0.0872 -0.1805
   94SAPC  H10R 9139   1.301   3.335   5.137 -0.5565 -0.7385 -0.4368
   94SAPC  H10S 9140   1.292   3.188   5.231  1.4176 -1.1015  0.8514
   94SAPC  C211 9141   1.486   3.224   5.164  0.2716  0.7961  0.5995
   94SAPC  H11R 9142   1.529   3.156   5.238  4.6305  1.8068 -0.6903
   94SAPC  C212 9143   1.555   3.247   5.046  0.0546 -0.1874 -0.4503
   94SAPC  H12R 9144   1.644   3.186   5.026 -1.4571 -2.4255 -0.6733
   94SAPC  C213 9145   1.525   3.349   4.937  0.0201 -0.0721 -0.0778
   94SAPC  H13R 9146   1.625   3.387   4.906  0.8354 -1.8864  0.1915
   94SAPC  H13S 9147   1.460   3.430   4.978 -1.4782 -0.7564 -1.0149
   94SAPC  C214 9148   1.455   3.293   4.816  0.7311  0.6610 -0.2706
   94SAPC  H14R 9149   1.435   3.185   4.806  0.3311  0.9423 -3.1626
   94SAPC  C215 9150   1.414   3.365   4.709  0.7741 -0.5530  0.1042
   94SAPC  H15R 9151   1.361   3.318   4.625  3.3886 -0.8053 -1.5002
   94SAPC  C216 9152   1.446   3.511   4.682 -0.1465  0.4702  0.5750
   94SAPC  H16R 9153   1.536   3.552   4.732  1.9859 -2.2794 -0.7173
   94SAPC  H16S 9154   1.370   3.583   4.718  0.8336  1.4167  0.7876
   94SAPC  C217 9155   1.461   3.529   4.527 -0.1354  0.5474 -0.0546
   94SAPC  H17R 9156   1.358   3.534   4.486 -0.2098  0.3269  0.1006
   94SAPC  H17S 9157   1.506   3.443   4.472 -1.4305  0.7699 -1.5356
   94SAPC  C218 9158   1.539   3.656   4.475 -0.3133 -0.3392 -0.3603
   94SAPC  H18R 9159   1.646   3.646   4.503 -0.7742 -0.0504  1.6569
   94SAPC  H18S 9160   1.505   3.745   4.532  0.6646  0.0422 -0.3595
   94SAPC  C219 9161   1.517   3.682   4.325 -0.1677  0.3454  0.0721
   94SAPC  H19R 9162   1.407   3.692   4.309 -0.0208 -0.2629 -1.4724
   94SAPC  H19S 9163   1.564   3.593   4.276  0.9698  0.1779  1.4189
   94SAPC  C220 9164   1.573   3.810   4.260 -0.1234 -0.2874  0.2981
   94SAPC  H20R 9165   1.679   3.832   4.283  0.2712  0.6767 -2.1706
   94SAPC  H20S 9166   1.505   3.895   4.285 -2.2400 -2.6560  3.5198
   94SAPC  H20T 9167   1.587   3.790   4.152  4.0959 -1.2811  0.8674
   94SAPC   C33 9168   1.735   3.940   5.606 -0.5659 -0.5285 -0.4794
   94SAPC   H3X 9169   1.844   3.923   5.594 -0.1157  1.0067  1.0322
   94SAPC   H3Y 9170   1.722   4.036   5.660 -0.6997 -0.6111 -0.3653
   94SAPC   C34 9171   1.684   3.966   5.466  0.3780  0.0450  0.0307
   94SAPC   H4X 9172   1.585   4.017   5.467  1.3225  2.0569 -1.7256
   94SAPC   H4Y 9173   1.678   3.876   5.401  1.4411 -1.1203  1.4609
   94SAPC   C35 9174   1.774   4.062   5.392 -0.5069  0.2057  0.0198
   94SAPC   H5X 9175   1.863   4.090   5.452 -0.8480  1.1749  0.0899
   94SAPC   H5Y 9176   1.730   4.161   5.366  1.8550  1.7433  1.4897
   94SAPC   C36 9177   1.842   4.005   5.258  0.7039  0.2222 -0.2548
   94SAPC   H6X 9178   1.760   3.942   5.216  1.0261  0.6815 -1.6143
   94SAPC   H6Y 9179   1.925   3.937   5.286 -1.8262 -2.3666  1.6441
   94SAPC   C37 9180   1.873   4.115   5.155 -0.2150  0.8551  0.4451
   94SAPC   H7X 9181   1.806   4.203   5.146  1.7268  2.2418 -2.0340
   94SAPC   H7Y 9182   1.879   4.062   5.057  0.2987 -1.7705  1.8151
   94SAPC   C38 9183   2.015   4.176   5.173  0.2679  0.1074 -0.4814
   94SAPC   H8X 9184   2.087   4.099   5.138 -0.3982 -0.9584  0.4229
   94SAPC   H8Y 9185   2.029   4.193   5.282  2.1157  1.1860 -0.8439
   94SAPC   C39 9186   2.038   4.308   5.110 -0.4710 -0.6658  0.7921
   94SAPC   H9X 9187   2.138   4.341   5.145 -1.3369  2.4148  0.6244
   94SAPC   H9Y 9188   1.973   4.392   5.140  1.6213  1.4162 -0.1331
   94SAPC  C310 9189   2.039   4.311   4.950 -0.1535  0.2035 -0.3872
   94SAPC  H10X 9190   2.063   4.411   4.909 -2.8451  0.9089 -0.4379
   94SAPC  H10Y 9191   1.936   4.288   4.916 -0.2833  1.4929 -0.9294
   94SAPC  C311 9192   2.137   4.215   4.893 -0.4672  0.3312  0.4360
   94SAPC  H11X 9193   2.103   4.113   4.922 -1.4332  1.2707  2.9109
   94SAPC  H11Y 9194   2.229   4.243   4.949 -0.3475  2.0637 -0.5551
   94SAPC  C312 9195   2.158   4.235   4.745  0.6509 -0.1645  0.2713
   94SAPC  H12X 9196   2.128   4.339   4.717  1.3564 -0.0829 -0.2022
   94SAPC  H12Y 9197   2.080   4.180   4.688 -0.9549  3.0493 -0.9137
   94SAPC  C313 9198   2.290   4.202   4.688  0.3091  0.8383  0.6177
   94SAPC  H13X 9199   2.305   4.093   4.669  1.4068  0.8090  1.5286
   94SAPC  H13Y 9200   2.361   4.240   4.764  0.9727  2.0977 -0.6079
   94SAPC  C314 9201   2.315   4.280   4.557  0.4666  0.5766 -0.2216
   94SAPC  H14X 9202   2.319   4.389   4.578  3.7344  1.1674 -2.8730
   94SAPC  H14Y 9203   2.218   4.266   4.505 -0.0022 -2.5794  1.2601
   94SAPC  C315 9204   2.432   4.227   4.472  0.0551 -0.0437 -0.4203
   94SAPC  H15X 9205   2.425   4.117   4.454  0.4403 -0.0908 -0.2899
   94SAPC  H15Y 9206   2.516   4.267   4.532 -1.4877  2.4493  0.2114
   94SAPC  C316 9207   2.440   4.281   4.333 -0.6331  0.4501  0.2528
   94SAPC  H16X 9208   2.446   4.390   4.350  1.2554  0.3221  0.6496
   94SAPC  H16Y 9209   2.348   4.265   4.274 -3.0566  0.3179  3.7734
   94SAPC  C317 9210   2.574   4.232   4.265 -0.4984  0.0469  0.7267
   94SAPC  H17X 9211   2.646   4.223   4.349 -0.5617 -0.3914  0.7352
   94SAPC  H17Y 9212   2.609   4.305   4.189  1.5016  1.3593  2.7639
   94SAPC  C318 9213   2.554   4.105   4.182  0.6616  0.3014 -0.1743
   94SAPC  H18X 9214   2.478   4.107   4.101  1.5799  0.8831 -1.0460
   94SAPC  H18Y 9215   2.528   4.015   4.242  1.5398  0.3474  0.2946
   94SAPC  H18Z 9216   2.649   4.074   4.133 -1.1198 -0.0154 -3.7822
   95SAPC     N 9217   2.891   0.508   1.757 -0.4377  0.2201 -0.5255
   95SAPC   C12 9218   2.886   0.407   1.874  0.6760  0.2603  0.7363
   95SAPC  H12A 9219   2.965   0.428   1.944 -0.6641 -2.2522  3.2067
   95SAPC  H12B 9220   2.911   0.315   1.823  2.3161  1.2203 -0.2770
   95SAPC   C13 9221   2.825   0.442   1.640 -0.2325  0.1447  0.2044
   95SAPC  H13A 9222   2.741   0.389   1.681 -0.6954  1.0655  0.4659
   95SAPC  H13B 9223   2.798   0.511   1.561  1.1591  2.6689  1.7933
   95SAPC  H13C 9224   2.892   0.373   1.590 -0.9459 -0.5116  0.1469
   95SAPC   C14 9225   2.814   0.634   1.790  0.1750 -0.0373  0.6256
   95SAPC  H14A 9226   2.869   0.700   1.855  0.6012 -0.1089  0.3382
   95SAPC  H14B 9227   2.792   0.689   1.700  1.7403  2.8117  1.8613
   95SAPC  H14C 9228   2.715   0.603   1.820 -0.5540  1.5922 -0.0082
   95SAPC   C15 9229   3.035   0.551   1.733 -0.4870 -0.2104 -0.2236
   95SAPC  H15A 9230   3.083   0.593   1.820  0.9695  0.6508 -1.3976
   95SAPC  H15B 9231   3.089   0.459   1.719 -2.3287 -1.1768 -1.4840
   95SAPC  H15C 9232   3.044   0.623   1.653 -0.8065  1.1904  0.9655
   95SAPC   C11 9233   2.757   0.384   1.964  0.2726 -0.4372  0.0310
   95SAPC  H11A 9234   2.730   0.486   1.998  2.2989  0.8690 -1.9800
   95SAPC  H11B 9235   2.793   0.314   2.043  1.3833 -0.2354 -0.2781
   95SAPC     P 9236   2.516   0.390   1.867  0.0099  0.1890  0.3453
   95SAPC   O13 9237   2.522   0.539   1.865 -0.1393 -0.2773  0.3348
   95SAPC   O14 9238   2.432   0.318   1.763 -0.0862 -0.1353 -0.0133
   95SAPC   O12 9239   2.666   0.334   1.866  0.1350  0.8188  0.1142
   95SAPC   O11 9240   2.465   0.355   2.011 -0.2275  0.2378 -0.2558
   95SAPC    C1 9241   2.453   0.215   2.046 -0.4397 -0.4376  0.5182
   95SAPC    HA 9242   2.364   0.170   1.997 -0.2784  0.7652 -0.9528
   95SAPC    HB 9243   2.544   0.161   2.014 -0.3276  0.3692 -0.6145
   95SAPC    C2 9244   2.455   0.198   2.201 -0.2551  0.6200  0.8421
   95SAPC    HS 9245   2.438   0.091   2.224 -0.9775  1.0343  2.3097
   95SAPC   O21 9246   2.346   0.267   2.257 -0.1420 -0.6295  0.1561
   95SAPC   C21 9247   2.302   0.230   2.372  0.2981  0.0040 -0.2495
   95SAPC   O22 9248   2.312   0.119   2.422 -0.0254 -0.9267  0.3491
   95SAPC   C22 9249   2.230   0.346   2.438  0.5018 -0.1048  0.2227
   95SAPC   H2R 9250   2.137   0.358   2.377  1.7682 -2.7336 -2.5367
   95SAPC   H2S 9251   2.189   0.307   2.533  0.4073 -1.7665 -0.4590
   95SAPC    C3 9252   2.592   0.232   2.261  0.5428  0.1093  0.2096
   95SAPC    HX 9253   2.598   0.343   2.248 -1.7833  0.0528 -2.1483
   95SAPC    HY 9254   2.666   0.168   2.209 -0.5715 -2.7503  1.9405
   95SAPC   O31 9255   2.597   0.211   2.405  0.3117 -0.6619  0.0858
   95SAPC   C31 9256   2.701   0.137   2.453 -0.1355 -0.6642  0.6670
   95SAPC   O32 9257   2.794   0.097   2.389 -0.0404 -0.2300 -0.6270
   95SAPC   C32 9258   2.687   0.123   2.609  0.2232  0.0431  0.9116
   95SAPC   H2X 9259   2.582   0.122   2.643 -0.3365  1.6101 -0.6124
   95SAPC   H2Y 9260   2.735   0.218   2.643 -1.6854  2.2325 -2.0602
   95SAPC   C23 9261   2.323   0.469   2.468  0.4745  0.1928  0.3224
   95SAPC   H3R 9262   2.260   0.560   2.474 -0.4165 -0.2439 -1.6660
   95SAPC   H3S 9263   2.385   0.488   2.378 -0.5430  1.5742 -0.1118
   95SAPC   C24 9264   2.405   0.457   2.602  0.5355  0.2243  0.0542
   95SAPC   H4R 9265   2.470   0.367   2.594 -0.5966 -0.7201  1.0554
   95SAPC   H4S 9266   2.338   0.435   2.688 -0.2769 -1.3818 -0.9406
   95SAPC   C25 9267   2.501   0.573   2.625 -0.7237 -0.1789 -0.5060
   95SAPC   H5R 9268   2.546   0.615   2.534 -1.1538  0.5312 -0.3979
   95SAPC   C26 9269   2.534   0.629   2.744 -0.1709 -0.2960 -0.0224
   95SAPC   H6R 9270   2.604   0.714   2.750  1.1192 -1.4004  1.8376
   95SAPC   C27 9271   2.485   0.590   2.886  0.3270 -0.0735  0.3738
   95SAPC   H7R 9272   2.568   0.553   2.949  1.5299  3.5627  1.1281
   95SAPC   H7S 9273   2.419   0.502   2.869  1.0446 -0.3540 -1.2315
   95SAPC   C28 9274   2.388   0.693   2.938  0.0400  0.9083  0.1446
   95SAPC   H8R 9275   2.339   0.752   2.860 -0.1300  2.2649  1.2444
   95SAPC   C29 9276   2.345   0.718   3.063  0.6176  0.3573 -0.2320
   95SAPC   H9R 9277   2.282   0.808   3.071  0.7745  0.3353  1.8969
   95SAPC  C210 9278   2.386   0.640   3.186  0.4252  0.1600 -0.0369
   95SAPC  H10R 9279   2.431   0.543   3.155  0.8164  0.4658 -0.4331
   95SAPC  H10S 9280   2.293   0.628   3.246  1.4388 -3.8439  1.0539
   95SAPC  C211 9281   2.478   0.706   3.279  0.0143 -0.1656 -0.4512
   95SAPC  H11R 9282   2.539   0.776   3.221 -1.4698 -0.2179 -2.1828
   95SAPC  C212 9283   2.494   0.699   3.410 -0.1396 -0.2141  0.1846
   95SAPC  H12R 9284   2.576   0.757   3.455 -0.7515  0.8329 -0.0001
   95SAPC  C213 9285   2.423   0.621   3.517 -0.6903 -0.1152 -0.7700
   95SAPC  H13R 9286   2.354   0.543   3.478  0.2399 -1.1291 -0.4398
   95SAPC  H13S 9287   2.359   0.700   3.562  0.7173 -0.5109  2.1811
   95SAPC  C214 9288   2.510   0.554   3.629  0.5858  0.4707  0.0368
   95SAPC  H14R 9289   2.599   0.496   3.601 -0.2213 -0.7630 -0.0320
   95SAPC  C215 9290   2.473   0.565   3.758  0.0211 -0.6653  0.2445
   95SAPC  H15R 9291   2.534   0.525   3.840 -0.5696  3.2535  2.8821
   95SAPC  C216 9292   2.356   0.640   3.816 -0.1330 -0.4562  1.1312
   95SAPC  H16R 9293   2.267   0.640   3.749  1.5288  0.1901 -1.2262
   95SAPC  H16S 9294   2.395   0.743   3.832 -0.0108 -0.4925  1.0695
   95SAPC  C217 9295   2.316   0.574   3.949 -0.6053 -0.3485 -0.1940
   95SAPC  H17R 9296   2.399   0.581   4.023 -1.1252 -0.4074  0.4002
   95SAPC  H17S 9297   2.294   0.468   3.927  0.0469 -0.3636 -0.7992
   95SAPC  C218 9298   2.198   0.642   4.018 -0.0056 -0.0129 -0.3152
   95SAPC  H18R 9299   2.102   0.601   3.979 -0.1398 -1.6156  1.5299
   95SAPC  H18S 9300   2.194   0.752   4.005 -0.7750  0.2222  1.6744
   95SAPC  C219 9301   2.203   0.612   4.173 -0.1554  0.1112 -0.2464
   95SAPC  H19R 9302   2.136   0.685   4.224  1.0425  1.2731 -0.2786
   95SAPC  H19S 9303   2.305   0.637   4.209 -0.9372  2.3943  0.6087
   95SAPC  C220 9304   2.168   0.462   4.198 -0.6573 -0.4903 -0.4331
   95SAPC  H20R 9305   2.175   0.440   4.307  0.7158  0.6843 -0.2448
   95SAPC  H20S 9306   2.236   0.399   4.137  0.8869 -0.9559  1.6502
   95SAPC  H20T 9307   2.068   0.438   4.156  0.8086 -1.9345 -3.3678
   95SAPC   C33 9308   2.766   0.002   2.659 -0.0850  0.5339  0.0477
   95SAPC   H3X 9309   2.788   0.005   2.768 -1.5691  0.9131  0.3525
   95SAPC   H3Y 9310   2.863  -0.007   2.604 -0.3043 -0.7203 -0.1615
   95SAPC   C34 9311   2.679  -0.118   2.643  0.0477  0.0125 -0.1261
   95SAPC   H4X 9312   2.638  -0.134   2.541  0.5090 -1.1007 -0.1527
   95SAPC   H4Y 9313   2.588  -0.100   2.705 -0.1838 -1.5612  0.0549
   95SAPC   C35 9314   2.752  -0.252   2.679 -0.0287 -0.5201  0.0712
   95SAPC   H5X 9315   2.791  -0.246   2.782 -1.7372  0.5244  0.7031
   95SAPC   H5Y 9316   2.828  -0.276   2.602  1.0327  1.7453  0.3523
   95SAPC   C36 9317   2.649  -0.360   2.683  0.1419  0.2535  0.2502
   95SAPC   H6X 9318   2.704  -0.456   2.680  3.5541  2.0895 -1.0931
   95SAPC   H6Y 9319   2.595  -0.352   2.586  0.3551  0.3714  0.1421
   95SAPC   C37 9320   2.556  -0.360   2.806  0.7470 -0.6705  0.2059
   95SAPC   H7X 9321   2.483  -0.440   2.783  0.8054 -0.2713 -1.5199
   95SAPC   H7Y 9322   2.506  -0.262   2.822  0.1757 -0.3401 -2.9546
   95SAPC   C38 9323   2.617  -0.404   2.937 -0.0695 -0.5686  0.5870
   95SAPC   H8X 9324   2.671  -0.315   2.977  3.0437 -1.1399 -1.9484
   95SAPC   H8Y 9325   2.686  -0.488   2.918 -0.7028 -0.7340 -1.2134
   95SAPC   C39 9326   2.509  -0.456   3.042 -0.3224 -0.0167  0.7276
   95SAPC   H9X 9327   2.469  -0.558   3.022  0.1319 -0.4466  1.8997
   95SAPC   H9Y 9328   2.422  -0.388   3.028  0.1207  0.3918 -0.0799
   95SAPC  C310 9329   2.566  -0.453   3.185  0.7004 -0.3911  0.0424
   95SAPC  H10X 9330   2.532  -0.359   3.233  0.0977 -0.4379 -0.2911
   95SAPC  H10Y 9331   2.675  -0.430   3.179  0.3560  0.7733 -2.5189
   95SAPC  C311 9332   2.541  -0.564   3.279 -0.4209 -0.2132 -0.0387
   95SAPC  H11X 9333   2.594  -0.659   3.256  1.8544  0.9085  0.2078
   95SAPC  H11Y 9334   2.437  -0.601   3.287 -0.1802 -0.7565  0.7731
   95SAPC  C312 9335   2.591  -0.528   3.423 -0.5430 -0.0648  0.1877
   95SAPC  H12X 9336   2.694  -0.486   3.428 -0.5814 -0.0905  2.2112
   95SAPC  H12Y 9337   2.609  -0.626   3.473  0.7872 -0.4181 -0.9202
   95SAPC  C313 9338   2.494  -0.449   3.510 -0.9569 -0.2773  0.1808
   95SAPC  H13X 9339   2.396  -0.502   3.512 -1.5512  0.8041  1.7575
   95SAPC  H13Y 9340   2.481  -0.348   3.466  1.0894 -0.0948 -0.1173
   95SAPC  C314 9341   2.556  -0.424   3.650  0.0444  0.3235  0.3871
   95SAPC  H14X 9342   2.631  -0.343   3.637  0.7617 -0.7808 -3.9235
   95SAPC  H14Y 9343   2.618  -0.510   3.681 -2.0837 -0.5468  2.5615
   95SAPC  C315 9344   2.460  -0.383   3.764 -0.3090 -0.0337 -0.1742
   95SAPC  H15X 9345   2.510  -0.399   3.862 -0.5068 -0.2942 -0.1141
   95SAPC  H15Y 9346   2.369  -0.446   3.759  0.0755 -0.7553  1.3517
   95SAPC  C316 9347   2.417  -0.242   3.771 -0.0776  0.3123  0.4175
   95SAPC  H16X 9348   2.361  -0.218   3.678 -1.2439 -3.5311 -0.0435
   95SAPC  H16Y 9349   2.500  -0.169   3.759 -1.2612  1.4974 -0.8348
   95SAPC  C317 9350   2.321  -0.207   3.882 -0.2311 -0.2710 -0.1624
   95SAPC  H17X 9351   2.269  -0.296   3.923  0.7993 -1.1634 -0.7288
   95SAPC  H17Y 9352   2.239  -0.138   3.853 -0.5572 -0.7837 -0.4642
   95SAPC  C318 9353   2.382  -0.135   4.008 -0.2320 -0.3654  0.2396
   95SAPC  H18X 9354   2.300  -0.111   4.078  0.3277 -1.0520  1.1458
   95SAPC  H18Y 9355   2.419  -0.037   3.970  1.1678  0.4040  3.2761
   95SAPC  H18Z 9356   2.462  -0.204   4.041 -0.2695 -1.0666 -1.0583
   96SAPC     N 9357   3.337   2.616   1.966 -0.3731 -0.3652  0.0453
   96SAPC   C12 9358   3.411   2.653   2.088 -0.5717 -0.0194  0.9443
   96SAPC  H12A 9359   3.392   2.756   2.112  0.7792  0.1494  1.3352
   96SAPC  H12B 9360   3.510   2.655   2.047 -1.2574  0.1524 -0.7826
   96SAPC   C13 9361   3.192   2.629   1.993  0.3969  1.1515  0.0868
   96SAPC  H13A 9362   3.139   2.623   1.899  0.6497  1.2955 -0.0685
   96SAPC  H13B 9363   3.148   2.552   2.055 -0.5734 -0.6585 -2.6859
   96SAPC  H13C 9364   3.164   2.723   2.038 -2.8140  0.4180 -0.1239
   96SAPC   C14 9365   3.359   2.721   1.855 -0.0383  0.3841  0.3030
   96SAPC  H14A 9366   3.294   2.695   1.773  0.7182 -0.7032  0.0244
   96SAPC  H14B 9367   3.343   2.822   1.890  1.0673  0.2339  1.3271
   96SAPC  H14C 9368   3.463   2.720   1.828  0.0489 -0.8853  0.6287
   96SAPC   C15 9369   3.378   2.488   1.910  0.1592 -0.0946 -0.1467
   96SAPC  H15A 9370   3.477   2.474   1.868 -0.1550 -1.6794 -0.3893
   96SAPC  H15B 9371   3.360   2.415   1.987 -0.3087 -0.3052 -0.4567
   96SAPC  H15C 9372   3.307   2.452   1.837 -1.3491  2.8848 -0.3061
   96SAPC   C11 9373   3.413   2.556   2.217  0.7250 -0.5356 -0.4719
   96SAPC  H11A 9374   3.319   2.567   2.275  0.7100 -1.3928 -0.3121
   96SAPC  H11B 9375   3.487   2.605   2.284  0.0471  1.4297 -1.1009
   96SAPC     P 9376   3.600   2.383   2.160 -0.1818 -0.2751 -0.0617
   96SAPC   O13 9377   3.613   2.250   2.094  0.0568 -0.2791  0.1810
   96SAPC   O14 9378   3.680   2.498   2.098 -0.2891 -0.8613  0.2722
   96SAPC   O12 9379   3.444   2.421   2.180 -0.0358 -0.5516 -0.4183
   96SAPC   O11 9380   3.655   2.366   2.307 -0.5622  0.3547  0.8459
   96SAPC    C1 9381   3.593   2.278   2.399 -0.5750  0.1328 -0.3697
   96SAPC    HA 9382   3.483   2.264   2.386 -0.3796 -0.9007 -1.0447
   96SAPC    HB 9383   3.639   2.177   2.396  0.7253  0.7357 -1.4902
   96SAPC    C2 9384   3.602   2.331   2.555  0.1032  0.5919 -0.1941
   96SAPC    HS 9385   3.549   2.429   2.555  0.2762  0.6873 -0.0058
   96SAPC   O21 9386   3.741   2.352   2.595  0.1800  0.8876 -0.3047
   96SAPC   C21 9387   3.784   2.470   2.589 -0.5043 -0.0588 -0.2486
   96SAPC   O22 9388   3.730   2.572   2.545  0.3817 -0.1657 -0.9116
   96SAPC   C22 9389   3.922   2.469   2.654  0.1151  0.4054  0.0951
   96SAPC   H2R 9390   3.928   2.409   2.747 -0.0881 -0.0100 -0.1567
   96SAPC   H2S 9391   3.984   2.424   2.573 -1.8226 -1.2526 -0.5825
   96SAPC    C3 9392   3.523   2.245   2.652  0.0516  0.2157 -0.2766
   96SAPC    HX 9393   3.573   2.146   2.646 -0.9009 -0.1921 -2.0381
   96SAPC    HY 9394   3.423   2.231   2.606 -0.0803  1.0832 -0.2662
   96SAPC   O31 9395   3.507   2.311   2.783  0.3949  0.0980  0.2588
   96SAPC   C31 9396   3.570   2.242   2.872  0.2137 -0.2210  0.7023
   96SAPC   O32 9397   3.642   2.145   2.844 -0.0704 -0.0715  0.1102
   96SAPC   C32 9398   3.551   2.307   3.009 -0.0189 -0.4640  0.1057
   96SAPC   H2X 9399   3.458   2.368   3.017 -0.1792 -0.8741  1.9216
   96SAPC   H2Y 9400   3.639   2.372   3.026  0.4365  0.2107 -3.9679
   96SAPC   C23 9401   3.981   2.603   2.699 -0.5091 -0.2848  0.3469
   96SAPC   H3R 9402   3.975   2.674   2.614 -0.1229  0.5448  0.9966
   96SAPC   H3S 9403   4.087   2.588   2.727 -0.7282 -2.3170  0.1863
   96SAPC   C24 9404   3.898   2.673   2.808 -0.0181  0.0447  0.6654
   96SAPC   H4R 9405   3.802   2.697   2.758  0.4216  0.0369 -0.1952
   96SAPC   H4S 9406   3.951   2.770   2.823  0.7162  0.1863 -2.2273
   96SAPC   C25 9407   3.862   2.609   2.932  0.1276  0.6731  0.1361
   96SAPC   H5R 9408   3.780   2.536   2.927 -0.2300  0.9490  1.5682
   96SAPC   C26 9409   3.916   2.647   3.052  0.2084  0.2849  0.3935
   96SAPC   H6R 9410   3.888   2.601   3.148  1.2904  0.6433  0.8971
   96SAPC   C27 9411   4.028   2.746   3.069  0.7474 -0.4721  0.1280
   96SAPC   H7R 9412   4.095   2.753   2.980  1.0012 -0.2420  0.3368
   96SAPC   H7S 9413   4.079   2.702   3.157 -3.3831  2.1776  4.2557
   96SAPC   C28 9414   3.968   2.885   3.097  0.0523  0.3298  0.6867
   96SAPC   H8R 9415   3.955   2.950   3.009 -0.6540  0.5426  0.9446
   96SAPC   C29 9416   3.931   2.932   3.217 -0.1740 -0.0121 -0.2820
   96SAPC   H9R 9417   3.896   3.036   3.218  0.5899  0.2795 -1.5219
   96SAPC  C210 9418   3.952   2.872   3.350  0.3476  0.5471  0.1829
   96SAPC  H10R 9419   4.019   2.927   3.419 -1.9718  0.1268  2.9938
   96SAPC  H10S 9420   3.996   2.772   3.333  0.7531  0.6629  0.5436
   96SAPC  C211 9421   3.819   2.869   3.424 -0.1570  0.9311 -0.2056
   96SAPC  H11R 9422   3.762   2.775   3.419 -1.5109  1.5609  2.0353
   96SAPC  C212 9423   3.751   2.971   3.475  0.4581 -0.8040  0.1035
   96SAPC  H12R 9424   3.651   2.956   3.519 -0.3976 -0.3063 -1.5738
   96SAPC  C213 9425   3.803   3.114   3.475 -0.2877 -1.0433  0.9951
   96SAPC  H13R 9426   3.868   3.129   3.387 -1.2881 -1.9297  0.0832
   96SAPC  H13S 9427   3.881   3.131   3.553 -1.5591 -0.0736  2.1067
   96SAPC  C214 9428   3.704   3.223   3.488 -0.1302 -0.1869  0.1707
   96SAPC  H14R 9429   3.700   3.273   3.586  0.6466  1.7539 -0.7270
   96SAPC  C215 9430   3.634   3.280   3.385 -0.1980  0.3869 -0.4558
   96SAPC  H15R 9431   3.558   3.356   3.407 -0.8543  0.1307 -1.7602
   96SAPC  C216 9432   3.629   3.221   3.245  0.6376 -0.6304 -0.3145
   96SAPC  H16R 9433   3.526   3.217   3.202  1.6865 -2.9194 -2.8903
   96SAPC  H16S 9434   3.644   3.111   3.235 -3.2770 -1.3073 -0.6202
   96SAPC  C217 9435   3.700   3.302   3.132 -0.0672 -0.0319 -0.3608
   96SAPC  H17R 9436   3.802   3.326   3.167  1.2067 -2.1708 -2.2701
   96SAPC  H17S 9437   3.648   3.397   3.108 -1.0789 -1.0391 -2.5019
   96SAPC  C218 9438   3.726   3.221   3.007  0.2059 -0.5927  1.4463
   96SAPC  H18R 9439   3.776   3.127   3.038  2.2560 -0.1804 -0.4274
   96SAPC  H18S 9440   3.788   3.279   2.936  1.2833 -2.4952  0.7687
   96SAPC  C219 9441   3.607   3.165   2.930 -0.1771 -0.2476  0.0793
   96SAPC  H19R 9442   3.563   3.240   2.862 -0.2897 -1.3053 -1.0471
   96SAPC  H19S 9443   3.524   3.155   3.003 -0.6206 -1.1747 -0.5386
   96SAPC  C220 9444   3.642   3.027   2.863 -0.0677 -0.0116 -0.4868
   96SAPC  H20R 9445   3.554   3.002   2.800  0.9425 -0.0810 -1.9284
   96SAPC  H20S 9446   3.658   2.946   2.937  3.6212  0.0840 -1.0112
   96SAPC  H20T 9447   3.728   3.030   2.793  0.1958 -1.2643 -0.2411
   96SAPC   C33 9448   3.530   2.207   3.123 -0.3496  0.1588  0.4969
   96SAPC   H3X 9449   3.599   2.120   3.134 -0.7592 -0.2338  0.0092
   96SAPC   H3Y 9450   3.427   2.167   3.128 -0.0653 -0.7162 -0.3217
   96SAPC   C34 9451   3.525   2.296   3.244  0.9132  0.8366 -1.5957
   96SAPC   H4X 9452   3.434   2.359   3.245 -0.0786 -0.5333 -0.1465
   96SAPC   H4Y 9453   3.612   2.361   3.268  0.5492  1.4872 -2.0183
   96SAPC   C35 9454   3.513   2.217   3.368 -0.2411  0.2206 -0.7635
   96SAPC   H5X 9455   3.431   2.142   3.367 -0.0340 -0.0892  1.1598
   96SAPC   H5Y 9456   3.486   2.288   3.450  2.1594 -0.8295  1.0584
   96SAPC   C36 9457   3.640   2.157   3.424  0.1546  0.1380 -0.1517
   96SAPC   H6X 9458   3.706   2.239   3.461  0.3234  0.1330 -0.4382
   96SAPC   H6Y 9459   3.698   2.097   3.351 -0.6171  0.5717 -1.1424
   96SAPC   C37 9460   3.619   2.069   3.547 -0.9787 -0.0375  0.1849
   96SAPC   H7X 9461   3.598   1.967   3.508  0.4400 -0.4935  0.5731
   96SAPC   H7Y 9462   3.539   2.100   3.618 -0.8070 -1.0984  0.8549
   96SAPC   C38 9463   3.738   2.058   3.645  0.5838 -0.1858 -0.2668
   96SAPC   H8X 9464   3.830   2.059   3.582  0.0166  1.4647 -1.1065
   96SAPC   H8Y 9465   3.728   1.957   3.690  0.4888  0.7029  1.7982
   96SAPC   C39 9466   3.724   2.166   3.756 -0.6071 -0.0166 -0.4964
   96SAPC   H9X 9467   3.619   2.181   3.788 -1.1106 -1.3718 -1.4496
   96SAPC   H9Y 9468   3.759   2.266   3.724  1.1010 -0.2010  0.6334
   96SAPC  C310 9469   3.803   2.130   3.888  0.5698  0.5073  0.3292
   96SAPC  H10X 9470   3.912   2.116   3.873  0.4390  0.9707 -1.2681
   96SAPC  H10Y 9471   3.765   2.032   3.926 -1.0092  1.4525  1.3221
   96SAPC  C311 9472   3.778   2.230   4.000 -0.0481  0.5455 -0.1022
   96SAPC  H11X 9473   3.675   2.238   4.042 -0.9380 -2.1586 -1.5837
   96SAPC  H11Y 9474   3.811   2.329   3.961 -0.4388  1.0885  0.8863
   96SAPC  C312 9475   3.866   2.209   4.124 -0.0372 -0.1663 -0.0130
   96SAPC  H12X 9476   3.977   2.207   4.113  0.4271  0.5015  3.3442
   96SAPC  H12Y 9477   3.828   2.117   4.174 -1.9226 -0.5765 -2.0472
   96SAPC  C313 9478   3.848   2.333   4.219 -0.0703 -0.6022 -0.0555
   96SAPC  H13X 9479   3.739   2.330   4.240 -0.2437  0.1689 -0.7738
   96SAPC  H13Y 9480   3.860   2.428   4.163 -0.7736  0.6248  1.7766
   96SAPC  C314 9481   3.938   2.330   4.346 -0.1683 -0.1560 -0.1952
   96SAPC  H14X 9482   3.937   2.435   4.383  1.3392 -0.0992 -0.2685
   96SAPC  H14Y 9483   4.035   2.284   4.319 -1.3675 -2.2746 -1.1060
   96SAPC  C315 9484   3.855   2.240   4.439  0.2777  0.2675  0.5282
   96SAPC  H15X 9485   3.837   2.136   4.401 -0.6315 -0.5251  2.9538
   96SAPC  H15Y 9486   3.752   2.281   4.438 -0.8037 -2.1654  2.4456
   96SAPC  C316 9487   3.907   2.233   4.583 -0.0196 -0.0399  0.6367
   96SAPC  H16X 9488   4.006   2.183   4.591  1.2540  2.5999  3.2578
   96SAPC  H16Y 9489   3.836   2.163   4.631  0.5762 -0.2489  1.2376
   96SAPC  C317 9490   3.924   2.368   4.657 -0.3777 -0.0872  0.5612
   96SAPC  H17X 9491   3.834   2.433   4.663  0.4383  1.0175  1.1981
   96SAPC  H17Y 9492   4.005   2.426   4.609 -1.1541  0.7076  0.1703
   96SAPC  C318 9493   3.974   2.342   4.803 -0.1095 -0.8648  0.7610
   96SAPC  H18X 9494   3.900   2.299   4.874  0.5461 -3.6956 -0.1467
   96SAPC  H18Y 9495   4.023   2.434   4.843  1.1032 -1.2042  0.0911
   96SAPC  H18Z 9496   4.055   2.267   4.793  1.2710  0.7834 -1.4310
   97SAPC     N 9497   2.099   0.596   1.764  0.1597 -0.1458  0.5590
   97SAPC   C12 9498   2.066   0.628   1.620 -0.3190  0.0836 -0.2076
   97SAPC  H12A 9499   2.011   0.547   1.574  0.9145 -2.2573  2.1555
   97SAPC  H12B 9500   2.157   0.632   1.561  0.1257 -0.7900  0.3976
   97SAPC   C13 9501   2.153   0.461   1.771 -0.4987 -0.5382  0.4341
   97SAPC  H13A 9502   2.181   0.436   1.872  1.5727  0.5012  0.1704
   97SAPC  H13B 9503   2.085   0.382   1.739 -0.2401  0.3128 -2.5572
   97SAPC  H13C 9504   2.244   0.439   1.718 -0.2034  1.1392  0.1942
   97SAPC   C14 9505   2.190   0.699   1.829 -0.3447 -0.5007 -0.5770
   97SAPC  H14A 9506   2.295   0.676   1.821  0.4046  1.6362  1.8326
   97SAPC  H14B 9507   2.169   0.799   1.794 -0.2415  0.0410  0.8554
   97SAPC  H14C 9508   2.173   0.691   1.935  0.1887 -0.3799 -0.4778
   97SAPC   C15 9509   1.977   0.590   1.846  0.4964  0.4503  0.2322
   97SAPC  H15A 9510   1.902   0.525   1.803 -0.9897  1.1765  1.6001
   97SAPC  H15B 9511   1.991   0.545   1.943  0.9675  3.0355  1.4339
   97SAPC  H15C 9512   1.939   0.691   1.855 -0.1699  0.2283  0.0334
   97SAPC   C11 9513   1.992   0.763   1.597 -0.1554  0.6141  0.1226
   97SAPC  H11A 9514   1.909   0.773   1.670  0.7215  1.2076  1.0554
   97SAPC  H11B 9515   1.949   0.759   1.494 -1.7045  1.2639  0.7079
   97SAPC     P 9516   2.030   1.026   1.634 -0.0803  0.0183  0.5657
   97SAPC   O13 9517   2.143   1.080   1.710  0.2260 -0.2145 -0.1825
   97SAPC   O14 9518   1.989   1.107   1.516 -0.1741 -0.2797 -0.0357
   97SAPC   O12 9519   2.079   0.877   1.595 -0.7503  1.0360 -0.6267
   97SAPC   O11 9520   1.903   1.005   1.727 -0.0938 -0.2702  0.1936
   97SAPC    C1 9521   1.914   0.986   1.870  0.7865 -0.8078  0.3711
   97SAPC    HA 9522   1.832   0.921   1.908  1.0648  0.0080  2.5005
   97SAPC    HB 9523   2.003   0.928   1.900  0.3085 -1.7217  0.0647
   97SAPC    C2 9524   1.912   1.123   1.949 -0.2910 -0.6094 -0.1837
   97SAPC    HS 9525   2.008   1.178   1.938  0.3864 -1.7572 -0.1811
   97SAPC   O21 9526   1.894   1.097   2.091 -1.0297 -0.0890 -0.0116
   97SAPC   C21 9527   1.985   1.020   2.157 -0.0990  0.1257  0.7995
   97SAPC   O22 9528   2.095   0.992   2.125 -0.6445 -0.3186 -0.1443
   97SAPC   C22 9529   1.914   0.969   2.289 -0.5033  0.1051  0.0971
   97SAPC   H2R 9530   1.832   1.034   2.328 -1.9210 -1.6370  0.1565
   97SAPC   H2S 9531   1.851   0.880   2.268 -0.8748  0.5929 -0.9371
   97SAPC    C3 9532   1.807   1.223   1.890  0.0209  0.0623  0.3565
   97SAPC    HX 9533   1.708   1.175   1.903  0.2438  0.0269  2.2329
   97SAPC    HY 9534   1.820   1.244   1.781 -1.1897  0.8358  0.3532
   97SAPC   O31 9535   1.805   1.347   1.967 -0.5822  0.0075 -0.1416
   97SAPC   C31 9536   1.908   1.432   1.954 -0.4505 -0.8612  0.0446
   97SAPC   O32 9537   2.015   1.407   1.899  0.8609 -0.0459  0.0981
   97SAPC   C32 9538   1.890   1.558   2.036 -0.5284 -0.0277  0.0699
   97SAPC   H2X 9539   1.801   1.616   2.002 -0.6150  1.7768  3.0807
   97SAPC   H2Y 9540   1.978   1.623   2.020  0.0478 -0.9252 -0.5032
   97SAPC   C23 9541   2.005   0.919   2.398  0.1743 -0.5260 -0.1470
   97SAPC   H3R 9542   2.068   0.839   2.352 -2.2690 -0.4084 -4.1359
   97SAPC   H3S 9543   1.956   0.862   2.480  0.2405 -1.3437 -0.6557
   97SAPC   C24 9544   2.081   1.028   2.467  0.2233 -0.0132 -0.1747
   97SAPC   H4R 9545   2.016   1.084   2.538  1.1633 -0.6104  1.2121
   97SAPC   H4S 9546   2.116   1.099   2.389 -0.2775  1.3661  0.8227
   97SAPC   C25 9547   2.217   0.977   2.523  0.5295  0.5988  0.0548
   97SAPC   H5R 9548   2.274   0.910   2.457 -1.6558 -0.3137 -1.0084
   97SAPC   C26 9549   2.263   0.986   2.649  0.6013 -0.0929 -0.1068
   97SAPC   H6R 9550   2.348   0.928   2.687  1.2711  0.2249 -1.0892
   97SAPC   C27 9551   2.196   1.066   2.762 -0.3329 -0.3101  0.6837
   97SAPC   H7R 9552   2.105   1.122   2.733 -0.6689 -1.0086  0.3813
   97SAPC   H7S 9553   2.275   1.144   2.770  1.6887 -2.1642 -0.1953
   97SAPC   C28 9554   2.166   0.992   2.889 -0.0652 -0.2248 -0.3802
   97SAPC   H8R 9555   2.179   0.883   2.878  1.8472  0.0845 -1.5586
   97SAPC   C29 9556   2.142   1.040   3.013 -0.1242 -0.1843  0.9224
   97SAPC   H9R 9557   2.133   0.964   3.093  2.1529  1.3956  2.8353
   97SAPC  C210 9558   2.134   1.185   3.043 -0.0221 -0.1423 -0.2792
   97SAPC  H10R 9559   2.080   1.242   2.965 -0.5391  1.1975  1.0241
   97SAPC  H10S 9560   2.239   1.220   3.059 -0.4021 -0.2479  3.0834
   97SAPC  C211 9561   2.068   1.217   3.174 -0.2005 -0.3392  0.2096
   97SAPC  H11R 9562   1.961   1.243   3.166 -0.4269 -1.6316 -1.3160
   97SAPC  C212 9563   2.120   1.216   3.292 -0.4114  0.9065 -0.0888
   97SAPC  H12R 9564   2.057   1.258   3.372 -0.5285 -0.4875  0.5666
   97SAPC  C213 9565   2.249   1.160   3.330  0.3729 -0.7655 -0.0872
   97SAPC  H13R 9566   2.325   1.230   3.371  0.3892  0.0272 -1.3924
   97SAPC  H13S 9567   2.293   1.129   3.232 -0.3577  1.2101 -1.1065
   97SAPC  C214 9568   2.240   1.044   3.422  0.1053 -0.4748  0.3729
   97SAPC  H14R 9569   2.227   0.949   3.368 -2.9008 -0.3161  0.6490
   97SAPC  C215 9570   2.239   1.050   3.555 -0.0836  0.1849  0.5854
   97SAPC  H15R 9571   2.235   0.955   3.611 -0.9393  0.5503  1.1709
   97SAPC  C216 9572   2.240   1.172   3.643  0.5152  0.3188 -0.2096
   97SAPC  H16R 9573   2.142   1.188   3.692 -0.8332 -2.1966 -1.8676
   97SAPC  H16S 9574   2.252   1.262   3.579  0.7424 -0.2746 -1.0270
   97SAPC  C217 9575   2.356   1.179   3.748  0.6840 -0.3330 -0.0491
   97SAPC  H17R 9576   2.377   1.287   3.763 -3.6910  0.5524  1.3519
   97SAPC  H17S 9577   2.444   1.132   3.699  1.1899 -1.7856  2.1419
   97SAPC  C218 9578   2.332   1.093   3.868  0.1593 -0.3353  0.5737
   97SAPC  H18R 9579   2.265   1.009   3.841 -0.4202  0.4235 -0.4360
   97SAPC  H18S 9580   2.280   1.163   3.936  1.1139  0.2233  0.7449
   97SAPC  C219 9581   2.464   1.048   3.933  0.0883  0.0002 -0.0847
   97SAPC  H19R 9582   2.524   1.132   3.972 -0.0214 -0.5187  1.2602
   97SAPC  H19S 9583   2.520   1.002   3.849 -0.7864 -1.1392 -0.0783
   97SAPC  C220 9584   2.431   0.957   4.053 -0.0904 -0.2442  0.1507
   97SAPC  H20R 9585   2.358   0.878   4.026 -1.4353  0.1483  2.4477
   97SAPC  H20S 9586   2.407   1.008   4.148  0.4677 -0.6403  0.5101
   97SAPC  H20T 9587   2.523   0.895   4.069 -0.3465 -0.3953  1.0880
   97SAPC   C33 9588   1.872   1.529   2.186  0.0794  0.1194 -0.3907
   97SAPC   H3X 9589   1.766   1.500   2.204 -0.0755  1.7226  1.7215
   97SAPC   H3Y 9590   1.896   1.619   2.247  0.6799  0.4179 -1.0523
   97SAPC   C34 9591   1.970   1.419   2.233  0.1506  0.5281 -0.4409
   97SAPC   H4X 9592   2.077   1.438   2.208  0.1081 -1.0884 -2.0463
   97SAPC   H4Y 9593   1.943   1.324   2.182 -2.1228 -0.4864  2.3783
   97SAPC   C35 9594   1.942   1.384   2.381  0.3291 -0.3631 -0.4693
   97SAPC   H5X 9595   1.968   1.277   2.399 -1.2708 -0.6908  0.0271
   97SAPC   H5Y 9596   1.833   1.380   2.402  0.4428 -1.4016 -0.0248
   97SAPC   C36 9597   2.025   1.472   2.473 -0.7530 -0.0310  0.1481
   97SAPC   H6X 9598   2.001   1.578   2.448  0.2498  0.2278  0.2259
   97SAPC   H6Y 9599   2.134   1.458   2.453 -1.0596 -0.3207 -1.4973
   97SAPC   C37 9600   1.988   1.458   2.624 -0.5694  0.2243  0.1331
   97SAPC   H7X 9601   2.016   1.356   2.658  1.0492 -0.1826 -2.1654
   97SAPC   H7Y 9602   1.878   1.464   2.636 -0.5827 -0.6448  0.5303
   97SAPC   C38 9603   2.063   1.563   2.699  0.7245  0.2530  0.4487
   97SAPC   H8X 9604   2.008   1.658   2.687 -0.7673 -0.9447 -3.8261
   97SAPC   H8Y 9605   2.159   1.582   2.645 -0.1745  0.8040 -1.0151
   97SAPC   C39 9606   2.098   1.528   2.840 -0.0704  0.2037 -0.6577
   97SAPC   H9X 9607   2.165   1.440   2.839  2.0796  1.7732 -0.3442
   97SAPC   H9Y 9608   2.003   1.513   2.897  1.4653  0.0970  2.0362
   97SAPC  C310 9609   2.163   1.640   2.921  0.3493  0.5538  0.4154
   97SAPC  H10X 9610   2.125   1.740   2.888 -1.6575  0.0304  1.0230
   97SAPC  H10Y 9611   2.273   1.632   2.906  0.3015  1.9131 -0.9184
   97SAPC  C311 9612   2.121   1.628   3.069  1.1737  0.5714 -0.2555
   97SAPC  H11X 9613   2.140   1.525   3.107  1.0895  0.7944  0.4074
   97SAPC  H11Y 9614   2.011   1.634   3.085  1.4339  3.6822  0.9694
   97SAPC  C312 9615   2.188   1.731   3.163  0.1355 -0.5344  0.4934
   97SAPC  H12X 9616   2.199   1.829   3.111 -0.5355 -1.3820 -1.3319
   97SAPC  H12Y 9617   2.291   1.698   3.186 -0.0727 -0.4277  1.6570
   97SAPC  C313 9618   2.109   1.760   3.295 -0.4051 -0.2677  0.4265
   97SAPC  H13X 9619   2.001   1.777   3.278  0.0299  0.4050 -2.0256
   97SAPC  H13Y 9620   2.156   1.851   3.338  2.6328 -0.8574 -1.3500
   97SAPC  C314 9621   2.123   1.644   3.398 -0.4291 -0.1719  0.0926
   97SAPC  H14X 9622   2.229   1.614   3.386  0.5395  3.0064 -0.3582
   97SAPC  H14Y 9623   2.058   1.561   3.365 -0.9314  0.5303 -0.7276
   97SAPC  C315 9624   2.090   1.679   3.540  0.1423 -0.0678 -0.7430
   97SAPC  H15X 9625   1.987   1.718   3.553 -0.1409 -1.2242  0.7127
   97SAPC  H15Y 9626   2.155   1.758   3.582  0.0657 -0.1879 -0.3975
   97SAPC  C316 9627   2.105   1.555   3.630  0.3884  0.7920 -0.2698
   97SAPC  H16X 9628   2.209   1.516   3.636  0.0186 -0.0039  3.7417
   97SAPC  H16Y 9629   2.046   1.469   3.591  0.3270  1.1384 -0.9436
   97SAPC  C317 9630   2.062   1.587   3.779  0.3934 -0.4422 -0.1883
   97SAPC  H17X 9631   2.062   1.498   3.846 -2.3452  1.1255  2.1210
   97SAPC  H17Y 9632   1.957   1.624   3.782  0.4862 -0.1658 -0.3849
   97SAPC  C318 9633   2.155   1.696   3.844 -0.0239 -0.3248  0.3828
   97SAPC  H18X 9634   2.112   1.723   3.943 -0.8821  1.7168 -0.4900
   97SAPC  H18Y 9635   2.150   1.781   3.773 -0.1942 -0.6620 -0.0102
   97SAPC  H18Z 9636   2.258   1.656   3.857  1.1545  2.0772 -0.8615
   98SAPC     N 9637   6.103   1.214   1.841  0.4207  1.2406  0.9052
   98SAPC   C12 9638   6.247   1.164   1.822  0.6205 -0.1276 -0.2803
   98SAPC  H12A 9639   6.290   1.221   1.741  0.2731 -1.2195 -1.2529
   98SAPC  H12B 9640   6.249   1.067   1.775 -0.1445  0.5918 -1.8737
   98SAPC   C13 9641   6.026   1.203   1.706 -0.5228  0.3614 -0.2095
   98SAPC  H13A 9642   6.037   1.109   1.654 -2.4678 -0.5620  0.9303
   98SAPC  H13B 9643   5.922   1.227   1.722 -0.5601 -0.6860  1.2669
   98SAPC  H13C 9644   6.062   1.286   1.646 -1.8265  0.5177 -0.8131
   98SAPC   C14 9645   6.033   1.122   1.936 -0.3483  0.0826 -0.4466
   98SAPC  H14A 9646   5.932   1.160   1.947  1.0228  3.4209  2.4637
   98SAPC  H14B 9647   6.032   1.027   1.884 -1.8439  0.3230 -0.9059
   98SAPC  H14C 9648   6.075   1.117   2.035  0.4024 -2.0510 -0.8348
   98SAPC   C15 9649   6.085   1.353   1.881  0.2833 -0.8929  0.4283
   98SAPC  H15A 9650   6.161   1.380   1.953 -0.4543  2.7122  0.0654
   98SAPC  H15B 9651   6.104   1.421   1.798  3.4096 -1.6763  0.3642
   98SAPC  H15C 9652   5.989   1.369   1.928 -0.2620 -0.9604 -0.6208
   98SAPC   C11 9653   6.340   1.173   1.940 -0.0549  0.8585  0.1329
   98SAPC  H11A 9654   6.430   1.108   1.932 -0.3477  0.7087 -3.2873
   98SAPC  H11B 9655   6.287   1.121   2.022  1.4398 -2.0165 -0.5950
   98SAPC     P 9656   6.448   1.325   2.108 -0.1802  0.2115  0.4298
   98SAPC   O13 9657   6.587   1.281   2.082  0.1493  0.0217  0.2059
   98SAPC   O14 9658   6.433   1.468   2.141  0.0678 -0.0083  0.0284
   98SAPC   O12 9659   6.357   1.308   1.985  0.1740 -0.0433 -0.3928
   98SAPC   O11 9660   6.386   1.234   2.219  0.3206  0.4714  0.0941
   98SAPC    C1 9661   6.271   1.279   2.304  0.6174 -0.1754  0.0183
   98SAPC    HA 9662   6.219   1.362   2.252  1.9148  1.1319  0.7440
   98SAPC    HB 9663   6.201   1.193   2.320 -1.3654  0.7806 -2.6915
   98SAPC    C2 9664   6.322   1.310   2.445  0.5613 -0.1044 -0.8944
   98SAPC    HS 9665   6.235   1.340   2.506  1.3623  0.1256  0.1769
   98SAPC   O21 9666   6.418   1.413   2.447  0.8656  0.4832 -0.2315
   98SAPC   C21 9667   6.367   1.532   2.443  0.9651 -0.3069 -0.1515
   98SAPC   O22 9668   6.248   1.559   2.456  0.1645  0.1710  0.0863
   98SAPC   C22 9669   6.466   1.643   2.400 -0.0208 -0.1061  0.1147
   98SAPC   H2R 9670   6.568   1.609   2.426 -0.1779 -1.5045 -0.9656
   98SAPC   H2S 9671   6.462   1.655   2.290 -0.8499 -0.5179  0.0872
   98SAPC    C3 9672   6.381   1.174   2.512 -0.7653  0.2189  0.7887
   98SAPC    HX 9673   6.482   1.161   2.468 -1.1109  0.4853 -0.1068
   98SAPC    HY 9674   6.311   1.095   2.478  0.5651 -0.3543 -0.7351
   98SAPC   O31 9675   6.392   1.170   2.659  0.2204  0.0222 -0.2695
   98SAPC   C31 9676   6.279   1.151   2.728 -0.8148  0.1666  0.2725
   98SAPC   O32 9677   6.166   1.150   2.688 -0.0102  0.0887  0.7625
   98SAPC   C32 9678   6.323   1.123   2.876  0.3997 -0.2034 -0.0018
   98SAPC   H2X 9679   6.326   1.224   2.923  3.2792  0.7814 -2.0140
   98SAPC   H2Y 9680   6.426   1.080   2.873 -0.1731 -1.5636 -0.7740
   98SAPC   C23 9681   6.432   1.770   2.476  0.7599  0.1267 -0.5442
   98SAPC   H3R 9682   6.339   1.820   2.441  1.3185  2.5863  1.1742
   98SAPC   H3S 9683   6.504   1.852   2.454  1.8087 -0.4262  0.6650
   98SAPC   C24 9684   6.439   1.750   2.628 -0.1903  0.4193 -0.1775
   98SAPC   H4R 9685   6.351   1.692   2.664 -0.8265  0.9632 -0.8389
   98SAPC   H4S 9686   6.410   1.839   2.688 -6.2892 -1.7469  0.7847
   98SAPC   C25 9687   6.576   1.692   2.663 -0.1831 -0.9681 -0.0077
   98SAPC   H5R 9688   6.658   1.750   2.618 -0.3299 -0.2384  0.6488
   98SAPC   C26 9689   6.585   1.576   2.730  0.5240 -0.0009  0.1114
   98SAPC   H6R 9690   6.689   1.553   2.759  0.0701  0.5467  2.4134
   98SAPC   C27 9691   6.481   1.480   2.794  0.0596  0.1657 -0.3695
   98SAPC   H7R 9692   6.523   1.377   2.797 -0.5948 -0.1144 -0.7717
   98SAPC   H7S 9693   6.387   1.458   2.740  0.7026 -1.2295 -0.9823
   98SAPC   C28 9694   6.443   1.544   2.930 -0.8811 -0.2424  0.1685
   98SAPC   H8R 9695   6.531   1.585   2.982 -0.3225 -0.9305 -0.2131
   98SAPC   C29 9696   6.324   1.555   2.992  0.2218  0.2297 -0.0087
   98SAPC   H9R 9697   6.312   1.604   3.090  1.6566 -2.0927  1.4452
   98SAPC  C210 9698   6.186   1.510   2.941  1.0448  0.3093  0.0595
   98SAPC  H10R 9699   6.127   1.442   3.006 -0.6763 -0.1391 -1.8599
   98SAPC  H10S 9700   6.205   1.440   2.857 -0.2489  0.0665 -0.0428
   98SAPC  C211 9701   6.102   1.623   2.901  0.3954 -0.0981 -0.2662
   98SAPC  H11R 9702   6.143   1.675   2.813 -0.9907  1.2635 -0.1519
   98SAPC  C212 9703   6.000   1.683   2.968 -0.1278  0.2601  0.0285
   98SAPC  H12R 9704   5.946   1.770   2.928  0.1296  0.7697  0.7640
   98SAPC  C213 9705   5.930   1.635   3.089  0.1897  0.1839  0.3915
   98SAPC  H13R 9706   5.978   1.542   3.127  0.2791 -1.9446 -4.3068
   98SAPC  H13S 9707   5.824   1.625   3.057  0.1610 -0.9079  0.7712
   98SAPC  C214 9708   5.941   1.740   3.197 -0.6309 -0.2995 -0.0020
   98SAPC  H14R 9709   5.904   1.838   3.165  2.2803  0.5647 -0.9492
   98SAPC  C215 9710   5.975   1.718   3.328 -0.3169  0.1763  0.4318
   98SAPC  H15R 9711   5.968   1.802   3.399 -0.3532  0.0971  0.5214
   98SAPC  C216 9712   6.032   1.593   3.388 -0.7157 -0.2609 -0.1673
   98SAPC  H16R 9713   6.072   1.527   3.308  0.1743 -0.2441  0.2512
   98SAPC  H16S 9714   5.964   1.539   3.457  1.8592 -1.4686  1.5753
   98SAPC  C217 9715   6.145   1.617   3.483  0.0777  0.9158 -0.4620
   98SAPC  H17R 9716   6.115   1.669   3.576  0.0065 -0.9563  0.6175
   98SAPC  H17S 9717   6.213   1.683   3.425  0.0632  1.1872 -0.1719
   98SAPC  C218 9718   6.221   1.488   3.527  0.4119 -0.1305 -0.1601
   98SAPC  H18R 9719   6.143   1.423   3.573  0.1934  0.1661 -0.1090
   98SAPC  H18S 9720   6.295   1.502   3.609  0.7535 -1.0911 -0.2899
   98SAPC  C219 9721   6.290   1.405   3.408 -0.7276  0.0003 -0.0827
   98SAPC  H19R 9722   6.224   1.380   3.323  0.1623  1.4999 -1.2919
   98SAPC  H19S 9723   6.329   1.307   3.442 -0.6178 -0.8695 -2.4659
   98SAPC  C220 9724   6.405   1.488   3.342 -0.3433  0.5507 -0.8161
   98SAPC  H20R 9725   6.450   1.440   3.252 -1.7753  2.0573 -2.4361
   98SAPC  H20S 9726   6.489   1.516   3.408 -0.0060  0.6821 -1.2906
   98SAPC  H20T 9727   6.366   1.584   3.301  1.1092  1.4727 -0.0978
   98SAPC   C33 9728   6.211   1.035   2.942  0.3527  0.2908  0.0008
   98SAPC   H3X 9729   6.211   0.941   2.883  0.3714  1.8592 -2.6634
   98SAPC   H3Y 9730   6.123   1.101   2.928  3.2277  4.2178 -1.6548
   98SAPC   C34 9731   6.235   1.020   3.093  0.3572 -0.0534  0.1649
   98SAPC   H4X 9732   6.228   1.117   3.147 -1.3108  0.6743 -1.2527
   98SAPC   H4Y 9733   6.339   0.985   3.108  0.2590 -0.6511 -0.5048
   98SAPC   C35 9734   6.139   0.911   3.158 -0.6732 -0.3189  0.5662
   98SAPC   H5X 9735   6.131   0.828   3.084 -1.6349 -0.6868  1.0713
   98SAPC   H5Y 9736   6.044   0.967   3.170  0.1429  1.1315  0.5075
   98SAPC   C36 9737   6.187   0.877   3.304  0.1477  0.1618  0.4865
   98SAPC   H6X 9738   6.181   0.966   3.370 -1.8664 -0.3343  1.0278
   98SAPC   H6Y 9739   6.286   0.827   3.310  0.3054  0.2914 -0.7798
   98SAPC   C37 9740   6.088   0.774   3.368 -0.4388  0.0528  0.4495
   98SAPC   H7X 9741   6.105   0.678   3.316 -1.1102  0.2768 -0.2167
   98SAPC   H7Y 9742   5.983   0.810   3.354 -0.1735  0.7014  0.0986
   98SAPC   C38 9743   6.113   0.749   3.517 -0.0472 -0.3608 -0.2547
   98SAPC   H8X 9744   6.078   0.837   3.575  0.3097 -0.9972  0.9672
   98SAPC   H8Y 9745   6.220   0.740   3.544  0.0748  0.8411 -0.3083
   98SAPC   C39 9746   6.038   0.622   3.567  0.5926 -0.8083 -0.6533
   98SAPC   H9X 9747   6.079   0.536   3.510  0.5752 -2.2264  1.3452
   98SAPC   H9Y 9748   5.927   0.625   3.554  0.2373 -1.1802  1.8105
   98SAPC  C310 9749   6.080   0.592   3.714  0.7718 -0.3801 -0.3080
   98SAPC  H10X 9750   6.066   0.689   3.767 -0.4646 -0.0818 -1.1359
   98SAPC  H10Y 9751   6.187   0.568   3.733  0.4493 -1.1845  0.6372
   98SAPC  C311 9752   5.988   0.489   3.783 -0.0397 -0.0046 -0.9536
   98SAPC  H11X 9753   5.969   0.402   3.717 -0.8720  0.1555 -0.9450
   98SAPC  H11Y 9754   5.889   0.540   3.796  0.8455  1.8530 -1.1033
   98SAPC  C312 9755   6.041   0.425   3.919  0.4706  0.2840 -0.1488
   98SAPC  H12X 9756   6.040   0.507   3.993  0.7339  1.9613 -1.9182
   98SAPC  H12Y 9757   6.146   0.395   3.903  0.9768  1.8501  0.1091
   98SAPC  C313 9758   5.952   0.307   3.965 -0.1504  0.1612  0.3312
   98SAPC  H13X 9759   5.998   0.277   4.062 -0.6914  1.1870  0.9254
   98SAPC  H13Y 9760   5.973   0.229   3.888  2.2174 -1.2556  2.2718
   98SAPC  C314 9761   5.806   0.343   3.986  0.0192 -0.4538  0.0291
   98SAPC  H14X 9762   5.762   0.352   3.884  0.4127 -0.2708 -0.1252
   98SAPC  H14Y 9763   5.800   0.448   4.021 -0.4030 -0.4624 -0.0148
   98SAPC  C315 9764   5.713   0.240   4.059  0.1369 -0.0778 -0.4668
   98SAPC  H15X 9765   5.752   0.224   4.162 -1.1652 -0.0542  0.0506
   98SAPC  H15Y 9766   5.721   0.137   4.019  0.2560 -1.1547  2.1105
   98SAPC  C316 9767   5.570   0.291   4.054  0.2200 -0.5373 -0.0319
   98SAPC  H16X 9768   5.542   0.302   3.947  3.8489 -1.6638 -1.2506
   98SAPC  H16Y 9769   5.563   0.395   4.093  0.0332 -0.0699 -1.2692
   98SAPC  C317 9770   5.468   0.192   4.111 -0.2543  0.3650 -0.2562
   98SAPC  H17X 9771   5.493   0.088   4.084 -0.0495 -0.2695  2.1414
   98SAPC  H17Y 9772   5.373   0.222   4.062  0.2648  0.7335 -1.0612
   98SAPC  C318 9773   5.472   0.205   4.261  0.1324  0.3134  0.4348
   98SAPC  H18X 9774   5.388   0.264   4.305  1.5219  0.1543  3.6034
   98SAPC  H18Y 9775   5.572   0.239   4.295  0.6057 -0.3749 -0.2686
   98SAPC  H18Z 9776   5.470   0.102   4.303  1.0369  0.1628  0.1292
   99SAPC     N 9777   3.966   6.440   2.059 -0.1758  0.0119 -0.1390
   99SAPC   C12 9778   3.824   6.467   2.034  0.0742  0.2269  0.7736
   99SAPC  H12A 9779   3.767   6.376   2.024  0.9989 -0.2101 -0.9491
   99SAPC  H12B 9780   3.809   6.526   1.945 -1.7065  1.5183  1.8681
   99SAPC   C13 9781   4.031   6.374   1.944  0.7742 -0.0029  0.3301
   99SAPC  H13A 9782   4.132   6.344   1.970  1.1548  1.1552  0.2609
   99SAPC  H13B 9783   3.979   6.283   1.919  1.1343 -0.8833  2.5972
   99SAPC  H13C 9784   4.026   6.441   1.859 -0.8457  1.3758  1.4652
   99SAPC   C14 9785   4.040   6.561   2.092 -0.0883  0.3055 -0.1844
   99SAPC  H14A 9786   4.141   6.539   2.124  0.8437  4.6779  0.5511
   99SAPC  H14B 9787   4.042   6.624   2.004 -2.5281  1.7305  0.6910
   99SAPC  H14C 9788   3.994   6.615   2.173  1.4264  0.5333  0.5694
   99SAPC   C15 9789   3.970   6.353   2.186  0.5192 -0.2655 -0.2375
   99SAPC  H15A 9790   3.917   6.263   2.159  2.1600 -0.5879 -2.7379
   99SAPC  H15B 9791   4.073   6.337   2.213  0.7801 -0.6126 -1.3891
   99SAPC  H15C 9792   3.918   6.411   2.261  1.2832 -0.6990  0.6438
   99SAPC   C11 9793   3.742   6.536   2.139  1.0346  0.0714  0.6293
   99SAPC  H11A 9794   3.650   6.576   2.090  0.2276 -0.1619  1.8932
   99SAPC  H11B 9795   3.797   6.626   2.175  1.8794 -0.4742  0.7178
   99SAPC     P 9796   3.575   6.371   2.268 -0.1777  0.6315  0.2329
   99SAPC   O13 9797   3.489   6.392   2.151  0.0552  0.2941  0.2469
   99SAPC   O14 9798   3.606   6.229   2.309  0.7185 -0.0823  0.3568
   99SAPC   O12 9799   3.714   6.446   2.247 -0.5593 -0.3895  0.4399
   99SAPC   O11 9800   3.522   6.449   2.385  0.3026  0.2456 -0.1812
   99SAPC    C1 9801   3.589   6.469   2.510  0.4130  0.1126  0.0850
   99SAPC    HA 9802   3.700   6.458   2.501  0.2608 -0.2525 -1.7214
   99SAPC    HB 9803   3.563   6.571   2.544 -0.7104 -0.1651  0.1068
   99SAPC    C2 9804   3.542   6.362   2.614  0.0324 -0.2448  0.2609
   99SAPC    HS 9805   3.546   6.260   2.571  1.5462  0.6217 -1.7905
   99SAPC   O21 9806   3.409   6.409   2.654 -0.3691 -0.1027 -0.1796
   99SAPC   C21 9807   3.321   6.317   2.696  0.0171  0.8839  0.8201
   99SAPC   O22 9808   3.335   6.195   2.689  0.1834 -0.4717  0.1747
   99SAPC   C22 9809   3.200   6.397   2.748 -0.8160  0.6651 -0.1495
   99SAPC   H2R 9810   3.251   6.471   2.813 -0.0609 -0.0551  0.0920
   99SAPC   H2S 9811   3.135   6.446   2.672 -1.2460  1.1959  0.5532
   99SAPC    C3 9812   3.639   6.364   2.738 -0.0598  0.0554 -0.3340
   99SAPC    HX 9813   3.644   6.465   2.784 -0.5485 -0.5966  1.1869
   99SAPC    HY 9814   3.742   6.353   2.697  0.2007 -1.3275  0.6254
   99SAPC   O31 9815   3.609   6.264   2.841 -0.7205  0.2681 -0.5180
   99SAPC   C31 9816   3.618   6.129   2.806  0.1520  0.2845  0.3323
   99SAPC   O32 9817   3.659   6.092   2.699 -0.3240 -0.4436  0.0179
   99SAPC   C32 9818   3.574   6.052   2.928 -0.0491 -0.2607 -0.3321
   99SAPC   H2X 9819   3.467   6.080   2.937  0.1544  0.2925  0.5318
   99SAPC   H2Y 9820   3.625   6.085   3.022  1.2950 -1.7402 -0.5024
   99SAPC   C23 9821   3.106   6.303   2.837  0.0876  0.1990 -0.5341
   99SAPC   H3R 9822   3.179   6.259   2.907  1.5052  0.5835 -1.7234
   99SAPC   H3S 9823   3.053   6.227   2.775 -0.7342  0.6680 -0.4295
   99SAPC   C24 9824   3.003   6.389   2.911  0.8529 -0.2705 -0.0151
   99SAPC   H4R 9825   2.937   6.423   2.829  2.0802  0.2278 -0.8244
   99SAPC   H4S 9826   3.053   6.475   2.960 -2.9711  1.4815  1.2059
   99SAPC   C25 9827   2.935   6.304   3.020 -0.3505  0.3076 -0.3150
   99SAPC   H5R 9828   2.854   6.248   2.970 -0.7083  1.9168 -1.6373
   99SAPC   C26 9829   2.958   6.310   3.152 -0.1396 -0.2539 -0.5704
   99SAPC   H6R 9830   2.904   6.242   3.220 -0.6348  0.9545  0.2958
   99SAPC   C27 9831   3.060   6.389   3.227 -1.2148 -0.6191  0.2419
   99SAPC   H7R 9832   3.030   6.496   3.229  1.1283  0.1207 -0.3252
   99SAPC   H7S 9833   3.153   6.391   3.166 -0.2585 -0.2013  1.6581
   99SAPC   C28 9834   3.091   6.342   3.364 -0.7692  0.4122 -0.3105
   99SAPC   H8R 9835   3.133   6.240   3.361 -1.2288  0.2077  0.1672
   99SAPC   C29 9836   3.069   6.399   3.482  0.2354  0.3437  0.4516
   99SAPC   H9R 9837   3.096   6.349   3.576  1.2913 -0.6628 -0.3628
   99SAPC  C210 9838   3.006   6.536   3.493  0.4632 -0.8044 -0.0504
   99SAPC  H10R 9839   2.902   6.533   3.454 -0.8592  0.7741  3.0625
   99SAPC  H10S 9840   3.061   6.615   3.438  1.4476 -1.8357 -0.6165
   99SAPC  C211 9841   2.996   6.581   3.638  0.1393 -0.5960 -0.8004
   99SAPC  H11R 9842   2.895   6.570   3.680 -0.2829  1.2290 -1.2556
   99SAPC  C212 9843   3.100   6.609   3.714  0.2243 -0.1708  0.1248
   99SAPC  H12R 9844   3.085   6.642   3.818 -0.4096  1.8156 -0.5486
   99SAPC  C213 9845   3.237   6.638   3.674  0.1972  0.5682 -0.6741
   99SAPC  H13R 9846   3.250   6.736   3.625  0.9462  0.0294 -1.5898
   99SAPC  H13S 9847   3.265   6.565   3.595 -0.1547 -0.5154  0.1648
   99SAPC  C214 9848   3.348   6.614   3.775 -0.5767  0.5959  0.2572
   99SAPC  H14R 9849   3.402   6.706   3.803  1.5034 -0.6111  0.3887
   99SAPC  C215 9850   3.377   6.500   3.837  0.0285 -0.6054 -0.1990
   99SAPC  H15R 9851   3.465   6.500   3.902 -0.7235 -1.2717  0.8412
   99SAPC  C216 9852   3.302   6.372   3.813  0.1088 -0.4255 -0.2593
   99SAPC  H16R 9853   3.239   6.379   3.722  0.1554 -1.4700 -0.3774
   99SAPC  H16S 9854   3.229   6.369   3.896 -0.3791  3.7467 -0.3137
   99SAPC  C217 9855   3.397   6.249   3.805 -0.0044  0.4571  0.2057
   99SAPC  H17R 9856   3.480   6.268   3.733  1.1620 -1.1701  1.0490
   99SAPC  H17S 9857   3.337   6.166   3.762  0.3243 -0.6521  1.7779
   99SAPC  C218 9858   3.441   6.200   3.942  0.1600  0.5876 -0.0436
   99SAPC  H18R 9859   3.350   6.160   3.993  0.0544  0.5814 -0.2364
   99SAPC  H18S 9860   3.486   6.282   4.002  4.1377 -0.5168 -1.2225
   99SAPC  C219 9861   3.534   6.085   3.929  0.4898  0.1727 -0.7143
   99SAPC  H19R 9862   3.636   6.113   3.897  1.0716  0.1123  0.9971
   99SAPC  H19S 9863   3.489   6.019   3.852 -1.4600 -1.3635  1.5940
   99SAPC  C220 9864   3.548   6.023   4.070  0.4525 -0.2082  0.2260
   99SAPC  H20R 9865   3.597   5.923   4.073  3.9249  1.3933  2.6723
   99SAPC  H20S 9866   3.445   5.998   4.104 -0.8342  2.4124 -1.4383
   99SAPC  H20T 9867   3.600   6.095   4.136 -0.5802  0.4292  0.3704
   99SAPC   C33 9868   3.587   5.902   2.898  0.0014 -0.3797 -0.3315
   99SAPC   H3X 9869   3.695   5.880   2.913 -0.2157 -0.2930  1.6176
   99SAPC   H3Y 9870   3.536   5.880   2.802 -1.4631  1.7289 -0.1121
   99SAPC   C34 9871   3.518   5.801   2.991 -0.2742  0.1496 -0.1743
   99SAPC   H4X 9872   3.514   5.696   2.955 -1.4409 -0.2779  1.1148
   99SAPC   H4Y 9873   3.409   5.825   2.985 -0.5138 -1.0638 -1.3435
   99SAPC   C35 9874   3.559   5.801   3.134 -0.6469 -0.6157 -1.0568
   99SAPC   H5X 9875   3.512   5.888   3.186  1.3021 -0.4146  0.5071
   99SAPC   H5Y 9876   3.668   5.819   3.148 -1.1537  0.7578  1.9929
   99SAPC   C36 9877   3.511   5.671   3.201 -0.3247 -0.3210 -0.0641
   99SAPC   H6X 9878   3.588   5.596   3.173  1.5674  1.8393 -0.9767
   99SAPC   H6Y 9879   3.410   5.643   3.164  0.2136 -3.5871  0.6169
   99SAPC   C37 9880   3.496   5.679   3.350  0.0579 -0.4101 -0.5229
   99SAPC   H7X 9881   3.449   5.591   3.400 -0.1127  0.9385  1.8409
   99SAPC   H7Y 9882   3.425   5.762   3.368 -0.1286 -0.1652 -2.2416
   99SAPC   C38 9883   3.623   5.722   3.420  1.0094 -0.0842 -0.2870
   99SAPC   H8X 9884   3.631   5.826   3.383 -0.3176 -0.1133 -0.6863
   99SAPC   H8Y 9885   3.709   5.656   3.393  2.7335  0.9536  2.2792
   99SAPC   C39 9886   3.614   5.726   3.580  0.0585  0.5731  0.4087
   99SAPC   H9X 9887   3.590   5.622   3.611  2.4727 -0.1537  0.0528
   99SAPC   H9Y 9888   3.540   5.799   3.617  0.3417  1.5297 -0.8501
   99SAPC  C310 9889   3.753   5.768   3.633 -0.9922 -0.5967  0.7690
   99SAPC  H10X 9890   3.795   5.865   3.600 -0.6825 -0.2987  1.9779
   99SAPC  H10Y 9891   3.832   5.697   3.602 -0.1883  0.4261  0.4224
   99SAPC  C311 9892   3.748   5.770   3.787 -0.1748  0.5130  0.1246
   99SAPC  H11X 9893   3.701   5.675   3.822 -1.3494  0.2209 -2.0509
   99SAPC  H11Y 9894   3.683   5.852   3.826  1.2696  1.6186  0.2854
   99SAPC  C312 9895   3.887   5.795   3.840  0.5785  0.1756 -0.7351
   99SAPC  H12X 9896   3.927   5.895   3.810  0.9183  0.0476 -0.7080
   99SAPC  H12Y 9897   3.961   5.716   3.816  0.2950 -1.1138  2.1886
   99SAPC  C313 9898   3.885   5.780   3.998  0.1868  0.5522  0.6677
   99SAPC  H13X 9899   3.822   5.691   4.018 -1.8308  1.6966 -0.2441
   99SAPC  H13Y 9900   3.825   5.862   4.043  2.2056  0.5746  3.5178
   99SAPC  C314 9901   4.018   5.770   4.068  0.0440 -0.0896  0.2181
   99SAPC  H14X 9902   4.082   5.682   4.043  1.8259  0.8783  1.1509
   99SAPC  H14Y 9903   3.996   5.762   4.177  2.5250  1.8560  0.9667
   99SAPC  C315 9904   4.096   5.899   4.047 -0.2752 -0.1483 -1.0994
   99SAPC  H15X 9905   4.042   5.990   4.081  1.1754  0.2082  0.3957
   99SAPC  H15Y 9906   4.095   5.900   3.936 -1.4897 -0.4810 -1.1126
   99SAPC  C316 9907   4.234   5.890   4.121  0.6847 -0.0839 -0.2252
   99SAPC  H16X 9908   4.314   5.849   4.055  2.4584 -0.6042  2.1190
   99SAPC  H16Y 9909   4.223   5.810   4.197 -2.4652 -0.2373 -0.6988
   99SAPC  C317 9910   4.276   6.027   4.172 -0.0111 -0.3597 -0.7515
   99SAPC  H17X 9911   4.337   5.995   4.259 -0.3672  1.1875  0.1061
   99SAPC  H17Y 9912   4.193   6.079   4.225  0.4155 -2.1989  1.9560
   99SAPC  C318 9913   4.359   6.126   4.086  0.1133 -0.1760 -0.3689
   99SAPC  H18X 9914   4.281   6.173   4.022  1.8900  2.3714 -0.8010
   99SAPC  H18Y 9915   4.441   6.078   4.029 -0.3567 -0.9260 -0.4376
   99SAPC  H18Z 9916   4.393   6.208   4.152 -1.3563 -0.1880  0.4499
  100SAPC     N 9917   1.829   4.630   1.877  1.0050 -0.8868 -0.2999
  100SAPC   C12 9918   1.753   4.546   1.986 -0.2126 -0.0420 -0.0023
  100SAPC  H12A 9919   1.649   4.574   1.986 -1.1483 -3.0380  2.0741
  100SAPC  H12B 9920   1.789   4.566   2.086  2.3765 -0.7964 -0.7037
  100SAPC   C13 9921   1.977   4.623   1.888  0.6858 -0.5049 -0.3794
  100SAPC  H13A 9922   2.021   4.687   1.812  2.1588 -0.3457  0.5697
  100SAPC  H13B 9923   2.007   4.657   1.986 -0.6445 -0.9675  0.2111
  100SAPC  H13C 9924   2.010   4.525   1.858  1.0384 -0.2171 -0.9590
  100SAPC   C14 9925   1.780   4.570   1.748  0.4328  0.4695  0.2649
  100SAPC  H14A 9926   1.798   4.464   1.755 -1.6573 -0.1053 -1.6245
  100SAPC  H14B 9927   1.675   4.582   1.725  0.1636 -1.9549 -0.0835
  100SAPC  H14C 9928   1.850   4.607   1.674  0.4687 -0.3776 -0.1312
  100SAPC   C15 9929   1.773   4.777   1.876 -0.0689  0.3927  0.2928
  100SAPC  H15A 9930   1.814   4.850   1.806 -0.1405  3.3802  3.1314
  100SAPC  H15B 9931   1.666   4.774   1.861  0.1238  1.0914 -1.5239
  100SAPC  H15C 9932   1.791   4.818   1.974 -1.9005 -0.1835  0.9127
  100SAPC   C11 9933   1.754   4.394   1.968 -0.6100 -0.2373  0.2913
  100SAPC  H11A 9934   1.746   4.345   2.068  0.1135 -0.8771  0.0469
  100SAPC  H11B 9935   1.857   4.369   1.938 -1.5620 -1.4653 -2.2558
  100SAPC     P 9936   1.502   4.358   1.920 -0.4463  0.1134 -0.1012
  100SAPC   O13 9937   1.473   4.495   1.966  0.3216 -0.4470 -0.0181
  100SAPC   O14 9938   1.421   4.305   1.808 -0.0606 -0.2383 -0.0546
  100SAPC   O12 9939   1.657   4.349   1.876  0.3078 -0.1088  0.3171
  100SAPC   O11 9940   1.503   4.254   2.043 -0.6008  0.1675  0.0013
  100SAPC    C1 9941   1.374   4.221   2.102 -0.4615 -0.4135 -0.3353
  100SAPC    HA 9942   1.306   4.186   2.022  0.0107 -1.1616 -0.4202
  100SAPC    HB 9943   1.391   4.127   2.159 -0.8772 -2.0916 -2.8137
  100SAPC    C2 9944   1.309   4.331   2.193  0.0472  0.0756 -0.3405
  100SAPC    HS 9945   1.272   4.401   2.114  1.0486 -0.4523 -1.2914
  100SAPC   O21 9946   1.400   4.390   2.280 -0.1370  0.3157 -0.1181
  100SAPC   C21 9947   1.376   4.509   2.325 -0.3952 -0.1597 -0.8869
  100SAPC   O22 9948   1.293   4.580   2.271 -0.1086  0.3376 -0.4627
  100SAPC   C22 9949   1.452   4.536   2.463 -0.2078  0.5660  0.6061
  100SAPC   H2R 9950   1.494   4.443   2.508  0.8108  1.5900  1.8494
  100SAPC   H2S 9951   1.536   4.600   2.430  0.3080 -0.2558  0.3090
  100SAPC    C3 9952   1.175   4.275   2.253  0.4693  0.1529  0.7170
  100SAPC    HX 9953   1.095   4.252   2.181 -1.0163 -0.5244  2.5019
  100SAPC    HY 9954   1.140   4.363   2.312 -1.0546  1.5346 -2.0711
  100SAPC   O31 9955   1.200   4.158   2.330 -0.6255 -0.0894 -0.2603
  100SAPC   C31 9956   1.124   4.049   2.302 -0.3556  0.1107  0.1258
  100SAPC   O32 9957   1.052   4.040   2.201 -0.8816 -0.0335 -0.1813
  100SAPC   C32 9958   1.138   3.953   2.420  1.1798 -0.3398  0.7554
  100SAPC   H2X 9959   1.123   4.003   2.518  2.0610 -0.3644  0.9159
  100SAPC   H2Y 9960   1.242   3.914   2.414  0.7529 -1.2342 -2.2109
  100SAPC   C23 9961   1.362   4.605   2.571  0.4290 -0.2085 -0.4845
  100SAPC   H3R 9962   1.272   4.646   2.522 -1.6362 -2.8734  0.8344
  100SAPC   H3S 9963   1.408   4.694   2.620 -2.0946 -0.5520  2.9193
  100SAPC   C24 9964   1.324   4.508   2.688 -0.0666 -0.4654  0.0339
  100SAPC   H4R 9965   1.267   4.563   2.766 -1.9675  0.5779 -1.9648
  100SAPC   H4S 9966   1.423   4.479   2.729  0.0770  1.4850  1.1659
  100SAPC   C25 9967   1.240   4.382   2.654 -0.3374  0.3684 -0.3053
  100SAPC   H5R 9968   1.182   4.386   2.561 -0.3119  2.6426 -0.2856
  100SAPC   C26 9969   1.229   4.276   2.736 -0.8723 -0.0174  0.1213
  100SAPC   H6R 9970   1.159   4.197   2.704 -0.2729 -0.9356  1.0290
  100SAPC   C27 9971   1.295   4.263   2.867 -0.8107 -0.0417  0.4902
  100SAPC   H7R 9972   1.344   4.355   2.904  1.4288 -0.8147 -0.4226
  100SAPC   H7S 9973   1.381   4.194   2.851 -1.6016 -1.5437  2.3109
  100SAPC   C28 9974   1.194   4.203   2.961  0.3263 -0.7462  0.0645
  100SAPC   H8R 9975   1.163   4.101   2.935 -0.2761 -0.7983  0.9421
  100SAPC   C29 9976   1.143   4.258   3.076  0.1291  0.4482 -0.7135
  100SAPC   H9R 9977   1.059   4.210   3.128  0.1974  0.6666 -0.4045
  100SAPC  C210 9978   1.187   4.382   3.153 -0.3992 -0.7575 -0.5052
  100SAPC  H10R 9979   1.298   4.382   3.165 -0.4767  1.7258  0.9143
  100SAPC  H10S 9980   1.142   4.369   3.254  1.1295 -2.0570  0.0653
  100SAPC  C211 9981   1.142   4.510   3.087  0.6248 -0.0546  0.1203
  100SAPC  H11R 9982   1.118   4.502   2.980 -0.6157  1.8201  0.2127
  100SAPC  C212 9983   1.135   4.628   3.140 -0.0551 -0.4176 -0.4511
  100SAPC  H12R 9984   1.123   4.721   3.083  0.4334 -0.3396 -0.4309
  100SAPC  C213 9985   1.167   4.656   3.283 -0.0628  0.1317  0.2372
  100SAPC  H13R 9986   1.240   4.739   3.289 -0.5689  0.7126 -1.3607
  100SAPC  H13S 9987   1.217   4.570   3.333 -0.0906  0.1088  0.2255
  100SAPC  C214 9988   1.048   4.672   3.369  0.1201 -0.2533 -0.8049
  100SAPC  H14R 9989   1.004   4.590   3.428  1.5807  1.1820  2.5413
  100SAPC  C215 9990   0.964   4.781   3.371 -0.4727 -0.7035  0.4617
  100SAPC  H15R 9991   0.869   4.780   3.426 -0.9477 -3.4729 -0.2775
  100SAPC  C216 9992   0.992   4.910   3.295  0.4354 -0.2563  0.1913
  100SAPC  H16R 9993   1.098   4.903   3.262  0.2797 -1.2808 -0.1259
  100SAPC  H16S 9994   0.977   5.013   3.333  0.3265  1.0540 -3.0432
  100SAPC  C217 9995   0.903   4.898   3.164  0.2452 -0.4329 -0.0935
  100SAPC  H17R 9996   0.810   4.957   3.181  0.7059  0.0364  0.8605
  100SAPC  H17S 9997   0.883   4.793   3.133  0.1755 -0.9730  1.6800
  100SAPC  C218 9998   0.973   4.972   3.047 -0.7276 -0.1632 -0.0082
  100SAPC  H18R 9999   1.077   4.938   3.030  0.1671  0.8758  2.8236
  100SAPC  H18S10000   0.985   5.077   3.081 -2.7159  0.0600  0.1358
  100SAPC  C21910001   0.894   4.962   2.914  0.1617 -0.1914 -0.6743
  100SAPC  H19R10002   0.927   5.045   2.848  1.0426 -0.6168 -0.7974
  100SAPC  H19S10003   0.787   4.987   2.925  0.5447  2.8780 -2.8061
  100SAPC  C22010004   0.923   4.828   2.841 -0.6345 -0.1698 -0.1096
  100SAPC  H20R10005   0.889   4.834   2.735  0.4804  0.9410 -0.4285
  100SAPC  H20S10006   0.863   4.745   2.883 -1.9377  1.1274  0.6840
  100SAPC  H20T10007   1.031   4.805   2.838  0.4198  3.8781  1.3575
  100SAPC   C3310008   1.029   3.842   2.419 -0.1511  0.3736  0.5912
  100SAPC   H3X10009   0.930   3.892   2.413 -0.5256 -0.4748 -1.3187
  100SAPC   H3Y10010   1.040   3.772   2.504  0.1238 -1.8759 -1.1816
  100SAPC   C3410011   1.044   3.741   2.303  0.7061 -0.5089  0.0084
  100SAPC   H4X10012   1.144   3.693   2.298  0.7779 -0.4747  0.8856
  100SAPC   H4Y10013   1.024   3.795   2.208 -0.6039  3.1432  2.1429
  100SAPC   C3510014   0.945   3.622   2.315  0.2475 -0.2887  0.2865
  100SAPC   H5X10015   0.938   3.588   2.421 -0.9499  1.0641  0.6679
  100SAPC   H5Y10016   0.977   3.544   2.243 -0.7828  1.0818 -1.7281
  100SAPC   C3610017   0.799   3.647   2.266  0.3635  0.0442 -0.4938
  100SAPC   H6X10018   0.816   3.679   2.161 -0.7488 -0.8422 -0.9714
  100SAPC   H6Y10019   0.749   3.727   2.326 -0.9192 -0.2042 -1.1835
  100SAPC   C3710020   0.720   3.521   2.265  0.4789  0.3973 -0.1619
  100SAPC   H7X10021   0.757   3.449   2.189 -2.6978 -0.8695 -0.7067
  100SAPC   H7Y10022   0.611   3.536   2.246 -0.6897 -1.8998  3.6760
  100SAPC   C3810023   0.720   3.439   2.395  0.2119  0.2165  0.6708
  100SAPC   H8X10024   0.823   3.411   2.426  0.6484  0.0295 -0.8514
  100SAPC   H8Y10025   0.679   3.338   2.374  1.4730 -0.1654 -0.0368
  100SAPC   C3910026   0.641   3.506   2.513 -0.1716  0.4417  0.2983
  100SAPC   H9X10027   0.532   3.501   2.495 -0.4393  1.3802  1.5022
  100SAPC   H9Y10028   0.671   3.613   2.523 -1.1329  1.0124 -2.1960
  100SAPC  C31010029   0.673   3.453   2.644 -0.6934 -0.3800  1.0226
  100SAPC  H10X10030   0.781   3.475   2.659 -0.7771  0.6827  0.2413
  100SAPC  H10Y10031   0.671   3.342   2.640 -0.1398 -0.3507 -1.8132
  100SAPC  C31110032   0.593   3.502   2.766  0.0626 -0.3267 -0.3736
  100SAPC  H11X10033   0.488   3.485   2.738  0.2995  1.4305 -2.5600
  100SAPC  H11Y10034   0.608   3.612   2.779  3.1809 -0.6471 -0.4026
  100SAPC  C31210035   0.635   3.415   2.883  0.4468 -0.4756  1.0543
  100SAPC  H12X10036   0.743   3.387   2.882  0.3454 -0.9500 -0.4080
  100SAPC  H12Y10037   0.586   3.315   2.878  0.5428 -0.5363  1.3200
  100SAPC  C31310038   0.611   3.489   3.019  0.8541 -0.2788  0.3264
  100SAPC  H13X10039   0.505   3.495   3.053  0.4883 -0.7564 -0.6894
  100SAPC  H13Y10040   0.653   3.592   3.013 -0.6138  0.3613  0.6196
  100SAPC  C31410041   0.690   3.421   3.136  0.0838  0.7359  0.0034
  100SAPC  H14X10042   0.801   3.418   3.128  0.0353 -2.2955 -1.0681
  100SAPC  H14Y10043   0.654   3.316   3.128 -3.0850  1.5904  1.5021
  100SAPC  C31510044   0.648   3.479   3.270 -0.1315  0.2742 -0.8350
  100SAPC  H15X10045   0.537   3.488   3.267 -0.2539 -0.3839  0.6373
  100SAPC  H15Y10046   0.688   3.582   3.281 -0.7415  0.3060  1.9029
  100SAPC  C31610047   0.677   3.386   3.388 -0.7419  0.6568 -0.1192
  100SAPC  H16X10048   0.787   3.389   3.396 -0.7962  1.6324  0.4779
  100SAPC  H16Y10049   0.640   3.283   3.370  0.4455 -0.1202  1.7027
  100SAPC  C31710050   0.613   3.433   3.518  0.1801 -0.1977  0.3168
  100SAPC  H17X10051   0.504   3.416   3.509 -0.0035  0.2831  1.5021
  100SAPC  H17Y10052   0.634   3.542   3.523 -1.0371  0.0688 -0.1727
  100SAPC  C31810053   0.663   3.350   3.634 -0.0028  0.1979  0.1777
  100SAPC  H18X10054   0.616   3.396   3.723 -1.1864 -0.0487 -0.2894
  100SAPC  H18Y10055   0.772   3.356   3.650 -0.1771 -1.0689  2.2333
  100SAPC  H18Z10056   0.622   3.248   3.615 -0.4756  0.1949  1.1356
  101OSM      N10057   5.468   3.197   6.521 -0.3423  0.3538 -0.0246
  101OSM    C1510058   5.445   3.053   6.561 -0.6838 -0.5963  0.1693
  101OSM   H15A10059   5.338   3.039   6.553 -1.0772  1.5361  1.1360
  101OSM   H15B10060   5.467   3.039   6.666  1.3420 -1.0741 -0.2729
  101OSM   H15C10061   5.502   2.993   6.492  0.9192 -0.3325  1.2122
  101OSM    C1410062   5.366   3.286   6.589 -0.0382  0.3252 -0.4701
  101OSM   H14A10063   5.269   3.269   6.545 -0.5605  0.8407  0.4555
  101OSM   H14B10064   5.401   3.387   6.577 -0.8345  0.6625 -0.0471
  101OSM   H14C10065   5.360   3.265   6.695 -0.5886 -0.5001 -0.6544
  101OSM    C1310066   5.605   3.247   6.563  1.1449  0.3542  0.3669
  101OSM   H13A10067   5.613   3.346   6.521  1.9282 -0.1431 -0.6995
  101OSM   H13B10068   5.681   3.182   6.522  0.6928 -0.4261  0.7438
  101OSM   H13C10069   5.617   3.257   6.669  0.3158 -0.3147  0.5306
  101OSM    C1210070   5.439   3.212   6.372 -0.0107 -0.3029  0.4798
  101OSM   H12A10071   5.348   3.165   6.337 -0.8592  0.0926  2.0507
  101OSM   H12B10072   5.511   3.150   6.321 -0.7157 -2.3562  1.8403
  101OSM    C1110073   5.439   3.360   6.320  0.1764  0.4241  0.2224
  101OSM   H11A10074   5.337   3.403   6.335  0.5224  1.6673 -0.8157
  101OSM   H11B10075   5.450   3.346   6.210 -1.6210  0.8562 -0.0496
  101OSM      P10076   5.524   3.603   6.381  0.1638 -0.1537  0.3856
  101OSM    O1310077   5.439   3.612   6.498 -0.3479 -0.0965  0.2083
  101OSM    O1410078   5.652   3.682   6.378  0.4517  0.2915  0.3595
  101OSM    O1110079   5.440   3.647   6.255 -0.3526  0.7973 -0.0258
  101OSM    O1210080   5.550   3.446   6.364 -0.2724 -0.0967 -0.0650
  101OSM    C1S10081   5.484   3.626   6.121 -0.2718 -0.4191 -0.2811
  101OSM    H1S10082   5.475   3.519   6.095 -0.1080 -0.7922  1.1176
  101OSM    H1T10083   5.588   3.654   6.094 -0.5730  2.1801  0.9130
  101OSM     NF10084   5.453   3.702   5.887  0.3040  0.4337  0.2922
  101OSM    HNF10085   5.511   3.771   5.844 -1.4190  1.9342  0.2371
  101OSM    C2S10086   5.403   3.715   6.026 -0.7017 -0.2243 -0.1950
  101OSM    H2S10087   5.299   3.680   6.017 -0.5556 -0.6827 -0.1208
  101OSM    C3S10088   5.399   3.860   6.078  0.6819 -0.7353 -0.0124
  101OSM    H3S10089   5.500   3.899   6.103  0.5651 -0.7983  0.5594
  101OSM     O310090   5.325   3.876   6.205 -0.0278  0.2097  0.7410
  101OSM    HO310091   5.349   3.790   6.241  1.5778 -0.1212 -0.9299
  101OSM    C4S10092   5.334   3.952   5.969 -1.1601 -0.5779 -0.0023
  101OSM    H4S10093   5.408   4.018   5.921 -1.7044  1.8750  2.2356
  101OSM    C5S10094   5.206   3.952   5.938  0.1597  0.0226 -0.7443
  101OSM    H5S10095   5.139   3.893   6.001  3.3192  0.4890  3.4835
  101OSM    C6S10096   5.153   4.047   5.838 -0.4910  0.0487  0.2854
  101OSM    H6S10097   5.075   4.095   5.900  0.1459  0.6041  0.6775
  101OSM    H6T10098   5.101   3.988   5.760  0.7594 -2.4776  1.2706
  101OSM    C7S10099   5.248   4.140   5.758 -0.8034 -0.2934  0.2533
  101OSM    H7S10100   5.304   4.203   5.829 -0.3656 -0.1740 -0.1881
  101OSM    H7T10101   5.181   4.213   5.708  1.3137  1.7199  0.1882
  101OSM    C8S10102   5.340   4.079   5.652 -0.7421  0.2962 -0.5054
  101OSM    H8S10103   5.427   4.033   5.703 -1.2137 -1.7984 -1.4764
  101OSM    H8T10104   5.382   4.160   5.589  0.7952 -0.2908 -0.2949
  101OSM    C9S10105   5.284   3.970   5.554 -0.0216 -0.1950 -1.0493
  101OSM    H9S10106   5.191   4.015   5.514 -0.4002 -0.2182 -0.2269
  101OSM    H9T10107   5.262   3.880   5.616  2.0200  0.6982  1.1346
  101OSM   C10S10108   5.388   3.928   5.446 -0.0325  0.1487 -0.0570
  101OSM   H10S10109   5.485   3.907   5.495 -0.8906 -2.5985  0.6206
  101OSM   H10T10110   5.404   4.023   5.390  0.2173  1.4654  2.0853
  101OSM   C11S10111   5.346   3.815   5.349 -0.3390 -0.1232  0.1435
  101OSM   H11S10112   5.256   3.845   5.292  0.6070  0.4136 -1.1266
  101OSM   H11T10113   5.319   3.729   5.414 -0.3013 -0.5113 -0.3530
  101OSM   C12S10114   5.467   3.793   5.252 -0.2868  0.5237 -0.0839
  101OSM   H12S10115   5.564   3.776   5.303  1.2592  2.7535 -2.0631
  101OSM   H12T10116   5.467   3.883   5.187  0.1489  0.2001 -0.5335
  101OSM   C13S10117   5.433   3.669   5.172 -0.7091  0.2234  0.6322
  101OSM   H13S10118   5.335   3.683   5.122  0.2540  0.5225 -1.2842
  101OSM   H13T10119   5.431   3.586   5.246 -1.6537  0.7958  1.2565
  101OSM   C14S10120   5.535   3.642   5.063  0.3076  0.3125 -0.1991
  101OSM   H14S10121   5.629   3.683   5.106 -0.6103  1.8193  0.4436
  101OSM   H14T10122   5.517   3.705   4.974 -0.4217 -3.6109 -3.1012
  101OSM   C15S10123   5.542   3.493   5.024  0.2656 -0.6227 -0.3001
  101OSM   H15S10124   5.447   3.453   4.982  0.2408 -1.5531  0.6134
  101OSM   H15T10125   5.535   3.433   5.117 -1.4773 -0.7566 -0.4842
  101OSM   C16S10126   5.663   3.458   4.934 -0.9354 -0.4675 -0.4494
  101OSM   H16S10127   5.673   3.545   4.866 -0.6732  1.4332  1.8654
  101OSM   H16T10128   5.659   3.373   4.863  2.0730 -0.0215 -1.2978
  101OSM   C17S10129   5.805   3.439   5.004  0.1302  0.2689 -0.8429
  101OSM   H17S10130   5.789   3.344   5.059  1.5424  0.1304 -0.6352
  101OSM   H17T10131   5.827   3.519   5.078 -1.2152 -0.5779  0.5185
  101OSM   C18S10132   5.914   3.415   4.900 -0.0249 -0.7285  0.2166
  101OSM   H18S10133   5.924   3.505   4.836 -0.6612  1.0016  2.4733
  101OSM   H18T10134   5.891   3.326   4.837  2.2694 -1.1074 -0.1916
  101OSM   H18U10135   6.011   3.390   4.949 -1.0236  0.3952  2.9524
  101OSM    C1F10136   5.422   3.597   5.809 -0.2459 -0.1510  0.5727
  101OSM     OF10137   5.350   3.512   5.849  0.4030  0.2782  0.6777
  101OSM    C2F10138   5.491   3.586   5.675  0.1735  0.2490 -0.1973
  101OSM    H2F10139   5.582   3.650   5.672  0.8988 -0.7267  0.2441
  101OSM    H2G10140   5.411   3.614   5.603 -0.9953 -0.7172  0.6826
  101OSM    C3F10141   5.539   3.442   5.633  0.0862 -0.5294 -0.4024
  101OSM    H3F10142   5.457   3.367   5.628  1.9514 -2.6333 -1.7093
  101OSM    H3G10143   5.606   3.407   5.715  0.6873  0.2350 -0.5607
  101OSM    C4F10144   5.613   3.446   5.508  0.6830 -0.3686 -0.5013
  101OSM    H4F10145   5.703   3.502   5.538  1.5264 -1.3085 -1.1937
  101OSM    H4G10146   5.558   3.512   5.436 -2.0164 -1.1375  0.7050
  101OSM    C5F10147   5.636   3.306   5.448 -0.1481 -0.6055 -0.0566
  101OSM    H5F10148   5.647   3.325   5.339 -2.2143  4.3670  0.3028
  101OSM    H5G10149   5.544   3.243   5.446  0.4175 -1.4243 -0.8141
  101OSM    C6F10150   5.755   3.219   5.506 -0.0181 -0.0438 -0.0763
  101OSM    H6F10151   5.740   3.185   5.611  1.5172  1.8514  0.8333
  101OSM    H6G10152   5.842   3.288   5.513 -1.2952  1.4707  3.5031
  101OSM    C7F10153   5.796   3.099   5.421  0.2148 -0.2858 -0.1664
  101OSM    H7F10154   5.744   3.004   5.443 -1.6540  0.8779  0.7254
  101OSM    H7G10155   5.901   3.077   5.449  0.0892  1.6052  2.1013
  101OSM    C8F10156   5.798   3.120   5.267 -0.3893 -0.8565 -0.0227
  101OSM    H8F10157   5.867   3.206   5.256  0.1800 -1.3113 -0.0532
  101OSM    H8G10158   5.695   3.147   5.236 -0.6246  2.1805  2.8696
  101OSM    C9F10159   5.862   3.005   5.188 -0.1039  0.1202  0.4811
  101OSM    H9F10160   5.949   2.955   5.232 -0.5931  2.5618  4.8537
  101OSM   C10F10161   5.822   2.957   5.068 -0.5945 -0.0135 -0.3703
  101OSM   H10F10162   5.880   2.880   5.014 -0.6318  1.5409 -2.7817
  101OSM   C11F10163   5.704   3.004   4.978  0.2706  0.1543  0.4899
  101OSM   H11F10164   5.646   3.095   5.003 -0.5788  0.2679 -1.6884
  101OSM   H11G10165   5.620   2.933   4.961  0.0078  0.5517  0.0933
  101OSM   C12F10166   5.757   3.012   4.830 -0.7297 -0.2405  0.1740
  101OSM   H12F10167   5.781   2.913   4.787  1.7345  0.6267 -0.6251
  101OSM   H12G10168   5.843   3.082   4.819 -2.2618  2.1368  2.0349
  101OSM   C13F10169   5.654   3.063   4.731  0.7390 -0.2172 -0.8726
  101OSM   H13F10170   5.617   3.166   4.748  0.0359 -0.4701 -0.8549
  101OSM   H13G10171   5.560   3.004   4.727 -0.9790  2.3980 -3.8437
  101OSM   C14F10172   5.718   3.077   4.591 -0.4702  0.1694  0.5300
  101OSM   H14F10173   5.797   3.001   4.574  0.4638  1.5089 -1.4463
  101OSM   H14G10174   5.762   3.178   4.596 -1.9133  1.0685 -2.5535
  101OSM   C15F10175   5.612   3.084   4.482 -0.0132 -0.2166 -0.0551
  101OSM   H15F10176   5.537   3.165   4.491 -0.5850 -0.3055 -2.8753
  101OSM   H15G10177   5.541   2.999   4.488 -0.8323  0.4119 -0.6363
  101OSM   C16F10178   5.671   3.092   4.345 -0.1576 -0.8208  0.4417
  101OSM   H16F10179   5.587   3.103   4.273 -0.4359  0.9419  0.9883
  101OSM   H16G10180   5.723   2.999   4.315  0.3090  0.1286 -1.9405
  101OSM   C17F10181   5.786   3.197   4.318 -0.2603  0.2245  0.4943
  101OSM   H17F10182   5.878   3.172   4.376  1.3982 -0.0935 -2.1318
  101OSM   H17G10183   5.737   3.288   4.359 -1.9638 -1.4157  2.3644
  101OSM   C18F10184   5.812   3.228   4.171 -0.5184 -0.2812 -0.3082
  101OSM   H18F10185   5.716   3.253   4.120 -0.1291 -0.7645 -1.3066
  101OSM   H18G10186   5.853   3.142   4.113 -2.2322 -0.9836 -0.5402
  101OSM   H18H10187   5.878   3.315   4.152 -0.2359 -0.5972 -0.8052
  102OSM      N10188   4.156   1.551   6.865 -0.6508 -0.3022  0.2791
  102OSM    C1510189   4.137   1.647   6.759 -0.0791 -0.3532  0.3251
  102OSM   H15A10190   4.223   1.666   6.696  1.3481 -4.1395  0.9023
  102OSM   H15B10191   4.101   1.739   6.802 -3.5086 -1.3393 -0.2055
  102OSM   H15C10192   4.064   1.611   6.689  0.2840  1.9107 -1.3579
  102OSM    C1410193   4.284   1.473   6.838 -0.0993 -0.2915  0.0605
  102OSM   H14A10194   4.376   1.529   6.825 -0.4850 -0.1455 -2.4711
  102OSM   H14B10195   4.273   1.422   6.744 -2.5697 -0.9304  0.6327
  102OSM   H14C10196   4.310   1.395   6.908  1.3894 -1.2324 -1.4567
  102OSM    C1310197   4.180   1.626   6.993 -0.7017 -0.3259  0.3191
  102OSM   H13A10198   4.100   1.694   7.016  0.5296  0.7098  1.7274
  102OSM   H13B10199   4.271   1.682   6.980 -0.6047 -0.6493 -0.4929
  102OSM   H13C10200   4.192   1.566   7.082  1.3672 -0.1960  0.1872
  102OSM    C1210201   4.038   1.468   6.889  0.1700  0.2955  0.2178
  102OSM   H12A10202   3.952   1.531   6.910  0.0820  0.3376 -0.2558
  102OSM   H12B10203   4.058   1.414   6.980  2.7382  4.1689  2.2176
  102OSM    C1110204   3.990   1.380   6.768  0.2137  0.7898  0.5695
  102OSM   H11A10205   3.989   1.435   6.672 -0.8631  1.0440  0.7059
  102OSM   H11B10206   3.883   1.352   6.783  0.0222  1.3050  0.1821
  102OSM      P10207   4.138   1.198   6.649 -0.1482 -0.1802 -0.1701
  102OSM    O1310208   4.244   1.125   6.715  0.0658  0.0231 -0.2197
  102OSM    O1410209   4.050   1.133   6.556 -0.5101  0.1092  0.0591
  102OSM    O1110210   4.201   1.327   6.574 -0.7751  0.6523 -0.2215
  102OSM    O1210211   4.054   1.253   6.772 -0.2757 -0.1142 -0.3269
  102OSM    C1S10212   4.323   1.320   6.498 -0.4295  0.1045 -0.0985
  102OSM    H1S10213   4.391   1.245   6.544 -0.0614 -0.1298 -1.0043
  102OSM    H1T10214   4.368   1.419   6.519  0.5380  0.1810 -2.2746
  102OSM     NF10215   4.422   1.271   6.275 -0.3153  0.7031 -0.8279
  102OSM    HNF10216   4.457   1.353   6.232  2.5135 -0.0858 -0.2385
  102OSM    C2S10217   4.299   1.292   6.344 -0.5040 -0.4718  0.3065
  102OSM    H2S10218   4.231   1.204   6.334  0.5358 -1.3116  0.4502
  102OSM    C3S10219   4.222   1.418   6.278  0.0151  0.1037  0.0921
  102OSM    H3S10220   4.283   1.511   6.280 -3.0337  2.2355  0.4513
  102OSM     O310221   4.115   1.469   6.359 -0.0229  0.1611 -0.4205
  102OSM    HO310222   4.138   1.447   6.450 -1.6289  0.9893  0.2275
  102OSM    C4S10223   4.176   1.393   6.134 -1.0401 -0.0448 -0.1485
  102OSM    H4S10224   4.093   1.324   6.111  0.6923 -1.6404 -2.0487
  102OSM    C5S10225   4.231   1.456   6.031  0.1715  0.4179  0.1409
  102OSM    H5S10226   4.307   1.533   6.051 -1.4148  1.9908  0.4298
  102OSM    C6S10227   4.203   1.425   5.888 -0.4540 -0.9524 -0.3624
  102OSM    H6S10228   4.173   1.516   5.833 -0.4264 -1.2805 -0.9334
  102OSM    H6T10229   4.109   1.365   5.882  0.4612 -2.4146 -0.8312
  102OSM    C7S10230   4.326   1.352   5.835 -0.1797  0.3366 -0.5102
  102OSM    H7S10231   4.363   1.272   5.903 -2.5963  0.0117  0.5323
  102OSM    H7T10232   4.399   1.434   5.824 -3.2778  3.1787 -1.5992
  102OSM    C8S10233   4.295   1.271   5.702 -0.2068  0.6329  0.0465
  102OSM    H8S10234   4.228   1.185   5.720  0.7656  0.0936  1.2278
  102OSM    H8T10235   4.395   1.229   5.677  0.1158  1.2869  0.2156
  102OSM    C9S10236   4.240   1.350   5.582  0.2407  0.0624  0.2543
  102OSM    H9S10237   4.141   1.390   5.613 -0.0699  0.5718 -1.3241
  102OSM    H9T10238   4.234   1.274   5.501 -1.2027  2.1490 -1.7228
  102OSM   C10S10239   4.330   1.465   5.551 -0.1854  0.2134  1.2164
  102OSM   H10S10240   4.430   1.422   5.527  0.0610  2.0968 -1.7118
  102OSM   H10T10241   4.327   1.517   5.649 -0.3700  2.5308  0.0462
  102OSM   C11S10242   4.281   1.562   5.438  0.4706  0.1321  0.3948
  102OSM   H11S10243   4.305   1.667   5.464 -0.1188  0.3191  0.1938
  102OSM   H11T10244   4.173   1.539   5.422  0.7294 -1.0633  0.2864
  102OSM   C12S10245   4.347   1.536   5.306  0.0400  0.1585 -0.0434
  102OSM   H12S10246   4.302   1.458   5.240  0.3635  0.8590 -1.1243
  102OSM   H12T10247   4.457   1.524   5.316  0.5090  3.5342  0.1626
  102OSM   C13S10248   4.339   1.660   5.210 -0.8908  0.4621 -0.2107
  102OSM   H13S10249   4.386   1.747   5.262  0.9830 -1.1999  0.9987
  102OSM   H13T10250   4.231   1.679   5.191 -1.1945  0.1506  1.1143
  102OSM   C14S10251   4.408   1.643   5.078 -0.4701  0.3421  0.0363
  102OSM   H14S10252   4.374   1.547   5.033 -0.8004  0.2094  0.5624
  102OSM   H14T10253   4.519   1.648   5.081 -0.4171  0.1542 -1.0545
  102OSM   C15S10254   4.352   1.755   4.986 -0.7049  0.3279 -0.7736
  102OSM   H15S10255   4.371   1.856   5.026 -1.9110  0.5780 -0.8022
  102OSM   H15T10256   4.242   1.744   4.979 -0.6272 -0.4238 -0.9160
  102OSM   C16S10257   4.397   1.749   4.845 -0.3166  0.5041  0.5553
  102OSM   H16S10258   4.506   1.767   4.837 -0.4056  0.3099 -1.7638
  102OSM   H16T10259   4.356   1.838   4.793  0.6000  0.1083 -0.8904
  102OSM   C17S10260   4.362   1.622   4.760 -0.5632  0.5775 -0.3609
  102OSM   H17S10261   4.426   1.539   4.797 -0.3690  1.5198  1.5174
  102OSM   H17T10262   4.366   1.645   4.651 -1.6905  2.0306 -0.1246
  102OSM   C18S10263   4.213   1.574   4.768 -0.1773 -0.4064  0.1201
  102OSM   H18S10264   4.146   1.643   4.711  0.0864  1.0299  1.4936
  102OSM   H18T10265   4.187   1.572   4.875  1.6027 -1.5224  0.5791
  102OSM   H18U10266   4.196   1.474   4.723 -2.2998 -1.0341  2.1343
  102OSM    C1F10267   4.500   1.161   6.291 -0.0470  0.4616 -0.0256
  102OSM     OF10268   4.465   1.064   6.355  0.0161  0.0801 -0.0952
  102OSM    C2F10269   4.625   1.164   6.213 -0.6124  0.1404 -0.3533
  102OSM    H2F10270   4.706   1.216   6.269  1.0745 -1.9758 -0.6955
  102OSM    H2G10271   4.614   1.214   6.114  3.6914  2.3200 -0.0115
  102OSM    C3F10272   4.697   1.021   6.206 -0.2671  0.0141 -0.2616
  102OSM    H3F10273   4.647   0.941   6.147 -1.9984  0.3282  0.6989
  102OSM    H3G10274   4.714   0.996   6.313 -0.2089  0.1093 -0.2490
  102OSM    C4F10275   4.836   1.036   6.151 -0.9738  1.1283  0.5542
  102OSM    H4F10276   4.894   0.942   6.165 -0.0585  1.5612 -0.1845
  102OSM    H4G10277   4.892   1.111   6.211 -1.2180  0.3928  1.7271
  102OSM    C5F10278   4.839   1.052   6.003 -0.2367 -0.3818 -0.4633
  102OSM    H5F10279   4.766   1.122   5.957 -1.2965  0.5473  2.3630
  102OSM    H5G10280   4.810   0.962   5.945  1.1149 -0.4776 -1.0073
  102OSM    C6F10281   4.984   1.083   5.955 -0.6035  0.7443  0.4643
  102OSM    H6F10282   5.056   1.001   5.977 -0.1742  0.4967 -1.6490
  102OSM    H6G10283   5.017   1.162   6.025 -0.3929  0.4863  0.6612
  102OSM    C7F10284   4.996   1.115   5.805 -0.3077  0.5888 -0.1047
  102OSM    H7F10285   4.911   1.182   5.781  1.0445  1.7148 -1.9927
  102OSM    H7G10286   4.976   1.025   5.742  1.6440  0.9174 -1.3035
  102OSM    C8F10287   5.118   1.194   5.766  0.2632 -0.0485 -0.3793
  102OSM    H8F10288   5.143   1.257   5.854 -0.5369 -0.4973  0.1807
  102OSM    H8G10289   5.097   1.266   5.684 -1.8812  1.4399  1.3697
  102OSM    C9F10290   5.233   1.105   5.734  0.5372  0.6118  0.3131
  102OSM    H9F10291   5.279   1.044   5.814  0.2479  0.8730  0.6865
  102OSM   C10F10292   5.288   1.096   5.615 -0.1377  0.0198  0.6720
  102OSM   H10F10293   5.359   1.015   5.588  0.6206  1.3367 -1.5638
  102OSM   C11F10294   5.267   1.188   5.498  0.6482 -0.3784 -0.5341
  102OSM   H11F10295   5.360   1.217   5.446 -0.2518  0.2654 -1.8483
  102OSM   H11G10296   5.222   1.284   5.532  1.3409 -0.2575  0.0706
  102OSM   C12F10297   5.172   1.142   5.388  0.3726 -0.0415 -0.3877
  102OSM   H12F10298   5.065   1.136   5.414  0.4254  2.0178  0.5109
  102OSM   H12G10299   5.206   1.044   5.350 -1.8762 -1.2654  0.6179
  102OSM   C13F10300   5.186   1.232   5.264 -0.1538 -0.1502 -0.6592
  102OSM   H13F10301   5.290   1.219   5.227 -0.0783 -0.5235 -0.3158
  102OSM   H13G10302   5.168   1.338   5.292 -0.1690  0.1249 -1.6522
  102OSM   C14F10303   5.081   1.195   5.162  0.1382 -0.3903 -0.0362
  102OSM   H14F10304   5.062   1.272   5.085 -2.2889  0.0601  0.9243
  102OSM   H14G10305   4.978   1.202   5.204  0.0477  1.1748 -0.4527
  102OSM   C15F10306   5.094   1.053   5.094  0.5868 -0.7327  0.6744
  102OSM   H15F10307   5.092   0.976   5.175  0.0240  0.7727  2.1450
  102OSM   H15G10308   5.194   1.050   5.046  0.1292 -0.2006 -0.3253
  102OSM   C16F10309   4.993   1.029   4.983 -0.4321 -0.1203  0.0649
  102OSM   H16F10310   5.024   1.079   4.889 -0.3632 -0.8586 -0.3119
  102OSM   H16G10311   4.893   1.065   5.013  0.4964  1.4326  1.5086
  102OSM   C17F10312   4.991   0.878   4.941  0.9218  0.4941 -0.2770
  102OSM   H17F10313   4.929   0.828   5.017 -1.7776 -0.1332 -2.7044
  102OSM   H17G10314   5.091   0.831   4.948  0.3021 -1.0001 -1.1156
  102OSM   C18F10315   4.915   0.852   4.809 -0.5427 -0.0743 -0.1779
  102OSM   H18F10316   4.821   0.912   4.811 -1.7561 -1.8477 -1.3663
  102OSM   H18G10317   4.889   0.744   4.806  1.5750 -0.5999 -1.0607
  102OSM   H18H10318   4.977   0.868   4.719  0.3604 -0.1304  0.4282
  103OSM      N10319   4.923   3.584   6.586 -0.0987  0.5839  0.8572
  103OSM    C1510320   4.902   3.711   6.654  0.2091 -0.7935  0.1073
  103OSM   H15A10321   4.858   3.791   6.595 -1.2386 -0.1648  1.9365
  103OSM   H15B10322   4.983   3.751   6.713  0.8030 -1.7808 -0.0241
  103OSM   H15C10323   4.829   3.701   6.733 -0.4471 -0.6603 -0.4658
  103OSM    C1410324   4.990   3.610   6.451  0.3612 -0.0032 -1.2629
  103OSM   H14A10325   4.930   3.674   6.389  0.3196 -0.3783 -1.6121
  103OSM   H14B10326   5.000   3.521   6.391 -1.6789 -1.7657  0.8201
  103OSM   H14C10327   5.084   3.661   6.466  1.1328 -1.7252  0.0533
  103OSM    C1310328   5.016   3.508   6.673 -1.2834  0.2232 -0.0394
  103OSM   H13A10329   4.995   3.516   6.778  2.4717  1.0954  0.7787
  103OSM   H13B10330   5.114   3.548   6.654 -2.1183  1.9015 -1.0359
  103OSM   H13C10331   5.015   3.401   6.655 -0.3388  0.2534 -0.2945
  103OSM    C1210332   4.790   3.510   6.570  0.6396  0.7920 -0.3077
  103OSM   H12A10333   4.732   3.570   6.502 -1.9575 -1.7229 -0.4778
  103OSM   H12B10334   4.731   3.503   6.660  1.9715 -0.2240  0.5186
  103OSM    C1110335   4.780   3.368   6.498 -0.3841  0.4093  0.1559
  103OSM   H11A10336   4.670   3.350   6.496 -0.3448  0.1736  0.0291
  103OSM   H11B10337   4.818   3.289   6.567 -1.0430  1.1156  1.3752
  103OSM      P10338   4.780   3.416   6.239 -0.2442  0.4330  0.1823
  103OSM    O1310339   4.747   3.300   6.160 -0.1103  0.2468  0.3360
  103OSM    O1410340   4.674   3.516   6.266 -0.2055  0.8027 -0.5243
  103OSM    O1110341   4.902   3.484   6.173  0.3439 -0.6212  0.2137
  103OSM    O1210342   4.851   3.364   6.373 -0.5688  0.0387  0.7608
  103OSM    C1S10343   5.026   3.421   6.134  0.2202 -0.0820  0.3859
  103OSM    H1S10344   5.018   3.321   6.181 -1.8149 -0.0337  0.2580
  103OSM    H1T10345   5.115   3.475   6.170  1.3002 -0.9439 -0.8964
  103OSM     NF10346   5.161   3.354   5.943 -0.5520  0.3999  0.3021
  103OSM    HNF10347   5.223   3.414   5.894 -0.1833  2.2522  2.7945
  103OSM    C2S10348   5.034   3.416   5.977 -1.0285 -0.4372 -0.2045
  103OSM    H2S10349   4.947   3.352   5.951 -0.2873 -2.4592  1.8916
  103OSM    C3S10350   5.012   3.562   5.923 -0.3058  0.2835  0.1672
  103OSM    H3S10351   5.107   3.615   5.949 -0.5557  0.2822  1.1180
  103OSM     O310352   4.906   3.643   5.977  0.3341 -0.3489 -0.2850
  103OSM    HO310353   4.874   3.590   6.050 -0.0327  0.8833  0.4892
  103OSM    C4S10354   5.022   3.564   5.769  0.8373 -0.4517  0.0871
  103OSM    H4S10355   5.123   3.571   5.726 -0.5668  1.0707 -3.3267
  103OSM    C5S10356   4.924   3.546   5.679 -0.5179 -0.0195 -0.1634
  103OSM    H5S10357   4.819   3.531   5.710 -1.0879 -2.2147 -2.7326
  103OSM    C6S10358   4.936   3.549   5.529  1.3427  0.0061 -0.7217
  103OSM    H6S10359   4.910   3.653   5.502 -1.1793  0.5208  2.9035
  103OSM    H6T10360   4.855   3.487   5.485 -0.7230  1.3639  0.9610
  103OSM    C7S10361   5.071   3.503   5.471  0.3459 -0.2372 -0.3681
  103OSM    H7S10362   5.098   3.406   5.517 -2.2311 -0.7893  0.1534
  103OSM    H7T10363   5.137   3.590   5.489  1.0175 -0.2082 -2.6571
  103OSM    C8S10364   5.072   3.489   5.322 -1.2043  0.2056 -0.1852
  103OSM    H8S10365   5.172   3.458   5.285 -1.0054  0.7546 -0.1102
  103OSM    H8T10366   5.051   3.587   5.275  1.1460  1.2486  0.7939
  103OSM    C9S10367   4.984   3.376   5.251 -0.1048  0.6198 -0.5661
  103OSM    H9S10368   4.878   3.410   5.251 -0.5357 -0.5650  1.2676
  103OSM    H9T10369   4.999   3.281   5.307  0.8586  0.5837 -0.8716
  103OSM   C10S10370   5.039   3.356   5.111  0.2897 -0.7131  0.6004
  103OSM   H10S10371   4.996   3.263   5.068  0.2412  0.9868 -3.5168
  103OSM   H10T10372   5.150   3.343   5.108  0.1515 -1.8759 -0.4443
  103OSM   C11S10373   5.014   3.463   5.014 -0.1591 -0.7910  0.3897
  103OSM   H11S10374   5.075   3.554   5.029 -0.9934  0.3139 -2.3000
  103OSM   H11T10375   4.911   3.501   5.033 -0.1759 -1.0494  0.8188
  103OSM   C12S10376   5.025   3.423   4.868  0.4293  0.1891  0.0133
  103OSM   H12S10377   5.003   3.514   4.810  1.7392  1.2035  1.0442
  103OSM   H12T10378   4.962   3.333   4.850  3.4983 -2.0102 -0.4661
  103OSM   C13S10379   5.165   3.381   4.811  0.2541  1.0419 -0.2982
  103OSM   H13S10380   5.182   3.282   4.859 -1.3098  0.7057 -0.3794
  103OSM   H13T10381   5.242   3.452   4.848 -0.2293  0.9106  1.0364
  103OSM   C14S10382   5.168   3.365   4.656 -0.4485 -0.3655 -0.5517
  103OSM   H14S10383   5.108   3.447   4.611 -1.7979 -1.2470 -0.4003
  103OSM   H14T10384   5.114   3.278   4.613 -2.0382  0.9058 -1.2539
  103OSM   C15S10385   5.319   3.375   4.602  0.5260 -0.7027 -0.5302
  103OSM   H15S10386   5.386   3.294   4.638 -0.8562 -1.5888  0.1458
  103OSM   H15T10387   5.365   3.457   4.661 -1.2807 -1.1149  1.5682
  103OSM   C16S10388   5.339   3.396   4.456 -0.6196  0.2163  0.8059
  103OSM   H16S10389   5.258   3.471   4.443 -0.4566  0.4625  1.2015
  103OSM   H16T10390   5.318   3.307   4.393  2.5980  0.5150 -0.8929
  103OSM   C17S10391   5.483   3.461   4.425  0.8068  0.5221 -0.6642
  103OSM   H17S10392   5.559   3.380   4.433 -2.4351 -2.5255  3.2127
  103OSM   H17T10393   5.508   3.536   4.503  2.8185 -0.1208 -0.6217
  103OSM   C18S10394   5.478   3.508   4.271  0.2218 -0.0882 -0.0997
  103OSM   H18S10395   5.569   3.571   4.266 -1.0579  2.1778  2.4300
  103OSM   H18T10396   5.386   3.571   4.267 -0.8283 -1.6348 -1.6730
  103OSM   H18U10397   5.483   3.421   4.202 -1.6377 -0.0355 -0.3486
  103OSM    C1F10398   5.185   3.223   5.973 -0.0694 -0.1348  1.1052
  103OSM     OF10399   5.094   3.150   6.013 -0.1809 -0.3746 -0.3984
  103OSM    C2F10400   5.327   3.187   5.954  0.0686 -0.3469 -0.2767
  103OSM    H2F10401   5.373   3.167   6.053 -1.4476  1.1301  0.7958
  103OSM    H2G10402   5.373   3.277   5.909 -0.5607 -0.0757 -0.3952
  103OSM    C3F10403   5.344   3.058   5.870 -0.5340 -1.1466 -0.2044
  103OSM    H3F10404   5.291   2.985   5.935 -0.6951  0.0062  1.0033
  103OSM    H3G10405   5.455   3.045   5.869 -0.2574 -0.1017  3.1161
  103OSM    C4F10406   5.294   3.079   5.723 -1.0194 -0.3786 -0.1037
  103OSM    H4F10407   5.289   3.186   5.691 -0.8105 -1.7166 -5.5144
  103OSM    H4G10408   5.205   3.015   5.704 -0.8765 -0.4868 -0.4104
  103OSM    C5F10409   5.399   3.010   5.626  0.2327 -0.0818  0.3278
  103OSM    H5F10410   5.422   2.906   5.658  0.2366  0.6537  2.9526
  103OSM    H5G10411   5.485   3.078   5.607 -0.1825 -0.3173 -3.0799
  103OSM    C6F10412   5.340   2.994   5.481  0.0944  0.0331 -0.6786
  103OSM    H6F10413   5.297   3.090   5.447  0.3441  1.4824  2.6390
  103OSM    H6G10414   5.250   2.932   5.500  1.4861 -1.4465  1.6309
  103OSM    C7F10415   5.432   2.922   5.384 -0.2337  0.0810  0.1072
  103OSM    H7F10416   5.471   2.828   5.429 -0.0363  1.0295  1.9663
  103OSM    H7G10417   5.517   2.991   5.365 -2.1309  2.3963 -0.4321
  103OSM    C8F10418   5.358   2.888   5.247 -0.0785 -0.0436  0.2876
  103OSM    H8F10419   5.270   2.824   5.273  1.0954 -1.3343  1.2436
  103OSM    H8G10420   5.423   2.823   5.185 -1.0617 -1.6014  0.8366
  103OSM    C9F10421   5.322   3.017   5.176 -0.0102  1.1788  0.6627
  103OSM    H9F10422   5.381   3.104   5.209 -0.2878  0.8076  2.2170
  103OSM   C10F10423   5.220   3.031   5.084  0.5337 -0.1224 -0.6988
  103OSM   H10F10424   5.194   3.126   5.035 -2.3606  0.0548  0.9388
  103OSM   C11F10425   5.131   2.927   5.027  0.2752 -0.4291  0.0811
  103OSM   H11F10426   5.039   2.913   5.087  0.2090 -2.5053 -0.4238
  103OSM   H11G10427   5.183   2.828   5.027 -1.1586 -1.2376 -1.8590
  103OSM   C12F10428   5.078   2.951   4.887  0.2677  0.0243  1.0472
  103OSM   H12F10429   5.018   3.044   4.885 -0.8494 -0.6061 -2.4694
  103OSM   H12G10430   5.001   2.873   4.869  1.2114 -0.2887 -2.3664
  103OSM   C13F10431   5.169   2.933   4.760 -0.2764 -0.1004  0.2123
  103OSM   H13F10432   5.218   2.833   4.754 -1.9587 -0.9268 -0.4707
  103OSM   H13G10433   5.253   3.006   4.754  1.1834 -1.8230 -1.6591
  103OSM   C14F10434   5.090   2.951   4.629 -0.2131 -0.3541 -0.9890
  103OSM   H14F10435   5.037   3.049   4.629  0.3863 -0.0158  0.0406
  103OSM   H14G10436   5.008   2.876   4.626  1.6943 -2.5588 -1.1885
  103OSM   C15F10437   5.159   2.923   4.497 -0.4071  0.7734  0.6767
  103OSM   H15F10438   5.245   2.990   4.478  1.4797 -1.3727  1.2001
  103OSM   H15G10439   5.085   2.928   4.414 -0.8036 -0.6539  0.9273
  103OSM   C16F10440   5.221   2.787   4.494 -0.4197  0.0093  0.0274
  103OSM   H16F10441   5.160   2.712   4.549  3.9706 -2.4399  2.1734
  103OSM   H16G10442   5.304   2.798   4.568  0.0724  1.6064 -0.7062
  103OSM   C17F10443   5.275   2.731   4.363 -0.0156  0.1122  0.0432
  103OSM   H17F10444   5.335   2.639   4.374 -1.4374 -0.6623  2.0871
  103OSM   H17G10445   5.335   2.815   4.323 -0.0553  0.4785  0.7329
  103OSM   C18F10446   5.160   2.689   4.274 -0.0113  0.0532 -0.2537
  103OSM   H18F10447   5.116   2.603   4.328  2.6808 -2.3748 -1.6170
  103OSM   H18G10448   5.197   2.633   4.185 -0.2515 -1.1854  0.4033
  103OSM   H18H10449   5.089   2.772   4.256 -0.4759 -0.3396 -0.2664
  104OSM      N10450   5.849   3.382   6.059  0.0064  0.5176 -0.3335
  104OSM    C1510451   5.772   3.488   5.979 -0.3885  0.8706  0.4143
  104OSM   H15A10452   5.747   3.571   6.044 -1.5638 -0.4772  1.7803
  104OSM   H15B10453   5.674   3.446   5.963 -0.4668  1.9270 -2.4204
  104OSM   H15C10454   5.817   3.519   5.886  0.1412 -2.1360 -0.4222
  104OSM    C1410455   5.985   3.428   6.092 -0.1471  0.6757  0.0131
  104OSM   H14A10456   5.988   3.506   6.167  2.9336  1.3386 -0.6727
  104OSM   H14B10457   6.038   3.473   6.010  0.1416 -2.7233 -1.8544
  104OSM   H14C10458   6.047   3.344   6.120 -1.5218 -0.5770 -0.5420
  104OSM    C1310459   5.772   3.371   6.194  0.2655 -0.2062  0.4264
  104OSM   H13A10460   5.839   3.304   6.246  2.3434  0.2879 -1.4219
  104OSM   H13B10461   5.681   3.318   6.171  0.3953 -1.8473  3.2134
  104OSM   H13C10462   5.762   3.458   6.256  0.7444 -0.9113  1.5190
  104OSM    C1210463   5.854   3.245   5.984 -0.4087 -1.1855 -0.3345
  104OSM   H12A10464   5.890   3.167   6.049 -0.9373 -1.9406 -0.9408
  104OSM   H12B10465   5.917   3.245   5.896  1.5279 -2.8768  0.9396
  104OSM    C1110466   5.713   3.197   5.943 -0.5754  0.0134  0.1952
  104OSM   H11A10467   5.742   3.117   5.873  1.7388  0.9272  0.0443
  104OSM   H11B10468   5.661   3.276   5.885  2.3816  1.1541 -1.0861
  104OSM      P10469   5.641   3.004   6.112 -0.5554  0.8630 -0.3990
  104OSM    O1310470   5.675   3.014   6.252  0.1044  0.5135  0.0237
  104OSM    O1410471   5.518   2.932   6.077 -0.1145  0.1338  0.1378
  104OSM    O1110472   5.767   2.942   6.039  0.3426  0.1795  0.3223
  104OSM    O1210473   5.633   3.153   6.056  0.1009 -0.0024 -0.4043
  104OSM    C1S10474   5.756   2.851   5.929  0.0087 -0.9754 -0.3796
  104OSM    H1S10475   5.735   2.914   5.840 -0.0509 -0.1826  0.1771
  104OSM    H1T10476   5.673   2.777   5.936  1.6187 -3.0400 -2.0047
  104OSM     NF10477   5.844   2.684   5.780 -0.3022 -0.5281 -0.9371
  104OSM    HNF10478   5.780   2.609   5.796 -0.5112  0.1504  1.8231
  104OSM    C2S10479   5.880   2.760   5.895  0.2474  0.4020 -0.1741
  104OSM    H2S10480   5.955   2.832   5.859 -0.5038  0.5020 -1.6103
  104OSM    C3S10481   5.932   2.683   6.023 -0.0987  0.3783 -0.0089
  104OSM    H3S10482   5.843   2.622   6.049  0.0332  0.4048  0.5215
  104OSM     O310483   5.956   2.759   6.139  0.0244 -0.1768  0.5269
  104OSM    HO310484   5.912   2.839   6.110  0.8304  0.1140  0.0642
  104OSM    C4S10485   6.045   2.582   6.004  0.1539 -0.2800 -0.0619
  104OSM    H4S10486   6.010   2.488   5.958 -1.1865 -0.6411  1.6024
  104OSM    C5S10487   6.174   2.620   6.012  0.5118 -0.1109  0.4274
  104OSM    H5S10488   6.197   2.725   6.034  3.8041 -0.7685  0.5843
  104OSM    C6S10489   6.282   2.537   5.958  0.5692 -0.5834  0.3271
  104OSM    H6S10490   6.253   2.430   5.961 -2.4078  0.1253  0.1871
  104OSM    H6T10491   6.375   2.544   6.018  1.4544  1.7886 -1.1919
  104OSM    C7S10492   6.323   2.581   5.813 -0.1882  0.3001 -0.1242
  104OSM    H7S10493   6.237   2.569   5.744  1.3773  0.8553 -2.2720
  104OSM    H7T10494   6.401   2.510   5.778 -0.4696 -1.1057  1.9370
  104OSM    C8S10495   6.383   2.722   5.786  1.1187 -0.1296  0.0203
  104OSM    H8S10496   6.465   2.732   5.862  0.0975 -0.7008  1.2335
  104OSM    H8T10497   6.301   2.792   5.813  2.1513  1.8588 -1.6656
  104OSM    C9S10498   6.433   2.754   5.650  0.4485 -0.8403  0.6656
  104OSM    H9S10499   6.494   2.665   5.624  1.5500 -1.0996  3.6653
  104OSM    H9T10500   6.502   2.841   5.660 -0.3592 -0.3939  3.3831
  104OSM   C10S10501   6.313   2.782   5.555 -0.6909  0.6362  0.6858
  104OSM   H10S10502   6.291   2.889   5.578 -3.7448  0.2783 -0.1342
  104OSM   H10T10503   6.225   2.720   5.580 -1.1789  1.2610  0.5418
  104OSM   C11S10504   6.343   2.775   5.403 -0.7430  0.7902 -0.0540
  104OSM   H11S10505   6.402   2.684   5.380  0.1911  1.4791 -0.4534
  104OSM   H11T10506   6.407   2.860   5.369  1.8353 -0.6823  0.8235
  104OSM   C12S10507   6.220   2.766   5.314 -0.1809  0.0095  0.8267
  104OSM   H12S10508   6.151   2.853   5.322  1.1544  1.2991 -0.8234
  104OSM   H12T10509   6.160   2.675   5.334  0.2732 -0.4504  0.1584
  104OSM   C13S10510   6.266   2.764   5.166 -0.2750  0.0611  0.0138
  104OSM   H13S10511   6.348   2.689   5.167  1.1173  1.5204 -0.4033
  104OSM   H13T10512   6.329   2.854   5.149 -0.7037  0.0351 -1.9210
  104OSM   C14S10513   6.160   2.728   5.057  0.1303 -0.0108 -0.2400
  104OSM   H14S10514   6.069   2.778   5.096  0.1354  0.6463 -1.0366
  104OSM   H14T10515   6.153   2.618   5.058  2.8438 -0.2635  1.6380
  104OSM   C15S10516   6.186   2.783   4.914 -0.4612  0.3718  1.0361
  104OSM   H15S10517   6.285   2.742   4.883 -0.1228  2.0155 -0.1639
  104OSM   H15T10518   6.179   2.893   4.909 -2.3155  0.3070  1.4435
  104OSM   C16S10519   6.104   2.715   4.803 -0.2334  0.6461  0.4385
  104OSM   H16S10520   6.003   2.713   4.849 -0.5263  0.6461 -0.1935
  104OSM   H16T10521   6.124   2.606   4.797  2.5915  1.0165  1.8292
  104OSM   C17S10522   6.107   2.789   4.670  0.3287  0.4844 -0.1187
  104OSM   H17S10523   6.214   2.799   4.643  0.4450  0.3108  0.2637
  104OSM   H17T10524   6.066   2.892   4.667 -2.7469 -0.6334 -1.2170
  104OSM   C18S10525   6.034   2.718   4.560 -0.2080 -0.5257 -0.5597
  104OSM   H18S10526   6.064   2.613   4.542  1.2158  0.3945 -4.3797
  104OSM   H18T10527   6.046   2.773   4.464  1.6960  1.2526  0.6218
  104OSM   H18U10528   5.924   2.716   4.576 -0.5332  0.1623 -2.4049
  104OSM    C1F10529   5.830   2.742   5.661 -0.0719 -0.2132  0.1299
  104OSM     OF10530   5.883   2.846   5.639  0.0092 -0.0170 -0.0475
  104OSM    C2F10531   5.731   2.688   5.560 -0.4512 -0.4449  0.4015
  104OSM    H2F10532   5.654   2.767   5.542 -0.5845 -0.8050 -0.6687
  104OSM    H2G10533   5.687   2.594   5.598 -0.8423 -0.0055  1.0416
  104OSM    C3F10534   5.796   2.652   5.420  0.0034 -0.2934 -0.4125
  104OSM    H3F10535   5.873   2.575   5.443  0.4688  0.4753  0.6841
  104OSM    H3G10536   5.838   2.749   5.386 -0.0927 -0.6920 -1.7327
  104OSM    C4F10537   5.685   2.613   5.318 -0.4740 -0.1270  0.7182
  104OSM    H4F10538   5.629   2.707   5.299 -0.0339  0.6749  3.0860
  104OSM    H4G10539   5.623   2.534   5.364  0.8910 -1.1701  0.8317
  104OSM    C5F10540   5.743   2.559   5.183  0.9006 -0.2025 -0.2989
  104OSM    H5F10541   5.795   2.460   5.191 -0.9394 -1.2625 -0.9058
  104OSM    H5G10542   5.817   2.632   5.144  1.5904  0.2913  1.8313
  104OSM    C6F10543   5.627   2.531   5.089  0.5916 -0.1410 -0.3552
  104OSM    H6F10544   5.551   2.612   5.087  0.4363 -0.3024 -1.8873
  104OSM    H6G10545   5.571   2.451   5.142  1.1055  2.0621  3.9669
  104OSM    C7F10546   5.678   2.492   4.946 -0.3356 -0.6397 -0.3485
  104OSM    H7F10547   5.635   2.400   4.901 -0.1290 -0.3110 -1.2422
  104OSM    H7G10548   5.786   2.469   4.954 -0.5259 -0.9782  1.9779
  104OSM    C8F10549   5.650   2.596   4.839  0.0639 -0.3128  0.4294
  104OSM    H8F10550   5.697   2.693   4.866  0.1074  0.2984 -1.6293
  104OSM    H8G10551   5.541   2.612   4.846  0.2338  1.3387 -0.2484
  104OSM    C9F10552   5.690   2.572   4.697 -0.6850 -0.1796  0.5125
  104OSM    H9F10553   5.786   2.606   4.655 -1.2373 -0.4873 -1.0548
  104OSM   C10F10554   5.627   2.494   4.605 -0.2796 -0.0367 -0.0835
  104OSM   H10F10555   5.665   2.479   4.504  0.3373 -0.9453  0.2739
  104OSM   C11F10556   5.496   2.427   4.638  0.9385  0.6942  0.0420
  104OSM   H11F10557   5.417   2.481   4.581  2.1500  2.5169 -0.0170
  104OSM   H11G10558   5.475   2.428   4.747 -0.2570 -2.2328 -0.0686
  104OSM   C12F10559   5.486   2.281   4.599  0.0456  0.0396 -0.4937
  104OSM   H12F10560   5.393   2.239   4.643  0.8301 -0.8513  0.3565
  104OSM   H12G10561   5.569   2.223   4.645 -0.9054 -2.1145 -1.3427
  104OSM   C13F10562   5.481   2.269   4.449 -0.2711  0.3309  0.1645
  104OSM   H13F10563   5.513   2.165   4.426  0.9832  0.4929  1.0391
  104OSM   H13G10564   5.561   2.330   4.401 -0.6497  1.1524  0.5633
  104OSM   C14F10565   5.341   2.296   4.394  0.1304 -0.2125  0.1667
  104OSM   H14F10566   5.317   2.404   4.396 -3.2575 -0.8564  0.0030
  104OSM   H14G10567   5.287   2.237   4.471 -0.4881  0.5046  0.2852
  104OSM   C15F10568   5.320   2.245   4.249 -0.0280 -0.4318  0.2041
  104OSM   H15F10569   5.219   2.282   4.221  0.3079  0.5348  0.2457
  104OSM   H15G10570   5.327   2.134   4.244 -1.6484 -0.6039  1.0503
  104OSM   C16F10571   5.413   2.320   4.150 -0.0165  0.5627 -0.1179
  104OSM   H16F10572   5.519   2.291   4.169  0.4217 -1.4869 -4.4036
  104OSM   H16G10573   5.392   2.428   4.165 -0.7946  0.6497 -1.6442
  104OSM   C17F10574   5.388   2.282   4.004 -0.1014  0.5613 -0.6321
  104OSM   H17F10575   5.283   2.287   3.968 -0.3672 -1.3129 -0.2120
  104OSM   H17G10576   5.422   2.177   3.995 -2.1976 -0.3078  0.8418
  104OSM   C18F10577   5.480   2.357   3.905  0.3981  0.9145 -0.0059
  104OSM   H18F10578   5.584   2.363   3.942  0.5124 -1.3392  0.1889
  104OSM   H18G10579   5.447   2.463   3.902  1.7183  1.4550  2.1060
  104OSM   H18H10580   5.470   2.311   3.805 -2.8461  3.9203 -1.2987
  105OSM      N10581   6.277   1.943   6.371  0.3620 -0.2176  0.1895
  105OSM    C1510582   6.184   2.027   6.428 -0.5387  0.2640 -0.5141
  105OSM   H15A10583   6.205   2.052   6.531 -1.7460 -0.6328 -0.0383
  105OSM   H15B10584   6.081   1.998   6.424 -0.3014 -0.6154 -0.3308
  105OSM   H15C10585   6.190   2.118   6.370 -0.1930  1.2261  0.9780
  105OSM    C1410586   6.411   2.003   6.384 -0.1606 -0.3628 -0.5247
  105OSM   H14A10587   6.486   1.947   6.330  0.4450  0.6312 -0.7362
  105OSM   H14B10588   6.438   2.019   6.487 -0.4204  2.2013 -0.7863
  105OSM   H14C10589   6.408   2.098   6.333  2.5058 -1.8329 -3.8370
  105OSM    C1310590   6.286   1.808   6.449 -0.4242 -0.7710  0.1348
  105OSM   H13A10591   6.184   1.774   6.448 -0.8365  0.4195  0.0625
  105OSM   H13B10592   6.310   1.809   6.555 -1.4295  1.0822  0.3841
  105OSM   H13C10593   6.345   1.741   6.388  1.9305  1.2512  0.0313
  105OSM    C1210594   6.238   1.906   6.230  0.3556  0.2222  0.1717
  105OSM   H12A10595   6.145   1.852   6.229 -1.5216  3.2076  0.3967
  105OSM   H12B10596   6.309   1.833   6.194  0.0478 -0.0061  0.0253
  105OSM    C1110597   6.215   2.025   6.132  0.2814  0.5540 -0.5115
  105OSM   H11A10598   6.223   1.989   6.027 -0.4281  2.7964 -1.3839
  105OSM   H11B10599   6.291   2.105   6.140  0.5591  0.3417 -0.9427
  105OSM      P10600   6.043   2.224   6.150 -0.2804 -0.1036  0.2715
  105OSM    O1310601   5.899   2.237   6.173  0.3505  0.9361 -0.2359
  105OSM    O1410602   6.134   2.305   6.236  0.2347 -0.2759  0.4059
  105OSM    O1110603   6.070   2.242   5.996  0.4165  0.3233 -0.4762
  105OSM    O1210604   6.082   2.071   6.162  0.1278  0.3391 -0.2483
  105OSM    C1S10605   5.979   2.183   5.900  0.1534 -0.0656  0.6857
  105OSM    H1S10606   5.875   2.210   5.928 -0.7067 -1.5691 -0.8533
  105OSM    H1T10607   5.993   2.073   5.904  0.7490 -0.0941 -1.3668
  105OSM     NF10608   5.891   2.170   5.667 -0.0984  0.2361 -0.2836
  105OSM    HNF10609   5.886   2.072   5.648  1.9276 -0.2061  1.0578
  105OSM    C2S10610   6.003   2.219   5.751 -0.7047 -0.4441  0.2829
  105OSM    H2S10611   6.010   2.329   5.737 -0.9643 -0.6570 -1.8321
  105OSM    C3S10612   6.142   2.165   5.718  0.3430 -0.4399  0.8105
  105OSM    H3S10613   6.133   2.055   5.731 -1.1225 -0.4552 -0.1384
  105OSM     O310614   6.245   2.204   5.798 -0.5433 -0.0582 -0.0747
  105OSM    HO310615   6.196   2.248   5.869  0.9617  0.6604  0.5593
  105OSM    C4S10616   6.180   2.196   5.573 -0.4188 -0.5120  0.3145
  105OSM    H4S10617   6.135   2.125   5.502 -1.4433 -0.8220  1.2466
  105OSM    C5S10618   6.239   2.302   5.521 -0.3072 -0.0004 -0.3918
  105OSM    H5S10619   6.275   2.387   5.580  0.5739 -0.0058 -0.8890
  105OSM    C6S10620   6.260   2.327   5.376  0.1880 -0.8913  0.5260
  105OSM    H6S10621   6.364   2.304   5.345  0.0989  0.0362 -0.5663
  105OSM    H6T10622   6.238   2.435   5.357  0.2879 -0.6148  1.9298
  105OSM    C7S10623   6.162   2.245   5.293  0.0615  0.3773  0.0442
  105OSM    H7S10624   6.063   2.237   5.343  1.0090 -3.0007  1.6257
  105OSM    H7T10625   6.190   2.138   5.299 -0.0539  0.4229  2.1478
  105OSM    C8S10626   6.162   2.287   5.133 -0.5399 -0.1842 -0.0314
  105OSM    H8S10627   6.265   2.261   5.100 -0.1876 -1.0020  1.5991
  105OSM    H8T10628   6.137   2.392   5.106 -2.3421 -0.6290 -0.1628
  105OSM    C9S10629   6.073   2.179   5.065 -0.2693  0.1472 -0.0200
  105OSM    H9S10630   5.966   2.208   5.070 -0.5314 -0.5930 -1.1029
  105OSM    H9T10631   6.099   2.086   5.119 -0.5358  0.6190  0.9376
  105OSM   C10S10632   6.105   2.168   4.909  0.3284 -0.7938  0.0626
  105OSM   H10S10633   6.195   2.109   4.881  2.4089  2.8094 -1.6001
  105OSM   H10T10634   6.135   2.265   4.863 -0.0515  0.3784  2.1926
  105OSM   C11S10635   5.982   2.115   4.835 -0.7116 -0.1505 -0.4748
  105OSM   H11S10636   5.896   2.182   4.853  0.7758  1.3149  1.6941
  105OSM   H11T10637   5.956   2.012   4.866  0.8608 -0.5867 -0.4890
  105OSM   C12S10638   6.003   2.125   4.680  0.7886 -0.4902 -0.9304
  105OSM   H12S10639   6.086   2.067   4.635 -0.3304 -0.6427 -2.9275
  105OSM   H12T10640   6.013   2.234   4.660 -1.0522  0.2602  1.6418
  105OSM   C13S10641   5.874   2.084   4.603 -0.4323  0.0669  0.1112
  105OSM   H13S10642   5.792   2.153   4.629 -1.6465 -0.8810 -1.0548
  105OSM   H13T10643   5.844   1.984   4.642 -0.0100  0.6743  2.1443
  105OSM   C14S10644   5.886   2.084   4.446 -0.1813  0.5247 -0.0694
  105OSM   H14S10645   5.990   2.059   4.416 -0.0432  1.4776 -0.4213
  105OSM   H14T10646   5.874   2.188   4.410  1.2566  0.8863  0.4216
  105OSM   C15S10647   5.791   2.008   4.359 -0.0398  0.6842  0.1572
  105OSM   H15S10648   5.691   2.050   4.383  0.5012  2.1084  0.0230
  105OSM   H15T10649   5.783   1.901   4.390  0.4607  0.1641 -1.4089
  105OSM   C16S10650   5.816   2.025   4.203 -0.4354 -1.0097 -0.1047
  105OSM   H16S10651   5.922   2.002   4.179 -0.4611  1.0527 -2.6071
  105OSM   H16T10652   5.802   2.134   4.185  0.3927 -0.4155  2.4494
  105OSM   C17S10653   5.728   1.941   4.112 -0.4647  1.1424  0.1625
  105OSM   H17S10654   5.738   1.833   4.137 -2.8498  0.9617  0.5651
  105OSM   H17T10655   5.755   1.948   4.004 -1.2522 -1.1502 -0.2551
  105OSM   C18S10656   5.585   1.959   4.126  0.0208  0.2739  0.3525
  105OSM   H18S10657   5.559   2.064   4.098 -0.1514 -0.0268 -0.6621
  105OSM   H18T10658   5.552   1.947   4.231 -0.3830 -0.9299  0.0994
  105OSM   H18U10659   5.527   1.887   4.065 -0.4249  0.0548  1.0263
  105OSM    C1F10660   5.778   2.236   5.681  0.4516  0.0122 -0.3623
  105OSM     OF10661   5.785   2.351   5.729  0.7054  0.4471 -0.2114
  105OSM    C2F10662   5.653   2.163   5.655 -0.3416 -0.0654 -0.7004
  105OSM    H2F10663   5.594   2.166   5.749  0.9704  1.2751  0.1166
  105OSM    H2G10664   5.662   2.056   5.628 -1.0311 -0.2200 -0.3419
  105OSM    C3F10665   5.560   2.247   5.558 -0.3377  0.2199 -0.1996
  105OSM    H3F10666   5.546   2.351   5.596 -3.5517 -1.3237  3.5649
  105OSM    H3G10667   5.458   2.207   5.575 -0.7433  1.9164  1.7208
  105OSM    C4F10668   5.615   2.248   5.409 -0.0280 -0.0733 -0.5031
  105OSM    H4F10669   5.713   2.299   5.414 -0.4309  1.0685 -2.9429
  105OSM    H4G10670   5.540   2.312   5.358 -0.6016 -0.9723 -0.8216
  105OSM    C5F10671   5.630   2.104   5.357  0.4947  0.4551 -0.7851
  105OSM    H5F10672   5.542   2.049   5.398  1.2759 -0.1189  0.1504
  105OSM    H5G10673   5.725   2.059   5.392 -0.4839 -0.7638  0.3994
  105OSM    C6F10674   5.630   2.091   5.203  0.1374  0.3534  0.5037
  105OSM    H6F10675   5.676   1.999   5.161  0.6908  0.3780  1.0404
  105OSM    H6G10676   5.700   2.171   5.173  0.7624  1.4207  4.2695
  105OSM    C7F10677   5.495   2.102   5.137 -0.1067  0.2336 -0.8484
  105OSM    H7F10678   5.451   2.204   5.148  2.9621  1.8001 -2.0787
  105OSM    H7G10679   5.425   2.027   5.179 -0.7577  0.0605 -2.1823
  105OSM    C8F10680   5.500   2.067   4.987  0.0076 -0.0531  0.3619
  105OSM    H8F10681   5.573   1.983   4.982 -0.1084 -0.1606  0.4786
  105OSM    H8G10682   5.527   2.153   4.923  0.0169 -1.9687 -2.3960
  105OSM    C9F10683   5.362   2.023   4.925  0.1355 -0.1798 -0.3460
  105OSM    H9F10684   5.268   2.062   4.966 -0.1017 -0.9925 -0.1120
  105OSM   C10F10685   5.358   1.927   4.832  0.6630  0.5264  0.4670
  105OSM   H10F10686   5.262   1.899   4.787  1.2265  0.1418 -0.5308
  105OSM   C11F10687   5.471   1.857   4.760 -0.1128  0.1392 -0.0356
  105OSM   H11F10688   5.480   1.751   4.792  0.1731  0.4926  1.1124
  105OSM   H11G10689   5.575   1.887   4.788 -0.3765  0.7129  0.3469
  105OSM   C12F10690   5.453   1.888   4.606  0.7262 -0.2155  0.7059
  105OSM   H12F10691   5.546   1.850   4.560  1.3597  0.1730  1.6173
  105OSM   H12G10692   5.449   1.996   4.579  0.6362 -0.4824 -0.3561
  105OSM   C13F10693   5.335   1.816   4.533  0.4046 -0.1443  0.3737
  105OSM   H13F10694   5.242   1.823   4.593  1.6327  1.6086  2.1967
  105OSM   H13G10695   5.363   1.708   4.532 -3.2527 -1.2322  0.9469
  105OSM   C14F10696   5.322   1.869   4.388 -0.6679  0.2236 -0.2404
  105OSM   H14F10697   5.391   1.822   4.316 -0.6572  1.1801 -0.8767
  105OSM   H14G10698   5.330   1.980   4.395  1.5763  0.0435  0.7446
  105OSM   C15F10699   5.184   1.849   4.328 -0.1577 -0.3151 -0.1748
  105OSM   H15F10700   5.188   1.892   4.225  1.0311 -1.1705 -0.5132
  105OSM   H15G10701   5.107   1.897   4.392 -0.2095 -2.7985  1.7870
  105OSM   C16F10702   5.125   1.705   4.316 -0.2570 -0.3721  0.3390
  105OSM   H16F10703   5.128   1.672   4.422 -0.5754 -0.7555  0.2309
  105OSM   H16G10704   5.200   1.639   4.267 -0.2414  0.4715 -0.8025
  105OSM   C17F10705   4.983   1.705   4.246 -0.2199  0.8900  0.2646
  105OSM   H17F10706   4.988   1.781   4.165  1.6614  1.9969  1.3259
  105OSM   H17G10707   4.900   1.740   4.311 -2.8784 -0.5781 -2.1035
  105OSM   C18F10708   4.938   1.569   4.193 -0.1295 -0.4380  0.8597
  105OSM   H18F10709   4.949   1.487   4.268 -1.1172 -2.5513 -1.1670
  105OSM   H18G10710   4.984   1.539   4.096  0.3461 -0.3369  1.0514
  105OSM   H18H10711   4.828   1.577   4.175  0.3418  2.0610 -1.4108
  106OSM      N10712   4.157   0.778   6.857  0.0209  0.3858  0.0440
  106OSM    C1510713   4.152   0.813   6.714  0.0867 -0.6792  0.2033
  106OSM   H15A10714   4.217   0.895   6.690  1.6129 -1.7238  0.6716
  106OSM   H15B10715   4.048   0.836   6.693 -0.1648 -1.8361  0.1202
  106OSM   H15C10716   4.167   0.735   6.641  0.4927 -0.3427 -0.0721
  106OSM    C1410717   4.265   0.684   6.891 -0.2477 -0.2555 -0.1941
  106OSM   H14A10718   4.247   0.654   6.993  0.3372  0.0821  0.0119
  106OSM   H14B10719   4.360   0.732   6.876 -0.9600  1.4030  0.3392
  106OSM   H14C10720   4.252   0.595   6.832 -2.9818  1.0777 -1.8588
  106OSM    C1310721   4.172   0.901   6.940 -0.1656  0.0343  0.3888
  106OSM   H13A10722   4.266   0.950   6.921 -0.9528  0.6958 -2.2341
  106OSM   H13B10723   4.163   0.874   7.044 -3.3735 -2.9999 -0.4635
  106OSM   H13C10724   4.100   0.974   6.905  0.4711  0.0678 -0.9153
  106OSM    C1210725   4.024   0.719   6.898 -0.4021 -0.0408 -0.6166
  106OSM   H12A10726   4.030   0.701   7.005 -3.1388 -0.1976 -0.4120
  106OSM   H12B10727   4.013   0.621   6.856 -0.2956 -0.3939  0.1533
  106OSM    C1110728   3.889   0.785   6.866  0.4458  0.4192  0.6297
  106OSM   H11A10729   3.883   0.890   6.905 -2.4281  1.3291 -1.9130
  106OSM   H11B10730   3.811   0.740   6.931  1.5432  0.5753  2.1105
  106OSM      P10731   3.793   0.668   6.660  0.1364 -0.1302 -0.0094
  106OSM    O1310732   3.885   0.554   6.646  0.0624  0.3836  0.0209
  106OSM    O1410733   3.652   0.651   6.717  0.3540  0.2341 -0.1977
  106OSM    O1110734   3.769   0.720   6.516 -0.1570  0.2835  0.5026
  106OSM    O1210735   3.866   0.789   6.725  0.0040 -0.5411 -0.6609
  106OSM    C1S10736   3.869   0.764   6.431 -0.0623 -0.5870  0.4355
  106OSM    H1S10737   3.921   0.675   6.389 -1.8631 -1.3002 -0.3957
  106OSM    H1T10738   3.935   0.838   6.481 -2.3342  1.5671  0.4397
  106OSM     NF10739   3.948   0.919   6.243 -0.0244 -0.0421 -0.4424
  106OSM    HNF10740   3.941   1.019   6.246 -0.9844 -0.1197  0.1424
  106OSM    C2S10741   3.831   0.841   6.298 -0.6644 -0.9780  1.0750
  106OSM    H2S10742   3.805   0.765   6.221 -1.0232  0.1704  0.0240
  106OSM    C3S10743   3.706   0.919   6.319 -0.0711  0.3773  0.1409
  106OSM    H3S10744   3.723   0.984   6.407  1.3433  2.2011 -1.3921
  106OSM     O310745   3.596   0.841   6.359  0.4680 -0.3356 -0.0363
  106OSM    HO310746   3.634   0.778   6.422 -2.6307 -0.4691  1.9065
  106OSM    C4S10747   3.682   1.011   6.197 -0.0302 -0.4158 -0.0566
  106OSM    H4S10748   3.733   1.108   6.202 -1.9988  0.6024  3.0976
  106OSM    C5S10749   3.605   0.991   6.091  0.4031 -0.2644 -0.1100
  106OSM    H5S10750   3.548   0.897   6.080  2.3395 -1.5578  0.4638
  106OSM    C6S10751   3.583   1.084   5.972  0.0834  0.0477 -0.4761
  106OSM    H6S10752   3.582   1.189   6.008  0.0123  0.3852 -1.4370
  106OSM    H6T10753   3.491   1.065   5.914 -0.3258  0.3917  0.0513
  106OSM    C7S10754   3.692   1.073   5.858  0.3504 -0.5457 -0.5177
  106OSM    H7S10755   3.673   1.149   5.778 -2.4026 -0.6778 -0.0869
  106OSM    H7T10756   3.679   0.975   5.809  4.3275 -1.0332 -0.8944
  106OSM    C8S10757   3.840   1.089   5.899 -0.0760 -1.0436 -0.4992
  106OSM    H8S10758   3.851   1.004   5.969 -3.0808 -0.0866  1.3352
  106OSM    H8T10759   3.851   1.178   5.965 -0.2945 -0.4758 -1.2108
  106OSM    C9S10760   3.939   1.097   5.785 -0.2815 -0.3839 -0.2605
  106OSM    H9S10761   4.027   1.127   5.846  0.9108 -0.2895 -1.9537
  106OSM    H9T10762   3.914   1.186   5.722  1.2797 -0.6476 -1.3050
  106OSM   C10S10763   3.951   0.964   5.706 -0.1224 -0.3635 -0.6810
  106OSM   H10S10764   3.853   0.934   5.663 -1.1321  2.0068 -0.1658
  106OSM   H10T10765   3.984   0.888   5.780 -1.6905  1.5233  2.0936
  106OSM   C11S10766   4.051   0.951   5.583  0.5333  0.8309  0.0719
  106OSM   H11S10767   4.155   0.981   5.608  1.4741 -1.8760 -0.3054
  106OSM   H11T10768   4.016   1.008   5.495  0.0058 -1.9191 -1.6007
  106OSM   C12S10769   4.061   0.811   5.529  0.1760 -0.0912 -0.3151
  106OSM   H12S10770   3.967   0.781   5.477 -1.7332  2.7182  1.2329
  106OSM   H12T10771   4.078   0.737   5.610 -0.1155 -1.2599 -1.2939
  106OSM   C13S10772   4.182   0.801   5.433  0.1866 -0.4216 -0.2247
  106OSM   H13S10773   4.279   0.807   5.485  1.2673 -3.3015 -1.6874
  106OSM   H13T10774   4.167   0.878   5.354 -0.8238  0.7388  1.0506
  106OSM   C14S10775   4.178   0.678   5.335  0.3772  0.2072 -0.2395
  106OSM   H14S10776   4.270   0.676   5.272  0.1046  2.9997 -0.8896
  106OSM   H14T10777   4.098   0.684   5.258 -0.3503 -1.1614  0.3931
  106OSM   C15S10778   4.161   0.549   5.410  0.2385 -0.3137 -0.7539
  106OSM   H15S10779   4.070   0.549   5.474  1.7743 -1.5639  1.5800
  106OSM   H15T10780   4.242   0.544   5.487 -1.6165  1.1993  1.4148
  106OSM   C16S10781   4.180   0.415   5.338 -0.6853 -0.4202 -0.0547
  106OSM   H16S10782   4.175   0.334   5.414 -0.9749 -2.4666 -2.1304
  106OSM   H16T10783   4.288   0.411   5.313 -0.4777 -0.7268  0.8512
  106OSM   C17S10784   4.093   0.384   5.215  0.1521 -0.2120  0.3654
  106OSM   H17S10785   4.088   0.476   5.154  2.1306 -0.9872 -1.0641
  106OSM   H17T10786   3.997   0.364   5.267 -0.7605 -1.3475 -1.6458
  106OSM   C18S10787   4.144   0.261   5.137  0.0925  0.1584 -0.0220
  106OSM   H18S10788   4.175   0.175   5.201 -1.3413  0.1913  0.7643
  106OSM   H18T10789   4.230   0.286   5.071 -1.1921 -1.7803 -2.6183
  106OSM   H18U10790   4.060   0.221   5.077  0.8511 -1.1195 -0.2856
  106OSM    C1F10791   4.067   0.876   6.210 -0.9421  0.3038 -0.3504
  106OSM     OF10792   4.090   0.755   6.199 -0.3526 -0.4016  0.2132
  106OSM    C2F10793   4.168   0.986   6.174 -0.4724 -0.1089 -1.1150
  106OSM    H2F10794   4.211   1.018   6.271  1.5640 -0.6074 -1.8181
  106OSM    H2G10795   4.111   1.070   6.128  0.2668  0.5737 -0.8120
  106OSM    C3F10796   4.290   0.930   6.095 -0.8562 -0.1909  0.1714
  106OSM    H3F10797   4.355   0.873   6.165 -0.3084  0.2870  0.0668
  106OSM    H3G10798   4.360   1.013   6.070 -0.7690 -0.0747  0.7808
  106OSM    C4F10799   4.261   0.865   5.965  0.9071  0.3327 -0.4854
  106OSM    H4F10800   4.215   0.933   5.890 -0.6362 -0.2910 -0.1538
  106OSM    H4G10801   4.186   0.788   5.991 -0.5227  2.4136  2.0029
  106OSM    C5F10802   4.389   0.811   5.894  0.6389 -0.3657 -0.7976
  106OSM    H5F10803   4.413   0.716   5.946  2.7165  0.1692 -0.6948
  106OSM    H5G10804   4.468   0.888   5.909 -0.0900  0.2022  0.2730
  106OSM    C6F10805   4.373   0.798   5.738  0.0801  0.4300 -0.4885
  106OSM    H6F10806   4.354   0.904   5.710  1.6810  0.8051 -0.2696
  106OSM    H6G10807   4.285   0.736   5.711 -0.4093  0.2250  1.4214
  106OSM    C7F10808   4.494   0.749   5.664  0.3626  0.3821  1.1953
  106OSM    H7F10809   4.473   0.767   5.557 -0.9769  0.6290  1.4915
  106OSM    H7G10810   4.513   0.640   5.673 -1.4741 -0.7982 -4.6935
  106OSM    C8F10811   4.624   0.818   5.704 -0.2340 -0.7861  0.5246
  106OSM    H8F10812   4.710   0.763   5.659  1.0122  1.1953  0.3450
  106OSM    H8G10813   4.642   0.813   5.814  1.5631  0.3134  0.3147
  106OSM    C9F10814   4.649   0.955   5.659 -0.9230  0.2218 -0.5975
  106OSM    H9F10815   4.593   1.034   5.711  1.5011  1.9411 -0.3754
  106OSM   C10F10816   4.742   1.009   5.573  0.6176  0.6068 -0.6248
  106OSM   H10F10817   4.722   1.116   5.556  0.6881  0.8894  0.8944
  106OSM   C11F10818   4.850   0.932   5.496  0.0558  0.0363  0.1566
  106OSM   H11F10819   4.838   0.825   5.522  1.2050 -0.1669 -0.1206
  106OSM   H11G10820   4.956   0.953   5.522 -0.0303 -0.5664  1.0296
  106OSM   C12F10821   4.829   0.938   5.345 -0.0382  0.0982  0.1327
  106OSM   H12F10822   4.913   0.893   5.288  1.0207  2.2693 -0.1309
  106OSM   H12G10823   4.830   1.046   5.316  0.3914  0.1304  0.2643
  106OSM   C13F10824   4.691   0.872   5.302  0.8474  0.2235 -0.1477
  106OSM   H13F10825   4.615   0.948   5.331  0.9942  0.4414 -0.3266
  106OSM   H13G10826   4.668   0.783   5.365 -2.2648 -0.2206 -1.7388
  106OSM   C14F10827   4.678   0.836   5.154  0.1607 -0.0620 -0.3463
  106OSM   H14F10828   4.770   0.777   5.131 -1.3112 -2.7594  0.3057
  106OSM   H14G10829   4.686   0.931   5.097  2.9401  1.8006  2.7332
  106OSM   C15F10830   4.552   0.758   5.113  0.5186 -0.9462  0.6147
  106OSM   H15F10831   4.472   0.834   5.123  1.4345  0.2565 -0.7422
  106OSM   H15G10832   4.528   0.676   5.184 -0.6285  0.3326  1.7707
  106OSM   C16F10833   4.571   0.701   4.975  0.1149 -0.1720 -0.3022
  106OSM   H16F10834   4.665   0.643   4.971  0.3823  0.2451 -0.2140
  106OSM   H16G10835   4.587   0.784   4.903 -0.2477  0.0149 -0.1713
  106OSM   C17F10836   4.451   0.620   4.929  0.3799 -0.4847 -0.5153
  106OSM   H17F10837   4.368   0.678   4.973  1.3292 -0.1103  0.8368
  106OSM   H17G10838   4.457   0.514   4.960  1.5898 -0.4218 -0.4718
  106OSM   C18F10839   4.430   0.634   4.778 -0.2441 -0.4335  0.7412
  106OSM   H18F10840   4.521   0.590   4.732  1.0271  2.1817  0.5249
  106OSM   H18G10841   4.419   0.742   4.755  1.1565 -0.2891  0.6661
  106OSM   H18H10842   4.355   0.561   4.741  0.9400 -2.1212  1.5654
  107OSM      N10843   5.419   6.235   6.254 -0.2847 -0.4048 -0.3139
  107OSM    C1510844   5.339   6.146   6.155  0.4164 -0.5724 -0.0734
  107OSM   H15A10845   5.402   6.069   6.112  2.3800 -0.1873  1.9555
  107OSM   H15B10846   5.294   6.206   6.077  1.0774  0.3808  0.2585
  107OSM   H15C10847   5.254   6.104   6.206 -0.9427  0.2216 -1.5807
  107OSM    C1410848   5.529   6.309   6.185  0.2867  0.1288  0.4400
  107OSM   H14A10849   5.600   6.240   6.141 -0.3336 -0.2017 -0.0621
  107OSM   H14B10850   5.582   6.376   6.251 -0.1835  1.0327 -0.0703
  107OSM   H14C10851   5.495   6.371   6.103 -0.7267  0.8267  1.3571
  107OSM    C1310852   5.332   6.330   6.328 -0.3435  0.0424 -0.3370
  107OSM   H13A10853   5.269   6.375   6.253 -2.4374  0.7006  1.6851
  107OSM   H13B10854   5.376   6.403   6.395 -0.4673 -1.9443  2.0934
  107OSM   H13C10855   5.257   6.281   6.389 -0.2455 -0.1488 -0.3692
  107OSM    C1210856   5.479   6.138   6.355 -0.4448  1.4350 -0.1440
  107OSM   H12A10857   5.402   6.080   6.404  0.7024 -0.0961 -0.0962
  107OSM   H12B10858   5.536   6.197   6.425  1.8659 -0.2048 -0.5445
  107OSM    C1110859   5.568   6.033   6.300 -0.2166  0.2855  0.9628
  107OSM   H11A10860   5.650   6.070   6.234 -1.1870 -0.9970 -1.0608
  107OSM   H11B10861   5.512   5.972   6.227  0.6378  1.1123 -0.4408
  107OSM      P10862   5.743   5.976   6.508 -0.4585 -0.0869  0.0738
  107OSM    O1310863   5.732   6.119   6.559  0.2548 -0.1763  0.2292
  107OSM    O1410864   5.740   5.867   6.607 -0.0964 -0.3510  0.4739
  107OSM    O1110865   5.878   5.957   6.421 -0.5468  0.1513 -0.6856
  107OSM    O1210866   5.621   5.944   6.408  0.6061  0.4702 -0.1249
  107OSM    C1S10867   5.880   5.846   6.333 -0.2858 -0.6762 -0.3828
  107OSM    H1S10868   5.791   5.779   6.337 -2.0983  1.4082 -2.7746
  107OSM    H1T10869   5.962   5.776   6.360  0.0527 -0.7318 -1.5254
  107OSM     NF10870   5.908   5.779   6.096 -0.7999  0.1746 -0.3009
  107OSM    HNF10871   5.983   5.716   6.082 -0.4651  0.0977  1.5613
  107OSM    C2S10872   5.927   5.892   6.192  0.1776  0.5886  0.5821
  107OSM    H2S10873   5.845   5.961   6.163 -0.5527 -1.0756 -1.6303
  107OSM    C3S10874   6.066   5.965   6.194 -0.2768 -0.4790 -0.4416
  107OSM    H3S10875   6.133   5.886   6.234 -1.7700 -1.3230  0.4982
  107OSM     O310876   6.101   6.066   6.287  0.2374 -0.3163 -0.2622
  107OSM    HO310877   6.026   6.070   6.347 -0.6471  0.1983 -1.3602
  107OSM    C4S10878   6.121   6.005   6.058 -0.5315 -0.1644  1.1837
  107OSM    H4S10879   6.062   6.071   5.993  0.0008 -0.6183  0.2241
  107OSM    C5S10880   6.240   5.960   6.012 -0.0590  0.7743 -0.1942
  107OSM    H5S10881   6.299   5.895   6.078  2.4486  1.7298 -1.3373
  107OSM    C6S10882   6.302   5.980   5.877 -0.0297  0.5736  0.6019
  107OSM    H6S10883   6.407   5.946   5.869 -0.3691 -0.0254 -3.9143
  107OSM    H6T10884   6.317   6.090   5.865 -1.1471  0.7453  0.6480
  107OSM    C7S10885   6.211   5.921   5.767 -0.0919 -0.4568 -0.3655
  107OSM    H7S10886   6.109   5.962   5.780  0.7219  1.0074  2.2673
  107OSM    H7T10887   6.207   5.811   5.779  2.7116 -0.7249 -1.0634
  107OSM    C8S10888   6.260   5.957   5.627 -0.7437  0.0932  0.0407
  107OSM    H8S10889   6.363   5.916   5.615  0.1492  1.8894  1.0191
  107OSM    H8T10890   6.273   6.064   5.600  1.3989 -0.2157 -0.4182
  107OSM    C9S10891   6.171   5.895   5.517  0.5885  0.0024  0.2491
  107OSM    H9S10892   6.072   5.936   5.547  1.4315  0.0479  3.2559
  107OSM    H9T10893   6.170   5.784   5.524 -1.8127 -0.1345 -0.9291
  107OSM   C10S10894   6.195   5.953   5.373  0.6021 -0.0758  1.0528
  107OSM   H10S10895   6.289   5.911   5.331 -0.5086  0.7163 -2.6192
  107OSM   H10T10896   6.214   6.062   5.364  1.2674 -0.3350 -1.6516
  107OSM   C11S10897   6.083   5.933   5.271 -0.2552  0.4820  0.2233
  107OSM   H11S10898   5.994   5.999   5.280 -0.8481  0.2412 -2.6734
  107OSM   H11T10899   6.047   5.830   5.290 -0.3526  0.5651  0.4826
  107OSM   C12S10900   6.122   5.929   5.124 -0.7546 -0.4301 -0.4680
  107OSM   H12S10901   6.202   5.852   5.116  1.5019  1.8018 -0.6717
  107OSM   H12T10902   6.169   6.025   5.093 -1.6908  0.4916  0.8803
  107OSM   C13S10903   6.000   5.895   5.046 -0.3342 -0.1690 -0.5517
  107OSM   H13S10904   5.911   5.961   5.054 -0.8452 -0.8505 -0.4960
  107OSM   H13T10905   5.959   5.794   5.070 -0.8996  0.2625  0.3443
  107OSM   C14S10906   6.039   5.913   4.897  0.3956  0.2105  0.3213
  107OSM   H14S10907   6.128   5.853   4.871  0.8683  0.3219  1.6005
  107OSM   H14T10908   6.069   6.018   4.880 -3.4989  1.2879 -1.1875
  107OSM   C15S10909   5.922   5.900   4.798 -0.3379  0.0743  0.3134
  107OSM   H15S10910   5.846   5.974   4.831  0.3371  0.1033  1.9184
  107OSM   H15T10911   5.880   5.797   4.802  0.8893 -0.4492  0.1579
  107OSM   C16S10912   5.979   5.925   4.655 -0.2719 -0.5930  0.1654
  107OSM   H16S10913   6.059   5.851   4.631 -2.1522 -2.0328 -2.2502
  107OSM   H16T10914   6.017   6.029   4.654 -2.3612  0.2585  1.5603
  107OSM   C17S10915   5.867   5.910   4.544 -0.1292 -0.4543 -0.4532
  107OSM   H17S10916   5.782   5.978   4.570 -0.8139 -0.5501 -2.3288
  107OSM   H17T10917   5.838   5.804   4.563  0.2222 -0.4127  0.3907
  107OSM   C18S10918   5.918   5.936   4.397  0.4033  0.5639 -0.4547
  107OSM   H18S10919   5.938   6.045   4.385  0.2389  0.9296  1.9002
  107OSM   H18T10920   5.838   5.912   4.324  0.0657  1.2634 -0.3268
  107OSM   H18U10921   6.014   5.883   4.382  0.2679  0.1091  0.2314
  107OSM    C1F10922   5.788   5.732   6.061 -0.4775 -0.7241  0.7216
  107OSM     OF10923   5.686   5.786   6.094  0.4370  0.4621 -0.4349
  107OSM    C2F10924   5.782   5.606   5.977  0.5804 -0.0670  0.6648
  107OSM    H2F10925   5.760   5.528   6.054 -1.3684 -0.8666 -0.6279
  107OSM    H2G10926   5.886   5.579   5.946  1.1689 -1.6733  3.5848
  107OSM    C3F10927   5.664   5.577   5.881  0.9974  0.3839  0.7652
  107OSM    H3F10928   5.571   5.567   5.942 -2.7398  2.1320 -4.0341
  107OSM    H3G10929   5.675   5.472   5.847 -3.8702 -0.3534  0.7445
  107OSM    C4F10930   5.639   5.689   5.777  0.7989  0.1400  0.2502
  107OSM    H4F10931   5.565   5.767   5.806 -0.0229 -0.4697 -0.1605
  107OSM    H4G10932   5.592   5.630   5.695 -2.4899  1.2838  1.1522
  107OSM    C5F10933   5.768   5.745   5.709  0.8021 -0.0661 -0.2440
  107OSM    H5F10934   5.835   5.661   5.680  0.1299 -0.4626 -0.6627
  107OSM    H5G10935   5.828   5.791   5.790  0.4207  1.4837 -0.8187
  107OSM    C6F10936   5.743   5.838   5.590 -0.2493  0.0077  0.5008
  107OSM    H6F10937   5.844   5.881   5.572  0.0241 -0.5898  0.5652
  107OSM    H6G10938   5.674   5.921   5.616 -1.3027 -1.1431  1.5129
  107OSM    C7F10939   5.697   5.774   5.463 -0.2626 -0.0904  0.9913
  107OSM    H7F10940   5.607   5.714   5.488  0.3234 -1.5723 -0.3083
  107OSM    H7G10941   5.779   5.703   5.438  1.2211  1.9403 -0.1733
  107OSM    C8F10942   5.675   5.857   5.335  0.1873  0.4510 -0.5951
  107OSM    H8F10943   5.649   5.776   5.263  0.9565 -0.6123  0.2906
  107OSM    H8G10944   5.772   5.900   5.302  1.1425  0.7652  2.3405
  107OSM    C9F10945   5.562   5.957   5.353  0.3184  0.8214  0.5538
  107OSM    H9F10946   5.551   6.013   5.447 -0.0765  2.8609 -0.6522
  107OSM   C10F10947   5.482   6.012   5.253 -0.3265  0.5495  0.1978
  107OSM   H10F10948   5.408   6.090   5.276 -2.7678 -1.8732  0.9767
  107OSM   C11F10949   5.462   5.967   5.110  0.2145 -0.2923 -0.3715
  107OSM   H11F10950   5.452   5.857   5.107  0.5412 -0.3120 -0.7526
  107OSM   H11G10951   5.550   5.995   5.049 -0.2298 -0.2697 -1.0154
  107OSM   C12F10952   5.347   6.033   5.039 -0.2356  0.0754 -0.1715
  107OSM   H12F10953   5.361   6.143   5.030 -0.1950  0.0926  0.1075
  107OSM   H12G10954   5.249   6.020   5.089 -1.0293  0.4736 -1.5531
  107OSM   C13F10955   5.328   5.990   4.895  0.7369 -0.3722  0.6319
  107OSM   H13F10956   5.308   5.881   4.896 -2.6455  0.1337 -0.8278
  107OSM   H13G10957   5.421   6.010   4.838 -0.1165  1.2460 -0.2574
  107OSM   C14F10958   5.207   6.056   4.829  0.1115 -0.2261 -0.3256
  107OSM   H14F10959   5.191   6.160   4.864 -2.6980  0.4693 -3.1813
  107OSM   H14G10960   5.119   5.994   4.861  0.1085 -0.6488 -1.1390
  107OSM   C15F10961   5.208   6.052   4.678 -0.0905  0.4035 -0.3949
  107OSM   H15F10962   5.103   6.052   4.643  0.6032 -1.3021 -2.7336
  107OSM   H15G10963   5.236   5.949   4.645  0.2525 -0.3530  2.0482
  107OSM   C16F10964   5.284   6.163   4.601  0.2048  0.0401  0.7145
  107OSM   H16F10965   5.388   6.134   4.574 -0.1203  0.2963 -0.9033
  107OSM   H16G10966   5.279   6.255   4.662 -2.9160 -0.9238  2.1021
  107OSM   C17F10967   5.207   6.186   4.469  0.3551  0.3123  0.0079
  107OSM   H17F10968   5.099   6.196   4.492 -0.0443 -2.3940 -0.3019
  107OSM   H17G10969   5.213   6.090   4.414  0.3082 -1.6011  3.1075
  107OSM   C18F10970   5.245   6.306   4.375  0.6378  0.4061 -0.5978
  107OSM   H18F10971   5.352   6.302   4.345  0.5672 -0.4689 -0.7698
  107OSM   H18G10972   5.217   6.403   4.421 -2.2128 -0.7763  0.4215
  107OSM   H18H10973   5.175   6.299   4.289  2.0393  0.6819 -1.7932
  108OSM      N10974   6.059   5.226   6.773 -0.3980 -0.0283 -0.4438
  108OSM    C1510975   5.989   5.355   6.806  0.0020 -0.3692 -0.2314
  108OSM   H15A10976   5.985   5.425   6.723 -2.0581 -0.0340  0.0979
  108OSM   H15B10977   6.042   5.401   6.888  0.2674 -1.7840  0.4137
  108OSM   H15C10978   5.887   5.342   6.840 -0.5959  1.4662 -1.1864
  108OSM    C1410979   6.026   5.116   6.871 -0.4434  0.1644  0.2097
  108OSM   H14A10980   5.925   5.081   6.854 -0.4936  0.7196 -0.7378
  108OSM   H14B10981   6.058   5.146   6.969  1.1591 -2.6248  0.6452
  108OSM   H14C10982   6.074   5.021   6.851  0.3435  0.6507 -0.3001
  108OSM    C1310983   6.008   5.169   6.638  0.3980 -0.0404 -0.1211
  108OSM   H13A10984   6.033   5.241   6.561 -1.5805 -0.3654 -1.1519
  108OSM   H13B10985   5.903   5.143   6.638  0.6405 -1.0518 -0.4882
  108OSM   H13C10986   6.059   5.078   6.612 -0.6652 -0.2133 -1.7762
  108OSM    C1210987   6.206   5.253   6.767 -0.3427  1.2456  0.5343
  108OSM   H12A10988   6.253   5.167   6.723 -1.9582  1.6686 -2.2490
  108OSM   H12B10989   6.238   5.264   6.870  0.9216 -3.6667  0.9109
  108OSM    C1110990   6.260   5.368   6.681 -0.2460  1.1963 -0.0283
  108OSM   H11A10991   6.370   5.363   6.669 -0.2322  1.1026  0.1307
  108OSM   H11B10992   6.239   5.451   6.751  1.4461  1.8503 -0.2742
  108OSM      P10993   6.173   5.532   6.488 -0.0664  0.2521  0.4238
  108OSM    O1310994   6.033   5.567   6.506  0.3317 -0.1267 -0.2310
  108OSM    O1410995   6.277   5.626   6.534  0.2644  0.1692  0.4081
  108OSM    O1110996   6.210   5.517   6.335  0.3971  0.7140 -0.5025
  108OSM    O1210997   6.196   5.388   6.552 -0.5775 -0.4410 -0.0736
  108OSM    C1S10998   6.342   5.505   6.277  0.5888 -0.1003 -0.0553
  108OSM    H1S10999   6.401   5.446   6.350 -0.8658 -0.9179  0.4919
  108OSM    H1T11000   6.388   5.603   6.251 -0.1544 -0.4417 -3.1003
  108OSM     NF11001   6.476   5.411   6.099 -0.2850  0.0783  0.5549
  108OSM    HNF11002   6.507   5.454   6.015 -1.1550 -0.7388 -0.2141
  108OSM    C2S11003   6.340   5.441   6.138  0.0004 -0.3313  0.2887
  108OSM    H2S11004   6.280   5.348   6.147 -1.1726  0.4033  0.2729
  108OSM    C3S11005   6.263   5.530   6.037 -0.1680 -0.1363  0.3670
  108OSM    H3S11006   6.308   5.631   6.028  0.9563 -0.4002  2.3868
  108OSM     O311007   6.131   5.554   6.084 -1.2078 -0.4700  0.6115
  108OSM    HO311008   6.146   5.538   6.178  0.2273  0.2898  0.5349
  108OSM    C4S11009   6.261   5.467   5.901 -0.6723  0.0403  0.2421
  108OSM    H4S11010   6.311   5.522   5.820  3.8824 -1.6277  1.5875
  108OSM    C5S11011   6.216   5.341   5.875 -0.3672 -0.4355  0.4027
  108OSM    H5S11012   6.164   5.281   5.950 -2.1154 -0.4353 -0.7471
  108OSM    C6S11013   6.203   5.292   5.734  0.5665 -0.1270  0.1938
  108OSM    H6S11014   6.103   5.246   5.726 -0.0152  1.2774 -1.2161
  108OSM    H6T11015   6.281   5.222   5.697 -1.0346 -0.5923 -2.6145
  108OSM    C7S11016   6.209   5.395   5.623  0.3440  0.5558  0.4160
  108OSM    H7S11017   6.310   5.443   5.624  1.3634 -1.4639  0.6383
  108OSM    H7T11018   6.130   5.470   5.644  0.7085  1.2374 -0.5632
  108OSM    C8S11019   6.203   5.316   5.488  0.1195 -0.2730 -0.1466
  108OSM    H8S11020   6.119   5.243   5.487 -0.6057  0.5142  0.8226
  108OSM    H8T11021   6.289   5.245   5.487  0.2381 -0.1256 -0.5398
  108OSM    C9S11022   6.209   5.388   5.350 -0.0455 -0.3011 -0.4180
  108OSM    H9S11023   6.192   5.304   5.278  0.5977 -2.1424  1.4850
  108OSM    H9T11024   6.301   5.444   5.323 -0.4098  0.1970 -0.6411
  108OSM   C10S11025   6.092   5.490   5.332 -0.0206  0.4619  0.1309
  108OSM   H10S11026   6.095   5.564   5.414  1.0367 -0.0276  0.5550
  108OSM   H10T11027   5.995   5.436   5.330  0.2753 -0.0612 -0.9752
  108OSM   C11S11028   6.102   5.558   5.191  0.8131 -0.9698 -0.9053
  108OSM   H11S11029   6.199   5.611   5.196 -0.0655  0.5371  1.2288
  108OSM   H11T11030   6.015   5.623   5.170 -0.0975 -1.2541  1.6873
  108OSM   C12S11031   6.123   5.460   5.075  0.4451  0.0602  0.0649
  108OSM   H12S11032   6.034   5.397   5.094 -1.7139  2.0592 -2.5791
  108OSM   H12T11033   6.223   5.412   5.076  1.6921  2.4216 -1.2036
  108OSM   C13S11034   6.114   5.522   4.936  0.1470 -0.1373  0.2020
  108OSM   H13S11035   6.184   5.608   4.929 -0.2670  0.2144  0.3357
  108OSM   H13T11036   6.012   5.565   4.934  0.5261  0.7518 -1.7957
  108OSM   C14S11037   6.134   5.427   4.814 -0.5814 -0.8077 -0.5009
  108OSM   H14S11038   6.043   5.364   4.814  0.7356 -2.8574  1.6700
  108OSM   H14T11039   6.215   5.357   4.844 -0.9227 -0.7171  0.6591
  108OSM   C15S11040   6.161   5.486   4.674  0.0704 -0.0748 -0.4507
  108OSM   H15S11041   6.202   5.589   4.679  1.0345 -0.5059  1.9210
  108OSM   H15T11042   6.070   5.501   4.612 -1.5406 -1.7005  1.4161
  108OSM   C16S11043   6.255   5.406   4.590 -0.5459 -0.4105 -0.1092
  108OSM   H16S11044   6.216   5.302   4.586 -0.6664 -0.3399 -2.7184
  108OSM   H16T11045   6.353   5.402   4.641 -1.1070  2.7484  1.4798
  108OSM   C17S11046   6.280   5.462   4.449 -0.3499 -0.3362 -0.2171
  108OSM   H17S11047   6.337   5.557   4.445  2.1573 -1.7729 -1.1404
  108OSM   H17T11048   6.179   5.482   4.408  0.0876 -1.5411 -2.0425
  108OSM   C18S11049   6.334   5.355   4.354 -0.4824 -0.4293 -0.7116
  108OSM   H18S11050   6.343   5.402   4.253 -2.6718  2.6614  0.3946
  108OSM   H18T11051   6.263   5.271   4.338 -2.4653  1.3112 -1.5494
  108OSM   H18U11052   6.428   5.301   4.379 -0.9737 -1.0394 -0.1464
  108OSM    C1F11053   6.556   5.326   6.162  0.1802 -0.3444 -0.4597
  108OSM     OF11054   6.513   5.252   6.247  0.2726  0.2788 -0.1494
  108OSM    C2F11055   6.697   5.319   6.108 -0.4727  0.7679  0.2175
  108OSM    H2F11056   6.747   5.415   6.082  1.6562 -0.0942  0.8683
  108OSM    H2G11057   6.691   5.268   6.009  3.0446  0.8310 -0.1561
  108OSM    C3F11058   6.800   5.235   6.193  0.1177  0.7756  0.1708
  108OSM    H3F11059   6.757   5.134   6.208  1.2837  0.5232  2.2517
  108OSM    H3G11060   6.805   5.267   6.300  0.7398 -4.1620  1.8633
  108OSM    C4F11061   6.936   5.224   6.126 -0.2741  0.5011  0.1170
  108OSM    H4F11062   7.000   5.167   6.197 -0.7180 -0.0575  0.0775
  108OSM    H4G11063   6.988   5.321   6.114 -1.4539  1.3982  1.8089
  108OSM    C5F11064   6.934   5.146   5.983 -0.5732 -0.1754 -0.1580
  108OSM    H5F11065   6.876   5.206   5.910 -2.4395 -0.0934  1.3209
  108OSM    H5G11066   6.882   5.050   6.004 -0.9660 -0.0681 -0.6308
  108OSM    C6F11067   7.075   5.123   5.937  0.0151  0.1278  0.0347
  108OSM    H6F11068   7.140   5.064   6.006 -0.9161  0.8673  1.5754
  108OSM    H6G11069   7.126   5.221   5.931  1.0410 -0.3709  0.3152
  108OSM    C7F11070   7.079   5.059   5.794  0.5619  0.0112 -0.2603
  108OSM    H7F11071   7.002   5.106   5.729 -0.0845  1.4413  1.4514
  108OSM    H7G11072   7.076   4.949   5.808  1.5917  0.0181  0.0977
  108OSM    C8F11073   7.214   5.104   5.729  0.1710 -0.2431  0.1786
  108OSM    H8F11074   7.301   5.083   5.795  0.2905 -0.4065 -0.0326
  108OSM    H8G11075   7.210   5.214   5.719  2.4184  0.1339  2.3924
  108OSM    C9F11076   7.229   5.034   5.599 -0.7896 -1.0453 -0.6832
  108OSM    H9F11077   7.249   4.926   5.608 -1.2659 -1.0212  1.0713
  108OSM   C10F11078   7.236   5.086   5.473  0.3231  0.0999 -0.2079
  108OSM   H10F11079   7.256   5.015   5.391 -0.5896  1.3084 -1.5241
  108OSM   C11F11080   7.221   5.229   5.427  0.3259  0.0298  0.5009
  108OSM   H11F11081   7.260   5.305   5.499 -1.2983  2.1385 -0.7395
  108OSM   H11G11082   7.113   5.245   5.406  0.1009 -0.5629  1.1421
  108OSM   C12F11083   7.280   5.272   5.284  0.5439 -0.2598  0.2938
  108OSM   H12F11084   7.248   5.375   5.256 -1.0936 -0.0573  2.6427
  108OSM   H12G11085   7.230   5.199   5.217 -0.5351 -0.2408  1.0480
  108OSM   C13F11086   7.434   5.263   5.282 -0.0728  0.4102 -0.2916
  108OSM   H13F11087   7.467   5.157   5.281  0.4524  0.4653 -3.9304
  108OSM   H13G11088   7.481   5.319   5.366  2.4806 -0.7994 -0.7932
  108OSM   C14F11089   7.489   5.312   5.147  0.5949  0.0715  1.0495
  108OSM   H14F11090   7.599   5.332   5.152  0.4006  2.2648 -1.4972
  108OSM   H14G11091   7.438   5.405   5.116  1.7622  0.5632  0.5407
  108OSM   C15F11092   7.475   5.216   5.021 -0.9654  0.2440 -0.7363
  108OSM   H15F11093   7.366   5.194   5.026 -1.2194  1.4888  3.8959
  108OSM   H15G11094   7.530   5.120   5.029  0.7896  0.9777 -2.9580
  108OSM   C16F11095   7.516   5.287   4.894 -0.3785 -0.1691 -0.2256
  108OSM   H16F11096   7.627   5.291   4.894 -0.3637 -0.4802  0.1116
  108OSM   H16G11097   7.466   5.386   4.890  1.6071  0.8631 -0.4306
  108OSM   C17F11098   7.488   5.192   4.769  0.1146 -0.1712 -0.8095
  108OSM   H17F11099   7.516   5.088   4.797 -0.7555  0.5413  3.6004
  108OSM   H17G11100   7.560   5.231   4.695  1.0753 -1.3275 -0.5312
  108OSM   C18F11101   7.346   5.202   4.709 -0.2533  0.6156 -0.2917
  108OSM   H18F11102   7.348   5.139   4.617  1.3278 -2.2298  1.5604
  108OSM   H18G11103   7.318   5.308   4.687 -1.7058  1.0521  3.1454
  108OSM   H18H11104   7.270   5.149   4.770 -0.1821  1.4195  0.5085
  109OSM      N11105   3.535   1.223   6.888 -0.0394 -0.6135 -0.3100
  109OSM    C1511106   3.404   1.275   6.943  0.7352  0.0833  0.6631
  109OSM   H15A11107   3.417   1.300   7.048  0.4787 -1.0520  0.9758
  109OSM   H15B11108   3.335   1.194   6.925  1.7392 -0.4411 -1.0552
  109OSM   H15C11109   3.367   1.357   6.884  1.1937 -0.0800  0.1361
  109OSM    C1411110   3.635   1.335   6.898 -0.3119  0.5727  0.9824
  109OSM   H14A11111   3.738   1.308   6.881 -0.1493  0.7935  1.5703
  109OSM   H14B11112   3.639   1.366   7.002  0.2927 -1.6099  1.6793
  109OSM   H14C11113   3.595   1.415   6.837  0.1795 -0.1232 -0.2833
  109OSM    C1311114   3.563   1.103   6.977 -0.2258  0.0817 -0.0148
  109OSM   H13A11115   3.583   1.137   7.078  0.8138  0.9985 -0.5060
  109OSM   H13B11116   3.642   1.041   6.938 -0.6063 -0.1032 -0.4986
  109OSM   H13C11117   3.481   1.033   6.980  0.9964 -1.4548 -1.1423
  109OSM    C1211118   3.521   1.167   6.744  0.0487  0.3837  0.2487
  109OSM   H12A11119   3.449   1.088   6.727 -1.0331  0.7076  2.8752
  109OSM   H12B11120   3.617   1.123   6.723 -0.5723 -0.5835 -0.7037
  109OSM    C1111121   3.498   1.268   6.631  0.5589 -1.0453  0.3536
  109OSM   H11A11122   3.507   1.211   6.536  0.4216 -2.0339  0.9295
  109OSM   H11B11123   3.586   1.335   6.618 -0.0222 -0.7905 -3.6274
  109OSM      P11124   3.363   1.494   6.653  0.0075  0.2972 -0.2119
  109OSM    O1311125   3.253   1.534   6.742 -0.3843 -0.0973 -0.2569
  109OSM    O1411126   3.497   1.553   6.672 -0.1622 -0.4698 -0.6432
  109OSM    O1111127   3.315   1.524   6.502  0.1650 -0.5143 -0.3333
  109OSM    O1211128   3.374   1.336   6.645  0.5497 -0.5237  0.7766
  109OSM    C1S11129   3.405   1.564   6.403 -0.0537  0.4280 -0.5146
  109OSM    H1S11130   3.499   1.505   6.399 -0.0663  0.2930  0.7498
  109OSM    H1T11131   3.451   1.664   6.420  2.1338 -0.4136 -1.1175
  109OSM     NF11132   3.434   1.589   6.158  0.1893  0.4740  0.0353
  109OSM    HNF11133   3.421   1.663   6.093 -0.4346 -1.9649 -2.8475
  109OSM    C2S11134   3.337   1.574   6.267  0.2729  0.5649 -0.3570
  109OSM    H2S11135   3.285   1.476   6.260 -1.8030  1.5307  0.5537
  109OSM    C3S11136   3.227   1.676   6.263 -0.8305  0.6039 -0.8163
  109OSM    H3S11137   3.277   1.775   6.267  0.5010 -0.0581 -0.4044
  109OSM     O311138   3.138   1.679   6.382 -0.1291 -0.1424 -0.4730
  109OSM    HO311139   3.187   1.637   6.453 -3.2104 -2.6754  0.3706
  109OSM    C4S11140   3.143   1.675   6.135  0.1475  0.4576 -0.4583
  109OSM    H4S11141   3.191   1.730   6.052  2.5642 -1.8782 -0.7811
  109OSM    C5S11142   3.025   1.621   6.107  0.8775  0.5565  0.1559
  109OSM    H5S11143   2.988   1.552   6.184  1.6683 -1.4841 -1.2295
  109OSM    C6S11144   2.947   1.633   5.983 -0.6855  0.1356 -0.0456
  109OSM    H6S11145   2.858   1.691   6.014 -2.9693 -1.8216 -2.4815
  109OSM    H6T11146   2.914   1.532   5.950 -0.7049 -0.0654  0.5890
  109OSM    C7S11147   3.008   1.708   5.867 -0.4512 -0.1988  0.7803
  109OSM    H7S11148   3.113   1.674   5.853 -0.7649 -0.4751 -1.0915
  109OSM    H7T11149   3.002   1.819   5.878 -1.9319 -0.2056  0.1950
  109OSM    C8S11150   2.945   1.673   5.731  1.2383 -0.6317 -0.1796
  109OSM    H8S11151   2.841   1.713   5.735  0.4314 -2.6654  0.7435
  109OSM    H8T11152   2.939   1.562   5.728  1.5448 -0.6347 -1.5590
  109OSM    C9S11153   3.008   1.726   5.604 -0.5170  0.2318 -0.3633
  109OSM    H9S11154   3.112   1.686   5.601 -1.6657 -3.4438  1.5697
  109OSM    H9T11155   3.004   1.837   5.611 -1.1141  0.1169  1.9111
  109OSM   C10S11156   2.935   1.669   5.479 -0.6376  0.4284  1.0884
  109OSM   H10S11157   2.827   1.688   5.496 -0.5661  2.0725 -0.0875
  109OSM   H10T11158   2.962   1.561   5.470 -1.8015  0.0379  2.1647
  109OSM   C11S11159   2.976   1.734   5.344 -0.5280  0.1850 -0.4393
  109OSM   H11S11160   3.084   1.711   5.333 -0.1318  2.1502 -1.0582
  109OSM   H11T11161   2.967   1.845   5.341  0.9933  0.3028 -1.6517
  109OSM   C12S11162   2.894   1.674   5.223 -0.1662 -0.0379 -0.4938
  109OSM   H12S11163   2.787   1.698   5.238 -0.3854 -0.8766 -0.6601
  109OSM   H12T11164   2.901   1.563   5.221  0.4472  0.0039 -0.7727
  109OSM   C13S11165   2.939   1.729   5.086 -0.1327  0.0658  0.8107
  109OSM   H13S11166   3.047   1.750   5.075 -0.3460  1.1505  0.6418
  109OSM   H13T11167   2.897   1.832   5.088 -0.8249 -0.2141  2.0054
  109OSM   C14S11168   2.904   1.636   4.966 -0.1110 -0.0735  0.1144
  109OSM   H14S11169   2.801   1.597   4.983 -0.1406 -0.1676 -0.2774
  109OSM   H14T11170   2.969   1.546   4.962 -0.7531 -0.5108 -2.4963
  109OSM   C15S11171   2.899   1.711   4.835  0.1849  0.0691  0.7495
  109OSM   H15S11172   2.996   1.755   4.804 -0.9298  0.2319 -2.9097
  109OSM   H15T11173   2.839   1.805   4.844  1.2804  1.0338 -1.3400
  109OSM   C16S11174   2.840   1.624   4.723  0.2390  0.6714  0.2842
  109OSM   H16S11175   2.741   1.582   4.750 -0.0921 -0.0191 -1.8109
  109OSM   H16T11176   2.910   1.538   4.715  1.6082  1.8584 -1.4664
  109OSM   C17S11177   2.829   1.696   4.586 -0.3900 -0.2695  0.0811
  109OSM   H17S11178   2.932   1.730   4.562 -1.1707  1.9748 -0.3950
  109OSM   H17T11179   2.772   1.789   4.607 -0.2584  0.1826 -1.4547
  109OSM   C18S11180   2.775   1.608   4.468 -0.6356  0.0773 -0.1370
  109OSM   H18S11181   2.665   1.594   4.469 -0.5903 -0.3952 -0.9562
  109OSM   H18T11182   2.806   1.502   4.475  1.0198  0.6128  1.7395
  109OSM   H18U11183   2.808   1.657   4.374  0.1139 -0.2021 -0.0239
  109OSM    C1F11184   3.533   1.505   6.137 -0.4978 -0.7941  0.1149
  109OSM     OF11185   3.535   1.396   6.193 -0.4621  0.2747 -0.2329
  109OSM    C2F11186   3.650   1.549   6.052  0.1447  0.3118  0.1303
  109OSM    H2F11187   3.726   1.589   6.122  0.8112  1.6959 -1.3051
  109OSM    H2G11188   3.611   1.619   5.974 -1.8404 -2.1157 -1.1826
  109OSM    C3F11189   3.721   1.439   5.971  0.7747  0.1611 -0.6454
  109OSM    H3F11190   3.661   1.373   5.905 -1.4958  1.7920 -0.3252
  109OSM    H3G11191   3.761   1.367   6.046  3.8405  0.8929 -1.4464
  109OSM    C4F11192   3.859   1.478   5.916  0.4892 -0.1809  0.1268
  109OSM    H4F11193   3.922   1.388   5.900  0.1498 -0.2693 -0.7928
  109OSM    H4G11194   3.915   1.526   5.999  0.9984 -0.4319 -0.0682
  109OSM    C5F11195   3.861   1.560   5.787 -0.0427  0.3520  0.2173
  109OSM    H5F11196   3.966   1.589   5.763  0.7979 -1.5102  1.3683
  109OSM    H5G11197   3.804   1.652   5.812 -3.2763 -1.1707 -0.9741
  109OSM    C6F11198   3.808   1.477   5.668  0.6840 -0.1405 -0.3256
  109OSM    H6F11199   3.699   1.455   5.670  0.3791  1.3220  0.9224
  109OSM    H6G11200   3.858   1.378   5.661 -0.2958 -0.6444 -0.3019
  109OSM    C7F11201   3.843   1.536   5.527 -0.0874  0.2672  0.8183
  109OSM    H7F11202   3.953   1.550   5.522  0.0900 -1.3942 -2.1476
  109OSM    H7G11203   3.786   1.627   5.498  0.3430  0.1134 -0.5750
  109OSM    C8F11204   3.805   1.434   5.413  0.3097  0.5888 -0.1574
  109OSM    H8F11205   3.824   1.493   5.321  1.9035  0.2137 -0.0849
  109OSM    H8G11206   3.697   1.409   5.404  0.5665 -0.6917  0.0688
  109OSM    C9F11207   3.883   1.308   5.408  0.0667 -0.1992  0.4334
  109OSM    H9F11208   3.853   1.239   5.489  0.1663 -0.5750  0.1571
  109OSM   C10F11209   3.963   1.258   5.312  0.7532 -0.5814  0.9845
  109OSM   H10F11210   4.006   1.157   5.324 -1.7292 -1.8019  0.3341
  109OSM   C11F11211   3.999   1.338   5.189 -0.0943 -0.4057  1.0915
  109OSM   H11F11212   4.061   1.421   5.229  0.1075  0.7760 -1.4953
  109OSM   H11G11213   3.908   1.380   5.143  0.9819 -0.4860 -1.2671
  109OSM   C12F11214   4.064   1.241   5.081 -0.3790  0.8001  0.1644
  109OSM   H12F11215   4.084   1.300   4.988  1.7034 -2.7931 -1.9118
  109OSM   H12G11216   3.989   1.164   5.055  2.0699 -1.7033  0.0404
  109OSM   C13F11217   4.196   1.180   5.119  0.4429  0.3872 -0.1008
  109OSM   H13F11218   4.192   1.133   5.220 -1.8656  0.0846 -0.2594
  109OSM   H13G11219   4.266   1.265   5.112 -0.8494  1.5196  0.2335
  109OSM   C14F11220   4.233   1.069   5.019  0.6033 -0.1009 -0.1730
  109OSM   H14F11221   4.155   0.991   5.028  1.0093 -0.4256  0.7649
  109OSM   H14G11222   4.328   1.017   5.046  0.4746 -0.4378 -0.3551
  109OSM   C15F11223   4.229   1.109   4.871 -0.5535 -1.0397  0.3046
  109OSM   H15F11224   4.296   1.196   4.852  1.0481 -2.3762 -0.3783
  109OSM   H15G11225   4.122   1.129   4.849 -0.7028 -1.5888  0.4961
  109OSM   C16F11226   4.275   0.999   4.776  0.1791 -0.5464 -0.2184
  109OSM   H16F11227   4.199   0.918   4.786 -0.9071  0.4207 -0.3722
  109OSM   H16G11228   4.374   0.957   4.800  0.0182 -0.7841  0.0283
  109OSM   C17F11229   4.274   1.033   4.628 -0.0627 -0.5371 -0.3348
  109OSM   H17F11230   4.320   1.133   4.613  0.3898 -0.7144 -0.1271
  109OSM   H17G11231   4.169   1.058   4.600 -0.4739 -1.8090  0.0071
  109OSM   C18F11232   4.329   0.931   4.527  0.7276 -0.2048 -0.6975
  109OSM   H18F11233   4.354   0.979   4.430 -0.2197 -2.7527 -2.3123
  109OSM   H18G11234   4.263   0.845   4.504 -0.9947  0.4159  1.6043
  109OSM   H18H11235   4.422   0.887   4.569  2.3252  0.5740 -3.2119
  110OSM      N11236   0.996   4.993   6.622 -0.6374 -0.8750 -0.8616
  110OSM    C1511237   0.945   4.887   6.540 -0.5794  0.2192  0.2054
  110OSM   H15A11238   1.011   4.857   6.460 -2.6458  0.9203 -1.8693
  110OSM   H15B11239   0.849   4.914   6.499 -1.5285 -1.3303  1.2937
  110OSM   H15C11240   0.939   4.798   6.601  4.0083 -1.9983 -2.0332
  110OSM    C1411241   0.887   5.010   6.728 -0.3069  0.1333 -0.3670
  110OSM   H14A11242   0.882   4.919   6.786  3.6716  0.1895  0.3601
  110OSM   H14B11243   0.798   5.034   6.671  1.0291  2.5289 -1.6233
  110OSM   H14C11244   0.902   5.100   6.787  3.2475  0.3311 -1.3488
  110OSM    C1311245   1.119   4.950   6.690  0.2931 -0.2289  0.0724
  110OSM   H13A11246   1.113   4.855   6.740 -0.9120 -1.0068 -1.4724
  110OSM   H13B11247   1.148   5.028   6.759  3.1917 -0.7707 -0.3985
  110OSM   H13C11248   1.192   4.953   6.610 -0.5131  1.3777 -0.6633
  110OSM    C1211249   1.022   5.118   6.538 -0.6248  0.4019  0.6020
  110OSM   H12A11250   1.042   5.208   6.593 -1.1920  0.9726 -0.1100
  110OSM   H12B11251   0.934   5.142   6.481 -0.1513  0.4121 -0.1398
  110OSM    C1111252   1.133   5.108   6.438  0.4090  0.2083  0.9698
  110OSM   H11A11253   1.117   5.192   6.367 -1.1570 -1.9310 -1.3883
  110OSM   H11B11254   1.136   5.013   6.382  1.8576 -1.2215  3.3070
  110OSM      P11255   1.398   5.098   6.436 -0.0462  0.3965 -0.4231
  110OSM    O1311256   1.487   5.208   6.479  0.4855  0.0211  0.1657
  110OSM    O1411257   1.450   4.967   6.480 -0.4047  0.2994 -0.2837
  110OSM    O1111258   1.374   5.093   6.280 -0.1116 -0.3678  0.1730
  110OSM    O1211259   1.260   5.127   6.503  0.2235 -0.4484 -0.2025
  110OSM    C1S11260   1.326   5.187   6.189 -0.4791 -0.2239 -0.4877
  110OSM    H1S11261   1.383   5.281   6.206  1.6206 -1.3119 -1.1126
  110OSM    H1T11262   1.217   5.200   6.202  0.0662  3.1877  2.0464
  110OSM     NF11263   1.360   5.247   5.946  0.4419  0.2209 -0.2258
  110OSM    HNF11264   1.276   5.246   5.892 -1.1225  0.6171  2.0664
  110OSM    C2S11265   1.370   5.140   6.046 -0.2128  0.7337 -0.1527
  110OSM    H2S11266   1.479   5.119   6.047 -0.4237 -0.4022 -0.3508
  110OSM    C3S11267   1.297   5.006   6.007 -0.4629  0.3402 -0.3050
  110OSM    H3S11268   1.187   5.025   6.005 -0.3772  0.8409 -0.4250
  110OSM     O311269   1.311   4.912   6.112 -0.5172  0.2788 -0.1469
  110OSM    HO311270   1.332   4.962   6.191 -0.3519  1.1911 -0.7635
  110OSM    C4S11271   1.331   4.959   5.863 -0.3976 -0.3001 -0.4688
  110OSM    H4S11272   1.303   5.021   5.777  1.2467 -1.5211 -1.9660
  110OSM    C5S11273   1.426   4.860   5.834 -0.0998  0.5084 -0.3839
  110OSM    H5S11274   1.489   4.812   5.910  0.6456  2.9625  0.6453
  110OSM    C6S11275   1.470   4.839   5.697 -0.5188  0.3638  0.4572
  110OSM    H6S11276   1.439   4.736   5.669  1.2597 -0.0488 -0.1191
  110OSM    H6T11277   1.581   4.834   5.704 -0.4269  0.1334 -0.9536
  110OSM    C7S11278   1.434   4.941   5.592  0.5075 -0.0546 -0.5014
  110OSM    H7S11279   1.459   5.038   5.639 -0.3389 -0.3790  0.6792
  110OSM    H7T11280   1.323   4.947   5.580  0.1064  0.4256  2.4688
  110OSM    C8S11281   1.499   4.922   5.454  0.1659 -0.6908  0.3983
  110OSM    H8S11282   1.466   4.821   5.422 -0.9862 -0.7092  1.5383
  110OSM    H8T11283   1.609   4.909   5.456  0.1393 -1.5256 -1.4857
  110OSM    C9S11284   1.467   5.039   5.361 -0.3703 -0.8816  0.4121
  110OSM    H9S11285   1.505   5.137   5.398  4.2309 -1.2486 -2.6038
  110OSM    H9T11286   1.356   5.037   5.348 -0.4538  1.2179  0.4946
  110OSM   C10S11287   1.529   5.018   5.217  0.1337 -0.0577  0.0973
  110OSM   H10S11288   1.510   4.911   5.196 -1.5612  0.6200 -2.4363
  110OSM   H10T11289   1.639   5.033   5.220  0.0129  1.0443 -0.4047
  110OSM   C11S11290   1.465   5.093   5.104 -0.4262  0.5994  0.2367
  110OSM   H11S11291   1.465   5.202   5.127  1.7584  0.7734 -0.4002
  110OSM   H11T11292   1.358   5.064   5.101 -0.8278  1.8097  1.5659
  110OSM   C12S11293   1.544   5.087   4.970 -0.3733  1.1335 -0.4479
  110OSM   H12S11294   1.583   4.983   4.958 -0.1939  1.1773 -0.2307
  110OSM   H12T11295   1.635   5.149   4.979  0.9361 -0.8824  1.2387
  110OSM   C13S11296   1.455   5.133   4.853  0.6316 -0.6241  0.1792
  110OSM   H13S11297   1.393   5.220   4.885  1.4003  0.8523 -2.1044
  110OSM   H13T11298   1.384   5.058   4.812 -2.5390  1.0604  2.1979
  110OSM   C14S11299   1.525   5.190   4.730 -0.4489 -0.0878 -0.1321
  110OSM   H14S11300   1.604   5.254   4.774 -0.6937 -0.5612  1.0239
  110OSM   H14T11301   1.460   5.251   4.664  1.3385 -1.3625 -3.3227
  110OSM   C15S11302   1.590   5.077   4.647 -0.0101 -0.1611 -0.4930
  110OSM   H15S11303   1.526   4.987   4.636 -0.1442 -0.1192 -0.0932
  110OSM   H15T11304   1.671   5.025   4.702 -1.6268 -0.8708  1.3480
  110OSM   C16S11305   1.634   5.114   4.511  0.1868  0.4357  0.1017
  110OSM   H16S11306   1.704   5.200   4.508  2.2589 -1.1993 -1.7754
  110OSM   H16T11307   1.543   5.140   4.452 -0.2093 -1.3329 -0.1225
  110OSM   C17S11308   1.719   5.015   4.431 -0.4993  0.8122 -0.6793
  110OSM   H17S11309   1.816   5.014   4.484 -0.0868 -2.9952 -1.2724
  110OSM   H17T11310   1.730   5.037   4.323 -0.9983 -1.8209 -1.3246
  110OSM   C18S11311   1.687   4.868   4.441  0.6556 -1.1148  0.4207
  110OSM   H18S11312   1.668   4.838   4.547 -1.3490 -1.9384 -0.1349
  110OSM   H18T11313   1.773   4.807   4.405 -0.2270 -2.1901  0.0883
  110OSM   H18U11314   1.596   4.843   4.382  1.5663 -0.0927 -1.4907
  110OSM    C1F11315   1.442   5.356   5.945 -0.0728 -0.2596  0.8309
  110OSM     OF11316   1.531   5.366   6.032  0.3143  0.2873  0.7916
  110OSM    C2F11317   1.419   5.454   5.839 -0.5086 -0.2506  0.2611
  110OSM    H2F11318   1.392   5.557   5.869  0.1573 -0.2228  0.7695
  110OSM    H2G11319   1.337   5.425   5.769  1.5407 -0.5453 -2.1923
  110OSM    C3F11320   1.543   5.469   5.749 -0.0727 -0.0728  0.2702
  110OSM    H3F11321   1.568   5.367   5.711 -1.3187 -0.4192  0.3246
  110OSM    H3G11322   1.624   5.503   5.817 -0.4356 -0.6905  1.0261
  110OSM    C4F11323   1.520   5.551   5.628  0.3383 -0.1646 -0.2516
  110OSM    H4F11324   1.524   5.654   5.668  0.7046 -0.3149  0.1010
  110OSM    H4G11325   1.423   5.536   5.575  0.8758 -2.2378 -0.7335
  110OSM    C5F11326   1.631   5.510   5.533 -0.2404 -0.4547 -0.2097
  110OSM    H5F11327   1.646   5.400   5.524  1.4656 -0.3348  0.7527
  110OSM    H5G11328   1.719   5.565   5.570 -0.6178 -0.5682  0.8900
  110OSM    C6F11329   1.603   5.573   5.394  0.2620 -0.2105  0.3063
  110OSM    H6F11330   1.700   5.560   5.340 -0.1965  0.6346 -0.7663
  110OSM    H6G11331   1.570   5.678   5.408  0.0394  0.1380 -2.2700
  110OSM    C7F11332   1.486   5.509   5.315 -0.9273 -0.5153 -0.9728
  110OSM    H7F11333   1.387   5.513   5.365 -1.7787  0.4323 -2.6100
  110OSM    H7G11334   1.516   5.406   5.289 -1.2686 -1.2105  1.2512
  110OSM    C8F11335   1.450   5.585   5.183 -0.1893 -0.3719  0.4657
  110OSM    H8F11336   1.526   5.592   5.103  1.0921  1.6726  1.7627
  110OSM    H8G11337   1.428   5.692   5.205  0.1591 -0.6101  2.1015
  110OSM    C9F11338   1.329   5.519   5.123  0.0666  0.0174 -0.3826
  110OSM    H9F11339   1.339   5.447   5.040  0.1581  0.1511 -0.4891
  110OSM   C10F11340   1.205   5.558   5.146  0.0426 -0.1973 -0.2885
  110OSM   H10F11341   1.116   5.512   5.101 -0.7672  0.9300  0.0918
  110OSM   C11F11342   1.158   5.672   5.231 -0.0229 -0.4400  0.0455
  110OSM   H11F11343   1.228   5.758   5.227  0.8142 -0.9601  1.9829
  110OSM   H11G11344   1.171   5.622   5.330  0.0572 -1.5695 -0.5265
  110OSM   C12F11345   1.018   5.722   5.194  0.6787 -0.7934 -0.1179
  110OSM   H12F11346   1.007   5.816   5.252 -1.0384 -0.2883 -1.2004
  110OSM   H12G11347   0.944   5.643   5.219  1.3967 -0.9587  1.6399
  110OSM   C13F11348   0.999   5.746   5.040 -0.3406  0.7763 -0.3624
  110OSM   H13F11349   1.041   5.668   4.974  2.4536  2.3643 -0.6150
  110OSM   H13G11350   1.045   5.842   5.007  0.6202  0.1979 -0.7429
  110OSM   C14F11351   0.858   5.741   4.988  0.4352  0.2920 -0.0930
  110OSM   H14F11352   0.800   5.831   5.018 -2.4132 -1.6812  0.7300
  110OSM   H14G11353   0.806   5.654   5.033 -0.6316  1.3166  0.7348
  110OSM   C15F11354   0.858   5.735   4.832  0.4525 -0.1162  0.3599
  110OSM   H15F11355   0.922   5.646   4.814 -0.2782 -0.6784  0.4826
  110OSM   H15G11356   0.913   5.817   4.782  1.2769 -0.6580  0.3716
  110OSM   C16F11357   0.711   5.713   4.780  0.6079  0.0001 -0.1467
  110OSM   H16F11358   0.665   5.809   4.811 -1.9848 -1.2837  0.3306
  110OSM   H16G11359   0.652   5.632   4.829 -2.5635  0.8186 -2.3322
  110OSM   C17F11360   0.701   5.683   4.629  0.2734  0.5186 -0.0051
  110OSM   H17F11361   0.755   5.587   4.615 -0.0915 -0.4447  3.8471
  110OSM   H17G11362   0.758   5.757   4.569 -0.7703  0.5240 -1.0082
  110OSM   C18F11363   0.557   5.674   4.585 -0.7358 -0.0941 -0.1455
  110OSM   H18F11364   0.505   5.583   4.620  0.7262 -0.7426  0.4425
  110OSM   H18G11365   0.537   5.678   4.476 -3.3189 -2.3405  0.1615
  110OSM   H18H11366   0.507   5.763   4.629  0.3058  2.3457 -3.4324
  111OSM      N11367   1.815   2.247   6.438  0.1871  0.7851 -0.4943
  111OSM    C1511368   1.783   2.392   6.463 -0.0951  0.2503 -0.1939
  111OSM   H15A11369   1.760   2.445   6.372 -0.0343  2.5442  1.0589
  111OSM   H15B11370   1.862   2.441   6.517 -0.7171  0.2493  0.7431
  111OSM   H15C11371   1.696   2.406   6.526  0.4112  2.3400  0.1142
  111OSM    C1411372   1.939   2.246   6.355 -0.3934  0.1415 -0.1318
  111OSM   H14A11373   1.935   2.319   6.275  0.8659 -0.2512 -0.5868
  111OSM   H14B11374   1.976   2.152   6.317 -2.4395 -1.1225  0.8680
  111OSM   H14C11375   2.019   2.287   6.416  0.7603  1.2608 -2.2719
  111OSM    C1311376   1.835   2.170   6.571  0.0702 -0.8178  0.7773
  111OSM   H13A11377   1.927   2.207   6.614 -0.4395 -2.0675  3.0774
  111OSM   H13B11378   1.842   2.064   6.554  0.4571 -0.5338 -1.0621
  111OSM   H13C11379   1.751   2.193   6.635 -0.6954  0.2219 -0.5230
  111OSM    C1211380   1.703   2.190   6.350  0.5307 -0.2850 -0.1340
  111OSM   H12A11381   1.720   2.095   6.303  0.4352  1.2479 -3.5761
  111OSM   H12B11382   1.700   2.249   6.260  1.0125  0.0608  0.0722
  111OSM    C1111383   1.562   2.179   6.414 -0.2026 -0.0642 -0.0307
  111OSM   H11A11384   1.561   2.089   6.480  1.1370 -1.3396 -1.6465
  111OSM   H11B11385   1.504   2.149   6.324  0.9738  0.9867 -1.1771
  111OSM      P11386   1.394   2.386   6.394 -0.2766 -0.3597  0.3268
  111OSM    O1311387   1.267   2.314   6.405  0.0688  0.2371 -0.6574
  111OSM    O1411388   1.397   2.530   6.442  0.0459 -0.9021  0.0875
  111OSM    O1111389   1.439   2.371   6.244  0.3262 -0.1847  0.2296
  111OSM    O1211390   1.508   2.303   6.470  0.5339  0.5343  0.0903
  111OSM    C1S11391   1.517   2.459   6.166 -0.6632  0.4236 -0.1993
  111OSM    H1S11392   1.621   2.419   6.169 -0.1162  1.8784  1.7786
  111OSM    H1T11393   1.512   2.563   6.205 -1.4312  0.2469  0.1874
  111OSM     NF11394   1.566   2.507   5.926  0.4321 -0.4082 -0.3314
  111OSM    HNF11395   1.573   2.600   5.889  1.4103  0.2482  1.4038
  111OSM    C2S11396   1.460   2.471   6.020 -0.1436 -0.0613  0.8943
  111OSM    H2S11397   1.414   2.374   5.990  1.2676 -0.5137  0.0978
  111OSM    C3S11398   1.336   2.565   6.024  0.0268 -0.4165  0.2553
  111OSM    H3S11399   1.370   2.664   6.061 -0.7676  0.0398 -0.2017
  111OSM     O311400   1.222   2.507   6.096 -0.1753 -0.8034 -0.1133
  111OSM    HO311401   1.260   2.421   6.115 -1.4131 -1.3976 -0.2377
  111OSM    C4S11402   1.275   2.593   5.884 -0.3775 -0.3066 -0.6968
  111OSM    H4S11403   1.226   2.513   5.827 -0.2915 -1.2877  0.5677
  111OSM    C5S11404   1.265   2.716   5.823  0.1306  0.7294 -0.1157
  111OSM    H5S11405   1.318   2.807   5.855 -0.5928  1.4725 -0.9913
  111OSM    C6S11406   1.206   2.721   5.686 -0.1539  0.0175 -0.0946
  111OSM    H6S11407   1.147   2.815   5.684 -1.1029 -0.5787 -0.9552
  111OSM    H6T11408   1.132   2.639   5.673 -1.8811  1.3271  0.9088
  111OSM    C7S11409   1.305   2.728   5.578  0.6943 -0.3637 -0.1720
  111OSM    H7S11410   1.365   2.634   5.580 -0.8642 -1.3876 -0.2634
  111OSM    H7T11411   1.382   2.804   5.600  0.8952 -1.1500  2.0927
  111OSM    C8S11412   1.251   2.753   5.437  0.5668 -0.4424  0.8258
  111OSM    H8S11413   1.179   2.837   5.442  0.1157 -0.7873  0.1610
  111OSM    H8T11414   1.199   2.664   5.397  0.7157 -0.5013  0.7607
  111OSM    C9S11415   1.362   2.775   5.335 -0.5095  0.0460 -0.1030
  111OSM    H9S11416   1.428   2.687   5.349 -1.3430 -0.6137 -0.2803
  111OSM    H9T11417   1.420   2.862   5.373 -1.1751 -0.4465  2.2036
  111OSM   C10S11418   1.315   2.784   5.184  0.2175 -0.3341  0.0382
  111OSM   H10S11419   1.247   2.871   5.176 -1.0212 -1.0556  2.0771
  111OSM   H10T11420   1.267   2.687   5.158  0.6985  0.2858 -3.7794
  111OSM   C11S11421   1.440   2.802   5.090 -0.1275  0.2548  0.4889
  111OSM   H11S11422   1.516   2.721   5.098 -1.7948 -1.7025 -2.1290
  111OSM   H11T11423   1.487   2.896   5.128  2.7900 -1.0344  0.3489
  111OSM   C12S11424   1.414   2.813   4.942  0.2133 -0.0489  0.4377
  111OSM   H12S11425   1.500   2.871   4.904  0.6356 -1.5962 -1.1398
  111OSM   H12T11426   1.320   2.869   4.923  1.7839  2.6564  0.2793
  111OSM   C13S11427   1.408   2.681   4.854  0.4029 -0.2577  0.1496
  111OSM   H13S11428   1.334   2.605   4.887 -1.7089  2.0608  1.0747
  111OSM   H13T11429   1.504   2.626   4.859 -0.0560 -1.1913 -0.8091
  111OSM   C14S11430   1.390   2.719   4.705  0.6725  0.0182 -0.3011
  111OSM   H14S11431   1.486   2.759   4.666  0.1305  1.8115  0.1230
  111OSM   H14T11432   1.318   2.803   4.702  1.6457  0.8619 -1.3079
  111OSM   C15S11433   1.324   2.607   4.623  0.2309 -0.6037  1.0674
  111OSM   H15S11434   1.214   2.606   4.638  0.1876  0.3228  0.8885
  111OSM   H15T11435   1.365   2.507   4.647  0.5775 -0.4568  1.0910
  111OSM   C16S11436   1.348   2.615   4.472 -0.1396 -0.0762 -0.2871
  111OSM   H16S11437   1.344   2.721   4.440 -1.2874  0.5507  1.7568
  111OSM   H16T11438   1.266   2.557   4.424  0.2895 -1.7218  0.8715
  111OSM   C17S11439   1.491   2.559   4.443 -0.1337  0.0024 -0.1712
  111OSM   H17S11440   1.496   2.452   4.471  2.7251 -0.0140 -0.4144
  111OSM   H17T11441   1.563   2.599   4.518  1.0279  0.8671 -1.6741
  111OSM   C18S11442   1.539   2.584   4.300  0.6829 -0.0679 -0.2369
  111OSM   H18S11443   1.629   2.521   4.285 -0.0829 -1.9151  2.2209
  111OSM   H18T11444   1.567   2.691   4.292  0.3288  0.1434  1.0761
  111OSM   H18U11445   1.466   2.550   4.224  0.3574  0.0994 -0.0013
  111OSM    C1F11446   1.656   2.417   5.881 -0.4398 -0.9032 -0.1509
  111OSM     OF11447   1.684   2.311   5.935 -0.6640 -0.0954  0.1388
  111OSM    C2F11448   1.738   2.458   5.761  0.7830 -0.6681 -0.2140
  111OSM    H2F11449   1.825   2.519   5.794 -0.7006  1.8153 -0.7060
  111OSM    H2G11450   1.669   2.517   5.697 -0.5029 -1.3669  0.5016
  111OSM    C3F11451   1.777   2.335   5.681  0.7675 -0.2571  0.2207
  111OSM    H3F11452   1.692   2.271   5.648  1.5078 -0.3284 -1.6669
  111OSM    H3G11453   1.843   2.272   5.744  1.3837 -0.7467 -0.8762
  111OSM    C4F11454   1.843   2.376   5.557 -0.3606 -0.4364  0.4918
  111OSM    H4F11455   1.908   2.292   5.524 -0.0534  0.2389 -0.6620
  111OSM    H4G11456   1.906   2.467   5.564 -0.5249 -0.1544 -1.3069
  111OSM    C5F11457   1.750   2.393   5.427  0.0864  0.4518  0.0025
  111OSM    H5F11458   1.678   2.475   5.451  0.7671  0.7043  1.2933
  111OSM    H5G11459   1.697   2.296   5.428 -0.0661  0.5211 -0.9465
  111OSM    C6F11460   1.826   2.417   5.289 -0.0194 -0.1496  0.2340
  111OSM    H6F11461   1.895   2.332   5.270 -0.5401 -0.1718 -1.7356
  111OSM    H6G11462   1.890   2.507   5.303  1.0731 -0.3614 -2.7206
  111OSM    C7F11463   1.732   2.423   5.167 -0.1074 -0.5594 -0.9609
  111OSM    H7F11464   1.674   2.515   5.188  1.3235 -0.0434  0.9863
  111OSM    H7G11465   1.659   2.339   5.158 -1.3599  0.4914 -0.8618
  111OSM    C8F11466   1.813   2.450   5.034 -0.1396 -0.1059 -0.4084
  111OSM    H8F11467   1.893   2.374   5.027 -0.3536 -0.3430 -0.3000
  111OSM    H8G11468   1.862   2.549   5.044  0.4015 -0.1588 -2.2512
  111OSM    C9F11469   1.724   2.447   4.916  0.4043  0.7741 -0.4341
  111OSM    H9F11470   1.640   2.375   4.920 -1.2270  2.4801 -1.9744
  111OSM   C10F11471   1.742   2.510   4.805 -0.2531 -0.7616  0.5833
  111OSM   H10F11472   1.662   2.494   4.731 -0.6467  0.1812  0.7833
  111OSM   C11F11473   1.847   2.612   4.779  0.2471  0.3474  0.6406
  111OSM   H11F11474   1.873   2.594   4.672 -1.8102 -1.0368  0.3236
  111OSM   H11G11475   1.943   2.599   4.834  0.8590  2.5806  0.2287
  111OSM   C12F11476   1.805   2.763   4.797 -1.3081 -1.1344  0.5128
  111OSM   H12F11477   1.852   2.790   4.894  0.2467  0.4668 -0.6322
  111OSM   H12G11478   1.695   2.774   4.797 -1.3607 -1.4480  1.9409
  111OSM   C13F11479   1.871   2.859   4.688  0.0102  0.0180 -0.6605
  111OSM   H13F11480   1.978   2.830   4.677  0.0358 -0.0974 -0.1250
  111OSM   H13G11481   1.859   2.965   4.717 -0.3668 -0.3209  0.4686
  111OSM   C14F11482   1.804   2.847   4.548  0.0429  0.1246 -0.2331
  111OSM   H14F11483   1.699   2.881   4.563  0.4712  1.9256 -1.0497
  111OSM   H14G11484   1.805   2.742   4.511 -2.7058  0.5711 -1.8725
  111OSM   C15F11485   1.871   2.937   4.448  0.1502 -0.1638  0.4361
  111OSM   H15F11486   1.885   3.026   4.512 -2.0525 -1.2840  2.6694
  111OSM   H15G11487   1.803   2.958   4.363 -0.4880 -2.9841  0.1239
  111OSM   C16F11488   1.995   2.880   4.381 -0.0781 -1.1379  0.0774
  111OSM   H16F11489   1.968   2.845   4.279  0.1736  0.5433 -0.6105
  111OSM   H16G11490   2.045   2.798   4.436  2.5244 -1.4095 -2.4607
  111OSM   C17F11491   2.109   2.987   4.358  0.0532  1.2320  0.9417
  111OSM   H17F11492   2.142   3.024   4.458  1.0736 -0.3750  1.2350
  111OSM   H17G11493   2.056   3.065   4.299  1.3848 -0.6872 -3.1292
  111OSM   C18F11494   2.227   2.928   4.281 -0.0065 -0.0156 -0.3445
  111OSM   H18F11495   2.253   2.827   4.319 -1.3919 -0.3586 -0.2460
  111OSM   H18G11496   2.308   2.999   4.256 -0.5437  0.5657 -0.4486
  111OSM   H18H11497   2.195   2.897   4.179 -0.2461  1.9863 -0.9111
  112OSM      N11498   3.665   6.860   7.043  0.3535  0.3228 -0.1111
  112OSM    C1511499   3.805   6.845   7.000 -0.0257  0.1629  0.3131
  112OSM   H15A11500   3.862   6.909   7.065 -0.9634  1.2755  0.1010
  112OSM   H15B11501   3.812   6.880   6.897 -1.8934  4.0114  1.2796
  112OSM   H15C11502   3.843   6.744   7.004 -0.1648  0.0829 -0.3003
  112OSM    C1411503   3.665   6.807   7.175 -0.8832 -0.1684 -0.4553
  112OSM   H14A11504   3.569   6.825   7.222 -0.6073  2.6060 -0.8066
  112OSM   H14B11505   3.739   6.855   7.238 -0.5754 -1.3529  0.1293
  112OSM   H14C11506   3.687   6.701   7.173 -0.2502 -0.0705  0.5096
  112OSM    C1311507   3.635   7.011   7.042 -0.6202  0.4507 -0.1165
  112OSM   H13A11508   3.530   7.013   7.069 -0.5384 -1.6013  0.4587
  112OSM   H13B11509   3.655   7.052   6.944  0.2987 -0.5417 -0.3591
  112OSM   H13C11510   3.695   7.070   7.110 -0.1355  1.5095 -1.4134
  112OSM    C1211511   3.566   6.794   6.947 -0.4489 -0.4557 -0.7102
  112OSM   H12A11512   3.471   6.781   6.996 -1.8928  1.1960 -2.8772
  112OSM   H12B11513   3.603   6.693   6.933 -1.0639 -0.6120 -1.2192
  112OSM    C1111514   3.533   6.874   6.813 -0.2284 -0.4224 -0.6797
  112OSM   H11A11515   3.497   6.975   6.842 -0.1279 -0.4280 -0.5383
  112OSM   H11B11516   3.442   6.832   6.765 -1.9821 -0.5768  2.5263
  112OSM      P11517   3.679   6.775   6.633  0.1474 -0.3589  0.0996
  112OSM    O1311518   3.797   6.824   6.557  0.0437 -0.6118 -0.1656
  112OSM    O1411519   3.698   6.648   6.704  0.1017  0.0419 -0.4762
  112OSM    O1111520   3.558   6.757   6.540  0.1337 -0.0741 -0.3429
  112OSM    O1211521   3.644   6.888   6.725 -0.1799  0.3871  0.0784
  112OSM    C1S11522   3.501   6.871   6.476  0.3273  0.5890  0.9377
  112OSM    H1S11523   3.526   6.972   6.515  1.8712  0.2955  0.7631
  112OSM    H1T11524   3.390   6.872   6.482  0.2354  2.4618 -0.1838
  112OSM     NF11525   3.483   6.985   6.248 -0.3052  0.1573  0.7918
  112OSM    HNF11526   3.412   6.972   6.179  1.5880  1.6908 -1.6341
  112OSM    C2S11527   3.536   6.871   6.322 -0.7140  0.3744 -0.2656
  112OSM    H2S11528   3.647   6.862   6.315 -0.7408 -4.0034  1.3756
  112OSM    C3S11529   3.480   6.737   6.259  0.2574 -0.2780  0.0287
  112OSM    H3S11530   3.375   6.735   6.294  0.2796  1.1955  0.2619
  112OSM     O311531   3.549   6.628   6.305  0.2072 -0.2074 -0.2281
  112OSM    HO311532   3.554   6.652   6.397  1.5627 -0.5269 -0.1956
  112OSM    C4S11533   3.480   6.743   6.107  0.8817  0.0376  0.3914
  112OSM    H4S11534   3.384   6.779   6.067  0.2367 -1.5304  0.4208
  112OSM    C5S11535   3.583   6.711   6.027  0.5045  0.1354 -0.0828
  112OSM    H5S11536   3.677   6.670   6.066  0.6121 -0.3856 -0.8701
  112OSM    C6S11537   3.561   6.721   5.877 -0.4717 -0.0839  0.5214
  112OSM    H6S11538   3.505   6.634   5.835 -1.6155  0.6072  0.5717
  112OSM    H6T11539   3.659   6.734   5.826 -0.1313 -2.2626  0.5056
  112OSM    C7S11540   3.473   6.837   5.824 -0.0088 -0.1536 -0.8431
  112OSM    H7S11541   3.512   6.930   5.871  0.1557 -0.8366  0.4052
  112OSM    H7T11542   3.368   6.818   5.853  0.5394 -1.5763  0.3336
  112OSM    C8S11543   3.479   6.865   5.675 -0.1160  0.5299 -0.6359
  112OSM    H8S11544   3.417   6.792   5.619 -0.5837 -0.0579  0.6033
  112OSM    H8T11545   3.582   6.880   5.636  0.8549  1.9129  2.1861
  112OSM    C9S11546   3.412   7.002   5.647  0.1597  0.2269 -0.3730
  112OSM    H9S11547   3.481   7.088   5.662  0.7472 -0.3374  0.1971
  112OSM    H9T11548   3.325   7.021   5.713  0.3251  0.8177 -0.3222
  112OSM   C10S11549   3.379   7.003   5.491  0.5343  0.1940  0.0066
  112OSM   H10S11550   3.292   7.073   5.491  0.6697  0.3653 -0.0969
  112OSM   H10T11551   3.336   6.906   5.458  2.2069 -0.8040  0.6661
  112OSM   C11S11552   3.490   7.031   5.395 -1.1092 -0.5828  0.2282
  112OSM   H11S11553   3.561   6.946   5.407 -1.4077 -0.9707 -0.6752
  112OSM   H11T11554   3.557   7.117   5.413 -0.2642 -1.1763  0.0057
  112OSM   C12S11555   3.433   7.035   5.249  0.5854  0.6586 -0.4211
  112OSM   H12S11556   3.366   7.122   5.240 -3.4039 -1.8149  2.3139
  112OSM   H12T11557   3.373   6.943   5.233 -0.9286  1.3816  0.8104
  112OSM   C13S11558   3.556   7.054   5.153  0.1876 -0.0667  0.2151
  112OSM   H13S11559   3.624   7.133   5.192  0.2518  0.9233 -1.7940
  112OSM   H13T11560   3.509   7.080   5.056  2.3023 -1.2168 -1.2013
  112OSM   C14S11561   3.628   6.922   5.116 -0.2514 -0.2290 -0.2159
  112OSM   H14S11562   3.571   6.868   5.036  0.3151  0.6883 -1.2670
  112OSM   H14T11563   3.640   6.860   5.207 -1.4765 -0.8174 -0.4295
  112OSM   C15S11564   3.770   6.944   5.064  0.0302 -0.2036  0.4101
  112OSM   H15S11565   3.815   6.843   5.053 -1.2925 -0.7018 -0.6514
  112OSM   H15T11566   3.840   6.989   5.138  1.0093  0.5172 -0.8958
  112OSM   C16S11567   3.771   7.018   4.918  0.0420 -0.0133 -0.1282
  112OSM   H16S11568   3.767   7.129   4.926  2.3476  0.0886  0.3029
  112OSM   H16T11569   3.683   6.985   4.859 -0.1197  1.1089 -0.5506
  112OSM   C17S11570   3.904   6.981   4.833  0.3219 -0.0458  0.5323
  112OSM   H17S11571   3.982   7.005   4.908  0.7112  0.0532  0.1044
  112OSM   H17T11572   3.915   7.061   4.757 -0.7359 -0.6314 -0.2809
  112OSM   C18S11573   3.930   6.846   4.774  0.9233 -0.0767 -0.6045
  112OSM   H18S11574   4.024   6.852   4.715  2.4954  0.4008  1.7887
  112OSM   H18T11575   3.850   6.820   4.702  1.6020 -1.6611 -0.8337
  112OSM   H18U11576   3.937   6.768   4.852  1.3073  0.2536 -0.3034
  112OSM    C1F11577   3.532   7.111   6.265  0.1431 -0.4014 -0.3899
  112OSM     OF11578   3.601   7.140   6.359 -0.6208  0.4596  0.0106
  112OSM    C2F11579   3.486   7.224   6.173  0.3208 -0.2622  0.5452
  112OSM    H2F11580   3.406   7.278   6.228  0.9324  0.9251  0.3090
  112OSM    H2G11581   3.436   7.178   6.085  1.0308 -0.8667  0.4525
  112OSM    C3F11582   3.599   7.328   6.132 -0.1155  0.1645  0.7082
  112OSM    H3F11583   3.691   7.271   6.106 -0.5129 -0.0352 -0.2779
  112OSM    H3G11584   3.632   7.382   6.224  1.2263 -1.2801  1.1230
  112OSM    C4F11585   3.550   7.424   6.017 -0.1541 -0.0866 -0.3028
  112OSM    H4F11586   3.456   7.465   6.059 -1.4536 -1.5320 -1.6952
  112OSM    H4G11587   3.523   7.377   5.920 -1.0320  1.7660 -1.0175
  112OSM    C5F11588   3.666   7.520   5.983  0.2886 -0.0977 -0.7391
  112OSM    H5F11589   3.709   7.571   6.072  0.2976 -1.2833 -0.0451
  112OSM    H5G11590   3.632   7.607   5.923 -0.0030  0.2038 -0.1470
  112OSM    C6F11591   3.783   7.449   5.914 -0.1401  0.5345 -0.1894
  112OSM    H6F11592   3.763   7.418   5.809  1.0964  0.4818 -0.4248
  112OSM    H6G11593   3.810   7.361   5.976 -1.2634  1.6195  1.9194
  112OSM    C7F11594   3.910   7.532   5.906  0.4385 -0.1460 -0.2452
  112OSM    H7F11595   3.937   7.562   6.010  0.1355 -0.7043 -0.0038
  112OSM    H7G11596   3.888   7.636   5.873 -0.4374  1.3004  4.2276
  112OSM    C8F11597   4.031   7.463   5.839  0.7987 -0.3194  0.0651
  112OSM    H8F11598   4.115   7.534   5.825 -0.8506  1.9047  0.9261
  112OSM    H8G11599   4.002   7.450   5.733  1.0997  2.8885 -0.4996
  112OSM    C9F11600   4.085   7.340   5.906 -0.0980  0.7141  0.3539
  112OSM    H9F11601   4.070   7.348   6.015  0.2383  2.9150  0.2885
  112OSM   C10F11602   4.162   7.248   5.834 -0.1243  0.0909 -1.1949
  112OSM   H10F11603   4.185   7.155   5.887 -0.7227  0.7137  0.2171
  112OSM   C11F11604   4.201   7.237   5.690  0.4267 -0.7066 -0.7685
  112OSM   H11F11605   4.150   7.319   5.635  1.0109 -0.0400 -0.3437
  112OSM   H11G11606   4.160   7.150   5.635  2.4267 -0.7281 -2.3756
  112OSM   C12F11607   4.353   7.242   5.684  0.0582 -0.0110 -1.0131
  112OSM   H12F11608   4.402   7.280   5.776  0.8553 -1.9011 -0.6289
  112OSM   H12G11609   4.387   7.297   5.593  1.9827  0.9313  0.2121
  112OSM   C13F11610   4.399   7.096   5.674  0.3389 -0.7780  0.2008
  112OSM   H13F11611   4.385   7.072   5.566  1.6827 -0.1140 -0.1453
  112OSM   H13G11612   4.334   7.040   5.745  1.8240 -0.3078  2.0032
  112OSM   C14F11613   4.547   7.076   5.712  0.2597 -0.1600  0.4375
  112OSM   H14F11614   4.560   7.127   5.810 -0.4765  0.8602  0.0200
  112OSM   H14G11615   4.619   7.129   5.647  0.3087  1.3503  1.6682
  112OSM   C15F11616   4.573   6.927   5.728  0.0101 -0.1869 -0.2815
  112OSM   H15F11617   4.486   6.877   5.775  0.9933 -0.1037  1.7104
  112OSM   H15G11618   4.663   6.911   5.790 -1.5392 -1.9331  1.6277
  112OSM   C16F11619   4.591   6.851   5.589  0.0186  0.3171 -0.2912
  112OSM   H16F11620   4.673   6.901   5.532  1.1584 -1.6558 -0.4714
  112OSM   H16G11621   4.498   6.853   5.529 -0.5602 -1.2225  0.5031
  112OSM   C17F11622   4.613   6.698   5.613  0.7745  0.0979  0.6218
  112OSM   H17F11623   4.647   6.657   5.516 -0.2861  0.1850  0.1994
  112OSM   H17G11624   4.512   6.660   5.639  0.1929  0.6226 -0.7624
  112OSM   C18F11625   4.703   6.659   5.731 -0.5180  0.5241  0.1527
  112OSM   H18F11626   4.727   6.550   5.727 -1.1854  0.3251  1.0918
  112OSM   H18G11627   4.657   6.678   5.831 -1.4005  0.1918 -0.1762
  112OSM   H18H11628   4.803   6.704   5.717 -0.7789  1.8632  2.1101
  113OSM      N11629   0.867   1.265   6.140 -0.3943 -0.8071 -0.0761
  113OSM    C1511630   0.980   1.265   6.232 -0.8269  0.9713  0.1204
  113OSM   H15A11631   0.964   1.222   6.330 -0.6136 -2.0983 -1.0743
  113OSM   H15B11632   1.012   1.365   6.257 -1.7628  0.8420  2.0052
  113OSM   H15C11633   1.057   1.197   6.200 -2.3410 -0.6210 -0.2648
  113OSM    C1411634   0.750   1.335   6.205  0.0989 -0.3571  0.1321
  113OSM   H14A11635   0.771   1.440   6.219  0.4948 -0.5824  1.4098
  113OSM   H14B11636   0.724   1.295   6.302 -0.8167  0.7357  0.3456
  113OSM   H14C11637   0.658   1.333   6.150 -2.0743 -1.8471  3.5060
  113OSM    C1311638   0.899   1.329   6.011 -0.0975  0.1338  0.4800
  113OSM   H13A11639   0.963   1.255   5.964  0.4196  0.1274  1.1633
  113OSM   H13B11640   0.951   1.424   6.014 -1.1994  0.7339  1.3155
  113OSM   H13C11641   0.812   1.346   5.950  1.0702  0.8028 -1.0585
  113OSM    C1211642   0.807   1.127   6.117  0.0292  0.1677  0.1799
  113OSM   H12A11643   0.845   1.077   6.029 -0.9009 -1.6771  0.7907
  113OSM   H12B11644   0.708   1.150   6.080 -0.3452 -2.4826 -0.6342
  113OSM    C1111645   0.790   1.030   6.236 -0.5147  0.2768 -0.4081
  113OSM   H11A11646   0.724   1.062   6.319 -2.1982  0.2866 -1.7015
  113OSM   H11B11647   0.891   1.025   6.282 -1.2417  0.5351  1.3195
  113OSM      P11648   0.610   0.875   6.149 -0.1849 -0.7409 -0.5467
  113OSM    O1311649   0.548   0.785   6.249 -0.0049  0.7094  0.7677
  113OSM    O1411650   0.543   1.004   6.120 -0.6777  0.5043  0.1217
  113OSM    O1111651   0.623   0.791   6.023 -0.3592  0.1363  0.1394
  113OSM    O1211652   0.763   0.899   6.187  0.3440  0.3956  0.6599
  113OSM    C1S11653   0.688   0.664   6.015  0.0076 -0.1980 -0.1772
  113OSM    H1S11654   0.619   0.577   6.023  0.2737 -0.8200 -3.1635
  113OSM    H1T11655   0.754   0.643   6.101 -2.1833  1.6366  2.1267
  113OSM     NF11656   0.839   0.518   5.877 -0.7881 -0.3187  0.4624
  113OSM    HNF11657   0.937   0.516   5.858 -0.6927 -0.3432  0.9315
  113OSM    C2S11658   0.764   0.647   5.882 -0.7168  0.5698  0.4369
  113OSM    H2S11659   0.686   0.642   5.803 -0.1577 -1.6151 -0.0479
  113OSM    C3S11660   0.848   0.776   5.836  0.2859  0.0616  0.2171
  113OSM    H3S11661   0.944   0.784   5.893  0.7133  1.5935 -0.6538
  113OSM     O311662   0.781   0.906   5.849 -0.1443  0.6833  0.2515
  113OSM    HO311663   0.705   0.889   5.905 -0.5054 -1.1199 -0.6799
  113OSM    C4S11664   0.894   0.752   5.696 -0.0353 -0.2557  0.2020
  113OSM    H4S11665   1.002   0.732   5.698  0.4624  2.0723 -0.5208
  113OSM    C5S11666   0.826   0.780   5.581  0.5569  0.0390  0.9991
  113OSM    H5S11667   0.720   0.807   5.576  1.1950  2.6059 -0.9446
  113OSM    C6S11668   0.889   0.775   5.442  0.1702 -0.0731  0.6592
  113OSM    H6S11669   0.999   0.767   5.444  0.0986 -1.5596 -0.1141
  113OSM    H6T11670   0.866   0.866   5.383 -0.2208 -2.0995 -2.5723
  113OSM    C7S11671   0.838   0.653   5.363  0.6334  0.1702 -0.6664
  113OSM    H7S11672   0.729   0.667   5.348 -0.0931 -3.0601  0.8186
  113OSM    H7T11673   0.857   0.557   5.415 -1.9470  0.3693  0.7950
  113OSM    C8S11674   0.897   0.645   5.224 -0.1870  0.0019 -0.0842
  113OSM    H8S11675   1.001   0.607   5.220  0.1721  1.0630 -1.5673
  113OSM    H8T11676   0.897   0.749   5.185 -1.0219 -0.2130 -0.6766
  113OSM    C9S11677   0.825   0.561   5.119  0.5287 -0.2705 -0.8633
  113OSM    H9S11678   0.719   0.593   5.114  0.4974  0.2295  1.5859
  113OSM    H9T11679   0.829   0.458   5.162 -0.3707  0.1426  0.2740
  113OSM   C10S11680   0.899   0.562   4.993 -0.3505 -0.3810 -0.0548
  113OSM   H10S11681   1.001   0.532   5.026 -1.2130 -0.6236  2.6060
  113OSM   H10T11682   0.921   0.666   4.960  0.6027 -0.7718 -0.7039
  113OSM   C11S11683   0.829   0.490   4.881 -1.0502 -1.4070 -0.3396
  113OSM   H11S11684   0.724   0.521   4.865 -1.5196 -3.2104 -1.0152
  113OSM   H11T11685   0.825   0.380   4.899  0.2139 -1.1596  1.7480
  113OSM   C12S11686   0.909   0.527   4.753 -0.4429  0.1636 -0.0070
  113OSM   H12S11687   1.010   0.482   4.768 -1.4045 -1.6209  1.5528
  113OSM   H12T11688   0.923   0.634   4.726 -1.0488  0.5347  1.1062
  113OSM   C13S11689   0.853   0.477   4.615  0.0810 -0.0771  0.0183
  113OSM   H13S11690   0.745   0.496   4.602  0.0991  0.0351  0.0314
  113OSM   H13T11691   0.859   0.366   4.623  0.7126  0.0066  0.9031
  113OSM   C14S11692   0.937   0.530   4.505 -0.0899  0.7759 -0.1686
  113OSM   H14S11693   1.042   0.492   4.509  0.0901  1.0719 -1.5529
  113OSM   H14T11694   0.949   0.639   4.517 -0.3421  1.0517 -2.1159
  113OSM   C15S11695   0.871   0.500   4.374  0.1607  0.6180 -0.0389
  113OSM   H15S11696   0.914   0.561   4.291  0.0852 -0.3562 -0.8126
  113OSM   H15T11697   0.762   0.516   4.380  0.4485  2.0928  2.4912
  113OSM   C16S11698   0.887   0.351   4.328  0.2930 -0.6230  0.0158
  113OSM   H16S11699   0.822   0.290   4.394 -2.6249  0.6591 -1.4878
  113OSM   H16T11700   0.993   0.337   4.358 -0.2939  0.7529  3.0821
  113OSM   C17S11701   0.862   0.326   4.179  0.6202 -0.0983 -0.6691
  113OSM   H17S11702   0.955   0.324   4.117  1.6109  3.1365  0.4885
  113OSM   H17T11703   0.791   0.401   4.138  0.4967 -0.3361 -0.8935
  113OSM   C18S11704   0.785   0.191   4.162  0.4014  0.7311  0.1187
  113OSM   H18S11705   0.687   0.202   4.213  0.9186  1.3469  1.0101
  113OSM   H18T11706   0.833   0.106   4.216  1.7732  0.1646 -1.8584
  113OSM   H18U11707   0.774   0.155   4.057  0.0439  0.2408  0.3188
  113OSM    C1F11708   0.787   0.397   5.887 -0.2575  0.5740  0.2301
  113OSM     OF11709   0.674   0.377   5.931  0.2399  0.0031  0.0982
  113OSM    C2F11710   0.866   0.284   5.834  0.1300 -0.3741 -0.1109
  113OSM    H2F11711   0.855   0.195   5.898  1.1256  0.5037  1.3349
  113OSM    H2G11712   0.972   0.318   5.834  0.3599 -1.0043  1.4737
  113OSM    C3F11713   0.813   0.244   5.695 -0.3051 -0.6028  0.1764
  113OSM    H3F11714   0.702   0.250   5.705 -0.0452  0.6951  4.6146
  113OSM    H3G11715   0.850   0.142   5.672  0.8982  0.1663 -1.3914
  113OSM    C4F11716   0.855   0.342   5.579  0.7946  0.2914 -0.0384
  113OSM    H4F11717   0.965   0.346   5.564  0.8039 -1.8950 -0.8735
  113OSM    H4G11718   0.804   0.438   5.600 -0.2942 -0.5748  1.5046
  113OSM    C5F11719   0.809   0.284   5.447 -0.0470  0.6698 -0.4739
  113OSM    H5F11720   0.788   0.368   5.377  0.5853  0.2776 -1.1513
  113OSM    H5G11721   0.714   0.227   5.460  0.5754 -0.1172  0.7266
  113OSM    C6F11722   0.908   0.190   5.371 -0.1988  0.1554  0.6159
  113OSM    H6F11723   0.933   0.100   5.432 -0.6299  0.3504  1.0871
  113OSM    H6G11724   0.998   0.254   5.360 -1.9985  2.5126 -1.4935
  113OSM    C7F11725   0.849   0.141   5.236 -0.7587  0.5451  0.3026
  113OSM    H7F11726   0.824   0.227   5.170  1.4336  0.1928 -1.1015
  113OSM    H7G11727   0.763   0.071   5.246  0.7798 -1.7508 -1.4486
  113OSM    C8F11728   0.951   0.052   5.158  0.1841  0.1750 -0.6479
  113OSM    H8F11729   0.888   0.004   5.080 -2.0764 -0.9405  1.7069
  113OSM    H8G11730   0.971  -0.029   5.232 -0.4135  1.2294  0.7055
  113OSM    C9F11731   1.075   0.137   5.111  0.6734  0.0319  0.5418
  113OSM    H9F11732   1.150   0.170   5.184  1.7580 -0.1494 -0.4672
  113OSM   C10F11733   1.112   0.156   4.986  0.3248 -0.1554 -0.5301
  113OSM   H10F11734   1.200   0.220   4.968  0.5827 -0.0704  0.9628
  113OSM   C11F11735   1.041   0.107   4.857 -0.0502  0.0889  0.1556
  113OSM   H11F11736   0.954   0.174   4.841  1.1964  1.7550  0.0773
  113OSM   H11G11737   1.008   0.001   4.863  1.5300 -0.3556  1.9056
  113OSM   C12F11738   1.122   0.128   4.727 -0.1951  0.2883 -0.4767
  113OSM   H12F11739   1.230   0.103   4.734  0.0222  1.6555  2.0029
  113OSM   H12G11740   1.108   0.236   4.706 -0.0259  0.2153 -0.9829
  113OSM   C13F11741   1.055   0.031   4.620 -0.2138  0.5394  0.0412
  113OSM   H13F11742   0.948   0.052   4.598 -0.7971 -1.9403  0.1983
  113OSM   H13G11743   1.050  -0.066   4.673 -2.7542 -1.2842 -3.1789
  113OSM   C14F11744   1.141   0.025   4.495  0.3663 -0.3347  0.2760
  113OSM   H14F11745   1.244  -0.010   4.515  0.1744 -1.7692 -1.0109
  113OSM   H14G11746   1.140   0.125   4.448 -1.6374 -0.8341 -0.8696
  113OSM   C15F11747   1.093  -0.089   4.403 -0.1225  0.8908  0.8395
  113OSM   H15F11748   0.988  -0.084   4.366 -0.2250  0.3872  1.0541
  113OSM   H15G11749   1.108  -0.182   4.461 -2.8399  0.0541  0.3625
  113OSM   C16F11750   1.181  -0.120   4.279  0.8608  0.5253  0.2164
  113OSM   H16F11751   1.284  -0.129   4.320  1.3556  1.9597 -0.6325
  113OSM   H16G11752   1.182  -0.033   4.210  0.2127  0.5840  0.2745
  113OSM   C17F11753   1.144  -0.253   4.212 -0.7783 -0.0086 -0.4742
  113OSM   H17F11754   1.215  -0.266   4.127 -0.9542  0.5539 -0.7162
  113OSM   H17G11755   1.043  -0.240   4.167 -0.7884 -0.5734 -0.6139
  113OSM   C18F11756   1.166  -0.378   4.299  0.0149 -0.2635  0.2305
  113OSM   H18F11757   1.266  -0.360   4.345  0.2373  0.9375 -0.7071
  113OSM   H18G11758   1.150  -0.473   4.243  1.1716 -1.2489  1.4812
  113OSM   H18H11759   1.096  -0.383   4.386 -0.4163 -0.3884 -0.1222
  114OSM      N11760   1.346   6.811   6.364  0.1626  0.3213 -0.1424
  114OSM    C1511761   1.355   6.836   6.219 -0.1161  0.0862 -0.0807
  114OSM   H15A11762   1.436   6.784   6.169  1.4349  2.4544 -0.1626
  114OSM   H15B11763   1.369   6.941   6.199  0.0202  0.3925  1.4881
  114OSM   H15C11764   1.262   6.817   6.167  0.1999  1.9586 -1.4060
  114OSM    C1411765   1.477   6.844   6.427  0.3117 -0.1495  0.2077
  114OSM   H14A11766   1.483   6.835   6.534  0.8498 -1.2769  0.0940
  114OSM   H14B11767   1.514   6.941   6.397  1.8642 -0.5281  0.8525
  114OSM   H14C11768   1.556   6.777   6.398  0.0346 -1.3535  2.0956
  114OSM    C1311769   1.237   6.901   6.415  0.2970 -0.0029  0.2246
  114OSM   H13A11770   1.256   7.007   6.407 -2.5537  0.7007  1.5249
  114OSM   H13B11771   1.219   6.885   6.521 -2.8032  1.7702  0.0944
  114OSM   H13C11772   1.142   6.873   6.373 -0.0656 -1.9543  2.1408
  114OSM    C1211773   1.313   6.666   6.384  0.5816  0.2271 -0.6541
  114OSM   H12A11774   1.315   6.640   6.489 -1.6781 -2.2039 -1.1218
  114OSM   H12B11775   1.402   6.620   6.342  1.0768 -0.2510  0.8450
  114OSM    C1111776   1.186   6.604   6.308  0.4040 -0.0810 -0.6574
  114OSM   H11A11777   1.176   6.500   6.345 -0.5736  0.8378  1.9004
  114OSM   H11B11778   1.200   6.604   6.198  0.2266  1.4878 -0.7054
  114OSM      P11779   0.951   6.655   6.426 -0.4621 -0.1128  0.2694
  114OSM    O1311780   1.005   6.596   6.545  0.2944  0.9290  0.2507
  114OSM    O1411781   0.886   6.785   6.446 -0.8690 -0.0492  0.4764
  114OSM    O1111782   0.862   6.538   6.366  0.7821 -0.0277 -0.0693
  114OSM    O1211783   1.074   6.685   6.331  0.5531  0.2111  0.5382
  114OSM    C1S11784   0.782   6.570   6.249 -0.1632  0.2842  0.1638
  114OSM    H1S11785   0.725   6.665   6.246  1.1028  1.0848  0.7136
  114OSM    H1T11786   0.695   6.500   6.253 -1.5142  1.7980 -1.2852
  114OSM     NF11787   0.759   6.588   6.007 -0.0884 -0.1223  0.0782
  114OSM    HNF11788   0.688   6.530   5.969  1.6230 -1.3642 -1.3549
  114OSM    C2S11789   0.848   6.543   6.111 -0.7948  0.0254  0.2790
  114OSM    H2S11790   0.936   6.611   6.115  0.7695 -1.6527 -2.6701
  114OSM    C3S11791   0.895   6.398   6.097 -0.8173  0.0012  0.4417
  114OSM    H3S11792   0.803   6.336   6.092  0.0551 -1.2380 -3.0822
  114OSM     O311793   0.983   6.351   6.201 -0.0022  0.0826 -0.3451
  114OSM    HO311794   0.964   6.405   6.278  0.6276 -1.9605  1.3389
  114OSM    C4S11795   0.955   6.381   5.950 -0.5933  0.3536  0.3081
  114OSM    H4S11796   0.876   6.338   5.886 -0.3004 -0.7301  0.6488
  114OSM    C5S11797   1.077   6.397   5.910  0.0476  0.2687 -0.2831
  114OSM    H5S11798   1.151   6.439   5.980 -2.0673  2.7210  0.6573
  114OSM    C6S11799   1.129   6.354   5.778  0.3965  0.7330  0.3354
  114OSM    H6S11800   1.210   6.282   5.802 -1.4824 -1.3329  0.8760
  114OSM    H6T11801   1.176   6.433   5.715  1.0860 -2.4775 -3.5966
  114OSM    C7S11802   1.041   6.262   5.679 -0.3061  1.0152 -0.4202
  114OSM    H7S11803   0.944   6.310   5.654 -1.5214 -0.8110  0.5085
  114OSM    H7T11804   1.016   6.175   5.745  1.0190  2.0792  1.6009
  114OSM    C8S11805   1.106   6.204   5.556  0.0935 -0.1711  0.3351
  114OSM    H8S11806   1.165   6.114   5.583  0.1238 -1.1212 -2.6131
  114OSM    H8T11807   1.176   6.280   5.515  1.0505 -0.9068  0.5823
  114OSM    C9S11808   1.013   6.192   5.440  0.4683  0.8554  0.0353
  114OSM    H9S11809   1.061   6.206   5.341 -0.1858 -1.2965 -0.6316
  114OSM    H9T11810   0.944   6.279   5.448 -1.3192 -0.2772 -1.8454
  114OSM   C10S11811   0.919   6.071   5.446  0.4165 -0.4173 -0.2090
  114OSM   H10S11812   0.887   6.038   5.547 -0.0482 -0.7996 -0.4816
  114OSM   H10T11813   0.961   5.976   5.406  0.7102  0.2200 -1.4687
  114OSM   C11S11814   0.795   6.089   5.368 -0.8973  0.5174  0.7451
  114OSM   H11S11815   0.727   6.169   5.402  0.6033  2.0013  0.3975
  114OSM   H11T11816   0.748   5.990   5.383  1.7639 -0.8850  0.4780
  114OSM   C12S11817   0.828   6.106   5.218  0.1171  0.4737 -0.0653
  114OSM   H12S11818   0.900   6.029   5.182  2.0757  1.4108  1.6408
  114OSM   H12T11819   0.888   6.198   5.204  0.0552  0.2526 -2.1619
  114OSM   C13S11820   0.706   6.116   5.134  0.4467 -0.1067 -0.0841
  114OSM   H13S11821   0.639   6.195   5.173 -2.2884 -2.3255  0.0637
  114OSM   H13T11822   0.657   6.016   5.144 -1.0988  0.5778 -0.5754
  114OSM   C14S11823   0.730   6.142   4.987 -0.1474  0.1488 -0.0818
  114OSM   H14S11824   0.804   6.073   4.942  0.8078  1.1620 -0.0798
  114OSM   H14T11825   0.773   6.244   4.983 -0.8901  0.5348  1.0827
  114OSM   C15S11826   0.598   6.145   4.906 -0.3122  0.4584  0.4816
  114OSM   H15S11827   0.519   6.210   4.950  0.2467  1.0432  0.6364
  114OSM   H15T11828   0.558   6.042   4.916  1.7537 -0.5628 -1.1052
  114OSM   C16S11829   0.629   6.174   4.758  0.1878 -0.7535  0.0362
  114OSM   H16S11830   0.684   6.093   4.705  0.0914  1.0643 -3.0676
  114OSM   H16T11831   0.684   6.270   4.757 -1.0770  0.0019  0.4169
  114OSM   C17S11832   0.500   6.197   4.678  0.8475 -0.2409  0.0445
  114OSM   H17S11833   0.522   6.220   4.572  0.8935 -2.9152 -0.6147
  114OSM   H17T11834   0.465   6.296   4.713 -0.2750 -0.8102  0.5839
  114OSM   C18S11835   0.399   6.084   4.686 -0.1357 -0.0502 -0.5839
  114OSM   H18S11836   0.322   6.086   4.607  0.5559 -0.8878 -1.3031
  114OSM   H18T11837   0.352   6.084   4.787 -0.3510  5.0638 -0.4204
  114OSM   H18U11838   0.458   5.991   4.672  3.9782  2.2134 -0.0341
  114OSM    C1F11839   0.739   6.717   5.983  0.1529  0.0307 -0.4514
  114OSM     OF11840   0.814   6.802   6.027  0.3195  0.0604  0.1000
  114OSM    C2F11841   0.638   6.760   5.879 -0.1764 -0.2645  0.1587
  114OSM    H2F11842   0.542   6.710   5.902 -0.0752 -0.4399  0.1976
  114OSM    H2G11843   0.676   6.729   5.779  0.2518  1.9712 -0.4363
  114OSM    C3F11844   0.603   6.916   5.892  0.0527 -0.9549  0.5361
  114OSM    H3F11845   0.694   6.978   5.881 -0.1995 -0.4686  1.1369
  114OSM    H3G11846   0.580   6.927   6.000  0.1654 -0.0577  0.4753
  114OSM    C4F11847   0.477   6.953   5.805 -0.3526  0.0698 -0.2104
  114OSM    H4F11848   0.475   7.063   5.812  0.0212  0.1110 -0.6972
  114OSM    H4G11849   0.381   6.929   5.856 -0.3976  3.0239  1.3109
  114OSM    C5F11850   0.493   6.911   5.662 -0.7633 -0.1726 -0.2871
  114OSM    H5F11851   0.524   6.805   5.647 -2.2977 -0.5413 -1.1330
  114OSM    H5G11852   0.573   6.970   5.613 -0.6102  0.0455  0.2197
  114OSM    C6F11853   0.373   6.949   5.571  0.0910 -0.1753 -0.4556
  114OSM    H6F11854   0.355   7.058   5.584  1.4027  0.1120 -0.8880
  114OSM    H6G11855   0.287   6.898   5.619  0.8387  0.3081  1.4922
  114OSM    C7F11856   0.381   6.897   5.429  0.6023  0.0927 -0.5974
  114OSM    H7F11857   0.382   6.786   5.436 -0.1030 -0.0359 -2.2009
  114OSM    H7G11858   0.488   6.919   5.409  0.2712  2.6881  0.1213
  114OSM    C8F11859   0.268   6.945   5.332 -0.5652 -0.3413 -0.4467
  114OSM    H8F11860   0.293   7.053   5.322  0.8557 -0.4965  0.9781
  114OSM    H8G11861   0.172   6.937   5.386  1.3385 -1.6278  3.0039
  114OSM    C9F11862   0.266   6.874   5.206 -0.1003 -0.2400  0.0625
  114OSM    H9F11863   0.363   6.884   5.154 -0.9036 -2.2050 -2.0417
  114OSM   C10F11864   0.161   6.812   5.141  0.5795 -0.4828 -0.5085
  114OSM   H10F11865   0.177   6.769   5.041  0.7770  0.8953 -1.0978
  114OSM   C11F11866   0.016   6.813   5.181  0.3446  0.1061 -0.1477
  114OSM   H11F11867  -0.061   6.820   5.102  0.7036  1.9008 -0.3694
  114OSM   H11G11868  -0.001   6.903   5.245 -0.4608 -0.6987  0.8090
  114OSM   C12F11869  -0.020   6.687   5.265  0.3140 -0.4497 -0.2240
  114OSM   H12F11870   0.003   6.600   5.199 -0.8177  0.0948 -1.3931
  114OSM   H12G11871  -0.128   6.680   5.290 -0.3910 -1.4500 -3.1427
  114OSM   C13F11872   0.061   6.662   5.395 -0.0794  0.3980 -0.1797
  114OSM   H13F11873   0.089   6.754   5.450 -1.1240 -0.1167  1.2975
  114OSM   H13G11874   0.158   6.620   5.363  1.3630  2.3218  1.4568
  114OSM   C14F11875  -0.020   6.584   5.503  0.2022  0.1387  0.7511
  114OSM   H14F11876  -0.112   6.541   5.457  1.6267 -0.7382 -1.4149
  114OSM   H14G11877  -0.073   6.657   5.568 -1.5872  0.5565 -1.0678
  114OSM   C15F11878   0.068   6.484   5.573 -0.8322 -0.4823 -0.8856
  114OSM   H15F11879   0.026   6.445   5.667  1.6255 -0.2826  0.3794
  114OSM   H15G11880   0.156   6.546   5.602  1.5076 -3.1594 -1.7679
  114OSM   C16F11881   0.103   6.368   5.472 -0.7563  0.1129 -0.1104
  114OSM   H16F11882   0.102   6.405   5.367  0.4849 -0.9302 -0.5207
  114OSM   H16G11883   0.021   6.292   5.475 -0.6817  0.0566  1.8358
  114OSM   C17F11884   0.236   6.299   5.516 -0.2759  0.0564 -0.1367
  114OSM   H17F11885   0.309   6.382   5.528  1.3514 -0.5637 -4.1854
  114OSM   H17G11886   0.270   6.241   5.428 -2.6490 -2.5311  0.4997
  114OSM   C18F11887   0.211   6.197   5.631  0.0403 -0.2980 -0.3093
  114OSM   H18F11888   0.294   6.196   5.706  1.7170  1.0624 -2.0490
  114OSM   H18G11889   0.199   6.095   5.589 -2.4257 -0.0715 -0.2878
  114OSM   H18H11890   0.118   6.228   5.683  1.1886  1.8696  0.5912
  115OSM      N11891   5.742   1.282   6.163  0.0778  0.3747  0.4223
  115OSM    C1511892   5.617   1.289   6.242  0.5291  0.1415 -0.1770
  115OSM   H15A11893   5.618   1.225   6.329  1.5053  1.2313  0.6444
  115OSM   H15B11894   5.531   1.266   6.181 -0.3013 -0.2087  1.0874
  115OSM   H15C11895   5.618   1.388   6.285 -2.3750  0.6025 -0.9854
  115OSM    C1411896   5.854   1.302   6.264 -0.0059  0.7611 -0.1984
  115OSM   H14A11897   5.843   1.397   6.313  2.2895  1.1774 -0.3450
  115OSM   H14B11898   5.945   1.311   6.206 -1.3730  0.3250 -2.5251
  115OSM   H14C11899   5.859   1.216   6.330  3.7785  0.7893 -0.1923
  115OSM    C1311900   5.767   1.153   6.093 -0.1256 -0.4309  0.7897
  115OSM   H13A11901   5.858   1.152   6.036 -0.8597  0.4812 -0.4493
  115OSM   H13B11902   5.696   1.143   6.012  1.5960  1.9437 -1.1764
  115OSM   H13C11903   5.757   1.069   6.160 -1.1468 -0.4967  0.5750
  115OSM    C1211904   5.735   1.398   6.060  0.2541  0.1291  0.4534
  115OSM   H12A11905   5.702   1.489   6.109  1.0001 -0.4351  2.0953
  115OSM   H12B11906   5.657   1.368   5.993  1.4683  1.1210 -1.4830
  115OSM    C1111907   5.858   1.431   5.976  0.1042 -1.1140 -0.4503
  115OSM   H11A11908   5.821   1.492   5.891  0.7272  0.7458  0.5535
  115OSM   H11B11909   5.902   1.342   5.927 -0.7539 -2.8439  1.7610
  115OSM      P11910   5.971   1.648   6.068  0.5492  0.1467 -0.1030
  115OSM    O1311911   5.845   1.715   6.039 -0.0711  0.4312 -0.6578
  115OSM    O1411912   6.031   1.687   6.193 -0.7035  0.5574  0.1572
  115OSM    O1111913   6.057   1.692   5.951  0.3461  0.1568  0.2515
  115OSM    O1211914   5.959   1.492   6.055 -0.2820 -0.4636 -0.1097
  115OSM    C1S11915   6.012   1.667   5.820  0.4476  0.0562 -0.5262
  115OSM    H1S11916   5.904   1.683   5.799 -0.0274  0.0417  1.7343
  115OSM    H1T11917   6.031   1.562   5.790 -0.7516 -0.9166  1.8598
  115OSM     NF11918   6.023   1.746   5.586  0.2981 -0.7258 -0.2763
  115OSM    HNF11919   6.064   1.688   5.516 -3.2184 -2.2935 -1.2469
  115OSM    C2S11920   6.092   1.757   5.715 -0.5194 -0.3747  0.2978
  115OSM    H2S11921   6.094   1.861   5.753  0.4222 -0.2854  0.0268
  115OSM    C3S11922   6.238   1.711   5.712 -0.0142 -0.0004  0.3456
  115OSM    H3S11923   6.240   1.605   5.679 -1.8814 -0.3114  1.1184
  115OSM     O311924   6.305   1.716   5.835 -0.1532  0.1590 -0.2137
  115OSM    HO311925   6.233   1.723   5.898 -1.4885 -0.6937 -1.5424
  115OSM    C4S11926   6.315   1.787   5.607 -0.0148  0.1016  0.5036
  115OSM    H4S11927   6.319   1.732   5.512  2.2560 -0.9891  1.1452
  115OSM    C5S11928   6.385   1.899   5.618 -0.5749 -0.5259  0.6047
  115OSM    H5S11929   6.409   1.942   5.716  1.4121 -1.2020  0.4619
  115OSM    C6S11930   6.445   1.979   5.501 -0.6948 -0.0901 -1.1851
  115OSM    H6S11931   6.555   1.968   5.486 -0.6678  1.9486 -2.8385
  115OSM    H6T11932   6.422   2.085   5.526  0.6112  0.0290 -0.3346
  115OSM    C7S11933   6.379   1.961   5.360  0.5762  0.5743 -0.2342
  115OSM    H7S11934   6.387   2.063   5.315  2.9481 -0.1514 -1.6906
  115OSM    H7T11935   6.272   1.953   5.386  0.8662 -2.4213  0.3239
  115OSM    C8S11936   6.424   1.843   5.268 -0.1357 -0.2917 -0.1418
  115OSM    H8S11937   6.405   1.743   5.311 -3.5636  1.1391  2.1559
  115OSM    H8T11938   6.534   1.849   5.263 -0.1838  0.8084 -0.2156
  115OSM    C9S11939   6.358   1.842   5.131 -0.0201 -0.4812  0.1223
  115OSM    H9S11940   6.375   1.941   5.084  2.6805 -0.0935  1.6917
  115OSM    H9T11941   6.250   1.818   5.136 -0.0538 -0.2100  0.8642
  115OSM   C10S11942   6.430   1.750   5.025 -0.2578  0.0226 -0.1035
  115OSM   H10S11943   6.456   1.652   5.071 -2.7783 -0.4761  0.3942
  115OSM   H10T11944   6.526   1.804   5.010  0.0066  0.2605  2.0726
  115OSM   C11S11945   6.344   1.743   4.896 -0.4057  0.1284  0.5445
  115OSM   H11S11946   6.301   1.843   4.873 -0.0479  0.2091  0.2189
  115OSM   H11T11947   6.260   1.671   4.906 -0.5599  0.3692  0.9909
  115OSM   C12S11948   6.432   1.715   4.766  0.3992 -0.3782  0.4288
  115OSM   H12S11949   6.478   1.614   4.769  0.2507 -0.4603  0.0366
  115OSM   H12T11950   6.513   1.791   4.759 -0.7584  0.9497  0.9195
  115OSM   C13S11951   6.357   1.737   4.632 -0.3749 -0.3115  0.3083
  115OSM   H13S11952   6.433   1.747   4.552 -3.1731  0.0844 -2.4964
  115OSM   H13T11953   6.290   1.825   4.640 -0.5416 -0.5257  1.5225
  115OSM   C14S11954   6.273   1.610   4.605 -0.4752  0.7826  0.7379
  115OSM   H14S11955   6.197   1.610   4.687 -1.7391 -0.6669 -0.3673
  115OSM   H14T11956   6.351   1.530   4.607 -1.5704 -0.3736 -0.6870
  115OSM   C15S11957   6.199   1.608   4.475 -0.3232 -0.1666  0.1374
  115OSM   H15S11958   6.166   1.713   4.458  0.5280 -0.1694 -1.7246
  115OSM   H15T11959   6.105   1.549   4.487  0.7747 -1.8168  1.1127
  115OSM   C16S11960   6.279   1.557   4.357 -0.1284 -0.2244  0.0332
  115OSM   H16S11961   6.288   1.448   4.378  0.9630 -0.9407 -3.5326
  115OSM   H16T11962   6.381   1.599   4.352  0.8326 -2.4120  0.4307
  115OSM   C17S11963   6.218   1.588   4.212 -0.2602  0.0704  0.1667
  115OSM   H17S11964   6.115   1.548   4.203 -0.0738  0.1275 -3.9538
  115OSM   H17T11965   6.285   1.532   4.143 -0.1828  1.2405 -0.7394
  115OSM   C18S11966   6.223   1.731   4.166  0.6065 -0.1150  0.7945
  115OSM   H18S11967   6.146   1.794   4.215 -1.1147 -0.8974 -0.8014
  115OSM   H18T11968   6.208   1.743   4.056 -1.5164 -1.3574  0.8860
  115OSM   H18U11969   6.327   1.767   4.182  1.9249 -2.1364 -2.2981
  115OSM    C1F11970   5.903   1.803   5.558 -0.5490  0.5946  0.7314
  115OSM     OF11971   5.859   1.892   5.622 -0.1721  0.4241 -0.3650
  115OSM    C2F11972   5.827   1.745   5.438  0.4304  0.2998  0.4818
  115OSM    H2F11973   5.724   1.784   5.455 -0.0451 -0.8067  0.2637
  115OSM    H2G11974   5.825   1.634   5.439  1.2192  0.2108 -1.7657
  115OSM    C3F11975   5.883   1.790   5.302  0.1373  0.8238  0.0676
  115OSM    H3F11976   5.988   1.754   5.293  1.0153  2.8126  1.6639
  115OSM    H3G11977   5.879   1.900   5.294 -1.9548  0.7467 -0.7186
  115OSM    C4F11978   5.805   1.723   5.189 -0.4049 -0.6729 -0.0405
  115OSM    H4F11979   5.706   1.771   5.197  0.9603  2.2523  0.5458
  115OSM    H4G11980   5.797   1.612   5.187 -2.6888 -0.5530  0.0695
  115OSM    C5F11981   5.869   1.761   5.057 -0.1880 -1.2896  0.2374
  115OSM    H5F11982   5.970   1.716   5.051  1.0646  1.3544  0.0046
  115OSM    H5G11983   5.882   1.871   5.049  2.8876 -1.5396  0.7707
  115OSM    C6F11984   5.789   1.714   4.930  0.8078 -0.3771  0.1734
  115OSM    H6F11985   5.684   1.747   4.939  1.0289 -0.2464  2.8837
  115OSM    H6G11986   5.782   1.603   4.935  2.0640 -0.5625 -1.2051
  115OSM    C7F11987   5.851   1.751   4.799  0.2668 -0.2841  0.6456
  115OSM    H7F11988   5.955   1.711   4.797  0.2485 -0.3061 -0.1001
  115OSM    H7G11989   5.850   1.862   4.797 -0.8682 -0.1443 -4.2786
  115OSM    C8F11990   5.791   1.695   4.662 -0.1762  0.2395 -0.4746
  115OSM    H8F11991   5.846   1.743   4.579 -1.0188  2.7777  0.3382
  115OSM    H8G11992   5.685   1.726   4.652 -0.1374  0.0876 -1.3777
  115OSM    C9F11993   5.797   1.550   4.642 -0.1954 -0.3610  0.9899
  115OSM    H9F11994   5.785   1.503   4.741  2.5710 -0.5634  1.3039
  115OSM   C10F11995   5.812   1.476   4.527 -0.6437  0.3247 -0.0279
  115OSM   H10F11996   5.814   1.367   4.534  0.7285  0.3395  0.0835
  115OSM   C11F11997   5.834   1.526   4.384  0.2162 -0.9513  0.6322
  115OSM   H11F11998   5.934   1.492   4.347  0.9684  1.0305  0.6805
  115OSM   H11G11999   5.846   1.637   4.379 -1.5855 -0.6037  2.8010
  115OSM   C12F12000   5.729   1.483   4.279  0.2359 -0.2480  0.8603
  115OSM   H12F12001   5.717   1.372   4.274  1.6482 -0.3860 -0.8474
  115OSM   H12G12002   5.761   1.523   4.180  3.1530  1.6287  2.4192
  115OSM   C13F12003   5.594   1.549   4.303  0.1104  0.6439  0.4126
  115OSM   H13F12004   5.602   1.657   4.330 -2.6888  1.0111  0.0389
  115OSM   H13G12005   5.538   1.506   4.388  0.5799  0.7782  0.7948
  115OSM   C14F12006   5.488   1.530   4.180  0.1497 -1.1244 -0.3247
  115OSM   H14F12007   5.534   1.560   4.083  0.3822  1.5741  0.5315
  115OSM   H14G12008   5.400   1.594   4.203  1.1504  0.4323 -0.7010
  115OSM   C15F12009   5.446   1.384   4.174  0.2440  0.1204 -0.3616
  115OSM   H15F12010   5.404   1.358   4.273  0.1997 -1.5822 -0.8010
  115OSM   H15G12011   5.538   1.322   4.165  0.0220 -0.2882  0.1504
  115OSM   C16F12012   5.340   1.350   4.063 -0.8143 -0.0058  0.3132
  115OSM   H16F12013   5.397   1.311   3.976 -0.7077 -0.3076  0.5168
  115OSM   H16G12014   5.287   1.443   4.032  0.2847  0.5250  0.0050
  115OSM   C17F12015   5.237   1.253   4.119  0.3999 -0.1492  0.9221
  115OSM   H17F12016   5.188   1.309   4.201 -2.6232  1.6909 -1.9069
  115OSM   H17G12017   5.282   1.164   4.169  1.5010  1.0962  2.2696
  115OSM   C18F12018   5.138   1.230   4.003  0.7713  0.2201 -0.3542
  115OSM   H18F12019   5.044   1.182   4.036  0.6306  1.4354  1.1063
  115OSM   H18G12020   5.189   1.159   3.934  2.9031 -0.9071  2.2148
  115OSM   H18H12021   5.122   1.324   3.946 -1.1033  0.2244  0.1239
  116OSM      N12022   2.048   0.232   6.614  0.3066 -0.0504 -0.1114
  116OSM    C1512023   2.177   0.178   6.667  0.1649 -0.3322 -0.1763
  116OSM   H15A12024   2.198   0.213   6.767  0.0995  1.4960 -0.7586
  116OSM   H15B12025   2.259   0.215   6.606 -0.2152  1.5817  0.4002
  116OSM   H15C12026   2.176   0.070   6.667 -2.0994 -0.3606  0.4034
  116OSM    C1412027   1.941   0.161   6.691  0.0462 -0.2114 -0.2282
  116OSM   H14A12028   1.969   0.161   6.795  1.9161  2.5130 -0.6261
  116OSM   H14B12029   1.943   0.054   6.672 -1.2399 -0.2230 -0.4161
  116OSM   H14C12030   1.843   0.204   6.675 -0.2398  0.6514  3.0880
  116OSM    C1312031   2.038   0.383   6.640  0.7004  0.2553  0.1490
  116OSM   H13A12032   2.114   0.443   6.592  1.0284 -0.5991 -0.4250
  116OSM   H13B12033   2.032   0.396   6.747  0.1465  2.0508 -0.0677
  116OSM   H13C12034   1.943   0.419   6.601 -0.6702 -2.7736  0.3901
  116OSM    C1212035   2.024   0.204   6.464 -0.6594 -0.1957  0.1470
  116OSM   H12A12036   2.052   0.102   6.443 -0.0029 -0.0038  0.0522
  116OSM   H12B12037   2.101   0.265   6.419 -0.0145 -0.8638  0.3166
  116OSM    C1112038   1.885   0.234   6.401 -0.4504  0.5323  0.5677
  116OSM   H11A12039   1.810   0.168   6.451 -0.8540 -1.6708 -2.6827
  116OSM   H11B12040   1.888   0.206   6.294 -1.2253  1.2565  0.3476
  116OSM      P12041   1.874   0.499   6.330  0.1614 -0.0866 -0.0951
  116OSM    O1312042   1.750   0.555   6.276  0.1463  0.4094  0.3946
  116OSM    O1412043   1.964   0.596   6.397 -0.3240  0.2703  0.7382
  116OSM    O1112044   1.957   0.446   6.208 -0.2316 -0.6236  0.1555
  116OSM    O1212045   1.848   0.374   6.419 -0.1760  0.6642 -0.3998
  116OSM    C1S12046   1.912   0.495   6.081  0.9502  0.3163  0.1321
  116OSM    H1S12047   1.922   0.606   6.074 -0.7047  0.5845  1.3829
  116OSM    H1T12048   1.808   0.463   6.057  0.8337  1.8685 -1.6626
  116OSM     NF12049   1.954   0.472   5.831  0.4717  0.0283  0.0016
  116OSM    HNF12050   1.902   0.400   5.786  0.8921  0.3762 -1.0893
  116OSM    C2S12051   1.994   0.431   5.958 -0.3350 -0.3913 -0.3269
  116OSM    H2S12052   2.099   0.460   5.982  0.8364 -3.2432 -1.6064
  116OSM    C3S12053   1.991   0.278   5.971 -0.3040 -0.0381  0.3697
  116OSM    H3S12054   1.885   0.247   5.959  0.4742 -2.5060 -0.6155
  116OSM     O312055   2.038   0.220   6.097 -0.3628 -0.3549 -0.2771
  116OSM    HO312056   2.039   0.290   6.162  1.0398  0.0414 -0.6773
  116OSM    C4S12057   2.084   0.215   5.867  0.6662 -0.1032  0.1504
  116OSM    H4S12058   2.193   0.229   5.876  0.8196 -1.3796  0.4984
  116OSM    C5S12059   2.050   0.124   5.773  0.4697  0.2800 -0.3081
  116OSM    H5S12060   1.945   0.097   5.751  0.2475 -0.1403  1.1850
  116OSM    C6S12061   2.155   0.054   5.693 -0.8816  0.4347 -0.1967
  116OSM    H6S12062   2.256   0.097   5.705 -0.1715 -1.7496  2.5686
  116OSM    H6T12063   2.121   0.044   5.587 -1.2375  0.5531 -0.0948
  116OSM    C7S12064   2.190  -0.091   5.746  0.1266  0.7442 -0.3472
  116OSM    H7S12065   2.252  -0.138   5.667  1.4110  3.6474 -1.2349
  116OSM    H7T12066   2.097  -0.150   5.753  0.1717  0.2993 -2.6824
  116OSM    C8S12067   2.273  -0.104   5.873  0.0082 -0.5628 -0.2884
  116OSM    H8S12068   2.216  -0.070   5.962 -2.1582 -2.8427 -0.6981
  116OSM    H8T12069   2.361  -0.039   5.852 -0.5132  0.0038 -0.7660
  116OSM    C9S12070   2.312  -0.257   5.902 -1.1078 -0.5823  0.8268
  116OSM    H9S12071   2.381  -0.258   5.988  0.5902  3.7976 -0.2265
  116OSM    H9T12072   2.364  -0.293   5.810  1.6964  0.9586  1.6800
  116OSM   C10S12073   2.185  -0.341   5.943  0.7563 -0.2935  0.2288
  116OSM   H10S12074   2.094  -0.316   5.885  1.0871  0.5298  0.0595
  116OSM   H10T12075   2.178  -0.311   6.050  0.2672 -1.3541  0.5080
  116OSM   C11S12076   2.195  -0.496   5.933  0.0877  0.3174  0.2412
  116OSM   H11S12077   2.124  -0.539   6.007 -1.7361 -0.6034 -1.8979
  116OSM   H11T12078   2.297  -0.518   5.970  0.6400  1.0618 -0.8025
  116OSM   C12S12079   2.163  -0.558   5.794  0.4977  0.4826  0.5087
  116OSM   H12S12080   2.147  -0.668   5.797 -2.4236  0.8064  0.0215
  116OSM   H12T12081   2.245  -0.523   5.728  0.0287 -0.2005 -0.4504
  116OSM   C13S12082   2.025  -0.507   5.730  0.2770  0.2280  0.5434
  116OSM   H13S12083   2.015  -0.397   5.718 -1.7002 -0.0143 -0.5618
  116OSM   H13T12084   1.952  -0.539   5.807  0.3452  0.4620  0.7063
  116OSM   C14S12085   1.985  -0.576   5.596  0.9901  0.0359  0.2393
  116OSM   H14S12086   1.880  -0.551   5.569  0.4567 -1.3905  0.8819
  116OSM   H14T12087   1.971  -0.681   5.629  2.4828  0.8335  3.8355
  116OSM   C15S12088   2.076  -0.530   5.480 -0.4628  0.0613 -0.4376
  116OSM   H15S12089   2.157  -0.467   5.523 -1.2734  0.5423  0.4229
  116OSM   H15T12090   2.025  -0.456   5.415  1.4493  1.5011 -0.3954
  116OSM   C16S12091   2.134  -0.633   5.375  1.1025 -0.4060 -0.2004
  116OSM   H16S12092   2.190  -0.581   5.294 -0.5286 -0.7229 -1.5890
  116OSM   H16T12093   2.040  -0.674   5.331  0.0638 -0.8592  2.3021
  116OSM   C17S12094   2.214  -0.735   5.442  0.4866 -0.1432 -0.2084
  116OSM   H17S12095   2.138  -0.758   5.521 -0.5397 -0.3415 -1.2312
  116OSM   H17T12096   2.306  -0.690   5.484  0.7193 -0.5608 -0.2640
  116OSM   C18S12097   2.246  -0.846   5.342 -0.1402  0.1668  0.2384
  116OSM   H18S12098   2.259  -0.941   5.398  0.7305 -0.7429 -1.4137
  116OSM   H18T12099   2.337  -0.814   5.286 -1.3002  1.7200 -0.8845
  116OSM   H18U12100   2.164  -0.856   5.268 -0.0856 -1.5367  0.3842
  116OSM    C1F12101   1.959   0.592   5.779 -0.1659  0.0153 -0.5149
  116OSM     OF12102   1.996   0.689   5.844 -0.0841 -0.4469 -0.4391
  116OSM    C2F12103   1.893   0.601   5.642 -0.8990  0.6301  0.3454
  116OSM    H2F12104   1.793   0.553   5.654 -0.4031 -0.2395  1.2120
  116OSM    H2G12105   1.947   0.538   5.568 -0.3425 -3.2574  3.7058
  116OSM    C3F12106   1.855   0.738   5.587 -0.8397  0.1855 -0.0716
  116OSM    H3F12107   1.948   0.799   5.574 -0.5711 -0.4398 -1.2257
  116OSM    H3G12108   1.804   0.804   5.661  1.3781 -0.1163  1.8418
  116OSM    C4F12109   1.776   0.736   5.448 -0.6251  0.0436 -0.1875
  116OSM    H4F12110   1.736   0.835   5.418 -0.7929  0.5646  1.6621
  116OSM    H4G12111   1.696   0.662   5.468 -1.2667  0.9609  0.7600
  116OSM    C5F12112   1.861   0.677   5.331  0.2139 -0.0980  0.3294
  116OSM    H5F12113   1.920   0.588   5.359 -0.4396 -1.0042 -1.0916
  116OSM    H5G12114   1.941   0.751   5.310 -0.0449  0.5461  1.5302
  116OSM    C6F12115   1.769   0.641   5.216  0.3254  1.4919  0.2699
  116OSM    H6F12116   1.706   0.725   5.180  2.1312  2.1931 -1.4870
  116OSM    H6G12117   1.708   0.557   5.255  0.5738  1.7880  1.3306
  116OSM    C7F12118   1.861   0.584   5.105 -0.0270 -0.0711  0.1814
  116OSM    H7F12119   1.892   0.482   5.137 -0.2391  0.4684  2.2850
  116OSM    H7G12120   1.959   0.636   5.103 -0.0825  0.0065 -0.5450
  116OSM    C8F12121   1.802   0.591   4.963  0.5165 -0.0768  0.7908
  116OSM    H8F12122   1.787   0.697   4.931  0.7345 -1.1620 -3.5859
  116OSM    H8G12123   1.703   0.542   4.954  0.2621  0.6483 -0.7305
  116OSM    C9F12124   1.880   0.529   4.850  0.2694  0.9011  0.2032
  116OSM    H9F12125   1.939   0.442   4.881 -1.8138 -0.2147  1.2635
  116OSM   C10F12126   1.890   0.567   4.723 -0.0404 -0.5939  0.1231
  116OSM   H10F12127   1.933   0.497   4.651  1.1526 -0.6811  0.8972
  116OSM   C11F12128   1.810   0.676   4.659 -0.9396 -0.1436 -0.7473
  116OSM   H11F12129   1.882   0.748   4.613  1.0202 -1.4403  0.1689
  116OSM   H11G12130   1.746   0.733   4.730 -1.8857 -0.9352 -0.9488
  116OSM   C12F12131   1.717   0.636   4.538  0.1430 -0.3340  0.0203
  116OSM   H12F12132   1.639   0.567   4.576 -2.5515  1.7210 -1.3862
  116OSM   H12G12133   1.766   0.573   4.460  0.3780 -0.4311  0.2437
  116OSM   C13F12134   1.644   0.756   4.485  0.7902  0.2342  0.2469
  116OSM   H13F12135   1.717   0.834   4.452 -0.0593  1.5386  1.3448
  116OSM   H13G12136   1.581   0.798   4.566  0.0224  1.0314 -0.7255
  116OSM   C14F12137   1.541   0.722   4.379 -0.6532 -0.3518 -0.2304
  116OSM   H14F12138   1.482   0.636   4.416 -0.1964 -0.5493  0.0406
  116OSM   H14G12139   1.605   0.689   4.294  0.9343  0.6814  0.5250
  116OSM   C15F12140   1.450   0.834   4.328 -0.5130  0.0560  0.5564
  116OSM   H15F12141   1.505   0.931   4.334  1.2240 -0.7899 -0.9401
  116OSM   H15G12142   1.359   0.836   4.392  0.2855  2.9373  1.7902
  116OSM   C16F12143   1.416   0.821   4.178 -0.2144 -0.3064 -0.0141
  116OSM   H16F12144   1.347   0.901   4.142 -0.1194 -1.1170 -2.0812
  116OSM   H16G12145   1.343   0.739   4.167  0.4084 -1.0090  0.9567
  116OSM   C17F12146   1.530   0.824   4.078 -0.3618 -0.0024  0.2298
  116OSM   H17F12147   1.609   0.758   4.118  0.3910  1.5275  1.3800
  116OSM   H17G12148   1.571   0.927   4.073 -1.6333  0.4833 -0.9946
  116OSM   C18F12149   1.496   0.771   3.938  0.2120  0.4661  0.6712
  116OSM   H18F12150   1.585   0.774   3.872  2.4478 -0.6081  3.4193
  116OSM   H18G12151   1.421   0.837   3.890  0.1229 -0.9324 -1.2099
  116OSM   H18H12152   1.453   0.669   3.940 -1.1702  0.9235 -1.5120
  117OSM      N12153   0.635   3.235   6.287  0.7313  0.4140  0.4401
  117OSM    C1512154   0.544   3.160   6.380  0.4803 -0.0528  0.3252
  117OSM   H15A12155   0.461   3.120   6.324  0.2482  1.6163 -0.5828
  117OSM   H15B12156   0.507   3.219   6.462 -1.1252  1.7450 -1.5687
  117OSM   H15C12157   0.588   3.075   6.429  0.2045  0.1193  0.8692
  117OSM    C1412158   0.763   3.258   6.369 -0.4320  0.4616 -0.1198
  117OSM   H14A12159   0.758   3.293   6.471  0.7702 -1.6471  0.7256
  117OSM   H14B12160   0.826   3.318   6.304  0.6900 -1.5227 -0.9578
  117OSM   H14C12161   0.800   3.157   6.374  0.6542  0.6489 -2.6078
  117OSM    C1312162   0.662   3.152   6.166  0.1531 -1.0843  0.0477
  117OSM   H13A12163   0.730   3.206   6.101  1.4908 -0.8678  1.5601
  117OSM   H13B12164   0.569   3.124   6.119  0.1292 -1.5119  0.3443
  117OSM   H13C12165   0.714   3.062   6.195  0.7687 -0.1043  2.1889
  117OSM    C1212166   0.550   3.361   6.251  0.2388 -0.6239 -0.9249
  117OSM   H12A12167   0.552   3.415   6.344  0.4926  0.5307 -1.5779
  117OSM   H12B12168   0.448   3.331   6.232 -0.7579  1.3213  0.9402
  117OSM    C1112169   0.597   3.460   6.138  0.6143 -0.0172  0.2341
  117OSM   H11A12170   0.531   3.549   6.128  0.3466 -0.2715 -0.2904
  117OSM   H11B12171   0.586   3.393   6.050 -0.6357  0.8355 -0.2793
  117OSM      P12172   0.762   3.608   6.266 -0.0009  0.4089  0.1816
  117OSM    O1312173   0.673   3.610   6.391 -0.1955 -0.1563  0.3645
  117OSM    O1412174   0.911   3.606   6.299 -0.2525  0.5792  0.2816
  117OSM    O1112175   0.740   3.744   6.192 -0.1353  0.0647 -0.5097
  117OSM    O1212176   0.731   3.500   6.155  1.0188  0.1132  0.4270
  117OSM    C1S12177   0.838   3.800   6.101 -0.1208 -0.0112  0.2412
  117OSM    H1S12178   0.925   3.731   6.092  0.2637  0.6828 -1.8607
  117OSM    H1T12179   0.883   3.896   6.135  0.5306  0.4297 -1.7143
  117OSM     NF12180   0.871   3.876   5.858 -0.8351  0.1542 -0.7323
  117OSM    HNF12181   0.863   3.970   5.826 -0.6385 -0.6580 -3.4464
  117OSM    C2S12182   0.778   3.825   5.957  0.1737  0.0337 -0.1914
  117OSM    H2S12183   0.731   3.734   5.914  1.5867 -0.2507 -1.1976
  117OSM    C3S12184   0.654   3.926   5.966  0.5111  0.2319  0.0930
  117OSM    H3S12185   0.702   4.022   5.995  1.1993 -0.0877  0.0343
  117OSM     O312186   0.557   3.910   6.070  0.3121 -0.0768 -0.0172
  117OSM    HO312187   0.608   3.854   6.129  0.7844  0.0618 -0.2973
  117OSM    C4S12188   0.588   3.942   5.826 -0.9046 -0.0876  0.0212
  117OSM    H4S12189   0.639   4.007   5.754 -1.2741  2.0060  1.5529
  117OSM    C5S12190   0.479   3.875   5.795 -0.9771  0.1031 -0.7044
  117OSM    H5S12191   0.443   3.798   5.865  0.1336 -1.4710 -1.7975
  117OSM    C6S12192   0.417   3.873   5.663  0.0947 -0.0444  0.1719
  117OSM    H6S12193   0.312   3.908   5.663 -0.4072 -1.1114  4.0967
  117OSM    H6T12194   0.412   3.765   5.637 -0.2392  0.5556 -2.4969
  117OSM    C7S12195   0.494   3.953   5.555  0.1540 -0.2710  0.0321
  117OSM    H7S12196   0.603   3.932   5.547  0.7089  1.9000  1.2600
  117OSM    H7T12197   0.492   4.061   5.581  0.9704  0.1571 -1.5814
  117OSM    C8S12198   0.435   3.929   5.417 -0.5643 -0.2253 -0.0733
  117OSM    H8S12199   0.325   3.941   5.411 -0.5496 -0.1181 -0.1341
  117OSM    H8T12200   0.453   3.824   5.386  1.5969 -0.1115  0.6123
  117OSM    C9S12201   0.493   4.022   5.310  0.1234 -0.4611 -0.3430
  117OSM    H9S12202   0.603   4.016   5.300  0.0098 -1.9869 -0.9286
  117OSM    H9T12203   0.466   4.127   5.336  0.6879 -0.5632  0.7347
  117OSM   C10S12204   0.427   3.986   5.175  0.1249  0.7158 -0.1861
  117OSM   H10S12205   0.317   3.974   5.182  0.4459 -2.0351  1.6670
  117OSM   H10T12206   0.468   3.883   5.168  0.1146  0.6274  0.8574
  117OSM   C11S12207   0.478   4.075   5.058 -0.3456 -0.3363 -0.6596
  117OSM   H11S12208   0.455   4.183   5.062  1.5997  0.1320 -0.9893
  117OSM   H11T12209   0.413   4.032   4.978  0.1451  0.5814 -1.5704
  117OSM   C12S12210   0.628   4.055   5.025  0.5820  0.5299 -0.0195
  117OSM   H12S12211   0.644   3.945   5.035 -0.0841  0.4780  0.6054
  117OSM   H12T12212   0.685   4.115   5.100 -2.3755  2.1257  1.1391
  117OSM   C13S12213   0.667   4.098   4.884  0.3440  0.6946  1.0462
  117OSM   H13S12214   0.773   4.129   4.874  1.0654 -1.6837  0.6057
  117OSM   H13T12215   0.602   4.184   4.857 -1.1021 -0.2792  1.3216
  117OSM   C14S12216   0.635   3.993   4.770 -0.4102 -0.0842  0.1430
  117OSM   H14S12217   0.531   3.959   4.784 -0.0133 -0.5070  2.4675
  117OSM   H14T12218   0.689   3.901   4.802 -0.0986  0.3996  1.0312
  117OSM   C15S12219   0.690   4.019   4.627  0.3531  0.4765  0.5676
  117OSM   H15S12220   0.801   4.011   4.619  0.3978  1.9080 -1.0345
  117OSM   H15T12221   0.660   4.121   4.595  2.3964  1.2833  1.0293
  117OSM   C16S12222   0.632   3.921   4.521 -0.1664  0.8027  0.1892
  117OSM   H16S12223   0.611   3.825   4.572  1.9612  0.1756 -0.0020
  117OSM   H16T12224   0.715   3.898   4.450  0.8081  0.4458  1.4244
  117OSM   C17S12225   0.515   3.971   4.437  0.6410  0.0320  0.2703
  117OSM   H17S12226   0.545   4.064   4.385 -0.1706  0.5831  0.7721
  117OSM   H17T12227   0.423   3.981   4.499  1.5627 -0.2319  1.7117
  117OSM   C18S12228   0.482   3.868   4.326  0.0375 -0.4750  0.2112
  117OSM   H18S12229   0.573   3.854   4.265 -1.3478 -0.5331 -1.9201
  117OSM   H18T12230   0.394   3.893   4.264 -0.3072  3.6482  2.0279
  117OSM   H18U12231   0.467   3.770   4.377 -1.7289 -1.2436 -1.6538
  117OSM    C1F12232   0.957   3.784   5.817 -0.3704  0.0775  0.2216
  117OSM     OF12233   0.932   3.668   5.845  0.3148  0.3280  0.4159
  117OSM    C2F12234   1.082   3.828   5.743  0.4237 -0.0839 -1.4030
  117OSM    H2F12235   1.174   3.798   5.797 -0.1652  0.8349  0.1973
  117OSM    H2G12236   1.084   3.939   5.734  0.6186 -0.0543 -1.0070
  117OSM    C3F12237   1.094   3.748   5.609 -0.3906 -0.5310  0.5338
  117OSM    H3F12238   0.993   3.746   5.563 -0.1229  1.4331 -0.2509
  117OSM    H3G12239   1.130   3.645   5.630  2.0035  0.2945  0.7954
  117OSM    C4F12240   1.198   3.816   5.523 -0.1388  0.3287  0.2458
  117OSM    H4F12241   1.297   3.820   5.574 -0.2618  0.8377  0.4551
  117OSM    H4G12242   1.163   3.922   5.520 -1.7947 -0.1356  1.5998
  117OSM    C5F12243   1.202   3.770   5.376  0.3042 -0.0762  0.2218
  117OSM    H5F12244   1.101   3.783   5.333  0.3121  2.7768  0.8770
  117OSM    H5G12245   1.231   3.663   5.365  0.4128 -0.1447  1.1063
  117OSM    C6F12246   1.294   3.851   5.282  0.4952  1.2176  0.1534
  117OSM    H6F12247   1.400   3.834   5.313  0.1592  1.2475  1.3688
  117OSM    H6G12248   1.277   3.959   5.302 -0.0403  1.1667 -0.0189
  117OSM    C7F12249   1.269   3.820   5.131 -0.1997 -0.3612  0.2871
  117OSM    H7F12250   1.168   3.844   5.092 -0.0073 -1.2448 -0.8107
  117OSM    H7G12251   1.283   3.710   5.119  2.2045  0.1640 -3.5933
  117OSM    C8F12252   1.370   3.901   5.037 -0.7227 -0.5117  0.5143
  117OSM    H8F12253   1.469   3.919   5.086 -0.4922  1.3747 -0.5242
  117OSM    H8G12254   1.335   4.006   5.030  0.8798  0.1156  1.4487
  117OSM    C9F12255   1.394   3.838   4.902  0.0461  0.7370  0.2031
  117OSM    H9F12256   1.472   3.761   4.905  0.4751  1.1296 -0.3964
  117OSM   C10F12257   1.335   3.862   4.788  1.2438 -0.2054  0.6100
  117OSM   H10F12258   1.366   3.800   4.703 -1.3833 -0.6710 -0.0879
  117OSM   C11F12259   1.220   3.955   4.756  0.5407  1.3198 -0.4625
  117OSM   H11F12260   1.247   4.063   4.749 -0.5609  1.4801 -2.9545
  117OSM   H11G12261   1.155   3.943   4.845 -0.2090  2.4819 -0.8379
  117OSM   C12F12262   1.144   3.907   4.632 -0.1080 -0.1676  0.6742
  117OSM   H12F12263   1.044   3.956   4.631 -0.6000 -1.0892  1.8609
  117OSM   H12G12264   1.113   3.801   4.627  1.0180 -0.4787 -0.2940
  117OSM   C13F12265   1.228   3.951   4.505  0.5430 -0.0464 -0.4286
  117OSM   H13F12266   1.321   3.893   4.491  0.8588  0.3901 -0.1890
  117OSM   H13G12267   1.277   4.049   4.522  1.7240 -0.8429  0.9887
  117OSM   C14F12268   1.164   3.953   4.367  0.3708 -0.5642 -0.1477
  117OSM   H14F12269   1.145   3.847   4.340  1.8268 -0.4690 -1.7484
  117OSM   H14G12270   1.241   4.002   4.303 -1.5202  0.4882 -1.7456
  117OSM   C15F12271   1.039   4.046   4.353  0.8029  0.7377 -0.0443
  117OSM   H15F12272   1.066   4.149   4.385  1.6090  0.6745 -0.4684
  117OSM   H15G12273   0.962   4.002   4.419  1.0530  1.3918  0.7001
  117OSM   C16F12274   0.973   4.054   4.217  0.5010 -0.2330  0.8154
  117OSM   H16F12275   1.045   4.083   4.137 -0.5657  0.0191 -0.0782
  117OSM   H16G12276   0.895   4.131   4.230 -1.1353 -1.5696 -0.6377
  117OSM   C17F12277   0.887   3.931   4.187  0.4352 -0.0019  0.1017
  117OSM   H17F12278   0.798   3.917   4.252  0.6168 -1.5266  0.0629
  117OSM   H17G12279   0.954   3.843   4.182  0.5054  0.0305  0.4613
  117OSM   C18F12280   0.828   3.944   4.045  0.5030  0.1431  0.2614
  117OSM   H18F12281   0.759   4.030   4.057  1.1923  0.4946  1.9280
  117OSM   H18G12282   0.769   3.859   4.005 -0.5335  1.2288 -0.6247
  117OSM   H18H12283   0.907   3.965   3.969  0.8234 -0.1698  0.5070
  118OSM      N12284   0.775   2.374   6.362  0.0825  0.7073  0.5693
  118OSM    C1512285   0.657   2.290   6.402  0.0698 -0.1263  0.2493
  118OSM   H15A12286   0.569   2.348   6.424  1.0889  0.7596  2.2595
  118OSM   H15B12287   0.676   2.233   6.492  1.2756  0.3779  0.3315
  118OSM   H15C12288   0.619   2.221   6.328  1.6739  0.8698 -1.5932
  118OSM    C1412289   0.901   2.292   6.390 -0.1567  0.1109 -0.2098
  118OSM   H14A12290   0.991   2.338   6.352 -0.9992  0.3125 -2.0564
  118OSM   H14B12291   0.894   2.188   6.363 -2.7047 -0.0297  0.6623
  118OSM   H14C12292   0.926   2.316   6.493 -0.7391 -0.0688 -0.0210
  118OSM    C1312293   0.771   2.396   6.211  0.1775  0.1461 -0.8574
  118OSM   H13A12294   0.670   2.422   6.182  0.3240  0.6009 -0.9555
  118OSM   H13B12295   0.777   2.297   6.169 -1.6404 -1.3575  2.0612
  118OSM   H13C12296   0.839   2.473   6.179  2.2199 -0.6881  1.1724
  118OSM    C1212297   0.777   2.496   6.451  0.3854 -0.4261 -0.2400
  118OSM   H12A12298   0.799   2.471   6.554  1.2084 -0.3022 -0.3803
  118OSM   H12B12299   0.678   2.540   6.457  0.7071  0.1507  1.6194
  118OSM    C1112300   0.867   2.612   6.415 -0.2325 -0.0918  0.1022
  118OSM   H11A12301   0.975   2.591   6.406  0.1294  1.1164  1.2207
  118OSM   H11B12302   0.873   2.689   6.495  0.9578  0.3365 -0.3866
  118OSM      P12303   0.702   2.794   6.310  0.0984  0.0363 -0.0201
  118OSM    O1312304   0.584   2.738   6.372 -0.1439  0.1564 -0.7644
  118OSM    O1412305   0.761   2.913   6.378 -0.4507  0.2893  0.2079
  118OSM    O1112306   0.672   2.826   6.157  0.1332 -0.1770 -0.3205
  118OSM    O1212307   0.809   2.682   6.302 -0.0879  0.7136  0.4936
  118OSM    C1S12308   0.661   2.727   6.054  0.1506 -0.5020 -0.2143
  118OSM    H1S12309   0.565   2.673   6.063  0.7635 -1.6775 -0.5560
  118OSM    H1T12310   0.736   2.645   6.056  0.7361  0.0207  1.9596
  118OSM     NF12311   0.637   2.696   5.818 -0.4629  0.3924  0.0774
  118OSM    HNF12312   0.717   2.675   5.762  0.7727  1.4100  1.3791
  118OSM    C2S12313   0.667   2.798   5.918 -0.5069  0.2787 -0.7255
  118OSM    H2S12314   0.591   2.878   5.908 -0.2584  0.5482 -0.4778
  118OSM    C3S12315   0.806   2.849   5.898  0.3819 -0.0225 -0.0245
  118OSM    H3S12316   0.863   2.754   5.887  0.1001 -0.3631  1.2995
  118OSM     O312317   0.875   2.920   6.003  0.2770  0.2535 -0.1175
  118OSM    HO312318   0.825   2.896   6.081  0.4276  1.2706  0.3119
  118OSM    C4S12319   0.822   2.923   5.771  0.1449  0.6448  0.6106
  118OSM    H4S12320   0.861   2.858   5.693 -1.4848  1.1803 -0.7179
  118OSM    C5S12321   0.801   3.050   5.739  0.0114 -0.2535  0.5061
  118OSM    H5S12322   0.774   3.130   5.809 -1.8862  1.3665 -1.9398
  118OSM    C6S12323   0.847   3.104   5.604  0.5219 -0.3202 -0.6413
  118OSM    H6S12324   0.907   3.196   5.614 -1.6688  1.1305 -0.0620
  118OSM    H6T12325   0.754   3.145   5.559  0.3114 -2.1857 -2.0398
  118OSM    C7S12326   0.888   3.010   5.491 -0.1208  0.5940 -0.6131
  118OSM    H7S12327   0.801   2.942   5.484 -1.4176  2.2188 -0.8017
  118OSM    H7T12328   0.970   2.943   5.526  0.9370  2.4636  0.7022
  118OSM    C8S12329   0.907   3.071   5.355 -0.9921 -0.4237  0.8146
  118OSM    H8S12330   1.000   3.133   5.361 -1.3172  0.2685 -0.8126
  118OSM    H8T12331   0.827   3.145   5.335 -0.8524 -0.0345  1.6000
  118OSM    C9S12332   0.949   2.978   5.241  0.6839 -0.0004 -0.1690
  118OSM    H9S12333   0.869   2.905   5.221 -1.5818  2.3202 -0.1065
  118OSM    H9T12334   1.032   2.911   5.274 -0.1938 -1.5028 -0.9325
  118OSM   C10S12335   0.980   3.062   5.112 -0.3635 -0.7771  0.4545
  118OSM   H10S12336   1.068   3.129   5.121 -1.3987  0.8385 -0.8862
  118OSM   H10T12337   0.896   3.131   5.088  0.3142 -0.0078  0.2566
  118OSM   C11S12338   1.001   2.987   4.976 -0.1071 -0.2824  0.3115
  118OSM   H11S12339   0.903   2.948   4.942  0.1030 -0.1222 -0.5161
  118OSM   H11T12340   1.078   2.909   4.989  1.2186  0.4685 -2.1976
  118OSM   C12S12341   1.061   3.078   4.866  1.0038 -0.1444  0.4130
  118OSM   H12S12342   1.160   3.109   4.905  0.6627 -0.4091  1.5237
  118OSM   H12T12343   1.002   3.167   4.835 -0.7412 -1.2300  0.4744
  118OSM   C13S12344   1.078   2.999   4.730  0.5443  0.2354 -0.3162
  118OSM   H13S12345   0.978   3.006   4.681 -1.1007 -0.3142  2.6695
  118OSM   H13T12346   1.105   2.894   4.753  1.0388  0.5936  0.8027
  118OSM   C14S12347   1.178   3.072   4.651  0.4368 -0.2597 -0.6435
  118OSM   H14S12348   1.272   3.082   4.708 -0.7605  2.2753  1.0593
  118OSM   H14T12349   1.141   3.176   4.640  2.1648  0.3364 -1.0554
  118OSM   C15S12350   1.213   3.004   4.512  0.5888 -0.1399  0.4866
  118OSM   H15S12351   1.129   3.015   4.440  0.2519 -0.6807  0.7966
  118OSM   H15T12352   1.237   2.898   4.533 -0.0148 -0.4731 -0.4407
  118OSM   C16S12353   1.339   3.068   4.446 -0.3688  0.1413 -0.4202
  118OSM   H16S12354   1.425   3.049   4.513  1.0605  0.0079 -2.2281
  118OSM   H16T12355   1.318   3.177   4.439 -1.3912  0.0343  0.6298
  118OSM   C17S12356   1.383   3.019   4.307  0.2903  0.3062 -0.4635
  118OSM   H17S12357   1.305   3.058   4.238 -0.2668 -2.2508 -1.3618
  118OSM   H17T12358   1.378   2.910   4.290  0.1739  0.5851 -2.5079
  118OSM   C18S12359   1.523   3.083   4.272  0.4474 -0.1750  0.0588
  118OSM   H18S12360   1.520   3.192   4.295 -0.5122 -0.0497 -0.6205
  118OSM   H18T12361   1.548   3.069   4.165 -0.4049  0.9477 -0.3080
  118OSM   H18U12362   1.601   3.041   4.339  2.1818  0.7184 -1.3196
  118OSM    C1F12363   0.512   2.671   5.794 -0.4841  0.4233 -0.1391
  118OSM     OF12364   0.423   2.736   5.847  0.0596  0.3075 -0.2697
  118OSM    C2F12365   0.486   2.568   5.688  0.0995  0.1103 -0.4680
  118OSM    H2F12366   0.573   2.499   5.685  0.3329  0.4271 -2.3249
  118OSM    H2G12367   0.470   2.628   5.596 -0.3608 -0.6799 -0.9128
  118OSM    C3F12368   0.355   2.483   5.725 -0.0839 -0.5330 -0.5051
  118OSM    H3F12369   0.268   2.542   5.761 -0.3225 -1.4168  0.4399
  118OSM    H3G12370   0.392   2.423   5.811 -0.3578  2.3535  1.7665
  118OSM    C4F12371   0.326   2.386   5.612  0.4059  0.2316 -0.4773
  118OSM    H4F12372   0.226   2.346   5.638  1.0865 -0.1850  1.6338
  118OSM    H4G12373   0.401   2.304   5.608  0.0495 -0.5050  3.7560
  118OSM    C5F12374   0.309   2.447   5.474 -0.7458  0.0236  0.1106
  118OSM    H5F12375   0.407   2.467   5.425 -0.9840 -0.3529 -0.5225
  118OSM    H5G12376   0.265   2.548   5.490  1.6844  1.1701 -0.0320
  118OSM    C6F12377   0.248   2.349   5.375  0.1199  0.2253 -0.2640
  118OSM    H6F12378   0.162   2.302   5.428 -1.6034  1.3873 -1.8890
  118OSM    H6G12379   0.317   2.267   5.348  0.6822 -0.2446  2.3694
  118OSM    C7F12380   0.196   2.410   5.253 -0.4816  0.3396 -0.2645
  118OSM    H7F12381   0.266   2.486   5.214  0.9001 -1.0195 -0.5228
  118OSM    H7G12382   0.101   2.464   5.275 -0.8880 -0.6452  0.4603
  118OSM    C8F12383   0.162   2.288   5.153  0.0016  0.1735 -0.8819
  118OSM    H8F12384   0.073   2.315   5.092 -0.0700 -1.9824 -1.8109
  118OSM    H8G12385   0.128   2.195   5.202 -2.3122 -0.0278 -2.7028
  118OSM    C9F12386   0.278   2.248   5.067  0.0847 -0.0229 -0.4255
  118OSM    H9F12387   0.313   2.146   5.083 -0.5501 -0.4399 -1.5793
  118OSM   C10F12388   0.330   2.320   4.961  0.7332 -0.2105  1.2301
  118OSM   H10F12389   0.418   2.280   4.909  0.0404  0.4533 -0.5171
  118OSM   C11F12390   0.277   2.453   4.908 -0.3584  0.0981  0.0240
  118OSM   H11F12391   0.355   2.530   4.923 -0.8036  0.3340  1.2785
  118OSM   H11G12392   0.195   2.508   4.959 -0.6817  1.0192 -1.4314
  118OSM   C12F12393   0.232   2.445   4.759 -0.9993  0.2370  0.8057
  118OSM   H12F12394   0.198   2.549   4.741 -1.8844 -0.0394  0.8716
  118OSM   H12G12395   0.141   2.382   4.749 -3.6471  3.6438  1.5162
  118OSM   C13F12396   0.344   2.408   4.665 -0.3282 -0.0962  0.1384
  118OSM   H13F12397   0.350   2.297   4.659  0.3403 -0.0988  0.6975
  118OSM   H13G12398   0.446   2.435   4.699 -0.0169  1.8228 -2.0769
  118OSM   C14F12399   0.317   2.479   4.531 -0.0476 -0.2546  0.0693
  118OSM   H14F12400   0.325   2.587   4.558 -0.6297 -0.4142  0.9038
  118OSM   H14G12401   0.211   2.470   4.501 -0.5113 -0.5643  1.6868
  118OSM   C15F12402   0.415   2.458   4.420 -0.4483 -0.1709  0.7541
  118OSM   H15F12403   0.413   2.350   4.394  0.8046 -0.4638  1.7578
  118OSM   H15G12404   0.517   2.481   4.459 -1.1160 -0.5501  2.8948
  118OSM   C16F12405   0.397   2.544   4.295  0.6862  0.0385  0.4240
  118OSM   H16F12406   0.487   2.532   4.230 -1.1220 -0.9696 -2.0620
  118OSM   H16G12407   0.399   2.652   4.322 -1.1990  0.1675  0.1857
  118OSM   C17F12408   0.275   2.523   4.207 -0.2968 -0.0013 -0.7667
  118OSM   H17F12409   0.178   2.536   4.259  0.3112 -1.0950  0.7011
  118OSM   H17G12410   0.281   2.416   4.180 -0.8179 -0.2221 -0.0273
  118OSM   C18F12411   0.285   2.612   4.082 -0.4927 -0.0859  0.0509
  118OSM   H18F12412   0.205   2.580   4.012  0.7672 -2.8106 -0.3183
  118OSM   H18G12413   0.383   2.599   4.030  0.7620 -0.4987  2.3700
  118OSM   H18H12414   0.276   2.719   4.110 -0.4717 -0.5991  2.1799
  119OSM      N12415   3.793   5.676   6.651 -0.1138 -0.2226  0.2218
  119OSM    C1512416   3.716   5.797   6.675  0.1058  0.0494 -0.5013
  119OSM   H15A12417   3.713   5.807   6.782 -1.2528 -3.8156 -0.0095
  119OSM   H15B12418   3.613   5.782   6.644  0.5039  1.0761 -2.4758
  119OSM   H15C12419   3.764   5.877   6.621  2.3537 -2.1906 -2.0399
  119OSM    C1412420   3.924   5.688   6.724 -0.1349  0.2309  0.4961
  119OSM   H14A12421   3.969   5.590   6.716 -0.2271  0.2750 -0.6971
  119OSM   H14B12422   3.903   5.700   6.830  0.2569 -0.4948  0.6618
  119OSM   H14C12423   3.995   5.759   6.685 -0.3242  0.2865  0.2446
  119OSM    C1312424   3.715   5.558   6.716 -0.2331 -0.5378  1.0402
  119OSM   H13A12425   3.776   5.472   6.693  0.4977  0.5312 -1.4212
  119OSM   H13B12426   3.621   5.552   6.663  0.3521  4.4145 -1.1506
  119OSM   H13C12427   3.708   5.566   6.823 -2.6456 -1.4597  1.0126
  119OSM    C1212428   3.815   5.665   6.504 -0.1207 -0.1313 -0.1535
  119OSM   H12A12429   3.862   5.568   6.498 -2.4250 -1.3360  0.4664
  119OSM   H12B12430   3.882   5.747   6.478 -0.7213  0.1128 -0.9871
  119OSM    C1112431   3.693   5.671   6.405 -0.3971 -0.1093  0.0239
  119OSM   H11A12432   3.734   5.648   6.304  2.1638 -2.1659  1.3978
  119OSM   H11B12433   3.650   5.773   6.396 -1.0255 -0.5436 -3.0401
  119OSM      P12434   3.582   5.441   6.368  0.1426 -0.2129 -0.0873
  119OSM    O1312435   3.517   5.339   6.453 -0.5939 -0.1486 -0.1615
  119OSM    O1412436   3.515   5.478   6.242  0.1545 -0.1510  0.3220
  119OSM    O1112437   3.724   5.396   6.340 -0.3954 -0.4017 -0.5176
  119OSM    O1212438   3.592   5.581   6.444 -0.1691  0.3704  0.1633
  119OSM    C1S12439   3.749   5.271   6.263 -0.1945 -0.5523 -0.5806
  119OSM    H1S12440   3.683   5.189   6.301 -1.6029  1.1948  0.9647
  119OSM    H1T12441   3.847   5.225   6.288 -1.0973 -2.1951  0.1453
  119OSM     NF12442   3.709   5.134   6.050  0.1044  0.4988  0.0917
  119OSM    HNF12443   3.760   5.099   5.972  2.2036  0.3409  1.4638
  119OSM    C2S12444   3.736   5.272   6.110  0.5351 -0.3236  0.5080
  119OSM    H2S12445   3.638   5.321   6.089 -0.2724 -1.1770  2.1395
  119OSM    C3S12446   3.853   5.350   6.052 -0.9231  1.0362 -0.1727
  119OSM    H3S12447   3.938   5.278   6.061 -2.1990 -0.4119  0.7724
  119OSM     O312448   3.904   5.463   6.126  0.7203  0.4082 -0.5351
  119OSM    HO312449   3.844   5.467   6.201  0.7078  0.9038 -0.5673
  119OSM    C4S12450   3.829   5.386   5.911 -0.0725  0.3577 -0.2034
  119OSM    H4S12451   3.866   5.312   5.838  0.0105  0.3972 -0.2016
  119OSM    C5S12452   3.786   5.504   5.860 -0.6416 -0.1745  0.1405
  119OSM    H5S12453   3.768   5.589   5.927  0.8087  0.7024 -0.5257
  119OSM    C6S12454   3.782   5.549   5.711 -0.7289  0.6370 -0.4488
  119OSM    H6S12455   3.862   5.622   5.689 -0.5297  0.5995  0.1267
  119OSM    H6T12456   3.684   5.598   5.695 -0.2313  1.6424 -0.4441
  119OSM    C7S12457   3.809   5.433   5.616 -0.1469 -0.0210  0.4453
  119OSM    H7S12458   3.723   5.365   5.635 -0.3272 -0.2916 -1.1405
  119OSM    H7T12459   3.912   5.390   5.624 -0.4749 -0.7989  0.6201
  119OSM    C8S12460   3.810   5.468   5.464 -0.1113 -0.5179 -0.2599
  119OSM    H8S12461   3.851   5.380   5.410 -0.2834  0.7201 -2.5527
  119OSM    H8T12462   3.868   5.561   5.447 -0.8669  0.2564  1.2397
  119OSM    C9S12463   3.671   5.491   5.406  0.6156 -0.1022  0.1118
  119OSM    H9S12464   3.619   5.550   5.485  1.9515 -0.8054  1.5918
  119OSM    H9T12465   3.615   5.395   5.403  0.6676 -0.2148  1.7872
  119OSM   C10S12466   3.667   5.577   5.272  0.5565  0.2308  0.2780
  119OSM   H10S12467   3.714   5.673   5.302 -0.0281  1.6795 -3.0155
  119OSM   H10T12468   3.562   5.603   5.245  1.1129  0.3510 -1.9564
  119OSM   C11S12469   3.737   5.525   5.146  0.2795  0.2192 -0.1037
  119OSM   H11S12470   3.841   5.508   5.183  0.3800  1.2137  0.0968
  119OSM   H11T12471   3.734   5.610   5.075 -2.2098  0.3445  0.0722
  119OSM   C12S12472   3.690   5.389   5.092 -0.1393  0.4499  0.4078
  119OSM   H12S12473   3.582   5.400   5.067 -0.1240 -1.7493 -0.8729
  119OSM   H12T12474   3.682   5.304   5.162  0.4463 -2.7251 -3.0728
  119OSM   C13S12475   3.766   5.353   4.964 -0.2149 -0.1463  0.6710
  119OSM   H13S12476   3.767   5.440   4.895  1.3502 -0.8216 -0.2019
  119OSM   H13T12477   3.708   5.270   4.918  0.0953  0.1469 -0.2590
  119OSM   C14S12478   3.909   5.294   4.983  0.2865 -0.1367 -0.5917
  119OSM   H14S12479   3.906   5.214   5.060 -0.2539  0.7045  0.2893
  119OSM   H14T12480   3.973   5.371   5.032  1.1657  0.1934 -2.1890
  119OSM   C15S12481   3.970   5.246   4.846 -0.6682  0.2412 -0.1701
  119OSM   H15S12482   3.952   5.320   4.765 -0.2031 -2.5049 -2.9781
  119OSM   H15T12483   3.913   5.155   4.818  0.6953 -0.6246 -0.2342
  119OSM   C16S12484   4.114   5.208   4.862 -0.1402  0.4863  0.1936
  119OSM   H16S12485   4.119   5.130   4.941 -1.2899 -3.1910 -3.0448
  119OSM   H16T12486   4.165   5.299   4.899  0.9917  0.6239 -1.5670
  119OSM   C17S12487   4.167   5.145   4.732  0.5101 -0.0415 -0.4131
  119OSM   H17S12488   4.186   5.228   4.660  2.2939  0.4478  0.5645
  119OSM   H17T12489   4.085   5.084   4.689 -1.0470  0.1832  2.0594
  119OSM   C18S12490   4.290   5.065   4.744 -0.2571 -0.2349  0.3248
  119OSM   H18S12491   4.368   5.137   4.777 -0.5186 -0.3272  1.1836
  119OSM   H18T12492   4.326   5.028   4.646  0.3828  1.4773 -0.1267
  119OSM   H18U12493   4.284   4.973   4.806 -0.6861 -0.8488 -0.6023
  119OSM    C1F12494   3.596   5.070   6.083 -0.2530 -0.3101  0.2468
  119OSM     OF12495   3.521   5.102   6.174 -0.0558  0.1402 -0.5497
  119OSM    C2F12496   3.566   4.958   5.991  0.0146 -0.6012  0.0488
  119OSM    H2F12497   3.606   4.870   6.046 -1.3372  0.1231  2.3157
  119OSM    H2G12498   3.616   4.960   5.892  0.1416 -0.7325  0.1098
  119OSM    C3F12499   3.414   4.928   5.969 -0.1508 -0.1755 -0.3241
  119OSM    H3F12500   3.355   5.020   5.952 -0.5721 -0.3353  0.2514
  119OSM    H3G12501   3.375   4.892   6.066 -0.1079 -1.5251 -0.7800
  119OSM    C4F12502   3.387   4.831   5.855 -0.0394 -0.3683 -0.0922
  119OSM    H4F12503   3.442   4.740   5.888  0.6976  0.8952  2.4637
  119OSM    H4G12504   3.419   4.878   5.760 -0.7744  0.1379 -0.0998
  119OSM    C5F12505   3.238   4.791   5.845 -0.0400 -0.4118  0.0193
  119OSM    H5F12506   3.174   4.879   5.869 -0.7899 -1.1907  0.9895
  119OSM    H5G12507   3.220   4.714   5.924  0.1771 -0.5977 -0.1133
  119OSM    C6F12508   3.196   4.744   5.707  0.1471 -0.4950  0.1097
  119OSM    H6F12509   3.243   4.649   5.676 -0.2390  0.1478 -2.7210
  119OSM    H6G12510   3.202   4.828   5.634  2.8716 -0.6013  0.1315
  119OSM    C7F12511   3.043   4.697   5.713 -0.3189 -0.2984  0.2966
  119OSM    H7F12512   2.983   4.788   5.731 -2.7425 -1.4818 -1.2500
  119OSM    H7G12513   3.032   4.630   5.801  1.2042  0.5393  1.1673
  119OSM    C8F12514   3.013   4.631   5.573 -0.7802  0.1199 -0.3014
  119OSM    H8F12515   3.091   4.555   5.550  0.4035  0.4064  2.3030
  119OSM    H8G12516   3.052   4.711   5.507 -0.5738  0.7010  0.5053
  119OSM    C9F12517   2.873   4.583   5.543  0.1020  0.1894  0.4799
  119OSM    H9F12518   2.805   4.563   5.627 -0.1451 -0.5335  0.1176
  119OSM   C10F12519   2.817   4.570   5.416  0.6775  0.1947  0.3990
  119OSM   H10F12520   2.726   4.509   5.407  1.4644 -1.7997  4.0181
  119OSM   C11F12521   2.875   4.612   5.287 -0.5818  0.1897  0.1041
  119OSM   H11F12522   2.903   4.523   5.227  3.0674  1.1426  0.1106
  119OSM   H11G12523   2.971   4.664   5.311  1.1306 -1.6764 -2.2244
  119OSM   C12F12524   2.802   4.712   5.208  0.1354 -0.5350  0.1965
  119OSM   H12F12525   2.809   4.818   5.241 -2.9173  0.6186 -2.2904
  119OSM   H12G12526   2.698   4.673   5.205  0.1949 -0.9403  2.0571
  119OSM   C13F12527   2.842   4.727   5.060 -0.2129  0.1081 -1.1673
  119OSM   H13F12528   2.935   4.787   5.059  0.1506 -0.3374  0.9843
  119OSM   H13G12529   2.761   4.790   5.017  0.2956  2.3158  0.8955
  119OSM   C14F12530   2.849   4.601   4.968  1.0091 -0.1711  0.5071
  119OSM   H14F12531   2.760   4.539   4.994 -0.0190 -0.3408 -2.9570
  119OSM   H14G12532   2.932   4.536   5.005 -0.4507 -0.6387  3.2729
  119OSM   C15F12533   2.860   4.637   4.818 -0.1004  0.0372 -0.3870
  119OSM   H15F12534   2.941   4.709   4.799 -0.3679  0.2606 -0.6822
  119OSM   H15G12535   2.763   4.688   4.798  0.3173  0.9637 -0.0846
  119OSM   C16F12536   2.874   4.515   4.722 -0.4691 -0.0009  0.3324
  119OSM   H16F12537   2.779   4.458   4.738 -1.1029  0.7903 -0.5103
  119OSM   H16G12538   2.955   4.447   4.756  2.0111  1.3491 -2.4346
  119OSM   C17F12539   2.886   4.563   4.575 -0.0387 -0.0791  0.2386
  119OSM   H17F12540   2.979   4.623   4.569 -1.0918  1.5079 -1.4670
  119OSM   H17G12541   2.799   4.627   4.549 -0.6535 -1.5328 -1.5603
  119OSM   C18F12542   2.906   4.460   4.466  0.3779  0.4296 -0.3335
  119OSM   H18F12543   2.921   4.511   4.369 -0.8701  0.0310 -0.7545
  119OSM   H18G12544   2.823   4.386   4.470  0.3617  0.4115 -0.9772
  119OSM   H18H12545   2.994   4.399   4.497 -0.9825 -1.4278  0.1020
  120OSM      N12546   1.203   5.801   6.375 -0.7132 -0.1711  1.0028
  120OSM    C1512547   1.262   5.877   6.257 -0.1908 -0.0038 -0.2040
  120OSM   H15A12548   1.273   5.983   6.277  0.7050 -0.1849  0.3245
  120OSM   H15B12549   1.203   5.853   6.170 -0.4211 -1.3729  0.3166
  120OSM   H15C12550   1.360   5.839   6.232  0.2371  0.2967  0.9479
  120OSM    C1412551   1.263   5.851   6.501 -0.3718 -0.0962 -0.2846
  120OSM   H14A12552   1.240   5.955   6.519  1.0069  0.4388 -1.4057
  120OSM   H14B12553   1.370   5.845   6.504 -0.4216 -1.6003 -0.6798
  120OSM   H14C12554   1.229   5.799   6.589 -0.3607  0.9919  0.3698
  120OSM    C1312555   1.059   5.824   6.389  0.2785  0.7464  0.1005
  120OSM   H13A12556   1.031   5.795   6.489  2.5387  0.8263  0.8209
  120OSM   H13B12557   1.004   5.772   6.312  2.3469  1.4583 -1.9603
  120OSM   H13C12558   1.039   5.930   6.384 -1.3581  0.4357 -0.5053
  120OSM    C1212559   1.238   5.655   6.359 -0.1565  0.3846  0.6375
  120OSM   H12A12560   1.182   5.601   6.434 -0.7484  2.1150  1.5089
  120OSM   H12B12561   1.344   5.647   6.374  0.2040  0.2637 -1.5977
  120OSM    C1112562   1.201   5.594   6.225  0.3585  0.6239  0.0077
  120OSM   H11A12563   1.246   5.492   6.225 -0.1340  0.3986 -0.3831
  120OSM   H11B12564   1.248   5.656   6.145  0.5796  0.4990  0.0393
  120OSM      P12565   0.985   5.472   6.297  0.1634 -0.1322  0.0322
  120OSM    O1312566   1.048   5.440   6.429 -0.6169 -0.2950  0.0256
  120OSM    O1412567   0.844   5.510   6.313  0.3427 -0.3813 -0.5910
  120OSM    O1112568   0.991   5.347   6.198 -0.0977 -0.0495 -0.4050
  120OSM    O1212569   1.059   5.585   6.218  0.4399 -0.8024 -0.5251
  120OSM    C1S12570   0.976   5.358   6.056  0.4801  0.2118 -0.0765
  120OSM    H1S12571   1.074   5.399   6.022  1.0928  1.1791  2.5951
  120OSM    H1T12572   0.895   5.427   6.025 -0.4025 -0.8269 -0.1161
  120OSM     NF12573   0.912   5.232   5.852 -0.4715  0.0528  0.3204
  120OSM    HNF12574   0.814   5.252   5.843 -0.2974  1.5354  1.3259
  120OSM    C2S12575   0.952   5.216   5.989 -0.5171 -0.9243 -0.1319
  120OSM    H2S12576   1.047   5.159   5.994 -0.9792 -1.6287  1.0590
  120OSM    C3S12577   0.842   5.141   6.074 -0.2856 -0.7771  0.0151
  120OSM    H3S12578   0.758   5.213   6.085 -0.1725 -0.5452 -0.5934
  120OSM     O312579   0.872   5.106   6.210  0.1765 -0.0181 -0.3434
  120OSM    HO312580   0.952   5.155   6.230 -0.0595 -0.0726  0.7590
  120OSM    C4S12581   0.789   5.025   5.999  0.4613  0.2555 -0.4489
  120OSM    H4S12582   0.681   5.017   5.984  0.2544 -0.3621  1.1486
  120OSM    C5S12583   0.851   4.908   5.998  0.4471  0.2153  0.2143
  120OSM    H5S12584   0.944   4.908   6.057  0.1123 -0.2643  0.7598
  120OSM    C6S12585   0.794   4.785   5.931  0.4137 -0.0004 -0.5761
  120OSM    H6S12586   0.693   4.796   5.888  0.4470  1.4750 -0.3341
  120OSM    H6T12587   0.787   4.701   6.004 -1.7903 -0.5749 -1.3728
  120OSM    C7S12588   0.878   4.705   5.832 -0.7562 -0.4684  0.6642
  120OSM    H7S12589   0.827   4.622   5.780 -1.8617 -1.0468  2.5889
  120OSM    H7T12590   0.956   4.647   5.885 -0.6700 -0.5458  0.4522
  120OSM    C8S12591   0.939   4.795   5.718  0.1608 -0.0210 -0.7830
  120OSM    H8S12592   0.981   4.894   5.746  0.4332 -1.0239  2.8368
  120OSM    H8T12593   0.852   4.828   5.657 -1.2753 -2.0400  0.0488
  120OSM    C9S12594   1.044   4.727   5.638  0.1741 -0.2365  0.3452
  120OSM    H9S12595   1.129   4.687   5.697  0.0862  0.7863  1.1934
  120OSM    H9T12596   1.089   4.805   5.573  0.7263 -1.3831 -0.7143
  120OSM   C10S12597   0.981   4.626   5.546  0.0463  1.1293  0.3609
  120OSM   H10S12598   0.872   4.648   5.536  0.5457  3.0815 -1.6172
  120OSM   H10T12599   0.991   4.520   5.577  0.0965  0.9035 -0.3938
  120OSM   C11S12600   1.057   4.633   5.415 -0.3960 -0.1469  0.3478
  120OSM   H11S12601   1.044   4.545   5.348 -1.3442 -0.4069  0.8475
  120OSM   H11T12602   1.167   4.643   5.426 -0.3632 -0.8659  0.7181
  120OSM   C12S12603   1.008   4.752   5.316  0.5639  0.0942 -0.3577
  120OSM   H12S12604   1.037   4.848   5.365  0.1793 -0.7353  1.5982
  120OSM   H12T12605   0.897   4.752   5.323  0.6718  0.6132  2.5285
  120OSM   C13S12606   1.060   4.746   5.168 -0.0674  0.7498 -0.0098
  120OSM   H13S12607   1.019   4.833   5.113 -0.6538  0.1528 -0.5358
  120OSM   H13T12608   1.024   4.650   5.125 -0.9432  1.0425  0.0464
  120OSM   C14S12609   1.215   4.737   5.152 -0.3325  0.4662 -0.2433
  120OSM   H14S12610   1.264   4.681   5.236 -0.8527 -1.7081 -1.3225
  120OSM   H14T12611   1.259   4.838   5.168 -0.7396  0.4419  1.1889
  120OSM   C15S12612   1.274   4.684   5.018  0.4710 -0.0841 -0.3194
  120OSM   H15S12613   1.255   4.576   5.004  1.9262 -0.3440 -0.4010
  120OSM   H15T12614   1.384   4.677   5.030  0.1167 -2.3060  2.6372
  120OSM   C16S12615   1.226   4.764   4.888 -0.0720 -0.5072  0.3814
  120OSM   H16S12616   1.260   4.870   4.896  0.3710 -0.5680 -0.5201
  120OSM   H16T12617   1.116   4.771   4.874  0.1335  3.2081 -0.4651
  120OSM   C17S12618   1.286   4.714   4.760  0.2525  0.0312  0.4742
  120OSM   H17S12619   1.250   4.764   4.667 -1.2470 -0.8501  0.5495
  120OSM   H17T12620   1.235   4.616   4.756 -1.4035  0.7880  1.7831
  120OSM   C18S12621   1.435   4.697   4.758  0.3313  0.7797 -0.6401
  120OSM   H18S12622   1.475   4.629   4.835 -0.3696  1.4601  0.3463
  120OSM   H18T12623   1.490   4.793   4.771  1.7605  0.4790 -3.5632
  120OSM   H18U12624   1.477   4.649   4.666 -0.7253 -1.1487 -0.1560
  120OSM    C1F12625   0.997   5.264   5.756 -0.5733 -0.4941  0.5611
  120OSM     OF12626   1.121   5.272   5.783  0.3080 -0.4462  0.7079
  120OSM    C2F12627   0.935   5.292   5.621  0.1522 -0.9871  0.6591
  120OSM    H2F12628   0.924   5.401   5.601  0.4499 -1.1754 -0.6131
  120OSM    H2G12629   0.838   5.239   5.609  0.7139 -1.8404 -0.2748
  120OSM    C3F12630   1.033   5.250   5.507  0.0474  0.2698  0.1628
  120OSM    H3F12631   1.061   5.146   5.533 -0.1315  0.8702  3.1275
  120OSM    H3G12632   1.131   5.300   5.492  1.0762 -1.8020 -0.3364
  120OSM    C4F12633   0.974   5.265   5.363  0.0539 -0.0928 -0.2345
  120OSM    H4F12634   0.947   5.371   5.343  0.0016 -0.0739 -0.0611
  120OSM    H4G12635   0.881   5.206   5.377 -0.4661  1.2503  2.8073
  120OSM    C5F12636   1.059   5.219   5.249 -0.5779  0.0544  0.7921
  120OSM    H5F12637   1.094   5.114   5.263 -0.2157 -0.2092 -1.6710
  120OSM    H5G12638   1.157   5.269   5.258 -0.0381 -0.8764  0.2913
  120OSM    C6F12639   0.987   5.226   5.115  0.6372 -0.7652 -0.6904
  120OSM    H6F12640   0.965   5.331   5.086 -0.0844 -0.4281  0.9406
  120OSM    H6G12641   0.888   5.178   5.124  0.7236 -0.5064  3.8901
  120OSM    C7F12642   1.059   5.167   4.993  0.0966 -0.1248  0.0090
  120OSM    H7F12643   1.075   5.058   5.009  1.6798  0.1754  0.7168
  120OSM    H7G12644   1.161   5.212   4.995 -0.3904  1.0598 -1.0573
  120OSM    C8F12645   0.980   5.184   4.867  0.7456 -0.2472 -0.9665
  120OSM    H8F12646   0.956   5.292   4.872  1.4014 -0.0332 -2.1135
  120OSM    H8G12647   0.883   5.132   4.855  0.3529  0.2931 -0.2125
  120OSM    C9F12648   1.065   5.146   4.751 -0.7444  0.0983  1.0540
  120OSM    H9F12649   1.119   5.053   4.774  0.6688  0.1752 -1.4600
  120OSM   C10F12650   1.077   5.212   4.636 -0.1069  0.1002 -0.1035
  120OSM   H10F12651   1.124   5.176   4.544 -0.1453  2.6881 -1.2394
  120OSM   C11F12652   0.997   5.337   4.604  0.1740 -0.0009 -0.1973
  120OSM   H11F12653   0.897   5.338   4.651 -1.9454  0.3639 -4.2737
  120OSM   H11G12654   0.980   5.340   4.494 -0.4720  1.8789 -0.0756
  120OSM   C12F12655   1.065   5.472   4.661  0.1032 -0.0217 -0.3721
  120OSM   H12F12656   1.033   5.480   4.767 -1.5363 -2.7708 -0.5517
  120OSM   H12G12657   1.023   5.565   4.615  0.4375 -0.2232 -1.1045
  120OSM   C13F12658   1.219   5.473   4.628 -0.2973 -0.0645 -0.1576
  120OSM   H13F12659   1.263   5.372   4.641  0.8378  0.3775 -0.4043
  120OSM   H13G12660   1.279   5.526   4.705  0.3867 -2.2605  0.9029
  120OSM   C14F12661   1.257   5.533   4.491  0.1103  0.4694 -0.2660
  120OSM   H14F12662   1.248   5.644   4.500 -2.0094  0.2003  1.6307
  120OSM   H14G12663   1.192   5.489   4.412  0.7998 -0.7883 -0.1572
  120OSM   C15F12664   1.400   5.486   4.451 -0.6951 -0.7339 -0.2442
  120OSM   H15F12665   1.395   5.379   4.421  1.0825 -0.6992 -0.8247
  120OSM   H15G12666   1.470   5.492   4.538  0.2143  2.1354 -1.0571
  120OSM   C16F12667   1.456   5.562   4.333  0.0373 -0.2175  0.3157
  120OSM   H16F12668   1.460   5.672   4.351  0.2907  0.3006 -2.4968
  120OSM   H16G12669   1.384   5.539   4.252  0.9189 -2.2247  0.0502
  120OSM   C17F12670   1.597   5.515   4.290  0.2188  0.1209  0.6363
  120OSM   H17F12671   1.613   5.405   4.297 -0.1766  0.1301  2.3016
  120OSM   H17G12672   1.664   5.556   4.369 -2.6133 -0.0949  3.3824
  120OSM   C18F12673   1.624   5.551   4.147  0.5424  0.1589 -0.0351
  120OSM   H18F12674   1.563   5.497   4.071  0.9854 -0.7870  0.2728
  120OSM   H18G12675   1.731   5.536   4.124  0.1738 -0.5446 -1.4146
  120OSM   H18H12676   1.593   5.657   4.133 -2.7720 -0.8093 -1.0125
  121OSM      N12677   0.686   6.493   6.769 -0.6035 -0.0747  0.1403
  121OSM    C1512678   0.821   6.439   6.822  1.0049 -0.5859 -0.0176
  121OSM   H15A12679   0.833   6.448   6.929 -0.5259 -0.2678  0.1511
  121OSM   H15B12680   0.900   6.502   6.782 -0.9745  1.3297 -1.1115
  121OSM   H15C12681   0.831   6.333   6.805  0.4759 -0.7352  0.5949
  121OSM    C1412682   0.583   6.416   6.841  0.3893 -0.1573 -0.1035
  121OSM   H14A12683   0.610   6.311   6.837  1.0529 -0.0284  0.6606
  121OSM   H14B12684   0.483   6.426   6.802  0.1648  0.5718  0.6283
  121OSM   H14C12685   0.569   6.454   6.941 -0.7349  0.2832 -0.4205
  121OSM    C1312686   0.663   6.633   6.809 -0.4189  0.4739 -0.4667
  121OSM   H13A12687   0.570   6.670   6.768 -1.3659 -1.6137 -0.3184
  121OSM   H13B12688   0.743   6.699   6.778  1.3871 -1.2281  0.3930
  121OSM   H13C12689   0.659   6.644   6.916 -1.2414 -1.7163 -0.2276
  121OSM    C1212690   0.676   6.478   6.622  0.4693 -0.1015 -0.2220
  121OSM   H12A12691   0.683   6.372   6.602 -1.3626 -0.1172 -0.9245
  121OSM   H12B12692   0.754   6.526   6.566 -1.5981  1.6988 -1.7030
  121OSM    C1112693   0.547   6.529   6.557 -0.0798  0.2346 -0.5925
  121OSM   H11A12694   0.567   6.540   6.448 -1.5922  3.1728 -0.6765
  121OSM   H11B12695   0.532   6.634   6.588  0.8784 -0.0741  0.9946
  121OSM      P12696   0.430   6.296   6.538 -0.3255 -0.2272  0.0593
  121OSM    O1312697   0.530   6.210   6.611 -0.2149 -0.3247  0.3841
  121OSM    O1412698   0.289   6.260   6.546  0.2728  0.1760  0.5341
  121OSM    O1112699   0.470   6.314   6.388  0.4505 -0.4262  0.8843
  121OSM    O1212700   0.438   6.444   6.592  0.1392 -0.0820  0.0834
  121OSM    C1S12701   0.371   6.350   6.287  0.4517 -0.1278 -0.7923
  121OSM    H1S12702   0.351   6.458   6.300  2.0676 -0.0268  1.2839
  121OSM    H1T12703   0.275   6.298   6.306 -0.6238  1.7202 -0.9389
  121OSM     NF12704   0.324   6.335   6.045 -0.0150 -0.3612 -0.7180
  121OSM    HNF12705   0.253   6.272   6.017 -1.7704  0.6427  1.1900
  121OSM    C2S12706   0.414   6.291   6.146 -0.6619 -0.6912 -0.4134
  121OSM    H2S12707   0.513   6.339   6.129 -0.0787 -2.1101 -1.2077
  121OSM    C3S12708   0.432   6.138   6.153  0.0795  0.2242 -0.2302
  121OSM    H3S12709   0.339   6.093   6.194 -0.6673  2.1285  0.2648
  121OSM     O312710   0.528   6.102   6.251  0.4581  0.4355  0.2366
  121OSM    HO312711   0.520   6.174   6.315  1.6399  0.1237  0.7587
  121OSM    C4S12712   0.466   6.076   6.023  0.2453  0.2956 -0.2697
  121OSM    H4S12713   0.402   6.100   5.937 -0.0814 -2.1192 -0.7761
  121OSM    C5S12714   0.580   6.021   5.991 -0.4037  0.3964  0.7600
  121OSM    H5S12715   0.655   6.010   6.072  0.3823  0.4851  0.0593
  121OSM    C6S12716   0.631   5.983   5.851 -0.2833 -0.3572 -0.3742
  121OSM    H6S12717   0.604   5.876   5.834 -2.1062  0.2224 -1.4385
  121OSM    H6T12718   0.742   5.985   5.856 -0.3216 -0.8794  1.3746
  121OSM    C7S12719   0.577   6.061   5.731 -0.3346  0.1450  0.1878
  121OSM    H7S12720   0.466   6.060   5.723 -0.2406 -1.8235 -2.2862
  121OSM    H7T12721   0.622   6.026   5.636  0.0712  0.6059  0.2073
  121OSM    C8S12722   0.615   6.205   5.751  0.4804  0.2423 -0.5877
  121OSM    H8S12723   0.721   6.210   5.783 -0.3156  2.3095  2.1720
  121OSM    H8T12724   0.554   6.262   5.824 -0.5227 -0.6224 -0.7355
  121OSM    C9S12725   0.606   6.288   5.621  0.4268 -0.4896 -1.0861
  121OSM    H9S12726   0.510   6.261   5.570  0.5421 -2.5964 -0.2588
  121OSM    H9T12727   0.703   6.275   5.568  0.1670 -1.1411 -1.4200
  121OSM   C10S12728   0.592   6.439   5.648  0.1455 -0.3857  0.2165
  121OSM   H10S12729   0.670   6.495   5.703 -0.5148 -0.1270  0.9146
  121OSM   H10T12730   0.503   6.457   5.712 -0.1079  0.7924 -0.4228
  121OSM   C11S12731   0.578   6.513   5.516  0.3497 -0.6285  0.5911
  121OSM   H11S12732   0.564   6.622   5.532 -2.5122 -0.6724 -0.9989
  121OSM   H11T12733   0.488   6.480   5.460 -0.4830  0.2065  1.3870
  121OSM   C12S12734   0.704   6.518   5.428 -0.1779 -0.5499  0.0274
  121OSM   H12S12735   0.734   6.414   5.402 -0.0084 -0.4534 -0.1672
  121OSM   H12T12736   0.783   6.572   5.485 -1.1589 -1.7223  2.6993
  121OSM   C13S12737   0.660   6.588   5.300  0.0503 -0.0427  0.5449
  121OSM   H13S12738   0.632   6.694   5.319  0.8544  0.2990 -0.1123
  121OSM   H13T12739   0.573   6.548   5.242 -0.3753  1.6607 -0.0807
  121OSM   C14S12740   0.779   6.596   5.205  0.2334 -0.1732 -0.2635
  121OSM   H14S12741   0.805   6.490   5.185 -0.1689 -0.4475  0.6172
  121OSM   H14T12742   0.870   6.649   5.242  0.3047 -0.3795 -0.1443
  121OSM   C15S12743   0.737   6.669   5.072 -0.3620  0.0851 -0.0074
  121OSM   H15S12744   0.827   6.687   5.009 -0.2348 -1.1794 -0.1996
  121OSM   H15T12745   0.702   6.772   5.097  0.2398 -0.0317  1.4604
  121OSM   C16S12746   0.647   6.583   4.983  0.2363 -0.4276 -0.0820
  121OSM   H16S12747   0.644   6.473   5.003 -0.7887 -0.6022 -1.0349
  121OSM   H16T12748   0.696   6.583   4.883  1.7664 -1.1320  0.6422
  121OSM   C17S12749   0.517   6.662   4.954 -0.0219  0.1759 -0.0597
  121OSM   H17S12750   0.549   6.753   4.898 -1.4348  0.6207 -0.1966
  121OSM   H17T12751   0.474   6.696   5.050 -0.0477  0.5192 -0.1885
  121OSM   C18S12752   0.403   6.592   4.872 -0.3410 -0.4645 -0.1104
  121OSM   H18S12753   0.436   6.585   4.766  1.8565 -0.5537  0.5299
  121OSM   H18T12754   0.313   6.656   4.881 -1.3463 -1.9850  1.2815
  121OSM   H18U12755   0.378   6.491   4.912 -1.1030  0.0319  0.6886
  121OSM    C1F12756   0.325   6.464   6.010  0.5065  0.1696  0.5740
  121OSM     OF12757   0.414   6.541   6.051 -0.1842 -0.2777 -1.0298
  121OSM    C2F12758   0.220   6.518   5.917  0.4941 -0.2290  0.0382
  121OSM    H2F12759   0.132   6.452   5.931  1.4698 -1.2436  1.8281
  121OSM    H2G12760   0.255   6.508   5.813 -0.8830  0.8837 -0.5635
  121OSM    C3F12761   0.180   6.666   5.948 -0.3354  0.3704 -0.3861
  121OSM    H3F12762   0.272   6.726   5.928 -0.7028  0.3946 -2.0646
  121OSM    H3G12763   0.142   6.687   6.051 -0.7293 -0.2830 -0.3956
  121OSM    C4F12764   0.073   6.716   5.855  0.1910  0.0415  0.2201
  121OSM    H4F12765  -0.029   6.679   5.878  0.1327 -1.0976 -1.6654
  121OSM    H4G12766   0.094   6.691   5.749 -1.5618  1.5705 -0.5396
  121OSM    C5F12767   0.069   6.861   5.859 -0.6072 -0.2032 -0.3635
  121OSM    H5F12768   0.173   6.902   5.861 -1.2664  1.6048 -1.3945
  121OSM    H5G12769   0.026   6.902   5.953  0.8444  0.4401  0.0515
  121OSM    C6F12770  -0.021   6.923   5.755 -0.1419 -0.0230 -0.4380
  121OSM    H6F12771  -0.124   6.885   5.769 -0.3921  0.0374 -1.9644
  121OSM    H6G12772   0.029   6.890   5.662 -1.9953 -0.3580 -1.3529
  121OSM    C7F12773  -0.033   7.080   5.753  0.0137  0.1810 -0.7600
  121OSM    H7F12774   0.067   7.126   5.769 -1.0970  1.6696  2.8253
  121OSM    H7G12775  -0.076   7.110   5.851  0.4835 -0.2765 -0.4052
  121OSM    C8F12776  -0.101   7.125   5.620  0.0842 -0.9986 -0.0119
  121OSM    H8F12777  -0.195   7.065   5.621  0.0093 -0.9139  1.3897
  121OSM    H8G12778  -0.031   7.094   5.540 -0.4892  0.4931 -1.1391
  121OSM    C9F12779  -0.132   7.269   5.608 -0.3385  0.4671  0.1910
  121OSM    H9F12780  -0.171   7.319   5.698 -1.7137 -0.5650  0.2008
  121OSM   C10F12781  -0.107   7.346   5.502 -0.5043 -0.0501  0.4873
  121OSM   H10F12782  -0.149   7.448   5.504 -1.6091 -0.4763 -0.0475
  121OSM   C11F12783  -0.042   7.307   5.369  0.1116  0.0171 -0.9313
  121OSM   H11F12784   0.054   7.251   5.382  0.2604  0.4095 -0.2771
  121OSM   H11G12785  -0.014   7.412   5.344  3.9461  0.3106  3.1935
  121OSM   C12F12786  -0.130   7.225   5.269  0.3212  0.2256 -0.2741
  121OSM   H12F12787  -0.235   7.262   5.273  0.0496 -0.3577 -1.4961
  121OSM   H12G12788  -0.144   7.119   5.300 -2.4964  0.9125  1.2620
  121OSM   C13F12789  -0.079   7.228   5.122 -0.5128 -0.3002 -0.1078
  121OSM   H13F12790   0.010   7.164   5.108 -0.7834 -0.2323 -2.4610
  121OSM   H13G12791  -0.056   7.332   5.093  0.9445  0.3320  2.9175
  121OSM   C14F12792  -0.182   7.172   5.021  0.0779 -0.7314  0.2531
  121OSM   H14F12793  -0.274   7.234   5.010  1.0055  0.3993 -1.8724
  121OSM   H14G12794  -0.212   7.072   5.059 -0.6683 -1.2992 -1.6538
  121OSM   C15F12795  -0.128   7.141   4.881  0.2350 -0.0663 -0.0023
  121OSM   H15F12796  -0.059   7.226   4.862  0.5293  0.9315  4.4125
  121OSM   H15G12797  -0.212   7.138   4.808 -1.6208 -1.0852  2.0494
  121OSM   C16F12798  -0.041   7.014   4.882 -0.1321  0.1700 -0.1172
  121OSM   H16F12799  -0.101   6.921   4.896  0.3207 -0.1398 -0.2191
  121OSM   H16G12800   0.033   6.999   4.963 -1.0943 -0.7217  0.6342
  121OSM   C17F12801   0.036   6.991   4.747  0.0258  0.1408 -0.5430
  121OSM   H17F12802   0.106   7.078   4.746  1.3148 -0.8452  0.6425
  121OSM   H17G12803  -0.042   7.008   4.669 -0.6870 -1.5172 -0.2371
  121OSM   C18F12804   0.100   6.856   4.728  0.4228  0.7025  0.1918
  121OSM   H18F12805   0.158   6.858   4.634 -0.3001  2.1175 -0.2600
  121OSM   H18G12806   0.021   6.778   4.730 -0.0567  1.1893  1.2133
  121OSM   H18H12807   0.157   6.835   4.821 -3.6653 -0.0622  2.8340
  122OSM      N12808   6.461   2.580   6.549  0.1601 -0.4320  0.1072
  122OSM    C1512809   6.598   2.528   6.509 -0.1024 -0.0772  0.7037
  122OSM   H15A12810   6.658   2.609   6.471 -1.0611  0.2081 -0.2559
  122OSM   H15B12811   6.591   2.454   6.430 -0.6477  0.9538 -0.2294
  122OSM   H15C12812   6.648   2.482   6.593 -0.0886  0.1955  0.8443
  122OSM    C1412813   6.386   2.475   6.622  0.5111 -0.1232  0.4697
  122OSM   H14A12814   6.361   2.393   6.555 -0.8991  0.6762 -0.0189
  122OSM   H14B12815   6.300   2.516   6.671  1.0437  0.6816  0.7454
  122OSM   H14C12816   6.442   2.428   6.702  0.4623  0.0992  0.6360
  122OSM    C1312817   6.496   2.691   6.650  0.8926 -0.2606 -0.0126
  122OSM   H13A12818   6.412   2.728   6.706  0.5207 -1.0183 -0.0626
  122OSM   H13B12819   6.532   2.778   6.597  1.9529  0.6439  2.1036
  122OSM   H13C12820   6.561   2.654   6.728 -1.4465 -1.7514  1.3330
  122OSM    C1212821   6.380   2.629   6.438 -0.2741 -0.2022  0.0603
  122OSM   H12A12822   6.297   2.672   6.490 -0.3689 -0.7707  0.3827
  122OSM   H12B12823   6.353   2.549   6.371  0.0646 -0.3772  0.1297
  122OSM    C1112824   6.441   2.747   6.348 -0.0750 -0.1679  0.2776
  122OSM   H11A12825   6.366   2.751   6.266  0.5383  0.7242 -0.2577
  122OSM   H11B12826   6.527   2.700   6.295  0.0550 -1.4262  1.5335
  122OSM      P12827   6.433   3.012   6.379  0.2467 -0.1647  0.2240
  122OSM    O1312828   6.289   3.024   6.394  0.0768 -0.2838  0.7892
  122OSM    O1412829   6.518   3.114   6.450  0.2456 -0.3390 -0.3452
  122OSM    O1112830   6.464   3.020   6.226  0.0408  0.3810  0.0985
  122OSM    O1212831   6.484   2.867   6.411  1.2672 -0.0928 -0.1173
  122OSM    C1S12832   6.603   3.003   6.183  0.8366 -0.0325 -0.8501
  122OSM    H1S12833   6.635   2.907   6.230  1.4911  0.0512 -1.1167
  122OSM    H1T12834   6.663   3.086   6.224 -0.2630 -0.5025  2.0295
  122OSM     NF12835   6.749   2.947   5.987  0.0418  0.0418 -0.2828
  122OSM    HNF12836   6.817   3.012   5.952  1.1626 -0.7495  0.3501
  122OSM    C2S12837   6.625   2.999   6.035 -0.0542  0.1078  0.2509
  122OSM    H2S12838   6.548   2.931   5.993 -0.2660  1.5700 -1.9345
  122OSM    C3S12839   6.606   3.145   5.974  0.5111 -0.1433 -0.2476
  122OSM    H3S12840   6.698   3.194   6.015  0.8560 -2.0327  1.3709
  122OSM     O312841   6.492   3.223   6.017  0.1396 -0.1259  0.3951
  122OSM    HO312842   6.455   3.177   6.093  3.7024  0.6552  2.8507
  122OSM    C4S12843   6.599   3.151   5.824 -1.1073 -0.0551 -0.3667
  122OSM    H4S12844   6.518   3.089   5.783 -1.9720 -0.8230  2.2567
  122OSM    C5S12845   6.675   3.230   5.748  0.0872 -0.1139  0.4446
  122OSM    H5S12846   6.747   3.298   5.797  0.7360 -0.7275  0.3626
  122OSM    C6S12847   6.668   3.255   5.594 -0.3017 -0.1907 -0.7628
  122OSM    H6S12848   6.761   3.297   5.550  0.4044  0.5064  1.2360
  122OSM    H6T12849   6.589   3.332   5.577 -0.8799 -0.6074 -0.0495
  122OSM    C7S12850   6.641   3.129   5.513  0.2178 -0.2531 -0.2090
  122OSM    H7S12851   6.547   3.078   5.546 -0.3439  3.1138  4.3766
  122OSM    H7T12852   6.724   3.060   5.538  0.5671  0.2054 -0.1009
  122OSM    C8S12853   6.625   3.149   5.364 -0.6109  0.0370 -0.0019
  122OSM    H8S12854   6.538   3.213   5.337 -0.2319  0.4354 -0.2908
  122OSM    H8T12855   6.605   3.050   5.317  0.2538  0.6902 -1.8485
  122OSM    C9S12856   6.759   3.184   5.303  0.3713  0.7816  0.3751
  122OSM    H9S12857   6.838   3.112   5.332 -0.2456  0.8186  2.2713
  122OSM    H9T12858   6.784   3.282   5.349 -0.8143  0.6057  1.4420
  122OSM   C10S12859   6.769   3.195   5.150  0.0864 -0.0443 -0.1909
  122OSM   H10S12860   6.690   3.266   5.117 -0.5960 -0.1255  1.1857
  122OSM   H10T12861   6.751   3.093   5.109  1.3752 -1.2086  1.9280
  122OSM   C11S12862   6.893   3.271   5.100  0.6433  0.1386 -0.0877
  122OSM   H11S12863   6.984   3.231   5.151  0.1267  0.8856  1.5075
  122OSM   H11T12864   6.882   3.380   5.121  3.0041  0.4478 -0.1408
  122OSM   C12S12865   6.903   3.271   4.948  0.1109 -0.4234  0.3442
  122OSM   H12S12866   6.991   3.331   4.918  0.4164 -0.0977  1.8022
  122OSM   H12T12867   6.815   3.326   4.907  0.5912  0.3841  0.3883
  122OSM   C13S12868   6.904   3.135   4.873  0.4971  0.2911  0.1455
  122OSM   H13S12869   6.817   3.069   4.893  0.9856 -0.5586 -0.4725
  122OSM   H13T12870   6.999   3.080   4.888  1.1709  1.3793 -0.0581
  122OSM   C14S12871   6.899   3.171   4.722  0.4464  0.0728 -0.2772
  122OSM   H14S12872   6.983   3.240   4.697  1.0550  0.1596  1.8629
  122OSM   H14T12873   6.799   3.213   4.700 -0.5742 -1.4257  1.3142
  122OSM   C15S12874   6.907   3.049   4.624  0.1874  0.3570 -0.3455
  122OSM   H15S12875   6.823   2.982   4.651  0.1360  1.1238  1.5894
  122OSM   H15T12876   7.000   2.997   4.655  1.1445  1.6236 -0.9831
  122OSM   C16S12877   6.923   3.078   4.476 -0.0220 -0.2202 -0.3283
  122OSM   H16S12878   7.022   3.127   4.463 -0.6865  2.5117  3.2681
  122OSM   H16T12879   6.860   3.166   4.453 -0.7685 -0.1321  1.8641
  122OSM   C17S12880   6.893   2.965   4.380 -0.0937  0.4678  0.2298
  122OSM   H17S12881   6.868   3.015   4.283 -1.7049  2.3602  1.5285
  122OSM   H17T12882   6.800   2.906   4.395 -0.2743  0.4027 -1.0065
  122OSM   C18S12883   7.013   2.880   4.354 -0.1211 -0.1698 -0.2712
  122OSM   H18S12884   6.992   2.793   4.288 -2.2793  0.9142 -1.1242
  122OSM   H18T12885   7.056   2.844   4.450  0.1365 -1.3853 -0.8190
  122OSM   H18U12886   7.088   2.935   4.293 -1.1252 -1.5881 -2.9925
  122OSM    C1F12887   6.792   2.819   5.994  0.1905 -0.0250 -0.0427
  122OSM     OF12888   6.727   2.742   6.060  0.1267  0.4989 -0.3104
  122OSM    C2F12889   6.915   2.786   5.915 -0.6477 -0.0185 -0.2980
  122OSM    H2F12890   6.985   2.767   5.999  0.2325  1.5527 -0.6367
  122OSM    H2G12891   6.950   2.879   5.866 -2.0287 -0.0248 -1.3723
  122OSM    C3F12892   6.902   2.677   5.815 -0.4658  0.1544 -0.2718
  122OSM    H3F12893   6.857   2.594   5.874 -1.1576 -0.2988 -1.3989
  122OSM    H3G12894   7.000   2.645   5.773 -0.6991 -3.9930  1.8006
  122OSM    C4F12895   6.807   2.711   5.694 -0.2027  0.4204 -0.0021
  122OSM    H4F12896   6.739   2.798   5.706 -2.0048 -1.0632  1.2294
  122OSM    H4G12897   6.740   2.622   5.691  0.7113 -0.3388  1.2260
  122OSM    C5F12898   6.863   2.737   5.560 -0.5879  0.8610 -0.2354
  122OSM    H5F12899   6.927   2.648   5.543 -3.3787 -0.8754 -2.5422
  122OSM    H5G12900   6.913   2.835   5.549  0.2810  0.3863 -0.5898
  122OSM    C6F12901   6.768   2.746   5.432 -0.4580 -0.0729  0.4778
  122OSM    H6F12902   6.693   2.827   5.450 -0.3279  0.1539  0.0263
  122OSM    H6G12903   6.695   2.663   5.423 -2.8953  2.1149 -2.2028
  122OSM    C7F12904   6.851   2.777   5.303 -0.0243  0.6245  0.4550
  122OSM    H7F12905   6.906   2.686   5.270 -2.4422 -0.5615 -0.4947
  122OSM    H7G12906   6.918   2.864   5.321 -0.5000  1.8098 -2.7491
  122OSM    C8F12907   6.766   2.811   5.183  0.0556  0.1502 -1.0928
  122OSM    H8F12908   6.694   2.894   5.199  2.5710  2.2964 -0.1057
  122OSM    H8G12909   6.700   2.723   5.192  0.9967 -0.4231  0.5999
  122OSM    C9F12910   6.847   2.824   5.062  0.5242 -0.5981 -0.3356
  122OSM    H9F12911   6.898   2.921   5.051 -1.2476  0.4932  0.6630
  122OSM   C10F12912   6.857   2.739   4.957 -0.3145  0.4575 -0.1136
  122OSM   H10F12913   6.929   2.767   4.879  0.3155  0.1204  0.3371
  122OSM   C11F12914   6.799   2.602   4.943  0.0693  0.0463  0.1894
  122OSM   H11F12915   6.721   2.578   5.019 -2.3897 -2.2440 -2.7801
  122OSM   H11G12916   6.880   2.526   4.948  1.2349  1.3270  2.9914
  122OSM   C12F12917   6.717   2.582   4.806  0.5696 -0.1701 -0.3589
  122OSM   H12F12918   6.721   2.471   4.806  0.7281 -0.1691  0.3177
  122OSM   H12G12919   6.763   2.636   4.721  0.7264  1.0227  0.4673
  122OSM   C13F12920   6.568   2.630   4.820 -0.1527 -0.0994  0.0942
  122OSM   H13F12921   6.567   2.729   4.869 -0.9222 -0.3377  0.5736
  122OSM   H13G12922   6.514   2.558   4.885 -0.9631  2.0342  1.8864
  122OSM   C14F12923   6.499   2.645   4.684 -0.1792 -0.0389 -0.3280
  122OSM   H14F12924   6.570   2.704   4.623  0.3712  0.4927  0.7933
  122OSM   H14G12925   6.412   2.713   4.692  0.8067  1.5268 -2.1176
  122OSM   C15F12926   6.467   2.515   4.604 -0.4531 -0.1708 -0.5261
  122OSM   H15F12927   6.460   2.427   4.671  0.7021  0.1277  0.0212
  122OSM   H15G12928   6.551   2.500   4.533  1.0619 -1.3131  1.4050
  122OSM   C16F12929   6.343   2.520   4.517 -0.2115 -0.3965  0.6060
  122OSM   H16F12930   6.349   2.592   4.433  1.3042 -0.0921  0.9522
  122OSM   H16G12931   6.255   2.557   4.573  0.8200  1.6621  0.9579
  122OSM   C17F12932   6.299   2.382   4.471  0.1204  0.2973 -0.3799
  122OSM   H17F12933   6.286   2.320   4.562  2.1152  2.8477  1.7857
  122OSM   H17G12934   6.390   2.338   4.424 -0.2381 -1.4149  0.4520
  122OSM   C18F12935   6.177   2.367   4.380 -0.3873  0.5715 -0.0539
  122OSM   H18F12936   6.083   2.394   4.434 -1.7914  0.0649 -2.1382
  122OSM   H18G12937   6.158   2.264   4.344 -1.2738  0.7807 -0.2038
  122OSM   H18H12938   6.183   2.436   4.294  0.0965  0.3246 -0.2235
  123OSM      N12939   1.968   3.636   1.738 -0.3535  0.3947  0.3246
  123OSM    C1512940   1.937   3.773   1.785 -0.0469 -0.1455 -0.5503
  123OSM   H15A12941   1.833   3.791   1.809  0.4794 -0.5422  2.2866
  123OSM   H15B12942   1.968   3.842   1.708  1.8939  1.0515  1.1916
  123OSM   H15C12943   1.996   3.802   1.870 -1.2447  0.7668  0.0005
  123OSM    C1412944   1.863   3.602   1.643  0.3100 -0.1632 -1.0621
  123OSM   H14A12945   1.859   3.651   1.547  0.5768 -1.1034 -1.5708
  123OSM   H14B12946   1.769   3.606   1.695  0.1257 -4.5583 -0.6852
  123OSM   H14C12947   1.870   3.498   1.616 -2.5208 -0.9476  0.7893
  123OSM    C1312948   2.099   3.632   1.665  0.1566  0.5794 -0.1020
  123OSM   H13A12949   2.182   3.664   1.726 -0.2612  0.3600  0.5892
  123OSM   H13B12950   2.085   3.702   1.583  1.0245 -0.4423 -1.1629
  123OSM   H13C12951   2.133   3.536   1.631 -1.5125  0.0686 -0.4214
  123OSM    C1212952   1.979   3.531   1.850 -0.5712  0.5697  0.3292
  123OSM   H12A12953   2.056   3.564   1.918 -1.3947  1.6136  0.7822
  123OSM   H12B12954   2.005   3.435   1.808 -1.0474 -0.1231  1.5789
  123OSM    C1112955   1.857   3.501   1.948 -0.6291 -0.0397  0.4069
  123OSM   H11A12956   1.825   3.599   1.992 -0.6660 -0.3140  0.9979
  123OSM   H11B12957   1.881   3.425   2.025 -0.1703  0.4148  0.7187
  123OSM      P12958   1.729   3.323   1.799 -0.1131  0.0132 -0.7300
  123OSM    O1312959   1.617   3.324   1.707 -0.0623 -0.1681  0.0108
  123OSM    O1412960   1.860   3.261   1.763 -1.0679  0.3691  0.1509
  123OSM    O1112961   1.697   3.251   1.931 -0.1756 -0.6860 -0.3595
  123OSM    O1212962   1.744   3.461   1.871 -0.3219  0.2023  0.1483
  123OSM    C1S12963   1.767   3.129   1.971 -0.5068  0.9532 -0.3146
  123OSM    H1S12964   1.874   3.156   1.980 -0.4416  0.4424  0.4967
  123OSM    H1T12965   1.748   3.044   1.902  0.5673  1.1831 -0.9191
  123OSM     NF12966   1.822   2.978   2.161 -0.2357 -1.2134  0.0351
  123OSM    HNF12967   1.779   2.889   2.172 -1.8770 -0.2967  1.6400
  123OSM    C2S12968   1.735   3.085   2.121  0.0091  0.2402  1.0696
  123OSM    H2S12969   1.762   3.182   2.170  1.6827  1.6547 -2.3304
  123OSM    C3S12970   1.584   3.058   2.138  0.5686  0.0513 -0.1105
  123OSM    H3S12971   1.544   2.975   2.076 -2.6164  1.6489 -0.4062
  123OSM     O312972   1.505   3.176   2.109  0.2207 -0.0532  0.0997
  123OSM    HO312973   1.569   3.228   2.060  0.9812  0.5477  1.6612
  123OSM    C4S12974   1.558   3.016   2.288  0.5406  0.5283  0.0709
  123OSM    H4S12975   1.544   2.908   2.296 -3.8197  0.8169 -1.1555
  123OSM    C5S12976   1.540   3.090   2.401 -0.7227  0.1304  0.6572
  123OSM    H5S12977   1.557   3.198   2.389  1.7490 -0.0660  1.8166
  123OSM    C6S12978   1.508   3.035   2.540  0.0913  0.3507  0.2224
  123OSM    H6S12979   1.600   3.049   2.601  0.9284  1.6922 -1.2758
  123OSM    H6T12980   1.468   2.931   2.544 -0.0570  0.3721 -0.6562
  123OSM    C7S12981   1.404   3.117   2.612 -0.2375  0.2501  0.0139
  123OSM    H7S12982   1.313   3.121   2.548  1.5813  0.4249 -2.7093
  123OSM    H7T12983   1.444   3.220   2.603  1.8143 -0.4952  0.2579
  123OSM    C8S12984   1.382   3.095   2.759  0.4960  0.3284 -0.4928
  123OSM    H8S12985   1.301   3.166   2.789  0.9086  1.3757 -1.7926
  123OSM    H8T12986   1.469   3.111   2.826 -0.4088  1.2775  0.4958
  123OSM    C9S12987   1.320   2.954   2.790 -0.2774  0.0225 -0.6253
  123OSM    H9S12988   1.387   2.868   2.769 -2.8228 -1.4136 -3.5491
  123OSM    H9T12989   1.231   2.942   2.725  0.2737 -0.1562 -1.3613
  123OSM   C10S12990   1.269   2.958   2.939 -0.9933 -0.0313 -0.2235
  123OSM   H10S12991   1.190   2.879   2.940  0.0062 -1.0585  1.7598
  123OSM   H10T12992   1.210   3.048   2.967  1.5784  1.1188  1.8200
  123OSM   C11S12993   1.381   2.940   3.046 -0.2940  0.4609  0.4890
  123OSM   H11S12994   1.438   3.033   3.021 -0.7840  0.0939 -2.2761
  123OSM   H11T12995   1.444   2.851   3.024  1.1739  1.1359  1.7018
  123OSM   C12S12996   1.341   2.926   3.194  0.3888 -0.0201  1.2189
  123OSM   H12S12997   1.329   2.816   3.209  2.2642 -0.5481 -0.6993
  123OSM   H12T12998   1.241   2.975   3.199 -0.7946 -1.9473 -1.2163
  123OSM   C13S12999   1.448   2.993   3.277 -0.8191  1.0879  0.7614
  123OSM   H13S13000   1.439   3.102   3.261  1.5550  1.5147  1.9118
  123OSM   H13T13001   1.550   2.963   3.244 -0.4275  1.2400  1.7995
  123OSM   C14S13002   1.432   2.965   3.425  0.1934 -0.2702  0.5517
  123OSM   H14S13003   1.530   2.980   3.474  0.4948 -0.0145 -0.1303
  123OSM   H14T13004   1.410   2.858   3.446 -0.1333 -0.5608 -1.1526
  123OSM   C15S13005   1.331   3.058   3.490  0.4386  0.2385  0.0453
  123OSM   H15S13006   1.236   3.069   3.434  0.4843  3.0605  0.3661
  123OSM   H15T13007   1.379   3.158   3.476 -1.2385  1.2031  0.8539
  123OSM   C16S13008   1.308   3.035   3.644 -0.1296 -0.1904  0.5305
  123OSM   H16S13009   1.269   2.931   3.644  0.8830 -0.5832  0.1674
  123OSM   H16T13010   1.231   3.096   3.695 -1.2173 -0.7096 -0.4405
  123OSM   C17S13011   1.439   3.026   3.735  0.0676 -0.5273 -0.3546
  123OSM   H17S13012   1.504   3.109   3.699 -2.1489  2.0259  1.1119
  123OSM   H17T13013   1.489   2.928   3.719 -2.5786 -1.7692 -1.6224
  123OSM   C18S13014   1.412   3.037   3.887  0.4090 -0.3675  0.1383
  123OSM   H18S13015   1.363   3.128   3.926  1.0032 -1.4386  3.7704
  123OSM   H18T13016   1.505   3.032   3.947  1.6856  4.6012 -0.9929
  123OSM   H18U13017   1.353   2.952   3.927  2.0305 -2.0152 -0.7988
  123OSM    C1F13018   1.958   2.990   2.170  0.8867  0.9523  0.4923
  123OSM     OF13019   2.001   3.103   2.184 -0.1358 -0.1609 -0.1349
  123OSM    C2F13020   2.037   2.863   2.166  1.1758 -0.6031 -0.1276
  123OSM    H2F13021   2.070   2.860   2.060 -1.8519 -0.6623 -1.1519
  123OSM    H2G13022   1.967   2.777   2.175 -2.4137  1.4968 -4.3007
  123OSM    C3F13023   2.150   2.880   2.262 -1.6704  0.2402 -0.1665
  123OSM    H3F13024   2.196   2.979   2.243 -1.2474 -0.2526 -1.8515
  123OSM    H3G13025   2.220   2.795   2.248 -1.5312  0.1962  0.7504
  123OSM    C4F13026   2.102   2.877   2.410  0.5199 -0.0572  0.5265
  123OSM    H4F13027   2.057   2.781   2.442 -2.3750  0.5803 -1.2025
  123OSM    H4G13028   2.035   2.963   2.433  1.0951  0.0250  1.9272
  123OSM    C5F13029   2.233   2.906   2.483 -0.8016 -0.3213 -0.6820
  123OSM    H5F13030   2.283   2.993   2.436 -1.5844 -0.5083 -1.8987
  123OSM    H5G13031   2.310   2.826   2.472  0.2914  0.9444 -2.6788
  123OSM    C6F13032   2.216   2.940   2.629  0.4852  0.4442 -0.2557
  123OSM    H6F13033   2.150   3.029   2.628  1.1174  0.9150 -1.3107
  123OSM    H6G13034   2.307   2.991   2.666  1.3303  0.2375 -1.9801
  123OSM    C7F13035   2.164   2.826   2.718 -0.1134 -0.3151  0.6684
  123OSM    H7F13036   2.214   2.732   2.686  0.9911 -0.2093  1.9848
  123OSM    H7G13037   2.060   2.805   2.685  0.2319 -0.4592 -0.3795
  123OSM    C8F13038   2.177   2.863   2.861  0.4957  0.0437  0.1795
  123OSM    H8F13039   2.149   2.970   2.872  1.0658  0.1043  1.0832
  123OSM    H8G13040   2.279   2.857   2.905 -0.0409  0.3983  1.5287
  123OSM    C9F13041   2.081   2.791   2.946  0.1176 -0.7058  0.5401
  123OSM    H9F13042   1.979   2.777   2.907  0.8373 -0.1941 -1.6256
  123OSM   C10F13043   2.097   2.750   3.070  0.1522 -0.5922 -0.7187
  123OSM   H10F13044   2.012   2.711   3.127 -0.1106  1.1341  0.1280
  123OSM   C11F13045   2.217   2.763   3.157 -0.2426  0.7169 -0.2385
  123OSM   H11F13046   2.291   2.841   3.130  1.5889 -0.8040  0.1766
  123OSM   H11G13047   2.271   2.670   3.129  0.0545  1.1068 -0.9888
  123OSM   C12F13048   2.184   2.764   3.305  0.2168 -0.3125  0.0135
  123OSM   H12F13049   2.113   2.683   3.332  1.4604 -1.0316  1.2737
  123OSM   H12G13050   2.128   2.857   3.329  0.0066 -0.4987  0.2516
  123OSM   C13F13051   2.311   2.743   3.389  0.8502 -0.2193 -0.1034
  123OSM   H13F13052   2.381   2.825   3.361  1.3954 -0.8664 -0.6788
  123OSM   H13G13053   2.351   2.646   3.352 -0.3648 -1.3634  1.4561
  123OSM   C14F13054   2.263   2.736   3.540  0.4097  0.1056  0.1081
  123OSM   H14F13055   2.193   2.651   3.553  0.9308 -0.2224  0.7683
  123OSM   H14G13056   2.194   2.815   3.576 -2.3348 -3.2111  2.8018
  123OSM   C15F13057   2.379   2.746   3.639 -0.0321  0.5690  0.0542
  123OSM   H15F13058   2.414   2.847   3.608 -1.9622  0.8886 -1.2357
  123OSM   H15G13059   2.454   2.668   3.611 -1.5610 -0.6512 -0.8719
  123OSM   C16F13060   2.331   2.726   3.783  0.2556  0.0701 -0.1327
  123OSM   H16F13061   2.259   2.642   3.798 -0.1563  0.0878 -1.8168
  123OSM   H16G13062   2.280   2.822   3.805  0.0311 -0.2523  0.8082
  123OSM   C17F13063   2.449   2.698   3.878  0.5155 -0.1013  0.3769
  123OSM   H17F13064   2.530   2.772   3.860  0.5429  0.0087  0.9440
  123OSM   H17G13065   2.488   2.595   3.863  2.7994  0.8729 -0.9382
  123OSM   C18F13066   2.415   2.730   4.025 -0.5096 -0.5292 -0.8937
  123OSM   H18F13067   2.508   2.725   4.087  0.7147  0.4709 -2.5701
  123OSM   H18G13068   2.339   2.658   4.063  1.4461 -2.0015  0.4172
  123OSM   H18H13069   2.366   2.830   4.029 -0.8160 -0.6522 -1.4629
  124OSM      N13070   2.517   4.861   1.630 -0.4284 -0.1419 -0.0649
  124OSM    C1513071   2.400   4.911   1.539  0.4238  0.0118  0.3045
  124OSM   H15A13072   2.415   5.013   1.508 -0.2767  0.4027  1.1979
  124OSM   H15B13073   2.313   4.893   1.601  0.1880 -3.0043 -0.7542
  124OSM   H15C13074   2.398   4.863   1.443  1.9045  0.4552  0.0234
  124OSM    C1413075   2.518   4.712   1.651 -0.0184 -0.4352  0.1471
  124OSM   H14A13076   2.423   4.678   1.689 -0.2721 -1.3562 -1.2182
  124OSM   H14B13077   2.591   4.691   1.728  0.0123  0.2692  0.3151
  124OSM   H14C13078   2.558   4.656   1.567  0.2732 -0.6311  0.4166
  124OSM    C1313079   2.642   4.902   1.563 -0.1957 -0.0331  0.8957
  124OSM   H13A13080   2.644   4.847   1.470 -0.2991 -0.9587  1.4318
  124OSM   H13B13081   2.734   4.874   1.613  0.5048 -0.5145 -0.6082
  124OSM   H13C13082   2.640   5.010   1.554 -2.1234 -0.0997  0.0627
  124OSM    C1213083   2.508   4.933   1.759 -0.3841  0.4200  1.2138
  124OSM   H12A13084   2.591   4.912   1.825  0.2633 -0.4889  0.1452
  124OSM   H12B13085   2.416   4.893   1.801  0.9258 -3.5090  0.7434
  124OSM    C1113086   2.498   5.089   1.753  0.9022 -0.3099 -0.7509
  124OSM   H11A13087   2.447   5.120   1.847 -0.2710  0.8395 -1.7411
  124OSM   H11B13088   2.447   5.141   1.670 -0.5630 -1.0513 -0.3561
  124OSM      P13089   2.727   5.151   1.871  0.5539  0.5416 -0.2488
  124OSM    O1313090   2.864   5.122   1.819  0.3435  0.2472 -0.5909
  124OSM    O1413091   2.706   5.281   1.941 -0.1012 -0.0449 -0.5418
  124OSM    O1113092   2.689   5.022   1.959  0.2158  0.0457 -0.4387
  124OSM    O1213093   2.625   5.149   1.755  0.0653 -0.3037  0.7995
  124OSM    C1S13094   2.786   4.967   2.053  0.3379  0.9253 -0.3465
  124OSM    H1S13095   2.855   5.051   2.075  1.8547 -0.0356 -1.2841
  124OSM    H1T13096   2.843   4.883   2.009 -0.2263  0.3604 -0.0279
  124OSM     NF13097   2.818   4.868   2.287  0.3075 -0.7280 -0.1446
  124OSM    HNF13098   2.829   4.776   2.323 -0.7260 -0.6787  0.3107
  124OSM    C2S13099   2.721   4.912   2.187  0.0006  0.0317  0.0895
  124OSM    H2S13100   2.647   4.984   2.227  0.8610 -0.0024  1.8026
  124OSM    C3S13101   2.624   4.794   2.148 -0.2299  1.0163  0.2758
  124OSM    H3S13102   2.690   4.724   2.094 -1.6792  2.1833 -3.3070
  124OSM     O313103   2.521   4.825   2.053  0.2741  0.2293  0.3786
  124OSM    HO313104   2.542   4.915   2.026  0.2184  0.3317  0.6683
  124OSM    C4S13105   2.571   4.735   2.274  0.3456  0.4966  0.0427
  124OSM    H4S13106   2.624   4.647   2.312  0.0613  0.5589  0.6008
  124OSM    C5S13107   2.454   4.760   2.338  0.2673  0.0982  0.1271
  124OSM    H5S13108   2.376   4.816   2.285  1.0132 -1.6926 -3.0951
  124OSM    C6S13109   2.404   4.673   2.444 -0.0904 -0.2395  0.4827
  124OSM    H6S13110   2.299   4.644   2.424 -0.3224  0.4973  0.5978
  124OSM    H6T13111   2.408   4.726   2.542  3.8691  0.4394  0.1132
  124OSM    C7S13112   2.476   4.535   2.472  0.7117 -0.3548 -0.6772
  124OSM    H7S13113   2.571   4.566   2.521 -0.2808  2.0952 -0.1453
  124OSM    H7T13114   2.518   4.496   2.377 -0.9003  0.9557 -1.9691
  124OSM    C8S13115   2.403   4.431   2.565  0.1089 -0.6198 -0.4352
  124OSM    H8S13116   2.479   4.355   2.596  0.0736  0.0564  1.4376
  124OSM    H8T13117   2.331   4.385   2.494  1.8514  0.3902 -3.0259
  124OSM    C9S13118   2.335   4.487   2.694  0.6142  1.1091 -0.3674
  124OSM    H9S13119   2.238   4.534   2.666 -0.4544 -1.1605 -0.6537
  124OSM    H9T13120   2.400   4.556   2.752  2.9177  1.1308 -2.7899
  124OSM   C10S13121   2.299   4.366   2.787  0.1637  0.4013 -0.3719
  124OSM   H10S13122   2.392   4.307   2.803  1.6686  1.8850 -2.9463
  124OSM   H10T13123   2.225   4.293   2.747 -0.6361  0.7900  0.3673
  124OSM   C11S13124   2.236   4.410   2.922  0.1695  0.1658 -0.2253
  124OSM   H11S13125   2.140   4.463   2.902  0.1371  0.0773 -0.3077
  124OSM   H11T13126   2.302   4.479   2.980  0.0326 -0.0305  0.1647
  124OSM   C12S13127   2.223   4.289   3.011  0.3443 -0.1059  0.2319
  124OSM   H12S13128   2.321   4.271   3.059 -0.7577 -0.1786  2.5495
  124OSM   H12T13129   2.196   4.197   2.954  2.5152 -0.6910  0.0443
  124OSM   C13S13130   2.122   4.311   3.131  0.3307  0.4634  0.5411
  124OSM   H13S13131   2.029   4.361   3.095  1.1956  1.2357 -0.7109
  124OSM   H13T13132   2.160   4.384   3.205  3.4609  1.8343 -2.1352
  124OSM   C14S13133   2.088   4.181   3.202 -0.5479 -0.4902  0.2916
  124OSM   H14S13134   2.188   4.140   3.229  0.1147  2.5164  3.0130
  124OSM   H14T13135   2.039   4.103   3.140 -2.7612  1.9669 -1.2801
  124OSM   C15S13136   2.006   4.201   3.330 -0.9142 -0.5121 -0.1414
  124OSM   H15S13137   1.903   4.239   3.320 -0.8236  0.2361  1.4549
  124OSM   H15T13138   2.056   4.279   3.391 -0.0923 -0.4804 -0.8259
  124OSM   C16S13139   1.994   4.072   3.407  0.4003  0.7428 -0.7503
  124OSM   H16S13140   2.090   4.019   3.426 -0.0410  0.0497 -0.4348
  124OSM   H16T13141   1.929   3.994   3.360  2.0056 -2.4553  1.9232
  124OSM   C17S13142   1.946   4.100   3.550 -0.9573  0.3791 -0.5604
  124OSM   H17S13143   2.017   4.176   3.590  0.1264 -0.8491 -0.0577
  124OSM   H17T13144   1.962   4.000   3.597  0.5320 -0.3339 -2.4701
  124OSM   C18S13145   1.799   4.132   3.561 -0.0798  0.2966 -0.4697
  124OSM   H18S13146   1.767   4.133   3.668  1.2736  0.2564 -0.0498
  124OSM   H18T13147   1.745   4.050   3.509 -0.6972 -0.0846  0.7339
  124OSM   H18U13148   1.771   4.231   3.518  0.7480  2.5352  3.5211
  124OSM    C1F13149   2.904   4.962   2.328  0.0139 -0.1635  0.4381
  124OSM     OF13150   2.910   5.081   2.295  0.3715  0.5863  0.4602
  124OSM    C2F13151   2.985   4.908   2.439  0.2135 -0.6446 -0.4160
  124OSM    H2F13152   3.077   4.860   2.398  2.1785  2.2372  0.2354
  124OSM    H2G13153   2.925   4.834   2.495 -1.8525  2.6436  2.0801
  124OSM    C3F13154   3.040   5.014   2.536 -0.6547 -0.2785 -0.5153
  124OSM    H3F13155   2.950   5.065   2.578  0.8817  0.7103  1.8178
  124OSM    H3G13156   3.097   5.096   2.488 -1.3296 -0.4345 -1.6213
  124OSM    C4F13157   3.116   4.940   2.648  0.3522  0.6891 -0.2023
  124OSM    H4F13158   3.209   4.902   2.602 -1.0477 -2.7034 -0.5420
  124OSM    H4G13159   3.063   4.850   2.686 -2.0738  2.9481  2.2323
  124OSM    C5F13160   3.147   5.019   2.769 -0.0965 -0.3356  0.1034
  124OSM    H5F13161   3.165   5.127   2.750 -2.6616  0.3292  1.0565
  124OSM    H5G13162   3.234   4.978   2.824 -0.7970  1.0934  2.4339
  124OSM    C6F13163   3.037   5.021   2.872  0.2751  0.2340 -0.6055
  124OSM    H6F13164   2.942   5.007   2.815  0.3925 -2.9073 -0.2183
  124OSM    H6G13165   3.036   5.116   2.930  1.3260 -0.1956  0.1477
  124OSM    C7F13166   3.050   4.900   2.965  0.4763  0.7143  0.5457
  124OSM    H7F13167   3.152   4.896   3.007 -0.3886 -3.1825  2.7473
  124OSM    H7G13168   3.031   4.808   2.905 -0.4670 -0.0627  1.9685
  124OSM    C8F13169   2.938   4.888   3.077 -0.1777 -0.5563  0.0640
  124OSM    H8F13170   2.844   4.879   3.018 -2.3198  2.1347  2.7205
  124OSM    H8G13171   2.924   4.990   3.119 -0.7168 -0.7968  0.4786
  124OSM    C9F13172   2.967   4.769   3.156 -0.3518 -1.0213 -0.6664
  124OSM    H9F13173   2.957   4.680   3.092 -1.7636 -1.3225 -0.0590
  124OSM   C10F13174   3.001   4.770   3.287 -0.5495  0.3588  0.4373
  124OSM   H10F13175   3.043   4.679   3.331 -1.4085 -0.6423 -0.7531
  124OSM   C11F13176   3.015   4.901   3.369  0.3086  0.3896 -1.4856
  124OSM   H11F13177   2.981   4.991   3.314 -0.4621  0.2052 -1.3143
  124OSM   H11G13178   3.119   4.910   3.409 -1.2005 -0.7599  3.3311
  124OSM   C12F13179   2.920   4.898   3.492  0.3613 -0.0030 -0.4018
  124OSM   H12F13180   2.952   4.818   3.561 -1.9142  0.2488  1.0395
  124OSM   H12G13181   2.819   4.874   3.450 -0.2663 -2.2572  2.1208
  124OSM   C13F13182   2.915   5.035   3.564 -0.3262  0.1414 -0.0611
  124OSM   H13F13183   2.858   5.117   3.515 -0.0684  0.9513  0.9510
  124OSM   H13G13184   3.020   5.072   3.572 -0.7090  0.9961  1.4946
  124OSM   C14F13185   2.865   5.029   3.705 -0.0463 -0.5295  0.2098
  124OSM   H14F13186   2.928   4.949   3.749  1.2551  0.7427  0.7449
  124OSM   H14G13187   2.758   5.002   3.718 -0.0812 -0.4480  0.0892
  124OSM   C15F13188   2.896   5.157   3.780  0.2968  0.1169 -0.4675
  124OSM   H15F13189   2.863   5.245   3.720  1.8025  0.9617 -0.1199
  124OSM   H15G13190   3.007   5.154   3.784  0.2502 -0.4763  1.1602
  124OSM   C16F13191   2.829   5.156   3.917 -0.0271 -0.1815  0.4207
  124OSM   H16F13192   2.719   5.157   3.902  0.2656 -1.0278 -2.3720
  124OSM   H16G13193   2.856   5.246   3.977 -2.4168  0.4858  0.5925
  124OSM   C17F13194   2.876   5.038   4.002 -0.9327 -0.0084 -0.2569
  124OSM   H17F13195   2.985   5.052   4.012 -1.1141  0.5518  1.1773
  124OSM   H17G13196   2.863   4.941   3.948  1.4541 -0.0069 -0.9304
  124OSM   C18F13197   2.805   5.026   4.143  0.2219  0.0099 -0.5132
  124OSM   H18F13198   2.834   5.108   4.213 -0.0159 -0.3224 -0.0154
  124OSM   H18G13199   2.835   4.929   4.188 -0.0118 -0.0603 -0.5084
  124OSM   H18H13200   2.695   5.027   4.134  0.1385  0.7097  0.4057
  125OSM      N13201   4.049   2.141   2.296  0.0189 -0.6397 -0.0209
  125OSM    C1513202   3.914   2.151   2.361 -0.1927 -0.1170 -0.4071
  125OSM   H15A13203   3.923   2.139   2.468 -0.4591  3.3909  0.1203
  125OSM   H15B13204   3.851   2.073   2.322 -0.6549 -0.1702  0.4182
  125OSM   H15C13205   3.863   2.245   2.347  0.9030  0.6700  0.6735
  125OSM    C1413206   4.138   2.252   2.350 -0.3054  0.1808 -0.4072
  125OSM   H14A13207   4.080   2.341   2.329  1.6490  1.7680  0.5538
  125OSM   H14B13208   4.227   2.251   2.289 -1.2165 -0.3364 -1.7598
  125OSM   H14C13209   4.161   2.243   2.455 -0.0249  1.0908 -0.3771
  125OSM    C1313210   4.113   2.011   2.337 -0.2736  0.1031 -0.2780
  125OSM   H13A13211   4.208   1.995   2.288 -0.6685 -0.6355 -0.8233
  125OSM   H13B13212   4.044   1.932   2.311 -2.3920  1.7004  0.2597
  125OSM   H13C13213   4.134   2.007   2.442 -0.2423  0.4216 -0.2704
  125OSM    C1213214   4.041   2.159   2.145  0.5783 -1.4188  0.4576
  125OSM   H12A13215   4.139   2.162   2.101  0.1240 -2.0742 -0.6273
  125OSM   H12B13216   4.004   2.260   2.134  3.4343 -0.1554  1.3799
  125OSM    C1113217   3.944   2.061   2.059 -0.1516 -0.2359  0.3116
  125OSM   H11A13218   3.939   2.084   1.950  0.5836 -1.6545 -0.0463
  125OSM   H11B13219   3.841   2.088   2.091  0.1939  0.8620  0.5262
  125OSM      P13220   3.877   1.811   2.124 -0.0987  0.0614  0.0694
  125OSM    O1313221   3.746   1.865   2.167  0.4764 -0.6152  0.8069
  125OSM    O1413222   3.878   1.708   2.014 -0.2894  0.7630  0.1399
  125OSM    O1113223   3.949   1.747   2.256 -0.1284 -0.1045  0.2472
  125OSM    O1213224   3.978   1.923   2.083  0.3194 -0.0086 -0.3845
  125OSM    C1S13225   3.953   1.607   2.289 -0.1699 -0.0759  0.1937
  125OSM    H1S13226   4.045   1.557   2.251  0.4723  1.2118 -0.0007
  125OSM    H1T13227   3.859   1.562   2.250 -1.6056  1.8767  1.2025
  125OSM     NF13228   3.947   1.432   2.472  0.0857  0.2512 -0.1854
  125OSM    HNF13229   3.860   1.393   2.503 -0.1218  0.8320 -0.0150
  125OSM    C2S13230   3.950   1.578   2.445  0.1164  0.4392  0.1398
  125OSM    H2S13231   4.047   1.616   2.483 -0.7202  1.4771  1.3454
  125OSM    C3S13232   3.839   1.665   2.523 -0.4384  0.0610  0.0125
  125OSM    H3S13233   3.743   1.625   2.483  0.3797 -2.2378  0.2109
  125OSM     O313234   3.822   1.802   2.485 -0.0205 -0.4975  0.2078
  125OSM    HO313235   3.854   1.804   2.395 -3.0115  1.6539 -1.0017
  125OSM    C4S13236   3.832   1.636   2.665 -0.0695  0.1878 -0.5943
  125OSM    H4S13237   3.771   1.546   2.683 -0.2221  0.4766  0.3721
  125OSM    C5S13238   3.897   1.701   2.771 -0.0309 -0.2163 -0.1154
  125OSM    H5S13239   3.947   1.795   2.744  1.5495 -0.5705  1.3879
  125OSM    C6S13240   3.888   1.647   2.909  0.1489  0.1075  0.0505
  125OSM    H6S13241   3.813   1.713   2.956 -0.1941  1.0094 -1.6774
  125OSM    H6T13242   3.986   1.675   2.954 -0.1530 -0.3158  0.9791
  125OSM    C7S13243   3.863   1.499   2.946 -0.7263 -0.0639 -0.7245
  125OSM    H7S13244   3.939   1.436   2.896  1.6193  1.0533  1.2283
  125OSM    H7T13245   3.769   1.458   2.903 -0.7498  0.8257 -1.5590
  125OSM    C8S13246   3.892   1.465   3.095 -0.1552 -0.2513 -0.1160
  125OSM    H8S13247   3.826   1.527   3.158 -0.5541 -0.1782 -0.6009
  125OSM    H8T13248   3.999   1.479   3.122 -0.2652 -0.6741  0.5565
  125OSM    C9S13249   3.865   1.314   3.109  0.0723 -0.4345  0.5137
  125OSM    H9S13250   3.922   1.261   3.029  0.0387  0.1282  0.1120
  125OSM    H9T13251   3.757   1.296   3.087  0.0771  0.0304  0.0941
  125OSM   C10S13252   3.904   1.261   3.245  0.2349 -0.7209 -0.1126
  125OSM   H10S13253   3.860   1.326   3.323  1.6416  0.0241  0.0791
  125OSM   H10T13254   4.014   1.266   3.256  0.2624 -0.9730 -0.2614
  125OSM   C11S13255   3.866   1.116   3.276  1.1449  0.5508 -0.5615
  125OSM   H11S13256   3.924   1.049   3.210 -1.8416 -2.0548 -0.7595
  125OSM   H11T13257   3.760   1.091   3.259  0.4960  1.9480  1.0442
  125OSM   C12S13258   3.917   1.068   3.415 -0.0765 -0.1684  0.0718
  125OSM   H12S13259   3.975   1.150   3.464  0.8546 -1.6659  1.5648
  125OSM   H12T13260   3.996   0.990   3.410  1.7848  1.5041  1.4652
  125OSM   C13S13261   3.804   1.038   3.508  0.5810  0.4030 -0.1023
  125OSM   H13S13262   3.756   0.944   3.473  2.1556  0.7703 -3.6335
  125OSM   H13T13263   3.727   1.118   3.512 -0.0575 -0.1473 -1.0660
  125OSM   C14S13264   3.854   1.018   3.652 -0.4957 -0.4413 -0.2369
  125OSM   H14S13265   3.926   1.098   3.681 -0.0277 -0.7674 -0.4900
  125OSM   H14T13266   3.902   0.917   3.654 -2.3541 -1.4606 -2.7704
  125OSM   C15S13267   3.737   1.018   3.752  0.2783  0.3443 -0.6010
  125OSM   H15S13268   3.653   0.951   3.726  0.1870 -0.7848  2.2483
  125OSM   H15T13269   3.683   1.114   3.735  1.1115  0.5444 -2.4124
  125OSM   C16S13270   3.782   1.008   3.897  0.2146  0.1954  0.0316
  125OSM   H16S13271   3.845   0.918   3.914  0.4048  0.3128 -0.0534
  125OSM   H16T13272   3.690   0.996   3.959 -0.7724 -0.0554 -1.4342
  125OSM   C17S13273   3.866   1.125   3.930 -0.5299 -0.3205 -0.2407
  125OSM   H17S13274   3.839   1.216   3.873  0.0402  0.7717  1.1818
  125OSM   H17T13275   3.974   1.109   3.911 -0.3664  1.1855 -0.6591
  125OSM   C18S13276   3.853   1.172   4.079  0.6453 -0.3287 -1.0574
  125OSM   H18S13277   3.747   1.197   4.102  0.2326 -2.2162 -0.7538
  125OSM   H18T13278   3.914   1.264   4.091 -0.8357  0.5091  0.5390
  125OSM   H18U13279   3.893   1.111   4.162  0.6665  0.1577 -0.7032
  125OSM    C1F13280   4.061   1.361   2.464  0.1588  0.2086 -0.1950
  125OSM     OF13281   4.164   1.422   2.447  0.6785 -0.0265  0.0088
  125OSM    C2F13282   4.053   1.214   2.459  0.3317  0.1969 -0.3331
  125OSM    H2F13283   4.114   1.181   2.372 -2.5946  0.3766 -2.6343
  125OSM    H2G13284   3.951   1.172   2.444  0.1830  0.9002 -1.4096
  125OSM    C3F13285   4.114   1.141   2.582 -0.6040  0.4218 -0.4485
  125OSM    H3F13286   4.215   1.177   2.613  0.0788 -2.3277  0.8156
  125OSM    H3G13287   4.131   1.034   2.562 -0.9420  0.4349 -0.8212
  125OSM    C4F13288   4.021   1.141   2.703  0.1667 -0.1805  0.5904
  125OSM    H4F13289   3.915   1.122   2.674  0.0168  0.0174  0.9995
  125OSM    H4G13290   4.020   1.246   2.739  0.1464  0.7358 -1.9046
  125OSM    C5F13291   4.055   1.052   2.820  0.1804 -0.5471  0.1575
  125OSM    H5F13292   4.089   0.953   2.784  1.6284 -0.8554  2.2285
  125OSM    H5G13293   3.970   1.037   2.890  0.4974  0.2902  0.7364
  125OSM    C6F13294   4.167   1.107   2.907 -0.7705  0.5966 -0.8275
  125OSM    H6F13295   4.155   1.214   2.934 -2.5483  0.3221 -0.4301
  125OSM    H6G13296   4.262   1.104   2.850  0.4232  1.6920  0.9772
  125OSM    C7F13297   4.182   1.027   3.043 -0.6629  0.2965  0.3972
  125OSM    H7F13298   4.119   1.073   3.123  1.8572  1.2454  1.9670
  125OSM    H7G13299   4.279   1.061   3.087 -0.9368 -0.8907  2.0155
  125OSM    C8F13300   4.187   0.872   3.033 -0.8759 -0.5782 -0.8555
  125OSM    H8F13301   4.098   0.837   2.975 -1.3846 -1.2659  0.2971
  125OSM    H8G13302   4.161   0.838   3.136 -1.6322  1.9620 -0.1398
  125OSM    C9F13303   4.310   0.811   2.987 -0.1453 -0.0157  0.2444
  125OSM    H9F13304   4.327   0.820   2.878  0.9837  0.2654  0.4276
  125OSM   C10F13305   4.392   0.736   3.055  0.4788  0.7690  0.0980
  125OSM   H10F13306   4.481   0.697   3.003 -0.8836 -0.1601 -1.6641
  125OSM   C11F13307   4.382   0.693   3.198  0.2039  0.5274 -0.7007
  125OSM   H11F13308   4.467   0.625   3.223  1.3973  2.4399  0.7993
  125OSM   H11G13309   4.286   0.640   3.215  0.1077  1.0203  0.3738
  125OSM   C12F13310   4.377   0.798   3.309 -0.2674 -1.4109 -0.3489
  125OSM   H12F13311   4.308   0.883   3.293  0.7470 -0.6165 -0.5506
  125OSM   H12G13312   4.479   0.840   3.308 -0.6090 -0.5741 -1.0192
  125OSM   C13F13313   4.361   0.755   3.457  0.3519 -0.0541  0.4724
  125OSM   H13F13314   4.443   0.686   3.489 -0.3920 -1.1880 -0.0172
  125OSM   H13G13315   4.265   0.700   3.453 -0.1124  0.7868 -2.3433
  125OSM   C14F13316   4.370   0.889   3.539  0.1731  0.1889 -0.3027
  125OSM   H14F13317   4.296   0.965   3.508 -1.9400 -2.0164 -1.0285
  125OSM   H14G13318   4.478   0.913   3.529  0.3436 -0.2409  0.4199
  125OSM   C15F13319   4.336   0.860   3.693  0.8431  0.5354  0.5252
  125OSM   H15F13320   4.388   0.928   3.764 -3.7354  2.7391  2.2115
  125OSM   H15G13321   4.380   0.762   3.721 -0.6970 -0.9886 -1.9670
  125OSM   C16F13322   4.181   0.862   3.713  0.4013 -0.5005 -0.4426
  125OSM   H16F13323   4.136   0.792   3.641 -0.8970 -0.3041  0.1600
  125OSM   H16G13324   4.139   0.965   3.710  1.8194  0.0839 -1.4328
  125OSM   C17F13325   4.132   0.806   3.849 -0.3960 -0.1756 -0.5900
  125OSM   H17F13326   4.166   0.700   3.853 -0.3707 -0.3015 -2.9631
  125OSM   H17G13327   4.021   0.806   3.850 -0.3982 -0.9129 -0.7154
  125OSM   C18F13328   4.170   0.880   3.975  0.1499 -0.6674  0.5749
  125OSM   H18F13329   4.280   0.885   3.989  0.2006  1.9739 -0.3285
  125OSM   H18G13330   4.110   0.853   4.065 -1.1190 -0.4566 -0.1838
  125OSM   H18H13331   4.155   0.988   3.957  1.9302 -0.6461 -1.1075
  126OSM      N13332   2.632   1.909   1.787  0.6258  0.0956 -0.0148
  126OSM    C1513333   2.722   2.010   1.857 -0.1877  0.1615  0.5592
  126OSM   H15A13334   2.675   2.101   1.892 -0.0420 -0.0376  1.2978
  126OSM   H15B13335   2.803   2.040   1.792 -0.6219 -0.7640 -0.4326
  126OSM   H15C13336   2.766   1.970   1.947 -1.9246  1.0751  1.8648
  126OSM    C1413337   2.715   1.793   1.719  0.3643 -0.0138  0.1932
  126OSM   H14A13338   2.783   1.831   1.644  1.3838 -2.0894  0.0244
  126OSM   H14B13339   2.643   1.726   1.675  1.0432 -0.8155  0.2953
  126OSM   H14C13340   2.759   1.731   1.796 -0.0862 -0.0913  0.3964
  126OSM    C1313341   2.545   1.846   1.888  0.4213 -0.3902  0.6155
  126OSM   H13A13342   2.491   1.919   1.946  0.1554 -0.6123  0.6459
  126OSM   H13B13343   2.603   1.773   1.942  0.1488 -0.9343  0.1763
  126OSM   H13C13344   2.472   1.787   1.835 -0.5931  2.3546 -1.2934
  126OSM    C1213345   2.556   1.977   1.672  0.8255  0.2706  0.1929
  126OSM   H12A13346   2.521   1.903   1.602  0.1040  2.2422 -1.6245
  126OSM   H12B13347   2.625   2.036   1.614  0.6393 -0.7214 -1.0627
  126OSM    C1113348   2.435   2.061   1.709  0.1356  0.0156  0.0069
  126OSM   H11A13349   2.468   2.148   1.769 -1.3817 -0.1319  1.1229
  126OSM   H11B13350   2.369   2.001   1.775 -0.4495 -0.6411 -1.1243
  126OSM      P13351   2.306   2.242   1.563 -0.1522  0.2378  0.3753
  126OSM    O1313352   2.408   2.342   1.528 -0.3819 -0.6577  0.5533
  126OSM    O1413353   2.214   2.218   1.455 -0.0001 -0.7110  0.1425
  126OSM    O1113354   2.228   2.276   1.688 -1.1611 -0.3404  0.1579
  126OSM    O1213355   2.378   2.100   1.585 -0.6188  0.2505  0.3976
  126OSM    C1S13356   2.132   2.186   1.747  0.6733  0.0022  0.3233
  126OSM    H1S13357   2.164   2.081   1.728  2.0023  0.0559  2.0110
  126OSM    H1T13358   2.032   2.214   1.709  1.0307  3.6211  1.6476
  126OSM     NF13359   2.034   2.119   1.959  0.5041 -0.1811 -0.3392
  126OSM    HNF13360   1.939   2.145   1.968  0.4589 -1.0243  2.7891
  126OSM    C2S13361   2.132   2.210   1.901  0.4570 -0.3071 -0.2183
  126OSM    H2S13362   2.234   2.192   1.941  0.5349  0.1446 -0.2024
  126OSM    C3S13363   2.099   2.351   1.934 -0.7241 -0.1266  0.4360
  126OSM    H3S13364   2.005   2.374   1.879 -0.3189  0.7197  0.0704
  126OSM     O313365   2.205   2.441   1.883 -0.1756  0.3889 -0.1595
  126OSM    HO313366   2.254   2.402   1.810  1.0188  0.5457  0.5365
  126OSM    C4S13367   2.070   2.379   2.080 -1.1505 -0.0561 -0.2114
  126OSM    H4S13368   1.967   2.365   2.115 -0.6827 -2.2494  0.4213
  126OSM    C5S13369   2.168   2.426   2.167 -0.4979 -0.4340 -0.1468
  126OSM    H5S13370   2.271   2.449   2.135 -0.2718  2.5412  2.2552
  126OSM    C6S13371   2.146   2.470   2.311  0.6566  0.1262  1.2176
  126OSM    H6S13372   2.070   2.550   2.298 -0.1654 -0.6826  0.8695
  126OSM    H6T13373   2.238   2.512   2.356  0.3669 -0.8496  2.8159
  126OSM    C7S13374   2.089   2.374   2.417 -0.5307  0.4175  0.7837
  126OSM    H7S13375   2.170   2.301   2.438 -0.9384 -0.9081 -1.9214
  126OSM    H7T13376   2.005   2.316   2.374  0.4485 -1.0356  0.7866
  126OSM    C8S13377   2.034   2.442   2.545 -0.3331 -0.1141 -0.3827
  126OSM    H8S13378   1.931   2.477   2.523 -1.0155 -1.8549 -0.1450
  126OSM    H8T13379   2.100   2.530   2.562 -0.1469 -0.4923  0.9306
  126OSM    C9S13380   2.037   2.350   2.671  0.9488 -0.2575  0.1097
  126OSM    H9S13381   2.139   2.307   2.673  1.4386  0.8776  0.6797
  126OSM    H9T13382   1.968   2.266   2.650  1.1848 -0.4997  0.2916
  126OSM   C10S13383   2.010   2.418   2.805 -0.3704  0.7583  0.0046
  126OSM   H10S13384   1.902   2.444   2.811 -0.2099  1.1513  1.9537
  126OSM   H10T13385   2.064   2.512   2.827  0.6421  0.1499  0.1823
  126OSM   C11S13386   2.042   2.310   2.913 -0.1960 -0.1040 -0.7194
  126OSM   H11S13387   2.150   2.284   2.900  0.0681  1.1258 -1.1504
  126OSM   H11T13388   1.981   2.218   2.901  0.2706 -0.5771  0.4379
  126OSM   C12S13389   2.014   2.357   3.059  0.2507 -0.8087  0.0293
  126OSM   H12S13390   1.910   2.392   3.045  0.4162 -0.2438  0.2089
  126OSM   H12T13391   2.079   2.443   3.085 -1.9704  0.5550  1.3536
  126OSM   C13S13392   2.024   2.251   3.167  0.1919  0.1198  0.6197
  126OSM   H13S13393   2.122   2.198   3.159 -0.5110 -1.1434  0.1062
  126OSM   H13T13394   1.944   2.176   3.150 -0.0567  0.6279 -0.6388
  126OSM   C14S13395   2.028   2.316   3.310  0.4073 -0.1472 -0.3018
  126OSM   H14S13396   1.946   2.389   3.327 -0.3678 -1.4299  1.9495
  126OSM   H14T13397   2.116   2.382   3.325 -0.6732  1.2885 -0.1006
  126OSM   C15S13398   2.024   2.208   3.415 -0.2818  0.3221  0.3271
  126OSM   H15S13399   2.092   2.229   3.501  2.1139 -1.0967 -1.1127
  126OSM   H15T13400   2.081   2.127   3.365  2.6995  1.0772  2.2100
  126OSM   C16S13401   1.893   2.170   3.462  0.1541  0.1157 -0.7931
  126OSM   H16S13402   1.827   2.163   3.373 -0.0533 -0.4135 -0.6010
  126OSM   H16T13403   1.845   2.242   3.531 -0.3149  0.3693 -1.3796
  126OSM   C17S13404   1.899   2.033   3.539  0.5202  0.2630  0.3763
  126OSM   H17S13405   1.947   1.959   3.472 -1.5076 -0.5983 -0.1901
  126OSM   H17T13406   1.800   1.987   3.557  0.8219  0.8796  4.4370
  126OSM   C18S13407   1.972   2.028   3.669  0.3170  0.1318 -0.4524
  126OSM   H18S13408   1.953   1.933   3.722 -1.2338 -0.0035 -1.1962
  126OSM   H18T13409   1.940   2.110   3.737 -2.1182 -0.4690 -0.7904
  126OSM   H18U13410   2.083   2.037   3.675  0.4102 -1.7260  2.8421
  126OSM    C1F13411   2.047   1.990   1.983 -0.3389 -0.7568  0.7644
  126OSM     OF13412   2.150   1.933   1.948  0.9150  0.1341 -0.4885
  126OSM    C2F13413   1.928   1.917   2.033 -0.0415 -0.2566 -0.1084
  126OSM    H2F13414   1.912   1.830   1.965 -0.0184 -0.6625  0.4052
  126OSM    H2G13415   1.841   1.983   2.009  0.5848 -0.0613 -2.0132
  126OSM    C3F13416   1.933   1.885   2.182  0.3006  0.5118  0.4279
  126OSM    H3F13417   2.015   1.810   2.189  1.1934  1.5641  1.5124
  126OSM    H3G13418   1.835   1.837   2.203  0.0871 -0.3058 -2.1028
  126OSM    C4F13419   1.977   1.992   2.272 -0.5489 -0.1419 -0.1123
  126OSM    H4F13420   1.907   2.078   2.274 -0.4139 -0.0199 -0.4908
  126OSM    H4G13421   2.073   2.036   2.237 -0.1095 -1.2556 -0.3804
  126OSM    C5F13422   2.012   1.939   2.411 -0.2457 -0.0488 -0.0572
  126OSM    H5F13423   2.059   1.840   2.393  0.3718  0.1918  0.2219
  126OSM    H5G13424   1.915   1.914   2.459 -0.1049  0.4102  0.4661
  126OSM    C6F13425   2.102   2.036   2.500 -0.0700  0.6071 -0.1351
  126OSM    H6F13426   2.030   2.121   2.513  0.4519  1.2867 -1.4480
  126OSM    H6G13427   2.188   2.079   2.444  0.9460 -1.4118 -0.2016
  126OSM    C7F13428   2.161   1.973   2.629  0.0474  0.3615  0.7263
  126OSM    H7F13429   2.075   1.918   2.674  0.4229  0.5655  1.7127
  126OSM    H7G13430   2.202   2.054   2.693  2.9474 -1.7616  1.7778
  126OSM    C8F13431   2.275   1.865   2.590  0.4246 -0.0766  0.1156
  126OSM    H8F13432   2.223   1.776   2.548 -0.3965  0.0166  0.8970
  126OSM    H8G13433   2.302   1.829   2.691 -1.6650 -0.1123  0.7163
  126OSM    C9F13434   2.393   1.930   2.517  0.0917  0.2859  0.3283
  126OSM    H9F13435   2.372   1.968   2.416 -0.7223  0.6917  0.6406
  126OSM   C10F13436   2.518   1.940   2.566 -0.0414 -0.2873 -0.1210
  126OSM   H10F13437   2.597   1.968   2.495 -0.1281 -0.9261 -0.4728
  126OSM   C11F13438   2.570   1.881   2.695  0.5116 -0.2090  0.3442
  126OSM   H11F13439   2.672   1.839   2.681  0.3593 -0.5849  0.3484
  126OSM   H11G13440   2.507   1.791   2.712  0.1603 -1.0321 -4.1297
  126OSM   C12F13441   2.567   1.969   2.823 -0.6883 -0.2730  0.1483
  126OSM   H12F13442   2.469   2.021   2.820 -1.0634 -1.0253 -1.5932
  126OSM   H12G13443   2.651   2.041   2.815 -0.2907 -0.6260  1.0195
  126OSM   C13F13444   2.584   1.873   2.946  0.5400 -0.0141  1.4740
  126OSM   H13F13445   2.672   1.812   2.915  0.3684  0.5653 -0.2546
  126OSM   H13G13446   2.502   1.798   2.949 -0.7583  1.2742 -0.1535
  126OSM   C14F13447   2.578   1.963   3.070  0.1367  0.4977  1.1069
  126OSM   H14F13448   2.480   2.015   3.080 -0.0132  0.7782 -1.2335
  126OSM   H14G13449   2.666   2.030   3.060  0.1558  0.2800 -0.4428
  126OSM   C15F13450   2.583   1.873   3.193 -0.1244 -0.1147 -0.2411
  126OSM   H15F13451   2.678   1.816   3.193 -0.2865 -0.3943  0.0982
  126OSM   H15G13452   2.494   1.807   3.179 -1.3047  1.5915 -1.1451
  126OSM   C16F13453   2.567   1.964   3.315 -0.2413 -0.6098  0.1305
  126OSM   H16F13454   2.474   2.023   3.299 -0.9752 -1.7254  0.1327
  126OSM   H16G13455   2.656   2.029   3.326 -0.0392 -0.7077 -0.8235
  126OSM   C17F13456   2.548   1.881   3.444  0.7030  0.7197 -0.4973
  126OSM   H17F13457   2.558   1.949   3.532  0.5757  0.8844 -0.6091
  126OSM   H17G13458   2.630   1.806   3.446 -0.8730 -1.0503 -0.2093
  126OSM   C18F13459   2.415   1.808   3.465 -1.5739 -0.3890  0.9818
  126OSM   H18F13460   2.399   1.748   3.373 -1.7366  3.2021 -1.5288
  126OSM   H18G13461   2.336   1.886   3.460 -1.1986 -0.0434  0.3151
  126OSM   H18H13462   2.415   1.756   3.563  2.3878  1.4083  2.1174
  127OSM      N13463   1.133   3.870   1.820 -0.3964  1.0221  0.7850
  127OSM    C1513464   1.017   3.903   1.736  0.1177 -0.1988 -0.4867
  127OSM   H15A13465   0.967   3.991   1.773 -0.3561 -0.9636  0.7954
  127OSM   H15B13466   0.952   3.818   1.750  0.5173 -0.1150  2.6582
  127OSM   H15C13467   1.043   3.919   1.633  2.7751  0.3463  0.2005
  127OSM    C1413468   1.244   3.962   1.809  0.4030  0.3682  0.3244
  127OSM   H14A13469   1.309   3.955   1.895  2.6831  0.8831 -1.2710
  127OSM   H14B13470   1.214   4.066   1.805 -0.5230  0.2717  2.9400
  127OSM   H14C13471   1.299   3.950   1.716  0.8289  0.1232  0.6034
  127OSM    C1313472   1.094   3.868   1.960 -0.7848 -0.0688 -0.8201
  127OSM   H13A13473   1.036   3.781   1.987  1.7506 -1.3688  0.9414
  127OSM   H13B13474   1.035   3.958   1.970 -2.3247 -0.7585 -3.1398
  127OSM   H13C13475   1.173   3.886   2.032 -1.2184  3.0981 -0.9735
  127OSM    C1213476   1.183   3.733   1.767  0.2702 -0.5054 -0.1718
  127OSM   H12A13477   1.105   3.660   1.787  0.4310 -0.3514  1.1197
  127OSM   H12B13478   1.266   3.706   1.830  0.8728  0.8177 -0.3702
  127OSM    C1113479   1.210   3.717   1.622 -0.0392  0.1955  0.5338
  127OSM   H11A13480   1.271   3.804   1.592  0.5585 -0.8767 -1.5522
  127OSM   H11B13481   1.121   3.734   1.558 -0.4636  1.5079  1.4436
  127OSM      P13482   1.177   3.460   1.589 -0.5318  0.0032  0.2689
  127OSM    O1313483   1.041   3.493   1.543 -0.1004  0.5558 -0.6462
  127OSM    O1413484   1.242   3.357   1.510  0.3333  0.5199  0.0555
  127OSM    O1113485   1.158   3.410   1.735 -0.3024 -0.5757  0.1397
  127OSM    O1213486   1.267   3.588   1.586  0.6580 -0.7410 -0.2722
  127OSM    C1S13487   1.286   3.390   1.814  0.4275  0.0969  0.3213
  127OSM    H1S13488   1.371   3.460   1.803  1.7813 -1.3535  1.2183
  127OSM    H1T13489   1.334   3.292   1.795 -0.4242 -0.2042 -0.4029
  127OSM     NF13490   1.363   3.427   2.049 -0.1915  0.3604 -0.2943
  127OSM    HNF13491   1.403   3.348   2.095 -2.4577 -0.5790  0.1907
  127OSM    C2S13492   1.251   3.392   1.959 -0.0689 -0.0682 -0.2186
  127OSM    H2S13493   1.178   3.476   1.962  1.3921  1.2666 -0.8400
  127OSM    C3S13494   1.177   3.265   1.998 -0.8129  0.3787 -0.3391
  127OSM    H3S13495   1.254   3.187   2.013  0.3090  1.3729 -0.8172
  127OSM     O313496   1.091   3.204   1.896 -1.0283 -0.0008  0.2758
  127OSM    HO313497   1.112   3.254   1.817 -1.1209 -2.1276 -1.1666
  127OSM    C4S13498   1.102   3.278   2.124  0.0564 -0.1358 -0.0017
  127OSM    H4S13499   1.010   3.338   2.118  0.6016  0.5788 -1.6959
  127OSM    C5S13500   1.131   3.220   2.245  0.0572 -0.7266  0.3943
  127OSM    H5S13501   1.215   3.149   2.239 -0.1610 -1.0045  0.6469
  127OSM    C6S13502   1.066   3.237   2.374 -0.2898  0.3110 -0.3437
  127OSM    H6S13503   1.012   3.334   2.381  2.5257  2.0290 -0.9518
  127OSM    H6T13504   1.140   3.243   2.457  1.3915  0.2661 -1.7761
  127OSM    C7S13505   0.974   3.114   2.414 -0.1256 -0.0673  0.1615
  127OSM    H7S13506   1.038   3.026   2.392  0.0762  0.1435 -0.0954
  127OSM    H7T13507   0.886   3.107   2.347 -1.3284 -1.7481  1.8171
  127OSM    C8S13508   0.920   3.112   2.563  0.4926 -0.2954  0.1553
  127OSM    H8S13509   0.864   3.206   2.586  0.4385 -0.6077  1.3428
  127OSM    H8T13510   1.004   3.092   2.632  2.0922 -1.8564 -2.1069
  127OSM    C9S13511   0.809   3.004   2.588  0.0577  0.3246 -1.1362
  127OSM    H9S13512   0.853   2.903   2.577 -1.2672 -0.7815  2.4510
  127OSM    H9T13513   0.733   2.998   2.507 -0.8710 -2.3538 -0.1445
  127OSM   C10S13514   0.739   3.011   2.725 -0.7951 -0.4105  0.5114
  127OSM   H10S13515   0.666   2.927   2.731 -0.9686 -0.2732  0.3346
  127OSM   H10T13516   0.673   3.101   2.723 -0.1247  0.0731 -1.1033
  127OSM   C11S13517   0.831   2.997   2.845  0.2837  0.2197  0.2478
  127OSM   H11S13518   0.915   3.070   2.849 -0.3298  0.8912  1.1805
  127OSM   H11T13519   0.882   2.898   2.842  0.2917  0.2366 -1.7944
  127OSM   C12S13520   0.757   3.001   2.981 -0.7090  0.0735  0.3234
  127OSM   H12S13521   0.703   2.907   3.009 -0.6327  0.1454  0.7267
  127OSM   H12T13522   0.693   3.091   2.977  0.3290  0.8572  0.8929
  127OSM   C13S13523   0.856   3.018   3.093 -0.2761 -0.0113 -0.1979
  127OSM   H13S13524   0.896   3.121   3.078  0.1900  0.2094  2.2095
  127OSM   H13T13525   0.927   2.933   3.088 -1.2697 -1.0117  1.5863
  127OSM   C14S13526   0.790   3.015   3.230 -0.4188 -0.5643 -0.5229
  127OSM   H14S13527   0.730   2.921   3.239 -0.2672 -0.5786  0.5576
  127OSM   H14T13528   0.717   3.099   3.235  0.4711  0.1976 -0.0414
  127OSM   C15S13529   0.894   3.038   3.344 -0.8292  0.5082  0.6749
  127OSM   H15S13530   0.958   3.128   3.333  0.3066 -0.3536  0.0227
  127OSM   H15T13531   0.961   2.950   3.332 -1.5517  0.2909 -3.0383
  127OSM   C16S13532   0.837   3.037   3.479  0.0008 -0.1874 -0.2239
  127OSM   H16S13533   0.778   2.943   3.494  0.1282 -0.2160  0.1018
  127OSM   H16T13534   0.780   3.131   3.489 -0.2763 -0.1523 -1.7571
  127OSM   C17S13535   0.950   3.039   3.582 -0.1161  0.0654  0.5685
  127OSM   H17S13536   1.032   3.113   3.569 -1.1234  1.2139  0.5576
  127OSM   H17T13537   0.997   2.939   3.575 -0.5886 -0.1580  0.5592
  127OSM   C18S13538   0.903   3.057   3.729 -0.4194 -0.3378  0.5170
  127OSM   H18S13539   0.982   3.043   3.806  0.8631  0.3287 -0.6127
  127OSM   H18T13540   0.831   2.979   3.761 -0.0047  0.0150  2.4059
  127OSM   H18U13541   0.861   3.158   3.747  3.0174  0.7887  3.4040
  127OSM    C1F13542   1.422   3.545   2.054 -0.4139  0.7858  1.1843
  127OSM     OF13543   1.393   3.635   1.979  0.1265 -0.4133 -0.0265
  127OSM    C2F13544   1.531   3.570   2.156 -0.1332 -0.0194  0.3896
  127OSM    H2F13545   1.533   3.680   2.163 -2.1912  0.1145 -0.4032
  127OSM    H2G13546   1.626   3.528   2.116 -0.9398 -0.7493 -0.8544
  127OSM    C3F13547   1.515   3.512   2.299 -0.1650  0.1555  0.3066
  127OSM    H3F13548   1.607   3.509   2.361  1.2467  1.6287 -1.5846
  127OSM    H3G13549   1.485   3.405   2.286 -1.8619  0.5581  0.7500
  127OSM    C4F13550   1.397   3.576   2.369  0.4507  0.2366 -0.2886
  127OSM    H4F13551   1.309   3.587   2.302  0.1845 -0.7381 -0.1235
  127OSM    H4G13552   1.420   3.680   2.401 -1.8664  0.3262  1.3551
  127OSM    C5F13553   1.353   3.491   2.496 -0.3164  0.3498 -0.4121
  127OSM    H5F13554   1.442   3.466   2.558 -0.6104  0.3913  0.0222
  127OSM    H5G13555   1.305   3.397   2.462  1.5610 -1.5562  1.8377
  127OSM    C6F13556   1.251   3.544   2.599  0.2290 -0.5718  0.0663
  127OSM    H6F13557   1.165   3.598   2.555 -0.8080 -1.2002  1.2466
  127OSM    H6G13558   1.310   3.621   2.653  1.3358 -2.1689  1.2330
  127OSM    C7F13559   1.197   3.436   2.697  0.2689 -0.1316  0.9166
  127OSM    H7F13560   1.277   3.390   2.760  1.5200  1.1504  0.3102
  127OSM    H7G13561   1.143   3.360   2.637  1.3754 -1.0034  0.9852
  127OSM    C8F13562   1.103   3.484   2.806  0.5662 -0.1557 -0.0876
  127OSM    H8F13563   1.019   3.538   2.758  2.5665  3.1639 -0.1959
  127OSM    H8G13564   1.155   3.566   2.861 -0.2528  0.9006 -0.8484
  127OSM    C9F13565   1.043   3.380   2.903  0.1213  0.3149 -0.0573
  127OSM    H9F13566   0.946   3.339   2.871  0.2215  1.2630 -1.7150
  127OSM   C10F13567   1.092   3.341   3.022  0.2184  0.1909  0.3577
  127OSM   H10F13568   1.047   3.254   3.073 -0.1255  1.1924  1.8215
  127OSM   C11F13569   1.230   3.388   3.066  0.0611  0.0622  0.3819
  127OSM   H11F13570   1.297   3.435   2.990  2.6089  0.5658  2.8043
  127OSM   H11G13571   1.278   3.289   3.074  0.3170  0.2221  0.8161
  127OSM   C12F13572   1.225   3.458   3.196 -0.2989  0.5519  0.9510
  127OSM   H12F13573   1.176   3.557   3.182 -4.3216 -1.3112  0.4995
  127OSM   H12G13574   1.332   3.466   3.227  0.5672  1.3415 -1.9296
  127OSM   C13F13575   1.135   3.393   3.300  0.1371  0.0609  0.2082
  127OSM   H13F13576   1.158   3.285   3.303 -1.6650 -0.4854 -2.6437
  127OSM   H13G13577   1.028   3.411   3.278  0.0691  0.9579  1.1416
  127OSM   C14F13578   1.169   3.449   3.441 -0.7195 -0.7910 -0.5490
  127OSM   H14F13579   1.121   3.549   3.447 -0.0801 -0.4808 -0.4476
  127OSM   H14G13580   1.279   3.466   3.440 -0.7569 -0.3878  0.6914
  127OSM   C15F13581   1.131   3.367   3.560  0.2572  0.0508  0.4525
  127OSM   H15F13582   1.209   3.288   3.566  0.4462  0.2502  0.6120
  127OSM   H15G13583   1.029   3.327   3.542  0.2465  0.3614 -0.1993
  127OSM   C16F13584   1.135   3.431   3.694 -0.0854  0.0026  0.9574
  127OSM   H16F13585   1.222   3.500   3.699 -1.6690  2.0364  1.7318
  127OSM   H16G13586   1.168   3.360   3.773 -2.1794 -1.7193  0.3869
  127OSM   C17F13587   1.013   3.518   3.727  0.5964  0.2269 -0.0235
  127OSM   H17F13588   0.936   3.456   3.777  1.5889  0.2591  1.6317
  127OSM   H17G13589   0.982   3.567   3.633  1.5420 -1.0689 -1.0431
  127OSM   C18F13590   1.027   3.629   3.836 -0.5239  0.2785 -0.1576
  127OSM   H18F13591   1.076   3.583   3.925 -0.1827  0.7352 -0.1080
  127OSM   H18G13592   0.921   3.649   3.863 -1.2292 -1.6208 -1.2834
  127OSM   H18H13593   1.092   3.712   3.804  0.2245  0.7086  2.2533
  128OSM      N13594   2.011   2.613   1.349  0.2903 -0.3522  0.0211
  128OSM    C1513595   2.067   2.482   1.300 -0.1888 -0.4764  1.2430
  128OSM   H15A13596   2.001   2.396   1.293 -1.5226  0.6493 -1.9834
  128OSM   H15B13597   2.142   2.441   1.366 -0.2438 -2.8847 -0.0759
  128OSM   H15C13598   2.108   2.500   1.202  0.2053  3.4138  1.9826
  128OSM    C1413599   2.079   2.724   1.272  0.0480  0.1386 -0.7318
  128OSM   H14A13600   2.029   2.819   1.272 -0.3161 -0.0506 -0.3206
  128OSM   H14B13601   2.089   2.695   1.169  1.0512 -2.4519  0.0095
  128OSM   H14C13602   2.178   2.742   1.310 -1.2105  2.3650  1.8185
  128OSM    C1313603   1.862   2.612   1.332  0.1481  0.6710 -0.3043
  128OSM   H13A13604   1.835   2.639   1.231  1.6189 -1.5988 -1.3786
  128OSM   H13B13605   1.822   2.677   1.409  1.1183  2.0276 -0.8936
  128OSM   H13C13606   1.810   2.519   1.346  0.7899  0.1520 -1.2873
  128OSM    C1213607   2.047   2.634   1.499  0.1573  0.3725  0.4113
  128OSM   H12A13608   2.027   2.735   1.529  0.1670 -0.3666  3.1517
  128OSM   H12B13609   2.153   2.616   1.503  0.0674 -0.0669  1.0158
  128OSM    C1113610   1.988   2.543   1.611 -0.4244  0.4593 -0.4731
  128OSM   H11A13611   2.043   2.557   1.707 -1.9332  1.9031  0.2404
  128OSM   H11B13612   2.009   2.441   1.574 -1.1679  0.4497 -0.8849
  128OSM      P13613   1.788   2.674   1.710 -0.0747 -0.1248  0.1252
  128OSM    O1313614   1.887   2.783   1.714  0.2604 -0.2029 -0.2517
  128OSM    O1413615   1.651   2.711   1.663  0.2754  0.1341 -0.1195
  128OSM    O1113616   1.789   2.606   1.851  0.4635  0.0377 -0.0001
  128OSM    O1213617   1.850   2.562   1.624  0.2669  0.2533  0.1213
  128OSM    C1S13618   1.698   2.491   1.883  0.1394 -0.2417 -0.0328
  128OSM    H1S13619   1.754   2.400   1.855 -0.3937 -0.4453 -0.4617
  128OSM    H1T13620   1.607   2.491   1.819 -0.6805  2.5701  0.9607
  128OSM     NF13621   1.577   2.364   2.047 -0.3127 -0.1604  1.1266
  128OSM    HNF13622   1.479   2.384   2.037  0.0673  1.0987 -0.7069
  128OSM    C2S13623   1.665   2.474   2.025 -0.5739 -0.2118 -0.0888
  128OSM    H2S13624   1.765   2.461   2.071  0.1481  0.3788 -1.4321
  128OSM    C3S13625   1.612   2.610   2.088 -0.4419  0.3718 -0.8677
  128OSM    H3S13626   1.511   2.630   2.045  0.1478  2.3099 -1.4503
  128OSM     O313627   1.693   2.720   2.071 -0.4247  0.4008  1.0553
  128OSM    HO313628   1.734   2.708   1.985 -1.2475 -0.1118  0.7305
  128OSM    C4S13629   1.604   2.599   2.239 -0.5802 -0.0228  0.1551
  128OSM    H4S13630   1.501   2.607   2.276  0.0762 -0.9255  2.3302
  128OSM    C5S13631   1.701   2.601   2.332 -0.1837  0.4262 -0.6279
  128OSM    H5S13632   1.806   2.594   2.299 -0.5870 -2.5604 -1.5881
  128OSM    C6S13633   1.677   2.602   2.483  0.3888  0.3304 -0.1517
  128OSM    H6S13634   1.731   2.518   2.532  1.1847  1.9372  1.8384
  128OSM    H6T13635   1.571   2.584   2.512  0.0282 -1.1843 -2.1670
  128OSM    C7S13636   1.731   2.736   2.549  0.1505 -0.0005  0.7237
  128OSM    H7S13637   1.701   2.820   2.483  0.5091 -1.2973 -1.1653
  128OSM    H7T13638   1.840   2.751   2.563  0.4419  0.7821 -1.9157
  128OSM    C8S13639   1.673   2.763   2.688 -0.4482  0.2954  0.0912
  128OSM    H8S13640   1.564   2.744   2.679 -0.3283 -0.5986  0.3862
  128OSM    H8T13641   1.688   2.871   2.707 -0.1287  0.9471 -3.3162
  128OSM    C9S13642   1.727   2.671   2.803  0.2068 -0.0446 -0.7827
  128OSM    H9S13643   1.838   2.671   2.800  0.2071 -0.1152 -0.7756
  128OSM    H9T13644   1.691   2.568   2.782 -0.3948 -0.0560  0.2375
  128OSM   C10S13645   1.665   2.709   2.940 -0.5702  0.6325  0.1308
  128OSM   H10S13646   1.554   2.710   2.933 -0.6270 -1.3936 -0.0368
  128OSM   H10T13647   1.698   2.812   2.964  0.3909  0.2742  0.4046
  128OSM   C11S13648   1.700   2.618   3.059  0.6672 -0.2236 -0.2937
  128OSM   H11S13649   1.811   2.608   3.052  0.5394 -1.2153 -1.3161
  128OSM   H11T13650   1.659   2.515   3.051  1.7748 -0.6694 -0.4692
  128OSM   C12S13651   1.667   2.676   3.201  0.3323  0.6048  0.1786
  128OSM   H12S13652   1.559   2.700   3.202  0.6334  2.0543 -0.0451
  128OSM   H12T13653   1.715   2.773   3.225 -0.6076  0.7655  1.4929
  128OSM   C13S13654   1.706   2.580   3.312  0.4558  0.1442 -0.3207
  128OSM   H13S13655   1.815   2.573   3.333  0.6284  2.2707 -0.1957
  128OSM   H13T13656   1.684   2.475   3.284 -0.8311  0.4057 -0.3561
  128OSM   C14S13657   1.635   2.624   3.437  0.1112  0.4216 -0.4935
  128OSM   H14S13658   1.527   2.646   3.418 -0.0707  1.1095  1.1511
  128OSM   H14T13659   1.688   2.718   3.466  4.2057 -1.4906 -1.1233
  128OSM   C15S13660   1.650   2.529   3.556  0.0446 -0.0496 -0.4695
  128OSM   H15S13661   1.756   2.530   3.587 -0.3080  1.8811  0.8858
  128OSM   H15T13662   1.620   2.424   3.535  0.5282 -0.0966 -0.9325
  128OSM   C16S13663   1.583   2.582   3.683  0.3008 -0.2220 -0.3190
  128OSM   H16S13664   1.475   2.557   3.678  0.3151 -0.4072  0.2090
  128OSM   H16T13665   1.592   2.693   3.692 -1.8542  0.1720 -2.1285
  128OSM   C17S13666   1.636   2.518   3.814  0.0918 -0.0544  0.0101
  128OSM   H17S13667   1.729   2.567   3.849  0.5349 -2.1429  2.0636
  128OSM   H17T13668   1.657   2.415   3.778 -0.5611 -0.1984  0.0204
  128OSM   C18S13669   1.536   2.512   3.932  0.2044  0.2936 -0.2025
  128OSM   H18S13670   1.442   2.458   3.909 -0.5250  1.8218 -0.9010
  128OSM   H18T13671   1.502   2.615   3.955  0.0256  0.7131 -2.1906
  128OSM   H18U13672   1.586   2.463   4.019  0.9909  0.1977 -0.6969
  128OSM    C1F13673   1.630   2.246   2.068  0.1674  0.0836 -0.2998
  128OSM     OF13674   1.750   2.231   2.056  0.4918  0.2793  0.7017
  128OSM    C2F13675   1.537   2.143   2.103 -0.4139 -0.1263 -0.0253
  128OSM    H2F13676   1.495   2.085   2.018 -2.4916  2.3529 -0.8156
  128OSM    H2G13677   1.447   2.194   2.146  0.2521 -0.0417  1.3219
  128OSM    C3F13678   1.590   2.036   2.206  0.3607  0.0415  0.2562
  128OSM    H3F13679   1.679   1.980   2.170 -0.3265 -1.3910  0.7346
  128OSM    H3G13680   1.501   1.973   2.223 -0.7538  0.9976 -1.6689
  128OSM    C4F13681   1.624   2.092   2.350  0.0231  0.6926  0.0892
  128OSM    H4F13682   1.543   2.161   2.382  0.2732  1.0061  0.0565
  128OSM    H4G13683   1.719   2.148   2.335 -1.0186  1.8470 -2.7209
  128OSM    C5F13684   1.643   1.978   2.457  0.1696 -0.9581 -0.5676
  128OSM    H5F13685   1.715   1.908   2.409  2.4895  0.5973  0.4634
  128OSM    H5G13686   1.550   1.929   2.492  0.4406 -0.3926  1.0055
  128OSM    C6F13687   1.701   2.032   2.592  0.3940 -0.0893 -0.5597
  128OSM    H6F13688   1.640   2.115   2.634 -0.6856 -1.7022  1.2313
  128OSM    H6G13689   1.801   2.074   2.570  0.4907 -0.0482 -0.0575
  128OSM    C7F13690   1.733   1.925   2.699  0.2090 -0.0617 -0.3455
  128OSM    H7F13691   1.794   1.844   2.653 -0.3665 -0.1321 -0.9919
  128OSM    H7G13692   1.647   1.877   2.750  0.0456 -1.5510 -1.9364
  128OSM    C8F13693   1.822   1.990   2.806 -0.5227 -0.3520 -0.6721
  128OSM    H8F13694   1.764   2.073   2.853  1.8195  1.3706 -0.6248
  128OSM    H8G13695   1.911   2.035   2.756 -1.1809 -0.3091 -1.8249
  128OSM    C9F13696   1.886   1.888   2.904 -0.2346 -0.1047  0.4481
  128OSM    H9F13697   1.959   1.825   2.851  0.0551 -0.5786  1.3869
  128OSM   C10F13698   1.852   1.872   3.030  0.1586 -0.1325 -0.2136
  128OSM   H10F13699   1.905   1.796   3.088  1.2741 -1.3014 -2.6238
  128OSM   C11F13700   1.741   1.951   3.097  0.0318 -0.4342 -0.8204
  128OSM   H11F13701   1.669   1.994   3.024 -0.6455  1.1645  0.6986
  128OSM   H11G13702   1.779   2.039   3.153  0.1148 -0.7232 -0.4166
  128OSM   C12F13703   1.641   1.878   3.189  0.4631  0.0751  0.3569
  128OSM   H12F13704   1.701   1.804   3.245  2.6753  0.3638 -1.4846
  128OSM   H12G13705   1.562   1.822   3.135  0.6737 -0.0042  0.1304
  128OSM   C13F13706   1.562   1.974   3.272  0.3389 -0.4852 -0.3756
  128OSM   H13F13707   1.489   2.018   3.201 -0.4420 -0.1420  0.6059
  128OSM   H13G13708   1.622   2.056   3.317  3.6817 -2.3080 -1.1739
  128OSM   C14F13709   1.476   1.899   3.377  0.7061  0.4244 -0.1091
  128OSM   H14F13710   1.535   1.836   3.446  1.4577  1.4198  0.1830
  128OSM   H14G13711   1.405   1.833   3.321  0.3034 -1.6794  2.6846
  128OSM   C15F13712   1.378   1.990   3.458 -0.6372 -0.0599  0.5149
  128OSM   H15F13713   1.317   1.925   3.525 -0.3994 -0.0660  0.7274
  128OSM   H15G13714   1.308   2.037   3.385 -0.0386  2.5215  1.4832
  128OSM   C16F13715   1.430   2.108   3.546  0.2989 -0.7293 -0.2356
  128OSM   H16F13716   1.342   2.167   3.578 -0.5171 -0.8990 -2.0707
  128OSM   H16G13717   1.494   2.182   3.493 -1.3846  0.6770 -0.3999
  128OSM   C17F13718   1.506   2.057   3.674  0.6941  0.9880 -0.0992
  128OSM   H17F13719   1.577   1.981   3.636 -0.4125 -1.0740  1.7109
  128OSM   H17G13720   1.419   2.017   3.731  1.1763 -0.2450 -0.1996
  128OSM   C18F13721   1.573   2.158   3.767  0.2155  0.3837  0.2673
  128OSM   H18F13722   1.673   2.172   3.720  0.2471 -0.9758 -0.1429
  128OSM   H18G13723   1.592   2.110   3.865 -0.2226 -0.7120 -0.1665
  128OSM   H18H13724   1.514   2.252   3.774 -1.0069 -0.3777  0.4993
  129OSM      N13725   3.128   1.128   1.571 -0.0209  0.7502 -0.5119
  129OSM    C1513726   3.132   0.983   1.621 -0.4320  0.1446  0.8035
  129OSM   H15A13727   3.215   0.957   1.685  0.2467  1.9813  0.7191
  129OSM   H15B13728   3.143   0.923   1.532  1.6132 -0.1887  1.2360
  129OSM   H15C13729   3.036   0.966   1.667 -1.1509  1.1193 -0.2706
  129OSM    C1413730   3.254   1.149   1.498 -0.4544 -0.3895  0.5274
  129OSM   H14A13731   3.267   1.080   1.415  0.7381 -1.3360  1.4618
  129OSM   H14B13732   3.338   1.129   1.562 -0.4453  1.6543  1.2251
  129OSM   H14C13733   3.269   1.247   1.455  1.5437 -2.0775 -3.1108
  129OSM    C1313734   3.019   1.148   1.475 -0.4747 -1.0027  0.1086
  129OSM   H13A13735   2.923   1.156   1.525 -0.0458 -0.8763  0.9299
  129OSM   H13B13736   3.023   1.069   1.402  0.8089 -0.8453 -0.0118
  129OSM   H13C13737   3.039   1.240   1.421 -0.8370 -0.2291  1.2449
  129OSM    C1213738   3.116   1.222   1.681  0.9980 -0.4132 -0.4627
  129OSM   H12A13739   3.132   1.320   1.641  2.7985 -0.7448 -0.6466
  129OSM   H12B13740   3.191   1.208   1.757  1.5998  0.8006 -0.8303
  129OSM    C1113741   2.984   1.226   1.772  0.2939 -1.0251 -0.0913
  129OSM   H11A13742   2.995   1.294   1.859  0.5112 -3.4033  1.8155
  129OSM   H11B13743   2.964   1.136   1.833 -1.2894  0.3459  1.5026
  129OSM      P13744   2.820   1.391   1.664 -0.0414  0.0214 -0.0978
  129OSM    O1313745   2.922   1.459   1.590  0.6050  0.2275  0.3470
  129OSM    O1413746   2.684   1.385   1.600  0.3080 -0.1824  0.4773
  129OSM    O1113747   2.809   1.467   1.804 -0.3459  0.3432 -0.2699
  129OSM    O1213748   2.867   1.247   1.692 -1.1819  0.0114 -0.5170
  129OSM    C1S13749   2.689   1.441   1.885  0.2514  0.6968 -0.3075
  129OSM    H1S13750   2.651   1.342   1.853 -0.2835  1.4080 -1.9894
  129OSM    H1T13751   2.609   1.513   1.857 -2.5229 -2.4146 -0.9876
  129OSM     NF13752   2.602   1.400   2.116  0.1000  0.3787  0.5174
  129OSM    HNF13753   2.532   1.469   2.134 -0.2217  0.1217  0.2538
  129OSM    C2S13754   2.714   1.451   2.038  0.1452  0.5579  0.4532
  129OSM    H2S13755   2.784   1.366   2.050 -1.2261 -0.7917 -0.6201
  129OSM    C3S13756   2.785   1.584   2.072  1.1955  0.2646 -1.2363
  129OSM    H3S13757   2.718   1.672   2.063  0.4646 -0.1203  0.2392
  129OSM     O313758   2.892   1.635   1.996 -0.1152  0.6594  0.1864
  129OSM    HO313759   2.912   1.568   1.930  0.1752  1.3965 -0.4852
  129OSM    C4S13760   2.831   1.589   2.214  0.7009  1.3207 -0.6334
  129OSM    H4S13761   2.748   1.617   2.281  1.4415  1.6854  0.1538
  129OSM    C5S13762   2.957   1.569   2.263  0.6581  0.6702 -0.1422
  129OSM    H5S13763   3.032   1.550   2.184  0.6047  0.8443 -0.2354
  129OSM    C6S13764   2.999   1.585   2.405  0.4426  0.2254  0.5622
  129OSM    H6S13765   3.078   1.663   2.413 -0.4315  1.1622  0.2971
  129OSM    H6T13766   3.034   1.483   2.433 -0.5938 -0.0448  0.9184
  129OSM    C7S13767   2.896   1.622   2.511  0.0552 -0.8858  0.7991
  129OSM    H7S13768   2.820   1.541   2.516  1.7823 -2.8698 -1.9299
  129OSM    H7T13769   2.839   1.712   2.478 -0.3316 -1.3801  0.0858
  129OSM    C8S13770   2.969   1.652   2.642  0.6581  0.6184  0.1083
  129OSM    H8S13771   2.905   1.718   2.705  1.6514 -0.0597  1.9189
  129OSM    H8T13772   3.066   1.704   2.633  1.1802 -0.3657 -0.0582
  129OSM    C9S13773   2.997   1.530   2.732  0.2382  0.5769 -0.6520
  129OSM    H9S13774   3.093   1.494   2.689 -0.4749  2.1703 -3.8715
  129OSM    H9T13775   2.919   1.452   2.721  0.6493  0.0597 -0.0134
  129OSM   C10S13776   3.027   1.566   2.878  0.0185 -0.2402 -0.1962
  129OSM   H10S13777   3.112   1.637   2.875 -1.4749  1.5847 -0.8307
  129OSM   H10T13778   3.073   1.479   2.930 -0.2908  0.2928  0.9899
  129OSM   C11S13779   2.912   1.606   2.970 -1.1626 -0.0154  0.0694
  129OSM   H11S13780   2.857   1.512   2.990  0.7783 -1.2425 -0.0390
  129OSM   H11T13781   2.851   1.675   2.908  0.3011 -0.0641 -1.5312
  129OSM   C12S13782   2.953   1.688   3.096  0.0247  0.5075 -0.1559
  129OSM   H12S13783   2.868   1.718   3.161 -0.9560  0.2994 -1.3162
  129OSM   H12T13784   2.995   1.783   3.057  0.9346  0.4334  0.5873
  129OSM   C13S13785   3.058   1.622   3.188 -0.0956 -0.1006 -0.7328
  129OSM   H13S13786   3.161   1.618   3.145  0.8851  0.1191  1.4844
  129OSM   H13T13787   3.013   1.522   3.202 -0.3095  0.0715 -0.1598
  129OSM   C14S13788   3.054   1.696   3.324  0.0037  0.9336  0.3236
  129OSM   H14S13789   2.954   1.687   3.372 -0.9057 -0.1141 -1.6335
  129OSM   H14T13790   3.070   1.804   3.303  1.3445  0.7343  0.2402
  129OSM   C15S13791   3.151   1.637   3.427 -0.1954 -0.2891  0.2718
  129OSM   H15S13792   3.252   1.623   3.382 -0.0152  2.1807 -0.2538
  129OSM   H15T13793   3.113   1.539   3.462  1.8693 -1.4117 -0.4737
  129OSM   C16S13794   3.168   1.733   3.543 -0.1590  0.3203 -0.5124
  129OSM   H16S13795   3.072   1.762   3.591  0.0093  0.5100 -0.2876
  129OSM   H16T13796   3.212   1.827   3.504  0.4179  0.7330  1.0446
  129OSM   C17S13797   3.251   1.667   3.654  0.4210 -0.1989  0.6432
  129OSM   H17S13798   3.341   1.609   3.623  1.2207  1.4890 -0.3346
  129OSM   H17T13799   3.176   1.609   3.710 -0.7696 -0.0169 -0.6978
  129OSM   C18S13800   3.321   1.773   3.746 -0.1112  0.4481 -1.5039
  129OSM   H18S13801   3.244   1.848   3.775  0.8652  0.2006  2.2194
  129OSM   H18T13802   3.412   1.821   3.703  2.5837 -2.1455  0.9031
  129OSM   H18U13803   3.354   1.724   3.840  1.3133  3.5075 -0.2637
  129OSM    C1F13804   2.562   1.271   2.112  0.9534 -0.0669 -0.1183
  129OSM     OF13805   2.629   1.177   2.064  0.4498 -0.1356 -0.4588
  129OSM    C2F13806   2.415   1.252   2.160 -0.3218  0.0778  0.3453
  129OSM    H2F13807   2.351   1.252   2.069  3.1252 -0.4387 -2.3046
  129OSM    H2G13808   2.395   1.339   2.226 -2.1408  1.7157 -2.1679
  129OSM    C3F13809   2.401   1.125   2.253  1.4461  0.4276  0.1114
  129OSM    H3F13810   2.416   1.033   2.192  0.4490 -0.2012  0.7871
  129OSM    H3G13811   2.293   1.119   2.277  1.4029  0.1953 -0.1392
  129OSM    C4F13812   2.502   1.126   2.376  0.1548 -0.4322  0.3736
  129OSM    H4F13813   2.606   1.135   2.338  1.2249 -0.1545  3.1344
  129OSM    H4G13814   2.495   1.033   2.437 -0.0835 -0.6890 -0.0419
  129OSM    C5F13815   2.488   1.258   2.467  0.7941  0.7149 -0.2523
  129OSM    H5F13816   2.377   1.263   2.476  0.5021 -0.2375 -2.5773
  129OSM    H5G13817   2.520   1.353   2.419  2.4176  1.1819  1.6408
  129OSM    C6F13818   2.559   1.254   2.603  0.3545  0.2020  0.1090
  129OSM    H6F13819   2.662   1.248   2.563  0.1810  1.7202 -0.6298
  129OSM    H6G13820   2.533   1.161   2.660  0.3975  0.8371  1.1987
  129OSM    C7F13821   2.514   1.366   2.693 -0.4071 -0.2500 -0.4122
  129OSM    H7F13822   2.411   1.348   2.729 -0.3988 -0.9401 -0.7142
  129OSM    H7G13823   2.522   1.463   2.639 -0.2495  0.4929  0.9030
  129OSM    C8F13824   2.597   1.381   2.829  0.6899  0.0281  0.2725
  129OSM    H8F13825   2.696   1.428   2.813 -0.0967  2.3505  1.6818
  129OSM    H8G13826   2.601   1.280   2.876 -0.6870 -0.1267  0.0969
  129OSM    C9F13827   2.526   1.464   2.926  0.6947 -0.2660  0.3625
  129OSM    H9F13828   2.475   1.554   2.888 -0.6981 -0.2088  2.1982
  129OSM   C10F13829   2.501   1.450   3.057 -1.1648 -0.1325  0.6121
  129OSM   H10F13830   2.453   1.530   3.115  0.8719  1.2596  0.5126
  129OSM   C11F13831   2.545   1.328   3.145 -0.5289  0.4995  0.0050
  129OSM   H11F13832   2.579   1.243   3.082 -2.1824 -1.9610  2.2623
  129OSM   H11G13833   2.457   1.282   3.194  1.0486 -2.2222  0.4976
  129OSM   C12F13834   2.656   1.362   3.251  0.5567 -0.2774 -0.0333
  129OSM   H12F13835   2.735   1.432   3.215  1.1108 -1.1144 -0.4694
  129OSM   H12G13836   2.710   1.269   3.276  0.9763 -0.6486 -2.1099
  129OSM   C13F13837   2.593   1.427   3.376 -0.1318 -0.3781 -0.3132
  129OSM   H13F13838   2.535   1.353   3.435 -0.0496  0.0797  0.3490
  129OSM   H13G13839   2.519   1.502   3.341  0.4020 -0.9900 -2.9713
  129OSM   C14F13840   2.700   1.492   3.457  0.4165 -0.1348  0.3243
  129OSM   H14F13841   2.731   1.584   3.404 -0.8509  0.2652  0.2365
  129OSM   H14G13842   2.782   1.417   3.457 -0.2302 -0.8706 -0.5113
  129OSM   C15F13843   2.655   1.532   3.600  0.3648 -0.3386 -0.6445
  129OSM   H15F13844   2.623   1.446   3.663  1.0565  0.0364  0.2295
  129OSM   H15G13845   2.567   1.599   3.588 -0.9824 -1.7473  0.8685
  129OSM   C16F13846   2.769   1.605   3.675  0.0134  0.3212 -0.3603
  129OSM   H16F13847   2.754   1.715   3.668  1.6248  0.4262 -3.8308
  129OSM   H16G13848   2.869   1.580   3.634 -0.2685  0.7731 -1.3490
  129OSM   C17F13849   2.769   1.573   3.829  0.6468 -0.1623  0.0676
  129OSM   H17F13850   2.866   1.613   3.865  0.6344 -0.8451  0.8933
  129OSM   H17G13851   2.778   1.463   3.840  0.1199 -0.8383 -4.5147
  129OSM   C18F13852   2.655   1.618   3.926  0.2125 -0.4271  0.6334
  129OSM   H18F13853   2.667   1.718   3.973 -0.5063  1.0426 -2.1267
  129OSM   H18G13854   2.656   1.546   4.011  2.2174 -2.6498 -1.1406
  129OSM   H18H13855   2.559   1.625   3.872  0.6188 -1.6653 -0.3054
  130OSM      N13856   3.186   4.256   1.696  0.4483 -0.1124  0.2488
  130OSM    C1513857   3.242   4.395   1.701  0.0350 -0.6464  0.5837
  130OSM   H15A13858   3.232   4.449   1.608 -2.3446  1.3699  1.8935
  130OSM   H15B13859   3.345   4.394   1.735  0.7407  0.3739 -1.3835
  130OSM   H15C13860   3.195   4.464   1.769  0.2243  1.1525 -1.0238
  130OSM    C1413861   3.056   4.259   1.622 -0.1362 -0.2825 -0.2362
  130OSM   H14A13862   2.984   4.326   1.667 -1.6946 -2.1090  0.1230
  130OSM   H14B13863   3.016   4.162   1.600  0.3930 -0.6037  0.2004
  130OSM   H14C13864   3.075   4.297   1.522  0.7593 -0.9696 -0.3448
  130OSM    C1313865   3.276   4.166   1.620 -0.4283 -0.1208 -0.2671
  130OSM   H13A13866   3.284   4.205   1.520 -1.8159 -1.4573 -0.9363
  130OSM   H13B13867   3.249   4.061   1.623  1.1542 -0.5640  2.1907
  130OSM   H13C13868   3.375   4.167   1.665  0.5959  0.9487 -2.4016
  130OSM    C1213869   3.157   4.210   1.835  0.1298  0.4628 -0.1587
  130OSM   H12A13870   3.244   4.230   1.896  0.4133 -2.1781  0.4446
  130OSM   H12B13871   3.144   4.102   1.836  2.1107  0.1784 -0.5134
  130OSM    C1113872   3.028   4.262   1.902  0.0223 -0.0800 -0.3842
  130OSM   H11A13873   3.028   4.233   2.010  1.0031  1.0929 -0.0541
  130OSM   H11B13874   2.941   4.208   1.858  1.2439 -0.1425 -2.8666
  130OSM      P13875   2.868   4.466   1.914  0.5074 -0.4772 -0.3000
  130OSM    O1313876   2.900   4.608   1.908  0.5977 -0.1133 -0.2533
  130OSM    O1413877   2.778   4.405   1.813 -0.4595 -0.4822  0.5970
  130OSM    O1113878   2.809   4.437   2.061  0.4579 -0.3346  0.1927
  130OSM    O1213879   3.009   4.399   1.905  0.0715  0.2953  0.3512
  130OSM    C1S13880   2.889   4.455   2.167 -0.2703 -0.9308  0.3127
  130OSM    H1S13881   2.875   4.562   2.195 -1.8805 -0.9937 -0.1508
  130OSM    H1T13882   2.994   4.424   2.149 -0.2807 -1.8191  1.6352
  130OSM     NF13883   2.927   4.409   2.421 -0.4866  0.0765 -0.2046
  130OSM    HNF13884   2.992   4.337   2.446 -0.7781 -0.9395 -2.1449
  130OSM    C2S13885   2.852   4.366   2.293 -0.1571  0.1322 -0.4933
  130OSM    H2S13886   2.743   4.383   2.312  0.1309  1.0596  0.4475
  130OSM    C3S13887   2.877   4.213   2.248  0.2009 -0.2790  0.0813
  130OSM    H3S13888   2.984   4.197   2.225  0.2789 -0.1507  0.3432
  130OSM     O313889   2.811   4.173   2.128  0.2781  0.4183  0.2026
  130OSM    HO313890   2.769   4.255   2.098  1.7256  2.0683  2.3832
  130OSM    C4S13891   2.836   4.117   2.358 -0.4026  0.3234  0.5514
  130OSM    H4S13892   2.921   4.069   2.408 -0.4292  0.2151  0.4929
  130OSM    C5S13893   2.711   4.082   2.395 -0.4598 -0.1855  0.7462
  130OSM    H5S13894   2.622   4.124   2.347  0.2397  1.0019  0.4418
  130OSM    C6S13895   2.687   3.988   2.509  0.2464 -0.0034  0.4401
  130OSM    H6S13896   2.783   3.943   2.545  0.3293 -0.2513 -0.0862
  130OSM    H6T13897   2.623   3.903   2.478  1.6080 -0.5296 -1.0559
  130OSM    C7S13898   2.627   4.072   2.625 -0.5459  0.5440  0.0075
  130OSM    H7S13899   2.524   4.096   2.592 -1.6374 -3.4892 -0.0373
  130OSM    H7T13900   2.685   4.166   2.638  0.1543  0.2375 -0.7791
  130OSM    C8S13901   2.635   4.009   2.765  0.3174  0.3505 -0.1917
  130OSM    H8S13902   2.745   3.991   2.771  0.1865 -0.5665 -0.4291
  130OSM    H8T13903   2.581   3.913   2.769 -1.6852  1.4365  0.2393
  130OSM    C9S13904   2.575   4.093   2.875  0.6245  0.5436 -0.5550
  130OSM    H9S13905   2.465   4.084   2.862  0.3976 -2.0756  2.2235
  130OSM    H9T13906   2.599   4.202   2.876  0.0412  0.6808 -0.9952
  130OSM   C10S13907   2.610   4.042   3.011  0.0916 -0.0868 -0.0436
  130OSM   H10S13908   2.708   4.091   3.029  1.5271 -2.4618 -0.9039
  130OSM   H10T13909   2.637   3.934   3.014  1.8863  0.3234 -0.1862
  130OSM   C11S13910   2.510   4.073   3.121  0.0784  0.2116 -0.3610
  130OSM   H11S13911   2.410   4.055   3.076 -0.2772  1.1097  0.0370
  130OSM   H11T13912   2.509   4.181   3.147  0.7558  0.0663  0.3029
  130OSM   C12S13913   2.522   3.997   3.248  0.1037  0.7838  0.1122
  130OSM   H12S13914   2.613   4.043   3.292  0.6732  0.6526 -0.8911
  130OSM   H12T13915   2.529   3.891   3.218  0.2430  1.2314 -1.5393
  130OSM   C13S13916   2.409   4.016   3.354  0.3566 -0.1618  0.2166
  130OSM   H13S13917   2.325   3.947   3.331 -0.1569  0.8539 -1.1403
  130OSM   H13T13918   2.360   4.116   3.350  2.2650  0.7876 -0.9520
  130OSM   C14S13919   2.448   3.981   3.501 -0.1904 -1.2541  0.8834
  130OSM   H14S13920   2.531   4.052   3.519 -1.1652  0.3751 -0.8142
  130OSM   H14T13921   2.491   3.878   3.490  0.8134 -0.6438 -1.4540
  130OSM   C15S13922   2.334   3.990   3.604 -0.1678 -0.2231  0.0285
  130OSM   H15S13923   2.255   3.916   3.578  0.0626 -1.0892  1.6845
  130OSM   H15T13924   2.288   4.091   3.601  2.1137  0.8664 -0.6997
  130OSM   C16S13925   2.374   3.969   3.751 -1.0347  0.4963 -0.4044
  130OSM   H16S13926   2.289   3.982   3.822  0.2567  0.7373  1.1544
  130OSM   H16T13927   2.437   4.056   3.780  2.1152 -2.0892  1.1383
  130OSM   C17S13928   2.452   3.838   3.778 -0.0774  0.2624 -0.9214
  130OSM   H17S13929   2.545   3.837   3.717  0.7667 -0.0082  0.3507
  130OSM   H17T13930   2.388   3.756   3.738 -2.1696  1.4303 -0.1410
  130OSM   C18S13931   2.488   3.808   3.923  0.3695  0.6487  0.0046
  130OSM   H18S13932   2.550   3.883   3.977 -0.5359  0.5357  1.2426
  130OSM   H18T13933   2.531   3.706   3.932 -1.7327 -0.2363  0.5513
  130OSM   H18U13934   2.393   3.807   3.980 -0.3801 -1.3923 -1.1742
  130OSM    C1F13935   2.896   4.520   2.492 -0.2422 -0.3954  0.5847
  130OSM     OF13936   2.818   4.599   2.445  0.0666  0.2998  0.1834
  130OSM    C2F13937   2.962   4.544   2.622  1.1059 -0.2167  0.4713
  130OSM    H2F13938   3.023   4.637   2.614 -1.1684  1.7734  3.7462
  130OSM    H2G13939   3.020   4.460   2.664  3.1418  1.6175  1.5263
  130OSM    C3F13940   2.852   4.579   2.725 -0.6247  0.0660  0.5946
  130OSM    H3F13941   2.783   4.661   2.694 -0.2578  0.5367  1.0162
  130OSM    H3G13942   2.899   4.617   2.818 -0.1391  0.2787  0.2669
  130OSM    C4F13943   2.766   4.456   2.766  0.0130 -0.2706 -0.4008
  130OSM    H4F13944   2.823   4.379   2.823 -0.2756 -0.2282 -0.0485
  130OSM    H4G13945   2.707   4.421   2.678  0.1163  2.8034 -1.8203
  130OSM    C5F13946   2.670   4.499   2.877 -0.7871  0.2682  1.2766
  130OSM    H5F13947   2.582   4.433   2.872 -1.7507  1.5855 -2.5759
  130OSM    H5G13948   2.624   4.598   2.859  1.5133  1.3732  0.9990
  130OSM    C6F13949   2.719   4.490   3.024  0.3790  0.2964 -0.0538
  130OSM    H6F13950   2.784   4.577   3.047 -1.4983  1.6231  0.5342
  130OSM    H6G13951   2.757   4.386   3.035 -1.8926 -0.7915 -1.7374
  130OSM    C7F13952   2.592   4.489   3.119 -0.7255 -0.1480 -0.5600
  130OSM    H7F13953   2.539   4.396   3.088 -0.0878 -0.4536 -0.7583
  130OSM    H7G13954   2.525   4.575   3.098 -0.7309 -0.2426 -0.9531
  130OSM    C8F13955   2.626   4.487   3.276  0.0619  0.1221  0.0111
  130OSM    H8F13956   2.534   4.468   3.337  0.1782 -2.4984 -0.5108
  130OSM    H8G13957   2.680   4.580   3.304  1.7343 -0.0363 -2.4555
  130OSM    C9F13958   2.703   4.357   3.299 -0.0664  0.3359 -0.0332
  130OSM    H9F13959   2.670   4.281   3.226  0.6964 -0.5560  0.5335
  130OSM   C10F13960   2.783   4.317   3.405  0.3355  0.0552 -0.2817
  130OSM   H10F13961   2.827   4.216   3.403  3.5938  1.3601 -1.0447
  130OSM   C11F13962   2.814   4.395   3.531 -0.0166 -0.1441  0.0328
  130OSM   H11F13963   2.840   4.501   3.514  1.8032  0.0920  3.3873
  130OSM   H11G13964   2.913   4.356   3.564  0.7831  0.6617 -1.3415
  130OSM   C12F13965   2.706   4.383   3.640 -0.8087 -0.2607  0.0303
  130OSM   H12F13966   2.747   4.432   3.731 -1.9161 -1.8020  1.4243
  130OSM   H12G13967   2.691   4.274   3.653  1.4452 -0.7444 -0.8618
  130OSM   C13F13968   2.571   4.445   3.597 -0.3078 -0.0708 -0.3737
  130OSM   H13F13969   2.518   4.386   3.519 -0.7986  1.1794 -1.0003
  130OSM   H13G13970   2.590   4.545   3.553 -0.5214  0.3801  0.5283
  130OSM   C14F13971   2.484   4.474   3.719  0.7992 -0.2927 -0.0747
  130OSM   H14F13972   2.512   4.570   3.768  0.1611 -0.6809  1.0997
  130OSM   H14G13973   2.507   4.396   3.795 -0.1791 -1.8050 -1.2874
  130OSM   C15F13974   2.330   4.468   3.690 -0.5155  0.4388 -0.0997
  130OSM   H15F13975   2.312   4.360   3.669  0.3507  0.5354 -1.5023
  130OSM   H15G13976   2.302   4.535   3.606 -0.8719  0.8309  0.3254
  130OSM   C16F13977   2.239   4.500   3.805 -0.2685  0.5260 -0.2701
  130OSM   H16F13978   2.140   4.456   3.783 -0.0824 -0.7283  1.2745
  130OSM   H16G13979   2.232   4.611   3.812  1.8121  0.7358 -0.8156
  130OSM   C17F13980   2.288   4.423   3.926 -0.2597 -0.6697  0.3394
  130OSM   H17F13981   2.385   4.453   3.972 -0.7719 -0.0486  1.0262
  130OSM   H17G13982   2.304   4.316   3.900  2.4580 -0.7789  1.9928
  130OSM   C18F13983   2.190   4.430   4.048 -0.2396  0.0139  1.0784
  130OSM   H18F13984   2.139   4.527   4.064  0.4347  0.4117  0.8371
  130OSM   H18G13985   2.248   4.401   4.138  1.2536  1.7331  0.7331
  130OSM   H18H13986   2.112   4.354   4.025 -2.2450  2.4029 -0.4881
  131OSM      N13987   1.309   0.782   1.189  0.3645  0.3649  0.3239
  131OSM    C1513988   1.277   0.904   1.088 -0.3421  1.0305 -0.4448
  131OSM   H15A13989   1.368   0.947   1.050  0.4028 -0.5068 -0.4998
  131OSM   H15B13990   1.210   0.976   1.133 -0.9883 -0.4830  1.1477
  131OSM   H15C13991   1.224   0.868   1.001 -3.2412  0.5279  1.3848
  131OSM    C1413992   1.181   0.715   1.228 -0.4612  0.1280  0.3923
  131OSM   H14A13993   1.109   0.793   1.249  1.4419  1.5409  2.0953
  131OSM   H14B13994   1.196   0.656   1.317  0.9084  1.7367  1.2827
  131OSM   H14C13995   1.146   0.651   1.148 -0.5341  1.3252 -0.5627
  131OSM    C1313996   1.392   0.682   1.120  0.4458 -0.2416  1.0755
  131OSM   H13A13997   1.347   0.659   1.024 -0.0629  2.2028  0.6643
  131OSM   H13B13998   1.403   0.589   1.173  1.0024 -0.3540  0.7728
  131OSM   H13C13999   1.491   0.715   1.094  0.5427 -0.7014  0.8453
  131OSM    C1214000   1.365   0.833   1.322 -0.5894  0.2009 -0.0163
  131OSM   H12A14001   1.446   0.902   1.301 -0.9294  0.2615 -1.1772
  131OSM   H12B14002   1.420   0.758   1.377 -1.1985  0.4574  0.9823
  131OSM    C1114003   1.279   0.908   1.414  0.0180 -0.5459 -0.0502
  131OSM   H11A14004   1.343   0.953   1.493 -1.0010  1.7738 -0.4598
  131OSM   H11B14005   1.199   0.854   1.469 -1.2758  1.1878 -0.1327
  131OSM      P14006   1.260   1.165   1.354  0.0600  0.0843  0.2561
  131OSM    O1314007   1.395   1.185   1.292 -0.0323  0.1949  0.3862
  131OSM    O1414008   1.149   1.238   1.299  0.6293 -0.6581  0.1272
  131OSM    O1114009   1.275   1.186   1.511  0.3429 -0.0815 -0.1994
  131OSM    O1214010   1.214   1.014   1.341  0.0932  0.1861  0.0337
  131OSM    C1S14011   1.158   1.189   1.597 -0.3593  0.0053  0.0029
  131OSM    H1S14012   1.132   1.086   1.632 -0.1238  0.2997  1.0700
  131OSM    H1T14013   1.075   1.238   1.543  0.9039 -1.0125 -3.0633
  131OSM     NF14014   1.074   1.262   1.823 -0.0105 -0.1434  0.0473
  131OSM    HNF14015   1.023   1.346   1.840 -2.4392 -1.2072 -1.4221
  131OSM    C2S14016   1.184   1.269   1.728 -0.3563 -0.6328 -0.2030
  131OSM    H2S14017   1.268   1.221   1.783  0.9027  2.3710  0.7067
  131OSM    C3S14018   1.237   1.412   1.705  0.2155 -0.4713  0.5259
  131OSM    H3S14019   1.153   1.477   1.670  0.7033 -0.8585 -1.5234
  131OSM     O314020   1.323   1.432   1.588 -0.3200  0.0816 -0.6829
  131OSM    HO314021   1.331   1.342   1.556 -1.3358  0.1141 -1.0418
  131OSM    C4S14022   1.293   1.460   1.840 -0.6045  0.1460  0.0876
  131OSM    H4S14023   1.224   1.535   1.880  0.6032  0.3063  1.9468
  131OSM    C5S14024   1.411   1.430   1.895 -0.3394  0.2191  0.0513
  131OSM    H5S14025   1.482   1.366   1.840 -0.0351  1.7812 -1.4559
  131OSM    C6S14026   1.472   1.478   2.021 -0.1557 -0.8670 -0.1509
  131OSM    H6S14027   1.578   1.499   1.997 -0.2355  0.5247  0.6124
  131OSM    H6T14028   1.483   1.395   2.094 -0.1645 -1.3541 -0.6938
  131OSM    C7S14029   1.421   1.615   2.076 -0.3228  0.4784  0.6245
  131OSM    H7S14030   1.411   1.681   1.987  0.7086  0.1228  0.2365
  131OSM    H7T14031   1.502   1.665   2.134 -0.7423  0.0751  1.5726
  131OSM    C8S14032   1.295   1.627   2.157  0.1975  0.8247 -0.2033
  131OSM    H8S14033   1.207   1.588   2.101  0.5142  0.8720 -0.7408
  131OSM    H8T14034   1.276   1.733   2.184  1.7997  0.8643  0.8933
  131OSM    C9S14035   1.304   1.560   2.288  0.3845 -0.2765 -0.2493
  131OSM    H9S14036   1.316   1.450   2.273 -0.9704 -0.2328 -1.9071
  131OSM    H9T14037   1.201   1.568   2.328  0.4939  0.5509 -0.1242
  131OSM   C10S14038   1.410   1.608   2.386 -0.0010 -0.3276 -0.0803
  131OSM   H10S14039   1.411   1.718   2.402  0.8539 -0.2617 -0.5791
  131OSM   H10T14040   1.505   1.582   2.335 -0.0969 -3.4566  1.0775
  131OSM   C11S14041   1.381   1.532   2.518  0.0456  0.0196  0.5952
  131OSM   H11S14042   1.382   1.421   2.510  0.4711 -0.0411  1.3939
  131OSM   H11T14043   1.281   1.564   2.555  0.1799  0.5003  0.5435
  131OSM   C12S14044   1.486   1.579   2.623  0.3245 -0.2993  0.1921
  131OSM   H12S14045   1.478   1.690   2.629 -1.1476 -0.3438 -0.5688
  131OSM   H12T14046   1.582   1.549   2.577  1.2225  1.2649  0.9691
  131OSM   C13S14047   1.470   1.516   2.761  0.2023  0.0863  0.3180
  131OSM   H13S14048   1.501   1.412   2.737 -0.6023  0.0544 -0.6522
  131OSM   H13T14049   1.366   1.532   2.797  0.2330  1.4979 -0.1572
  131OSM   C14S14050   1.567   1.565   2.862  0.3757 -0.3329  0.7053
  131OSM   H14S14051   1.525   1.663   2.893  0.0205 -0.7271  1.4960
  131OSM   H14T14052   1.672   1.572   2.828  0.7004  3.0912  2.0444
  131OSM   C15S14053   1.566   1.473   2.986  0.0265  0.4581 -0.1955
  131OSM   H15S14054   1.616   1.378   2.956 -0.0832  0.1607  0.5405
  131OSM   H15T14055   1.468   1.454   3.035 -0.2347 -1.2240 -1.2715
  131OSM   C16S14056   1.666   1.523   3.092  0.0759 -0.6090 -0.0660
  131OSM   H16S14057   1.645   1.630   3.109  2.3009  0.1867 -1.7804
  131OSM   H16T14058   1.765   1.521   3.041  0.5152  1.2708  0.6566
  131OSM   C17S14059   1.653   1.445   3.217 -0.5659  0.1729 -0.2808
  131OSM   H17S14060   1.643   1.335   3.205 -1.7298  0.1407  0.7620
  131OSM   H17T14061   1.561   1.483   3.266  1.0213  2.4467  1.1271
  131OSM   C18S14062   1.768   1.468   3.314 -0.8931 -0.7630 -0.0325
  131OSM   H18S14063   1.751   1.436   3.418  2.4677  1.6607  1.4547
  131OSM   H18T14064   1.795   1.574   3.335  4.0818 -2.0281  1.0806
  131OSM   H18U14065   1.861   1.416   3.283  0.1434  1.3777 -0.7253
  131OSM    C1F14066   1.035   1.148   1.878 -0.6703 -0.9308  0.7635
  131OSM     OF14067   1.115   1.061   1.910  0.7475 -0.7383  0.3771
  131OSM    C2F14068   0.899   1.135   1.922  0.6384 -0.4301 -0.5378
  131OSM    H2F14069   0.824   1.120   1.842 -0.8272  1.9938  0.2871
  131OSM    H2G14070   0.862   1.233   1.959  1.5933 -0.2009 -0.1346
  131OSM    C3F14071   0.870   1.021   2.022  0.4062 -0.3188  0.5831
  131OSM    H3F14072   0.925   0.934   1.981 -0.9236 -0.9235  0.0534
  131OSM    H3G14073   0.762   0.997   2.023  0.6468 -1.4525  0.4966
  131OSM    C4F14074   0.935   1.045   2.163  0.7791  0.0283  0.4169
  131OSM    H4F14075   1.043   1.062   2.148  1.0439 -0.8846  1.1755
  131OSM    H4G14076   0.922   0.961   2.235 -0.3021  2.0128  2.6942
  131OSM    C5F14077   0.876   1.164   2.245 -0.0877 -0.3896 -0.5400
  131OSM    H5F14078   0.770   1.144   2.269 -0.2361 -0.4116 -1.1869
  131OSM    H5G14079   0.879   1.261   2.191  2.5321  0.1981  0.5409
  131OSM    C6F14080   0.942   1.188   2.384  0.2657  0.0037 -0.6441
  131OSM    H6F14081   0.946   1.097   2.447  0.7562 -0.3342 -1.1558
  131OSM    H6G14082   0.869   1.250   2.440  0.3277 -2.3691  2.2781
  131OSM    C7F14083   1.080   1.257   2.387  0.4988 -0.1012  0.4651
  131OSM    H7F14084   1.071   1.361   2.351  1.4237 -0.2562 -0.2491
  131OSM    H7G14085   1.150   1.199   2.323 -0.1409 -1.5563  1.0427
  131OSM    C8F14086   1.150   1.255   2.526  0.3174 -0.2557 -0.6952
  131OSM    H8F14087   1.258   1.267   2.502  0.6267  0.9040  1.0991
  131OSM    H8G14088   1.121   1.155   2.563 -1.7193  0.3621 -0.4969
  131OSM    C9F14089   1.085   1.370   2.614 -0.9580  0.7163  0.1639
  131OSM    H9F14090   1.051   1.459   2.559 -0.2621  0.3221 -0.9405
  131OSM   C10F14091   1.086   1.349   2.745  0.4389  0.1351 -0.5510
  131OSM   H10F14092   1.053   1.425   2.818 -0.7807 -1.8715  1.0855
  131OSM   C11F14093   1.142   1.233   2.821 -0.3292  0.0817 -0.5222
  131OSM   H11F14094   1.169   1.148   2.756 -0.2708  0.5147 -1.0675
  131OSM   H11G14095   1.061   1.201   2.891 -0.0883  2.3232  0.8947
  131OSM   C12F14096   1.260   1.259   2.916  0.0335  0.1672  0.2666
  131OSM   H12F14097   1.243   1.356   2.968  1.7784  0.1785  0.8854
  131OSM   H12G14098   1.352   1.280   2.857 -1.4876  4.3066 -0.9971
  131OSM   C13F14099   1.278   1.148   3.025  0.9067 -0.4992  0.7672
  131OSM   H13F14100   1.372   1.166   3.081  1.0111 -1.6263  0.9854
  131OSM   H13G14101   1.276   1.049   2.973  2.0906  0.3231 -0.9400
  131OSM   C14F14102   1.149   1.136   3.113 -0.8390 -0.0427 -0.0039
  131OSM   H14F14103   1.077   1.079   3.050 -0.2718 -0.0595 -0.6442
  131OSM   H14G14104   1.102   1.237   3.125 -1.6337 -0.4626  0.5069
  131OSM   C15F14105   1.175   1.070   3.246 -0.2959 -0.9295  0.1869
  131OSM   H15F14106   1.247   0.986   3.234 -1.5039 -2.0500  0.5386
  131OSM   H15G14107   1.078   1.052   3.298 -0.2533  0.3116  0.7306
  131OSM   C16F14108   1.236   1.160   3.353  0.0151 -0.1263 -0.5140
  131OSM   H16F14109   1.158   1.235   3.376  0.8430  1.2961 -2.1240
  131OSM   H16G14110   1.316   1.226   3.313 -0.5905  1.1250  0.2703
  131OSM   C17F14111   1.282   1.076   3.475 -0.0531 -0.7781 -1.1647
  131OSM   H17F14112   1.348   0.994   3.439 -2.2858 -3.0873 -0.3330
  131OSM   H17G14113   1.204   1.018   3.528 -1.7775  1.5837 -0.9578
  131OSM   C18F14114   1.373   1.140   3.582  0.5939  0.1040 -0.1010
  131OSM   H18F14115   1.344   1.237   3.627  0.6760  1.2226 -2.3463
  131OSM   H18G14116   1.471   1.164   3.536  0.5288  2.2349  0.7636
  131OSM   H18H14117   1.391   1.070   3.666 -1.6348 -2.3912 -1.5399
  132OSM      N14118   0.465   3.181   1.579  0.2441 -0.1705  0.0441
  132OSM    C1514119   0.372   3.280   1.523  0.0705 -0.3653  0.5264
  132OSM   H15A14120   0.267   3.262   1.542  0.0418  0.4550  1.1545
  132OSM   H15B14121   0.392   3.289   1.417  2.1516 -1.0602  0.8112
  132OSM   H15C14122   0.391   3.378   1.563 -0.4595  1.2858 -2.9317
  132OSM    C1414123   0.424   3.049   1.525 -0.7601 -0.3047  0.6555
  132OSM   H14A14124   0.317   3.046   1.535 -0.7980 -2.1844  0.1087
  132OSM   H14B14125   0.480   2.975   1.581 -1.1574  0.3469  1.9483
  132OSM   H14C14126   0.440   3.043   1.419  0.9021  0.3783  0.8415
  132OSM    C1314127   0.604   3.220   1.542 -0.1087 -0.9269  0.2476
  132OSM   H13A14128   0.621   3.201   1.437 -1.7242  0.3218 -0.2726
  132OSM   H13B14129   0.676   3.165   1.601  1.0671 -0.3984 -0.6625
  132OSM   H13C14130   0.613   3.328   1.544 -1.7648 -0.6126 -2.9108
  132OSM    C1214131   0.460   3.176   1.738  0.2841  0.4195 -0.0187
  132OSM   H12A14132   0.357   3.162   1.766 -0.3191  1.8966 -1.3601
  132OSM   H12B14133   0.466   3.274   1.783 -1.7728  0.4220  0.3548
  132OSM    C1114134   0.547   3.087   1.820 -0.1150 -0.9553  0.0526
  132OSM   H11A14135   0.530   3.084   1.930  1.9592 -1.1684  0.4263
  132OSM   H11B14136   0.652   3.125   1.825 -0.1223 -1.0145  0.8799
  132OSM      P14137   0.464   2.834   1.823  0.3835  0.4725 -0.1292
  132OSM    O1314138   0.347   2.812   1.729 -0.4261 -0.8193  0.3494
  132OSM    O1414139   0.554   2.720   1.856  0.5466 -0.8862  0.5422
  132OSM    O1114140   0.400   2.886   1.955 -0.0191  0.1703 -0.7827
  132OSM    O1214141   0.551   2.956   1.770  0.3817  0.4524 -0.4665
  132OSM    C1S14142   0.324   2.805   2.042  0.6354  0.5457 -0.1480
  132OSM    H1S14143   0.255   2.738   1.987  0.7040 -0.6898  1.2263
  132OSM    H1T14144   0.247   2.861   2.099 -0.1224 -0.9903  0.3743
  132OSM     NF14145   0.308   2.640   2.215  0.3487 -0.4762 -0.1622
  132OSM    HNF14146   0.253   2.690   2.281  0.0313  1.0793 -1.5400
  132OSM    C2S14147   0.406   2.725   2.149 -0.0098 -0.4093 -0.2228
  132OSM    H2S14148   0.473   2.656   2.092 -1.4619 -0.6649 -1.6972
  132OSM    C3S14149   0.486   2.816   2.253  0.4210 -0.7055  0.4760
  132OSM    H3S14150   0.407   2.858   2.318  2.8237  1.6542  2.0606
  132OSM     O314151   0.558   2.928   2.206 -0.4169 -0.5568 -0.2688
  132OSM    HO314152   0.523   2.951   2.119  1.9691  2.5957 -0.5815
  132OSM    C4S14153   0.575   2.735   2.348  0.5625  0.3922  0.1739
  132OSM    H4S14154   0.528   2.701   2.442 -0.7028 -1.3041 -1.0113
  132OSM    C5S14155   0.703   2.700   2.336 -0.4670 -0.4771 -1.0503
  132OSM    H5S14156   0.754   2.737   2.246  2.0956 -2.0721 -0.3557
  132OSM    C6S14157   0.791   2.623   2.435 -0.2053 -0.3686 -0.3020
  132OSM    H6S14158   0.876   2.689   2.461  0.5976 -1.4419 -0.1297
  132OSM    H6T14159   0.835   2.537   2.380  2.7898  0.2872  0.8467
  132OSM    C7S14160   0.728   2.552   2.554 -0.0280 -0.1772  0.5775
  132OSM    H7S14161   0.790   2.461   2.565  1.1095 -0.1743 -3.8963
  132OSM    H7T14162   0.626   2.513   2.533  0.3108 -1.0712  0.5558
  132OSM    C8S14163   0.730   2.636   2.678 -0.4113 -0.0976 -0.2206
  132OSM    H8S14164   0.661   2.723   2.683 -0.2933  0.2253 -2.8225
  132OSM    H8T14165   0.833   2.678   2.677 -0.7133  0.6422 -0.3153
  132OSM    C9S14166   0.700   2.552   2.799 -0.3885 -0.2560  0.7321
  132OSM    H9S14167   0.766   2.466   2.823 -2.2853 -2.6764 -1.9754
  132OSM    H9T14168   0.601   2.502   2.786 -0.7429  0.9704 -2.0643
  132OSM   C10S14169   0.696   2.633   2.928 -0.1624 -0.3240 -0.4475
  132OSM   H10S14170   0.609   2.703   2.923  0.7190  0.8910  0.5428
  132OSM   H10T14171   0.784   2.695   2.955  0.1525 -1.1090  0.3548
  132OSM   C11S14172   0.667   2.543   3.048 -0.6722 -0.5824  0.6967
  132OSM   H11S14173   0.766   2.501   3.077 -0.4925 -0.9258 -0.3744
  132OSM   H11T14174   0.598   2.461   3.021 -1.3785  0.2649 -0.0974
  132OSM   C12S14175   0.618   2.625   3.162  0.1710 -0.2850 -0.4568
  132OSM   H12S14176   0.526   2.681   3.134  0.7443  1.5847  1.1707
  132OSM   H12T14177   0.698   2.693   3.199 -0.4439  0.1254  0.1338
  132OSM   C13S14178   0.585   2.542   3.282  0.1651 -0.6388  0.2238
  132OSM   H13S14179   0.509   2.471   3.244 -0.0134 -0.3155 -0.0261
  132OSM   H13T14180   0.526   2.605   3.352 -0.2259 -1.3716  0.5636
  132OSM   C14S14181   0.704   2.499   3.359  0.3795  0.2577  0.3959
  132OSM   H14S14182   0.760   2.589   3.392 -0.7772  0.6260  1.4056
  132OSM   H14T14183   0.763   2.428   3.296 -0.1882  0.2251 -0.1037
  132OSM   C15S14184   0.664   2.421   3.483  0.1997  0.5632  0.0118
  132OSM   H15S14185   0.750   2.358   3.513 -1.1714 -1.8261 -0.8322
  132OSM   H15T14186   0.592   2.344   3.448  0.4984  0.0210  0.5621
  132OSM   C16S14187   0.585   2.483   3.592  0.1522  0.1896 -0.1047
  132OSM   H16S14188   0.570   2.408   3.674 -1.2912 -0.7568 -1.1815
  132OSM   H16T14189   0.487   2.526   3.566  0.7893  2.0685  0.4794
  132OSM   C17S14190   0.655   2.607   3.652 -0.3286  0.0065 -0.4164
  132OSM   H17S14191   0.634   2.690   3.581 -0.5786  0.7134  0.4663
  132OSM   H17T14192   0.766   2.594   3.651 -0.2753  0.4434 -1.0413
  132OSM   C18S14193   0.592   2.651   3.785  0.0959  0.1377  0.1270
  132OSM   H18S14194   0.634   2.750   3.812 -0.4650 -0.0475  1.7793
  132OSM   H18T14195   0.610   2.577   3.866  0.5512 -1.2742 -1.2103
  132OSM   H18U14196   0.482   2.665   3.785  0.1986  1.0335  0.6898
  132OSM    C1F14197   0.262   2.522   2.167 -0.4684 -0.0870 -0.7549
  132OSM     OF14198   0.306   2.479   2.063 -0.0062 -0.1353  0.6589
  132OSM    C2F14199   0.163   2.453   2.258  0.6074  0.3381  0.0067
  132OSM    H2F14200   0.086   2.400   2.199 -2.1189  2.0105  1.8621
  132OSM    H2G14201   0.115   2.538   2.310  0.6226 -0.2649  1.0381
  132OSM    C3F14202   0.236   2.350   2.356  0.2292 -0.1022 -0.4422
  132OSM    H3F14203   0.289   2.271   2.298 -1.0158 -0.3532 -1.2606
  132OSM    H3G14204   0.160   2.289   2.408  1.0742  0.2742  1.3208
  132OSM    C4F14205   0.346   2.416   2.451  0.5611  1.1521  0.0731
  132OSM    H4F14206   0.425   2.462   2.388  2.4553 -0.0352  1.5033
  132OSM    H4G14207   0.390   2.334   2.512 -3.2274  0.2365  1.8928
  132OSM    C5F14208   0.287   2.512   2.553 -0.0109 -0.3247  0.6899
  132OSM    H5F14209   0.237   2.595   2.498 -1.5629 -0.5854  1.6525
  132OSM    H5G14210   0.370   2.567   2.601  1.4420 -0.4320 -1.5628
  132OSM    C6F14211   0.201   2.437   2.659  0.1332  0.5424  0.0273
  132OSM    H6F14212   0.259   2.344   2.680 -0.5137 -0.8583 -3.6109
  132OSM    H6G14213   0.110   2.390   2.617  0.0225  1.8284 -1.2306
  132OSM    C7F14214   0.175   2.523   2.778 -0.5920  0.2141 -0.0182
  132OSM    H7F14215   0.106   2.605   2.747  0.6477  1.1729 -0.3088
  132OSM    H7G14216   0.262   2.573   2.826  0.4894 -2.8090  1.4267
  132OSM    C8F14217   0.111   2.453   2.901  0.1174 -0.3757  0.4870
  132OSM    H8F14218   0.181   2.376   2.938  2.6882  0.8713 -1.4882
  132OSM    H8G14219   0.026   2.393   2.861  0.4100 -1.0147  0.8208
  132OSM    C9F14220   0.059   2.548   2.998 -0.2018 -0.4043 -0.1806
  132OSM    H9F14221  -0.035   2.598   2.967 -1.0183 -2.3071 -0.9805
  132OSM   C10F14222   0.108   2.573   3.117 -0.1867 -0.6245 -0.1000
  132OSM   H10F14223   0.056   2.649   3.177 -1.2769  0.7343 -2.5926
  132OSM   C11F14224   0.235   2.527   3.178 -0.6823 -0.3990 -0.5696
  132OSM   H11F14225   0.303   2.610   3.208 -0.6109 -0.7738  0.3638
  132OSM   H11G14226   0.294   2.476   3.100 -1.4510  0.3061 -1.6371
  132OSM   C12F14227   0.218   2.443   3.306 -0.5105 -0.4680 -0.0418
  132OSM   H12F14228   0.319   2.414   3.343  0.3000  2.4243  0.2096
  132OSM   H12G14229   0.140   2.364   3.315 -0.3405 -0.4986  1.5284
  132OSM   C13F14230   0.179   2.532   3.426 -0.3348  0.9867 -0.4281
  132OSM   H13F14231   0.081   2.583   3.409 -1.1120 -0.6367 -1.0388
  132OSM   H13G14232   0.252   2.615   3.443  1.1401  0.4600 -3.4812
  132OSM   C14F14233   0.161   2.460   3.562 -0.4366 -0.5023  0.2213
  132OSM   H14F14234   0.264   2.432   3.593  0.1710 -1.9636 -2.7455
  132OSM   H14G14235   0.108   2.363   3.553 -1.6218  0.0027  1.3551
  132OSM   C15F14236   0.091   2.547   3.667  0.0585 -0.6050  0.7507
  132OSM   H15F14237   0.017   2.613   3.617  1.5978  0.7727  0.2035
  132OSM   H15G14238   0.162   2.621   3.708 -2.0683  1.9002  0.1666
  132OSM   C16F14239   0.019   2.476   3.780 -0.1091  0.1489  0.1597
  132OSM   H16F14240   0.004   2.545   3.866 -1.5518 -0.2900  0.2831
  132OSM   H16G14241   0.080   2.394   3.822 -0.0068  0.8565  1.4381
  132OSM   C17F14242  -0.135   2.434   3.756 -0.5612  0.0611  0.3548
  132OSM   H17F14243  -0.149   2.361   3.673  0.5843 -0.7486  0.8583
  132OSM   H17G14244  -0.199   2.521   3.728  0.0451  1.0711  2.0122
  132OSM   C18F14245  -0.192   2.369   3.879 -0.6317  0.1687  0.0140
  132OSM   H18F14246  -0.192   2.430   3.972  1.4835 -0.0152  0.1701
  132OSM   H18G14247  -0.128   2.281   3.898  2.0473  1.8770 -0.4951
  132OSM   H18H14248  -0.298   2.335   3.872 -0.0512 -1.8133  0.5071
  133OSM      N14249   5.592   1.843   1.825 -0.8002 -0.1155  1.0449
  133OSM    C1514250   5.488   1.776   1.737 -0.4690  0.2727 -0.2666
  133OSM   H15A14251   5.410   1.724   1.792 -0.5927 -0.8164 -1.4380
  133OSM   H15B14252   5.536   1.716   1.662 -1.6237 -1.3932  0.2541
  133OSM   H15C14253   5.443   1.854   1.676  0.3036 -0.4095 -1.7468
  133OSM    C1414254   5.695   1.920   1.736  0.2616 -0.7086  0.3334
  133OSM   H14A14255   5.634   1.974   1.664 -1.6928 -1.3134  1.4578
  133OSM   H14B14256   5.764   1.855   1.684  0.0590 -0.1904 -0.6105
  133OSM   H14C14257   5.753   1.993   1.789 -0.0997 -0.9918  1.1285
  133OSM    C1314258   5.511   1.938   1.902  0.4227 -0.4169  0.0788
  133OSM   H13A14259   5.570   1.978   1.983 -1.8120  2.0023  0.6727
  133OSM   H13B14260   5.428   1.888   1.950 -1.9662  1.4856 -1.8015
  133OSM   H13C14261   5.486   2.022   1.839  0.3344 -0.5942 -0.1223
  133OSM    C1214262   5.667   1.743   1.902  0.1062  0.4984  0.2192
  133OSM   H12A14263   5.720   1.678   1.834  1.0668  1.8189 -0.3426
  133OSM   H12B14264   5.589   1.681   1.943  1.1732  0.0354  1.6643
  133OSM    C1114265   5.753   1.790   2.022  0.4944 -0.5171 -0.0053
  133OSM   H11A14266   5.788   1.700   2.076  0.6477 -1.3082 -1.3801
  133OSM   H11B14267   5.692   1.849   2.094 -0.1976 -0.1759 -0.8508
  133OSM      P14268   5.995   1.822   1.927 -0.0788 -0.2575  0.0615
  133OSM    O1314269   5.973   1.757   1.796 -0.1529  0.5124  0.1038
  133OSM    O1414270   6.099   1.929   1.928 -0.0602  0.5546 -0.2374
  133OSM    O1114271   6.035   1.710   2.033 -0.2219 -0.3550 -0.1345
  133OSM    O1214272   5.854   1.880   1.982 -0.0983  0.5612  0.2856
  133OSM    C1S14273   6.071   1.743   2.164  0.4743 -0.3196 -0.1796
  133OSM    H1S14274   6.068   1.852   2.185 -1.2516 -0.8362  2.7300
  133OSM    H1T14275   6.175   1.712   2.191 -0.0551 -0.1186  2.3029
  133OSM     NF14276   6.035   1.735   2.403 -0.7813  0.0710 -0.0276
  133OSM    HNF14277   6.085   1.659   2.444 -1.5068 -1.6754 -2.1501
  133OSM    C2S14278   5.982   1.690   2.271 -0.2229  0.5728  0.0193
  133OSM    H2S14279   5.882   1.737   2.264 -0.4812  0.0360  0.1057
  133OSM    C3S14280   5.953   1.536   2.261 -0.4558 -0.0611 -0.7879
  133OSM    H3S14281   6.050   1.482   2.267 -1.3783 -1.7118  0.2762
  133OSM     O314282   5.914   1.497   2.134  0.0953 -0.4849  0.1447
  133OSM    HO314283   5.931   1.579   2.087 -0.9082 -0.4712 -0.2189
  133OSM    C4S14284   5.872   1.483   2.379  0.9509 -0.1645  0.7566
  133OSM    H4S14285   5.770   1.522   2.385  0.4124 -1.4786  0.4447
  133OSM    C5S14286   5.915   1.397   2.474  0.2110  0.3329  0.4267
  133OSM    H5S14287   6.023   1.376   2.473 -0.0167 -0.8809 -0.3731
  133OSM    C6S14288   5.821   1.324   2.574 -0.5000  0.4335 -0.5023
  133OSM    H6S14289   5.829   1.214   2.563 -0.0789  0.1198  2.2860
  133OSM    H6T14290   5.713   1.349   2.567 -0.9568 -1.3246 -0.2631
  133OSM    C7S14291   5.869   1.361   2.728 -0.6581  1.2187  0.6534
  133OSM    H7S14292   5.847   1.469   2.744 -0.6781  1.0434  1.8791
  133OSM    H7T14293   5.979   1.346   2.719 -0.7943  0.5498 -0.0130
  133OSM    C8S14294   5.799   1.261   2.832 -0.3658 -0.4529  0.0973
  133OSM    H8S14295   5.830   1.158   2.804  1.3751 -0.5833  2.1985
  133OSM    H8T14296   5.689   1.266   2.818 -0.2832  0.3097 -0.3137
  133OSM    C9S14297   5.845   1.297   2.974 -0.2918  0.2942  0.1446
  133OSM    H9S14298   5.820   1.403   2.995  3.0948  0.8888  1.7713
  133OSM    H9T14299   5.954   1.279   2.978 -0.1937  0.7995 -0.1657
  133OSM   C10S14300   5.796   1.198   3.087  0.3345 -0.7584  0.5728
  133OSM   H10S14301   5.833   1.094   3.075  1.7143 -0.3147  0.8214
  133OSM   H10T14302   5.686   1.191   3.077  0.4488 -1.1022 -0.6370
  133OSM   C11S14303   5.846   1.251   3.224  0.8540 -0.5532 -0.6967
  133OSM   H11S14304   5.798   1.347   3.250  0.3874 -1.4761  2.2245
  133OSM   H11T14305   5.956   1.261   3.222  0.7433  0.9300 -0.3167
  133OSM   C12S14306   5.810   1.157   3.339 -0.1804  0.0532 -1.3437
  133OSM   H12S14307   5.872   1.067   3.319  1.5246  0.7344  0.5492
  133OSM   H12T14308   5.707   1.115   3.346  0.6982 -1.9373  1.0628
  133OSM   C13S14309   5.862   1.208   3.475 -0.1261  0.0075  1.1222
  133OSM   H13S14310   5.807   1.294   3.520  1.3886  2.1687 -0.9440
  133OSM   H13T14311   5.964   1.248   3.457 -0.0615 -0.6033  0.0645
  133OSM   C14S14312   5.861   1.096   3.577  0.1867 -0.2070  0.0275
  133OSM   H14S14313   5.938   1.020   3.553  0.4337  0.7162 -2.4398
  133OSM   H14T14314   5.755   1.065   3.579 -0.4620  1.7616 -0.8601
  133OSM   C15S14315   5.895   1.135   3.730  0.0709 -0.0170 -0.3177
  133OSM   H15S14316   5.999   1.172   3.736  0.1901 -0.3418 -0.3804
  133OSM   H15T14317   5.879   1.041   3.787 -0.1628 -0.4299 -1.0465
  133OSM   C16S14318   5.796   1.240   3.781 -0.4800  0.0893 -0.2855
  133OSM   H16S14319   5.693   1.201   3.765 -0.2923  0.4677 -2.8134
  133OSM   H16T14320   5.792   1.340   3.733 -2.4126 -0.1768 -0.7948
  133OSM   C17S14321   5.833   1.268   3.929  0.8371 -0.2576 -0.1593
  133OSM   H17S14322   5.803   1.371   3.955 -2.0711 -1.3683  1.3987
  133OSM   H17T14323   5.943   1.275   3.924  0.9838 -1.8669  0.2297
  133OSM   C18S14324   5.785   1.155   4.033 -0.0187 -0.0753 -0.3567
  133OSM   H18S14325   5.678   1.160   4.059 -0.2392 -0.4159 -1.1473
  133OSM   H18T14326   5.851   1.162   4.122  1.8964  1.1841 -1.7692
  133OSM   H18U14327   5.808   1.055   3.989  0.3528 -1.3165  2.4208
  133OSM    C1F14328   6.020   1.855   2.455  0.3448 -0.1323  0.2276
  133OSM     OF14329   5.984   1.953   2.387  0.3186 -0.2846 -0.3065
  133OSM    C2F14330   6.040   1.865   2.595  0.4498  0.3979  0.0463
  133OSM    H2F14331   6.125   1.801   2.628  0.3849  0.9138  1.2590
  133OSM    H2G14332   5.946   1.832   2.644  1.1221 -0.1537  1.0001
  133OSM    C3F14333   6.070   2.008   2.649 -0.2537 -0.2986 -0.1345
  133OSM    H3F14334   5.991   2.085   2.629 -1.1482 -0.7382  1.5535
  133OSM    H3G14335   6.164   2.048   2.606 -0.5086  1.0713  0.5313
  133OSM    C4F14336   6.096   2.002   2.795  0.1235  0.1080 -0.2448
  133OSM    H4F14337   6.178   1.931   2.818  0.1770 -0.2180 -1.3593
  133OSM    H4G14338   6.000   1.969   2.840 -0.0754  0.2723 -0.5395
  133OSM    C5F14339   6.142   2.142   2.855  0.2495 -1.3452  0.0421
  133OSM    H5F14340   6.059   2.210   2.824  0.2600 -0.3419  2.0913
  133OSM    H5G14341   6.237   2.187   2.819  1.0202  0.5210  3.9273
  133OSM    C6F14342   6.147   2.138   3.011 -0.0071  0.4539  0.3629
  133OSM    H6F14343   6.054   2.088   3.044  0.4848  0.8797  2.5245
  133OSM    H6G14344   6.148   2.247   3.032 -1.4947  0.8714 -1.4704
  133OSM    C7F14345   6.273   2.060   3.055 -0.3515 -0.5610 -0.1513
  133OSM    H7F14346   6.358   2.127   3.029 -0.6763 -0.4217 -0.8966
  133OSM    H7G14347   6.274   1.963   3.002 -3.6912 -0.9386  0.2965
  133OSM    C8F14348   6.268   2.029   3.204 -0.7048 -0.2919 -0.2303
  133OSM    H8F14349   6.340   1.945   3.212 -1.0495 -0.4531  1.4948
  133OSM    H8G14350   6.168   1.991   3.233  0.5884 -1.5247  3.1234
  133OSM    C9F14351   6.314   2.148   3.288 -0.2884 -0.0867 -0.0521
  133OSM    H9F14352   6.405   2.203   3.260 -2.7521  3.9168 -1.0159
  133OSM   C10F14353   6.241   2.201   3.389 -0.5029 -0.1836 -0.8319
  133OSM   H10F14354   6.286   2.278   3.453  0.6496 -1.1848 -0.3969
  133OSM   C11F14355   6.108   2.148   3.436 -0.2137 -0.2178 -0.4440
  133OSM   H11F14356   6.117   2.039   3.450 -0.3716  0.0429  2.1024
  133OSM   H11G14357   6.027   2.177   3.365 -1.8361 -2.7987  0.2082
  133OSM   C12F14358   6.060   2.200   3.571 -0.0382 -0.0168 -0.5199
  133OSM   H12F14359   5.955   2.171   3.596  1.0802 -1.9637  2.4773
  133OSM   H12G14360   6.047   2.309   3.554  0.1543 -0.0701 -1.0419
  133OSM   C13F14361   6.152   2.172   3.699 -0.2620  0.2770  0.0078
  133OSM   H13F14362   6.115   2.238   3.780 -0.1273  0.2648  0.0793
  133OSM   H13G14363   6.258   2.192   3.673 -0.4271 -1.4008 -2.3519
  133OSM   C14F14364   6.143   2.022   3.744 -0.0355  0.7834  0.5515
  133OSM   H14F14365   6.188   1.960   3.663  2.0997  2.3240  0.4712
  133OSM   H14G14366   6.039   1.984   3.750  1.1709 -2.6135  3.3018
  133OSM   C15F14367   6.208   2.005   3.881 -0.0138  0.0837 -0.2254
  133OSM   H15F14368   6.228   1.898   3.901  0.3433  0.2799  0.5050
  133OSM   H15G14369   6.140   2.041   3.962  0.3615 -1.4497  0.7981
  133OSM   C16F14370   6.343   2.085   3.910 -0.0377  0.3237  0.5313
  133OSM   H16F14371   6.319   2.193   3.902  0.9972  0.5713  0.6080
  133OSM   H16G14372   6.418   2.060   3.831 -0.5554 -1.9650  0.6796
  133OSM   C17F14373   6.408   2.045   4.045 -0.2413  0.4142 -0.5075
  133OSM   H17F14374   6.492   2.117   4.055  1.2481 -1.2696 -0.5108
  133OSM   H17G14375   6.448   1.943   4.030 -0.0063  0.4510 -0.1318
  133OSM   C18F14376   6.310   2.057   4.171 -0.2009  0.9607  1.8534
  133OSM   H18F14377   6.291   2.166   4.177 -0.6714  0.9231  1.0831
  133OSM   H18G14378   6.362   2.017   4.261  1.5789 -2.0854 -0.3187
  133OSM   H18H14379   6.218   1.995   4.163  1.3059 -1.2543  0.1682
  134OSM      N14380   3.689   5.327   1.810  0.1459  0.7652 -0.6121
  134OSM    C1514381   3.601   5.414   1.728  0.2137 -0.0953  0.1680
  134OSM   H15A14382   3.614   5.403   1.622  0.0052 -2.5731  0.3588
  134OSM   H15B14383   3.619   5.517   1.757  0.0695  0.4157 -1.4963
  134OSM   H15C14384   3.501   5.392   1.760  0.5765 -0.9699  0.7380
  134OSM    C1414385   3.664   5.183   1.775 -0.0949  0.0186 -0.4741
  134OSM   H14A14386   3.708   5.120   1.851  1.3405  0.3263 -1.0151
  134OSM   H14B14387   3.713   5.156   1.682  2.0681 -0.2585  0.6695
  134OSM   H14C14388   3.559   5.162   1.771 -0.2504  0.6439  0.1031
  134OSM    C1314389   3.831   5.358   1.780 -0.3251 -0.4327  0.3991
  134OSM   H13A14390   3.862   5.332   1.680 -1.2477  2.6650 -0.8255
  134OSM   H13B14391   3.903   5.306   1.841  0.0388 -0.2416  0.1302
  134OSM   H13C14392   3.850   5.463   1.789  2.3612 -0.9594  1.7388
  134OSM    C1214393   3.663   5.348   1.961 -0.8377  0.0791 -0.4786
  134OSM   H12A14394   3.703   5.444   1.990 -0.2767 -0.1322 -0.5379
  134OSM   H12B14395   3.717   5.276   2.022 -2.4039  0.6690  1.7392
  134OSM    C1114396   3.516   5.326   2.006  0.1006 -0.5730  0.2845
  134OSM   H11A14397   3.524   5.324   2.117 -0.7477 -2.4628  0.3547
  134OSM   H11B14398   3.498   5.221   1.976 -0.8667 -0.2407 -0.3376
  134OSM      P14399   3.397   5.567   2.002  0.9186 -0.0356  0.2554
  134OSM    O1314400   3.503   5.648   1.936  0.4500  0.0917 -0.1317
  134OSM    O1414401   3.256   5.616   1.984 -0.2909 -0.5352  0.2228
  134OSM    O1114402   3.422   5.550   2.162 -0.4381 -0.3437  0.4441
  134OSM    O1214403   3.419   5.421   1.954 -0.1406  0.2411 -0.0693
  134OSM    C1S14404   3.388   5.659   2.244  0.9669 -0.3978 -0.7117
  134OSM    H1S14405   3.286   5.640   2.284  0.3446  3.2494 -0.2637
  134OSM    H1T14406   3.393   5.758   2.193 -0.2608  0.3718  0.5921
  134OSM     NF14407   3.410   5.765   2.466  0.2888  0.3830 -0.2301
  134OSM    HNF14408   3.440   5.860   2.468 -0.5649  0.6457  0.7185
  134OSM    C2S14409   3.472   5.665   2.374 -0.0337 -0.2695  0.3618
  134OSM    H2S14410   3.468   5.562   2.416  0.5119 -0.2777  0.4027
  134OSM    C3S14411   3.630   5.681   2.359  0.5597  0.0490 -0.2034
  134OSM    H3S14412   3.650   5.784   2.320  0.8784  1.0811  2.5013
  134OSM     O314413   3.685   5.587   2.264 -0.1694  0.3988  0.3300
  134OSM    HO314414   3.612   5.578   2.203 -0.0617  2.2429 -0.1363
  134OSM    C4S14415   3.706   5.668   2.488 -0.1883  0.2832  0.4729
  134OSM    H4S14416   3.707   5.561   2.513  1.3067  0.1664 -0.0233
  134OSM    C5S14417   3.776   5.756   2.562  0.3718 -0.4588 -0.1325
  134OSM    H5S14418   3.776   5.857   2.521 -1.0861  0.4482  1.9248
  134OSM    C6S14419   3.864   5.728   2.674  0.4231 -0.0916 -0.6583
  134OSM    H6S14420   3.882   5.821   2.732 -0.7814 -0.5103  0.4227
  134OSM    H6T14421   3.965   5.692   2.646  0.8467  1.2354 -0.9011
  134OSM    C7S14422   3.816   5.621   2.771  0.0078  0.5066 -0.5484
  134OSM    H7S14423   3.795   5.528   2.714  0.7261  0.6483 -1.0490
  134OSM    H7T14424   3.728   5.642   2.836  0.1025  1.7186 -0.7879
  134OSM    C8S14425   3.920   5.601   2.881  0.4303  0.3750  0.0921
  134OSM    H8S14426   3.936   5.697   2.935  0.8851 -0.3931  1.3420
  134OSM    H8T14427   4.011   5.570   2.824  0.2370  0.2967 -0.1765
  134OSM    C9S14428   3.887   5.487   2.971 -0.0290  0.9402 -0.0495
  134OSM    H9S14429   3.809   5.421   2.928  0.2828  1.2576 -1.1292
  134OSM    H9T14430   3.856   5.525   3.071 -0.0373 -1.8392  1.1006
  134OSM   C10S14431   4.012   5.395   2.993  0.7479 -0.0719  0.2364
  134OSM   H10S14432   4.087   5.460   3.042 -0.7771  1.9708 -0.0436
  134OSM   H10T14433   4.052   5.349   2.900  1.1157  0.7770 -0.0298
  134OSM   C11S14434   3.983   5.274   3.087 -0.5472 -0.3683  0.0996
  134OSM   H11S14435   4.057   5.194   3.069 -0.1436 -0.2599  1.1706
  134OSM   H11T14436   3.884   5.230   3.063 -0.8483  0.9001 -1.1732
  134OSM   C12S14437   3.973   5.298   3.234 -0.0251  0.5708  0.5870
  134OSM   H12S14438   3.892   5.371   3.256 -0.9025 -0.2588  0.1663
  134OSM   H12T14439   4.073   5.342   3.254  1.0974 -0.2467 -2.5026
  134OSM   C13S14440   3.952   5.174   3.307  0.0047 -0.0142 -0.3895
  134OSM   H13S14441   4.028   5.094   3.295  2.4908  1.8570  1.7282
  134OSM   H13T14442   3.858   5.127   3.271  0.9926  0.1843 -3.4705
  134OSM   C14S14443   3.943   5.192   3.459 -0.0386 -0.8088 -0.6186
  134OSM   H14S14444   4.036   5.253   3.468  0.5966 -1.9543  0.7860
  134OSM   H14T14445   3.965   5.105   3.523  0.5274 -1.0082 -1.0775
  134OSM   C15S14446   3.813   5.254   3.510  0.1201 -0.2236  0.5185
  134OSM   H15S14447   3.721   5.196   3.488 -0.4002  0.5084  0.7011
  134OSM   H15T14448   3.792   5.354   3.465 -0.0505 -0.5942 -0.2512
  134OSM   C16S14449   3.807   5.268   3.663 -0.0754  0.0484  0.0500
  134OSM   H16S14450   3.894   5.333   3.689 -0.1013 -0.0447  0.3680
  134OSM   H16T14451   3.823   5.167   3.705 -2.1124  0.0313  0.9148
  134OSM   C17S14452   3.675   5.336   3.700  0.0679  0.2897 -0.1020
  134OSM   H17S14453   3.590   5.280   3.654  0.0132 -0.7097  1.1336
  134OSM   H17T14454   3.689   5.434   3.650  1.2896  0.5834  0.7752
  134OSM   C18S14455   3.653   5.355   3.851  0.0962 -0.0191  0.0010
  134OSM   H18S14456   3.562   5.416   3.872  0.5649  0.6694  0.0527
  134OSM   H18T14457   3.741   5.406   3.894  0.4366  1.6711 -2.4849
  134OSM   H18U14458   3.642   5.255   3.899  0.2624  0.5450  1.2503
  134OSM    C1F14459   3.288   5.743   2.529  0.2829 -0.2009 -0.6385
  134OSM     OF14460   3.209   5.651   2.498  0.0848  0.0350  0.0254
  134OSM    C2F14461   3.254   5.850   2.623  0.3453 -0.0465  0.4025
  134OSM    H2F14462   3.190   5.921   2.567  0.4999 -0.0253  0.2513
  134OSM    H2G14463   3.344   5.903   2.660  2.8039 -3.5863 -0.0167
  134OSM    C3F14464   3.187   5.784   2.739 -0.4050 -0.3631  0.1401
  134OSM    H3F14465   3.226   5.690   2.784  1.7937  0.2757 -0.3395
  134OSM    H3G14466   3.083   5.766   2.702 -0.7741 -1.2210  1.5186
  134OSM    C4F14467   3.159   5.901   2.848 -0.3221  0.3954 -0.2509
  134OSM    H4F14468   3.107   5.985   2.798 -1.6073  0.5139  1.1834
  134OSM    H4G14469   3.260   5.941   2.869  0.3185  0.8689 -3.6240
  134OSM    C5F14470   3.085   5.860   2.971  0.0938 -0.4855 -0.2815
  134OSM    H5F14471   2.975   5.870   2.958 -0.2110 -1.2977  1.3687
  134OSM    H5G14472   3.110   5.934   3.050  0.4836  1.4306 -2.1178
  134OSM    C6F14473   3.118   5.720   3.030  0.3191  0.1267  0.0149
  134OSM    H6F14474   3.229   5.714   3.034  0.2446 -2.3579 -0.0565
  134OSM    H6G14475   3.086   5.644   2.956 -0.7460  1.4520 -0.9218
  134OSM    C7F14476   3.049   5.694   3.165  0.7748 -0.4519 -0.7005
  134OSM    H7F14477   3.077   5.591   3.194  3.2544  0.6269  1.1148
  134OSM    H7G14478   2.938   5.707   3.161  0.9576  3.1226  1.2215
  134OSM    C8F14479   3.108   5.793   3.269  0.1121  0.5845  0.3896
  134OSM    H8F14480   3.050   5.888   3.259 -1.2519 -0.3325 -0.8539
  134OSM    H8G14481   3.215   5.813   3.249  0.2815 -1.9133 -1.6675
  134OSM    C9F14482   3.081   5.746   3.412  0.5668 -0.5061 -0.2226
  134OSM    H9F14483   3.064   5.638   3.415 -3.0793 -0.0309  2.0296
  134OSM   C10F14484   3.091   5.825   3.527  0.0596 -0.3651  0.1227
  134OSM   H10F14485   3.060   5.776   3.620  0.5564 -1.2592 -0.1585
  134OSM   C11F14486   3.122   5.968   3.540  0.0560 -1.0899  0.2506
  134OSM   H11F14487   3.145   6.022   3.446 -1.9432 -2.4252 -1.0702
  134OSM   H11G14488   3.214   5.995   3.596  1.3186  0.2713 -2.2924
  134OSM   C12F14489   3.015   6.039   3.615  0.5120 -1.0913 -0.1435
  134OSM   H12F14490   2.916   5.991   3.595  0.9712 -2.6742  1.0972
  134OSM   H12G14491   3.007   6.145   3.585  0.0574 -1.4183 -1.2223
  134OSM   C13F14492   3.036   6.037   3.764 -0.2630 -0.8577  0.2912
  134OSM   H13F14493   3.126   6.099   3.782 -0.8777  0.8113 -1.9777
  134OSM   H13G14494   3.055   5.934   3.802 -1.9326 -1.6913 -0.9872
  134OSM   C14F14495   2.918   6.099   3.847 -0.4136  0.1968  0.0761
  134OSM   H14F14496   2.835   6.026   3.844  0.1501 -0.4428 -1.6573
  134OSM   H14G14497   2.901   6.190   3.786  0.6638 -0.0754 -0.6732
  134OSM   C15F14498   2.963   6.148   3.987 -0.2655 -0.1162  0.0870
  134OSM   H15F14499   3.044   6.223   3.976 -0.6150  0.2504 -0.0045
  134OSM   H15G14500   3.000   6.060   4.045  0.7226 -1.3656 -2.3160
  134OSM   C16F14501   2.839   6.211   4.055 -0.3018 -0.1049  0.4117
  134OSM   H16F14502   2.865   6.223   4.162 -2.1965 -1.2363  1.0416
  134OSM   H16G14503   2.757   6.136   4.059 -0.8071  0.3388 -0.9680
  134OSM   C17F14504   2.793   6.347   4.004  0.1226 -0.2921 -0.2169
  134OSM   H17F14505   2.742   6.344   3.905  0.5344  0.2044 -0.4462
  134OSM   H17G14506   2.876   6.420   4.000 -2.0355  2.4995  1.3713
  134OSM   C18F14507   2.694   6.414   4.108  0.0260 -0.3406 -0.5220
  134OSM   H18F14508   2.740   6.446   4.204  2.2471 -1.0294 -1.3032
  134OSM   H18G14509   2.598   6.365   4.132 -1.7308  2.7710 -0.6305
  134OSM   H18H14510   2.660   6.505   4.053 -0.1361  1.0715  1.7768
  135OSM      N14511   0.490   4.371   2.036 -0.3975  0.6963 -0.3977
  135OSM    C1514512   0.551   4.430   2.161 -0.1363  0.1138  0.4244
  135OSM   H15A14513   0.550   4.366   2.248 -0.8423  0.0323  0.3660
  135OSM   H15B14514   0.507   4.525   2.187  0.7388  0.9626 -1.0627
  135OSM   H15C14515   0.651   4.453   2.128 -1.4305  2.3986 -2.3798
  135OSM    C1414516   0.509   4.473   1.928 -0.4018 -0.0075 -0.7099
  135OSM   H14A14517   0.614   4.487   1.906 -0.1585 -1.1850 -0.3496
  135OSM   H14B14518   0.466   4.569   1.951 -2.4881 -1.2527  0.9658
  135OSM   H14C14519   0.461   4.430   1.841  0.4736  0.5134 -1.4735
  135OSM    C1314520   0.558   4.242   1.988 -0.7743  0.6743  0.5699
  135OSM   H13A14521   0.516   4.207   1.895 -0.0893  2.2530 -0.3760
  135OSM   H13B14522   0.553   4.167   2.066 -0.9940  1.9834  1.8565
  135OSM   H13C14523   0.661   4.264   1.963 -0.2651 -3.0895 -1.4805
  135OSM    C1214524   0.346   4.352   2.055  0.0984  0.2488 -0.1200
  135OSM   H12A14525   0.310   4.423   2.128  0.5972  0.8970 -0.4973
  135OSM   H12B14526   0.333   4.255   2.101  0.6150  0.2793  0.0947
  135OSM    C1114527   0.249   4.363   1.935 -0.4042 -0.3272 -0.0869
  135OSM   H11A14528   0.265   4.464   1.893 -0.8757 -0.9233 -1.8057
  135OSM   H11B14529   0.140   4.356   1.957 -0.6948 -3.6884 -1.8468
  135OSM      P14530   0.218   4.114   1.854 -0.0570 -0.4669 -0.1406
  135OSM    O1314531   0.124   4.082   1.744 -0.5177  0.1530  0.2327
  135OSM    O1414532   0.331   4.027   1.884  0.1154  0.0170 -0.3797
  135OSM    O1114533   0.146   4.116   1.994 -0.1539  0.2095 -0.3694
  135OSM    O1214534   0.275   4.260   1.841  0.3148 -0.3230 -0.4325
  135OSM    C1S14535   0.004   4.092   2.006  1.0741  0.6906 -0.3227
  135OSM    H1S14536  -0.031   4.020   1.930 -1.2616  0.7340  0.6117
  135OSM    H1T14537  -0.051   4.186   1.983  0.6796  0.1466 -1.6730
  135OSM     NF14538  -0.173   4.032   2.166 -0.1588  0.4202 -0.0499
  135OSM    HNF14539  -0.234   4.097   2.211 -0.6815  1.9833 -2.8299
  135OSM    C2S14540  -0.027   4.053   2.153  0.1918 -0.4972  0.4700
  135OSM    H2S14541   0.022   3.959   2.188 -0.2963 -0.3921  1.4819
  135OSM    C3S14542   0.030   4.159   2.253  0.6985 -0.5522 -0.4641
  135OSM    H3S14543  -0.024   4.252   2.225 -0.4970 -1.7974 -2.5996
  135OSM     O314544   0.166   4.197   2.247 -0.3041 -0.4240 -0.1766
  135OSM    HO314545   0.180   4.159   2.160  0.6068  2.2412 -1.3005
  135OSM    C4S14546  -0.009   4.130   2.395 -0.7324  0.0569  0.2885
  135OSM    H4S14547   0.015   4.026   2.424 -1.2977 -0.5456 -1.3002
  135OSM    C5S14548  -0.062   4.214   2.487 -1.3766  0.4174  0.5905
  135OSM    H5S14549  -0.094   4.315   2.455  0.5611  0.3413 -1.8559
  135OSM    C6S14550  -0.087   4.163   2.629  0.0759 -1.0342  0.6556
  135OSM    H6S14551  -0.164   4.231   2.671 -1.3748  0.8944 -4.3898
  135OSM    H6T14552   0.006   4.181   2.687  0.2121  2.1863 -0.3775
  135OSM    C7S14553  -0.152   4.030   2.647  0.3811 -0.3729 -0.9856
  135OSM    H7S14554  -0.090   3.950   2.602  1.4544  0.5455 -1.1931
  135OSM    H7T14555  -0.254   4.036   2.603  0.3350 -1.2934 -1.0168
  135OSM    C8S14556  -0.167   3.990   2.796 -0.2188 -0.0187  0.0579
  135OSM    H8S14557  -0.211   3.888   2.795  0.1723 -0.2204 -2.4277
  135OSM    H8T14558  -0.244   4.058   2.838  1.2548  1.0044  1.2038
  135OSM    C9S14559  -0.044   3.995   2.888  0.5892  0.7696  0.0334
  135OSM    H9S14560  -0.013   4.100   2.906 -4.0751  2.3870  0.0165
  135OSM    H9T14561   0.035   3.929   2.847 -0.3876 -0.4781  0.1220
  135OSM   C10S14562  -0.079   3.944   3.030  0.0259 -0.7205 -0.0817
  135OSM   H10S14563  -0.135   3.848   3.025  0.6697 -1.0504 -1.4980
  135OSM   H10T14564  -0.153   4.013   3.078 -0.8029 -2.5017  1.3637
  135OSM   C11S14565   0.032   3.913   3.129 -0.8109  0.2087 -0.2897
  135OSM   H11S14566   0.088   4.007   3.149  1.1103 -0.3733 -2.4442
  135OSM   H11T14567   0.105   3.839   3.088 -1.0198 -0.1593 -0.0024
  135OSM   C12S14568  -0.026   3.860   3.261 -0.0272 -0.1083  0.0895
  135OSM   H12S14569  -0.088   3.771   3.237 -0.1199 -0.0734  0.2013
  135OSM   H12T14570  -0.073   3.943   3.318 -0.1145  0.0180 -0.1683
  135OSM   C13S14571   0.086   3.817   3.356 -0.4589  0.2510 -0.5144
  135OSM   H13S14572   0.132   3.902   3.410 -0.2715 -1.3556  1.9741
  135OSM   H13T14573   0.158   3.758   3.296 -0.3188 -0.5182  0.3887
  135OSM   C14S14574   0.047   3.715   3.469 -0.3713  0.3094 -0.1157
  135OSM   H14S14575  -0.018   3.630   3.438 -0.2404 -0.2504  1.0710
  135OSM   H14T14576  -0.018   3.777   3.534  0.6981  0.5306  0.7842
  135OSM   C15S14577   0.168   3.665   3.558 -0.0338 -0.0181  0.2559
  135OSM   H15S14578   0.210   3.751   3.615 -0.6834 -1.3815  3.0038
  135OSM   H15T14579   0.234   3.610   3.488 -0.5266  0.3933 -0.5348
  135OSM   C16S14580   0.121   3.572   3.668 -0.2462  0.8150 -0.2525
  135OSM   H16S14581   0.043   3.500   3.635 -1.2736  1.1436  1.3849
  135OSM   H16T14582   0.068   3.643   3.734  0.1349  1.0781 -0.2288
  135OSM   C17S14583   0.239   3.501   3.738 -0.2336  0.6090 -0.0222
  135OSM   H17S14584   0.291   3.580   3.797  0.2857 -0.4754  1.0155
  135OSM   H17T14585   0.297   3.456   3.655 -2.1207 -2.5232  0.2056
  135OSM   C18S14586   0.180   3.412   3.847  0.7786  0.3997 -0.3063
  135OSM   H18S14587   0.099   3.464   3.902  0.7289 -1.0188  1.0295
  135OSM   H18T14588   0.250   3.377   3.926 -2.6939 -2.3262  1.8502
  135OSM   H18U14589   0.134   3.325   3.796  0.9883  1.0103 -1.5767
  135OSM    C1F14590  -0.220   3.913   2.123  0.0042 -0.3534 -0.1555
  135OSM     OF14591  -0.154   3.835   2.055 -0.4375 -0.4105  0.1390
  135OSM    C2F14592  -0.367   3.888   2.151 -0.1013  0.0705  0.0332
  135OSM    H2F14593  -0.418   3.863   2.056  2.7779 -0.0189 -1.6073
  135OSM    H2G14594  -0.409   3.978   2.200  0.0104 -0.8739  1.9472
  135OSM    C3F14595  -0.375   3.764   2.246 -0.5839 -0.1725 -0.0667
  135OSM    H3F14596  -0.324   3.676   2.202 -1.0397 -0.3055 -0.3414
  135OSM    H3G14597  -0.479   3.725   2.238  0.0573 -2.1280  0.5887
  135OSM    C4F14598  -0.322   3.781   2.390  0.0497 -0.4036 -0.2042
  135OSM    H4F14599  -0.351   3.882   2.426 -1.0118 -0.8402  0.2079
  135OSM    H4G14600  -0.215   3.760   2.412 -0.4692  0.6401  4.3603
  135OSM    C5F14601  -0.393   3.687   2.487  0.1491  0.3695 -1.0108
  135OSM    H5F14602  -0.376   3.584   2.450 -1.7790 -0.6075  0.6551
  135OSM    H5G14603  -0.502   3.705   2.480 -0.6685 -2.8717  1.2584
  135OSM    C6F14604  -0.353   3.691   2.635 -1.0195  0.1648  0.2509
  135OSM    H6F14605  -0.362   3.794   2.677 -0.9071 -1.1624  3.9094
  135OSM    H6G14606  -0.247   3.666   2.658 -1.0158  2.1085  2.8527
  135OSM    C7F14607  -0.445   3.607   2.728 -0.0059  0.2715  0.2046
  135OSM    H7F14608  -0.481   3.509   2.690  1.8216 -1.2977  2.2039
  135OSM    H7G14609  -0.527   3.675   2.758  2.5894  3.0305  1.6700
  135OSM    C8F14610  -0.364   3.573   2.857  0.3785  1.0864 -0.2323
  135OSM    H8F14611  -0.316   3.666   2.895  0.9361 -0.2350  2.5422
  135OSM    H8G14612  -0.282   3.502   2.836 -0.7608 -0.8438  1.4602
  135OSM    C9F14613  -0.454   3.516   2.966 -0.3765 -0.3061  0.1936
  135OSM    H9F14614  -0.472   3.407   2.956  2.9825 -1.0097  0.8286
  135OSM   C10F14615  -0.505   3.588   3.067  0.3603  0.0541  0.2894
  135OSM   H10F14616  -0.564   3.528   3.138  1.2453  0.3922  1.3411
  135OSM   C11F14617  -0.490   3.740   3.077 -0.2768 -0.0495 -0.3002
  135OSM   H11F14618  -0.593   3.778   3.092 -1.3978 -2.8530 -0.2428
  135OSM   H11G14619  -0.448   3.791   2.987  2.3926 -1.7650 -0.1679
  135OSM   C12F14620  -0.397   3.788   3.193 -0.3292  0.3293 -0.0303
  135OSM   H12F14621  -0.382   3.898   3.189 -0.7338  0.5802  2.8291
  135OSM   H12G14622  -0.298   3.749   3.160  0.5282  1.7847  0.7058
  135OSM   C13F14623  -0.436   3.724   3.336 -0.4453  0.0875  0.0349
  135OSM   H13F14624  -0.429   3.614   3.325  1.3971  0.2948 -1.3803
  135OSM   H13G14625  -0.544   3.745   3.353 -0.8788 -1.0275 -1.2107
  135OSM   C14F14626  -0.337   3.766   3.441  0.0543 -0.0591 -0.0312
  135OSM   H14F14627  -0.342   3.875   3.461  0.4650 -0.4052  2.1256
  135OSM   H14G14628  -0.240   3.723   3.408  1.0086  1.1277  1.1583
  135OSM   C15F14629  -0.373   3.696   3.578  0.4564 -0.1415  0.6296
  135OSM   H15F14630  -0.404   3.590   3.566  0.3891 -0.1535  0.8945
  135OSM   H15G14631  -0.458   3.748   3.628 -0.6106 -3.0968  2.1276
  135OSM   C16F14632  -0.251   3.707   3.676  0.7939  0.2819 -0.2564
  135OSM   H16F14633  -0.195   3.800   3.649  1.6889 -0.7838 -2.2711
  135OSM   H16G14634  -0.188   3.620   3.649  0.3390 -0.3279  0.6106
  135OSM   C17F14635  -0.304   3.706   3.817 -0.6939 -0.3334  0.0316
  135OSM   H17F14636  -0.342   3.604   3.836  0.1447 -0.2166  2.7880
  135OSM   H17G14637  -0.379   3.788   3.826 -1.1908 -0.7359 -0.3937
  135OSM   C18F14638  -0.186   3.741   3.910 -0.4429  0.5153  0.1833
  135OSM   H18F14639  -0.213   3.745   4.018  0.9271  1.6824  0.5111
  135OSM   H18G14640  -0.128   3.831   3.881  0.3188 -0.0348 -0.0343
  135OSM   H18H14641  -0.111   3.661   3.896 -0.4047  0.8366 -1.6024
  136OSM      N14642   1.113   6.146   1.892 -0.9146  0.3001 -0.4875
  136OSM    C1514643   0.987   6.202   1.853  0.1246 -0.2755  0.4191
  136OSM   H15A14644   0.906   6.130   1.857 -1.6889  1.6475  0.2899
  136OSM   H15B14645   0.994   6.235   1.751 -0.7951  1.2662  0.8139
  136OSM   H15C14646   0.950   6.280   1.919  0.9019 -0.2553  0.8470
  136OSM    C1414647   1.153   6.037   1.793 -0.1348 -0.1445  0.8798
  136OSM   H14A14648   1.082   5.956   1.796 -1.2363  0.7948  0.8986
  136OSM   H14B14649   1.248   5.994   1.822  0.6763  0.4989 -0.7421
  136OSM   H14C14650   1.166   6.077   1.694  1.4670 -1.4345  0.5229
  136OSM    C1314651   1.218   6.256   1.891 -0.1562  0.2488  0.7848
  136OSM   H13A14652   1.196   6.333   1.964  0.8005 -0.4445  1.8259
  136OSM   H13B14653   1.229   6.284   1.787 -1.5806 -0.8369  0.3077
  136OSM   H13C14654   1.309   6.202   1.911 -0.5943 -1.4319 -1.4112
  136OSM    C1214655   1.115   6.089   2.037 -0.3018 -0.0574  0.0628
  136OSM   H12A14656   1.050   6.003   2.037 -0.8682  0.3615 -0.8592
  136OSM   H12B14657   1.076   6.165   2.104 -1.7299 -1.2837  0.6796
  136OSM    C1114658   1.241   6.028   2.095 -0.1683  0.7380  0.0440
  136OSM   H11A14659   1.225   5.994   2.200 -1.3689  0.2744 -0.2789
  136OSM   H11B14660   1.314   6.112   2.095  0.5039  0.1670 -0.3237
  136OSM      P14661   1.221   5.778   2.040 -0.4659  0.3331  0.0616
  136OSM    O1314662   1.076   5.796   2.002  0.0156 -0.2066  0.1519
  136OSM    O1414663   1.305   5.670   1.985 -0.5913  0.0729 -0.4519
  136OSM    O1114664   1.212   5.763   2.199 -0.4341  0.0669  0.5225
  136OSM    O1214665   1.294   5.923   2.016  0.3906 -0.4518  0.5328
  136OSM    C1S14666   1.320   5.749   2.290  0.4599  0.5475  0.3837
  136OSM    H1S14667   1.417   5.773   2.242  0.2151  1.5606  0.3671
  136OSM    H1T14668   1.315   5.644   2.324 -0.4318  1.1094  2.0738
  136OSM     NF14669   1.430   5.836   2.495 -0.6334  0.3486 -0.6055
  136OSM    HNF14670   1.438   5.766   2.566 -2.7114 -0.9374 -1.5607
  136OSM    C2S14671   1.307   5.828   2.422  0.1637  0.2807  0.0856
  136OSM    H2S14672   1.281   5.931   2.390  1.0709 -0.4502 -3.3802
  136OSM    C3S14673   1.190   5.766   2.494  0.0554  0.1057  0.2470
  136OSM    H3S14674   1.217   5.666   2.533 -4.4774 -0.9104  1.3480
  136OSM     O314675   1.063   5.754   2.421 -0.7530  0.3185 -0.4442
  136OSM    HO314676   1.093   5.774   2.332  2.2587  1.8321  0.7423
  136OSM    C4S14677   1.161   5.845   2.615 -0.3306 -0.0161  0.2203
  136OSM    H4S14678   1.088   5.925   2.596  1.4299  1.1789 -1.8902
  136OSM    C5S14679   1.211   5.816   2.740  0.1138 -0.3373  0.8130
  136OSM    H5S14680   1.280   5.733   2.764  0.2699 -0.7336 -0.9005
  136OSM    C6S14681   1.189   5.898   2.867  0.1216  0.2112  0.3453
  136OSM    H6S14682   1.112   5.977   2.860  1.6954  1.6628 -1.3255
  136OSM    H6T14683   1.281   5.955   2.891 -1.6812  2.4220  2.6404
  136OSM    C7S14684   1.164   5.799   2.983 -0.2395  0.4594  0.1098
  136OSM    H7S14685   1.219   5.703   2.969 -1.6175 -0.3680  0.1025
  136OSM    H7T14686   1.056   5.772   2.979  0.0183 -0.6215 -3.2746
  136OSM    C8S14687   1.197   5.864   3.128 -0.0032  0.0036  0.1498
  136OSM    H8S14688   1.152   5.966   3.138 -0.3221 -0.3124  2.4801
  136OSM    H8T14689   1.305   5.879   3.146  0.2534 -0.2092 -1.1066
  136OSM    C9S14690   1.128   5.776   3.233  0.2638  0.6072 -0.8616
  136OSM    H9S14691   1.182   5.680   3.250 -1.3464 -0.0771  0.7833
  136OSM    H9T14692   1.023   5.748   3.215  1.0890 -2.8573 -0.9930
  136OSM   C10S14693   1.129   5.845   3.373  0.5368  0.0792 -0.2627
  136OSM   H10S14694   1.085   5.946   3.359 -1.7488 -1.0626 -1.8655
  136OSM   H10T14695   1.232   5.863   3.412  0.2379 -0.8776  1.0328
  136OSM   C11S14696   1.049   5.763   3.474  0.3273  0.0883  0.2440
  136OSM   H11S14697   1.112   5.676   3.502 -0.4766 -0.4029  0.5511
  136OSM   H11T14698   0.952   5.740   3.424  0.7300  0.0271 -0.5333
  136OSM   C12S14699   1.015   5.835   3.605 -0.0419 -0.4676 -0.0886
  136OSM   H12S14700   0.975   5.756   3.673 -0.9821 -1.3117 -1.5704
  136OSM   H12T14701   0.935   5.912   3.594  0.7016  0.0550 -2.0826
  136OSM   C13S14702   1.137   5.907   3.655 -0.3615  1.0031  0.5320
  136OSM   H13S14703   1.152   6.000   3.596  0.6318  1.9486  2.2050
  136OSM   H13T14704   1.223   5.837   3.661 -1.6544 -0.6720  0.3392
  136OSM   C14S14705   1.107   5.954   3.797  0.0825 -0.3278 -0.2856
  136OSM   H14S14706   1.021   6.024   3.802  0.8744  0.5901  1.4182
  136OSM   H14T14707   1.201   6.009   3.821 -1.0046  1.3122  0.4189
  136OSM   C15S14708   1.088   5.842   3.906  0.2281 -0.1555  0.7268
  136OSM   H15S14709   1.155   5.756   3.886  2.1635  1.4277 -0.0611
  136OSM   H15T14710   0.988   5.799   3.886 -0.0926  1.2321 -0.9430
  136OSM   C16S14711   1.089   5.887   4.054 -0.3683 -0.5349 -0.3065
  136OSM   H16S14712   1.023   5.976   4.055 -1.2309 -1.1427 -1.1736
  136OSM   H16T14713   1.190   5.921   4.086 -1.3051  2.6963 -0.4247
  136OSM   C17S14714   1.047   5.772   4.142  0.7069  0.5990  0.9219
  136OSM   H17S14715   1.120   5.690   4.126 -3.1555 -3.1496  0.6986
  136OSM   H17T14716   0.950   5.719   4.129  1.1410  0.3761 -2.0064
  136OSM   C18S14717   1.049   5.816   4.283 -0.5081 -0.2788  0.0534
  136OSM   H18S14718   1.063   5.733   4.356 -0.7605  1.2281  1.9136
  136OSM   H18T14719   0.956   5.875   4.302 -0.1335 -0.0978  1.4722
  136OSM   H18U14720   1.122   5.899   4.300 -1.5317  0.4034  1.3474
  136OSM    C1F14721   1.532   5.901   2.444  0.4196  0.8434  0.3222
  136OSM     OF14722   1.516   5.968   2.344 -0.0682 -0.7548 -0.8556
  136OSM    C2F14723   1.669   5.874   2.501 -0.0567 -0.2282 -0.5664
  136OSM    H2F14724   1.736   5.866   2.413  0.0752 -1.0207 -0.4061
  136OSM    H2G14725   1.671   5.773   2.547 -1.4481  0.1632  0.4270
  136OSM    C3F14726   1.711   5.988   2.589 -0.5987  0.1611  0.3937
  136OSM    H3F14727   1.709   6.084   2.532  0.2461 -1.4810 -2.6451
  136OSM    H3G14728   1.821   5.975   2.600 -0.8770 -1.3796  1.5800
  136OSM    C4F14729   1.630   6.009   2.713 -0.1262 -0.7950  0.3187
  136OSM    H4F14730   1.632   5.920   2.779  0.8912 -0.6963  0.4373
  136OSM    H4G14731   1.523   6.022   2.688  0.9805  2.1188 -4.0721
  136OSM    C5F14732   1.687   6.138   2.775 -0.9143 -0.0501  0.1796
  136OSM    H5F14733   1.673   6.223   2.705 -0.7706  0.0130  0.2271
  136OSM    H5G14734   1.797   6.121   2.775 -0.5850  1.7399 -1.2366
  136OSM    C6F14735   1.629   6.181   2.906  1.1369  0.1672 -0.6478
  136OSM    H6F14736   1.519   6.199   2.898  1.0468 -0.0051  0.1877
  136OSM    H6G14737   1.679   6.278   2.928  0.2771  1.1508 -2.7013
  136OSM    C7F14738   1.638   6.077   3.016 -0.0558 -0.9234  0.0834
  136OSM    H7F14739   1.743   6.056   3.043  0.6812  0.9902 -1.1517
  136OSM    H7G14740   1.597   5.977   2.987  0.0971 -1.2885  1.0702
  136OSM    C8F14741   1.576   6.125   3.148  0.4863 -0.4875 -0.3744
  136OSM    H8F14742   1.591   6.039   3.215  0.2783 -0.7246 -0.6310
  136OSM    H8G14743   1.472   6.163   3.136  0.8245 -0.0028 -2.0950
  136OSM    C9F14744   1.652   6.248   3.208  0.0007  0.4468 -0.1086
  136OSM    H9F14745   1.703   6.316   3.137 -1.4569  0.8867 -0.7601
  136OSM   C10F14746   1.697   6.248   3.337 -0.0412 -0.7044 -0.3376
  136OSM   H10F14747   1.757   6.336   3.365  0.4022 -1.6511  1.8852
  136OSM   C11F14748   1.667   6.159   3.453  0.1617  0.6672  0.1154
  136OSM   H11F14749   1.755   6.108   3.496  0.9016  0.4221 -1.6014
  136OSM   H11G14750   1.607   6.072   3.421 -2.0884  1.7865  1.0462
  136OSM   C12F14751   1.589   6.227   3.572 -0.2309 -0.1480  0.2025
  136OSM   H12F14752   1.553   6.157   3.651  0.3591  0.1799  0.7655
  136OSM   H12G14753   1.491   6.263   3.533 -1.0589 -2.0462  0.3888
  136OSM   C13F14754   1.681   6.323   3.642  0.4144 -0.8532 -0.6594
  136OSM   H13F14755   1.696   6.412   3.578 -1.1370  0.6356  0.9205
  136OSM   H13G14756   1.781   6.279   3.662  0.2141 -1.5939 -1.2519
  136OSM   C14F14757   1.626   6.362   3.774 -0.8447  0.0753 -0.2022
  136OSM   H14F14758   1.606   6.270   3.834 -1.3913  0.6688  0.5451
  136OSM   H14G14759   1.522   6.401   3.773 -0.7853  0.2575 -1.9864
  136OSM   C15F14760   1.711   6.462   3.846 -0.6477 -0.2990 -0.1757
  136OSM   H15F14761   1.688   6.479   3.953  2.5432  0.9772  0.4126
  136OSM   H15G14762   1.692   6.560   3.799  0.3301 -0.0053  0.0225
  136OSM   C16F14763   1.866   6.438   3.837 -0.1366 -0.4036 -0.0335
  136OSM   H16F14764   1.915   6.453   3.739  1.7183  1.1954  1.0754
  136OSM   H16G14765   1.894   6.333   3.863  0.9384 -0.2519 -0.5200
  136OSM   C17F14766   1.946   6.518   3.946 -0.8006 -0.5691  0.0625
  136OSM   H17F14767   2.048   6.473   3.954 -1.5660 -2.0501  2.2965
  136OSM   H17G14768   1.897   6.499   4.043  1.3020 -0.3357  1.2386
  136OSM   C18F14769   1.951   6.668   3.923  0.5347  0.5416  0.3665
  136OSM   H18F14770   1.998   6.718   4.011 -0.0765 -1.5245  1.9385
  136OSM   H18G14771   1.852   6.717   3.910  0.1085 -0.4724 -0.3140
  136OSM   H18H14772   2.021   6.701   3.843  1.8420 -0.4362  1.0716
  137OSM      N14773   6.343   4.459   1.823  0.2196  0.0165  0.6519
  137OSM    C1514774   6.369   4.507   1.968  0.1932  0.7796  0.4793
  137OSM   H15A14775   6.445   4.583   1.955  1.9795 -0.9029  0.6316
  137OSM   H15B14776   6.413   4.425   2.022 -2.4211 -1.0874 -0.0445
  137OSM   H15C14777   6.277   4.552   2.002 -0.2040  2.4257 -2.4645
  137OSM    C1414778   6.268   4.331   1.827 -0.3701  0.4199  0.2932
  137OSM   H14A14779   6.162   4.340   1.846 -0.3271 -0.3401  0.9437
  137OSM   H14B14780   6.315   4.278   1.909  1.5713  1.5632 -0.0220
  137OSM   H14C14781   6.275   4.256   1.749 -1.0464 -2.3433  2.7073
  137OSM    C1314782   6.257   4.564   1.762 -1.0382 -0.2220 -0.0817
  137OSM   H13A14783   6.207   4.524   1.675  0.3109 -2.8995  0.2611
  137OSM   H13B14784   6.298   4.663   1.751 -1.7516 -0.0615 -1.6410
  137OSM   H13C14785   6.174   4.593   1.825 -2.8315 -2.1602 -1.4047
  137OSM    C1214786   6.472   4.438   1.750  0.1797  0.3048  0.2557
  137OSM   H12A14787   6.454   4.405   1.649 -1.1147 -0.4526  0.7044
  137OSM   H12B14788   6.529   4.379   1.820 -0.8283  0.9535  1.6734
  137OSM    C1114789   6.566   4.563   1.743  0.3424 -0.5581  0.5958
  137OSM   H11A14790   6.495   4.648   1.732  0.6837 -0.2249  0.9650
  137OSM   H11B14791   6.631   4.566   1.653  1.9758 -2.5563  1.6271
  137OSM      P14792   6.732   4.478   1.923  0.4440  0.4406 -0.0601
  137OSM    O1314793   6.661   4.380   2.010 -0.1600 -0.0164  0.8558
  137OSM    O1414794   6.817   4.425   1.815  0.9182 -1.0049 -0.1807
  137OSM    O1114795   6.833   4.554   2.019  0.5495  0.5461 -0.1063
  137OSM    O1214796   6.628   4.581   1.875 -0.0006 -0.1630  0.4567
  137OSM    C1S14797   6.791   4.623   2.134  0.2851  0.5813 -0.4292
  137OSM    H1S14798   6.685   4.602   2.160  0.6167 -1.0274 -0.2695
  137OSM    H1T14799   6.806   4.731   2.114  0.6404  0.2813 -1.8842
  137OSM     NF14800   6.807   4.636   2.389  0.4793 -0.4597  0.3071
  137OSM    HNF14801   6.851   4.710   2.441  1.4024 -0.2465 -0.7398
  137OSM    C2S14802   6.875   4.586   2.267 -0.6454 -0.6616  0.7583
  137OSM    H2S14803   6.887   4.476   2.278  1.2136 -0.7552 -1.3765
  137OSM    C3S14804   7.025   4.638   2.245 -0.4472 -0.0522  0.2000
  137OSM    H3S14805   7.020   4.749   2.241 -0.4023  0.1107  3.0138
  137OSM     O314806   7.094   4.604   2.128 -0.0307 -0.1667  0.2600
  137OSM    HO314807   7.022   4.577   2.071  0.9262  1.2643 -1.7170
  137OSM    C4S14808   7.099   4.611   2.373  0.0417 -0.7463 -0.7590
  137OSM    H4S14809   7.112   4.695   2.442  1.0949 -2.3168  1.0312
  137OSM    C5S14810   7.155   4.505   2.418 -0.4638  0.0796  0.0254
  137OSM    H5S14811   7.169   4.418   2.352 -1.3419 -1.4128  1.7062
  137OSM    C6S14812   7.220   4.495   2.552  0.1795  0.5620  0.3512
  137OSM    H6S14813   7.222   4.598   2.595  0.6473  1.3242 -1.4168
  137OSM    H6T14814   7.327   4.474   2.534  0.2984  1.4517  0.0011
  137OSM    C7S14815   7.145   4.399   2.644  0.4207 -0.1184  0.3800
  137OSM    H7S14816   7.089   4.317   2.593 -0.5051 -0.0848  1.3066
  137OSM    H7T14817   7.050   4.435   2.690 -0.3463 -1.0194 -0.4637
  137OSM    C8S14818   7.233   4.340   2.750 -0.4511 -1.1665  0.4060
  137OSM    H8S14819   7.228   4.414   2.833  2.8768  0.8794 -1.0265
  137OSM    H8T14820   7.334   4.320   2.707 -0.2939  1.0188 -0.3665
  137OSM    C9S14821   7.173   4.209   2.801 -0.3703 -0.6035  0.0687
  137OSM    H9S14822   7.152   4.137   2.718  2.5271 -0.8112 -0.6010
  137OSM    H9T14823   7.077   4.229   2.854 -0.1067  1.8484 -0.2551
  137OSM   C10S14824   7.263   4.137   2.901 -0.3040  0.2588  0.6447
  137OSM   H10S14825   7.260   4.179   3.003  1.3174 -0.5394  1.0552
  137OSM   H10T14826   7.370   4.142   2.873 -0.2246 -3.1631 -0.1344
  137OSM   C11S14827   7.214   3.989   2.915  0.0874 -0.0287 -0.2533
  137OSM   H11S14828   7.216   3.942   2.815 -2.1448 -0.1503 -0.2808
  137OSM   H11T14829   7.112   3.984   2.960 -0.4483  4.6437 -0.5071
  137OSM   C12S14830   7.305   3.904   3.009 -0.1302 -0.0084 -0.6876
  137OSM   H12S14831   7.406   3.903   2.963  0.4198  1.0075  0.4626
  137OSM   H12T14832   7.266   3.800   2.997  0.6733 -0.5441  1.0761
  137OSM   C13S14833   7.312   3.955   3.149  0.6622  0.2046  0.7251
  137OSM   H13S14834   7.212   3.994   3.178  0.9533  2.2268 -0.7148
  137OSM   H13T14835   7.381   4.042   3.143 -0.5503  1.1121 -1.7238
  137OSM   C14S14836   7.355   3.846   3.241 -0.3232  0.0716 -0.4266
  137OSM   H14S14837   7.460   3.824   3.213  0.0963  0.7150  0.6064
  137OSM   H14T14838   7.296   3.752   3.231  1.9584 -1.5791  0.5714
  137OSM   C15S14839   7.345   3.895   3.390 -0.1960 -0.0362  0.2421
  137OSM   H15S14840   7.238   3.902   3.416 -0.2158 -0.5784  0.3241
  137OSM   H15T14841   7.396   3.993   3.382  1.2490 -0.8683 -1.3473
  137OSM   C16S14842   7.415   3.815   3.498  0.1107  1.5419 -0.5238
  137OSM   H16S14843   7.519   3.783   3.476 -0.2632  0.8553 -1.3280
  137OSM   H16T14844   7.361   3.718   3.502  0.5886  1.2819 -0.1092
  137OSM   C17S14845   7.396   3.885   3.633 -0.1536  0.6749  0.2648
  137OSM   H17S14846   7.294   3.897   3.673 -0.3653  0.0057 -0.0584
  137OSM   H17T14847   7.431   3.990   3.628  0.0649  0.6247  0.6672
  137OSM   C18S14848   7.479   3.815   3.739 -0.0968 -0.1508  0.1497
  137OSM   H18S14849   7.584   3.796   3.710  0.3053 -0.1661  1.5313
  137OSM   H18T14850   7.439   3.712   3.747 -0.1921 -0.1090  0.2072
  137OSM   H18U14851   7.480   3.882   3.827  0.0388  1.0523 -0.7387
  137OSM    C1F14852   6.692   4.591   2.432  0.5704 -0.5021 -0.5018
  137OSM     OF14853   6.630   4.512   2.362  0.4982 -0.1662 -0.1551
  137OSM    C2F14854   6.636   4.661   2.557  0.8948  0.8654 -0.4551
  137OSM    H2F14855   6.554   4.599   2.600  0.3117  0.5048 -2.0141
  137OSM    H2G14856   6.598   4.762   2.529  0.1399  0.7245  0.0485
  137OSM    C3F14857   6.748   4.670   2.672 -0.4239 -0.1387  0.4683
  137OSM    H3F14858   6.709   4.753   2.734  1.7762  2.4477 -1.3561
  137OSM    H3G14859   6.848   4.702   2.636  0.5944  0.0289  3.1773
  137OSM    C4F14860   6.772   4.549   2.763  0.3111  0.0198 -0.2886
  137OSM    H4F14861   6.825   4.466   2.711  0.5898 -0.6082  0.9615
  137OSM    H4G14862   6.689   4.508   2.824  0.3432  1.1664  0.5455
  137OSM    C5F14863   6.879   4.576   2.874  0.1240  0.4484 -0.0418
  137OSM    H5F14864   6.844   4.655   2.944 -0.1215  0.8520 -0.6214
  137OSM    H5G14865   6.971   4.609   2.820  0.7639 -0.4869  0.4357
  137OSM    C6F14866   6.907   4.454   2.955 -1.3820  0.0988 -0.8569
  137OSM    H6F14867   6.941   4.368   2.894 -1.0837  0.7784 -1.6604
  137OSM    H6G14868   6.814   4.429   3.011 -1.4584  2.7278  0.3825
  137OSM    C7F14869   7.011   4.496   3.065  0.1363 -0.2246  0.5120
  137OSM    H7F14870   6.972   4.582   3.123 -1.8735  0.6736 -1.9717
  137OSM    H7G14871   7.102   4.526   3.010 -1.5047  0.8613 -1.8073
  137OSM    C8F14872   7.035   4.386   3.163  0.0547  0.7571 -0.1498
  137OSM    H8F14873   7.105   4.318   3.110  0.4531  0.0433  1.2356
  137OSM    H8G14874   6.941   4.328   3.173 -0.2229  0.8654 -1.8100
  137OSM    C9F14875   7.095   4.435   3.291  0.0518  0.3574 -0.4149
  137OSM    H9F14876   7.110   4.543   3.280 -0.9963  0.5410 -0.1949
  137OSM   C10F14877   7.129   4.369   3.401  0.6805  0.3204 -0.4270
  137OSM   H10F14878   7.170   4.417   3.491 -2.0181 -0.2548  1.2414
  137OSM   C11F14879   7.126   4.221   3.416  1.1724  0.0554 -0.5379
  137OSM   H11F14880   7.178   4.179   3.327 -0.1435  0.8730 -1.7367
  137OSM   H11G14881   7.020   4.186   3.413  1.0305  0.5451 -2.1679
  137OSM   C12F14882   7.196   4.173   3.544 -0.2669 -0.9159  0.4088
  137OSM   H12F14883   7.306   4.190   3.539 -0.5389  0.7017 -0.6900
  137OSM   H12G14884   7.181   4.064   3.560  0.8663 -1.1178  0.1916
  137OSM   C13F14885   7.151   4.236   3.671  0.0455  0.6736 -0.6729
  137OSM   H13F14886   7.040   4.245   3.670 -0.0651 -0.5120 -0.2627
  137OSM   H13G14887   7.201   4.334   3.685  0.2792  0.5017 -0.3045
  137OSM   C14F14888   7.169   4.167   3.805  0.8730 -0.4112 -0.2932
  137OSM   H14F14889   7.266   4.114   3.801 -0.4227 -3.1810  1.6487
  137OSM   H14G14890   7.096   4.083   3.813  1.4574 -0.7929  1.3805
  137OSM   C15F14891   7.159   4.259   3.932  0.1146 -1.1429 -0.4253
  137OSM   H15F14892   7.053   4.277   3.963  0.7431  0.3776  1.0460
  137OSM   H15G14893   7.218   4.353   3.922 -0.9300 -0.4450 -0.2209
  137OSM   C16F14894   7.206   4.184   4.053 -0.0678  0.1497 -0.6985
  137OSM   H16F14895   7.170   4.079   4.042  0.2802 -0.1070  0.4662
  137OSM   H16G14896   7.159   4.228   4.143  1.4604  2.0257 -0.7341
  137OSM   C17F14897   7.360   4.172   4.065 -0.0249 -0.5379 -0.1727
  137OSM   H17F14898   7.380   4.116   3.971 -2.5572 -1.9906  0.0488
  137OSM   H17G14899   7.376   4.105   4.152 -1.2564  0.4433  0.8508
  137OSM   C18F14900   7.432   4.300   4.081  0.6064 -0.0217 -0.1133
  137OSM   H18F14901   7.543   4.292   4.070  0.7399  0.1558  1.0384
  137OSM   H18G14902   7.416   4.344   4.181 -0.4931 -0.7684  0.0574
  137OSM   H18H14903   7.406   4.374   4.002 -1.3025  0.7188  1.1483
  138OSM      N14904   6.000   5.573   1.528 -0.0809 -0.2208  0.6623
  138OSM    C1514905   5.998   5.520   1.388  0.5191 -0.2772  0.3503
  138OSM   H15A14906   5.895   5.496   1.367  0.1988  1.0466  0.2708
  138OSM   H15B14907   6.055   5.431   1.368  1.4308  0.7362 -1.9202
  138OSM   H15C14908   6.029   5.596   1.318 -0.2687 -1.3734 -1.2299
  138OSM    C1414909   6.136   5.629   1.548 -0.6967 -0.8736  0.0511
  138OSM   H14A14910   6.150   5.650   1.653  0.0352 -0.9486 -0.0259
  138OSM   H14B14911   6.153   5.726   1.506  1.5817 -0.3113  2.0686
  138OSM   H14C14912   6.210   5.554   1.523 -0.9609 -0.7031 -1.2816
  138OSM    C1314913   5.914   5.697   1.511 -0.4168  0.0825 -0.1783
  138OSM   H13A14914   5.945   5.761   1.430 -1.4704  4.2443  2.4421
  138OSM   H13B14915   5.921   5.774   1.585 -2.2558 -0.7220  0.8847
  138OSM   H13C14916   5.808   5.678   1.508 -0.0826 -1.9947 -0.1911
  138OSM    C1214917   5.954   5.485   1.639  1.0022  0.4972  0.7366
  138OSM   H12A14918   6.025   5.405   1.654  0.0509 -0.0853  2.2365
  138OSM   H12B14919   5.861   5.441   1.606  1.7855 -0.2829 -0.5278
  138OSM    C1114920   5.941   5.548   1.784 -0.7680  0.2248  0.0182
  138OSM   H11A14921   5.901   5.468   1.850 -1.2793 -1.1058 -1.8126
  138OSM   H11B14922   5.863   5.627   1.788 -0.5785  0.5111 -1.3911
  138OSM      P14923   6.176   5.517   1.905  0.0167 -0.0747 -0.0250
  138OSM    O1314924   6.121   5.381   1.942 -0.2962 -0.0125  0.1412
  138OSM    O1414925   6.306   5.515   1.837 -0.1987  0.3945 -0.1395
  138OSM    O1114926   6.195   5.597   2.038  0.0325 -0.2752  0.3232
  138OSM    O1214927   6.068   5.599   1.823  0.1684  0.4174 -0.3572
  138OSM    C1S14928   6.066   5.626   2.102 -0.9222 -0.0468 -0.1522
  138OSM    H1S14929   6.002   5.535   2.102  1.3708 -1.7451 -0.6866
  138OSM    H1T14930   6.007   5.699   2.042 -0.4462  1.2151  0.8619
  138OSM     NF14931   5.952   5.690   2.304  0.2023 -0.5196 -1.1363
  138OSM    HNF14932   5.910   5.779   2.291  2.0462  0.8376  1.3378
  138OSM    C2S14933   6.085   5.677   2.244  0.3166  0.1539 -0.2966
  138OSM    H2S14934   6.137   5.597   2.301 -2.3952  0.2447  2.6377
  138OSM    C3S14935   6.175   5.806   2.240  0.3553 -0.0872 -0.0607
  138OSM    H3S14936   6.115   5.884   2.189 -2.1563 -2.2644 -0.6565
  138OSM     O314937   6.300   5.793   2.165  0.3014 -0.0620 -0.5737
  138OSM    HO314938   6.288   5.711   2.118 -2.6806 -0.4826  0.7088
  138OSM    C4S14939   6.210   5.858   2.376 -0.1111  0.6427 -0.6994
  138OSM    H4S14940   6.166   5.956   2.399 -0.0175  0.0980  2.1139
  138OSM    C5S14941   6.303   5.809   2.464 -0.1603 -0.2694  0.0411
  138OSM    H5S14942   6.365   5.721   2.440 -1.5711 -1.4642  0.5369
  138OSM    C6S14943   6.335   5.856   2.604  0.6845  0.2490 -0.1756
  138OSM    H6S14944   6.425   5.919   2.616  0.5467  0.4429 -0.1561
  138OSM    H6T14945   6.347   5.768   2.671  1.1563  0.0936 -0.4688
  138OSM    C7S14946   6.217   5.923   2.678 -0.0285  0.0495  0.7085
  138OSM    H7S14947   6.128   5.857   2.669  0.8679 -1.1596  0.6448
  138OSM    H7T14948   6.204   6.020   2.624  0.9157  0.0082  0.3875
  138OSM    C8S14949   6.239   5.944   2.834  0.0252 -0.4892  0.3362
  138OSM    H8S14950   6.336   5.994   2.850  0.0273 -0.2252 -0.4406
  138OSM    H8T14951   6.229   5.847   2.888  2.1387  0.6360  2.9807
  138OSM    C9S14952   6.127   6.039   2.877  0.2719 -0.5186 -0.4457
  138OSM    H9S14953   6.030   5.993   2.850  0.8722 -1.2140 -1.4894
  138OSM    H9T14954   6.147   6.129   2.815  1.7632 -1.4092 -1.3087
  138OSM   C10S14955   6.128   6.073   3.033  0.2124  0.8487 -0.1345
  138OSM   H10S14956   6.056   6.158   3.040 -2.6561 -1.3371 -1.4780
  138OSM   H10T14957   6.231   6.103   3.060  1.3884 -3.6815  1.2706
  138OSM   C11S14958   6.106   5.948   3.126 -0.2270 -0.8688 -0.2475
  138OSM   H11S14959   6.189   5.876   3.111  0.7285  0.4536 -1.6983
  138OSM   H11T14960   6.006   5.908   3.099 -0.3252  0.0049 -1.2495
  138OSM   C12S14961   6.125   5.993   3.274  0.4228  0.2999 -0.1129
  138OSM   H12S14962   6.042   6.064   3.297  1.1373  0.9899  0.4031
  138OSM   H12T14963   6.220   6.047   3.296  0.6775 -0.1425 -0.1181
  138OSM   C13S14964   6.120   5.880   3.369 -1.0895  0.3706  0.6649
  138OSM   H13S14965   6.207   5.812   3.358 -1.9650 -0.9147  1.3533
  138OSM   H13T14966   6.035   5.810   3.351 -1.2529  0.2991  1.6527
  138OSM   C14S14967   6.114   5.915   3.519  0.0340 -1.1767  0.8378
  138OSM   H14S14968   6.013   5.957   3.537 -0.5070 -0.9240 -2.2271
  138OSM   H14T14969   6.183   6.001   3.531 -1.9228  0.9372 -1.8017
  138OSM   C15S14970   6.153   5.808   3.617  0.0861 -0.1591 -0.1214
  138OSM   H15S14971   6.260   5.788   3.595  0.2663  0.7980 -0.1177
  138OSM   H15T14972   6.103   5.708   3.612  2.4380 -1.3807 -1.0612
  138OSM   C16S14973   6.150   5.856   3.764  0.4360 -0.2042 -0.2772
  138OSM   H16S14974   6.211   5.949   3.762  2.0731 -1.2510 -1.0495
  138OSM   H16T14975   6.205   5.780   3.823 -3.1944 -3.1435 -0.3413
  138OSM   C17S14976   6.017   5.884   3.837 -0.1683  0.1789  0.7382
  138OSM   H17S14977   5.952   5.795   3.825 -0.1268 -0.1584  2.6819
  138OSM   H17T14978   5.967   5.971   3.789  2.9194  1.9457  0.4411
  138OSM   C18S14979   6.029   5.897   3.988  0.1277  0.2608 -0.2729
  138OSM   H18S14980   5.929   5.916   4.033  0.3348 -0.7246  0.6517
  138OSM   H18T14981   6.108   5.970   4.016  1.5936 -1.8416  1.3831
  138OSM   H18U14982   6.069   5.800   4.025 -0.0189 -0.6974 -2.5107
  138OSM    C1F14983   5.882   5.584   2.337 -0.1292  0.0832 -0.9093
  138OSM     OF14984   5.934   5.474   2.323  0.2936 -0.4660 -0.1103
  138OSM    C2F14985   5.744   5.602   2.382  0.0148  0.2473  0.1596
  138OSM    H2F14986   5.677   5.575   2.297  0.4300  3.7233 -1.4464
  138OSM    H2G14987   5.725   5.710   2.401  1.8736  0.8854 -1.3476
  138OSM    C3F14988   5.704   5.532   2.506 -0.1336  0.7681  0.3773
  138OSM    H3F14989   5.725   5.423   2.510 -0.3417  0.6833 -0.5614
  138OSM    H3G14990   5.593   5.533   2.510 -0.2123 -0.9083 -0.4289
  138OSM    C4F14991   5.757   5.595   2.636 -0.1571  0.4493 -0.3314
  138OSM    H4F14992   5.716   5.692   2.672  1.1906  0.8179  0.2727
  138OSM    H4G14993   5.865   5.616   2.618 -0.3278  0.8276 -0.9368
  138OSM    C5F14994   5.737   5.504   2.755 -0.0841  0.5466 -0.3007
  138OSM    H5F14995   5.812   5.545   2.826 -0.9016  1.6244 -0.0295
  138OSM    H5G14996   5.764   5.400   2.726 -1.5076 -0.2507  1.0187
  138OSM    C6F14997   5.602   5.510   2.816  0.2616 -0.4092  0.4251
  138OSM    H6F14998   5.524   5.466   2.750  0.3321 -0.7357  0.5565
  138OSM    H6G14999   5.584   5.619   2.831 -1.0376 -0.1555 -2.3336
  138OSM    C7F15000   5.597   5.441   2.959  0.1330  0.1550  0.1056
  138OSM    H7F15001   5.675   5.485   3.025 -0.5424  0.7699  0.5000
  138OSM    H7G15002   5.615   5.333   2.941 -0.0652 -0.2087  1.9906
  138OSM    C8F15003   5.460   5.459   3.017 -0.4406 -0.3696 -0.0895
  138OSM    H8F15004   5.450   5.403   3.113 -0.9096 -0.9068 -0.4443
  138OSM    H8G15005   5.374   5.424   2.955 -0.4374  0.3631 -0.5146
  138OSM    C9F15006   5.427   5.608   3.046  0.1352  0.3395  0.1005
  138OSM    H9F15007   5.437   5.669   2.955 -0.9136 -3.5059 -2.8817
  138OSM   C10F15008   5.392   5.665   3.164 -0.1617  1.0294 -0.4164
  138OSM   H10F15009   5.378   5.773   3.150 -1.4696  0.8773 -0.4693
  138OSM   C11F15010   5.371   5.595   3.298  0.1789 -0.1702 -0.0088
  138OSM   H11F15011   5.376   5.485   3.282  1.2199  0.1066 -1.9641
  138OSM   H11G15012   5.275   5.617   3.349  0.4193 -2.3589  1.4887
  138OSM   C12F15013   5.489   5.635   3.389  0.0023 -0.2104  0.7362
  138OSM   H12F15014   5.466   5.741   3.412 -1.4096 -0.4307  0.4286
  138OSM   H12G15015   5.585   5.625   3.335 -0.5778 -0.5084 -0.2773
  138OSM   C13F15016   5.477   5.559   3.525 -0.7345  0.1983 -0.1714
  138OSM   H13F15017   5.467   5.452   3.498 -2.3318  0.0050  1.0499
  138OSM   H13G15018   5.377   5.578   3.568 -1.6066 -1.7503 -1.2388
  138OSM   C14F15019   5.583   5.586   3.631 -0.3720 -0.3231 -0.3201
  138OSM   H14F15020   5.574   5.688   3.673 -0.5576 -0.5224  0.1356
  138OSM   H14G15021   5.684   5.579   3.585 -1.2717 -1.9962 -2.2360
  138OSM   C15F15022   5.564   5.491   3.752  0.0671  0.1740  0.5702
  138OSM   H15F15023   5.600   5.390   3.723 -1.8055 -0.0815 -1.0757
  138OSM   H15G15024   5.455   5.485   3.774 -0.2641 -0.3449 -1.0524
  138OSM   C16F15025   5.645   5.543   3.873  0.3593  0.3609 -0.6660
  138OSM   H16F15026   5.634   5.467   3.953 -0.4253 -0.4712 -1.5442
  138OSM   H16G15027   5.587   5.628   3.915  0.6345  1.1216 -1.7829
  138OSM   C17F15028   5.788   5.560   3.845 -0.4915  0.0958  0.5619
  138OSM   H17F15029   5.823   5.648   3.786  0.7561 -2.2076 -2.4247
  138OSM   H17G15030   5.821   5.472   3.786 -1.0098  0.3182 -0.0833
  138OSM   C18F15031   5.866   5.546   3.971  0.4830  0.0115 -0.0703
  138OSM   H18F15032   5.863   5.643   4.024 -0.4675  0.3393 -0.7089
  138OSM   H18G15033   5.974   5.544   3.946  0.8348  0.6957  1.2911
  138OSM   H18H15034   5.829   5.472   4.046  1.3713  0.3355  0.7120
  139OSM      N15035   6.704   3.538   1.297  0.3685  0.5207 -0.3403
  139OSM    C1515036   6.773   3.524   1.161 -0.0684  0.0299  0.0894
  139OSM   H15A15037   6.809   3.426   1.137 -1.2918 -0.0594 -1.5607
  139OSM   H15B15038   6.856   3.589   1.135  1.5407 -1.7383  0.6281
  139OSM   H15C15039   6.699   3.546   1.085  2.9740 -0.4012 -3.3103
  139OSM    C1415040   6.673   3.685   1.316  0.1330 -0.4542  0.1056
  139OSM   H14A15041   6.764   3.743   1.315  0.0179 -0.2460 -1.7884
  139OSM   H14B15042   6.639   3.711   1.415 -2.0420 -1.1174 -0.4212
  139OSM   H14C15043   6.609   3.728   1.240  0.6709 -1.4122 -0.9126
  139OSM    C1315044   6.587   3.447   1.313  0.9804 -0.3678  0.0181
  139OSM   H13A15045   6.554   3.451   1.416  1.7827 -1.5300  0.3298
  139OSM   H13B15046   6.596   3.340   1.318 -2.8525 -0.7965  1.7156
  139OSM   H13C15047   6.494   3.466   1.260  0.4505  0.6742  1.2449
  139OSM    C1215048   6.812   3.509   1.402  0.7550 -0.6838 -0.1573
  139OSM   H12A15049   6.906   3.558   1.381  0.8160 -1.7998 -2.9246
  139OSM   H12B15050   6.844   3.407   1.390  3.8887  0.2799 -1.0411
  139OSM    C1115051   6.792   3.518   1.557 -0.8203 -0.4521 -0.3265
  139OSM   H11A15052   6.745   3.617   1.572  1.5542  0.5422  1.1422
  139OSM   H11B15053   6.890   3.519   1.610  0.1418 -1.9105 -1.9638
  139OSM      P15054   6.756   3.263   1.591 -0.4559 -0.1727 -0.3195
  139OSM    O1315055   6.635   3.182   1.603 -0.0614 -0.1621  1.0713
  139OSM    O1415056   6.839   3.242   1.468  0.6515  0.0363  0.0251
  139OSM    O1115057   6.839   3.251   1.721 -0.2790 -0.3586 -0.3695
  139OSM    O1215058   6.709   3.414   1.602  0.3334 -0.4246  0.4395
  139OSM    C1S15059   6.805   3.300   1.847 -0.1712 -0.2124  0.4553
  139OSM    H1S15060   6.725   3.235   1.889 -1.0398  1.4448  1.4837
  139OSM    H1T15061   6.781   3.408   1.837 -0.0196 -0.0881  1.3421
  139OSM     NF15062   6.870   3.351   2.079 -0.9635  0.0012  0.1521
  139OSM    HNF15063   6.916   3.434   2.110  0.3055 -1.1898  1.6392
  139OSM    C2S15064   6.918   3.290   1.955  0.4771  0.2583  0.8385
  139OSM    H2S15065   6.930   3.183   1.981  1.1893  0.0930 -0.1439
  139OSM    C3S15066   7.048   3.354   1.906 -0.2965  1.0287 -0.2910
  139OSM    H3S15067   7.022   3.461   1.915  0.9797  1.3321 -0.0605
  139OSM     O315068   7.096   3.313   1.777 -0.1704 -0.0810 -0.4121
  139OSM    HO315069   7.020   3.271   1.737 -0.4512 -0.2066  0.2539
  139OSM    C4S15070   7.155   3.304   2.001 -0.0240 -0.4558  0.8959
  139OSM    H4S15071   7.160   3.196   2.024  4.0563 -0.3929  1.0231
  139OSM    C5S15072   7.230   3.378   2.085 -0.4441 -0.5799  0.0664
  139OSM    H5S15073   7.219   3.487   2.098  0.3235 -0.4119 -0.6393
  139OSM    C6S15074   7.302   3.308   2.197 -0.4122  0.4567 -0.4209
  139OSM    H6S15075   7.383   3.373   2.238  1.0505 -0.5079 -1.6672
  139OSM    H6T15076   7.358   3.223   2.152  0.6972 -0.0643  1.7928
  139OSM    C7S15077   7.207   3.260   2.304  0.2507 -0.5658 -0.4408
  139OSM    H7S15078   7.124   3.198   2.265 -0.8715 -0.7027  1.9714
  139OSM    H7T15079   7.161   3.344   2.360  2.0253 -0.5721  1.1642
  139OSM    C8S15080   7.277   3.177   2.414  0.2853  0.2002  0.0605
  139OSM    H8S15081   7.370   3.224   2.451  0.3445  1.7292 -1.8624
  139OSM    H8T15082   7.314   3.084   2.366  0.6723  0.5341 -0.2959
  139OSM    C9S15083   7.187   3.135   2.532 -0.2882  0.1496  0.0645
  139OSM    H9S15084   7.099   3.079   2.494  1.4101 -0.9595 -2.5801
  139OSM    H9T15085   7.156   3.214   2.603  0.1378 -0.4763  0.9618
  139OSM   C10S15086   7.261   3.035   2.620 -0.4671  0.4510  0.8518
  139OSM   H10S15087   7.367   3.066   2.626 -1.2271  3.8622 -0.5167
  139OSM   H10T15088   7.263   2.935   2.574 -0.0999  1.4428 -1.4195
  139OSM   C11S15089   7.205   3.024   2.759  0.2159  0.5910 -0.1888
  139OSM   H11S15090   7.098   2.998   2.741 -0.1147  2.5982 -1.5154
  139OSM   H11T15091   7.213   3.122   2.809  1.3537  0.6446 -0.4548
  139OSM   C12S15092   7.257   2.902   2.842 -0.4159  0.3187  0.0345
  139OSM   H12S15093   7.367   2.908   2.846 -0.5145  2.5350  1.5220
  139OSM   H12T15094   7.226   2.817   2.777  1.7997  0.3062 -1.0709
  139OSM   C13S15095   7.195   2.895   2.980  0.0684 -0.0995 -0.0317
  139OSM   H13S15096   7.201   2.789   3.014 -0.6411 -0.3691 -0.7227
  139OSM   H13T15097   7.087   2.920   2.984  0.2582  0.5321  1.8041
  139OSM   C14S15098   7.265   2.971   3.094  0.2249 -0.1888  0.4675
  139OSM   H14S15099   7.266   3.078   3.062  0.1952  0.4618  2.5152
  139OSM   H14T15100   7.372   2.941   3.097  0.9135  1.3206 -3.0367
  139OSM   C15S15101   7.203   2.963   3.229  0.0080 -0.2642  0.3428
  139OSM   H15S15102   7.168   2.863   3.261  0.5598 -0.1104  1.4567
  139OSM   H15T15103   7.111   3.019   3.200  1.9146  3.0598  0.1168
  139OSM   C16S15104   7.282   3.040   3.335 -0.6719  0.3459 -0.8503
  139OSM   H16S15105   7.272   3.147   3.310 -1.4335  0.5179  0.1405
  139OSM   H16T15106   7.388   3.013   3.318 -1.1194 -1.0961 -1.5873
  139OSM   C17S15107   7.237   2.992   3.475  0.5991  0.4246 -0.3332
  139OSM   H17S15108   7.126   2.989   3.477  0.5812 -2.8561 -1.0024
  139OSM   H17T15109   7.276   3.063   3.551  0.5753 -1.1712  1.2314
  139OSM   C18S15110   7.288   2.854   3.501 -0.1135  0.1757 -0.0334
  139OSM   H18S15111   7.394   2.854   3.469 -0.1407  0.0416 -0.1273
  139OSM   H18T15112   7.254   2.777   3.428  3.1961 -0.7835 -0.7162
  139OSM   H18U15113   7.281   2.828   3.608 -0.0123  1.8973  0.4224
  139OSM    C1F15114   6.784   3.293   2.162 -0.0202  0.1562 -0.6002
  139OSM     OF15115   6.717   3.193   2.126  0.4637 -0.8696  0.2969
  139OSM    C2F15116   6.768   3.367   2.297 -0.6744 -0.8318 -0.5504
  139OSM    H2F15117   6.693   3.445   2.277 -0.8385 -0.9680 -0.4668
  139OSM    H2G15118   6.868   3.406   2.327 -1.3421  0.4524  0.0593
  139OSM    C3F15119   6.704   3.290   2.420 -0.9621 -0.4072  0.6923
  139OSM    H3F15120   6.603   3.263   2.381 -1.0582  1.5993 -0.5855
  139OSM    H3G15121   6.690   3.375   2.490 -2.3462 -0.0074 -0.0279
  139OSM    C4F15122   6.790   3.175   2.472  0.6269 -0.4744  0.1246
  139OSM    H4F15123   6.895   3.202   2.496  1.1657 -0.3910 -2.1278
  139OSM    H4G15124   6.781   3.101   2.390 -1.1389  0.3831 -0.5335
  139OSM    C5F15125   6.724   3.116   2.599 -0.5081 -0.1531  0.9726
  139OSM    H5F15126   6.628   3.064   2.580 -1.2140  1.3151  0.3024
  139OSM    H5G15127   6.706   3.202   2.667 -0.4512  1.5150 -1.0160
  139OSM    C6F15128   6.805   3.006   2.669 -0.6772  0.3308 -0.3675
  139OSM    H6F15129   6.903   3.041   2.708 -0.6817 -1.5076  1.5094
  139OSM    H6G15130   6.813   2.921   2.599 -1.4360  0.4489 -0.6086
  139OSM    C7F15131   6.721   2.937   2.789 -0.1800  0.0721 -0.2130
  139OSM    H7F15132   6.736   2.827   2.783  0.5393  0.1636 -0.1105
  139OSM    H7G15133   6.614   2.961   2.771 -0.1825 -1.0749 -1.9339
  139OSM    C8F15134   6.772   2.974   2.928 -0.0630  0.0930 -0.1663
  139OSM    H8F15135   6.795   3.082   2.938  0.1734  0.2590 -2.1714
  139OSM    H8G15136   6.875   2.934   2.938 -0.1113  0.2365  1.0314
  139OSM    C9F15137   6.676   2.933   3.034 -0.1436 -0.3594  0.5985
  139OSM    H9F15138   6.576   2.925   2.990  0.1607  1.5441 -0.5785
  139OSM   C10F15139   6.693   2.895   3.160  0.5471 -0.2515  0.4682
  139OSM   H10F15140   6.604   2.861   3.213  0.1742 -2.4982 -1.4207
  139OSM   C11F15141   6.824   2.902   3.238 -0.1032  0.2238  0.1042
  139OSM   H11F15142   6.861   3.004   3.262 -0.8025  0.1012  1.8305
  139OSM   H11G15143   6.903   2.854   3.177  0.8752  2.4269 -0.4785
  139OSM   C12F15144   6.804   2.823   3.367  0.8275 -0.5937 -0.0089
  139OSM   H12F15145   6.900   2.805   3.421  0.0924 -2.2010  0.8350
  139OSM   H12G15146   6.752   2.727   3.347 -1.7847  0.6667  0.2687
  139OSM   C13F15147   6.711   2.884   3.470  1.0429 -0.2527 -0.6857
  139OSM   H13F15148   6.668   2.816   3.546 -0.3143 -0.9149 -1.9838
  139OSM   H13G15149   6.626   2.929   3.414  1.1037 -0.3165 -0.8304
  139OSM   C14F15150   6.787   2.999   3.543  0.7137 -0.6206  0.3742
  139OSM   H14F15151   6.827   3.065   3.464 -0.5921 -0.2168  0.0168
  139OSM   H14G15152   6.877   2.959   3.593  0.5244  1.2302  2.3417
  139OSM   C15F15153   6.696   3.062   3.648 -0.3753  0.2301 -0.0456
  139OSM   H15F15154   6.674   2.987   3.728 -1.1227  0.4301 -0.0638
  139OSM   H15G15155   6.600   3.093   3.603 -0.7401 -0.7005  0.0636
  139OSM   C16F15156   6.763   3.190   3.706  0.6862 -0.3845  0.9752
  139OSM   H16F15157   6.756   3.272   3.631 -2.4497 -0.5630  0.9289
  139OSM   H16G15158   6.873   3.179   3.722  0.8866  0.9287  0.5829
  139OSM   C17F15159   6.694   3.241   3.840 -0.4277 -0.1634  0.0957
  139OSM   H17F15160   6.585   3.221   3.835 -0.5535  0.2402  0.9874
  139OSM   H17G15161   6.708   3.350   3.858  1.0054 -0.1704 -0.7844
  139OSM   C18F15162   6.740   3.156   3.958  0.1182  0.2423 -0.3244
  139OSM   H18F15163   6.711   3.049   3.946 -0.5309  0.3298  0.3651
  139OSM   H18G15164   6.683   3.179   4.050 -0.9509 -0.6036 -0.7626
  139OSM   H18H15165   6.850   3.159   3.978 -0.0641  0.5855  0.6947
  140OSM      N15166   5.537   0.098   1.840 -0.3003  0.0655  0.2290
  140OSM    C1515167   5.417   0.140   1.917  0.1535 -0.1691 -0.8270
  140OSM   H15A15168   5.355   0.052   1.924 -1.9532  1.3695  2.1544
  140OSM   H15B15169   5.360   0.218   1.871  1.2475  2.8754  2.4938
  140OSM   H15C15170   5.431   0.168   2.021 -0.4195  0.2510 -0.8631
  140OSM    C1415171   5.620  -0.015   1.900  0.3423  0.1084 -0.3891
  140OSM   H14A15172   5.653   0.008   2.001 -0.3541 -1.0703  0.1302
  140OSM   H14B15173   5.709  -0.030   1.840  0.4259  2.3374 -0.9139
  140OSM   H14C15174   5.551  -0.098   1.910 -0.2739  0.8785  3.4004
  140OSM    C1315175   5.491   0.041   1.701  0.0396 -0.6688  0.3696
  140OSM   H13A15176   5.454   0.115   1.631  1.1976  1.1354  1.5862
  140OSM   H13B15177   5.414  -0.029   1.727 -0.7492 -0.9784 -2.4864
  140OSM   H13C15178   5.577  -0.000   1.650 -0.8868 -1.0037 -0.9606
  140OSM    C1215179   5.623   0.225   1.812 -0.5773  0.2993  0.3860
  140OSM   H12A15180   5.676   0.242   1.904 -0.3975 -1.6722  0.6990
  140OSM   H12B15181   5.556   0.304   1.782 -0.9347  0.1451  0.7665
  140OSM    C1115182   5.730   0.211   1.697  0.3124 -0.0201 -0.6668
  140OSM   H11A15183   5.773   0.310   1.672 -1.2586  0.0266 -3.8074
  140OSM   H11B15184   5.684   0.174   1.602 -1.4213  1.4997 -0.4708
  140OSM      P15185   5.974   0.139   1.771  0.6024  0.6705  0.1696
  140OSM    O1315186   6.035   0.003   1.798 -0.9438  0.6584  0.3490
  140OSM    O1415187   6.033   0.232   1.676 -0.0499  0.1691  0.7067
  140OSM    O1115188   5.946   0.202   1.912 -0.1129 -0.6016 -0.3071
  140OSM    O1215189   5.824   0.112   1.727  1.1206  0.1172  0.2082
  140OSM    C1S15190   6.061   0.217   1.997  0.6615 -0.3431 -0.6200
  140OSM    H1S15191   6.115   0.309   1.967  0.3457 -0.0306 -0.2411
  140OSM    H1T15192   6.133   0.133   1.989  0.9019 -0.1671 -0.3118
  140OSM     NF15193   6.145   0.264   2.219  0.2559 -0.4336 -0.3950
  140OSM    HNF15194   6.211   0.191   2.238 -1.1905 -2.7759 -3.5793
  140OSM    C2S15195   6.025   0.230   2.146  0.3493 -0.0694 -0.5402
  140OSM    H2S15196   5.954   0.316   2.148 -1.3924 -1.4227  1.7582
  140OSM    C3S15197   5.960   0.104   2.204 -0.2750  1.2006 -0.0463
  140OSM    H3S15198   6.024   0.014   2.191 -0.3834  1.0020  0.7357
  140OSM     O315199   5.830   0.074   2.150 -0.2011 -0.3094  0.0818
  140OSM    HO315200   5.810   0.133   2.077  0.9630 -0.0447 -0.0314
  140OSM    C4S15201   5.942   0.129   2.347  0.0399 -0.9813  0.0435
  140OSM    H4S15202   6.032   0.110   2.407  1.9576  0.6335 -2.1583
  140OSM    C5S15203   5.830   0.197   2.400  0.3163  0.7674 -0.2155
  140OSM    H5S15204   5.746   0.228   2.336  0.4930  2.2764  0.2550
  140OSM    C6S15205   5.805   0.222   2.553 -0.1475 -0.0558  0.3849
  140OSM    H6S15206   5.715   0.164   2.582  0.3725 -0.4188  1.3210
  140OSM    H6T15207   5.797   0.331   2.571 -1.7393 -0.2452  1.0132
  140OSM    C7S15208   5.921   0.181   2.645 -0.2409  0.6324  0.0358
  140OSM    H7S15209   6.009   0.241   2.611  0.0939  0.7265  1.0447
  140OSM    H7T15210   5.948   0.077   2.617 -2.0196  0.1023  0.1912
  140OSM    C8S15211   5.887   0.211   2.786  0.0749 -0.0294 -0.7467
  140OSM    H8S15212   5.861   0.317   2.805  1.1623  0.0581  0.3948
  140OSM    H8T15213   5.970   0.182   2.855 -0.4346  0.3943  0.0629
  140OSM    C9S15214   5.763   0.128   2.843 -0.0601  0.6390  0.6077
  140OSM    H9S15215   5.777   0.019   2.824 -1.4226  0.6298 -0.5337
  140OSM    H9T15216   5.673   0.155   2.783 -0.0054 -0.5623 -0.0530
  140OSM   C10S15217   5.733   0.164   2.992  0.0986 -0.1973  0.5050
  140OSM   H10S15218   5.622   0.172   2.994  0.0118 -0.5074 -1.1957
  140OSM   H10T15219   5.773   0.264   3.018  0.5702 -0.1528 -0.3382
  140OSM   C11S15220   5.784   0.057   3.082 -0.3065  0.1814  0.5699
  140OSM   H11S15221   5.893   0.049   3.067 -0.1656  1.2421  0.9249
  140OSM   H11T15222   5.758  -0.047   3.051 -0.0906 -0.0000  0.9921
  140OSM   C12S15223   5.751   0.083   3.231 -0.0143  1.0614 -0.4896
  140OSM   H12S15224   5.668   0.017   3.262  1.7993 -0.9491  0.3813
  140OSM   H12T15225   5.714   0.187   3.245  1.6275  1.5484  0.6791
  140OSM   C13S15226   5.877   0.057   3.313  0.2599  0.1074  0.2072
  140OSM   H13S15227   5.963   0.110   3.269  1.0733  0.7704  2.4709
  140OSM   H13T15228   5.906  -0.050   3.301  2.5049  0.3645  2.6071
  140OSM   C14S15229   5.860   0.093   3.461  0.0848  0.0703  0.3802
  140OSM   H14S15230   5.784   0.023   3.500  1.5885 -1.8213  0.0695
  140OSM   H14T15231   5.824   0.198   3.469 -0.4744 -0.1208  0.3939
  140OSM   C15S15232   5.994   0.085   3.539 -0.1384 -0.0498  0.4472
  140OSM   H15S15233   6.044   0.184   3.546 -1.4283  0.7901 -1.3597
  140OSM   H15T15234   6.058   0.003   3.502 -1.7016 -1.7758  1.3847
  140OSM   C16S15235   5.976   0.044   3.688 -0.1487  0.0742 -0.8085
  140OSM   H16S15236   5.889   0.100   3.730 -0.2935 -0.9965  0.4105
  140OSM   H16T15237   6.075   0.075   3.728  1.1173 -2.6672 -1.5637
  140OSM   C17S15238   5.966  -0.105   3.721 -0.9592 -1.0945 -0.0354
  140OSM   H17S15239   6.064  -0.148   3.688 -0.1136  0.0006  0.9595
  140OSM   H17T15240   5.889  -0.159   3.663 -1.7251 -0.0270 -0.0253
  140OSM   C18S15241   5.954  -0.137   3.866 -0.0955  0.3483 -0.5334
  140OSM   H18S15242   6.043  -0.112   3.928  0.6739 -1.3584 -0.8787
  140OSM   H18T15243   5.919  -0.242   3.868 -0.5655  0.4953  1.8446
  140OSM   H18U15244   5.866  -0.079   3.900 -1.0809 -0.6142 -1.3543
  140OSM    C1F15245   6.200   0.378   2.213  0.1019  0.3097  0.1472
  140OSM     OF15246   6.140   0.483   2.175 -0.3763 -0.0787 -0.5329
  140OSM    C2F15247   6.351   0.388   2.244 -0.2192 -0.3448 -0.6294
  140OSM    H2F15248   6.389   0.452   2.162 -1.7610  1.2590 -0.1406
  140OSM    H2G15249   6.397   0.287   2.233  0.7284 -0.1824  1.3641
  140OSM    C3F15250   6.395   0.461   2.373  0.0326  0.0199  0.3701
  140OSM    H3F15251   6.354   0.563   2.356 -1.8565 -0.8485 -0.5854
  140OSM    H3G15252   6.506   0.468   2.383  0.3321 -0.9461 -1.6415
  140OSM    C4F15253   6.331   0.397   2.498 -0.7034 -0.3255  0.2845
  140OSM    H4F15254   6.394   0.306   2.514 -0.0660 -0.1395 -1.0346
  140OSM    H4G15255   6.226   0.366   2.477 -0.3412 -0.6455 -1.1242
  140OSM    C5F15256   6.337   0.498   2.610 -0.8079  0.5613 -0.3931
  140OSM    H5F15257   6.260   0.571   2.579 -0.5580  0.7745 -0.5211
  140OSM    H5G15258   6.444   0.528   2.623 -0.9309  1.6381 -1.7436
  140OSM    C6F15259   6.292   0.429   2.739 -0.4735 -0.4790 -0.5789
  140OSM    H6F15260   6.189   0.393   2.718 -0.7396 -0.0726  0.0111
  140OSM    H6G15261   6.284   0.507   2.818  2.8186 -1.1670  0.5591
  140OSM    C7F15262   6.375   0.312   2.794 -0.0414 -0.0422 -0.7430
  140OSM    H7F15263   6.484   0.321   2.776  0.6136  1.8470  3.0703
  140OSM    H7G15264   6.338   0.227   2.733 -2.0186 -0.2076  0.5929
  140OSM    C8F15265   6.351   0.287   2.950 -0.5212 -0.3633 -0.1023
  140OSM    H8F15266   6.378   0.382   3.001 -1.3796 -0.0774 -0.1701
  140OSM    H8G15267   6.407   0.196   2.981  3.1966  2.0405  0.9604
  140OSM    C9F15268   6.209   0.257   2.986 -0.5140 -0.2877 -0.0075
  140OSM    H9F15269   6.159   0.185   2.920 -0.9323  0.0730 -0.0867
  140OSM   C10F15270   6.137   0.317   3.085 -0.3225 -0.2784 -0.7914
  140OSM   H10F15271   6.032   0.287   3.098 -0.6474 -0.0722 -2.6494
  140OSM   C11F15272   6.186   0.413   3.196  0.3441 -0.6523  0.5122
  140OSM   H11F15273   6.101   0.453   3.255  0.2187  1.7270 -1.1298
  140OSM   H11G15274   6.221   0.504   3.141 -1.4598  0.0800  0.4928
  140OSM   C12F15275   6.299   0.378   3.282 -0.3692  0.0933 -0.1697
  140OSM   H12F15276   6.343   0.460   3.342  1.7161  0.0886 -1.5991
  140OSM   H12G15277   6.384   0.364   3.213 -0.2419  2.0580 -0.4860
  140OSM   C13F15278   6.277   0.245   3.360  0.1969 -0.6705 -0.1269
  140OSM   H13F15279   6.311   0.166   3.291  2.1181 -0.1123  0.1309
  140OSM   H13G15280   6.168   0.234   3.383 -0.3862  0.2415 -2.2533
  140OSM   C14F15281   6.362   0.231   3.487 -0.0564 -0.2816 -0.3540
  140OSM   H14F15282   6.469   0.236   3.459 -0.0360  2.9214  0.0153
  140OSM   H14G15283   6.348   0.130   3.533 -0.3051  0.1037  0.4347
  140OSM   C15F15284   6.339   0.343   3.600 -1.2918  0.6131 -0.1825
  140OSM   H15F15285   6.244   0.327   3.656 -0.8665  0.8269  0.6196
  140OSM   H15G15286   6.334   0.440   3.546  0.3329  0.3173 -0.9217
  140OSM   C16F15287   6.458   0.349   3.702  0.2598 -0.4246  0.4334
  140OSM   H16F15288   6.424   0.421   3.779 -1.9878 -1.5976  0.6143
  140OSM   H16G15289   6.549   0.394   3.656  0.0538 -0.3369  0.1107
  140OSM   C17F15290   6.494   0.211   3.771 -0.4109 -0.9625 -0.1155
  140OSM   H17F15291   6.555   0.154   3.698  0.3091 -1.0822  0.5781
  140OSM   H17G15292   6.401   0.162   3.807 -0.2834 -0.8648  0.3494
  140OSM   C18F15293   6.599   0.224   3.881  0.5692 -0.2599 -0.3950
  140OSM   H18F15294   6.566   0.298   3.957 -0.3507 -1.7838  0.7639
  140OSM   H18G15295   6.689   0.273   3.837  0.4393 -1.3058 -1.8827
  140OSM   H18H15296   6.627   0.126   3.926  0.7189  1.4082  3.6413
  141OSM      N15297   6.750   5.011   1.771 -0.7787  0.3182 -0.2518
  141OSM    C1515298   6.826   5.104   1.684 -0.3851 -0.4710 -0.6263
  141OSM   H15A15299   6.781   5.129   1.589  2.9447  1.5752 -1.8271
  141OSM   H15B15300   6.926   5.066   1.667 -0.0315  0.2921 -0.2896
  141OSM   H15C15301   6.841   5.194   1.742 -2.3115 -1.1595  1.0775
  141OSM    C1415302   6.607   5.052   1.771  0.4326  0.2772  0.3502
  141OSM   H14A15303   6.590   5.140   1.832  0.2687 -0.6447  1.6689
  141OSM   H14B15304   6.542   4.975   1.808 -1.6556  2.0746  0.6079
  141OSM   H14C15305   6.586   5.077   1.668  1.1372 -1.7222 -0.3210
  141OSM    C1315306   6.762   4.871   1.712 -0.1587  0.3104  0.5444
  141OSM   H13A15307   6.865   4.842   1.700  0.3371  2.4120 -0.8337
  141OSM   H13B15308   6.719   4.863   1.613 -0.7351  2.1014  0.6212
  141OSM   H13C15309   6.707   4.795   1.766 -0.3460 -0.1704 -0.2933
  141OSM    C1215310   6.808   5.024   1.910  0.7010 -0.6122 -0.4648
  141OSM   H12A15311   6.747   4.976   1.986 -0.4034  0.1430 -0.8489
  141OSM   H12B15312   6.810   5.128   1.939 -3.2989 -0.6839  0.6825
  141OSM    C1115313   6.946   4.953   1.932  0.4210 -0.8139 -0.0560
  141OSM   H11A15314   7.006   4.965   1.839  0.1348  1.8853  0.0365
  141OSM   H11B15315   6.913   4.847   1.935 -3.1631  0.0721 -2.7747
  141OSM      P15316   7.149   5.048   2.046 -0.1293  0.3304 -0.1183
  141OSM    O1315317   7.231   4.960   1.959 -0.1078  0.3464  0.2941
  141OSM    O1415318   7.138   5.192   1.997 -0.3882  0.6013 -0.5929
  141OSM    O1115319   7.209   5.032   2.192 -0.4274 -0.2501  0.3458
  141OSM    O1215320   7.005   4.988   2.057 -0.0737 -0.7300  0.0222
  141OSM    C1S15321   7.135   5.072   2.310  0.9010  0.5993  1.1093
  141OSM    H1S15322   7.025   5.060   2.297  0.6177  2.5142  1.5029
  141OSM    H1T15323   7.144   5.180   2.334  1.2387  1.0418 -0.8882
  141OSM     NF15324   7.105   5.008   2.551 -0.2686  0.1231  0.0709
  141OSM    HNF15325   7.131   5.066   2.628 -1.0670 -1.9568  1.9995
  141OSM    C2S15326   7.188   5.000   2.434 -0.1145  0.4234  0.7833
  141OSM    H2S15327   7.202   4.895   2.400 -2.3197  0.3595 -0.0736
  141OSM    C3S15328   7.339   5.037   2.455  0.0208 -0.6542  0.4361
  141OSM    H3S15329   7.341   5.148   2.467 -0.8185 -0.7326  1.4740
  141OSM     O315330   7.417   5.017   2.339  0.1645  0.0202 -0.7681
  141OSM    HO315331   7.345   5.019   2.276 -1.1891 -0.1308  0.6896
  141OSM    C4S15332   7.388   4.969   2.579  0.6203  0.2064 -0.7524
  141OSM    H4S15333   7.361   5.033   2.665  1.8071 -1.4737  0.9644
  141OSM    C5S15334   7.441   4.848   2.604  0.4637  0.3162 -0.1876
  141OSM    H5S15335   7.444   4.777   2.520  0.3936 -0.0111  0.0847
  141OSM    C6S15336   7.489   4.797   2.738 -0.3347  0.0196 -0.1242
  141OSM    H6S15337   7.488   4.886   2.803 -2.5430  1.5701 -2.1186
  141OSM    H6T15338   7.595   4.763   2.740  0.7438  3.0801 -0.4229
  141OSM    C7S15339   7.405   4.698   2.806 -0.2464  0.8124  0.4989
  141OSM    H7S15340   7.407   4.603   2.749 -1.8074  2.5742 -2.7952
  141OSM    H7T15341   7.296   4.723   2.804 -0.5946 -0.6033 -0.6403
  141OSM    C8S15342   7.443   4.682   2.956 -0.4594  0.4898 -0.3012
  141OSM    H8S15343   7.554   4.682   2.959 -0.4523  0.8697 -0.5006
  141OSM    H8T15344   7.411   4.581   2.989 -2.1391  0.7559 -1.0346
  141OSM    C9S15345   7.390   4.792   3.046  0.9891 -0.0498  0.0830
  141OSM    H9S15346   7.279   4.783   3.037  0.9212  1.8542 -1.5969
  141OSM    H9T15347   7.407   4.896   3.012  1.6209 -0.3420 -0.5222
  141OSM   C10S15348   7.426   4.762   3.192 -0.0906  0.6557 -0.1750
  141OSM   H10S15349   7.531   4.793   3.212  0.4339 -1.7340  1.1873
  141OSM   H10T15350   7.429   4.653   3.209  1.1833  0.8941  1.4338
  141OSM   C11S15351   7.329   4.825   3.285 -0.1154 -0.5946  0.3948
  141OSM   H11S15352   7.227   4.820   3.241 -0.0570  2.3574 -0.2380
  141OSM   H11T15353   7.354   4.932   3.294  1.0160 -0.6328 -1.6923
  141OSM   C12S15354   7.327   4.743   3.417 -0.2968  0.0882 -0.0199
  141OSM   H12S15355   7.289   4.640   3.401  1.6291 -0.8082  0.8672
  141OSM   H12T15356   7.260   4.797   3.487  0.6437 -0.3913  1.2902
  141OSM   C13S15357   7.469   4.730   3.473  0.0158 -0.5131  0.4832
  141OSM   H13S15358   7.535   4.675   3.403  0.0724 -1.8174  1.5449
  141OSM   H13T15359   7.452   4.657   3.554 -1.6825  0.7391  1.3221
  141OSM   C14S15360   7.524   4.864   3.531 -0.5599  0.7625  0.1369
  141OSM   H14S15361   7.543   4.941   3.453  1.9985  2.8767  2.6464
  141OSM   H14T15362   7.615   4.844   3.591  0.6076  4.1971 -0.2734
  141OSM   C15S15363   7.437   4.933   3.640  0.4096 -0.1590 -0.8946
  141OSM   H15S15364   7.351   4.977   3.584 -0.0650 -0.1161 -0.1516
  141OSM   H15T15365   7.482   5.022   3.689  1.8895  0.0151 -2.5145
  141OSM   C16S15366   7.396   4.832   3.752  0.3056  0.1939 -0.0121
  141OSM   H16S15367   7.486   4.768   3.769  1.2345  1.0829 -1.3924
  141OSM   H16T15368   7.310   4.767   3.726 -0.0120 -0.4882  2.4958
  141OSM   C17S15369   7.366   4.896   3.885 -0.7150 -0.5215 -0.4276
  141OSM   H17S15370   7.453   4.957   3.918 -1.4075 -0.6807  1.8926
  141OSM   H17T15371   7.354   4.810   3.954  0.4776  0.1195  0.6144
  141OSM   C18S15372   7.244   4.994   3.889  0.1605 -0.3144  0.0267
  141OSM   H18S15373   7.195   4.989   3.988 -0.5672 -0.5420 -0.3316
  141OSM   H18T15374   7.156   4.962   3.829 -0.2934 -0.8584  0.9618
  141OSM   H18U15375   7.272   5.099   3.864  0.1412  0.2247  2.0834
  141OSM    C1F15376   6.977   4.956   2.562  0.3421 -0.1414 -0.8797
  141OSM     OF15377   6.925   4.888   2.474 -0.1361 -0.4026 -0.1549
  141OSM    C2F15378   6.898   4.983   2.683 -0.4152  0.0405  0.2660
  141OSM    H2F15379   6.811   4.916   2.663  0.7138 -1.0462 -1.2134
  141OSM    H2G15380   6.881   5.093   2.675  1.1717  0.5110  2.5265
  141OSM    C3F15381   6.977   4.946   2.813 -0.5715 -0.3144 -0.1004
  141OSM    H3F15382   7.078   4.992   2.826 -0.6239 -0.5738  1.2640
  141OSM    H3G15383   6.991   4.840   2.842  0.1810  0.1706  1.4047
  141OSM    C4F15384   6.907   5.015   2.932  0.9275  0.6454 -0.0782
  141OSM    H4F15385   6.800   5.009   2.903  0.2940  2.1978  1.7554
  141OSM    H4G15386   6.939   5.121   2.938 -1.2471  1.2674  1.6183
  141OSM    C5F15387   6.938   4.956   3.072  0.1883  0.2352  0.4406
  141OSM    H5F15388   7.047   4.943   3.089  0.5029  1.2568 -0.7143
  141OSM    H5G15389   6.907   4.849   3.081 -0.2189  0.3784  0.7393
  141OSM    C6F15390   6.878   5.045   3.190 -0.8580  0.1675 -0.3755
  141OSM    H6F15391   6.770   5.023   3.203 -0.9618 -0.8212 -2.4767
  141OSM    H6G15392   6.898   5.152   3.171 -4.6209  1.1828  0.6875
  141OSM    C7F15393   6.941   5.004   3.328  0.1804 -0.3385  0.0373
  141OSM    H7F15394   7.052   5.014   3.321  0.1027 -0.3705 -1.8027
  141OSM    H7G15395   6.933   4.894   3.344 -1.9291  0.1836  3.7378
  141OSM    C8F15396   6.877   5.071   3.449 -0.3890 -0.3506  1.2650
  141OSM    H8F15397   6.914   5.038   3.548  0.8702  2.1593  1.7215
  141OSM    H8G15398   6.771   5.038   3.450  0.0771 -2.6388 -3.1014
  141OSM    C9F15399   6.884   5.216   3.441 -0.1926  0.5721 -0.5085
  141OSM    H9F15400   6.846   5.259   3.347  0.5714  1.3404 -0.4800
  141OSM   C10F15401   6.925   5.300   3.539 -0.0111  0.0382 -0.1818
  141OSM   H10F15402   6.921   5.405   3.507  1.4169 -0.1519 -1.0499
  141OSM   C11F15403   6.987   5.261   3.674  0.1718  0.5516  0.4634
  141OSM   H11F15404   7.096   5.282   3.676 -0.1693  2.5219  1.5152
  141OSM   H11G15405   6.965   5.155   3.698 -0.6651  0.6693  0.2224
  141OSM   C12F15406   6.923   5.349   3.780  0.4955  0.4651 -0.5173
  141OSM   H12F15407   6.820   5.313   3.800  0.4964  1.0176  0.6213
  141OSM   H12G15408   6.925   5.458   3.759 -1.9171  0.6044 -0.3113
  141OSM   C13F15409   6.983   5.332   3.917 -0.1612 -0.6845  0.0749
  141OSM   H13F15410   7.020   5.228   3.931 -0.6942 -1.0496 -1.0675
  141OSM   H13G15411   6.906   5.361   3.991 -2.0000 -0.3650 -1.8633
  141OSM   C14F15412   7.102   5.428   3.936  0.0027  0.0462 -0.1611
  141OSM   H14F15413   7.081   5.529   3.893 -1.0493 -1.1302 -2.6504
  141OSM   H14G15414   7.196   5.406   3.881 -0.8460 -0.3094 -1.5210
  141OSM   C15F15415   7.137   5.443   4.088  0.3908 -0.1608  0.4297
  141OSM   H15F15416   7.161   5.339   4.120  0.6412 -0.0200  0.7065
  141OSM   H15G15417   7.038   5.480   4.122 -1.1537 -1.6988 -2.0597
  141OSM   C16F15418   7.248   5.537   4.120  0.1578  0.1898  0.2910
  141OSM   H16F15419   7.235   5.638   4.077  1.0663 -0.3311 -1.2855
  141OSM   H16G15420   7.339   5.490   4.077  0.5398 -0.5854  1.8579
  141OSM   C17F15421   7.275   5.548   4.265  0.9740 -0.0163  0.2740
  141OSM   H17F15422   7.359   5.619   4.278  1.6030 -0.8364  0.7535
  141OSM   H17G15423   7.297   5.455   4.322  1.0613  0.5691  1.2256
  141OSM   C18F15424   7.160   5.619   4.334 -0.5700 -0.6504  0.1607
  141OSM   H18F15425   7.071   5.553   4.339 -0.5079 -0.9658 -2.0089
  141OSM   H18G15426   7.123   5.714   4.288  0.9313 -0.7526 -1.3611
  141OSM   H18H15427   7.201   5.642   4.434  3.0557  1.2216 -1.5491
  142OSM      N15428   1.987   0.279   1.257 -0.1986 -0.5205 -0.3666
  142OSM    C1515429   2.136   0.286   1.248 -0.7752  0.1583  0.1367
  142OSM   H15A15430   2.182   0.328   1.336 -0.8543  1.2946 -0.3458
  142OSM   H15B15431   2.163   0.347   1.163 -0.2262  1.9636  1.5472
  142OSM   H15C15432   2.179   0.188   1.243 -1.0411  0.0408  0.1061
  142OSM    C1415433   1.924   0.413   1.249 -0.2326 -0.1233 -0.2387
  142OSM   H14A15434   1.971   0.484   1.183 -0.4231  1.1749  0.9876
  142OSM   H14B15435   1.940   0.466   1.342  1.9376 -1.9220  0.5217
  142OSM   H14C15436   1.817   0.411   1.239 -0.1705  0.1651 -1.0188
  142OSM    C1315437   1.954   0.198   1.135 -0.0397 -0.5856  0.7002
  142OSM   H13A15438   1.848   0.198   1.117  0.0586 -1.1574  0.0844
  142OSM   H13B15439   1.987   0.095   1.136  0.8610 -0.3323 -0.6297
  142OSM   H13C15440   1.990   0.249   1.047  3.6338 -1.3448  1.5817
  142OSM    C1215441   1.949   0.200   1.376 -0.0645  0.1935  0.0874
  142OSM   H12A15442   1.989   0.102   1.356  1.4401  1.3253 -3.3011
  142OSM   H12B15443   1.842   0.196   1.392  0.1577  1.2257  2.0579
  142OSM    C1115444   1.996   0.251   1.515  0.3557 -0.3745 -0.3013
  142OSM   H11A15445   2.104   0.276   1.518  0.2822 -0.1213  0.6236
  142OSM   H11B15446   1.991   0.168   1.588 -0.7355  0.1997  0.3079
  142OSM      P15447   1.764   0.330   1.609 -0.2084 -0.4750  0.1457
  142OSM    O1315448   1.718   0.444   1.693  1.0246  0.2014 -0.1729
  142OSM    O1415449   1.678   0.280   1.493  0.0712 -0.1359  0.0502
  142OSM    O1115450   1.798   0.211   1.708 -0.1345 -0.1300 -0.0888
  142OSM    O1215451   1.909   0.362   1.553  0.3317 -0.2147 -0.1564
  142OSM    C1S15452   1.842   0.227   1.838  0.1531  0.6223 -0.5714
  142OSM    H1S15453   1.886   0.327   1.856  0.6499  0.2290  0.4719
  142OSM    H1T15454   1.917   0.145   1.850  1.2660  1.2640 -2.6014
  142OSM     NF15455   1.767   0.252   2.075 -0.1362  0.3241 -0.0094
  142OSM    HNF15456   1.811   0.186   2.136 -0.2346  1.0264  0.8362
  142OSM    C2S15457   1.729   0.211   1.942 -0.1913  0.4981  0.3482
  142OSM    H2S15458   1.643   0.276   1.913 -0.5096 -0.4927 -1.0611
  142OSM    C3S15459   1.680   0.066   1.933  0.1890 -0.3745 -0.0401
  142OSM    H3S15460   1.759   0.002   1.978 -1.6217 -1.2297  2.0614
  142OSM     O315461   1.657   0.022   1.798  0.1004  0.1748 -0.3189
  142OSM    HO315462   1.692   0.101   1.757 -0.4522  0.1204 -0.9075
  142OSM    C4S15463   1.557   0.042   2.013 -0.7229 -0.1859 -0.0924
  142OSM    H4S15464   1.573  -0.010   2.109 -2.3637 -0.6730 -0.0422
  142OSM    C5S15465   1.430   0.058   1.979 -0.1508 -1.1671 -0.8431
  142OSM    H5S15466   1.415   0.114   1.886  1.7149 -0.1067 -0.5588
  142OSM    C6S15467   1.298   0.012   2.041  0.3486  0.5156 -0.2970
  142OSM    H6S15468   1.251  -0.064   1.976 -0.6811  1.5627 -0.8065
  142OSM    H6T15469   1.231   0.100   2.051 -0.3552  0.0967 -1.2085
  142OSM    C7S15470   1.301  -0.062   2.173 -0.4273  0.1223 -0.0179
  142OSM    H7S15471   1.376  -0.144   2.163 -0.5916 -0.2415  1.5340
  142OSM    H7T15472   1.203  -0.112   2.183  0.5106 -1.6279  0.9043
  142OSM    C8S15473   1.337   0.027   2.286  0.4664  0.3356  0.5685
  142OSM    H8S15474   1.266   0.113   2.283  1.7097  1.3803 -0.0573
  142OSM    H8T15475   1.442   0.063   2.276  1.7711 -3.4758 -1.1101
  142OSM    C9S15476   1.321  -0.040   2.425  0.1004 -0.0050 -0.1464
  142OSM    H9S15477   1.375  -0.137   2.425  0.7509  0.3459  0.0179
  142OSM    H9T15478   1.216  -0.069   2.442  0.6051 -0.2250  3.1673
  142OSM   C10S15479   1.387   0.041   2.534 -0.6793 -0.6597  0.3845
  142OSM   H10S15480   1.324   0.132   2.542  0.6707  0.4797 -1.1646
  142OSM   H10T15481   1.491   0.062   2.501 -0.3607 -0.5718  1.4126
  142OSM   C11S15482   1.388  -0.036   2.660  0.6711  0.3130  0.0178
  142OSM   H11S15483   1.454  -0.122   2.637  0.5868  0.2402  0.0479
  142OSM   H11T15484   1.288  -0.079   2.682  0.3700  0.1712 -1.5556
  142OSM   C12S15485   1.441   0.040   2.785  0.1691  0.1672  0.3519
  142OSM   H12S15486   1.397   0.140   2.805  1.9901  1.4007 -1.3861
  142OSM   H12T15487   1.552   0.050   2.787  0.0704  1.7891 -0.5983
  142OSM   C13S15488   1.404  -0.039   2.911  0.3090 -0.3001 -0.0992
  142OSM   H13S15489   1.371  -0.142   2.884  1.0019 -0.0569 -2.0852
  142OSM   H13T15490   1.310   0.005   2.949  0.8957  1.3033 -0.4142
  142OSM   C14S15491   1.514  -0.043   3.019 -0.6046  0.4814  0.0311
  142OSM   H14S15492   1.469  -0.076   3.115 -1.2342 -3.6713 -1.4639
  142OSM   H14T15493   1.556   0.059   3.028 -0.2977  0.5130 -1.4635
  142OSM   C15S15494   1.637  -0.118   2.982 -0.3362 -0.0004 -1.0747
  142OSM   H15S15495   1.702  -0.057   2.916  0.3250 -1.6711 -2.0345
  142OSM   H15T15496   1.607  -0.204   2.918  0.5844  0.4163 -2.1048
  142OSM   C16S15497   1.721  -0.170   3.100  0.1589 -0.1108  0.0310
  142OSM   H16S15498   1.813  -0.210   3.054  0.3085 -0.5798  0.7210
  142OSM   H16T15499   1.665  -0.250   3.154  1.0528 -0.6367  0.2036
  142OSM   C17S15500   1.755  -0.053   3.192  0.2949  0.4062  0.0176
  142OSM   H17S15501   1.824  -0.092   3.270  1.1575 -0.9153 -1.3756
  142OSM   H17T15502   1.664  -0.010   3.239 -0.3432  0.7599 -1.4982
  142OSM   C18S15503   1.835   0.064   3.137  1.0187  0.2194 -0.3846
  142OSM   H18S15504   1.941   0.039   3.115  1.6820  2.5384 -0.0700
  142OSM   H18T15505   1.840   0.134   3.223 -1.7964  0.1014 -0.0362
  142OSM   H18U15506   1.798   0.117   3.047 -0.3952 -0.1374 -0.0435
  142OSM    C1F15507   1.795   0.380   2.101  0.0763  0.5326  0.1593
  142OSM     OF15508   1.768   0.470   2.025 -0.2980 -0.5004  0.1470
  142OSM    C2F15509   1.853   0.401   2.238 -0.2328  0.2421 -0.2021
  142OSM    H2F15510   1.960   0.369   2.234 -0.4914 -0.6853 -0.0056
  142OSM    H2G15511   1.813   0.323   2.307 -0.9593  0.7985  0.0135
  142OSM    C3F15512   1.833   0.546   2.297 -0.5733  0.6621  0.0345
  142OSM    H3F15513   1.730   0.583   2.275  0.4898  1.6759 -4.1964
  142OSM    H3G15514   1.909   0.615   2.255  0.8498 -0.6995  0.3059
  142OSM    C4F15515   1.833   0.546   2.450 -0.7057 -0.0472 -0.1052
  142OSM    H4F15516   1.766   0.466   2.488 -0.0688 -0.9140 -0.7748
  142OSM    H4G15517   1.789   0.646   2.471 -0.5317  0.2090 -0.9273
  142OSM    C5F15518   1.972   0.546   2.525 -0.6068  0.8743 -0.2521
  142OSM    H5F15519   2.045   0.618   2.482 -0.0921 -0.5223 -1.8588
  142OSM    H5G15520   2.006   0.442   2.505 -0.7889  1.1219 -2.0470
  142OSM    C6F15521   1.939   0.571   2.674 -0.1377  0.3696  0.0452
  142OSM    H6F15522   1.856   0.505   2.707  0.7088 -1.1810 -0.7791
  142OSM    H6G15523   1.912   0.678   2.689  0.3016  0.5542 -0.4362
  142OSM    C7F15524   2.059   0.527   2.764 -0.5139 -0.4112  0.0854
  142OSM    H7F15525   2.140   0.592   2.724 -0.5566  0.3962  1.2747
  142OSM    H7G15526   2.086   0.424   2.733  0.2667 -0.4748  0.9579
  142OSM    C8F15527   2.029   0.551   2.914 -0.1754  0.4145  0.0476
  142OSM    H8F15528   2.013   0.658   2.939 -1.2485  0.4507 -0.7129
  142OSM    H8G15529   2.120   0.530   2.974  1.0274  0.6606 -1.6171
  142OSM    C9F15530   1.926   0.450   2.972 -0.0366 -0.8704 -0.1473
  142OSM    H9F15531   1.856   0.404   2.900  0.9818 -0.8729 -1.1703
  142OSM   C10F15532   1.929   0.406   3.101 -0.0239  0.2609  0.4722
  142OSM   H10F15533   1.872   0.316   3.130 -0.4151  0.5652  0.6702
  142OSM   C11F15534   2.006   0.468   3.215 -0.4998  0.4153 -0.5270
  142OSM   H11F15535   1.954   0.468   3.313  0.6657 -2.8077  0.2089
  142OSM   H11G15536   2.022   0.576   3.192  1.4474 -0.0070 -1.3110
  142OSM   C12F15537   2.143   0.385   3.227  0.1220 -0.4958  0.1651
  142OSM   H12F15538   2.200   0.420   3.316 -0.5595 -0.8792  0.7572
  142OSM   H12G15539   2.209   0.396   3.138  1.1291  0.7295  1.0249
  142OSM   C13F15540   2.135   0.235   3.246 -0.0338  1.0376  0.5338
  142OSM   H13F15541   2.099   0.192   3.150 -0.3578  0.5324  0.8761
  142OSM   H13G15542   2.058   0.198   3.317  0.8591 -0.0763  0.9669
  142OSM   C14F15543   2.264   0.165   3.289  0.3862 -0.5255  0.4317
  142OSM   H14F15544   2.341   0.201   3.217  0.5475 -2.0293 -0.1708
  142OSM   H14G15545   2.261   0.055   3.274  1.0065 -0.5310  0.3152
  142OSM   C15F15546   2.315   0.196   3.431  0.7247 -0.0252  0.0198
  142OSM   H15F15547   2.221   0.185   3.489  0.9685 -0.0656  0.4184
  142OSM   H15G15548   2.358   0.298   3.444  0.8872 -0.2926  1.8049
  142OSM   C16F15549   2.412   0.086   3.473  0.3998  0.1678 -0.0276
  142OSM   H16F15550   2.478   0.073   3.385  1.2266  2.1882  0.2418
  142OSM   H16G15551   2.356  -0.008   3.494 -2.3359  1.9310  1.1467
  142OSM   C17F15552   2.502   0.117   3.594 -0.1706 -0.0053  0.3800
  142OSM   H17F15553   2.557   0.210   3.571  0.0620 -0.5609 -1.4089
  142OSM   H17G15554   2.579   0.041   3.619 -0.4302  0.1865  1.8930
  142OSM   C18F15555   2.414   0.146   3.716 -0.5480  0.3822 -0.0958
  142OSM   H18F15556   2.346   0.231   3.698 -0.4090  1.2674  3.0638
  142OSM   H18G15557   2.478   0.168   3.804 -1.5267  0.7567  0.5392
  142OSM   H18H15558   2.346   0.061   3.737  0.3562 -0.1211  0.9198
  143OSM      N15559   0.485   6.130   1.563 -0.0472 -0.1871 -0.6387
  143OSM    C1515560   0.518   6.092   1.413  0.2916 -0.5081 -0.0916
  143OSM   H15A15561   0.567   5.995   1.416 -0.7205 -1.0008  1.7658
  143OSM   H15B15562   0.571   6.176   1.371 -0.9439  1.4977  2.1203
  143OSM   H15C15563   0.433   6.068   1.351  0.0448 -0.6293  0.2906
  143OSM    C1415564   0.379   6.039   1.614 -0.8578 -1.1568 -0.0494
  143OSM   H14A15565   0.370   6.058   1.720 -0.1613  1.3304 -0.3809
  143OSM   H14B15566   0.398   5.934   1.598 -0.4206 -1.0482 -0.2482
  143OSM   H14C15567   0.282   6.060   1.571 -0.5351  0.7545  0.0667
  143OSM    C1315568   0.614   6.118   1.644  0.9589 -0.1332  0.2767
  143OSM   H13A15569   0.691   6.180   1.599  1.0366 -0.3273  0.1382
  143OSM   H13B15570   0.638   6.014   1.628  2.3129  0.0486  0.9608
  143OSM   H13C15571   0.584   6.141   1.744 -2.0801  1.0686 -0.8200
  143OSM    C1215572   0.425   6.268   1.579  0.4660  0.1893 -0.2051
  143OSM   H12A15573   0.336   6.266   1.517 -0.5939 -1.9904  1.2500
  143OSM   H12B15574   0.503   6.337   1.551  0.3514 -0.1476 -1.4443
  143OSM    C1115575   0.385   6.318   1.718  0.7594 -0.0065 -0.3584
  143OSM   H11A15576   0.292   6.260   1.740  0.4058 -0.5374 -2.9641
  143OSM   H11B15577   0.352   6.422   1.697 -2.3893 -1.1798 -1.9647
  143OSM      P15578   0.566   6.422   1.879  0.0749  0.0730  0.3860
  143OSM    O1315579   0.664   6.366   1.978 -0.3183  0.5005  0.0209
  143OSM    O1415580   0.622   6.516   1.779  0.0854  0.8366 -0.0019
  143OSM    O1115581   0.461   6.495   1.963  0.5330 -0.1254 -0.4946
  143OSM    O1215582   0.479   6.307   1.813 -0.5984  0.2979  0.0781
  143OSM    C1S15583   0.358   6.435   2.045 -0.6073 -0.6862  0.0300
  143OSM    H1S15584   0.351   6.327   2.020 -1.2876 -1.5204  3.3230
  143OSM    H1T15585   0.259   6.482   2.029 -0.1081  0.5818  0.5564
  143OSM     NF15586   0.302   6.345   2.268 -0.3790  0.4765 -0.2441
  143OSM    HNF15587   0.218   6.379   2.309 -0.8077  0.6855 -1.2444
  143OSM    C2S15588   0.396   6.431   2.198  0.2457 -0.4885  0.2304
  143OSM    H2S15589   0.502   6.396   2.198  0.1435 -0.9284 -1.9942
  143OSM    C3S15590   0.392   6.577   2.251 -0.7524 -0.1396  0.9264
  143OSM    H3S15591   0.293   6.624   2.239  0.7057  2.8173 -0.6603
  143OSM     O315592   0.455   6.679   2.165  0.4335  0.6609  0.3146
  143OSM    HO315593   0.482   6.627   2.089  2.3709 -0.6365  1.8030
  143OSM    C4S15594   0.435   6.595   2.395 -0.3337 -0.5283  0.1925
  143OSM    H4S15595   0.351   6.585   2.466  0.8679  2.7966  2.2980
  143OSM    C5S15596   0.557   6.613   2.435 -0.3724 -0.3129  0.6667
  143OSM    H5S15597   0.640   6.607   2.362  0.4187 -2.0621  1.6558
  143OSM    C6S15598   0.605   6.626   2.578  0.7831 -0.0378 -0.4701
  143OSM    H6S15599   0.653   6.726   2.581 -0.4907  0.6299 -1.4445
  143OSM    H6T15600   0.683   6.551   2.603  0.4678  0.3654  2.0650
  143OSM    C7S15601   0.495   6.626   2.699 -0.4447 -0.2541 -0.4231
  143OSM    H7S15602   0.453   6.523   2.699  2.7123 -1.7964  3.2612
  143OSM    H7T15603   0.414   6.701   2.690  0.2865  0.5336 -0.5412
  143OSM    C8S15604   0.568   6.638   2.833 -0.7979 -0.2764  0.0876
  143OSM    H8S15605   0.621   6.735   2.846 -1.3840 -0.3110  3.8056
  143OSM    H8T15606   0.656   6.570   2.831  0.0150  0.7406  0.4263
  143OSM    C9S15607   0.486   6.589   2.950  0.6638 -0.1026 -1.1232
  143OSM    H9S15608   0.470   6.479   2.947  0.2972 -0.1066  0.4231
  143OSM    H9T15609   0.392   6.644   2.928 -1.3302 -2.7538  0.1442
  143OSM   C10S15610   0.561   6.603   3.082 -0.0130  0.2161  0.0516
  143OSM   H10S15611   0.603   6.705   3.091 -1.7977  0.8976  1.1053
  143OSM   H10T15612   0.638   6.523   3.075 -1.2839 -1.1422  0.9470
  143OSM   C11S15613   0.478   6.581   3.210 -0.0326  0.0621 -0.0784
  143OSM   H11S15614   0.422   6.485   3.212 -1.1031  0.6727  0.9354
  143OSM   H11T15615   0.399   6.660   3.208 -2.3088 -2.0210  1.2140
  143OSM   C12S15616   0.569   6.580   3.332 -0.2725 -0.3476 -0.3294
  143OSM   H12S15617   0.638   6.667   3.326 -1.3407  0.5456 -0.0503
  143OSM   H12T15618   0.639   6.494   3.331  1.7948  1.2154  1.5529
  143OSM   C13S15619   0.493   6.588   3.468  0.4013 -0.2076  0.1988
  143OSM   H13S15620   0.435   6.495   3.482  0.2108 -0.0480  0.4815
  143OSM   H13T15621   0.426   6.677   3.463 -1.0953 -1.3589 -1.7967
  143OSM   C14S15622   0.573   6.595   3.604 -0.4643  0.6485  0.5265
  143OSM   H14S15623   0.636   6.687   3.595 -2.9102  2.3766  0.0648
  143OSM   H14T15624   0.640   6.507   3.611 -1.2772 -0.1738 -1.4085
  143OSM   C15S15625   0.484   6.598   3.728 -0.0546 -0.4061  0.4107
  143OSM   H15S15626   0.426   6.504   3.741 -0.9394  0.0488 -0.1800
  143OSM   H15T15627   0.403   6.672   3.714  0.4573  0.2525  0.8447
  143OSM   C16S15628   0.552   6.629   3.866  0.1451 -0.0113 -0.0372
  143OSM   H16S15629   0.482   6.651   3.949  0.1143 -0.7983  0.1435
  143OSM   H16T15630   0.618   6.718   3.851 -0.1095 -0.2116 -2.8657
  143OSM   C17S15631   0.635   6.515   3.919  0.3120 -0.6431  0.2542
  143OSM   H17S15632   0.707   6.478   3.843  0.8633  0.3775  0.2546
  143OSM   H17T15633   0.563   6.434   3.943  0.9083 -1.4139 -0.5055
  143OSM   C18S15634   0.700   6.531   4.053  0.2458  0.0041  0.5987
  143OSM   H18S15635   0.762   6.622   4.048 -3.4766  2.6948 -2.4612
  143OSM   H18T15636   0.757   6.437   4.071  0.5989 -0.3035 -1.8071
  143OSM   H18U15637   0.621   6.558   4.127  1.4638  2.9999  0.9346
  143OSM    C1F15638   0.302   6.210   2.272  0.6091  0.2342  0.7880
  143OSM     OF15639   0.384   6.151   2.201  0.5591  0.3527  0.7558
  143OSM    C2F15640   0.190   6.134   2.346  0.0718  0.2825  0.7511
  143OSM    H2F15641   0.170   6.046   2.282 -0.3629  1.9527 -1.5737
  143OSM    H2G15642   0.101   6.201   2.356 -1.5961 -1.5594 -0.9257
  143OSM    C3F15643   0.230   6.092   2.484 -0.5614  0.5359  0.5295
  143OSM    H3F15644   0.247   6.177   2.554  3.0173 -0.5787  1.2074
  143OSM    H3G15645   0.336   6.058   2.484 -0.4275  0.9219  1.4414
  143OSM    C4F15646   0.137   5.981   2.546 -0.5695 -0.1674 -0.6846
  143OSM    H4F15647   0.167   5.953   2.649  0.9075  0.2368 -0.9792
  143OSM    H4G15648   0.149   5.884   2.493 -2.1783 -1.9198  1.9481
  143OSM    C5F15649  -0.008   6.022   2.543  0.2054 -0.8190  0.8341
  143OSM    H5F15650  -0.048   6.046   2.442 -0.2993  2.0652  1.6322
  143OSM    H5G15651  -0.026   6.118   2.596  0.4649 -0.3264  0.0335
  143OSM    C6F15652  -0.111   5.920   2.604 -0.1923 -0.6107 -0.8135
  143OSM    H6F15653  -0.105   5.832   2.536 -0.3352 -0.4232 -1.0706
  143OSM    H6G15654  -0.213   5.964   2.602 -0.0376 -0.0263 -5.1175
  143OSM    C7F15655  -0.078   5.902   2.752 -0.1661  0.3778 -0.1109
  143OSM    H7F15656  -0.031   5.993   2.795  3.3006  0.4230 -3.3523
  143OSM    H7G15657   0.001   5.824   2.744  1.0287  1.7415 -3.8631
  143OSM    C8F15658  -0.183   5.833   2.843  0.3293  0.3589 -0.0658
  143OSM    H8F15659  -0.127   5.775   2.920  1.8613  0.2220 -1.2178
  143OSM    H8G15660  -0.234   5.755   2.782 -0.3487  1.1672 -0.5551
  143OSM    C9F15661  -0.275   5.937   2.902 -0.7589 -0.4201 -0.6829
  143OSM    H9F15662  -0.300   6.011   2.825 -0.9870 -0.1112 -0.3187
  143OSM   C10F15663  -0.319   5.941   3.027 -0.0624 -0.3190  0.7297
  143OSM   H10F15664  -0.399   6.013   3.049 -0.3325 -0.8364  1.4805
  143OSM   C11F15665  -0.282   5.856   3.142 -0.1622 -0.3325 -0.3040
  143OSM   H11F15666  -0.185   5.899   3.175 -0.0134 -0.7408 -0.2077
  143OSM   H11G15667  -0.264   5.751   3.112 -0.7123 -0.0186 -1.8077
  143OSM   C12F15668  -0.387   5.863   3.250 -0.5346 -0.2980  0.6515
  143OSM   H12F15669  -0.486   5.857   3.201 -0.0675  2.7943 -0.9226
  143OSM   H12G15670  -0.364   5.961   3.296  1.2537  0.3764 -1.5096
  143OSM   C13F15671  -0.383   5.750   3.355  0.5094  0.1455  0.1606
  143OSM   H13F15672  -0.372   5.657   3.294  1.2571 -0.5892  1.3835
  143OSM   H13G15673  -0.481   5.746   3.407  0.0465 -3.8957 -0.7020
  143OSM   C14F15674  -0.255   5.753   3.452  0.8649  0.5417  0.6917
  143OSM   H14F15675  -0.262   5.835   3.526 -0.6386 -0.3329  1.5738
  143OSM   H14G15676  -0.168   5.759   3.383  1.0333 -1.7274  0.6321
  143OSM   C15F15677  -0.262   5.626   3.540  0.9713 -0.1928 -0.4491
  143OSM   H15F15678  -0.164   5.626   3.593  0.0547 -1.5160  1.3528
  143OSM   H15G15679  -0.268   5.531   3.483  1.1202  1.1262 -2.7999
  143OSM   C16F15680  -0.374   5.634   3.644  0.7681 -0.3689 -0.4216
  143OSM   H16F15681  -0.473   5.629   3.595  0.7196 -1.8129 -0.2279
  143OSM   H16G15682  -0.378   5.736   3.687  0.0737  0.2574 -1.9104
  143OSM   C17F15683  -0.356   5.526   3.741  0.7519  0.1857 -0.4215
  143OSM   H17F15684  -0.281   5.550   3.820  1.3571 -0.0541 -0.9126
  143OSM   H17G15685  -0.317   5.436   3.688  0.7551 -1.3015  1.9429
  143OSM   C18F15686  -0.491   5.486   3.799 -0.3419 -0.0700 -0.3750
  143OSM   H18F15687  -0.490   5.422   3.889 -2.2474  2.4403  1.5664
  143OSM   H18G15688  -0.551   5.434   3.720 -1.3681  0.6642 -0.1004
  143OSM   H18H15689  -0.546   5.580   3.820  0.2453  0.2012 -0.0312
  144OSM      N15690   0.183   6.793   1.880 -0.3348  0.0467  0.0747
  144OSM    C1515691   0.164   6.778   2.028  0.4061  0.1538 -0.0836
  144OSM   H15A15692   0.143   6.672   2.033 -1.2148  0.4820  0.7660
  144OSM   H15B15693   0.073   6.832   2.051  0.0229 -0.3588 -0.3425
  144OSM   H15C15694   0.251   6.811   2.081  1.6263 -1.9978 -0.6185
  144OSM    C1415695   0.165   6.937   1.850 -0.4446 -0.7848  1.1119
  144OSM   H14A15696   0.237   6.988   1.912  0.5192 -1.9992  1.0309
  144OSM   H14B15697   0.067   6.981   1.863 -1.6759 -2.1785 -2.4175
  144OSM   H14C15698   0.182   6.952   1.744  0.6730 -0.9626  1.2453
  144OSM    C1315699   0.324   6.753   1.852  0.1076  0.0579 -0.6277
  144OSM   H13A15700   0.343   6.665   1.911 -1.2307  0.7499  0.9225
  144OSM   H13B15701   0.389   6.824   1.900  0.6840 -1.8944  1.6385
  144OSM   H13C15702   0.347   6.731   1.749  2.5396  0.1648 -0.1636
  144OSM    C1215703   0.087   6.711   1.794 -0.1811 -0.5484 -0.0635
  144OSM   H12A15704   0.116   6.722   1.691 -0.9724  1.1677 -0.1325
  144OSM   H12B15705  -0.013   6.748   1.804 -0.6044 -2.2059  3.3325
  144OSM    C1115706   0.079   6.562   1.829  0.0443 -0.0466 -0.0905
  144OSM   H11A15707   0.179   6.514   1.833  0.0762 -0.0499 -0.7139
  144OSM   H11B15708   0.039   6.502   1.744  1.0858  0.8087 -1.2265
  144OSM      P15709  -0.146   6.548   1.943  0.5098  0.0673  0.0759
  144OSM    O1315710  -0.190   6.661   1.857 -0.4331 -0.5682 -0.0804
  144OSM    O1415711  -0.189   6.415   1.896 -0.3180  0.3757 -0.4971
  144OSM    O1115712  -0.201   6.569   2.087 -0.6270  0.0307 -0.3619
  144OSM    O1215713   0.016   6.538   1.956 -0.2814 -0.5253 -0.1624
  144OSM    C1S15714  -0.152   6.498   2.199 -0.2416 -0.0968 -0.8348
  144OSM    H1S15715  -0.042   6.484   2.189  0.3885  3.3014  0.1067
  144OSM    H1T15716  -0.206   6.403   2.215  1.0475 -0.5923  0.8490
  144OSM     NF15717  -0.120   6.493   2.447  0.1493 -0.3356  0.0131
  144OSM    HNF15718  -0.173   6.428   2.503  0.5745 -0.7620 -0.0702
  144OSM    C2S15719  -0.176   6.573   2.335 -0.1362  0.0538  0.0312
  144OSM    H2S15720  -0.119   6.667   2.315  0.3084 -0.3909 -0.8372
  144OSM    C3S15721  -0.317   6.620   2.360  0.3104 -0.7197  0.0264
  144OSM    H3S15722  -0.383   6.533   2.380  1.4547 -1.0370  3.0049
  144OSM     O315723  -0.374   6.697   2.253 -0.1684  0.1941  0.7575
  144OSM    HO315724  -0.318   6.681   2.177 -0.3178 -0.9197  0.8709
  144OSM    C4S15725  -0.327   6.714   2.480  0.1705 -0.5769  0.8227
  144OSM    H4S15726  -0.279   6.813   2.474 -0.2774 -0.3954  0.1948
  144OSM    C5S15727  -0.418   6.696   2.577 -0.3811 -0.7772  0.5458
  144OSM    H5S15728  -0.483   6.608   2.567 -0.2329 -0.9866  1.3414
  144OSM    C6S15729  -0.454   6.786   2.689  0.1253  0.1698 -0.5671
  144OSM    H6S15730  -0.560   6.819   2.682  0.2993  0.3703 -3.7409
  144OSM    H6T15731  -0.395   6.880   2.680  1.1877 -0.3191  0.9562
  144OSM    C7S15732  -0.412   6.738   2.833  0.3727  0.2408 -0.4777
  144OSM    H7S15733  -0.302   6.727   2.841  0.3165 -1.0971 -1.2557
  144OSM    H7T15734  -0.451   6.634   2.845  3.4479 -0.7906  2.2093
  144OSM    C8S15735  -0.463   6.803   2.964  0.0210 -0.8728 -0.0561
  144OSM    H8S15736  -0.569   6.824   2.942  0.1394 -1.9749 -1.8119
  144OSM    H8T15737  -0.401   6.893   2.987  2.6565 -2.6915  0.3814
  144OSM    C9S15738  -0.448   6.711   3.080 -0.0945 -0.2085 -0.0596
  144OSM    H9S15739  -0.340   6.683   3.081 -0.1509 -0.5564  2.5176
  144OSM    H9T15740  -0.510   6.619   3.072  0.2723 -0.4348 -0.3132
  144OSM   C10S15741  -0.484   6.781   3.210 -0.4559 -0.5060 -0.4224
  144OSM   H10S15742  -0.593   6.804   3.220 -0.3002  0.4345 -0.7889
  144OSM   H10T15743  -0.421   6.873   3.218 -1.8602  0.4024  0.9093
  144OSM   C11S15744  -0.458   6.693   3.330  0.2982 -0.2059  0.0561
  144OSM   H11S15745  -0.353   6.658   3.318 -0.0168 -0.8797 -0.8206
  144OSM   H11T15746  -0.522   6.603   3.328 -1.0569  0.6837 -3.1500
  144OSM   C12S15747  -0.476   6.770   3.463  0.7172  0.0891  0.1869
  144OSM   H12S15748  -0.578   6.813   3.465  0.0739 -1.4090  0.5213
  144OSM   H12T15749  -0.404   6.854   3.452  1.1271 -0.2987 -0.1234
  144OSM   C13S15750  -0.464   6.685   3.589  0.1553 -0.3960  0.5057
  144OSM   H13S15751  -0.365   6.634   3.588 -0.3123 -1.3258 -0.3662
  144OSM   H13T15752  -0.543   6.608   3.597  0.9837 -1.2598  0.6149
  144OSM   C14S15753  -0.473   6.767   3.718 -0.1562 -0.1051 -0.1030
  144OSM   H14S15754  -0.556   6.839   3.704  1.2391  1.1673 -2.2769
  144OSM   H14T15755  -0.382   6.829   3.726  0.1194 -0.4514 -0.5134
  144OSM   C15S15756  -0.487   6.694   3.844 -0.2140  0.0559  0.1162
  144OSM   H15S15757  -0.395   6.634   3.859 -0.1147  0.2529  0.2982
  144OSM   H15T15758  -0.571   6.621   3.838  0.0185 -0.1998 -0.0809
  144OSM   C16S15759  -0.518   6.788   3.954  0.5568  0.0204 -0.2250
  144OSM   H16S15760  -0.621   6.824   3.933 -0.6260 -2.4922  0.8922
  144OSM   H16T15761  -0.459   6.882   3.954 -0.5282  0.7152 -0.0832
  144OSM   C17S15762  -0.514   6.714   4.091 -0.3030 -0.6436 -0.3740
  144OSM   H17S15763  -0.406   6.688   4.105 -0.1330  0.1997 -0.0706
  144OSM   H17T15764  -0.582   6.626   4.092 -2.8977  1.2521 -0.6528
  144OSM   C18S15765  -0.566   6.808   4.199 -0.0562 -0.1216 -0.3419
  144OSM   H18S15766  -0.593   6.748   4.288  1.4247 -0.6247 -0.1961
  144OSM   H18T15767  -0.658   6.866   4.175  0.1980 -0.2433 -1.6576
  144OSM   H18U15768  -0.486   6.876   4.236 -0.2138 -1.4459  2.6928
  144OSM    C1F15769   0.008   6.487   2.474 -0.1263 -0.1340 -0.0103
  144OSM     OF15770   0.088   6.542   2.403  0.0838  0.1526  0.2342
  144OSM    C2F15771   0.036   6.393   2.593  0.2410  0.9374  0.2155
  144OSM    H2F15772   0.129   6.342   2.560 -0.6191  0.2454 -1.2534
  144OSM    H2G15773  -0.048   6.321   2.604 -1.9437  2.9782 -1.7812
  144OSM    C3F15774   0.056   6.482   2.715 -0.2856  0.4018 -0.1455
  144OSM    H3F15775  -0.042   6.510   2.759  0.4079 -1.0315  2.5369
  144OSM    H3G15776   0.126   6.566   2.693  2.0574 -1.6932 -1.1333
  144OSM    C4F15777   0.137   6.405   2.818 -0.5342 -0.0161  0.7054
  144OSM    H4F15778   0.148   6.473   2.905  2.7942  0.0065  0.4062
  144OSM    H4G15779   0.239   6.383   2.781 -0.9616 -0.6211 -0.1432
  144OSM    C5F15780   0.068   6.278   2.870 -0.4518  0.2516 -0.5135
  144OSM    H5F15781   0.062   6.191   2.801  2.9629 -0.4975 -0.0381
  144OSM    H5G15782  -0.031   6.314   2.906 -0.1560  1.5646 -0.9693
  144OSM    C6F15783   0.157   6.226   2.994 -0.5943  0.4686  0.0234
  144OSM    H6F15784   0.215   6.314   3.027 -1.0954  0.9719 -0.4196
  144OSM    H6G15785   0.236   6.155   2.962 -1.6200 -1.5071  1.5648
  144OSM    C7F15786   0.085   6.170   3.122  0.1859  0.1677  0.1815
  144OSM    H7F15787   0.044   6.075   3.083 -1.0153  0.4988  0.5956
  144OSM    H7G15788   0.001   6.240   3.141  0.8023  2.0111 -3.0686
  144OSM    C8F15789   0.157   6.142   3.258  0.4525 -0.1979 -0.3043
  144OSM    H8F15790   0.238   6.067   3.248  1.0469 -0.0152  2.5094
  144OSM    H8G15791   0.084   6.099   3.329 -0.2803  2.2016  0.5085
  144OSM    C9F15792   0.207   6.277   3.305  0.1652 -0.7264 -0.5569
  144OSM    H9F15793   0.253   6.331   3.221  1.1126 -1.7582 -0.7327
  144OSM   C10F15794   0.193   6.339   3.428 -0.2666  0.0305  0.2288
  144OSM   H10F15795   0.226   6.442   3.445  1.1635 -0.5949  1.4693
  144OSM   C11F15796   0.121   6.286   3.548 -0.7350 -0.0458  0.5542
  144OSM   H11F15797   0.083   6.182   3.546  1.1877 -0.7957  0.5287
  144OSM   H11G15798   0.031   6.347   3.572 -0.0460  1.8198 -1.3149
  144OSM   C12F15799   0.221   6.286   3.676 -0.7536 -0.4106  0.2426
  144OSM   H12F15800   0.282   6.379   3.675 -2.0030  0.4723 -2.1775
  144OSM   H12G15801   0.300   6.210   3.664 -1.1138 -0.7325 -0.1298
  144OSM   C13F15802   0.153   6.278   3.817 -0.5913  0.0357  0.6613
  144OSM   H13F15803   0.111   6.176   3.831  3.2621 -1.8226 -0.1393
  144OSM   H13G15804   0.073   6.355   3.805  1.1823  1.6910 -1.5027
  144OSM   C14F15805   0.245   6.305   3.935 -0.3368  0.0041  0.0384
  144OSM   H14F15806   0.240   6.413   3.961 -0.5408 -0.1089  0.4680
  144OSM   H14G15807   0.343   6.287   3.885 -1.0847  0.6648 -1.7550
  144OSM   C15F15808   0.215   6.227   4.057  0.2878 -0.0846 -0.4587
  144OSM   H15F15809   0.205   6.118   4.038 -0.0221 -0.3989  1.3255
  144OSM   H15G15810   0.118   6.263   4.098  0.6437  1.3230 -0.7856
  144OSM   C16F15811   0.321   6.246   4.174 -0.9708 -0.3732  0.1976
  144OSM   H16F15812   0.424   6.252   4.133 -0.8112 -1.5768  0.4130
  144OSM   H16G15813   0.310   6.168   4.252  1.4554 -0.6603  0.3099
  144OSM   C17F15814   0.309   6.375   4.247  0.3675 -0.3786  0.3039
  144OSM   H17F15815   0.287   6.458   4.176  0.3889 -0.2506  0.4472
  144OSM   H17G15816   0.408   6.393   4.294  0.6135 -0.7780 -0.0481
  144OSM   C18F15817   0.190   6.380   4.337 -0.4479 -0.5741 -1.6426
  144OSM   H18F15818   0.097   6.348   4.286 -1.1452 -1.1430 -0.0805
  144OSM   H18G15819   0.176   6.483   4.376 -1.8852 -1.1296 -0.5779
  144OSM   H18H15820   0.214   6.324   4.430  0.5831 -0.3479 -1.7655
  145SAPE     N15821   2.087   0.917   6.002  0.2825 -0.0865  0.2687
  145SAPE   HN115822   1.988   0.945   5.988 -0.5430 -2.6265  0.5437
  145SAPE   HN215823   2.097   0.827   5.951  1.3025  0.8007 -1.1862
  145SAPE   HN315824   2.094   0.914   6.105 -0.9962  3.0082  0.5495
  145SAPE   C1215825   2.191   1.020   5.957  0.0195  0.5944 -0.1349
  145SAPE  H12A15826   2.162   1.117   6.003 -4.3657 -0.0081 -1.1268
  145SAPE  H12B15827   2.195   1.033   5.847  1.3262  0.1508 -0.1561
  145SAPE   C1115828   2.323   0.986   6.030  0.0680  0.4058  0.2742
  145SAPE  H11A15829   2.409   1.047   5.995 -1.1361  0.6788 -2.4463
  145SAPE  H11B15830   2.347   0.879   6.010  1.5533  1.1943 -2.8166
  145SAPE     P15831   2.429   1.015   6.271 -0.2035  0.2342 -0.0589
  145SAPE   O1315832   2.413   1.119   6.373 -0.2651  0.3682 -0.2084
  145SAPE   O1415833   2.462   0.880   6.319  0.0170  0.2721 -0.0083
  145SAPE   O1215834   2.303   1.005   6.170 -0.2109  0.8605 -0.4706
  145SAPE   O1115835   2.549   1.051   6.172  0.2797 -0.4285 -0.5881
  145SAPE    C115836   2.589   1.183   6.141 -0.0867  0.2717  0.9488
  145SAPE    HA15837   2.511   1.261   6.156 -0.8128 -0.3698  0.5601
  145SAPE    HB15838   2.671   1.221   6.206  0.6974  1.5053 -0.6777
  145SAPE    C215839   2.644   1.198   5.996  0.0058  0.5260 -0.0698
  145SAPE    HS15840   2.550   1.201   5.936 -0.2127  2.2457  0.3082
  145SAPE   O2115841   2.729   1.084   5.971  0.4863  0.3308  0.4414
  145SAPE   C2115842   2.708   1.019   5.865 -0.8670 -0.8840  0.5720
  145SAPE   O2215843   2.628   1.037   5.774 -0.0798  0.3255 -0.3784
  145SAPE   C2215844   2.802   0.897   5.858 -0.0316  0.5724 -0.3415
  145SAPE   H2R15845   2.886   0.905   5.931 -1.2438 -1.0971  1.3395
  145SAPE   H2S15846   2.743   0.807   5.888 -0.6909  0.9150 -0.5869
  145SAPE    C315847   2.720   1.328   5.965  0.0394 -0.3739 -0.3493
  145SAPE    HX15848   2.809   1.335   6.030 -0.2984  0.5351  0.0252
  145SAPE    HY15849   2.644   1.405   5.989 -0.2634 -1.5386  2.8441
  145SAPE   O3115850   2.755   1.335   5.827 -0.2926 -0.2133 -0.5290
  145SAPE   C3115851   2.663   1.381   5.747 -1.0106 -0.1443  0.0694
  145SAPE   O3215852   2.556   1.438   5.773 -0.2134  0.2849 -0.0802
  145SAPE   C3215853   2.707   1.342   5.602  0.4668 -0.2427 -0.1210
  145SAPE   H2X15854   2.689   1.233   5.595 -2.1518  0.2016 -1.3592
  145SAPE   H2Y15855   2.818   1.357   5.600  0.3446  1.1997  1.3521
  145SAPE   C2315856   2.856   0.871   5.710 -0.6177 -0.6780  0.1071
  145SAPE   H3R15857   2.773   0.866   5.636  1.0642 -1.6778 -1.8169
  145SAPE   H3S15858   2.901   0.769   5.711  1.3792  0.1812  0.1965
  145SAPE   C2415859   2.952   0.984   5.667 -0.9680  0.1083  0.2831
  145SAPE   H4R15860   3.025   0.984   5.751  1.3549 -1.6928 -1.6051
  145SAPE   H4S15861   2.897   1.081   5.662 -0.3961  0.4365  0.2487
  145SAPE   C2515862   3.027   0.943   5.546 -0.2540  0.1114  0.9819
  145SAPE   H5R15863   3.072   0.843   5.553 -0.0358  0.1871  0.6774
  145SAPE   C2615864   3.033   1.002   5.419 -0.3492 -0.3125 -0.2878
  145SAPE   H6R15865   3.106   0.951   5.353  0.2792  0.2587 -0.0446
  145SAPE   C2715866   2.964   1.128   5.378 -0.7780 -0.4857 -0.0322
  145SAPE   H7R15867   2.934   1.182   5.470  1.2281 -1.1705  1.0939
  145SAPE   H7S15868   2.865   1.116   5.329 -0.9899 -1.7842  0.6569
  145SAPE   C2815869   3.054   1.224   5.294  0.1100 -0.1203 -0.1898
  145SAPE   H8R15870   3.085   1.309   5.357  1.5612 -0.1818 -0.7802
  145SAPE   C2915871   3.100   1.218   5.171 -0.9322  0.2704  0.0763
  145SAPE   H9R15872   3.150   1.306   5.129 -0.0161 -0.4321 -0.3327
  145SAPE  C21015873   3.065   1.107   5.075  0.1583 -0.6907  0.4089
  145SAPE  H10R15874   3.021   1.146   4.981  2.6020 -1.5645 -1.1983
  145SAPE  H10S15875   2.988   1.038   5.116 -1.9414 -0.0393 -2.1570
  145SAPE  C21115876   3.187   1.034   5.044 -0.3125 -0.3224 -0.3111
  145SAPE  H11R15877   3.252   1.008   5.129  1.0344  0.1049 -1.1680
  145SAPE  C21215878   3.225   0.983   4.924  0.2378  0.2611  0.0461
  145SAPE  H12R15879   3.319   0.926   4.917 -1.9851 -3.8652  0.6061
  145SAPE  C21315880   3.146   0.997   4.793 -0.1866 -0.2595  0.7383
  145SAPE  H13R15881   3.220   0.986   4.711 -0.8860 -1.3274  0.2179
  145SAPE  H13S15882   3.108   1.101   4.794  0.1506 -0.1425  1.6141
  145SAPE  C21415883   3.027   0.908   4.788 -0.1416 -0.7666  0.6723
  145SAPE  H14R15884   2.960   0.932   4.872 -0.8205  2.7302 -0.6947
  145SAPE  C21515885   2.998   0.820   4.690 -0.7674 -0.1111  0.3148
  145SAPE  H15R15886   2.911   0.752   4.697  0.1158 -1.4982 -1.2978
  145SAPE  C21615887   3.069   0.794   4.559 -0.0895  0.5950 -0.2563
  145SAPE  H16R15888   3.145   0.872   4.536  1.1221 -0.1576  1.0372
  145SAPE  H16S15889   2.987   0.784   4.485  0.6539  0.3845 -1.0675
  145SAPE  C21715890   3.145   0.664   4.567 -0.8683  1.0290  0.3969
  145SAPE  H17R15891   3.074   0.582   4.593 -0.1751  0.1524 -0.4061
  145SAPE  H17S15892   3.208   0.672   4.658 -1.8077  0.2222  1.1447
  145SAPE  C21815893   3.226   0.620   4.443 -0.0874  0.2615 -0.5150
  145SAPE  H18R15894   3.251   0.513   4.452 -0.9359  0.2621  2.9474
  145SAPE  H18S15895   3.321   0.678   4.449 -1.2740  2.2097  0.5593
  145SAPE  C21915896   3.148   0.621   4.309 -0.6598 -0.0734  0.3399
  145SAPE  H19R15897   3.142   0.725   4.272  0.0441 -0.8440 -2.1333
  145SAPE  H19S15898   3.046   0.578   4.323  0.0033 -1.6950  0.4491
  145SAPE  C22015899   3.211   0.540   4.204  0.4854  0.1304 -0.2309
  145SAPE  H20R15900   3.253   0.450   4.254  1.5370  2.2460  3.0281
  145SAPE  H20S15901   3.303   0.596   4.175 -0.1050  1.3446  0.1758
  145SAPE  H20T15902   3.154   0.513   4.113  0.8656 -3.4490  0.4393
  145SAPE   C3315903   2.648   1.419   5.491  0.0823 -0.2469  0.1448
  145SAPE   H3X15904   2.684   1.523   5.476  1.1815 -0.6389  0.0001
  145SAPE   H3Y15905   2.540   1.432   5.515 -0.3077 -1.8798 -0.5761
  145SAPE   C3415906   2.660   1.345   5.359  0.4482  0.4889 -0.3933
  145SAPE   H4X15907   2.581   1.268   5.365  0.8760 -0.0431 -1.2614
  145SAPE   H4Y15908   2.759   1.302   5.328  0.6277  1.4528 -1.2174
  145SAPE   C3515909   2.621   1.427   5.241  0.4938  0.0874 -0.1307
  145SAPE   H5X15910   2.698   1.505   5.227 -0.8951  2.0828  2.4635
  145SAPE   H5Y15911   2.529   1.482   5.271  0.1877 -0.5641  0.1539
  145SAPE   C3615912   2.601   1.343   5.114 -0.0208 -0.4604 -0.1207
  145SAPE   H6X15913   2.590   1.411   5.027 -0.6409 -0.5058 -0.0860
  145SAPE   H6Y15914   2.520   1.268   5.129  1.3973 -1.8562  0.8907
  145SAPE   C3715915   2.727   1.255   5.074  0.2265 -0.0225 -0.3306
  145SAPE   H7X15916   2.721   1.169   5.143 -1.6853 -1.8552 -2.6172
  145SAPE   H7Y15917   2.821   1.315   5.080 -1.0236  2.2239 -1.6277
  145SAPE   C3815918   2.722   1.196   4.932  0.1962 -0.2298  0.3998
  145SAPE   H8X15919   2.620   1.158   4.911 -0.2060  0.4881  1.0046
  145SAPE   H8Y15920   2.795   1.112   4.925  0.0080 -0.2643 -2.2949
  145SAPE   C3915921   2.764   1.298   4.825 -0.4173  0.5573  0.0666
  145SAPE   H9X15922   2.866   1.331   4.852  0.5952 -0.8866 -1.7293
  145SAPE   H9Y15923   2.695   1.385   4.831  1.0152  1.6298  2.4951
  145SAPE  C31015924   2.763   1.245   4.683 -0.1521  0.1264  0.5988
  145SAPE  H10X15925   2.849   1.174   4.676 -0.0661  0.1107  1.6859
  145SAPE  H10Y15926   2.794   1.321   4.608  0.7148  0.8464  1.6481
  145SAPE  C31115927   2.636   1.159   4.641  0.6475  0.5021 -0.0155
  145SAPE  H11X15928   2.542   1.203   4.681  1.6968  1.2335  1.7584
  145SAPE  H11Y15929   2.645   1.056   4.680  0.4427 -0.3606 -2.1028
  145SAPE  C31215930   2.625   1.147   4.487  0.0913  0.2337  0.1884
  145SAPE  H12X15931   2.548   1.073   4.457 -0.9995  2.2057 -2.1535
  145SAPE  H12Y15932   2.723   1.111   4.450  0.1733  1.0544 -0.4204
  145SAPE  C31315933   2.581   1.278   4.415  0.2104 -0.0622 -0.2078
  145SAPE  H13X15934   2.636   1.368   4.451 -3.1392  1.9269  0.3694
  145SAPE  H13Y15935   2.479   1.299   4.453 -0.2996 -1.4090 -0.7733
  145SAPE  C31415936   2.585   1.263   4.261 -0.3960  0.0842 -0.5801
  145SAPE  H14X15937   2.549   1.162   4.235 -1.6379  0.4499 -0.3637
  145SAPE  H14Y15938   2.692   1.267   4.234 -0.4279 -1.8956 -1.1387
  145SAPE  C31515939   2.513   1.381   4.197 -0.5145 -0.0487  0.8081
  145SAPE  H15X15940   2.536   1.389   4.088 -3.8011 -0.1117  0.0007
  145SAPE  H15Y15941   2.527   1.477   4.251 -1.6230 -0.8241  2.5672
  145SAPE  C31615942   2.358   1.353   4.199 -0.4921 -0.2771  0.8935
  145SAPE  H16X15943   2.324   1.332   4.303  0.3467 -0.1363  1.2065
  145SAPE  H16Y15944   2.341   1.257   4.146  1.9796 -0.0908 -0.3446
  145SAPE  C31715945   2.275   1.460   4.138  0.1254  0.0473  0.3844
  145SAPE  H17X15946   2.304   1.472   4.031  1.8653 -0.6262  0.7576
  145SAPE  H17Y15947   2.291   1.554   4.195 -3.1040  0.6367  0.5537
  145SAPE  C31815948   2.130   1.429   4.156 -0.4473 -0.1967  0.1138
  145SAPE  H18X15949   2.112   1.321   4.138  0.1937 -0.2906  0.0114
  145SAPE  H18Y15950   2.061   1.495   4.098 -0.7641  1.6403  2.4093
  145SAPE  H18Z15951   2.089   1.443   4.259  0.3995 -0.0617  0.4423
  146SAPE     N15952   4.149   6.685   6.842 -0.1408 -0.3508  0.0822
  146SAPE   HN115953   4.150   6.703   6.944  0.2685 -1.2357  0.2474
  146SAPE   HN215954   4.109   6.763   6.787 -0.0176 -1.1066 -1.1195
  146SAPE   HN315955   4.080   6.608   6.829  0.2975 -0.6986 -0.2380
  146SAPE   C1215956   4.285   6.651   6.785 -0.3066 -0.3017 -0.3059
  146SAPE  H12A15957   4.344   6.630   6.877 -1.3316  3.0151  1.2765
  146SAPE  H12B15958   4.311   6.752   6.745  0.4693  0.9757  3.0655
  146SAPE   C1115959   4.286   6.543   6.678 -0.1042 -0.4414 -0.1508
  146SAPE  H11A15960   4.389   6.547   6.637  0.7616  4.4174  1.8853
  146SAPE  H11B15961   4.211   6.563   6.599  0.0974  1.6476  0.1290
  146SAPE     P15962   4.133   6.335   6.724  0.0067 -0.3948 -0.0975
  146SAPE   O1315963   4.147   6.201   6.773 -0.5193 -0.2981  0.4645
  146SAPE   O1415964   4.013   6.415   6.774 -0.3541  0.1538 -0.6118
  146SAPE   O1215965   4.270   6.418   6.752 -0.3826 -0.1043 -0.0400
  146SAPE   O1115966   4.123   6.334   6.570  0.0108 -0.0101  0.1922
  146SAPE    C115967   4.202   6.248   6.486 -0.8886  0.3487 -0.1068
  146SAPE    HA15968   4.298   6.301   6.474 -1.2587  1.0363 -0.0983
  146SAPE    HB15969   4.227   6.147   6.524 -1.1146  0.5709  0.6543
  146SAPE    C215970   4.154   6.234   6.340 -0.0551 -0.2600 -0.5081
  146SAPE    HS15971   4.244   6.241   6.276  0.5662 -2.5379  0.0456
  146SAPE   O2115972   4.053   6.330   6.318 -0.4931 -0.2131 -0.0776
  146SAPE   C2115973   4.100   6.461   6.303  0.3829 -0.2711  0.2276
  146SAPE   O2215974   4.215   6.491   6.300 -0.7696 -1.4466 -0.0680
  146SAPE   C2215975   3.969   6.543   6.311 -0.0819 -0.1812  0.0119
  146SAPE   H2R15976   3.899   6.500   6.236  0.5012  2.0783 -1.9742
  146SAPE   H2S15977   3.919   6.529   6.409 -1.2242 -1.1513 -0.6773
  146SAPE    C315978   4.088   6.100   6.310 -0.1597 -0.6963  0.7420
  146SAPE    HX15979   4.008   6.093   6.388  0.7839 -0.6948  1.7393
  146SAPE    HY15980   4.158   6.019   6.337  1.3211  0.5788  0.8753
  146SAPE   O3115981   4.036   6.080   6.176  0.4245  0.0467  0.1797
  146SAPE   C3115982   3.955   5.974   6.164 -0.7942 -0.3742  0.2923
  146SAPE   O3215983   3.946   5.887   6.253 -0.3908  0.4342  0.3018
  146SAPE   C3215984   3.870   5.977   6.040 -0.6122 -0.4718 -0.3910
  146SAPE   H2X15985   3.932   6.003   5.952 -1.8589  4.1746 -0.1674
  146SAPE   H2Y15986   3.808   6.070   6.040 -3.1739 -2.0874  0.1047
  146SAPE   C2315987   3.989   6.696   6.282  0.2541  0.2161 -0.0156
  146SAPE   H3R15988   4.055   6.741   6.359 -1.8405 -1.4167  2.9800
  146SAPE   H3S15989   3.892   6.749   6.290  0.1310  0.0489 -0.3809
  146SAPE   C2415990   4.063   6.717   6.151  0.2170  0.2867 -0.1583
  146SAPE   H4R15991   4.157   6.660   6.135  1.1853  1.8517 -0.2001
  146SAPE   H4S15992   4.107   6.817   6.128  0.0530  0.3734 -0.0978
  146SAPE   C2515993   3.968   6.699   6.035  0.7927 -0.0174  0.1102
  146SAPE   H5R15994   3.956   6.595   6.002 -0.8183  0.2593 -0.2262
  146SAPE   C2615995   3.923   6.800   5.958 -0.6932  0.6855 -0.3407
  146SAPE   H6R15996   3.867   6.786   5.865  1.2128  2.7001 -1.9063
  146SAPE   C2715997   3.937   6.953   5.989 -0.0191 -0.1542  0.1123
  146SAPE   H7R15998   4.030   6.989   5.940 -0.0125  2.1380  1.6735
  146SAPE   H7S15999   3.952   6.968   6.098  1.0774  0.3873 -0.0963
  146SAPE   C2816000   3.812   7.019   5.940  0.4885  0.3461  0.0497
  146SAPE   H8R16001   3.733   7.032   6.015 -0.5329 -0.2489 -0.8962
  146SAPE   C2916002   3.778   7.066   5.817  0.4128  0.1316  0.2860
  146SAPE   H9R16003   3.677   7.104   5.799  1.1244  1.9554 -0.1554
  146SAPE  C21016004   3.876   7.047   5.698  0.1891  0.2655 -0.3301
  146SAPE  H10R16005   3.968   6.994   5.729 -0.0196 -0.3867 -0.7963
  146SAPE  H10S16006   3.910   7.149   5.671 -1.7969  0.5245 -2.1793
  146SAPE  C21116007   3.826   6.984   5.569 -0.2939  1.0319 -0.7033
  146SAPE  H11R16008   3.747   7.047   5.526 -2.5874 -2.8217 -2.6355
  146SAPE  C21216009   3.861   6.868   5.507  0.3881 -0.7223 -0.4605
  146SAPE  H12R16010   3.807   6.833   5.418  0.3453  4.2525 -2.7338
  146SAPE  C21316011   3.969   6.776   5.547 -0.0959  0.2731 -0.1276
  146SAPE  H13R16012   3.917   6.677   5.548 -1.7880  1.1040 -1.2166
  146SAPE  H13S16013   3.992   6.782   5.655 -1.0507  0.3257  0.0813
  146SAPE  C21416014   4.090   6.786   5.459 -0.0688 -0.2135 -0.0344
  146SAPE  H14R16015   4.144   6.879   5.481 -0.4279 -0.4353  1.9269
  146SAPE  C21516016   4.136   6.702   5.357 -0.5613  0.0244 -0.3856
  146SAPE  H15R16017   4.224   6.738   5.303  0.1455  1.6757  1.7757
  146SAPE  C21616018   4.072   6.564   5.318  0.2531 -1.0244  0.0127
  146SAPE  H16R16019   4.021   6.507   5.399 -1.1739  1.4797  0.9734
  146SAPE  H16S16020   4.159   6.503   5.285  2.4390  2.5258 -1.3924
  146SAPE  C21716021   3.986   6.564   5.191 -0.3820  0.2215 -0.0591
  146SAPE  H17R16022   4.040   6.621   5.112  1.9270 -0.0965  1.2070
  146SAPE  H17S16023   3.898   6.628   5.211 -1.5375 -1.7176  1.3681
  146SAPE  C21816024   3.932   6.435   5.136 -0.6702 -0.1912 -0.7817
  146SAPE  H18R16025   3.867   6.383   5.210  1.0264 -0.1326  0.8468
  146SAPE  H18S16026   4.017   6.376   5.097 -0.3204  0.1110 -0.4874
  146SAPE  C21916027   3.859   6.478   5.015 -0.4417 -0.2267 -0.0299
  146SAPE  H19R16028   3.926   6.529   4.943 -1.4673  0.8656 -0.2434
  146SAPE  H19S16029   3.786   6.557   5.044 -1.0834 -1.5016  2.1256
  146SAPE  C22016030   3.776   6.374   4.935  0.9500  0.1539  0.4431
  146SAPE  H20R16031   3.684   6.415   4.889  0.6496  0.0492  0.9395
  146SAPE  H20S16032   3.746   6.301   5.013 -1.0653  1.6518  1.1526
  146SAPE  H20T16033   3.831   6.328   4.850 -0.2068  0.6554 -0.5962
  146SAPE   C3316034   3.800   5.851   5.997  0.5107 -0.4227 -0.1348
  146SAPE   H3X16035   3.757   5.791   6.080  0.9049 -1.4232 -0.6344
  146SAPE   H3Y16036   3.873   5.779   5.954 -0.7306 -2.0404  0.3746
  146SAPE   C3416037   3.686   5.885   5.904  0.2775 -0.2963 -0.0326
  146SAPE   H4X16038   3.633   5.978   5.933  0.9734 -0.8075  3.3104
  146SAPE   H4Y16039   3.613   5.803   5.919  1.2816 -1.0200  1.0253
  146SAPE   C3516040   3.743   5.903   5.757 -0.2646 -0.5460 -0.1669
  146SAPE   H5X16041   3.808   5.818   5.727 -0.2146 -0.2178 -1.0310
  146SAPE   H5Y16042   3.808   5.992   5.746 -0.9143 -0.0605 -0.1207
  146SAPE   C3616043   3.626   5.920   5.650  0.0620 -0.2303  0.3232
  146SAPE   H6X16044   3.565   6.011   5.672 -0.7031 -1.1578  2.2734
  146SAPE   H6Y16045   3.552   5.839   5.634  0.3112 -0.2382 -0.8681
  146SAPE   C3716046   3.684   5.942   5.504 -0.5127 -0.1075  0.3750
  146SAPE   H7X16047   3.766   5.869   5.482  0.7520  1.2864  0.3178
  146SAPE   H7Y16048   3.739   6.038   5.507  2.5295 -1.5987 -1.6739
  146SAPE   C3816049   3.583   5.942   5.395  0.1138 -0.5635  0.6101
  146SAPE   H8X16050   3.507   6.021   5.413 -0.6869 -0.8099 -1.4647
  146SAPE   H8Y16051   3.522   5.850   5.386  1.3794 -1.2159 -2.8796
  146SAPE   C3916052   3.657   5.959   5.257 -0.1381 -0.6297 -0.4352
  146SAPE   H9X16053   3.752   5.903   5.271 -0.5735 -1.6801 -1.4558
  146SAPE   H9Y16054   3.689   6.065   5.247  0.1727 -0.8009 -1.3399
  146SAPE  C31016055   3.563   5.910   5.141  0.8986  0.4529 -0.5129
  146SAPE  H10X16056   3.462   5.955   5.148  1.1179  0.8080  0.5976
  146SAPE  H10Y16057   3.549   5.800   5.148 -0.8935  0.7025  0.2150
  146SAPE  C31116058   3.631   5.937   5.006 -0.1316 -0.8454  0.5624
  146SAPE  H11X16059   3.737   5.906   5.021 -0.1207 -0.4138  1.4847
  146SAPE  H11Y16060   3.636   6.047   4.989  0.2397 -0.4544  2.8526
  146SAPE  C31216061   3.558   5.871   4.887  0.0603 -0.3312  0.6381
  146SAPE  H12X16062   3.458   5.920   4.878  0.6627  0.8507  0.0938
  146SAPE  H12Y16063   3.548   5.762   4.901 -1.0674 -0.2553  0.5479
  146SAPE  C31316064   3.642   5.897   4.761  0.0654  0.5677  0.2512
  146SAPE  H13X16065   3.750   5.872   4.758  0.0764  0.5204  0.9264
  146SAPE  H13Y16066   3.610   5.999   4.728 -0.8773 -0.3537 -1.8583
  146SAPE  C31416067   3.594   5.808   4.638 -0.3715 -0.5578  0.3282
  146SAPE  H14X16068   3.483   5.813   4.627 -0.3937 -0.0286  0.7472
  146SAPE  H14Y16069   3.627   5.702   4.651 -0.7450 -0.6014  0.9819
  146SAPE  C31516070   3.658   5.851   4.507 -0.3360  0.0983 -1.0298
  146SAPE  H15X16071   3.763   5.884   4.522 -0.4307 -0.6549  1.8952
  146SAPE  H15Y16072   3.604   5.937   4.461 -2.9684 -1.5608 -1.2284
  146SAPE  C31616073   3.659   5.738   4.407  0.0729  0.7050 -0.2243
  146SAPE  H16X16074   3.711   5.651   4.452  1.5039  0.0208 -3.0048
  146SAPE  H16Y16075   3.724   5.764   4.322  0.8580  0.5701  0.3248
  146SAPE  C31716076   3.517   5.690   4.368 -0.7102  0.1872 -0.5430
  146SAPE  H17X16077   3.459   5.775   4.324 -1.1158  0.7010  0.9137
  146SAPE  H17Y16078   3.467   5.656   4.461  1.7983  1.3138  1.3281
  146SAPE  C31816079   3.530   5.573   4.267 -0.0402 -0.1244 -0.4072
  146SAPE  H18X16080   3.428   5.530   4.257  0.5564 -1.4272 -1.1448
  146SAPE  H18Y16081   3.595   5.490   4.303  1.5771  0.2603 -2.2357
  146SAPE  H18Z16082   3.567   5.604   4.167 -1.3764  1.7512 -0.3779
  147SAPE     N16083   6.496   4.019   6.427 -0.1129  0.1942  0.0358
  147SAPE   HN116084   6.404   3.999   6.471  0.5403 -0.6736  1.0707
  147SAPE   HN216085   6.570   3.963   6.475 -0.8989 -0.2197  0.8019
  147SAPE   HN316086   6.514   4.121   6.429  2.8867 -0.2277  2.7404
  147SAPE   C1216087   6.495   3.950   6.292 -0.2682  0.4578 -0.1056
  147SAPE  H12A16088   6.401   3.983   6.243 -0.5250  1.4826  1.0426
  147SAPE  H12B16089   6.487   3.841   6.316 -1.0108  0.6032  0.3142
  147SAPE   C1116090   6.618   3.994   6.206  0.0335  0.6166 -0.0092
  147SAPE  H11A16091   6.602   4.103   6.187 -1.6604  0.7349  1.7964
  147SAPE  H11B16092   6.614   3.939   6.110 -0.8486  1.4195 -0.4510
  147SAPE     P16093   6.855   4.062   6.288  0.1847 -0.4376  0.1063
  147SAPE   O1316094   6.820   4.149   6.404 -0.7739  0.5235  0.1324
  147SAPE   O1416095   6.985   3.994   6.290  0.5582  0.3924  0.3046
  147SAPE   O1216096   6.739   3.956   6.274  0.3574 -0.1560  0.0668
  147SAPE   O1116097   6.847   4.150   6.161  0.1037  0.1099  0.0651
  147SAPE    C116098   6.910   4.110   6.037 -0.1325  0.3681  0.3366
  147SAPE    HA16099   6.942   4.004   6.039 -0.0926  0.2595 -2.6365
  147SAPE    HB16100   6.837   4.111   5.954 -1.7182 -1.7267  1.6006
  147SAPE    C216101   7.035   4.198   5.998  0.3239  0.4800 -0.1403
  147SAPE    HS16102   7.076   4.225   6.098 -2.4680 -0.9898  1.4987
  147SAPE   O2116103   6.981   4.317   5.935 -0.7409  0.1383  0.2512
  147SAPE   C2116104   7.054   4.414   5.902 -0.1296 -0.1148  0.3208
  147SAPE   O2216105   7.171   4.428   5.934  0.0567  0.0404  0.4433
  147SAPE   C2216106   6.971   4.518   5.836 -0.0773 -0.4830  0.1366
  147SAPE   H2R16107   6.878   4.536   5.894  0.0478  0.8085 -0.0404
  147SAPE   H2S16108   7.026   4.614   5.831 -0.1256 -0.4844 -0.5985
  147SAPE    C316109   7.138   4.125   5.909  0.1965  0.5624 -0.8454
  147SAPE    HX16110   7.183   4.050   5.976  0.4394 -0.3179 -1.9641
  147SAPE    HY16111   7.224   4.186   5.874 -0.5289  1.0961 -1.7616
  147SAPE   O3116112   7.073   4.048   5.803  0.5776 -0.2074  0.1320
  147SAPE   C3116113   7.040   4.120   5.696  0.0079  0.1001  0.0448
  147SAPE   O3216114   7.083   4.230   5.670 -0.1751 -0.0313  0.1460
  147SAPE   C3216115   6.943   4.050   5.609 -0.1955 -0.0831 -0.1954
  147SAPE   H2X16116   6.849   4.028   5.663  1.3017 -1.4679  1.9933
  147SAPE   H2Y16117   6.986   3.951   5.581 -0.9321 -0.0597 -1.5122
  147SAPE   C2316118   6.932   4.483   5.697  0.2693  1.3616  0.6389
  147SAPE   H3R16119   6.884   4.382   5.698 -1.3300  2.0891  0.8579
  147SAPE   H3S16120   7.014   4.477   5.622  0.3086  1.6659  0.6576
  147SAPE   C2416121   6.822   4.569   5.641 -0.5114  0.2795 -0.6878
  147SAPE   H4R16122   6.724   4.560   5.694 -1.8396 -0.1213 -3.0445
  147SAPE   H4S16123   6.808   4.545   5.534  0.0546  3.2806 -1.5222
  147SAPE   C2516124   6.861   4.709   5.649 -0.7693 -0.6023 -0.3271
  147SAPE   H5R16125   6.854   4.759   5.746 -0.5919  1.0973 -1.1505
  147SAPE   C2616126   6.910   4.782   5.546  0.0345 -0.1881  0.2171
  147SAPE   H6R16127   6.940   4.884   5.573 -1.2460 -0.2553  2.1017
  147SAPE   C2716128   6.941   4.736   5.403 -0.1137 -0.7836  0.2030
  147SAPE   H7R16129   6.853   4.733   5.335 -0.4930  0.6724  0.6005
  147SAPE   H7S16130   6.967   4.628   5.405  0.6462 -0.6087  0.0065
  147SAPE   C2816131   7.051   4.812   5.335 -0.3494 -0.7081 -0.0427
  147SAPE   H8R16132   7.144   4.809   5.393 -1.1890 -0.8586  1.3541
  147SAPE   C2916133   7.035   4.894   5.230 -0.6101 -0.4682 -0.1211
  147SAPE   H9R16134   7.119   4.959   5.203  1.5708 -1.7141  3.1363
  147SAPE  C21016135   6.911   4.926   5.158  0.3638 -0.5166  0.0841
  147SAPE  H10R16136   6.834   4.942   5.237 -1.3711  0.4869 -1.6978
  147SAPE  H10S16137   6.876   4.840   5.097  3.8232 -1.5012 -0.7268
  147SAPE  C21116138   6.905   5.043   5.057  0.8780  0.5078 -0.0433
  147SAPE  H11R16139   6.861   5.135   5.097  1.1945 -1.0868  4.5724
  147SAPE  C21216140   6.963   5.040   4.935  0.2873 -0.1597  0.2987
  147SAPE  H12R16141   6.945   5.125   4.868  1.1918 -2.2651 -2.8841
  147SAPE  C21316142   7.036   4.920   4.866  0.1905 -0.0317  0.4785
  147SAPE  H13R16143   7.051   4.837   4.937 -0.3481 -0.6899 -0.1603
  147SAPE  H13S16144   7.135   4.959   4.834  0.7424 -1.9222 -0.2214
  147SAPE  C21416145   6.964   4.864   4.737 -0.0377 -0.3012  0.0333
  147SAPE  H14R16146   6.875   4.915   4.699 -0.3207 -1.3771 -0.7918
  147SAPE  C21516147   6.998   4.750   4.677  0.5626  0.4688  0.5872
  147SAPE  H15R16148   6.937   4.696   4.604  0.8266  0.6487  0.2327
  147SAPE  C21616149   7.121   4.673   4.720  0.6028  0.1174  0.6181
  147SAPE  H16R16150   7.094   4.621   4.815  0.4869 -0.5980  0.1945
  147SAPE  H16S16151   7.202   4.746   4.738 -0.1113  0.9096  0.6991
  147SAPE  C21716152   7.161   4.566   4.616  0.0759 -0.0432  0.3339
  147SAPE  H17R16153   7.255   4.521   4.655  0.6067  0.8803  0.1522
  147SAPE  H17S16154   7.184   4.619   4.521  0.7477 -2.4873 -0.9334
  147SAPE  C21816155   7.067   4.454   4.596  0.3849 -0.6212  0.3361
  147SAPE  H18R16156   6.959   4.480   4.588  0.4073  0.1915  2.2452
  147SAPE  H18S16157   7.075   4.383   4.681 -3.2763 -0.4200  1.0272
  147SAPE  C21916158   7.102   4.382   4.466 -0.2213 -0.8206 -0.3740
  147SAPE  H19R16159   7.084   4.447   4.378  0.4159  1.0758  0.8368
  147SAPE  H19S16160   7.031   4.298   4.453 -2.0670  0.2401  2.0598
  147SAPE  C22016161   7.246   4.326   4.452 -0.2388  0.7559  0.0736
  147SAPE  H20R16162   7.244   4.252   4.369  0.8898  1.3262 -0.4734
  147SAPE  H20S16163   7.284   4.267   4.539  0.3027  0.2717 -0.4821
  147SAPE  H20T16164   7.315   4.410   4.433  0.0863  0.5119  0.1674
  147SAPE   C3316165   6.888   4.125   5.488 -0.0871 -0.1013  0.1192
  147SAPE   H3X16166   6.967   4.154   5.416 -1.4583  1.1083 -0.9455
  147SAPE   H3Y16167   6.826   4.215   5.507 -0.9013 -0.1210 -2.1406
  147SAPE   C3416168   6.804   4.033   5.401  0.2899 -0.0029  0.1812
  147SAPE   H4X16169   6.737   4.106   5.350 -0.3749 -0.4690  0.3689
  147SAPE   H4Y16170   6.747   3.956   5.458  0.3245  0.2024  0.4957
  147SAPE   C3516171   6.876   3.961   5.278  0.4642  1.0581  0.5467
  147SAPE   H5X16172   6.954   3.891   5.315  0.3319 -0.4069 -1.7377
  147SAPE   H5Y16173   6.929   4.040   5.221  2.1928 -1.8568 -2.2568
  147SAPE   C3616174   6.775   3.899   5.184 -0.3914 -0.1658  0.3080
  147SAPE   H6X16175   6.694   3.974   5.178  2.4072  3.3747  2.1919
  147SAPE   H6Y16176   6.739   3.796   5.207 -0.8786 -0.5123 -1.7805
  147SAPE   C3716177   6.839   3.884   5.040 -0.3284 -0.1895  0.8168
  147SAPE   H7X16178   6.931   3.822   5.053  0.6051  1.6024  3.3653
  147SAPE   H7Y16179   6.874   3.984   5.007  2.3725 -1.0546  0.8093
  147SAPE   C3816180   6.753   3.826   4.923 -0.3806  0.5747  0.1947
  147SAPE   H8X16181   6.654   3.876   4.928 -1.1809 -1.0625  1.3435
  147SAPE   H8Y16182   6.741   3.716   4.933  0.3159  0.5130  0.4005
  147SAPE   C3916183   6.818   3.859   4.787 -0.5248  0.5057 -0.1212
  147SAPE   H9X16184   6.808   3.970   4.779 -1.2937  0.3561 -1.7352
  147SAPE   H9Y16185   6.763   3.805   4.707  4.2301 -1.1805 -2.6677
  147SAPE  C31016186   6.959   3.795   4.763  0.8200 -0.1772  0.0458
  147SAPE  H10X16187   6.954   3.688   4.793 -1.4973  0.1004  0.9246
  147SAPE  H10Y16188   7.031   3.850   4.826  1.6477  0.7829 -1.6736
  147SAPE  C31116189   6.980   3.804   4.613  0.3400 -0.6258  0.1165
  147SAPE  H11X16190   6.888   3.807   4.551  1.9262  3.5960 -2.5051
  147SAPE  H11Y16191   7.055   3.727   4.584 -1.4701 -2.7447  0.7942
  147SAPE  C31216192   7.044   3.944   4.576  0.3682  0.6482 -0.1128
  147SAPE  H12X16193   7.135   3.972   4.634  1.6233 -0.6173 -1.4045
  147SAPE  H12Y16194   6.975   4.028   4.598 -0.1867  1.0021 -2.8480
  147SAPE  C31316195   7.075   3.943   4.421  0.2515  0.0784  0.0919
  147SAPE  H13X16196   7.135   3.853   4.398  2.1550  0.8946  1.5432
  147SAPE  H13Y16197   7.139   4.034   4.412  1.7324 -0.9680 -0.2181
  147SAPE  C31416198   6.960   3.960   4.318  0.1148  0.2562  0.0709
  147SAPE  H14X16199   6.954   4.069   4.297  2.6164  0.7257  1.4262
  147SAPE  H14Y16200   6.858   3.937   4.356  0.4315 -2.2596 -0.4463
  147SAPE  C31516201   6.977   3.872   4.195 -0.1766 -0.2631 -0.2617
  147SAPE  H15X16202   7.083   3.881   4.162 -0.3480 -0.7423 -0.9871
  147SAPE  H15Y16203   6.915   3.908   4.109 -0.1144  0.3113 -0.0663
  147SAPE  C31616204   6.930   3.728   4.214 -0.0452  0.7920 -0.2326
  147SAPE  H16X16205   6.837   3.708   4.158 -1.1990  0.9352  1.5549
  147SAPE  H16Y16206   6.911   3.712   4.322  0.0036  0.9240 -0.2035
  147SAPE  C31716207   7.037   3.625   4.200  1.1981 -0.2538 -0.1464
  147SAPE  H17X16208   7.119   3.642   4.273 -0.0871 -1.1844  1.5767
  147SAPE  H17Y16209   7.085   3.646   4.102  2.1996 -1.8053 -0.0379
  147SAPE  C31816210   6.982   3.479   4.203 -0.0551  0.7407 -0.4115
  147SAPE  H18X16211   6.922   3.469   4.110 -0.6294 -0.1793  0.0440
  147SAPE  H18Y16212   6.915   3.460   4.290  1.8718 -1.1374  0.7616
  147SAPE  H18Z16213   7.050   3.391   4.203 -0.2929  0.4800 -3.0642
  148SAPE     N16214   4.234   4.399   6.346  0.2434  0.3257  0.4840
  148SAPE   HN116215   4.214   4.313   6.292 -0.1161 -0.0124  1.1399
  148SAPE   HN216216   4.148   4.455   6.357 -0.9356 -1.6139  1.6258
  148SAPE   HN316217   4.298   4.455   6.286 -1.0846 -0.3555 -1.6390
  148SAPE   C1216218   4.291   4.362   6.488 -0.3638 -0.4581  1.3776
  148SAPE  H12A16219   4.401   4.379   6.485 -0.3677 -0.2926 -2.1589
  148SAPE  H12B16220   4.257   4.257   6.501 -1.8125 -0.0124  1.4325
  148SAPE   C1116221   4.234   4.433   6.609  0.9381 -0.0089  0.7676
  148SAPE  H11A16222   4.273   4.389   6.703  3.9435 -0.0697 -0.4202
  148SAPE  H11B16223   4.124   4.419   6.599  1.2316 -0.6048 -2.6779
  148SAPE     P16224   4.393   4.625   6.675  0.0066 -0.0851  0.1408
  148SAPE   O1316225   4.368   4.645   6.822 -0.5483  0.6474 -0.0062
  148SAPE   O1416226   4.511   4.537   6.642  0.4038 -0.7475 -0.5572
  148SAPE   O1216227   4.262   4.571   6.606  0.7524 -0.2388 -1.0480
  148SAPE   O1116228   4.404   4.765   6.610  0.0480  0.0690 -0.2113
  148SAPE    C116229   4.301   4.855   6.573 -0.6395 -0.0456  0.5175
  148SAPE    HA16230   4.212   4.834   6.637 -0.5911 -1.0901  0.2467
  148SAPE    HB16231   4.331   4.962   6.583  1.2835 -0.3838 -1.1671
  148SAPE    C216232   4.251   4.836   6.429  0.1705 -0.3457  0.5394
  148SAPE    HS16233   4.241   4.726   6.416  2.3384 -0.3754 -1.6408
  148SAPE   O2116234   4.351   4.892   6.339  0.3049  0.8107 -0.5670
  148SAPE   C2116235   4.345   4.845   6.212 -0.0956 -0.0770  0.1982
  148SAPE   O2216236   4.261   4.763   6.174  0.0866 -0.4628 -0.0628
  148SAPE   C2216237   4.445   4.929   6.135 -0.6528  0.5526 -0.6197
  148SAPE   H2R16238   4.410   5.033   6.124  0.1707  0.8519 -0.4936
  148SAPE   H2S16239   4.539   4.921   6.194 -1.9726  2.0162  1.8214
  148SAPE    C316240   4.114   4.904   6.398 -0.2195  0.5835  0.1191
  148SAPE    HX16241   4.053   4.859   6.479 -0.2607 -0.6464 -0.5660
  148SAPE    HY16242   4.073   4.863   6.303  0.0782  0.6239 -0.0262
  148SAPE   O3116243   4.122   5.050   6.413 -0.2261 -0.2581  0.3896
  148SAPE   C3116244   4.144   5.118   6.299 -0.0567  0.3624  0.4542
  148SAPE   O3216245   4.116   5.071   6.191  0.5060 -0.3830  0.1499
  148SAPE   C3216246   4.214   5.252   6.305 -0.0831 -0.3287 -0.5276
  148SAPE   H2X16247   4.312   5.233   6.355 -0.1591  2.4292  0.9299
  148SAPE   H2Y16248   4.161   5.323   6.372  0.8708 -0.2020  0.1119
  148SAPE   C2316249   4.464   4.871   5.991  0.3361 -0.7404  0.2051
  148SAPE   H3R16250   4.366   4.886   5.941  1.1269  2.3123 -0.6647
  148SAPE   H3S16251   4.479   4.761   5.993  0.1548 -0.7993 -0.8811
  148SAPE   C2416252   4.577   4.947   5.912  0.0877 -0.9528 -0.3726
  148SAPE   H4R16253   4.591   4.912   5.808  0.5359  0.1426 -0.6951
  148SAPE   H4S16254   4.676   4.923   5.959 -0.5689 -3.0354  0.0778
  148SAPE   C2516255   4.562   5.092   5.910  0.5879  0.3072 -0.1407
  148SAPE   H5R16256   4.623   5.145   5.984  1.5648 -0.5289 -0.3225
  148SAPE   C2616257   4.483   5.162   5.827  0.2774  0.0950  0.9607
  148SAPE   H6R16258   4.473   5.269   5.848 -2.0907 -0.3466  2.4804
  148SAPE   C2716259   4.390   5.107   5.717  0.6778 -0.0931  0.1870
  148SAPE   H7R16260   4.389   4.996   5.720 -0.9477 -0.0873  1.8115
  148SAPE   H7S16261   4.419   5.146   5.617 -0.2686 -1.2482 -0.5705
  148SAPE   C2816262   4.258   5.167   5.770 -0.2890 -0.0599  0.2383
  148SAPE   H8R16263   4.226   5.117   5.863 -0.9612 -0.0373  0.0239
  148SAPE   C2916264   4.181   5.265   5.715 -0.2218 -0.0166  0.1603
  148SAPE   H9R16265   4.095   5.311   5.766  0.7450  1.1548  0.7773
  148SAPE  C21016266   4.216   5.338   5.589  0.4459 -0.2522 -0.3113
  148SAPE  H10R16267   4.323   5.370   5.586  0.7612 -1.0076  1.6559
  148SAPE  H10S16268   4.164   5.436   5.595  0.4973 -0.3372  3.2864
  148SAPE  C21116269   4.185   5.259   5.457  0.0114 -0.3395  0.2417
  148SAPE  H11R16270   4.184   5.150   5.467  0.9664 -0.2267  1.9802
  148SAPE  C21216271   4.155   5.313   5.338  0.0429  0.2344 -0.1556
  148SAPE  H12R16272   4.145   5.248   5.250 -0.8434 -0.4556  0.4381
  148SAPE  C21316273   4.137   5.463   5.320  0.1556  0.3115  0.1395
  148SAPE  H13R16274   4.075   5.516   5.396  3.5346  2.7126  1.4513
  148SAPE  H13S16275   4.093   5.479   5.219  0.8899  2.1583  0.0822
  148SAPE  C21416276   4.268   5.525   5.324 -0.9859  0.4718  0.5335
  148SAPE  H14R16277   4.296   5.546   5.428  1.4462  0.7359 -0.1141
  148SAPE  C21516278   4.350   5.569   5.229  0.0939 -0.2399 -0.3776
  148SAPE  H15R16279   4.444   5.608   5.270  0.2789 -1.7352  0.6929
  148SAPE  C21616280   4.342   5.549   5.076 -0.0237  0.2870 -0.0937
  148SAPE  H16R16281   4.310   5.646   5.034 -2.7782 -0.9721 -1.1122
  148SAPE  H16S16282   4.264   5.471   5.060  1.3539 -0.8240 -1.7728
  148SAPE  C21716283   4.478   5.504   5.035 -0.0762  0.2183 -0.2345
  148SAPE  H17R16284   4.520   5.417   5.090 -0.1757  0.8029  0.7938
  148SAPE  H17S16285   4.546   5.589   5.055 -0.6542  0.5586  0.3167
  148SAPE  C21816286   4.485   5.450   4.892  0.4378 -0.1022 -0.2757
  148SAPE  H18R16287   4.397   5.383   4.887  1.6899 -1.9905  1.5555
  148SAPE  H18S16288   4.576   5.386   4.888  1.5840  1.3833  0.8673
  148SAPE  C21916289   4.474   5.547   4.780 -0.0935 -0.2109  0.5880
  148SAPE  H19R16290   4.568   5.599   4.750 -0.6253  0.9179  0.8325
  148SAPE  H19S16291   4.406   5.629   4.811 -2.8103 -2.5642  1.2658
  148SAPE  C22016292   4.409   5.493   4.651 -0.0801  0.1870  0.2167
  148SAPE  H20R16293   4.444   5.391   4.625 -1.5570 -0.4239  0.5239
  148SAPE  H20S16294   4.420   5.565   4.568  0.1998  0.9288  0.8797
  148SAPE  H20T16295   4.303   5.465   4.671 -0.3768 -0.5753 -2.0995
  148SAPE   C3316296   4.225   5.324   6.169  0.1514 -0.4798 -0.1356
  148SAPE   H3X16297   4.125   5.364   6.139  0.3971  1.1305  1.0630
  148SAPE   H3Y16298   4.256   5.248   6.094  0.6477 -0.1960 -0.2216
  148SAPE   C3416299   4.326   5.433   6.162 -0.4203  0.5448 -0.3444
  148SAPE   H4X16300   4.419   5.392   6.207 -1.0764  0.0466  0.5878
  148SAPE   H4Y16301   4.288   5.510   6.233 -1.2394 -1.1538  1.1326
  148SAPE   C3516302   4.358   5.493   6.028  0.4846 -0.7328 -0.7148
  148SAPE   H5X16303   4.377   5.410   5.957  2.0999 -1.1815  0.1831
  148SAPE   H5Y16304   4.452   5.551   6.042 -0.2732  0.2461  0.5447
  148SAPE   C3616305   4.236   5.583   5.992  0.8185  0.3425  0.4939
  148SAPE   H6X16306   4.217   5.646   6.082  2.3324 -1.9863  2.5606
  148SAPE   H6Y16307   4.157   5.508   5.971 -1.2231  1.7715  2.5138
  148SAPE   C3716308   4.265   5.677   5.880 -0.8891 -0.3055  0.1646
  148SAPE   H7X16309   4.327   5.624   5.804  0.3630 -0.8658  1.5335
  148SAPE   H7Y16310   4.326   5.763   5.914 -1.7728  0.7430 -0.8441
  148SAPE   C3816311   4.132   5.731   5.814 -1.1210 -0.1273  0.3850
  148SAPE   H8X16312   4.095   5.822   5.868  1.5171  1.5784 -0.4980
  148SAPE   H8Y16313   4.054   5.655   5.794 -1.3379  0.5068 -1.3533
  148SAPE   C3916314   4.171   5.785   5.672  0.5373 -0.7180 -0.0182
  148SAPE   H9X16315   4.185   5.696   5.607  0.1203 -1.5559  1.0117
  148SAPE   H9Y16316   4.271   5.830   5.686 -0.5023  0.9906  2.6690
  148SAPE  C31016317   4.079   5.883   5.598 -0.3401 -0.0758 -0.2378
  148SAPE  H10X16318   4.073   5.975   5.660  0.6817 -0.2111  0.0834
  148SAPE  H10Y16319   3.976   5.842   5.589  0.3905 -2.4627  1.2020
  148SAPE  C31116320   4.128   5.917   5.458 -0.5103 -0.0951 -0.0556
  148SAPE  H11X16321   4.135   5.831   5.388  1.1779 -2.4752  2.8282
  148SAPE  H11Y16322   4.230   5.960   5.462 -0.5550  0.0890 -0.7693
  148SAPE  C31216323   4.044   6.033   5.414 -0.1391 -0.0931  0.1676
  148SAPE  H12X16324   4.036   6.112   5.492  1.1809  0.8969 -0.6505
  148SAPE  H12Y16325   3.941   5.993   5.402 -1.0754  2.6438 -1.9117
  148SAPE  C31316326   4.081   6.110   5.281 -0.6391  0.3898 -0.4157
  148SAPE  H13X16327   4.172   6.173   5.294  0.8375 -1.7260  0.1828
  148SAPE  H13Y16328   3.999   6.180   5.257 -2.4797 -0.8311  1.9228
  148SAPE  C31416329   4.124   6.024   5.160 -0.0468 -0.0525  0.6609
  148SAPE  H14X16330   4.217   5.970   5.189  0.6231  0.4806 -0.4362
  148SAPE  H14Y16331   4.151   6.098   5.082 -0.8574 -0.4487 -0.0034
  148SAPE  C31516332   4.016   5.937   5.106 -0.4216  0.3930 -0.5515
  148SAPE  H15X16333   3.957   5.994   5.031  0.1325  2.2661  0.3707
  148SAPE  H15Y16334   3.956   5.896   5.190 -1.6201  2.1695 -0.4833
  148SAPE  C31616335   4.077   5.821   5.028 -0.6536 -0.0461  0.3357
  148SAPE  H16X16336   4.123   5.743   5.092 -2.1686 -0.5983  0.7974
  148SAPE  H16Y16337   4.144   5.874   4.957 -1.1890  0.5608  0.2695
  148SAPE  C31716338   3.979   5.754   4.922  0.6046 -0.0363  0.1067
  148SAPE  H17X16339   3.948   5.825   4.843  2.8486 -0.0097 -0.8406
  148SAPE  H17Y16340   3.902   5.717   4.993  2.4646 -1.6233  1.4080
  148SAPE  C31816341   4.039   5.643   4.847 -0.0213  0.2218  0.4614
  148SAPE  H18X16342   4.093   5.682   4.758  2.7698  0.4132  2.1498
  148SAPE  H18Y16343   3.962   5.567   4.819 -1.4473  1.4643  0.8725
  148SAPE  H18Z16344   4.114   5.588   4.908 -0.9847 -0.0804  1.4134
  149SAPE     N16345   2.763   1.473   6.593  0.1261  0.3277  0.7691
  149SAPE   HN116346   2.686   1.410   6.563  0.5749  0.0560  0.1559
  149SAPE   HN216347   2.820   1.414   6.658  0.8164  1.2465  1.0136
  149SAPE   HN316348   2.721   1.555   6.640 -3.4856 -0.5925 -0.5551
  149SAPE   C1216349   2.823   1.523   6.469 -0.5676 -0.0079 -0.4630
  149SAPE  H12A16350   2.914   1.462   6.452 -1.1683 -1.0756  0.0482
  149SAPE  H12B16351   2.862   1.626   6.487  0.8236 -1.0137  2.9251
  149SAPE   C1116352   2.726   1.527   6.344 -0.5838  0.1195 -0.5523
  149SAPE  H11A16353   2.699   1.424   6.312  1.3829 -0.0831 -1.7005
  149SAPE  H11B16354   2.789   1.579   6.269 -1.8630  1.8694 -0.4892
  149SAPE     P16355   2.483   1.602   6.274 -0.0980 -0.1374 -0.0865
  149SAPE   O1316356   2.433   1.464   6.293 -0.5164 -0.0924  0.0765
  149SAPE   O1416357   2.388   1.708   6.316 -0.8060 -0.5230 -0.1392
  149SAPE   O1216358   2.613   1.614   6.358 -0.1198 -0.3082 -0.3640
  149SAPE   O1116359   2.527   1.630   6.124  0.2311  0.1173 -0.1011
  149SAPE    C116360   2.576   1.757   6.089  0.1693  0.0215 -0.2593
  149SAPE    HA16361   2.646   1.797   6.165  0.5393  2.6744 -1.8479
  149SAPE    HB16362   2.632   1.744   5.994 -1.3559 -0.2342 -1.1441
  149SAPE    C216363   2.456   1.855   6.040  0.0330  1.0824 -0.3307
  149SAPE    HS16364   2.366   1.842   6.104  1.0285  1.8594  1.2674
  149SAPE   O2116365   2.411   1.844   5.900  0.2799  0.8456 -0.5660
  149SAPE   C2116366   2.330   1.737   5.869  1.0103  0.0452 -0.1334
  149SAPE   O2216367   2.287   1.652   5.947 -0.0235  0.4295  0.7168
  149SAPE   C2216368   2.288   1.729   5.717  0.7312 -0.9717  0.1515
  149SAPE   H2R16369   2.242   1.629   5.698 -1.7376  0.2543 -0.8431
  149SAPE   H2S16370   2.219   1.811   5.689 -0.3131 -1.9383 -0.2100
  149SAPE    C316371   2.482   2.001   6.058  0.1134  0.3337 -0.0587
  149SAPE    HX16372   2.500   2.014   6.167  0.4987  1.6294 -0.2562
  149SAPE    HY16373   2.388   2.056   6.038 -0.2729 -0.1489  0.3940
  149SAPE   O3116374   2.598   2.025   5.974  0.1130  0.1972 -0.0984
  149SAPE   C3116375   2.610   2.140   5.915 -0.4779 -0.5879  0.4839
  149SAPE   O3216376   2.535   2.237   5.922 -0.1632  0.1570  0.4959
  149SAPE   C3216377   2.736   2.131   5.829  0.5322 -0.3209  0.1987
  149SAPE   H2X16378   2.765   2.024   5.814  2.3144 -0.0390  1.2980
  149SAPE   H2Y16379   2.819   2.177   5.887 -0.0644  1.4019 -0.2519
  149SAPE   C2316380   2.414   1.722   5.618  0.1026  0.4885 -0.2241
  149SAPE   H3R16381   2.381   1.662   5.530  0.0913 -1.3417  0.9565
  149SAPE   H3S16382   2.495   1.669   5.674 -1.5611 -1.4120  0.5184
  149SAPE   C2416383   2.451   1.859   5.556  0.7019 -0.6071  0.1973
  149SAPE   H4R16384   2.480   1.920   5.644 -1.9016  1.0099  0.0402
  149SAPE   H4S16385   2.352   1.896   5.522  0.2113 -0.8663  1.2906
  149SAPE   C2516386   2.557   1.868   5.451  0.3427  0.2066  0.2699
  149SAPE   H5R16387   2.656   1.885   5.494  0.6954 -0.3521 -0.3009
  149SAPE   C2616388   2.539   1.833   5.322  0.3588  0.2917  1.0061
  149SAPE   H6R16389   2.621   1.856   5.251 -0.3182  0.9182  0.4036
  149SAPE   C2716390   2.411   1.804   5.259  0.7266 -0.2157  0.9492
  149SAPE   H7R16391   2.364   1.903   5.238  0.3064 -0.4250  0.9035
  149SAPE   H7S16392   2.343   1.751   5.328  0.2045 -0.4538  0.2706
  149SAPE   C2816393   2.422   1.723   5.131 -0.1813  1.4123 -0.5260
  149SAPE   H8R16394   2.409   1.614   5.144 -0.6459  1.2791 -1.8874
  149SAPE   C2916395   2.435   1.753   5.002  0.2739  0.3073  0.3235
  149SAPE   H9R16396   2.435   1.673   4.927  2.4749  1.2737 -0.7892
  149SAPE  C21016397   2.460   1.891   4.943  0.2790 -0.6635  0.2110
  149SAPE  H10R16398   2.512   1.948   5.022 -0.4418 -1.4283  1.2699
  149SAPE  H10S16399   2.367   1.952   4.937  0.4528 -0.5253 -2.0628
  149SAPE  C21116400   2.539   1.901   4.815  0.5528  0.1639  0.0035
  149SAPE  H11R16401   2.638   1.947   4.822  1.3307 -1.0639 -2.0058
  149SAPE  C21216402   2.484   1.893   4.687 -0.3977  0.4509  0.3139
  149SAPE  H12R16403   2.550   1.903   4.599  1.2264  3.1221  1.7060
  149SAPE  C21316404   2.343   1.855   4.647 -0.0174 -0.3952 -0.3562
  149SAPE  H13R16405   2.308   1.944   4.590  2.0915  0.0596 -1.0134
  149SAPE  H13S16406   2.276   1.851   4.736  3.6046  0.6657  2.6618
  149SAPE  C21416407   2.322   1.717   4.582  0.3349 -0.3927 -0.2156
  149SAPE  H14R16408   2.360   1.630   4.637 -2.0961 -1.3652  0.0397
  149SAPE  C21516409   2.255   1.704   4.460  0.1004  0.0463 -0.0981
  149SAPE  H15R16410   2.238   1.600   4.429  2.0384 -0.4034  0.2078
  149SAPE  C21616411   2.193   1.810   4.378  0.4045  0.5875  0.1634
  149SAPE  H16R16412   2.254   1.828   4.287 -0.8853 -1.1489 -1.1143
  149SAPE  H16S16413   2.179   1.907   4.431  2.3109  1.6018 -1.0466
  149SAPE  C21716414   2.055   1.773   4.317  0.4906  0.4110 -1.0314
  149SAPE  H17R16415   1.986   1.767   4.404  0.9847  2.4426 -0.4474
  149SAPE  H17S16416   2.065   1.674   4.267  0.1231 -1.8710  2.9438
  149SAPE  C21816417   2.002   1.878   4.218 -0.7391  0.1501 -0.3448
  149SAPE  H18R16418   2.076   1.879   4.136 -0.5570 -1.7041 -0.2344
  149SAPE  H18S16419   2.008   1.977   4.270  2.1557  1.3801 -2.7347
  149SAPE  C21916420   1.861   1.853   4.163 -0.3910 -0.2590  0.2492
  149SAPE  H19R16421   1.787   1.922   4.208 -0.7081 -1.6857  2.0590
  149SAPE  H19S16422   1.831   1.752   4.198  0.9716 -1.0603 -0.7698
  149SAPE  C22016423   1.846   1.855   4.010 -0.1976 -0.1527  0.1297
  149SAPE  H20R16424   1.898   1.765   3.969 -0.3193 -1.5178  2.7384
  149SAPE  H20S16425   1.884   1.951   3.970  0.9939 -0.1915  1.1213
  149SAPE  H20T16426   1.737   1.851   3.988  0.0761 -0.7355 -1.1917
  149SAPE   C3316427   2.731   2.205   5.693 -0.4177  0.3302 -0.0813
  149SAPE   H3X16428   2.674   2.301   5.686  2.1461  1.9130 -0.8498
  149SAPE   H3Y16429   2.680   2.137   5.622  0.4128 -0.3103 -0.0817
  149SAPE   C3416430   2.865   2.234   5.625  0.3258 -0.0903 -0.2119
  149SAPE   H4X16431   2.913   2.134   5.640 -1.2181 -0.6879  1.0067
  149SAPE   H4Y16432   2.918   2.317   5.676 -1.0534  0.7489 -0.1033
  149SAPE   C3516433   2.847   2.269   5.475  0.5246 -0.6563  0.0796
  149SAPE   H5X16434   2.927   2.336   5.439 -2.2538  1.8488 -1.9244
  149SAPE   H5Y16435   2.755   2.330   5.463  1.1907  0.2121 -0.6987
  149SAPE   C3616436   2.826   2.160   5.370 -0.0574 -0.4689  0.3665
  149SAPE   H6X16437   2.743   2.096   5.406  0.7396 -0.5688  2.1316
  149SAPE   H6Y16438   2.921   2.103   5.366  1.8050  2.3188  1.7156
  149SAPE   C3716439   2.795   2.230   5.237 -0.0197  0.2984 -0.9359
  149SAPE   H7X16440   2.893   2.258   5.193  0.8375 -3.0038 -1.3444
  149SAPE   H7Y16441   2.729   2.319   5.249  0.2509  0.5219 -1.1166
  149SAPE   C3816442   2.727   2.135   5.138  0.6393  0.1825  0.6354
  149SAPE   H8X16443   2.617   2.138   5.156  0.1161  0.0232 -2.0773
  149SAPE   H8Y16444   2.782   2.039   5.145  1.8583  0.9802  3.8752
  149SAPE   C3916445   2.743   2.191   4.988  0.2841 -0.1435 -0.9500
  149SAPE   H9X16446   2.717   2.108   4.920 -0.1653  0.3389 -1.3764
  149SAPE   H9Y16447   2.852   2.207   4.974  0.3054  1.5000  0.6592
  149SAPE  C31016448   2.658   2.323   4.976  0.1469  0.1254 -0.8446
  149SAPE  H10X16449   2.683   2.398   5.054 -0.2965  0.1148 -0.6894
  149SAPE  H10Y16450   2.549   2.303   4.978 -0.1253  1.5009  1.1844
  149SAPE  C31116451   2.680   2.391   4.839 -0.1251 -1.1176 -0.0438
  149SAPE  H11X16452   2.786   2.424   4.828 -0.4226  0.0305  0.3386
  149SAPE  H11Y16453   2.621   2.486   4.837 -2.3993 -2.4695 -0.8171
  149SAPE  C31216454   2.637   2.306   4.718 -0.1858 -0.3498 -0.0112
  149SAPE  H12X16455   2.527   2.298   4.709 -0.2404  0.9425 -0.7278
  149SAPE  H12Y16456   2.677   2.203   4.716  0.1190 -0.2940  1.5635
  149SAPE  C31316457   2.666   2.372   4.584 -0.1449 -0.1877 -0.4989
  149SAPE  H13X16458   2.773   2.396   4.597 -0.5912  0.6507  2.2411
  149SAPE  H13Y16459   2.613   2.470   4.591  1.7407  0.7855  1.3656
  149SAPE  C31416460   2.631   2.292   4.461  0.0539 -0.3058  0.2323
  149SAPE  H14X16461   2.657   2.185   4.474  0.9553 -0.1615 -0.2542
  149SAPE  H14Y16462   2.691   2.321   4.372 -0.2268 -0.7566 -0.1077
  149SAPE  C31516463   2.482   2.285   4.419  0.1974 -0.3043  0.3721
  149SAPE  H15X16464   2.409   2.235   4.487 -2.3074  0.7653 -1.3693
  149SAPE  H15Y16465   2.477   2.233   4.321 -1.3064 -0.0502  0.2878
  149SAPE  C31616466   2.424   2.426   4.400  0.2369  0.3699  0.1423
  149SAPE  H16X16467   2.489   2.479   4.327  0.6951 -0.2403  0.0956
  149SAPE  H16Y16468   2.424   2.483   4.496  4.3000  0.2197  0.4137
  149SAPE  C31716469   2.276   2.423   4.356  0.4374 -0.3144  0.0574
  149SAPE  H17X16470   2.215   2.360   4.424  0.1617 -0.7547 -0.5786
  149SAPE  H17Y16471   2.268   2.374   4.256  0.0367  0.6003 -0.3644
  149SAPE  C31816472   2.198   2.561   4.367  0.0712  0.2118  0.5132
  149SAPE  H18X16473   2.248   2.633   4.298 -0.1038  0.8154  1.0101
  149SAPE  H18Y16474   2.218   2.609   4.465 -1.1323  0.6746  0.5518
  149SAPE  H18Z16475   2.091   2.552   4.339  0.2268 -1.3267  0.3469
  150SAPE     N16476   5.365   0.595   6.900  0.2563  0.6817  0.6334
  150SAPE   HN116477   5.442   0.545   6.950  0.6563  1.2427  0.5859
  150SAPE   HN216478   5.398   0.593   6.801 -1.3145  0.9190  0.0814
  150SAPE   HN316479   5.368   0.692   6.936  1.2434  0.9425 -0.1046
  150SAPE   C1216480   5.236   0.522   6.898 -0.2080  0.0047 -0.5639
  150SAPE  H12A16481   5.213   0.479   6.997 -0.0236  1.6215  0.2092
  150SAPE  H12B16482   5.239   0.441   6.821  1.6120  2.0212 -2.8039
  150SAPE   C1116483   5.121   0.609   6.854 -0.1131  0.1785 -1.2889
  150SAPE  H11A16484   5.105   0.685   6.934  1.8297 -0.5598 -0.1285
  150SAPE  H11B16485   5.035   0.540   6.847  0.8326 -0.9588 -2.0370
  150SAPE     P16486   5.095   0.798   6.677  0.4142 -0.1379 -0.0776
  150SAPE   O1316487   4.950   0.809   6.704 -0.0343 -0.4751 -0.2809
  150SAPE   O1416488   5.177   0.908   6.727  0.3100  0.2347 -0.2757
  150SAPE   O1216489   5.149   0.660   6.729  0.3873 -0.0601  0.4671
  150SAPE   O1116490   5.118   0.783   6.520  0.4485  0.3784  0.0077
  150SAPE    C116491   5.215   0.846   6.443 -0.8645 -0.0413 -0.0847
  150SAPE    HA16492   5.184   0.945   6.404 -0.1463 -0.6858 -2.4652
  150SAPE    HB16493   5.307   0.858   6.504 -0.7058 -1.0672 -0.1115
  150SAPE    C216494   5.255   0.766   6.316 -0.0292  0.3834 -0.5874
  150SAPE    HS16495   5.280   0.665   6.353 -0.7580  1.1134  2.1165
  150SAPE   O2116496   5.366   0.820   6.252  1.0037  0.2545 -0.5954
  150SAPE   C2116497   5.480   0.788   6.315 -0.0319 -0.4078 -0.3645
  150SAPE   O2216498   5.494   0.719   6.416  1.0016  0.2415 -0.3474
  150SAPE   C2216499   5.590   0.878   6.257  0.1776  0.4102  0.0264
  150SAPE   H2R16500   5.546   0.967   6.207 -1.5659  0.4564  1.5561
  150SAPE   H2S16501   5.653   0.901   6.346  2.3105  0.7742 -1.5048
  150SAPE    C316502   5.137   0.766   6.210 -0.2242 -0.9881  0.2258
  150SAPE    HX16503   5.115   0.872   6.186 -0.2264 -1.2226 -0.8705
  150SAPE    HY16504   5.047   0.725   6.262 -2.3932 -0.1584 -2.6368
  150SAPE   O3116505   5.163   0.686   6.095  0.2421  0.1074 -0.0134
  150SAPE   C3116506   5.222   0.741   5.986 -0.2278  0.1390 -0.8084
  150SAPE   O3216507   5.257   0.854   5.967 -0.3089 -0.0788  0.1413
  150SAPE   C3216508   5.250   0.624   5.895 -0.1665 -0.4429  0.2496
  150SAPE   H2X16509   5.152   0.587   5.857  0.1903  0.7880 -2.0880
  150SAPE   H2Y16510   5.301   0.556   5.966 -1.0579 -0.3390  0.9985
  150SAPE   C2316511   5.672   0.802   6.149 -0.1470  0.0920 -0.4455
  150SAPE   H3R16512   5.717   0.710   6.192 -1.1403 -0.1250  0.1660
  150SAPE   H3S16513   5.762   0.863   6.126  2.6899 -2.3737  3.0174
  150SAPE   C2416514   5.604   0.779   6.014  0.5866  0.2673 -0.2236
  150SAPE   H4R16515   5.508   0.725   6.027 -1.1834  2.1851 -3.7564
  150SAPE   H4S16516   5.667   0.720   5.944 -0.4841  0.1437 -1.0989
  150SAPE   C2516517   5.572   0.909   5.948  0.2799  0.4433  1.2515
  150SAPE   H5R16518   5.512   0.977   6.009  0.7098  1.8536  0.1644
  150SAPE   C2616519   5.614   0.952   5.832  0.6004 -0.0237  0.4699
  150SAPE   H6R16520   5.567   1.044   5.796  2.7225  0.4555 -1.3220
  150SAPE   C2716521   5.708   0.888   5.736 -0.2517  0.3064 -0.2792
  150SAPE   H7R16522   5.776   0.819   5.791 -1.8232  1.1848  3.0556
  150SAPE   H7S16523   5.781   0.953   5.685  0.3414 -1.3565 -1.6351
  150SAPE   C2816524   5.638   0.800   5.636 -0.8352  0.8439  0.2420
  150SAPE   H8R16525   5.629   0.694   5.665  0.0801  0.3772 -1.0469
  150SAPE   C2916526   5.614   0.820   5.503 -0.5981  0.1461 -0.1881
  150SAPE   H9R16527   5.561   0.745   5.442  0.4834 -0.0910 -0.8627
  150SAPE  C21016528   5.629   0.950   5.430 -0.0691  0.3236  0.3627
  150SAPE  H10R16529   5.693   1.018   5.491 -1.1600  1.5598  0.1609
  150SAPE  H10S16530   5.524   0.985   5.423  0.2621  1.2287 -0.1647
  150SAPE  C21116531   5.690   0.937   5.297  0.1073 -1.0281  0.5280
  150SAPE  H11R16532   5.755   0.852   5.275 -0.2798 -1.3892  0.7710
  150SAPE  C21216533   5.671   1.027   5.199 -0.5652  0.2936  0.6270
  150SAPE  H12R16534   5.720   1.006   5.102 -0.4786 -0.6397  0.8615
  150SAPE  C21316535   5.586   1.148   5.204 -0.1150  0.4267  0.2590
  150SAPE  H13R16536   5.560   1.178   5.308  0.9006  0.6875  0.4520
  150SAPE  H13S16537   5.488   1.135   5.153 -0.7583  3.4963  0.4661
  150SAPE  C21416538   5.639   1.269   5.123 -0.5364 -0.5968 -0.7219
  150SAPE  H14R16539   5.711   1.334   5.176 -1.3293  0.7305 -1.2428
  150SAPE  C21516540   5.622   1.291   4.992 -0.6854  0.6181  0.3256
  150SAPE  H15R16541   5.667   1.380   4.946  0.0154  1.1600  1.9518
  150SAPE  C21616542   5.563   1.192   4.897 -0.4821 -0.5516 -0.0132
  150SAPE  H16R16543   5.493   1.234   4.822 -0.2069  1.0866  0.6188
  150SAPE  H16S16544   5.502   1.116   4.951 -0.7589 -0.1137  0.2987
  150SAPE  C21716545   5.675   1.111   4.827 -0.1006 -0.3627  0.0016
  150SAPE  H17R16546   5.642   1.005   4.818  0.2665 -0.5187  0.4540
  150SAPE  H17S16547   5.766   1.111   4.890 -0.6586  0.5635  0.8282
  150SAPE  C21816548   5.698   1.153   4.677 -0.3896  0.9234 -0.1245
  150SAPE  H18R16549   5.792   1.103   4.646 -0.5682  0.0493  0.6913
  150SAPE  H18S16550   5.728   1.260   4.685 -0.7183  1.1861 -2.0261
  150SAPE  C21916551   5.584   1.129   4.583  0.1190 -0.3056 -0.8156
  150SAPE  H19R16552   5.491   1.179   4.615  0.1003  0.0878 -1.4723
  150SAPE  H19S16553   5.564   1.020   4.588  1.2895 -0.4857  0.6843
  150SAPE  C22016554   5.608   1.172   4.444  0.2120  0.6910 -0.1490
  150SAPE  H20R16555   5.576   1.278   4.437  1.5749  1.0464 -1.5109
  150SAPE  H20S16556   5.545   1.116   4.371  0.3884  0.7160 -0.3199
  150SAPE  H20T16557   5.716   1.153   4.424 -0.0422 -1.9536  0.5571
  150SAPE   C3316558   5.349   0.646   5.775  0.6146  0.5469 -0.0592
  150SAPE   H3X16559   5.451   0.607   5.797 -0.0253 -1.1131  0.0715
  150SAPE   H3Y16560   5.354   0.752   5.741  0.0971  0.3108 -0.9030
  150SAPE   C3416561   5.294   0.578   5.647  0.2158 -0.1627  0.3506
  150SAPE   H4X16562   5.264   0.472   5.663 -3.8210  0.9914  1.9278
  150SAPE   H4Y16563   5.374   0.581   5.571  1.4642  0.4520  1.6480
  150SAPE   C3516564   5.174   0.648   5.583 -0.3662 -0.7366  0.3694
  150SAPE   H5X16565   5.212   0.749   5.557 -0.7733 -0.4698  0.7888
  150SAPE   H5Y16566   5.087   0.659   5.652 -1.3182  0.4235 -0.9634
  150SAPE   C3616567   5.135   0.574   5.458 -0.0791 -0.5705  0.0074
  150SAPE   H6X16568   5.147   0.465   5.472 -0.8073 -0.4364  2.0642
  150SAPE   H6Y16569   5.206   0.601   5.377 -1.0253 -0.3033 -0.7635
  150SAPE   C3716570   5.005   0.609   5.396  0.3593 -0.5873 -1.1675
  150SAPE   H7X16571   5.016   0.619   5.286  0.6493 -1.5725 -1.2376
  150SAPE   H7Y16572   4.973   0.709   5.432  0.9094 -1.0140  0.5891
  150SAPE   C3816573   4.884   0.517   5.422 -0.8973 -0.1587 -0.6412
  150SAPE   H8X16574   4.833   0.558   5.512  0.7894 -0.5979  0.5645
  150SAPE   H8Y16575   4.924   0.420   5.459  0.3828  0.7443  0.4443
  150SAPE   C3916576   4.783   0.493   5.306  0.6011 -0.6034  0.7599
  150SAPE   H9X16577   4.826   0.446   5.214 -1.8410 -1.3899 -0.0719
  150SAPE   H9Y16578   4.747   0.590   5.265 -4.2852 -2.6936 -0.6378
  150SAPE  C31016579   4.654   0.416   5.340  0.0646  0.3984 -0.3772
  150SAPE  H10X16580   4.576   0.422   5.262 -1.9383  2.7517  1.6391
  150SAPE  H10Y16581   4.625   0.452   5.441  2.8351 -1.2292  1.1241
  150SAPE  C31116582   4.672   0.258   5.357 -0.6665 -0.6671 -0.5122
  150SAPE  H11X16583   4.591   0.221   5.423  0.1359 -0.5823  0.5409
  150SAPE  H11Y16584   4.765   0.224   5.406 -2.7216 -2.3191  2.5860
  150SAPE  C31216585   4.659   0.186   5.225  0.2843  0.4893 -0.0741
  150SAPE  H12X16586   4.730   0.101   5.227 -1.9409 -1.4590  2.3972
  150SAPE  H12Y16587   4.689   0.257   5.144  0.3224  0.7458  0.1621
  150SAPE  C31316588   4.524   0.122   5.198 -0.1352  0.5106 -0.0696
  150SAPE  H13X16589   4.446   0.201   5.200  2.5045  3.2846  0.2409
  150SAPE  H13Y16590   4.511   0.051   5.283  2.0507 -0.5916 -0.5779
  150SAPE  C31416591   4.521   0.025   5.076  0.1536 -0.5600  0.6088
  150SAPE  H14X16592   4.588  -0.063   5.090  0.0009 -1.0603 -1.4898
  150SAPE  H14Y16593   4.570   0.075   4.990 -0.7228  1.3499  1.1766
  150SAPE  C31516594   4.380  -0.029   5.049  0.3566  0.0707 -0.3346
  150SAPE  H15X16595   4.310   0.041   5.100  0.0648 -0.5309  0.1057
  150SAPE  H15Y16596   4.362  -0.130   5.090  0.6166  0.1906  0.0851
  150SAPE  C31616597   4.357  -0.030   4.895  0.4012  0.6495  0.0856
  150SAPE  H16X16598   4.257  -0.076   4.882  1.5600 -1.9153 -0.2383
  150SAPE  H16Y16599   4.427  -0.107   4.855  0.8738  1.6023 -0.9735
  150SAPE  C31716600   4.373   0.100   4.818 -0.4505  0.0555 -0.7880
  150SAPE  H17X16601   4.478   0.139   4.817 -1.0157  1.6833 -0.3733
  150SAPE  H17Y16602   4.318   0.177   4.876 -1.1990 -2.0552  1.4666
  150SAPE  C31816603   4.323   0.084   4.674 -0.2280 -0.5467 -0.3357
  150SAPE  H18X16604   4.381   0.001   4.628 -0.2192 -0.9604  0.3961
  150SAPE  H18Y16605   4.330   0.181   4.621  1.4997  0.5695  1.7471
  150SAPE  H18Z16606   4.217   0.052   4.679  0.3308 -2.3989  1.1289
  151SAPE     N16607   4.410   0.471   6.603 -0.0783 -1.6191 -0.9098
  151SAPE   HN116608   4.328   0.536   6.604  0.6152 -0.7089 -1.2253
  151SAPE   HN216609   4.401   0.388   6.664  0.8139 -0.7898  0.4073
  151SAPE   HN316610   4.482   0.531   6.649 -1.5880 -0.2895 -0.1974
  151SAPE   C1216611   4.465   0.445   6.465  0.2565 -0.2897 -0.1881
  151SAPE  H12A16612   4.507   0.540   6.426  0.5112 -0.4150 -0.2172
  151SAPE  H12B16613   4.376   0.423   6.402 -0.5676  1.7996  0.1614
  151SAPE   C1116614   4.572   0.333   6.474  0.2494 -0.6403  0.4508
  151SAPE  H11A16615   4.640   0.351   6.387 -1.1131  1.1037 -0.3263
  151SAPE  H11B16616   4.521   0.235   6.461 -1.4650  0.4233 -1.5118
  151SAPE     P16617   4.747   0.233   6.641 -0.2604 -0.1661 -0.0250
  151SAPE   O1316618   4.762   0.242   6.790 -1.1754  0.1079  0.6615
  151SAPE   O1416619   4.700   0.103   6.591 -0.6847 -0.8403 -0.1222
  151SAPE   O1216620   4.638   0.340   6.598  0.0041  0.0682  0.3892
  151SAPE   O1116621   4.880   0.274   6.557 -0.2121  0.0452  0.0614
  151SAPE    C116622   4.906   0.417   6.553 -0.2760 -0.4969  0.3211
  151SAPE    HA16623   4.820   0.485   6.534 -0.8088 -1.4305 -0.6991
  151SAPE    HB16624   4.939   0.451   6.654 -0.8681  0.8811  0.0775
  151SAPE    C216625   5.011   0.454   6.445  0.0759 -0.3365 -0.0969
  151SAPE    HS16626   5.039   0.561   6.454  1.5938 -0.6702 -0.5268
  151SAPE   O2116627   4.980   0.428   6.313  0.3258 -0.0940  0.0852
  151SAPE   C2116628   4.878   0.495   6.265  0.1901  0.0155 -0.4547
  151SAPE   O2216629   4.829   0.592   6.327 -0.6196  1.0572  0.1638
  151SAPE   C2216630   4.829   0.446   6.130 -0.9354 -0.5514  0.5938
  151SAPE   H2R16631   4.907   0.381   6.086 -1.9863 -1.1638 -0.4162
  151SAPE   H2S16632   4.738   0.384   6.146 -2.4528  1.8071  1.7329
  151SAPE    C316633   5.142   0.370   6.476 -0.1278 -0.5188 -0.3341
  151SAPE    HX16634   5.116   0.263   6.459 -0.8816 -0.8292  2.2775
  151SAPE    HY16635   5.164   0.375   6.585  1.7578  1.8897 -0.7282
  151SAPE   O3116636   5.253   0.415   6.400 -0.5388  0.3271 -0.9764
  151SAPE   C3116637   5.279   0.346   6.291 -0.5696  0.0672 -0.3785
  151SAPE   O3216638   5.216   0.252   6.247 -0.1086 -0.3253  0.3612
  151SAPE   C3216639   5.390   0.414   6.214 -0.4256 -0.2705  0.2409
  151SAPE   H2X16640   5.480   0.435   6.275 -1.8992  0.2485  2.3526
  151SAPE   H2Y16641   5.344   0.512   6.188  0.7499  0.8494  2.1565
  151SAPE   C2316642   4.796   0.567   6.033  0.3484 -0.5501  0.1372
  151SAPE   H3R16643   4.882   0.636   6.017 -1.1083  1.0880 -0.9655
  151SAPE   H3S16644   4.713   0.629   6.073 -0.3725 -0.8885 -0.8155
  151SAPE   C2416645   4.748   0.513   5.899  0.1833 -0.7195  0.5551
  151SAPE   H4R16646   4.667   0.579   5.861  1.5873  2.7051  3.0081
  151SAPE   H4S16647   4.712   0.408   5.907  0.7421 -0.9165  0.5512
  151SAPE   C2516648   4.846   0.515   5.785  0.4206 -0.2947 -0.4743
  151SAPE   H5R16649   4.860   0.619   5.753  0.6085 -0.4628 -0.9423
  151SAPE   C2616650   4.911   0.410   5.731 -1.2902 -0.4972 -0.3325
  151SAPE   H6R16651   4.996   0.438   5.667 -0.7099 -0.0858  0.5999
  151SAPE   C2716652   4.888   0.263   5.752  0.4647 -0.0881  0.3549
  151SAPE   H7R16653   4.850   0.233   5.652  1.9092  1.2062 -0.6314
  151SAPE   H7S16654   4.814   0.242   5.832  0.5823  1.0405  0.7699
  151SAPE   C2816655   5.012   0.181   5.781  0.1019 -0.4898 -0.0006
  151SAPE   H8R16656   5.041   0.182   5.887 -0.2312  0.0615  0.0916
  151SAPE   C2916657   5.088   0.121   5.687 -0.1941 -0.2377  0.2731
  151SAPE   H9R16658   5.174   0.060   5.717  0.1162  0.7628  1.4588
  151SAPE  C21016659   5.074   0.125   5.534 -0.2383  0.2412 -0.6159
  151SAPE  H10R16660   5.110   0.221   5.492  0.3181  1.0176  1.5034
  151SAPE  H10S16661   4.967   0.124   5.506 -1.1273  1.4754  2.3433
  151SAPE  C21116662   5.154   0.019   5.461  0.2616  0.5036 -0.3582
  151SAPE  H11R16663   5.179  -0.073   5.516  1.1468  0.2178 -1.2160
  151SAPE  C21216664   5.176   0.029   5.329 -0.1820  0.6253  1.1675
  151SAPE  H12R16665   5.230  -0.050   5.276  2.1920  1.5742  2.0352
  151SAPE  C21316666   5.137   0.152   5.246  0.5136 -0.2448 -0.4448
  151SAPE  H13R16667   5.143   0.248   5.302  0.1103 -0.9539  0.8598
  151SAPE  H13S16668   5.033   0.148   5.210 -0.0656 -0.2936  1.1402
  151SAPE  C21416669   5.224   0.172   5.132 -0.1826 -0.8068  0.3244
  151SAPE  H14R16670   5.330   0.176   5.159 -0.2006 -0.1958  0.3174
  151SAPE  C21516671   5.181   0.202   5.006  0.0182  0.5178 -0.3328
  151SAPE  H15R16672   5.251   0.241   4.931  1.2989 -1.4696 -0.2317
  151SAPE  C21616673   5.044   0.201   4.961  0.0638  0.2801  0.1411
  151SAPE  H16R16674   4.987   0.112   4.997  2.1346 -0.4004  1.9224
  151SAPE  H16S16675   5.049   0.180   4.852 -0.7924  2.3250 -0.3442
  151SAPE  C21716676   4.979   0.338   4.981  0.6470  0.4481  0.4350
  151SAPE  H17R16677   5.034   0.426   4.943 -0.8471  1.6800  1.0221
  151SAPE  H17S16678   4.987   0.362   5.089 -0.7908  0.0566  0.6582
  151SAPE  C21816679   4.842   0.338   4.930  0.2401 -0.1114  0.1658
  151SAPE  H18R16680   4.786   0.419   4.982  2.0939  0.8317  0.7768
  151SAPE  H18S16681   4.790   0.243   4.957 -0.6078  0.5727  1.0258
  151SAPE  C21916682   4.837   0.343   4.778 -1.1534 -0.6244  0.4909
  151SAPE  H19R16683   4.892   0.256   4.735 -0.6577 -0.4855  0.8309
  151SAPE  H19S16684   4.897   0.433   4.751 -1.4678 -0.5204  0.1411
  151SAPE  C22016685   4.701   0.338   4.706 -0.0565 -0.5030 -0.6039
  151SAPE  H20R16686   4.633   0.419   4.739  0.6762  0.2185 -0.8153
  151SAPE  H20S16687   4.653   0.241   4.733  2.3969 -1.4410  0.7385
  151SAPE  H20T16688   4.698   0.347   4.596 -1.0491 -0.9277 -0.6183
  151SAPE   C3316689   5.421   0.329   6.080  0.3257  0.7071 -0.8610
  151SAPE   H3X16690   5.324   0.321   6.026 -0.0545 -0.4218 -0.0495
  151SAPE   H3Y16691   5.429   0.223   6.114 -1.8861  0.6271 -0.3896
  151SAPE   C3416692   5.530   0.382   5.999  0.1941  0.3666  0.4808
  151SAPE   H4X16693   5.627   0.359   6.048  0.0757  0.8610  0.9564
  151SAPE   H4Y16694   5.519   0.492   5.989 -3.4503  0.1848  1.0871
  151SAPE   C3516695   5.518   0.317   5.862 -0.5426 -0.1771 -0.1733
  151SAPE   H5X16696   5.435   0.360   5.802 -1.4837 -0.8440  0.6015
  151SAPE   H5Y16697   5.497   0.209   5.877  1.2358 -0.6489 -0.8425
  151SAPE   C3616698   5.659   0.332   5.799  0.0058  0.3313 -0.2133
  151SAPE   H6X16699   5.733   0.288   5.869  0.6742  2.9848  0.8448
  151SAPE   H6Y16700   5.668   0.442   5.794  0.3355  0.4589  2.0951
  151SAPE   C3716701   5.663   0.272   5.660  0.8124 -0.0060  0.3684
  151SAPE   H7X16702   5.620   0.170   5.663  2.8146 -1.1803 -3.4599
  151SAPE   H7Y16703   5.769   0.268   5.627  0.8668  0.4418  0.4876
  151SAPE   C3816704   5.575   0.350   5.553  0.5901 -0.1732  1.2152
  151SAPE   H8X16705   5.606   0.455   5.573  1.8463 -0.6133  1.6511
  151SAPE   H8Y16706   5.465   0.345   5.574 -0.2137 -0.3630 -2.4685
  151SAPE   C3916707   5.609   0.298   5.412  0.2705  0.2506 -0.2931
  151SAPE   H9X16708   5.594   0.191   5.438  0.8118  0.2502  0.0396
  151SAPE   H9Y16709   5.712   0.332   5.388  0.1933  1.6394  1.2424
  151SAPE  C31016710   5.518   0.344   5.300  0.5814  0.3168 -0.6056
  151SAPE  H10X16711   5.419   0.294   5.291  0.5150  0.7007 -2.5568
  151SAPE  H10Y16712   5.577   0.316   5.210  1.9957  1.8270 -0.1789
  151SAPE  C31116713   5.500   0.500   5.282  0.0423 -0.1135 -0.0268
  151SAPE  H11X16714   5.597   0.548   5.258 -0.7636  2.2981  1.1540
  151SAPE  H11Y16715   5.452   0.546   5.371 -2.1655 -0.2401 -1.0742
  151SAPE  C31216716   5.409   0.539   5.163  0.2454  0.0551  0.2271
  151SAPE  H12X16717   5.302   0.512   5.169  0.1167  0.5224  0.0756
  151SAPE  H12Y16718   5.447   0.484   5.074  0.4014  1.9965 -0.9725
  151SAPE  C31316719   5.413   0.693   5.133  0.3877  0.1719  0.7470
  151SAPE  H13X16720   5.515   0.722   5.101  0.2834 -0.6269 -0.3792
  151SAPE  H13Y16721   5.371   0.748   5.219 -0.8164  0.6877 -0.1435
  151SAPE  C31416722   5.317   0.714   5.015  0.2179  0.1765  0.1892
  151SAPE  H14X16723   5.313   0.822   4.990  1.2621 -0.2526 -2.2049
  151SAPE  H14Y16724   5.213   0.678   5.031 -0.5988  1.5112 -1.7172
  151SAPE  C31516725   5.358   0.648   4.884 -0.1452  0.9618  0.7143
  151SAPE  H15X16726   5.331   0.542   4.864 -2.8513  1.1114  2.9829
  151SAPE  H15Y16727   5.469   0.641   4.878 -0.1396  0.3227  1.4368
  151SAPE  C31616728   5.302   0.717   4.758 -0.5265  0.0291 -0.7766
  151SAPE  H16X16729   5.320   0.827   4.752 -2.2328  0.2549 -3.5173
  151SAPE  H16Y16730   5.193   0.697   4.761 -0.2747 -1.3212 -0.2085
  151SAPE  C31716731   5.352   0.663   4.623  0.1261 -0.2414  0.1072
  151SAPE  H17X16732   5.282   0.709   4.551  0.4007 -3.8665 -2.7753
  151SAPE  H17Y16733   5.323   0.555   4.622  0.0115 -0.2360  1.2679
  151SAPE  C31816734   5.503   0.674   4.595  0.0331  0.0919 -0.7486
  151SAPE  H18X16735   5.532   0.780   4.583 -2.4503  0.9046 -0.2233
  151SAPE  H18Y16736   5.546   0.616   4.510  1.3874  0.7300 -0.5159
  151SAPE  H18Z16737   5.557   0.644   4.687 -1.0752  0.9116  0.1960
  152SAPE     N16738   1.022   1.993   6.060  0.1463 -0.2007 -0.2181
  152SAPE   HN116739   1.095   2.062   6.087  0.9586 -0.7968 -0.8358
  152SAPE   HN216740   1.006   1.934   6.144  1.1040 -3.3452 -2.0474
  152SAPE   HN316741   1.060   1.933   5.984 -3.6653 -2.4398 -0.6043
  152SAPE   C1216742   0.888   2.045   6.018 -0.7623 -0.0164  0.4040
  152SAPE  H12A16743   0.902   2.110   5.929 -2.8747  0.0848  0.0763
  152SAPE  H12B16744   0.839   2.104   6.099 -1.5106 -0.4079  0.2526
  152SAPE   C1116745   0.787   1.933   5.972  0.3036  0.3040 -0.3241
  152SAPE  H11A16746   0.844   1.884   5.890  1.2142  0.3801  0.2545
  152SAPE  H11B16747   0.693   1.981   5.938 -0.9017  0.1921  2.5619
  152SAPE     P16748   0.785   1.698   6.084 -0.0973  0.2844 -0.0620
  152SAPE   O1316749   0.935   1.690   6.100 -0.1357 -0.0079  0.2268
  152SAPE   O1416750   0.704   1.621   6.181 -0.9191 -0.1047  0.3881
  152SAPE   O1216751   0.744   1.842   6.077  0.3807  0.0973 -0.6090
  152SAPE   O1116752   0.752   1.651   5.939 -0.1623 -0.6025  0.4915
  152SAPE    C116753   0.624   1.599   5.919  0.6636  0.5546  0.1530
  152SAPE    HA16754   0.599   1.515   5.987 -0.3090 -0.8874 -1.8761
  152SAPE    HB16755   0.547   1.678   5.921  0.1526  0.0690 -0.0101
  152SAPE    C216756   0.609   1.539   5.774  0.1795 -0.1636 -0.0414
  152SAPE    HS16757   0.503   1.521   5.749  0.3780 -1.7161  0.1014
  152SAPE   O2116758   0.675   1.412   5.783 -0.1244 -0.3144  0.2456
  152SAPE   C2116759   0.651   1.335   5.670  0.0729 -0.3490  0.0620
  152SAPE   O2216760   0.579   1.377   5.581  0.1585 -0.1456  0.7836
  152SAPE   C2216761   0.718   1.201   5.681  0.7694  0.5442  0.5697
  152SAPE   H2R16762   0.813   1.205   5.625  0.4396 -0.9020 -0.1512
  152SAPE   H2S16763   0.745   1.186   5.787 -1.9994  1.3235  1.4828
  152SAPE    C316764   0.669   1.640   5.666  0.2521  0.7018  0.3237
  152SAPE    HX16765   0.660   1.583   5.571 -1.1368  1.9684 -0.3431
  152SAPE    HY16766   0.770   1.663   5.707  0.2192 -0.6576  1.2541
  152SAPE   O3116767   0.582   1.753   5.652  0.1354 -0.1679  0.3576
  152SAPE   C3116768   0.639   1.843   5.575 -0.9242  0.1470 -0.2430
  152SAPE   O3216769   0.752   1.833   5.528  0.1908 -0.2139 -0.0537
  152SAPE   C3216770   0.545   1.958   5.546 -0.8222 -0.9353  0.1612
  152SAPE   H2X16771   0.612   2.036   5.503 -0.5646 -0.6560  1.0472
  152SAPE   H2Y16772   0.506   2.001   5.641 -0.2111  0.6636 -0.2680
  152SAPE   C2316773   0.613   1.098   5.635  0.2476 -0.8046  0.1943
  152SAPE   H3R16774   0.515   1.122   5.681  0.0753  1.7692 -1.3367
  152SAPE   H3S16775   0.649   1.000   5.674  1.3209 -1.1756 -1.6101
  152SAPE   C2416776   0.598   1.086   5.482  0.5210  0.3267  0.2612
  152SAPE   H4R16777   0.700   1.091   5.439  0.1488  2.4579 -0.4758
  152SAPE   H4S16778   0.559   1.177   5.432  0.6989  0.4176  0.2884
  152SAPE   C2516779   0.524   0.960   5.432 -0.6280 -0.2799 -0.3434
  152SAPE   H5R16780   0.448   0.928   5.505 -0.9512  0.4146 -0.3663
  152SAPE   C2616781   0.536   0.905   5.305 -0.0950  0.5220  0.3346
  152SAPE   H6R16782   0.481   0.811   5.291 -0.2162  0.4336  1.3042
  152SAPE   C2716783   0.623   0.967   5.199 -0.3124  0.0780 -0.8944
  152SAPE   H7R16784   0.697   0.887   5.175  1.5868  2.1567 -2.3199
  152SAPE   H7S16785   0.678   1.055   5.238  0.3068  0.2725 -2.1644
  152SAPE   C2816786   0.537   1.022   5.093 -0.0334 -0.2447 -0.1045
  152SAPE   H8R16787   0.467   1.100   5.126 -1.8052 -2.5296  1.8944
  152SAPE   C2916788   0.545   0.998   4.963 -0.1348  0.0499 -0.2956
  152SAPE   H9R16789   0.482   1.068   4.905 -1.5011  1.7889  3.0177
  152SAPE  C21016790   0.648   0.913   4.896 -0.5425 -0.3209 -0.0232
  152SAPE  H10R16791   0.726   0.876   4.966 -0.9521  1.0338  1.1882
  152SAPE  H10S16792   0.716   0.967   4.826  1.6148 -2.2986  0.4151
  152SAPE  C21116793   0.574   0.801   4.821 -0.2678  0.1586  0.1261
  152SAPE  H11R16794   0.502   0.745   4.883  0.6535  0.6188  1.6437
  152SAPE  C21216795   0.596   0.763   4.695  0.0873 -0.6942 -0.0500
  152SAPE  H12R16796   0.549   0.676   4.646 -0.8596  0.4184 -1.2035
  152SAPE  C21316797   0.692   0.823   4.597  0.8246  0.1219 -0.0573
  152SAPE  H13R16798   0.725   0.746   4.524 -1.3885  1.6989 -2.9014
  152SAPE  H13S16799   0.771   0.878   4.653 -2.8753  2.1843  3.6321
  152SAPE  C21416800   0.604   0.926   4.531  0.6094 -0.7624 -0.0484
  152SAPE  H14R16801   0.587   1.015   4.594  0.8244 -0.7688  0.0206
  152SAPE  C21516802   0.547   0.921   4.409  0.2749 -0.5065 -0.1040
  152SAPE  H15R16803   0.496   1.012   4.375 -0.2713 -1.3640 -1.6628
  152SAPE  C21616804   0.556   0.807   4.306 -0.2665 -0.4546  0.4908
  152SAPE  H16R16805   0.463   0.792   4.246  0.1140 -0.7359 -0.0292
  152SAPE  H16S16806   0.577   0.711   4.357 -0.1612 -0.8792 -0.3468
  152SAPE  C21716807   0.677   0.812   4.208  0.2832  0.8261 -0.8692
  152SAPE  H17R16808   0.766   0.800   4.274 -0.2254  0.2668 -0.2684
  152SAPE  H17S16809   0.680   0.914   4.163 -1.8163  1.3698  0.0657
  152SAPE  C21816810   0.683   0.704   4.093 -0.2921 -0.0384 -1.0955
  152SAPE  H18R16811   0.613   0.621   4.117  1.0517 -2.2344 -4.1168
  152SAPE  H18S16812   0.787   0.667   4.078 -0.6681 -2.6098  1.6900
  152SAPE  C21916813   0.640   0.745   3.955  0.6078 -0.2349 -0.1685
  152SAPE  H19R16814   0.699   0.831   3.918 -0.5175  1.0951  1.0034
  152SAPE  H19S16815   0.534   0.771   3.976  1.3405  1.3943  1.8459
  152SAPE  C22016816   0.656   0.627   3.864  0.0749 -0.1332  0.4334
  152SAPE  H20R16817   0.765   0.610   3.866  0.0354 -0.3940  2.1582
  152SAPE  H20S16818   0.620   0.654   3.763  1.3185  2.3169  0.5687
  152SAPE  H20T16819   0.602   0.540   3.908 -0.2168  0.3443  1.0351
  152SAPE   C3316820   0.437   1.918   5.443 -0.5638  0.3613 -0.5246
  152SAPE   H3X16821   0.378   2.008   5.416  0.0603  0.3604 -2.0383
  152SAPE   H3Y16822   0.374   1.836   5.482 -0.5180 -0.2371 -1.6658
  152SAPE   C3416823   0.515   1.872   5.315  0.5087  0.1623  0.4430
  152SAPE   H4X16824   0.546   1.766   5.326 -1.4068 -1.0619 -3.7592
  152SAPE   H4Y16825   0.603   1.934   5.285 -0.7378  1.2464 -1.1423
  152SAPE   C3516826   0.429   1.876   5.190 -0.1497  0.1358  0.7856
  152SAPE   H5X16827   0.364   1.966   5.180  0.7876  0.7535  0.0452
  152SAPE   H5Y16828   0.365   1.785   5.200  0.8336 -1.0116 -2.1082
  152SAPE   C3616829   0.503   1.881   5.063 -0.3508  0.2735 -0.4529
  152SAPE   H6X16830   0.569   1.792   5.077 -2.5079 -0.9825  3.0748
  152SAPE   H6Y16831   0.555   1.979   5.067  0.7572 -0.2856 -0.6265
  152SAPE   C3716832   0.418   1.881   4.939  0.2457 -1.1086 -0.2590
  152SAPE   H7X16833   0.366   1.977   4.917  1.6370 -0.1716  0.4300
  152SAPE   H7Y16834   0.332   1.813   4.956 -1.4987  1.1856  0.7271
  152SAPE   C3816835   0.498   1.828   4.813 -0.3610  0.4607 -0.4182
  152SAPE   H8X16836   0.534   1.726   4.836  0.9055  0.8415 -0.6252
  152SAPE   H8Y16837   0.587   1.894   4.804  3.0651 -3.7123 -0.4841
  152SAPE   C3916838   0.429   1.825   4.682 -0.1290 -0.5088  0.3343
  152SAPE   H9X16839   0.395   1.923   4.644 -0.9284 -2.2094 -3.9204
  152SAPE   H9Y16840   0.337   1.764   4.692 -0.8994  0.4339 -0.7955
  152SAPE  C31016841   0.511   1.753   4.578 -0.2450  0.0729 -0.9111
  152SAPE  H10X16842   0.530   1.646   4.597  0.1029  0.1806 -0.6353
  152SAPE  H10Y16843   0.618   1.784   4.582  0.1308 -0.9294 -2.3244
  152SAPE  C31116844   0.466   1.764   4.438  0.0535  0.1475 -0.7135
  152SAPE  H11X16845   0.473   1.873   4.422 -2.8008  0.2788 -1.5436
  152SAPE  H11Y16846   0.365   1.722   4.419 -0.3615  1.9894 -3.0812
  152SAPE  C31216847   0.574   1.720   4.343 -0.4039  1.2781 -0.0449
  152SAPE  H12X16848   0.581   1.610   4.330  0.5090  1.2803  0.3256
  152SAPE  H12Y16849   0.673   1.760   4.372  1.1412 -2.0690 -0.2632
  152SAPE  C31316850   0.535   1.772   4.204  0.4671  0.2013  0.4731
  152SAPE  H13X16851   0.564   1.879   4.202  1.6609 -0.0904  1.0700
  152SAPE  H13Y16852   0.425   1.768   4.185  0.4341  0.0543  0.6932
  152SAPE  C31416853   0.610   1.690   4.092  0.8848  0.1606  0.1148
  152SAPE  H14X16854   0.711   1.665   4.132 -0.4041 -2.6866  1.9447
  152SAPE  H14Y16855   0.613   1.748   3.997 -2.5085  1.0508  0.4096
  152SAPE  C31516856   0.532   1.561   4.068  0.4653 -0.2621 -0.4416
  152SAPE  H15X16857   0.429   1.586   4.036  1.2648  1.8002 -1.6237
  152SAPE  H15Y16858   0.518   1.497   4.158 -0.5091 -0.0905 -0.4651
  152SAPE  C31616859   0.604   1.474   3.966 -0.1061 -0.5458  0.0559
  152SAPE  H16X16860   0.654   1.538   3.890  2.3435 -2.3014  0.1003
  152SAPE  H16Y16861   0.531   1.409   3.912 -0.7949 -0.5848  1.0002
  152SAPE  C31716862   0.715   1.384   4.011 -0.0551  0.5712 -0.3086
  152SAPE  H17X16863   0.682   1.306   4.083  3.6809 -0.7182  0.2079
  152SAPE  H17Y16864   0.794   1.444   4.060  0.2967 -0.7282  0.7749
  152SAPE  C31816865   0.783   1.314   3.895 -0.3952 -0.1213 -0.4119
  152SAPE  H18X16866   0.731   1.220   3.866  0.9391 -0.3860 -2.0623
  152SAPE  H18Y16867   0.884   1.295   3.937 -1.3841 -1.2302  1.6811
  152SAPE  H18Z16868   0.789   1.384   3.810  0.3716  0.6869  0.2819
  153SAPE     N16869   6.851   0.286   6.364 -0.3704  0.4995 -0.3757
  153SAPE   HN116870   6.838   0.285   6.261  0.0486  0.2989 -0.4314
  153SAPE   HN216871   6.822   0.197   6.409  1.4090 -0.3841 -0.8731
  153SAPE   HN316872   6.789   0.361   6.399  0.4076  1.5479 -1.1601
  153SAPE   C1216873   6.992   0.318   6.402  0.3039  0.2515 -0.4999
  153SAPE  H12A16874   7.052   0.248   6.339 -1.6935 -0.7424 -1.3882
  153SAPE  H12B16875   7.013   0.305   6.510 -0.4559  1.0809 -0.2422
  153SAPE   C1116876   7.022   0.453   6.351  0.4381 -0.3970 -0.0022
  153SAPE  H11A16877   7.033   0.445   6.241  0.4237 -0.7465  0.0217
  153SAPE  H11B16878   7.120   0.472   6.399  1.4960 -2.9839 -0.9608
  153SAPE     P16879   6.955   0.698   6.357 -0.1184 -0.0788  0.3405
  153SAPE   O1316880   6.837   0.755   6.283  0.3741  0.2066 -0.1951
  153SAPE   O1416881   6.990   0.761   6.484  0.0370 -0.3799 -0.3442
  153SAPE   O1216882   6.917   0.549   6.384 -0.2491  0.1984  0.3508
  153SAPE   O1116883   7.077   0.707   6.257  0.0603  0.8534  0.1956
  153SAPE    C116884   7.105   0.841   6.205 -0.8650 -0.0834 -0.4347
  153SAPE    HA16885   7.055   0.924   6.260  0.2964  0.1658  0.2821
  153SAPE    HB16886   7.212   0.864   6.222 -1.0478  1.5353 -1.3241
  153SAPE    C216887   7.064   0.855   6.060  0.6742  0.2086 -0.3544
  153SAPE    HS16888   6.955   0.838   6.055  0.5496  0.5096  1.1099
  153SAPE   O2116889   7.148   0.756   5.988  0.6961  0.4685 -0.2814
  153SAPE   C2116890   7.081   0.705   5.887 -0.1301  0.3313  0.4333
  153SAPE   O2216891   6.965   0.727   5.860 -0.0728  0.3838  0.1690
  153SAPE   C2216892   7.183   0.625   5.802  0.1591  0.2994 -0.0036
  153SAPE   H2R16893   7.225   0.690   5.722 -0.6936  0.8601 -0.0129
  153SAPE   H2S16894   7.265   0.583   5.863  0.7492 -0.5832 -1.3654
  153SAPE    C316895   7.099   0.995   6.003 -0.3893  0.2963  0.6530
  153SAPE    HX16896   7.207   1.012   6.021 -0.1257 -0.1958 -0.3920
  153SAPE    HY16897   7.047   1.069   6.068  2.1502  0.8022  2.2382
  153SAPE   O3116898   7.046   1.005   5.865 -0.2206 -0.3741 -0.5887
  153SAPE   C3116899   7.124   1.083   5.786  0.3363 -0.3438  0.4282
  153SAPE   O3216900   7.222   1.144   5.825 -0.5869 -0.1237  0.1647
  153SAPE   C3216901   7.065   1.089   5.642  0.0748 -0.1392  0.1128
  153SAPE   H2X16902   7.135   1.150   5.581  0.1267  0.6046  0.9013
  153SAPE   H2Y16903   6.969   1.144   5.653 -0.3707 -0.8033 -0.3347
  153SAPE   C2316904   7.115   0.505   5.738  0.0249  0.7672  0.3199
  153SAPE   H3R16905   7.035   0.530   5.666 -0.9876 -0.5841  0.9358
  153SAPE   H3S16906   7.066   0.431   5.805  2.2582 -1.3940 -0.2605
  153SAPE   C2416907   7.222   0.409   5.672  0.2292 -0.4235  0.6483
  153SAPE   H4R16908   7.164   0.341   5.606  1.1167 -0.4276 -0.1445
  153SAPE   H4S16909   7.267   0.344   5.750 -1.0741 -0.8729  1.0557
  153SAPE   C2516910   7.339   0.476   5.603 -0.7619 -0.3629  0.2994
  153SAPE   H5R16911   7.406   0.530   5.672 -1.6119 -1.5649  2.1271
  153SAPE   C2616912   7.390   0.453   5.485  0.4132  0.7032 -0.3159
  153SAPE   H6R16913   7.483   0.508   5.464  0.8010  0.1268 -0.1336
  153SAPE   C2716914   7.344   0.376   5.365 -0.3216 -0.1803  0.7768
  153SAPE   H7R16915   7.244   0.330   5.373  1.1071 -3.9610 -0.8958
  153SAPE   H7S16916   7.412   0.289   5.355  0.7741  0.6875  0.4259
  153SAPE   C2816917   7.357   0.455   5.239  0.0541  0.0552 -0.3873
  153SAPE   H8R16918   7.355   0.564   5.251  1.0422 -0.0540  1.1852
  153SAPE   C2916919   7.375   0.416   5.108 -0.3947  0.1817 -0.5842
  153SAPE   H9R16920   7.391   0.488   5.026  0.6475 -1.5764 -1.9960
  153SAPE  C21016921   7.391   0.274   5.055  0.3837  0.1794  0.1594
  153SAPE  H10R16922   7.380   0.200   5.137  0.7389 -1.9562 -1.6110
  153SAPE  H10S16923   7.489   0.250   5.008  1.2536  1.8406  1.0494
  153SAPE  C21116924   7.285   0.264   4.947  0.0822  0.7410  0.3169
  153SAPE  H11R16925   7.182   0.289   4.977 -0.7973  0.7615 -2.4195
  153SAPE  C21216926   7.303   0.209   4.821  0.0842  0.0605  0.0171
  153SAPE  H12R16927   7.216   0.205   4.753  0.7919  2.3170 -1.1393
  153SAPE  C21316928   7.439   0.156   4.774 -0.1008 -0.0018 -0.1683
  153SAPE  H13R16929   7.457   0.054   4.814  2.9642  0.2147 -0.7568
  153SAPE  H13S16930   7.525   0.210   4.820 -0.3617 -0.9627  1.5497
  153SAPE  C21416931   7.447   0.154   4.626 -0.3348 -0.5846 -0.3955
  153SAPE  H14R16932   7.507   0.243   4.600 -0.2961 -0.3223  0.5767
  153SAPE  C21516933   7.416   0.055   4.535  0.2113  0.0035 -0.6524
  153SAPE  H15R16934   7.425   0.088   4.430 -2.1788  0.4669 -0.7628
  153SAPE  C21616935   7.340  -0.078   4.552  0.0597  0.3422  0.2460
  153SAPE  H16R16936   7.236  -0.071   4.513  0.3951  2.4314 -0.3491
  153SAPE  H16S16937   7.327  -0.103   4.659  2.6656  0.6860  0.7040
  153SAPE  C21716938   7.404  -0.206   4.491  0.2372 -0.6429  0.3897
  153SAPE  H17R16939   7.386  -0.204   4.382 -1.3130  2.1778  0.6060
  153SAPE  H17S16940   7.337  -0.286   4.529  1.6920 -1.4605  1.3303
  153SAPE  C21816941   7.548  -0.234   4.533 -0.0341  0.1703 -0.2238
  153SAPE  H18R16942   7.564  -0.219   4.642 -2.3865  0.7928  0.0857
  153SAPE  H18S16943   7.620  -0.172   4.475  0.9960  0.5374  1.3833
  153SAPE  C21916944   7.602  -0.366   4.487 -0.2247 -0.1876  0.4282
  153SAPE  H19R16945   7.564  -0.394   4.386  1.2733 -0.2922 -0.1394
  153SAPE  H19S16946   7.563  -0.440   4.559 -1.0204  0.2246  0.4290
  153SAPE  C22016947   7.754  -0.377   4.484 -0.0197  0.2094 -0.0005
  153SAPE  H20R16948   7.801  -0.297   4.424 -1.8447  0.2055 -1.5084
  153SAPE  H20S16949   7.791  -0.475   4.445 -0.5766 -0.2272  0.5429
  153SAPE  H20T16950   7.785  -0.360   4.590 -0.2037 -0.7818  0.2205
  153SAPE   C3316951   7.054   0.940   5.586  0.5356 -0.5886 -0.5134
  153SAPE   H3X16952   6.958   0.897   5.621 -2.3169  3.7057 -2.2637
  153SAPE   H3Y16953   7.139   0.875   5.617  1.1962  0.9119  1.0516
  153SAPE   C3416954   7.045   0.955   5.435 -0.4140  0.0428  0.2786
  153SAPE   H4X16955   7.131   1.014   5.398 -0.1990  0.2547  1.0998
  153SAPE   H4Y16956   6.956   1.011   5.397 -1.5507 -0.2105  2.3735
  153SAPE   C3516957   7.045   0.810   5.372 -0.2469 -0.0008 -0.8918
  153SAPE   H5X16958   6.980   0.745   5.434  0.1097  0.3167 -0.1741
  153SAPE   H5Y16959   7.145   0.763   5.373 -1.0678 -1.8610  1.1407
  153SAPE   C3616960   6.997   0.805   5.225  0.1333 -0.0901  0.2745
  153SAPE   H6X16961   6.899   0.856   5.227  0.1697  0.0608 -0.8517
  153SAPE   H6Y16962   6.992   0.695   5.212  0.0562 -0.2479  1.5734
  153SAPE   C3716963   7.109   0.854   5.127  0.0912  0.1776 -0.6096
  153SAPE   H7X16964   7.200   0.794   5.148  0.2186 -0.3607 -2.5380
  153SAPE   H7Y16965   7.135   0.956   5.163  2.1053 -0.4289 -0.1852
  153SAPE   C3816966   7.078   0.845   4.981 -0.0731  0.1572  0.2007
  153SAPE   H8X16967   7.152   0.904   4.923 -1.4958  1.3446 -0.4893
  153SAPE   H8Y16968   6.981   0.896   4.961 -0.2942 -0.7636 -1.2498
  153SAPE   C3916969   7.062   0.694   4.948 -0.6051  0.0561  0.3751
  153SAPE   H9X16970   6.959   0.660   4.971 -1.7311  2.0067 -1.4447
  153SAPE   H9Y16971   7.133   0.632   5.008  0.4585 -0.4758 -1.3779
  153SAPE  C31016972   7.115   0.665   4.802 -0.3049 -1.1022 -0.0866
  153SAPE  H10X16973   7.225   0.671   4.809 -0.3672  1.2554 -0.4965
  153SAPE  H10Y16974   7.082   0.732   4.720  1.2422 -1.9947 -1.4977
  153SAPE  C31116975   7.080   0.525   4.754  0.3779 -0.4633 -0.8305
  153SAPE  H11X16976   6.973   0.526   4.724  0.5248 -1.2243 -1.4238
  153SAPE  H11Y16977   7.095   0.453   4.838  0.3859  2.0175  1.4195
  153SAPE  C31216978   7.149   0.475   4.623  0.6438  0.2519 -0.5226
  153SAPE  H12X16979   7.095   0.379   4.609  0.9915  0.0180 -0.2950
  153SAPE  H12Y16980   7.253   0.446   4.649  0.4058  0.0882  0.2911
  153SAPE  C31316981   7.144   0.558   4.503 -0.6958 -0.3373 -1.0141
  153SAPE  H13X16982   7.190   0.655   4.532 -0.2467 -1.1448  1.1604
  153SAPE  H13Y16983   7.038   0.571   4.473 -0.8265  1.2718  0.0419
  153SAPE  C31416984   7.220   0.514   4.380 -0.4632  0.1613  0.1797
  153SAPE  H14X16985   7.323   0.507   4.420 -0.5331 -1.9902  0.0678
  153SAPE  H14Y16986   7.217   0.594   4.302 -1.2784 -1.7263 -1.8485
  153SAPE  C31516987   7.182   0.385   4.304 -0.2160 -0.2472 -0.0852
  153SAPE  H15X16988   7.078   0.400   4.265  0.3437  1.1805 -1.1259
  153SAPE  H15Y16989   7.180   0.299   4.374  0.4528 -0.1740  0.0234
  153SAPE  C31616990   7.286   0.357   4.201  0.5949  0.2706  0.6282
  153SAPE  H16X16991   7.384   0.332   4.248  0.3936 -0.0595  0.8725
  153SAPE  H16Y16992   7.300   0.450   4.142 -0.1460  0.2340  0.3877
  153SAPE  C31716993   7.241   0.248   4.096 -0.6235 -0.0877  0.3768
  153SAPE  H17X16994   7.139   0.268   4.058 -0.9294 -0.2307  1.1184
  153SAPE  H17Y16995   7.230   0.154   4.154 -3.0462 -0.8615 -1.1694
  153SAPE  C31816996   7.348   0.222   3.993 -0.5002  0.3319 -0.0577
  153SAPE  H18X16997   7.374   0.318   3.942  0.8967  1.1760  2.1249
  153SAPE  H18Y16998   7.303   0.154   3.917 -0.8108  1.1465 -0.6150
  153SAPE  H18Z16999   7.432   0.168   4.041 -1.8122  0.0931  2.1028
  154SAPE     N17000   4.898   5.268   6.512  0.2042  0.2748 -0.3586
  154SAPE   HN117001   4.825   5.321   6.563  0.1078  0.8157 -1.0346
  154SAPE   HN217002   4.904   5.175   6.558  2.0973  1.7481  2.6767
  154SAPE   HN317003   4.986   5.318   6.535  0.1585  0.3848 -0.4220
  154SAPE   C1217004   4.860   5.254   6.365  0.6048  0.9271  0.0080
  154SAPE  H12A17005   4.764   5.199   6.369 -0.1689  2.2955  0.9310
  154SAPE  H12B17006   4.943   5.197   6.316 -0.6286 -1.5549  0.6609
  154SAPE   C1117007   4.840   5.390   6.296 -0.4050 -0.1454 -0.6438
  154SAPE  H11A17008   4.780   5.373   6.204 -1.9199 -2.0974  0.6200
  154SAPE  H11B17009   4.931   5.445   6.264 -0.0312  1.5119  2.8206
  154SAPE     P17010   4.800   5.628   6.409 -0.4162 -0.1928 -0.3685
  154SAPE   O1317011   4.709   5.688   6.503 -0.1226 -0.1015  0.4022
  154SAPE   O1417012   4.943   5.649   6.445  0.2869  0.1163 -0.2098
  154SAPE   O1217013   4.766   5.473   6.387  0.1770 -0.0590  0.9585
  154SAPE   O1117014   4.771   5.694   6.271 -0.4029 -0.1120 -0.1477
  154SAPE    C117015   4.642   5.738   6.226  0.5801  0.1524 -0.0865
  154SAPE    HA17016   4.565   5.659   6.243 -0.0958  0.9174  0.4959
  154SAPE    HB17017   4.600   5.820   6.289 -1.7756 -0.6464 -0.4851
  154SAPE    C217018   4.633   5.783   6.075  0.3349 -0.0042 -0.6722
  154SAPE    HS17019   4.528   5.819   6.062 -1.3262 -1.9962  4.5420
  154SAPE   O2117020   4.662   5.665   6.001 -0.7795  0.0153  0.1338
  154SAPE   C2117021   4.632   5.676   5.869  0.2183  0.7215 -0.1571
  154SAPE   O2217022   4.574   5.770   5.815 -0.1749 -0.1793  0.3766
  154SAPE   C2217023   4.678   5.548   5.798 -0.2491  0.0382 -0.5538
  154SAPE   H2R17024   4.779   5.570   5.758  0.5125 -1.5366  0.4212
  154SAPE   H2S17025   4.695   5.469   5.874 -0.8694  0.5532  0.1280
  154SAPE    C317026   4.734   5.901   6.047  0.5786  0.4364  0.0842
  154SAPE    HX17027   4.828   5.842   6.039  0.3990  0.0745  0.5861
  154SAPE    HY17028   4.741   5.972   6.132  0.8780  0.3151  0.1636
  154SAPE   O3117029   4.707   5.974   5.928  0.1077  0.2901 -0.0351
  154SAPE   C3117030   4.599   6.052   5.901  0.6393  0.3771 -0.0484
  154SAPE   O3217031   4.500   6.064   5.977 -0.1617 -0.2745  0.1832
  154SAPE   C3217032   4.615   6.127   5.766 -0.1715 -0.0540  0.1180
  154SAPE   H2X17033   4.710   6.103   5.713  0.7496  1.4083  1.0090
  154SAPE   H2Y17034   4.623   6.235   5.792  0.7478  0.1310 -0.8819
  154SAPE   C2317035   4.595   5.498   5.678  0.0112  0.6699  0.4423
  154SAPE   H3R17036   4.574   5.588   5.615 -2.6631  1.5548  2.4234
  154SAPE   H3S17037   4.507   5.455   5.729 -1.4214  1.8899 -0.8852
  154SAPE   C2417038   4.678   5.389   5.608 -0.0224  0.0750  0.0140
  154SAPE   H4R17039   4.716   5.316   5.682 -0.9564 -1.0519 -0.5946
  154SAPE   H4S17040   4.775   5.436   5.582  0.1296 -0.9929 -1.5101
  154SAPE   C2517041   4.604   5.340   5.484  0.3698 -0.2781 -0.0963
  154SAPE   H5R17042   4.542   5.411   5.428 -0.7071 -1.5986 -0.6559
  154SAPE   C2617043   4.614   5.221   5.436 -0.1896  0.0463 -0.0361
  154SAPE   H6R17044   4.564   5.195   5.341 -0.0004  0.7762 -0.3422
  154SAPE   C2717045   4.695   5.101   5.496  0.3159 -0.2636  0.1922
  154SAPE   H7R17046   4.721   5.114   5.603  2.5001  0.6700 -0.4049
  154SAPE   H7S17047   4.795   5.105   5.448 -0.9260 -3.6187 -3.1130
  154SAPE   C2817048   4.614   4.976   5.478 -0.9021 -0.0861  0.4239
  154SAPE   H8R17049   4.532   4.963   5.550 -1.6700 -0.9431 -0.5820
  154SAPE   C2917050   4.648   4.866   5.404 -0.7511  0.9049 -1.1417
  154SAPE   H9R17051   4.574   4.784   5.410 -0.5206  0.7954  1.3404
  154SAPE  C21017052   4.778   4.841   5.330  0.4241 -0.0606  0.3015
  154SAPE  H10R17053   4.809   4.739   5.363 -1.3109 -0.0136  2.2725
  154SAPE  H10S17054   4.853   4.912   5.372  1.1499  0.0060 -1.0525
  154SAPE  C21117055   4.755   4.846   5.179 -0.5507  0.2170  0.3052
  154SAPE  H11R17056   4.784   4.936   5.122 -0.1357 -0.0249  0.1356
  154SAPE  C21217057   4.719   4.741   5.101  0.7628 -0.0742  0.0026
  154SAPE  H12R17058   4.697   4.752   4.994 -1.8582  1.5117  0.6113
  154SAPE  C21317059   4.675   4.603   5.155  0.0214  0.3820 -0.1255
  154SAPE  H13R17060   4.687   4.597   5.266 -0.4416  0.1154 -0.0869
  154SAPE  H13S17061   4.735   4.521   5.109 -0.2635 -0.1111  0.3682
  154SAPE  C21417062   4.532   4.579   5.118  0.5936  0.6746  0.1004
  154SAPE  H14R17063   4.460   4.639   5.176 -0.6983 -0.3686 -0.3799
  154SAPE  C21517064   4.483   4.493   5.025  0.0918 -0.3402 -0.4356
  154SAPE  H15R17065   4.375   4.477   5.014  0.2706 -1.0902 -1.1691
  154SAPE  C21617066   4.564   4.404   4.940 -0.0772 -0.2964 -0.1869
  154SAPE  H16R17067   4.673   4.417   4.949 -0.1894 -0.0077  0.9131
  154SAPE  H16S17068   4.531   4.422   4.835 -0.8650  0.6844  0.2089
  154SAPE  C21717069   4.537   4.259   4.986  0.0376  0.4622 -0.0623
  154SAPE  H17R17070   4.430   4.239   4.967 -0.5155  2.0866  1.1644
  154SAPE  H17S17071   4.554   4.244   5.095  0.9368 -0.1643 -0.2754
  154SAPE  C21817072   4.624   4.162   4.907 -0.5678  1.1396 -0.4482
  154SAPE  H18R17073   4.613   4.060   4.950 -1.2798  0.9525 -1.0481
  154SAPE  H18S17074   4.732   4.176   4.928  0.1129 -3.0633 -0.3038
  154SAPE  C21917075   4.597   4.165   4.756  0.4012  0.4466  0.3888
  154SAPE  H19R17076   4.519   4.241   4.733  0.2159  0.3604  0.7241
  154SAPE  H19S17077   4.555   4.071   4.716  1.8557  0.3761 -1.0896
  154SAPE  C22017078   4.715   4.192   4.660 -0.0287 -0.6466  0.3400
  154SAPE  H20R17079   4.790   4.114   4.682 -0.4301 -1.1595 -0.0815
  154SAPE  H20S17080   4.760   4.293   4.674 -1.1272  0.0275 -0.7045
  154SAPE  H20T17081   4.685   4.190   4.553  1.6428 -0.9447 -0.1430
  154SAPE   C3317082   4.489   6.095   5.683  0.3902  0.1119  0.3545
  154SAPE   H3X17083   4.399   6.082   5.747 -0.3572  0.1248 -0.6825
  154SAPE   H3Y17084   4.513   6.000   5.630  0.2739  1.8424 -3.0106
  154SAPE   C3417085   4.454   6.202   5.580  0.2306 -0.3491 -0.5249
  154SAPE   H4X17086   4.420   6.291   5.636  1.0360 -1.4124  1.7716
  154SAPE   H4Y17087   4.367   6.168   5.518  0.4159 -0.1864 -0.8763
  154SAPE   C3517088   4.571   6.237   5.496  0.1111 -0.1152  0.6282
  154SAPE   H5X17089   4.618   6.156   5.437 -0.5486 -0.6779  0.8584
  154SAPE   H5Y17090   4.657   6.280   5.552  0.6868 -0.4898  0.0416
  154SAPE   C3617091   4.532   6.350   5.402 -0.2404 -0.0394 -0.4565
  154SAPE   H6X17092   4.613   6.403   5.349 -1.8045 -0.3520 -3.4073
  154SAPE   H6Y17093   4.481   6.427   5.463  1.9425  2.0007 -1.0638
  154SAPE   C3717094   4.434   6.308   5.290 -0.1348 -0.0612  0.8046
  154SAPE   H7X17095   4.338   6.291   5.345 -0.3211  0.4535  0.6449
  154SAPE   H7Y17096   4.468   6.216   5.239  0.5201  0.5253  0.1836
  154SAPE   C3817097   4.425   6.421   5.189  0.1499 -0.2567 -0.8386
  154SAPE   H8X17098   4.528   6.460   5.179  1.1894 -1.0180  4.0495
  154SAPE   H8Y17099   4.350   6.493   5.230  1.2757 -0.5148  1.9123
  154SAPE   C3917100   4.368   6.371   5.054 -0.6864 -0.5973 -1.0930
  154SAPE   H9X17101   4.259   6.359   5.073 -0.0733 -1.6365  2.5227
  154SAPE   H9Y17102   4.414   6.271   5.038  0.5642 -0.1897 -0.2060
  154SAPE  C31017103   4.398   6.469   4.949 -0.2963 -0.3620 -0.2207
  154SAPE  H10X17104   4.507   6.451   4.937 -0.2557  0.0887 -0.5643
  154SAPE  H10Y17105   4.383   6.575   4.979 -2.9443 -0.0693 -2.2145
  154SAPE  C31117106   4.319   6.452   4.812  0.3993 -0.7013 -0.1162
  154SAPE  H11X17107   4.217   6.496   4.821 -0.0177 -1.6378 -0.2228
  154SAPE  H11Y17108   4.305   6.344   4.791  2.6167 -0.8575 -0.9832
  154SAPE  C31217109   4.398   6.523   4.700  0.2991 -0.6060  0.7000
  154SAPE  H12X17110   4.483   6.460   4.667  0.5444  0.6993 -1.3336
  154SAPE  H12Y17111   4.446   6.614   4.743  1.0109 -0.7090  0.1382
  154SAPE  C31317112   4.324   6.574   4.576 -0.2320 -0.0549 -0.6732
  154SAPE  H13X17113   4.234   6.635   4.600  0.6548  1.0183  0.0312
  154SAPE  H13Y17114   4.299   6.481   4.519  0.5652 -0.0055 -1.1147
  154SAPE  C31417115   4.404   6.657   4.479 -0.3614 -0.2960  0.3386
  154SAPE  H14X17116   4.492   6.598   4.448 -1.8317 -0.9947 -2.8980
  154SAPE  H14Y17117   4.451   6.742   4.534 -0.8471 -0.7053  1.4160
  154SAPE  C31517118   4.338   6.692   4.346 -0.3383  0.5921 -0.5054
  154SAPE  H15X17119   4.327   6.595   4.293  2.7262  0.2708 -0.7733
  154SAPE  H15Y17120   4.408   6.757   4.288  0.3921  1.6120  1.4174
  154SAPE  C31617121   4.200   6.759   4.365 -0.4141 -0.4533 -0.2302
  154SAPE  H16X17122   4.212   6.828   4.452  0.7697 -1.0599  0.1205
  154SAPE  H16Y17123   4.136   6.671   4.388 -1.3447  0.7347  2.0811
  154SAPE  C31717124   4.135   6.831   4.251 -0.7583  0.1837  0.3336
  154SAPE  H17X17125   4.079   6.762   4.184  0.4836  0.4065 -0.9906
  154SAPE  H17Y17126   4.214   6.881   4.190 -1.9626  0.9064 -0.6883
  154SAPE  C31817127   4.041   6.939   4.300 -0.0260  0.3998 -0.1668
  154SAPE  H18X17128   4.092   7.016   4.361  0.8451 -2.0503  2.3926
  154SAPE  H18Y17129   3.978   6.883   4.372  1.2808 -1.3417 -0.3055
  154SAPE  H18Z17130   3.989   6.983   4.212  0.7455 -0.8296 -1.2855
  155SAPE     N17131   5.170   5.748   6.362  0.3117  0.1010 -0.4836
  155SAPE   HN117132   5.209   5.813   6.433 -1.6304  0.4863  0.2806
  155SAPE   HN217133   5.078   5.716   6.397 -0.9154  0.3047 -3.2354
  155SAPE   HN317134   5.235   5.667   6.368  1.3545  0.9989  0.8698
  155SAPE   C1217135   5.157   5.820   6.230  0.4538  0.3009 -0.0411
  155SAPE  H12A17136   5.140   5.739   6.156 -0.2370  0.9489 -0.6092
  155SAPE  H12B17137   5.248   5.874   6.195 -0.7401  2.1461 -0.4013
  155SAPE   C1117138   5.045   5.921   6.234  0.0965 -1.0242 -0.3587
  155SAPE  H11A17139   4.952   5.877   6.278 -0.7676  2.2476  1.3938
  155SAPE  H11B17140   5.032   5.964   6.132 -3.0251  2.9177  1.4283
  155SAPE     P17141   4.988   6.149   6.328  0.0957 -0.4342  0.2498
  155SAPE   O1317142   4.869   6.093   6.402 -0.3913 -0.4428  0.4139
  155SAPE   O1417143   5.057   6.262   6.396 -0.5844 -0.5043  0.1777
  155SAPE   O1217144   5.089   6.034   6.313  0.6705  0.4463 -0.1812
  155SAPE   O1117145   4.950   6.188   6.186 -0.8906  0.4818  0.4430
  155SAPE    C117146   4.944   6.324   6.147 -0.2619  0.6901  0.1653
  155SAPE    HA17147   4.892   6.393   6.217  1.2052  0.3330  1.6654
  155SAPE    HB17148   5.047   6.364   6.135  0.5870 -1.6750 -1.1469
  155SAPE    C217149   4.884   6.342   6.001  0.5452  0.1235  0.9546
  155SAPE    HS17150   4.913   6.441   5.959 -0.7627  1.5202  3.0879
  155SAPE   O2117151   4.745   6.321   6.006  0.4394 -0.2732 -0.5784
  155SAPE   C2117152   4.677   6.440   6.033  0.5717  0.1363 -0.2055
  155SAPE   O2217153   4.729   6.546   6.048 -0.0716  0.2555 -0.2864
  155SAPE   C2217154   4.526   6.414   6.045  0.0552  0.3207 -0.2255
  155SAPE   H2R17155   4.517   6.306   6.071  1.5811  0.9796  3.8546
  155SAPE   H2S17156   4.485   6.469   6.132 -1.3629  0.0223 -0.6845
  155SAPE    C317157   4.942   6.244   5.899 -0.2896  0.3859  0.9758
  155SAPE    HX17158   4.903   6.143   5.923 -1.8198  1.3054  2.5456
  155SAPE    HY17159   5.053   6.239   5.913  0.0216 -0.1409 -1.2908
  155SAPE   O3117160   4.905   6.272   5.756  0.3950  0.2302  0.0481
  155SAPE   C3117161   4.995   6.348   5.697 -1.0382 -0.1001  0.0250
  155SAPE   O3217162   5.085   6.406   5.751 -0.1504  0.1919  0.1446
  155SAPE   C3217163   4.981   6.344   5.543  1.4636  0.0737  0.0316
  155SAPE   H2X17164   4.918   6.259   5.509  0.5438  1.2440 -1.3071
  155SAPE   H2Y17165   5.082   6.317   5.505  0.6302 -2.3642 -0.5930
  155SAPE   C2317166   4.458   6.467   5.915  0.0244  0.8759  0.3273
  155SAPE   H3R17167   4.496   6.405   5.831 -3.6452  0.3630 -1.1272
  155SAPE   H3S17168   4.476   6.574   5.890 -2.7817  1.6791  1.3898
  155SAPE   C2417169   4.305   6.442   5.910  0.1801 -0.3737  0.2644
  155SAPE   H4R17170   4.267   6.508   5.991 -0.6211 -1.0208  0.4419
  155SAPE   H4S17171   4.285   6.334   5.929  2.2710 -0.5274  2.0510
  155SAPE   C2517172   4.254   6.499   5.777  0.3041  0.5523 -0.5950
  155SAPE   H5R17173   4.304   6.586   5.732  1.8260  0.1236  0.2175
  155SAPE   C2617174   4.161   6.438   5.708  0.6597 -0.0294  0.0603
  155SAPE   H6R17175   4.132   6.484   5.612  3.1313  0.1076 -0.7081
  155SAPE   C2717176   4.079   6.319   5.756  0.8621 -0.6857  0.1697
  155SAPE   H7R17177   4.133   6.222   5.749 -0.9015 -1.8722  1.6985
  155SAPE   H7S17178   4.003   6.310   5.675 -0.7598 -0.1752  1.5590
  155SAPE   C2817179   4.003   6.332   5.890  0.6005 -0.5626  0.8921
  155SAPE   H8R17180   4.065   6.292   5.972 -1.5495 -4.2132  0.9345
  155SAPE   C2917181   3.875   6.384   5.908 -0.6092 -0.4406  0.9749
  155SAPE   H9R17182   3.833   6.377   6.009 -2.3212 -0.1337  0.3266
  155SAPE  C21017183   3.774   6.418   5.798 -0.1420 -0.9299 -0.1930
  155SAPE  H10R17184   3.835   6.459   5.714  0.3016 -1.0340  0.0751
  155SAPE  H10S17185   3.703   6.499   5.824  0.9973  0.3167 -0.8760
  155SAPE  C21117186   3.692   6.302   5.755 -0.1772 -0.2319 -0.2839
  155SAPE  H11R17187   3.672   6.241   5.845 -0.3898  0.2887  0.0275
  155SAPE  C21217188   3.628   6.285   5.636 -0.0732 -0.4861  0.1965
  155SAPE  H12R17189   3.551   6.207   5.641 -1.1453  0.5008 -0.2910
  155SAPE  C21317190   3.634   6.373   5.522  0.3430  0.1169 -0.2949
  155SAPE  H13R17191   3.742   6.398   5.513  0.3701  2.5930  3.9736
  155SAPE  H13S17192   3.580   6.465   5.554  0.2896  0.2579 -0.7907
  155SAPE  C21417193   3.580   6.333   5.388 -0.1770  0.5974  0.1314
  155SAPE  H14R17194   3.586   6.226   5.362  1.0890  1.0593 -1.7249
  155SAPE  C21517195   3.559   6.411   5.278 -0.1630  0.3406  0.1553
  155SAPE  H15R17196   3.520   6.366   5.186 -1.8603 -1.3967  1.6331
  155SAPE  C21617197   3.558   6.554   5.267 -0.5708  0.3532 -0.3333
  155SAPE  H16R17198   3.623   6.589   5.184 -0.0580  0.2105  0.0044
  155SAPE  H16S17199   3.619   6.589   5.353  1.7663 -1.4443 -1.1406
  155SAPE  C21717200   3.422   6.628   5.276 -0.1609 -0.7878  0.3382
  155SAPE  H17R17201   3.449   6.735   5.284 -0.6846 -0.5734 -0.5464
  155SAPE  H17S17202   3.356   6.594   5.359 -0.4687  1.8067  1.2553
  155SAPE  C21817203   3.346   6.609   5.145  0.4572  0.1047 -0.2067
  155SAPE  H18R17204   3.318   6.502   5.135  1.6962 -0.0807 -1.9359
  155SAPE  H18S17205   3.422   6.623   5.065 -0.2842 -1.8828 -1.3463
  155SAPE  C21917206   3.217   6.697   5.125 -0.6130 -0.2519 -0.2068
  155SAPE  H19R17207   3.242   6.805   5.116 -2.4676  0.3953  1.7568
  155SAPE  H19S17208   3.146   6.677   5.208 -2.0956 -0.8202 -1.5470
  155SAPE  C22017209   3.143   6.649   5.000  0.2522 -0.3765  0.7185
  155SAPE  H20R17210   3.214   6.643   4.915  2.1133  0.4137  2.1260
  155SAPE  H20S17211   3.046   6.702   4.994  0.1248 -0.6443  0.4228
  155SAPE  H20T17212   3.119   6.541   5.006 -1.2030 -0.0742  0.7219
  155SAPE   C3317213   4.922   6.478   5.477  0.0265 -0.7020  0.0035
  155SAPE   H3X17214   4.991   6.564   5.484 -1.0628  0.2221 -0.3694
  155SAPE   H3Y17215   4.833   6.501   5.539  0.5317  0.5986  0.2673
  155SAPE   C3417216   4.896   6.446   5.331 -0.9483 -0.7834 -0.2454
  155SAPE   H4X17217   4.815   6.371   5.324 -1.0421 -0.7475  0.4024
  155SAPE   H4Y17218   4.989   6.410   5.282  0.0887 -0.7494  1.6133
  155SAPE   C3517219   4.839   6.566   5.247 -0.5327  0.0883  0.9146
  155SAPE   H5X17220   4.922   6.641   5.245 -0.1572 -0.3373 -0.7145
  155SAPE   H5Y17221   4.743   6.607   5.286 -1.4140 -0.5021 -0.5800
  155SAPE   C3617222   4.823   6.516   5.095 -0.2552 -0.4202 -0.2406
  155SAPE   H6X17223   4.772   6.418   5.106 -2.4098  0.8073  1.3711
  155SAPE   H6Y17224   4.922   6.491   5.052  0.7896  0.1830  1.6891
  155SAPE   C3717225   4.756   6.631   5.025 -0.0699 -0.3950 -0.0602
  155SAPE   H7X17226   4.805   6.728   5.048 -0.1667 -0.2307 -0.5221
  155SAPE   H7Y17227   4.653   6.632   5.066  0.4865  1.1052  1.4005
  155SAPE   C3817228   4.762   6.612   4.873  0.3724  0.0500  0.0863
  155SAPE   H8X17229   4.702   6.523   4.842 -4.1531  2.3456  1.3133
  155SAPE   H8Y17230   4.867   6.587   4.846 -0.4939 -0.5718 -3.1184
  155SAPE   C3917231   4.727   6.741   4.798 -0.3429 -0.4445 -0.1511
  155SAPE   H9X17232   4.800   6.815   4.837  0.0472 -0.5417 -0.6911
  155SAPE   H9Y17233   4.628   6.781   4.826  0.3013  0.4645  0.8999
  155SAPE  C31017234   4.759   6.735   4.651 -0.2500 -0.8888  0.6219
  155SAPE  H10X17235   4.693   6.659   4.605 -0.8129 -0.5148  0.7956
  155SAPE  H10Y17236   4.865   6.705   4.638 -0.0459  1.0340 -3.7903
  155SAPE  C31117237   4.729   6.873   4.587  0.0234  1.0132 -0.4920
  155SAPE  H11X17238   4.778   6.954   4.645  0.4129 -0.1716  0.8633
  155SAPE  H11Y17239   4.619   6.890   4.580 -0.2056 -0.4960 -0.7487
  155SAPE  C31217240   4.772   6.878   4.441  0.1105 -0.4688  0.0655
  155SAPE  H12X17241   4.733   6.785   4.393 -0.9392  0.3602 -0.7331
  155SAPE  H12Y17242   4.883   6.875   4.436  0.1055 -1.2341  0.3064
  155SAPE  C31317243   4.727   7.004   4.364 -0.0438  0.1441 -0.7707
  155SAPE  H13X17244   4.752   7.096   4.422 -2.9082  0.0837  0.7519
  155SAPE  H13Y17245   4.616   7.003   4.366 -0.0718  1.2600  1.2110
  155SAPE  C31417246   4.780   7.008   4.225  0.1836 -0.7169 -0.4195
  155SAPE  H14X17247   4.741   6.923   4.167  0.4205  0.9614 -3.2003
  155SAPE  H14Y17248   4.890   7.007   4.209  0.4409  1.1483  0.8118
  155SAPE  C31517249   4.726   7.130   4.145 -0.3721 -1.0815 -0.2593
  155SAPE  H15X17250   4.788   7.220   4.166 -2.2547  0.3507 -0.5479
  155SAPE  H15Y17251   4.621   7.152   4.175  0.6316  1.4652  1.7641
  155SAPE  C31617252   4.729   7.121   3.990 -0.8215  0.4154 -0.3777
  155SAPE  H16X17253   4.666   7.034   3.960 -1.4435  0.0629  1.7397
  155SAPE  H16Y17254   4.837   7.107   3.969 -0.1549  1.7546  1.8335
  155SAPE  C31717255   4.686   7.250   3.924  0.2613 -0.5392  0.3046
  155SAPE  H17X17256   4.719   7.335   3.989  1.9141 -2.0419  1.5544
  155SAPE  H17Y17257   4.575   7.252   3.930  0.2759  1.4642  0.6797
  155SAPE  C31817258   4.742   7.264   3.781  0.8004 -0.5419 -0.8398
  155SAPE  H18X17259   4.734   7.372   3.755  2.7445  0.2259  1.4022
  155SAPE  H18Y17260   4.691   7.197   3.709  0.7649 -1.2393 -0.1656
  155SAPE  H18Z17261   4.848   7.231   3.777  1.0382 -0.0449  0.6758
  156SAPE     N17262   1.555   0.716   6.354 -0.4310  0.0271 -0.2028
  156SAPE   HN117263   1.589   0.694   6.449  0.1999  1.0689 -0.1698
  156SAPE   HN217264   1.605   0.639   6.306  1.1607 -0.2289  1.7688
  156SAPE   HN317265   1.585   0.809   6.318 -2.1043  0.5256 -0.4329
  156SAPE   C1217266   1.407   0.707   6.336 -0.7776 -0.1874  0.4828
  156SAPE  H12A17267   1.401   0.725   6.227 -2.1039 -1.3012  0.3490
  156SAPE  H12B17268   1.363   0.797   6.386 -1.0261  1.4765 -2.5054
  156SAPE   C1117269   1.341   0.573   6.375 -0.3449 -0.7052  0.4461
  156SAPE  H11A17270   1.231   0.586   6.360  0.1842  1.8505 -2.4769
  156SAPE  H11B17271   1.361   0.548   6.481 -0.0863 -1.9566  0.1176
  156SAPE     P17272   1.389   0.323   6.350  0.1389  0.1572 -0.0935
  156SAPE   O1317273   1.453   0.308   6.478 -0.1471  0.4057 -0.6152
  156SAPE   O1417274   1.240   0.300   6.353 -0.2898  0.0198  0.4799
  156SAPE   O1217275   1.406   0.473   6.287  0.4084 -0.7228 -0.3483
  156SAPE   O1117276   1.456   0.223   6.253  0.0487  0.4778  0.7695
  156SAPE    C117277   1.581   0.258   6.185 -0.0808 -0.0788 -0.3320
  156SAPE    HA17278   1.564   0.359   6.143 -0.6685  0.9753  2.2212
  156SAPE    HB17279   1.662   0.270   6.260 -1.2342  0.8448  0.8172
  156SAPE    C217280   1.621   0.165   6.073  0.1402  0.3450 -0.0174
  156SAPE    HS17281   1.686   0.220   6.002 -0.0613 -1.1960 -1.4382
  156SAPE   O2117282   1.499   0.124   6.009 -0.0666  0.1616  0.4788
  156SAPE   C2117283   1.491   0.136   5.873 -0.6843 -1.6937 -0.2595
  156SAPE   O2217284   1.586   0.172   5.800  0.1579  0.3529 -0.3149
  156SAPE   C2217285   1.352   0.092   5.828  0.4518  0.2164  0.1739
  156SAPE   H2R17286   1.326  -0.005   5.875 -3.3504  0.7236 -0.4963
  156SAPE   H2S17287   1.279   0.169   5.863  0.6749  0.9533 -0.9435
  156SAPE    C317288   1.684   0.040   6.127  0.0721  0.2206 -0.0804
  156SAPE    HX17289   1.617  -0.020   6.191  1.0205 -1.3629 -0.5167
  156SAPE    HY17290   1.752   0.072   6.209 -1.2653 -0.2312  1.2481
  156SAPE   O3117291   1.749  -0.037   6.022 -0.5298 -0.1308 -0.2816
  156SAPE   C3117292   1.682  -0.148   5.985 -0.7073 -0.1107 -0.3379
  156SAPE   O3217293   1.585  -0.193   6.048  0.0918  0.5496  0.0528
  156SAPE   C3217294   1.737  -0.214   5.860 -0.3105  0.4438 -0.3352
  156SAPE   H2X17295   1.732  -0.324   5.873  0.4078  0.4314 -0.1047
  156SAPE   H2Y17296   1.837  -0.170   5.840 -0.5428  0.5368 -1.3930
  156SAPE   C2317297   1.341   0.086   5.674  0.2897 -0.0243 -0.2815
  156SAPE   H3R17298   1.401   0.005   5.628  1.7802 -0.0810  1.6371
  156SAPE   H3S17299   1.390   0.179   5.639  1.6587 -0.6235 -0.0061
  156SAPE   C2417300   1.199   0.075   5.613  0.8738  0.4111 -0.0142
  156SAPE   H4R17301   1.203   0.081   5.502  0.8630  2.2144  0.0557
  156SAPE   H4S17302   1.140   0.159   5.656  0.7522  1.1650 -1.5845
  156SAPE   C2517303   1.130  -0.052   5.657  0.1456  0.1581 -0.1871
  156SAPE   H5R17304   1.086  -0.049   5.757 -1.1778 -2.2950 -0.6045
  156SAPE   C2617305   1.135  -0.165   5.588  0.4430  0.1052  0.4089
  156SAPE   H6R17306   1.090  -0.252   5.638 -0.1545  1.7376  2.9048
  156SAPE   C2717307   1.198  -0.196   5.455 -1.6450  0.2025  0.3245
  156SAPE   H7R17308   1.309  -0.196   5.454 -1.5415  0.3058 -3.7202
  156SAPE   H7S17309   1.168  -0.110   5.392 -1.6488  1.1282  1.5535
  156SAPE   C2817310   1.145  -0.328   5.402 -0.9370  1.0882 -0.1884
  156SAPE   H8R17311   1.078  -0.389   5.464  0.5629  0.0624  0.4861
  156SAPE   C2917312   1.146  -0.364   5.270 -0.3393 -0.8978 -0.5061
  156SAPE   H9R17313   1.101  -0.460   5.241 -1.2014 -0.6450 -0.0372
  156SAPE  C21017314   1.216  -0.295   5.154  0.3826  0.5926  0.7822
  156SAPE  H10R17315   1.304  -0.359   5.133  1.4679  1.8348  1.3772
  156SAPE  H10S17316   1.256  -0.197   5.190 -1.1885  0.5044  2.9806
  156SAPE  C21117317   1.130  -0.275   5.031 -0.1951 -0.3988  0.5964
  156SAPE  H11R17318   1.065  -0.187   5.043  0.8227  0.2493  1.5989
  156SAPE  C21217319   1.105  -0.366   4.932 -0.1170 -0.2785  0.0636
  156SAPE  H12R17320   1.040  -0.339   4.848  0.0620 -0.4692 -0.1397
  156SAPE  C21317321   1.188  -0.489   4.903 -0.1379 -0.0992  0.4410
  156SAPE  H13R17322   1.112  -0.564   4.872  0.1453 -0.0041 -0.4952
  156SAPE  H13S17323   1.220  -0.531   5.001 -1.8425  2.3230  2.1480
  156SAPE  C21417324   1.296  -0.488   4.796 -0.0568  0.8345 -0.0210
  156SAPE  H14R17325   1.358  -0.397   4.806  0.0809  0.7880 -0.4286
  156SAPE  C21517326   1.307  -0.568   4.690 -0.3673  0.1966 -0.3085
  156SAPE  H15R17327   1.389  -0.563   4.617 -1.4928  1.2817 -1.5533
  156SAPE  C21617328   1.227  -0.694   4.660  0.8368  0.0842 -0.0631
  156SAPE  H16R17329   1.212  -0.752   4.754 -0.1039 -0.6596 -0.6576
  156SAPE  H16S17330   1.279  -0.758   4.585 -1.5520 -1.8606 -0.1662
  156SAPE  C21717331   1.091  -0.667   4.594 -1.2191 -0.4895 -0.1685
  156SAPE  H17R17332   1.116  -0.614   4.500  2.3142  2.3909  2.1110
  156SAPE  H17S17333   1.034  -0.595   4.656 -1.5956  0.7894 -1.9402
  156SAPE  C21817334   1.022  -0.799   4.566  0.6456  0.2281 -0.0734
  156SAPE  H18R17335   0.996  -0.856   4.658  0.8412 -0.4667 -0.4377
  156SAPE  H18S17336   1.095  -0.867   4.517  1.4639  0.0841  1.2848
  156SAPE  C21917337   0.906  -0.780   4.470 -0.0749  0.2124 -0.3147
  156SAPE  H19R17338   0.834  -0.714   4.523  0.4706 -0.9822  2.0416
  156SAPE  H19S17339   0.845  -0.872   4.458 -0.1425  0.0741  0.9477
  156SAPE  C22017340   0.951  -0.734   4.328 -0.1524  0.4023  0.8603
  156SAPE  H20R17341   0.861  -0.749   4.265 -1.7937  0.8427  2.9818
  156SAPE  H20S17342   1.042  -0.783   4.289  0.3815  1.0067  1.3145
  156SAPE  H20T17343   0.980  -0.627   4.322  1.6089 -0.1352 -2.0886
  156SAPE   C3317344   1.659  -0.188   5.729 -0.3148  0.2825 -0.3978
  156SAPE   H3X17345   1.643  -0.081   5.702  0.1129  0.1527 -1.1968
  156SAPE   H3Y17346   1.554  -0.223   5.744  0.2147 -0.8651  0.8286
  156SAPE   C3417347   1.721  -0.268   5.622  0.0960  0.2824  0.6986
  156SAPE   H4X17348   1.766  -0.358   5.668 -0.4797 -0.3549  0.0475
  156SAPE   H4Y17349   1.811  -0.218   5.582  0.7738 -1.3027  0.1655
  156SAPE   C3517350   1.626  -0.304   5.509  0.3173 -0.0672 -0.0291
  156SAPE   H5X17351   1.568  -0.209   5.497  1.5495  0.6131 -0.8479
  156SAPE   H5Y17352   1.555  -0.381   5.546  0.3188 -0.6322 -1.1691
  156SAPE   C3617353   1.688  -0.342   5.375  0.2671  0.5448 -0.1261
  156SAPE   H6X17354   1.762  -0.421   5.403 -2.5612 -1.6264  1.8070
  156SAPE   H6Y17355   1.732  -0.251   5.329  1.9455 -1.7524 -3.5633
  156SAPE   C3717356   1.589  -0.395   5.263 -0.0750 -0.3798  0.0758
  156SAPE   H7X17357   1.513  -0.319   5.236 -0.5716 -0.1125  2.0618
  156SAPE   H7Y17358   1.530  -0.476   5.310 -0.0988 -0.3547  0.0898
  156SAPE   C3817359   1.665  -0.426   5.135 -0.1068 -0.0060  0.0131
  156SAPE   H8X17360   1.767  -0.461   5.162  0.5688 -0.6806 -3.0081
  156SAPE   H8Y17361   1.684  -0.336   5.072 -0.7525 -0.7560 -1.3053
  156SAPE   C3917362   1.599  -0.535   5.044 -0.0566 -0.2666  0.2305
  156SAPE   H9X17363   1.502  -0.492   5.012 -0.5102 -0.0526  1.7792
  156SAPE   H9Y17364   1.580  -0.619   5.115 -1.6348  1.4510  1.9772
  156SAPE  C31017365   1.680  -0.595   4.933 -0.5242  0.0739  0.4394
  156SAPE  H10X17366   1.626  -0.687   4.901 -0.9516  0.6209 -0.4614
  156SAPE  H10Y17367   1.781  -0.620   4.972 -0.7417 -1.5087  0.0558
  156SAPE  C31117368   1.707  -0.496   4.821 -0.1997 -0.4908 -0.7599
  156SAPE  H11X17369   1.771  -0.414   4.862 -2.5494  0.4925  1.1628
  156SAPE  H11Y17370   1.618  -0.440   4.785 -0.4533 -1.8358 -2.3620
  156SAPE  C31217371   1.779  -0.553   4.702  0.7017  0.4480 -0.3855
  156SAPE  H12X17372   1.725  -0.644   4.669  1.2886 -0.4940  1.1261
  156SAPE  H12Y17373   1.877  -0.586   4.741  0.3599  0.5595  0.6022
  156SAPE  C31317374   1.785  -0.449   4.596  0.3369 -0.3557  0.3171
  156SAPE  H13X17375   1.856  -0.476   4.515 -1.0208  1.6483 -1.6432
  156SAPE  H13Y17376   1.828  -0.359   4.645  2.4197 -1.5978  0.8913
  156SAPE  C31417377   1.657  -0.422   4.520 -0.9087  0.0211  1.1413
  156SAPE  H14X17378   1.683  -0.354   4.436 -0.3437  1.2303  2.2680
  156SAPE  H14Y17379   1.580  -0.373   4.584 -1.9975 -0.8316  0.5253
  156SAPE  C31517380   1.615  -0.549   4.450 -0.6216 -0.4806 -0.0876
  156SAPE  H15X17381   1.572  -0.620   4.524 -0.0601 -0.9998 -0.2560
  156SAPE  H15Y17382   1.700  -0.596   4.397 -1.1047 -0.2744 -1.0682
  156SAPE  C31617383   1.513  -0.519   4.333 -0.2120  0.1583  0.1219
  156SAPE  H16X17384   1.553  -0.439   4.267 -3.3528 -0.0160 -2.2703
  156SAPE  H16Y17385   1.422  -0.476   4.380 -1.7920 -2.5150 -0.2669
  156SAPE  C31717386   1.481  -0.633   4.243  0.1197 -0.5042  0.0263
  156SAPE  H17X17387   1.570  -0.659   4.182 -0.1249  2.3212 -1.7424
  156SAPE  H17Y17388   1.412  -0.604   4.161  0.9203  0.4471 -0.3271
  156SAPE  C31817389   1.440  -0.762   4.307 -0.0874 -0.2262 -0.5278
  156SAPE  H18X17390   1.528  -0.800   4.363 -0.6960  1.2600  1.5845
  156SAPE  H18Y17391   1.406  -0.830   4.226 -2.0078 -0.6459  0.5511
  156SAPE  H18Z17392   1.355  -0.737   4.376  0.3133 -1.9697  0.6700
  157SAPE     N17393   1.876   5.359   6.446 -1.0604  0.2205  0.0118
  157SAPE   HN117394   1.953   5.355   6.375  0.0677 -0.1115  1.2239
  157SAPE   HN217395   1.787   5.396   6.407 -1.4582  0.1929  0.8735
  157SAPE   HN317396   1.906   5.420   6.524  2.5560 -4.1089  2.5126
  157SAPE   C1217397   1.863   5.220   6.517 -0.2756 -0.4795  0.3109
  157SAPE  H12A17398   1.777   5.168   6.470  0.4498 -0.6545 -0.8818
  157SAPE  H12B17399   1.851   5.248   6.624 -0.2619  2.0267 -0.2782
  157SAPE   C1117400   1.980   5.132   6.478 -0.3293  0.0310  0.1706
  157SAPE  H11A17401   1.992   5.137   6.367 -1.3179  0.9681  0.0899
  157SAPE  H11B17402   1.950   5.026   6.490  1.8461 -0.5517  0.9673
  157SAPE     P17403   2.248   5.186   6.502  0.1738  0.1960  0.0929
  157SAPE   O1317404   2.298   5.319   6.532 -0.1146 -0.7831 -0.0993
  157SAPE   O1417405   2.330   5.079   6.565 -0.2379  0.8893  0.0624
  157SAPE   O1217406   2.098   5.165   6.549  0.5215  0.2792 -0.2087
  157SAPE   O1117407   2.240   5.165   6.343 -0.4018  0.3992  0.1474
  157SAPE    C117408   2.358   5.136   6.271  0.1841 -0.6768  0.2050
  157SAPE    HA17409   2.418   5.229   6.257  1.6546 -1.3054  1.9477
  157SAPE    HB17410   2.418   5.067   6.334  0.5318 -0.7646 -0.2204
  157SAPE    C217411   2.333   5.081   6.130  0.2821  1.0055  0.0156
  157SAPE    HS17412   2.425   5.031   6.093 -0.3917 -0.0358 -0.2783
  157SAPE   O2117413   2.270   5.177   6.038 -0.2818  0.1116 -0.5564
  157SAPE   C2117414   2.358   5.236   5.965 -0.8718 -0.3740  0.2995
  157SAPE   O2217415   2.480   5.228   5.981 -0.4187  0.1947  0.3909
  157SAPE   C2217416   2.295   5.316   5.853 -0.3105 -0.5281 -0.6245
  157SAPE   H2R17417   2.259   5.243   5.777 -2.3586  0.7606 -0.9551
  157SAPE   H2S17418   2.206   5.365   5.898  0.0747 -2.0395  1.9672
  157SAPE    C317419   2.228   4.965   6.148 -0.4506  0.0907 -0.1012
  157SAPE    HX17420   2.125   5.004   6.157  0.0340  1.1760  1.0066
  157SAPE    HY17421   2.251   4.906   6.239  1.8080 -0.9449 -1.2430
  157SAPE   O3117422   2.217   4.891   6.024  0.5077  0.2325 -0.0408
  157SAPE   C3117423   2.285   4.784   6.019  0.1690  0.3719  0.4868
  157SAPE   O3217424   2.350   4.739   6.113 -0.2135  0.1220  0.2049
  157SAPE   C3217425   2.273   4.717   5.887 -0.0737 -0.0845  0.0032
  157SAPE   H2X17426   2.294   4.788   5.805  1.9666  0.1766  0.6953
  157SAPE   H2Y17427   2.165   4.691   5.874 -0.0395 -0.2647  0.0726
  157SAPE   C2317428   2.403   5.415   5.800  0.6049 -0.2699 -0.1574
  157SAPE   H3R17429   2.504   5.368   5.804  1.3821  1.4297  1.9302
  157SAPE   H3S17430   2.406   5.499   5.873 -0.7127  0.0105 -0.3946
  157SAPE   C2417431   2.372   5.453   5.646 -0.6742 -0.1630 -0.4421
  157SAPE   H4R17432   2.263   5.455   5.628 -0.6163 -0.3225 -0.8442
  157SAPE   H4S17433   2.402   5.358   5.596 -0.7104 -0.2838 -0.2362
  157SAPE   C2517434   2.446   5.569   5.584 -0.6813 -0.3333 -0.4999
  157SAPE   H5R17435   2.451   5.660   5.646 -0.7835 -0.1333 -0.7895
  157SAPE   C2617436   2.490   5.561   5.458 -0.0723 -0.6772 -0.6748
  157SAPE   H6R17437   2.545   5.648   5.418  2.3093 -0.6428  2.2538
  157SAPE   C2717438   2.471   5.440   5.365 -0.0197 -0.5358 -0.8947
  157SAPE   H7R17439   2.365   5.409   5.369 -1.3614  3.5070  0.5974
  157SAPE   H7S17440   2.533   5.356   5.402 -0.4445 -1.1628 -1.5943
  157SAPE   C2817441   2.513   5.442   5.222  0.4328 -1.5600  0.3513
  157SAPE   H8R17442   2.609   5.389   5.208  2.8978  2.5245  0.1406
  157SAPE   C2917443   2.462   5.503   5.115  0.0201  0.3665 -0.3929
  157SAPE   H9R17444   2.496   5.470   5.016 -1.8526 -0.4698 -0.7961
  157SAPE  C21017445   2.336   5.586   5.102  0.4237  0.0244 -0.5533
  157SAPE  H10R17446   2.295   5.598   5.205  2.8942 -0.2709  0.5343
  157SAPE  H10S17447   2.261   5.531   5.041  0.7158  0.5856 -1.4344
  157SAPE  C21117448   2.371   5.726   5.050  0.6181  0.4480 -0.3183
  157SAPE  H11R17449   2.372   5.811   5.120 -0.9982  0.3902 -0.1744
  157SAPE  C21217450   2.418   5.759   4.925  0.6614 -0.4612  0.3044
  157SAPE  H12R17451   2.426   5.866   4.905  0.2387 -0.6635 -1.0643
  157SAPE  C21317452   2.432   5.657   4.812 -1.3430 -0.1688  0.1807
  157SAPE  H13R17453   2.379   5.567   4.848 -1.0199 -0.1655  0.6675
  157SAPE  H13S17454   2.540   5.636   4.802 -1.4987 -0.9352  0.0772
  157SAPE  C21417455   2.370   5.705   4.685  0.4262 -1.0893  0.0059
  157SAPE  H14R17456   2.261   5.707   4.677  0.2950 -0.8292  1.4853
  157SAPE  C21517457   2.439   5.743   4.572 -0.1886 -0.5227 -0.0649
  157SAPE  H15R17458   2.376   5.780   4.489 -1.3193  1.1985  1.4936
  157SAPE  C21617459   2.590   5.758   4.552 -0.3837  0.1900 -0.2304
  157SAPE  H16R17460   2.622   5.680   4.479 -1.3489  1.0230 -1.5766
  157SAPE  H16S17461   2.638   5.740   4.651 -3.6365 -0.6875  1.3322
  157SAPE  C21717462   2.641   5.895   4.510 -0.5942 -0.3163 -0.3749
  157SAPE  H17R17463   2.588   5.981   4.557  0.6029  1.4280 -2.1312
  157SAPE  H17S17464   2.615   5.895   4.402  0.3423  2.6418 -0.6755
  157SAPE  C21817465   2.793   5.920   4.525 -0.0675 -0.8855  0.5238
  157SAPE  H18R17466   2.832   5.884   4.622  0.5197  1.0156  1.0428
  157SAPE  H18S17467   2.796   6.029   4.545 -0.4205 -0.2354 -2.5390
  157SAPE  C21917468   2.885   5.862   4.408 -0.1038 -0.4665  0.0173
  157SAPE  H19R17469   2.819   5.867   4.319 -0.8996 -2.0901  0.4854
  157SAPE  H19S17470   2.906   5.755   4.430  0.5119  0.2239  3.2069
  157SAPE  C22017471   3.011   5.945   4.373 -0.2502  0.0162 -0.2155
  157SAPE  H20R17472   2.984   6.053   4.376 -0.6795 -0.0827 -0.4503
  157SAPE  H20S17473   3.053   5.926   4.272  1.6771  0.6740  0.4068
  157SAPE  H20T17474   3.089   5.921   4.449  0.9372 -0.6287 -1.5855
  157SAPE   C3317475   2.364   4.594   5.865  0.4282 -0.4035  0.1485
  157SAPE   H3X17476   2.324   4.512   5.928 -1.8104  0.5931  0.1399
  157SAPE   H3Y17477   2.468   4.622   5.892  1.0433 -2.5056  0.1242
  157SAPE   C3417478   2.365   4.541   5.716  0.3096  0.2387 -0.3024
  157SAPE   H4X17479   2.375   4.431   5.727 -0.5599  0.3624  2.4619
  157SAPE   H4Y17480   2.459   4.569   5.665  0.2663 -0.9442 -1.0780
  157SAPE   C3517481   2.250   4.585   5.625  0.5917 -0.6410 -0.2908
  157SAPE   H5X17482   2.265   4.694   5.616  0.7387 -0.7194 -1.0460
  157SAPE   H5Y17483   2.146   4.568   5.660 -0.9392  3.0227 -2.5090
  157SAPE   C3617484   2.269   4.519   5.485 -0.0261 -0.4515  0.0958
  157SAPE   H6X17485   2.180   4.537   5.421  1.2897  0.7248 -1.4720
  157SAPE   H6Y17486   2.276   4.409   5.503 -0.3187 -0.4561  0.1925
  157SAPE   C3717487   2.394   4.571   5.406  0.5493  0.0937  0.6200
  157SAPE   H7X17488   2.483   4.507   5.424 -0.2948 -2.1597 -2.3358
  157SAPE   H7Y17489   2.417   4.673   5.441 -1.7531  0.1338  2.1997
  157SAPE   C3817490   2.373   4.565   5.253  0.0904 -0.3614 -0.2756
  157SAPE   H8X17491   2.283   4.506   5.226  0.6385 -0.6661 -1.4743
  157SAPE   H8Y17492   2.464   4.520   5.208 -0.1808 -0.5877 -0.5999
  157SAPE   C3917493   2.363   4.698   5.178 -0.3135  0.9076 -0.7217
  157SAPE   H9X17494   2.454   4.762   5.188  0.5505 -0.2758 -0.7204
  157SAPE   H9Y17495   2.279   4.758   5.219 -0.1165 -0.7938  2.4909
  157SAPE  C31017496   2.338   4.676   5.026  0.8278  0.6417  0.2887
  157SAPE  H10X17497   2.303   4.767   4.974 -0.3120  0.0587 -0.0102
  157SAPE  H10Y17498   2.249   4.610   5.015  0.3790  1.1974  0.5840
  157SAPE  C31117499   2.461   4.620   4.957  0.3120 -0.0577 -0.2936
  157SAPE  H11X17500   2.492   4.524   5.003  3.1638  0.6065 -0.6551
  157SAPE  H11Y17501   2.541   4.695   4.975 -0.0457  0.0978  0.7069
  157SAPE  C31217502   2.452   4.594   4.806 -0.2169 -0.3773 -0.6197
  157SAPE  H12X17503   2.364   4.533   4.777 -0.5233 -0.2894  0.1112
  157SAPE  H12Y17504   2.537   4.526   4.783 -0.6082 -1.1332  0.0980
  157SAPE  C31317505   2.445   4.733   4.731  0.5808 -0.4629 -0.0150
  157SAPE  H13X17506   2.517   4.806   4.774  0.1546 -0.5216  0.8201
  157SAPE  H13Y17507   2.343   4.777   4.743 -0.0648 -2.1795  1.2894
  157SAPE  C31417508   2.485   4.716   4.581 -1.0769 -0.1503 -0.3759
  157SAPE  H14X17509   2.419   4.637   4.541 -0.3011 -1.8443  1.4864
  157SAPE  H14Y17510   2.589   4.677   4.576 -0.5271  1.3206 -1.2839
  157SAPE  C31517511   2.470   4.833   4.475  0.4669 -0.1763  0.2843
  157SAPE  H15X17512   2.559   4.896   4.496  1.2434 -0.7426 -1.1954
  157SAPE  H15Y17513   2.375   4.884   4.502  0.5804  0.5302 -0.6345
  157SAPE  C31617514   2.461   4.780   4.331  0.5050 -0.5560  0.0633
  157SAPE  H16X17515   2.452   4.867   4.264 -2.3101 -2.2014 -1.8746
  157SAPE  H16Y17516   2.373   4.714   4.317  0.3030 -0.5896  1.3595
  157SAPE  C31717517   2.584   4.701   4.291  0.0081 -0.6153  0.1084
  157SAPE  H17X17518   2.576   4.597   4.329 -2.0330 -0.6521 -0.2948
  157SAPE  H17Y17519   2.680   4.752   4.312 -1.1321  1.7909 -0.1483
  157SAPE  C31817520   2.582   4.664   4.141  0.2086  0.1732 -0.9335
  157SAPE  H18X17521   2.488   4.621   4.101 -0.6793 -2.8348  3.6373
  157SAPE  H18Y17522   2.658   4.584   4.132  0.3596  0.2711 -0.5580
  157SAPE  H18Z17523   2.617   4.751   4.081  2.2326  0.5752  0.7142
  158SAPE     N17524   4.180   3.325   6.273 -0.3549  0.0652 -0.4384
  158SAPE   HN117525   4.262   3.368   6.320 -1.9364 -0.7625  3.5298
  158SAPE   HN217526   4.215   3.247   6.214 -0.1687  0.5799 -1.0217
  158SAPE   HN317527   4.149   3.400   6.209  0.7959 -0.6021 -1.8302
  158SAPE   C1217528   4.074   3.296   6.376 -0.2630  0.0255 -0.3887
  158SAPE  H12A17529   4.094   3.343   6.475  0.6017  3.6908 -2.1295
  158SAPE  H12B17530   4.064   3.186   6.385 -1.6198  0.1920  0.4558
  158SAPE   C1117531   3.937   3.356   6.321  1.0201 -0.0456 -0.7350
  158SAPE  H11A17532   3.898   3.299   6.234 -2.1181 -0.1514  0.6147
  158SAPE  H11B17533   3.947   3.462   6.290 -0.1626  0.4077  0.3659
  158SAPE     P17534   3.723   3.244   6.436 -0.0431  0.5271 -0.4684
  158SAPE   O1317535   3.768   3.139   6.531 -0.1667  0.2054  0.1033
  158SAPE   O1417536   3.595   3.301   6.469 -0.0383  0.1020 -0.1407
  158SAPE   O1217537   3.833   3.357   6.427 -0.0574  0.0964 -0.2577
  158SAPE   O1117538   3.724   3.185   6.289 -0.0309 -0.2267 -0.0577
  158SAPE    C117539   3.740   3.038   6.282 -0.0912  0.3139  0.2414
  158SAPE    HA17540   3.841   3.006   6.316 -0.7997  0.3507  2.5634
  158SAPE    HB17541   3.676   2.990   6.359  2.9673 -3.6699  0.6207
  158SAPE    C217542   3.723   2.978   6.136 -0.3013 -0.7065  0.3194
  158SAPE    HS17543   3.767   2.877   6.129  0.5814 -0.2826 -0.6747
  158SAPE   O2117544   3.770   3.062   6.030 -0.3808 -0.0805 -0.3106
  158SAPE   C2117545   3.894   3.093   6.036 -0.2852  0.1242 -0.1518
  158SAPE   O2217546   3.982   3.044   6.109  0.0805  0.1940 -0.2919
  158SAPE   C2217547   3.918   3.206   5.937  0.4897  0.3639 -0.1855
  158SAPE   H2R17548   3.831   3.213   5.867  0.0823 -0.7723  0.1869
  158SAPE   H2S17549   3.920   3.292   6.008  0.7363  1.4175 -1.4214
  158SAPE    C317550   3.577   2.949   6.110  0.3563 -0.8127  1.1510
  158SAPE    HX17551   3.521   3.045   6.112  0.0608 -0.9453  0.2087
  158SAPE    HY17552   3.523   2.888   6.185 -2.0825 -0.3312 -0.0976
  158SAPE   O3117553   3.561   2.888   5.981  0.4850 -0.2614  0.3742
  158SAPE   C3117554   3.444   2.891   5.922 -0.0660 -0.1457 -0.1445
  158SAPE   O3217555   3.342   2.944   5.974 -1.3320  0.3570  0.0356
  158SAPE   C3217556   3.451   2.808   5.799  0.2549  0.1400  0.3050
  158SAPE   H2X17557   3.539   2.820   5.733 -1.3120 -3.4668 -2.8593
  158SAPE   H2Y17558   3.358   2.829   5.742 -0.4911 -0.2701  1.3469
  158SAPE   C2317559   4.057   3.202   5.861 -0.6324 -0.2888  0.3589
  158SAPE   H3R17560   4.145   3.182   5.926  1.0943  3.2867 -0.6479
  158SAPE   H3S17561   4.085   3.301   5.818 -1.8025  0.1706  0.5951
  158SAPE   C2417562   4.048   3.107   5.738  0.2693 -0.1132 -0.4957
  158SAPE   H4R17563   3.970   3.153   5.674 -1.4010  1.4280  2.4546
  158SAPE   H4S17564   4.008   3.009   5.772 -0.6286  0.9728  1.8081
  158SAPE   C2517565   4.180   3.097   5.668  0.1741 -0.0093  0.2110
  158SAPE   H5R17566   4.263   3.096   5.740 -1.2325  1.7253  2.0082
  158SAPE   C2617567   4.189   3.100   5.539 -0.3608  0.0017 -0.4255
  158SAPE   H6R17568   4.288   3.092   5.491  0.1871 -2.3138  0.9547
  158SAPE   C2717569   4.071   3.105   5.446 -0.1699 -0.0741 -0.1363
  158SAPE   H7R17570   3.977   3.074   5.495  0.0151  0.2688  0.4500
  158SAPE   H7S17571   4.083   3.014   5.384 -2.3578 -0.3322 -0.2421
  158SAPE   C2817572   4.044   3.235   5.377 -0.9627 -0.3208 -0.2806
  158SAPE   H8R17573   4.027   3.317   5.448 -1.3590 -0.7432  0.1254
  158SAPE   C2917574   4.045   3.258   5.246  0.1797  0.0108  0.1306
  158SAPE   H9R17575   4.003   3.351   5.205  0.1634 -0.3469 -0.6887
  158SAPE  C21017576   4.068   3.152   5.140  1.0012 -0.2524 -0.4897
  158SAPE  H10R17577   3.992   3.164   5.060  1.1225  0.9323 -0.4535
  158SAPE  H10S17578   4.066   3.046   5.174  1.2834 -0.1641 -0.1857
  158SAPE  C21117579   4.211   3.175   5.104  0.0688  0.2057 -0.9152
  158SAPE  H11R17580   4.286   3.198   5.181 -0.6748  1.3082 -0.5034
  158SAPE  C21217581   4.255   3.173   4.982 -0.0730  0.2823 -0.8958
  158SAPE  H12R17582   4.363   3.182   4.962  0.0431 -2.9377 -2.3216
  158SAPE  C21317583   4.166   3.154   4.860 -0.6893 -0.3137 -0.1102
  158SAPE  H13R17584   4.076   3.218   4.871  1.7653  3.3425  0.4669
  158SAPE  H13S17585   4.134   3.048   4.857 -0.0771 -0.5564  1.2512
  158SAPE  C21417586   4.236   3.180   4.726  0.0260 -0.4654 -0.4021
  158SAPE  H14R17587   4.333   3.128   4.726 -1.4119 -3.4241  0.2012
  158SAPE  C21517588   4.198   3.252   4.616 -0.2043 -0.2765 -0.0800
  158SAPE  H15R17589   4.274   3.256   4.537 -0.6928  0.1793 -0.5345
  158SAPE  C21617590   4.061   3.327   4.604 -0.7613  0.2960  0.4717
  158SAPE  H16R17591   4.089   3.419   4.547 -0.6902  0.0967  0.1828
  158SAPE  H16S17592   4.012   3.348   4.701 -1.8436  0.3491 -0.0788
  158SAPE  C21717593   3.958   3.251   4.519 -0.1220  0.4841 -0.0762
  158SAPE  H17R17594   3.857   3.291   4.541  0.2628  1.3121  0.2634
  158SAPE  H17S17595   3.960   3.141   4.535  0.6928  0.4075 -0.6173
  158SAPE  C21817596   3.987   3.270   4.368  0.4409 -0.2109  0.7993
  158SAPE  H18R17597   4.094   3.246   4.348 -0.3694 -1.5004 -2.6427
  158SAPE  H18S17598   3.967   3.376   4.341 -0.3766  0.2779  3.1171
  158SAPE  C21917599   3.898   3.182   4.267 -0.0931  0.3793 -0.0242
  158SAPE  H19R17600   3.927   3.209   4.163 -1.2908 -1.6885 -0.9693
  158SAPE  H19S17601   3.790   3.205   4.278 -0.2005 -0.7140  1.7111
  158SAPE  C22017602   3.938   3.032   4.284  0.1263 -0.1108  0.4606
  158SAPE  H20R17603   3.896   2.989   4.377 -1.3054 -0.5344 -0.3466
  158SAPE  H20S17604   4.048   3.025   4.275  0.0043 -0.2869 -1.3856
  158SAPE  H20T17605   3.895   2.963   4.208  0.5185 -1.0308  1.0678
  158SAPE   C3317606   3.457   2.651   5.821 -0.4726  0.7273  1.1240
  158SAPE   H3X17607   3.354   2.609   5.833  0.0925 -0.5503  1.6728
  158SAPE   H3Y17608   3.509   2.619   5.914  0.5098  1.3951  0.8115
  158SAPE   C3417609   3.531   2.581   5.712 -0.6913 -0.0096  0.3278
  158SAPE   H4X17610   3.530   2.471   5.729 -1.9600 -0.0249  0.2239
  158SAPE   H4Y17611   3.638   2.609   5.726 -0.6753  0.2398 -0.2793
  158SAPE   C3517612   3.485   2.597   5.564 -0.1821 -0.0776 -0.6575
  158SAPE   H5X17613   3.514   2.700   5.533 -0.2598 -0.3038 -1.4828
  158SAPE   H5Y17614   3.375   2.594   5.547 -0.1906 -0.3510 -0.5600
  158SAPE   C3617615   3.557   2.490   5.478 -0.3498  1.2793  0.6411
  158SAPE   H6X17616   3.528   2.384   5.493  3.8039  0.0135  1.1630
  158SAPE   H6Y17617   3.666   2.490   5.499 -0.5902 -0.9501  2.1837
  158SAPE   C3717618   3.551   2.533   5.333  0.2591 -0.1841 -0.5835
  158SAPE   H7X17619   3.654   2.537   5.291  1.2853  0.2580  1.8090
  158SAPE   H7Y17620   3.501   2.629   5.308 -0.6143 -1.0349 -2.2427
  158SAPE   C3817621   3.476   2.434   5.253 -0.4200 -0.0787  0.2445
  158SAPE   H8X17622   3.375   2.426   5.296 -0.0263 -1.2033  1.0227
  158SAPE   H8Y17623   3.520   2.333   5.272 -1.3669 -0.5151  0.1901
  158SAPE   C3917624   3.466   2.462   5.101  0.3585  0.2032  0.2112
  158SAPE   H9X17625   3.429   2.567   5.094 -1.2789 -0.3836 -0.3670
  158SAPE   H9Y17626   3.399   2.392   5.048  1.6108 -1.5445  0.8512
  158SAPE  C31017627   3.596   2.453   5.032  0.4352  0.7898  0.1601
  158SAPE  H10X17628   3.654   2.364   5.064  0.1008  0.3374 -0.4698
  158SAPE  H10Y17629   3.664   2.535   5.065  0.3496  1.1953 -0.6595
  158SAPE  C31117630   3.578   2.470   4.876 -0.2576 -1.6985  0.2262
  158SAPE  H11X17631   3.680   2.492   4.839 -0.8732 -1.4050 -1.4150
  158SAPE  H11Y17632   3.516   2.559   4.852  1.9073 -0.5589 -1.5477
  158SAPE  C31217633   3.520   2.351   4.802 -0.0465 -0.0933 -0.5790
  158SAPE  H12X17634   3.427   2.310   4.849 -1.1533  0.7150 -1.9871
  158SAPE  H12Y17635   3.597   2.271   4.800 -0.3823 -0.4394 -0.1334
  158SAPE  C31317636   3.484   2.386   4.658 -0.6160  0.1286 -0.3291
  158SAPE  H13X17637   3.563   2.455   4.623  0.8359 -2.5438 -2.7546
  158SAPE  H13Y17638   3.389   2.443   4.651 -0.1674  0.8465 -0.6406
  158SAPE  C31417639   3.494   2.261   4.559  0.0869 -1.3214 -0.0678
  158SAPE  H14X17640   3.435   2.177   4.601  0.5683 -1.4840  0.3006
  158SAPE  H14Y17641   3.598   2.224   4.547  0.5870 -0.0296  0.1498
  158SAPE  C31517642   3.448   2.298   4.417  0.5849 -0.6769 -0.3879
  158SAPE  H15X17643   3.533   2.335   4.355  0.6634 -2.0009 -1.1101
  158SAPE  H15Y17644   3.379   2.386   4.413  2.1096  0.5751 -0.1561
  158SAPE  C31617645   3.391   2.177   4.346 -0.0480 -0.3514 -0.0776
  158SAPE  H16X17646   3.297   2.149   4.399 -0.6297 -1.9988 -1.8271
  158SAPE  H16Y17647   3.446   2.082   4.362  1.2409  0.5094  0.7092
  158SAPE  C31717648   3.377   2.201   4.200 -0.2908  0.1222 -0.8615
  158SAPE  H17X17649   3.478   2.210   4.154 -0.2705 -0.2929 -0.8995
  158SAPE  H17Y17650   3.327   2.300   4.204 -0.7928 -0.1632  0.7913
  158SAPE  C31817651   3.293   2.093   4.125 -0.0709 -0.7983  0.5949
  158SAPE  H18X17652   3.335   1.993   4.146  2.3799 -0.1003 -0.5800
  158SAPE  H18Y17653   3.299   2.111   4.016 -1.1535 -0.1751  0.6215
  158SAPE  H18Z17654   3.184   2.099   4.147 -0.4409  2.6295 -1.4023
  159SAPE     N17655   6.106   2.233   2.277  0.2905  0.0917  0.2603
  159SAPE   HN117656   6.026   2.169   2.256  0.8005 -0.4225 -0.1628
  159SAPE   HN217657   6.185   2.188   2.327  0.7990  0.3589 -0.2866
  159SAPE   HN317658   6.056   2.311   2.324 -1.6874 -0.6909 -0.4112
  159SAPE   C1217659   6.160   2.279   2.141 -0.1186  1.1305 -0.3699
  159SAPE  H12A17660   6.082   2.343   2.094 -1.8693  0.1420  1.0621
  159SAPE  H12B17661   6.171   2.186   2.081  0.8706  0.2325  1.1441
  159SAPE   C1117662   6.290   2.365   2.159 -0.2086  0.1587  0.0505
  159SAPE  H11A17663   6.336   2.392   2.062 -1.5736 -3.1451 -1.6768
  159SAPE  H11B17664   6.358   2.292   2.210 -2.6971 -0.5243  2.7066
  159SAPE     P17665   6.177   2.602   2.199 -0.3941 -0.4665  0.4228
  159SAPE   O1317666   6.245   2.669   2.085  0.0602 -0.5865  0.0162
  159SAPE   O1417667   6.040   2.555   2.167 -0.2782  0.5355 -0.4621
  159SAPE   O1217668   6.270   2.484   2.240 -0.6245  0.3037 -0.7447
  159SAPE   O1117669   6.179   2.703   2.308  0.1885 -0.0001 -0.5446
  159SAPE    C117670   6.294   2.740   2.387 -0.5545 -0.0558  0.5746
  159SAPE    HA17671   6.385   2.733   2.324 -0.7783  0.2073  0.2225
  159SAPE    HB17672   6.293   2.845   2.424  0.6749  0.1468  0.0612
  159SAPE    C217673   6.304   2.662   2.519 -0.7961 -0.0558 -0.0574
  159SAPE    HS17674   6.343   2.561   2.495 -0.8259  0.4838 -2.5758
  159SAPE   O2117675   6.171   2.647   2.574  0.0426 -0.0606  0.4949
  159SAPE   C2117676   6.142   2.526   2.623 -1.1366  0.3700  0.1922
  159SAPE   O2217677   6.217   2.426   2.621 -0.2089  0.4168 -0.6259
  159SAPE   C2217678   6.004   2.532   2.683 -0.1745  0.4715 -0.2221
  159SAPE   H2R17679   5.931   2.575   2.611 -0.2946  0.0854 -0.3291
  159SAPE   H2S17680   5.963   2.435   2.718 -1.0556  1.4159  1.5890
  159SAPE    C317681   6.396   2.730   2.623  0.3591  0.0315 -0.3716
  159SAPE    HX17682   6.347   2.821   2.663 -0.2375 -0.5281  0.1934
  159SAPE    HY17683   6.490   2.757   2.571  0.1238 -0.4327 -1.0489
  159SAPE   O3117684   6.417   2.623   2.729 -0.1063 -0.2423 -0.1127
  159SAPE   C3117685   6.403   2.659   2.855  0.1123  0.7751  0.0081
  159SAPE   O3217686   6.365   2.767   2.899 -0.6599  0.3160  0.0003
  159SAPE   C3217687   6.427   2.535   2.939 -0.3519  0.0920  0.2274
  159SAPE   H2X17688   6.462   2.450   2.877 -0.0850  0.9337 -0.8120
  159SAPE   H2Y17689   6.329   2.508   2.983 -0.3766 -0.4855 -0.1761
  159SAPE   C2317690   5.993   2.620   2.818 -0.0508 -0.1091  0.4231
  159SAPE   H3R17691   5.889   2.657   2.833 -0.3045 -0.8389  0.4974
  159SAPE   H3S17692   6.059   2.709   2.808  0.1775 -0.2647  0.5451
  159SAPE   C2417693   6.034   2.540   2.941 -0.3352  0.0411  0.0869
  159SAPE   H4R17694   6.118   2.476   2.907 -0.0512  0.9673 -0.9967
  159SAPE   H4S17695   5.945   2.478   2.966  0.1860 -0.5356  0.5468
  159SAPE   C2517696   6.086   2.620   3.056  0.1265 -0.3314 -0.4482
  159SAPE   H5R17697   6.173   2.683   3.033  1.3171 -1.9025 -0.3295
  159SAPE   C2617698   6.044   2.625   3.182 -0.1233 -0.7535  0.3853
  159SAPE   H6R17699   6.095   2.694   3.250 -0.8418 -0.9632  1.1518
  159SAPE   C2717700   5.934   2.542   3.246  0.0927  0.8955  0.1750
  159SAPE   H7R17701   5.965   2.496   3.342 -0.5587 -0.0242 -0.0415
  159SAPE   H7S17702   5.907   2.457   3.181  1.3527  0.3789  0.3063
  159SAPE   C2817703   5.809   2.622   3.267  0.1562 -0.1114 -0.4122
  159SAPE   H8R17704   5.759   2.651   3.173  1.7248  1.6384 -0.7668
  159SAPE   C2917705   5.772   2.685   3.382  0.3472 -0.2146  1.0588
  159SAPE   H9R17706   5.672   2.731   3.388  0.1329 -0.2191 -1.3829
  159SAPE  C21017707   5.854   2.674   3.505 -0.3286  0.5030 -0.2208
  159SAPE  H10R17708   5.892   2.776   3.528  2.3413 -0.0048 -1.9291
  159SAPE  H10S17709   5.942   2.607   3.499 -0.7212  0.0419 -1.0959
  159SAPE  C21117710   5.769   2.649   3.624  0.0863  0.3345 -0.5676
  159SAPE  H11R17711   5.677   2.709   3.627 -1.0239 -1.3610  1.3642
  159SAPE  C21217712   5.789   2.566   3.733  0.5493 -0.6875 -0.2326
  159SAPE  H12R17713   5.721   2.583   3.817  0.3638  1.4776 -0.7662
  159SAPE  C21317714   5.901   2.469   3.755 -0.3974 -0.2074 -0.2282
  159SAPE  H13R17715   5.980   2.520   3.813 -1.2544  2.8598 -1.5507
  159SAPE  H13S17716   5.945   2.449   3.655  0.7325  1.7081 -0.1696
  159SAPE  C21417717   5.856   2.334   3.817 -0.5016 -0.5769  0.2949
  159SAPE  H14R17718   5.809   2.269   3.741  1.7397  0.1266 -1.8324
  159SAPE  C21517719   5.870   2.301   3.941  0.5367  0.2676 -0.3592
  159SAPE  H15R17720   5.816   2.212   3.976  0.5424  1.2123  2.2683
  159SAPE  C21617721   5.945   2.375   4.045  0.6327  0.2341 -1.1781
  159SAPE  H16R17722   6.012   2.458   4.016  3.2050 -0.8962  1.1171
  159SAPE  H16S17723   6.016   2.313   4.104  0.9783  0.6175 -1.1829
  159SAPE  C21717724   5.845   2.442   4.146  0.3181 -0.0768  0.1173
  159SAPE  H17R17725   5.900   2.447   4.243  1.3118  1.0743 -0.4812
  159SAPE  H17S17726   5.765   2.367   4.161  0.0136  0.2022 -0.0832
  159SAPE  C21817727   5.764   2.566   4.103 -0.1865 -0.7250 -0.1777
  159SAPE  H18R17728   5.682   2.528   4.039 -0.4076 -1.7754  0.6966
  159SAPE  H18S17729   5.824   2.628   4.033 -0.3587  0.3591  0.6082
  159SAPE  C21917730   5.710   2.655   4.207 -0.0837  0.2094 -1.1805
  159SAPE  H19R17731   5.789   2.711   4.262 -0.4516  1.4872 -1.9303
  159SAPE  H19S17732   5.654   2.585   4.272  0.4651 -0.2218 -1.1629
  159SAPE  C22017733   5.602   2.745   4.162 -0.0492 -0.6330 -0.1149
  159SAPE  H20R17734   5.620   2.820   4.081 -0.4972  1.0574  1.2832
  159SAPE  H20S17735   5.557   2.798   4.248 -1.9541  0.1392 -1.5008
  159SAPE  H20T17736   5.513   2.689   4.128 -1.7863  2.1734 -0.5379
  159SAPE   C3317737   6.516   2.562   3.062  0.4832 -0.8330 -0.2205
  159SAPE   H3X17738   6.493   2.656   3.115  0.6613 -0.9767  0.1126
  159SAPE   H3Y17739   6.623   2.577   3.037  0.1484  0.2925 -1.0392
  159SAPE   C3417740   6.524   2.441   3.170 -0.0002  0.3371 -0.7870
  159SAPE   H4X17741   6.551   2.347   3.117 -0.5326 -0.0373 -0.4003
  159SAPE   H4Y17742   6.423   2.418   3.208  0.6662 -0.6380  0.4896
  159SAPE   C3517743   6.629   2.475   3.290 -0.5478 -0.2463  0.8212
  159SAPE   H5X17744   6.596   2.558   3.357  1.4045  1.4115 -0.1658
  159SAPE   H5Y17745   6.717   2.523   3.243  0.1361 -1.3088  0.9953
  159SAPE   C3617746   6.657   2.357   3.381 -0.3310 -0.4657 -0.3407
  159SAPE   H6X17747   6.560   2.335   3.432 -1.9975  1.9917 -2.2196
  159SAPE   H6Y17748   6.733   2.382   3.458  0.4671 -1.3186 -0.8366
  159SAPE   C3717749   6.698   2.226   3.311  0.3869 -0.3606 -0.1758
  159SAPE   H7X17750   6.780   2.233   3.237  2.3052 -0.6939  1.8135
  159SAPE   H7Y17751   6.607   2.184   3.264  1.0107 -2.2022  0.1775
  159SAPE   C3817752   6.762   2.118   3.393 -0.6436 -0.4825  0.3724
  159SAPE   H8X17753   6.857   2.155   3.439 -0.7863 -1.6518  1.7029
  159SAPE   H8Y17754   6.777   2.024   3.336  1.9739 -0.0022  0.1250
  159SAPE   C3917755   6.680   2.070   3.506  0.4225 -0.2743 -0.2259
  159SAPE   H9X17756   6.589   2.025   3.462  0.5261 -0.0406 -0.6900
  159SAPE   H9Y17757   6.647   2.155   3.569  0.1671 -1.7044  1.6547
  159SAPE  C31017758   6.742   1.973   3.607 -0.2337 -0.3365 -0.3196
  159SAPE  H10X17759   6.818   2.026   3.668 -0.2333 -1.3179  0.5673
  159SAPE  H10Y17760   6.798   1.894   3.553 -0.3685 -0.7777  0.1735
  159SAPE  C31117761   6.645   1.919   3.704  0.3184  0.6049  0.5592
  159SAPE  H11X17762   6.592   2.003   3.754 -0.3297  0.0448  0.8369
  159SAPE  H11Y17763   6.694   1.853   3.779  1.9336 -0.4224 -1.3200
  159SAPE  C31217764   6.546   1.818   3.639 -0.6099 -0.4379 -0.2411
  159SAPE  H12X17765   6.605   1.754   3.570  1.8742  0.4738  0.8924
  159SAPE  H12Y17766   6.470   1.876   3.583 -1.4269  0.6373  1.8502
  159SAPE  C31317767   6.459   1.751   3.746  0.9410 -0.2362  0.7776
  159SAPE  H13X17768   6.353   1.746   3.713  1.4433 -2.8542 -0.7300
  159SAPE  H13Y17769   6.459   1.815   3.836 -0.1166 -0.7521  1.1646
  159SAPE  C31417770   6.497   1.600   3.763  0.4161 -0.4273  0.1804
  159SAPE  H14X17771   6.604   1.593   3.792  0.1132 -0.0231  1.4788
  159SAPE  H14Y17772   6.474   1.557   3.663 -1.3429  1.2153 -0.1970
  159SAPE  C31517773   6.422   1.527   3.879  0.2622  0.6952  0.2793
  159SAPE  H15X17774   6.316   1.554   3.863  0.4366  0.5742 -1.1741
  159SAPE  H15Y17775   6.451   1.567   3.979  0.1572 -0.8922  0.9753
  159SAPE  C31617776   6.422   1.376   3.853 -0.3915  0.2241  0.5756
  159SAPE  H16X17777   6.521   1.333   3.826 -0.3639 -0.3232  1.5160
  159SAPE  H16Y17778   6.364   1.354   3.760  1.7607 -0.0126 -0.8001
  159SAPE  C31717779   6.364   1.299   3.972  0.0196  0.1226 -0.2782
  159SAPE  H17X17780   6.415   1.336   4.063 -0.5773  1.7989 -0.5831
  159SAPE  H17Y17781   6.399   1.196   3.951  1.7879  0.9484 -1.7331
  159SAPE  C31817782   6.212   1.299   3.998  0.0754  0.6088  0.6754
  159SAPE  H18X17783   6.169   1.402   4.002 -0.7753  0.3147 -0.3879
  159SAPE  H18Y17784   6.183   1.262   4.098 -1.6978  1.4585  0.5190
  159SAPE  H18Z17785   6.156   1.235   3.926  1.1496  1.8305 -1.3300
  160SAPE     N17786   5.240   2.365   2.318  0.2418  0.5245 -0.0468
  160SAPE   HN117787   5.290   2.416   2.395  0.7620  2.4026 -1.5330
  160SAPE   HN217788   5.247   2.423   2.232 -2.6466  0.2787 -0.5398
  160SAPE   HN317789   5.141   2.343   2.337  0.0844  0.8723 -0.4484
  160SAPE   C1217790   5.316   2.227   2.317  0.8156 -0.0145 -0.1440
  160SAPE  H12A17791   5.424   2.252   2.310  1.2965 -0.9836  2.4417
  160SAPE  H12B17792   5.286   2.173   2.225  2.3681  1.8195 -1.8189
  160SAPE   C1117793   5.278   2.156   2.444  0.4945  0.2865  0.0232
  160SAPE  H11A17794   5.310   2.225   2.525 -0.2351  1.4561 -0.6627
  160SAPE  H11B17795   5.331   2.059   2.462  0.5810  0.2923 -0.1947
  160SAPE     P17796   5.066   2.010   2.386 -0.0997 -0.3153 -0.1291
  160SAPE   O1317797   4.923   2.048   2.359 -0.3649 -0.0775  0.1808
  160SAPE   O1417798   5.137   1.957   2.267  0.7207 -0.4887 -0.6392
  160SAPE   O1217799   5.135   2.144   2.445 -0.1196  0.1990  0.2315
  160SAPE   O1117800   5.076   1.904   2.504  0.4997 -0.3802 -0.0889
  160SAPE    C117801   5.049   1.933   2.640  0.5354 -0.3304 -0.5840
  160SAPE    HA17802   5.015   2.038   2.643 -0.7923 -0.7523  1.4400
  160SAPE    HB17803   4.960   1.877   2.676  1.3275 -0.7482  0.7797
  160SAPE    C217804   5.167   1.925   2.745  0.3028  0.1640 -0.1183
  160SAPE    HS17805   5.258   1.975   2.705 -0.5945  1.5301 -0.5521
  160SAPE   O2117806   5.189   1.793   2.781 -0.4814  1.2019 -0.1470
  160SAPE   C2117807   5.262   1.720   2.692  0.7396  0.1471  0.3138
  160SAPE   O2217808   5.331   1.762   2.603  0.3801  0.1821 -0.1724
  160SAPE   C2217809   5.245   1.574   2.719  0.5281  0.3150 -0.0990
  160SAPE   H2R17810   5.234   1.549   2.827  1.1906 -0.9063 -0.2863
  160SAPE   H2S17811   5.156   1.526   2.672  0.1996 -1.6283  2.2746
  160SAPE    C317812   5.127   2.007   2.872  0.4322 -0.2795  0.1934
  160SAPE    HX17813   5.211   2.003   2.945  2.5166 -3.1454 -2.1018
  160SAPE    HY17814   5.044   1.953   2.923 -1.4041  2.6496  0.5182
  160SAPE   O3117815   5.075   2.140   2.850 -0.1887 -0.2914  0.2516
  160SAPE   C3117816   5.152   2.227   2.801  0.8083  0.0576 -0.4068
  160SAPE   O3217817   5.270   2.217   2.766 -0.3476 -0.3700 -0.3726
  160SAPE   C3217818   5.069   2.352   2.791  0.1653 -0.3289  0.5998
  160SAPE   H2X17819   5.008   2.370   2.882 -1.1029 -0.4106 -0.1997
  160SAPE   H2Y17820   5.003   2.340   2.703  3.6458 -0.3370 -2.2354
  160SAPE   C2317821   5.371   1.487   2.677  0.8509 -0.0394  0.3331
  160SAPE   H3R17822   5.405   1.517   2.575  1.8056  0.3998  0.7726
  160SAPE   H3S17823   5.334   1.384   2.662  1.2384  0.0330 -1.3194
  160SAPE   C2417824   5.478   1.486   2.787 -0.9651  0.2418 -0.3156
  160SAPE   H4R17825   5.553   1.413   2.749 -2.1158  0.5333 -3.5148
  160SAPE   H4S17826   5.434   1.455   2.884  0.0624  1.2977  0.5177
  160SAPE   C2517827   5.558   1.614   2.804  0.3822 -0.0153  1.1151
  160SAPE   H5R17828   5.637   1.626   2.728  0.4272  1.8241  1.3991
  160SAPE   C2617829   5.543   1.710   2.897 -0.1512  0.2251 -0.9078
  160SAPE   H6R17830   5.601   1.803   2.890  0.7138 -0.3193 -1.1526
  160SAPE   C2717831   5.445   1.712   3.011  0.1153  0.0594 -0.4734
  160SAPE   H7R17832   5.364   1.636   2.999 -1.5831  1.8685 -0.9477
  160SAPE   H7S17833   5.382   1.803   3.005 -0.5986 -0.5497 -4.1992
  160SAPE   C2817834   5.520   1.693   3.145 -0.2866  0.2235  0.4447
  160SAPE   H8R17835   5.601   1.619   3.150 -0.9525 -0.6012 -0.4770
  160SAPE   C2917836   5.487   1.763   3.259  0.1649  0.2448 -0.2926
  160SAPE   H9R17837   5.552   1.758   3.348 -0.4291  1.5218  0.2350
  160SAPE  C21017838   5.384   1.870   3.276 -0.3765  0.1085  0.5461
  160SAPE  H10R17839   5.400   1.936   3.188  1.1331 -1.1806 -0.1891
  160SAPE  H10S17840   5.405   1.923   3.371  2.2970  0.2071 -0.0319
  160SAPE  C21117841   5.246   1.814   3.277 -0.2595 -0.3199  0.5937
  160SAPE  H11R17842   5.235   1.716   3.227 -1.1255  0.4534 -0.7998
  160SAPE  C21217843   5.136   1.878   3.316 -0.6684 -0.7762 -0.1658
  160SAPE  H12R17844   5.039   1.828   3.306 -0.4626 -2.0807  3.0229
  160SAPE  C21317845   5.148   2.020   3.373 -1.1330 -0.4418  0.3446
  160SAPE  H13R17846   5.248   2.049   3.413 -1.9129  2.0059  0.7026
  160SAPE  H13S17847   5.084   2.020   3.464 -0.8292 -2.3220  0.6062
  160SAPE  C21417848   5.101   2.113   3.268 -0.0597 -0.4704 -0.3021
  160SAPE  H14R17849   5.128   2.079   3.167  2.6203 -0.6807  0.4082
  160SAPE  C21517850   5.046   2.237   3.285 -0.5697 -0.1945  0.0503
  160SAPE  H15R17851   4.995   2.276   3.196 -0.4435 -1.6830 -0.7061
  160SAPE  C21617852   5.013   2.302   3.413 -0.1344  0.0785 -0.1015
  160SAPE  H16R17853   4.998   2.217   3.483  1.4880 -1.2461 -1.2815
  160SAPE  H16S17854   4.917   2.356   3.398  0.2959  0.1947 -2.9131
  160SAPE  C21717855   5.128   2.400   3.457 -0.8416 -0.0535 -0.2576
  160SAPE  H17R17856   5.133   2.489   3.392 -1.1330 -0.0845 -0.3246
  160SAPE  H17S17857   5.229   2.354   3.459 -0.3086  0.5797  5.5052
  160SAPE  C21817858   5.098   2.451   3.604  0.2400  0.2020  0.3843
  160SAPE  H18R17859   5.135   2.363   3.661 -1.5893 -1.8968 -1.4401
  160SAPE  H18S17860   4.988   2.437   3.616  0.4025 -0.1499  1.6404
  160SAPE  C21917861   5.160   2.584   3.657 -0.3003  0.3033  0.2867
  160SAPE  H19R17862   5.270   2.583   3.641 -0.2917 -0.4789  0.3549
  160SAPE  H19S17863   5.143   2.578   3.766 -1.2457  0.2502  0.1423
  160SAPE  C22017864   5.110   2.718   3.603  0.2234 -0.9014 -0.1467
  160SAPE  H20R17865   5.010   2.736   3.647  0.5757  0.1500  0.2586
  160SAPE  H20S17866   5.085   2.724   3.495 -0.5620  0.8718  0.1063
  160SAPE  H20T17867   5.161   2.815   3.622 -1.4484  0.4183 -1.9787
  160SAPE   C3317868   5.159   2.476   2.765 -0.0346 -0.3539  0.1111
  160SAPE   H3X17869   5.085   2.550   2.729 -0.1425 -0.0109  1.0043
  160SAPE   H3Y17870   5.226   2.458   2.678 -0.0492 -1.4894  0.3200
  160SAPE   C3417871   5.234   2.520   2.881  0.4033 -0.1161 -0.4245
  160SAPE   H4X17872   5.305   2.595   2.840 -2.6421  1.6731 -2.8496
  160SAPE   H4Y17873   5.277   2.436   2.939 -0.1364 -0.6175 -0.7418
  160SAPE   C3517874   5.168   2.606   2.993  0.2408  0.3030  0.4100
  160SAPE   H5X17875   5.071   2.569   3.035  0.6542 -0.3333  0.8165
  160SAPE   H5Y17876   5.140   2.705   2.950 -0.2236 -0.4526 -1.0907
  160SAPE   C3617877   5.264   2.625   3.115  0.3039  0.1733 -0.0267
  160SAPE   H6X17878   5.362   2.638   3.064 -0.8352 -0.1818 -2.4576
  160SAPE   H6Y17879   5.257   2.533   3.177 -2.9234 -0.1110 -0.6369
  160SAPE   C3717880   5.231   2.749   3.192 -0.2344  0.2279  0.0454
  160SAPE   H7X17881   5.143   2.744   3.260  0.8898  0.9278  1.6116
  160SAPE   H7Y17882   5.227   2.839   3.128  2.8783  2.0107  2.1161
  160SAPE   C3817883   5.346   2.778   3.291  0.1925  0.4872  0.2078
  160SAPE   H8X17884   5.438   2.774   3.228 -0.0933 -0.4561 -0.1638
  160SAPE   H8Y17885   5.338   2.702   3.371  0.0425  1.6878  1.3810
  160SAPE   C3917886   5.337   2.914   3.360  0.7388 -0.3304 -0.0295
  160SAPE   H9X17887   5.243   2.912   3.421  0.6881  1.4312 -0.0234
  160SAPE   H9Y17888   5.327   2.994   3.285  0.6540 -0.0625  0.2645
  160SAPE  C31017889   5.448   2.937   3.461 -0.1141  0.1903 -0.0242
  160SAPE  H10X17890   5.540   2.937   3.400 -0.2506  2.4760 -0.3365
  160SAPE  H10Y17891   5.442   2.859   3.540  0.0214 -0.0349 -0.2355
  160SAPE  C31117892   5.435   3.067   3.532  0.4439 -0.2175  0.2069
  160SAPE  H11X17893   5.423   3.146   3.454  0.9137 -1.1925 -0.8812
  160SAPE  H11Y17894   5.530   3.083   3.588  0.5696 -0.3749  0.0363
  160SAPE  C31217895   5.324   3.059   3.632  0.3742  0.2973 -0.4521
  160SAPE  H12X17896   5.338   2.976   3.705  3.3664  1.9120  1.0026
  160SAPE  H12Y17897   5.220   3.051   3.593 -0.3165  0.0836  1.3327
  160SAPE  C31317898   5.308   3.186   3.715 -0.4971 -0.9062 -0.1815
  160SAPE  H13X17899   5.278   3.261   3.638  0.2719 -0.2075  0.1793
  160SAPE  H13Y17900   5.406   3.218   3.758 -0.0621  1.7697 -2.7976
  160SAPE  C31417901   5.206   3.183   3.835  0.7021 -0.5862  0.0413
  160SAPE  H14X17902   5.196   3.087   3.889  3.1371 -1.4976 -0.9617
  160SAPE  H14Y17903   5.108   3.195   3.783  1.7409  1.0114 -1.7161
  160SAPE  C31517904   5.220   3.298   3.940  0.7307 -0.1519  0.3325
  160SAPE  H15X17905   5.206   3.398   3.894 -0.6187  0.0996  1.2167
  160SAPE  H15Y17906   5.326   3.296   3.971  0.8612  2.8761  0.3208
  160SAPE  C31617907   5.121   3.284   4.059 -0.4192 -0.4877 -0.4688
  160SAPE  H16X17908   5.162   3.201   4.120 -1.2580 -0.4292  0.1986
  160SAPE  H16Y17909   5.024   3.254   4.014 -1.9227  2.6096  0.4422
  160SAPE  C31717910   5.107   3.416   4.138  0.1707  0.1212  0.2502
  160SAPE  H17X17911   5.072   3.503   4.078  0.6866  0.3942  0.3432
  160SAPE  H17Y17912   5.206   3.445   4.181 -1.2208  1.0033  3.1592
  160SAPE  C31817913   5.008   3.391   4.251 -0.3040  0.9415 -0.1506
  160SAPE  H18X17914   4.910   3.360   4.210  0.2675 -0.5966 -0.4344
  160SAPE  H18Y17915   4.990   3.488   4.302 -3.4873  0.5231 -0.2850
  160SAPE  H18Z17916   5.038   3.307   4.317 -2.9130 -2.1552 -2.5424
  161SAPE     N17917   4.035   4.347   2.061 -0.0555 -0.0892  0.0469
  161SAPE   HN117918   4.139   4.351   2.069  0.0169 -1.7939  0.1567
  161SAPE   HN217919   4.003   4.254   2.029 -1.0015  0.0591  0.5483
  161SAPE   HN317920   3.990   4.418   2.000 -0.4213  0.2398  0.6878
  161SAPE   C1217921   3.993   4.346   2.203  0.1434 -0.4424 -0.0646
  161SAPE  H12A17922   4.015   4.443   2.253  0.7819 -0.5322 -0.1599
  161SAPE  H12B17923   4.040   4.256   2.250 -0.0075 -2.1647 -2.9622
  161SAPE   C1117924   3.839   4.328   2.200 -0.2080 -0.2249 -0.1674
  161SAPE  H11A17925   3.822   4.330   2.310 -2.0966 -2.9875 -0.3080
  161SAPE  H11B17926   3.812   4.230   2.156  0.3498 -1.2677  1.7177
  161SAPE     P17927   3.622   4.459   2.126 -0.3480  0.1667  0.3905
  161SAPE   O1317928   3.601   4.579   2.043 -0.4449 -0.4870 -0.3365
  161SAPE   O1417929   3.557   4.330   2.091  0.8529 -0.2632 -0.0593
  161SAPE   O1217930   3.776   4.432   2.127 -0.0280 -0.0460 -0.2203
  161SAPE   O1117931   3.597   4.504   2.269  0.2725  0.4978 -0.6095
  161SAPE    C117932   3.462   4.527   2.321 -0.0316  0.7946 -0.4557
  161SAPE    HA17933   3.386   4.534   2.239 -0.9057  1.2115  0.3739
  161SAPE    HB17934   3.433   4.436   2.378 -1.9420  0.3775 -1.9438
  161SAPE    C217935   3.458   4.652   2.407 -1.0331  0.1545  0.3182
  161SAPE    HS17936   3.562   4.663   2.446 -1.2717  0.2436  0.9318
  161SAPE   O2117937   3.368   4.640   2.518 -0.2997  0.4403  0.1890
  161SAPE   C2117938   3.414   4.562   2.607  0.3058 -0.5666 -0.3497
  161SAPE   O2217939   3.528   4.523   2.622  0.0044  0.1109 -0.2345
  161SAPE   C2217940   3.314   4.555   2.719 -0.9993  0.4967 -0.1724
  161SAPE   H2R17941   3.285   4.660   2.742 -2.6165 -0.1774  1.0648
  161SAPE   H2S17942   3.220   4.510   2.681 -0.2764  0.1104 -1.5666
  161SAPE    C317943   3.435   4.785   2.323  0.5519  0.0294 -0.8325
  161SAPE    HX17944   3.333   4.767   2.283  0.7027 -0.4816 -0.9990
  161SAPE    HY17945   3.514   4.789   2.244  1.7016 -2.1004  0.1221
  161SAPE   O3117946   3.447   4.901   2.409 -0.1282 -0.4068  0.1249
  161SAPE   C3117947   3.405   5.008   2.336  0.5398 -0.1932 -0.7629
  161SAPE   O3217948   3.374   5.004   2.218  0.0945 -0.1365 -0.2787
  161SAPE   C3217949   3.399   5.129   2.424 -0.2938 -0.6337 -0.3897
  161SAPE   H2X17950   3.331   5.103   2.509  0.2557  0.1061  0.2827
  161SAPE   H2Y17951   3.342   5.209   2.372  0.4652 -1.0839 -1.9744
  161SAPE   C2317952   3.366   4.490   2.851 -0.0978  1.1219  0.5581
  161SAPE   H3R17953   3.465   4.540   2.858  1.4348 -0.7372 -3.9738
  161SAPE   H3S17954   3.376   4.382   2.830 -3.5576  0.5817  1.1291
  161SAPE   C2417955   3.267   4.507   2.958  0.1517 -0.3032  0.1997
  161SAPE   H4R17956   3.227   4.610   2.965 -0.2685 -0.4809  0.4622
  161SAPE   H4S17957   3.310   4.481   3.057  3.3806  2.3383 -0.3620
  161SAPE   C2517958   3.149   4.415   2.939  0.2985 -0.7044 -0.6625
  161SAPE   H5R17959   3.098   4.433   2.844 -0.7406  1.0495  0.1824
  161SAPE   C2617960   3.100   4.318   3.028 -0.0171  0.0546 -0.2057
  161SAPE   H6R17961   3.014   4.260   2.990  1.6174 -1.6997 -1.4000
  161SAPE   C2717962   3.160   4.276   3.160  0.0461  0.8453 -0.4226
  161SAPE   H7R17963   3.270   4.293   3.160 -0.2783  3.6859  1.8186
  161SAPE   H7S17964   3.132   4.179   3.206  1.2905  0.6597 -0.0065
  161SAPE   C2817965   3.125   4.378   3.265  0.6946 -0.1363 -0.8087
  161SAPE   H8R17966   3.048   4.455   3.246 -0.5957 -0.5078  2.3231
  161SAPE   C2917967   3.197   4.400   3.380  0.2720 -0.2800 -0.1992
  161SAPE   H9R17968   3.162   4.473   3.454 -1.6676 -2.9056  1.6689
  161SAPE  C21017969   3.308   4.314   3.437 -0.2640  0.2959  1.3408
  161SAPE  H10R17970   3.405   4.366   3.434  0.4364 -0.9405 -1.6110
  161SAPE  H10S17971   3.319   4.229   3.366  4.2693  0.5414  1.4861
  161SAPE  C21117972   3.280   4.265   3.573 -0.5138  0.2835  0.0648
  161SAPE  H11R17973   3.174   4.243   3.595  0.0945 -0.4867  2.5265
  161SAPE  C21217974   3.369   4.253   3.679  0.4421 -0.4634  0.2692
  161SAPE  H12R17975   3.327   4.217   3.774 -0.1085  1.8546  0.9559
  161SAPE  C21317976   3.515   4.289   3.679  0.3024 -0.1996 -0.8165
  161SAPE  H13R17977   3.519   4.400   3.677  0.1829 -0.1151  1.4579
  161SAPE  H13S17978   3.564   4.246   3.589  2.5936  3.5881 -1.6040
  161SAPE  C21417979   3.574   4.231   3.808 -0.5042  0.3313  0.0911
  161SAPE  H14R17980   3.598   4.124   3.803 -2.1826 -0.0922  0.4579
  161SAPE  C21517981   3.600   4.306   3.923 -0.3961  0.4373 -0.0797
  161SAPE  H15R17982   3.653   4.262   4.009  0.5580  3.7096  1.1502
  161SAPE  C21617983   3.565   4.449   3.953  0.0945  0.4450 -0.4909
  161SAPE  H16R17984   3.551   4.500   3.856 -0.4150 -1.8953 -1.7435
  161SAPE  H16S17985   3.642   4.500   4.015  2.3042 -0.3467 -2.4223
  161SAPE  C21717986   3.441   4.444   4.044 -0.0997 -0.1165 -0.7820
  161SAPE  H17R17987   3.362   4.375   4.009 -0.3170 -0.1652 -0.2102
  161SAPE  H17S17988   3.395   4.546   4.044 -0.7877 -0.4167 -1.5874
  161SAPE  C21817989   3.463   4.403   4.191 -0.1193  0.8915  0.4049
  161SAPE  H18R17990   3.518   4.487   4.238  1.0820  1.3155 -1.6286
  161SAPE  H18S17991   3.526   4.311   4.195  1.2583  1.6439 -2.0385
  161SAPE  C21917992   3.331   4.382   4.266 -0.4119  1.0601 -0.3342
  161SAPE  H19R17993   3.297   4.280   4.235  0.1749  0.3726  1.1828
  161SAPE  H19S17994   3.259   4.454   4.222 -2.2385  0.0832  0.9297
  161SAPE  C22017995   3.343   4.403   4.424  0.1929  0.8345  0.6291
  161SAPE  H20R17996   3.386   4.504   4.440  1.0337  0.6881 -0.5862
  161SAPE  H20S17997   3.406   4.328   4.476  0.1404  0.8740  0.7510
  161SAPE  H20T17998   3.248   4.379   4.476  1.8880  1.0860  4.1870
  161SAPE   C3317999   3.535   5.187   2.479 -0.0337  0.1978 -0.2676
  161SAPE   H3X18000   3.586   5.227   2.389 -1.2838  2.2750 -0.1306
  161SAPE   H3Y18001   3.601   5.110   2.522 -1.3031 -0.6507  0.2298
  161SAPE   C3418002   3.513   5.295   2.580 -0.0623 -0.2636 -0.5678
  161SAPE   H4X18003   3.423   5.354   2.550 -0.1397 -0.5691 -0.9490
  161SAPE   H4Y18004   3.604   5.357   2.567 -0.5775  0.2477 -1.9100
  161SAPE   C3518005   3.505   5.261   2.728  0.1510 -0.0187 -0.5728
  161SAPE   H5X18006   3.603   5.225   2.767 -1.0273  0.2750  3.0757
  161SAPE   H5Y18007   3.427   5.184   2.748 -1.3234  1.7495  0.8276
  161SAPE   C3618008   3.498   5.384   2.823 -0.0606  0.4388 -0.3666
  161SAPE   H6X18009   3.558   5.469   2.784  0.5988  0.9016  1.5630
  161SAPE   H6Y18010   3.545   5.361   2.921  0.1607  1.8276 -0.1282
  161SAPE   C3718011   3.356   5.442   2.846  0.4286 -0.4252 -0.3709
  161SAPE   H7X18012   3.307   5.457   2.748  0.7639  3.7077 -0.0903
  161SAPE   H7Y18013   3.360   5.546   2.886  0.2367 -0.3226 -0.6151
  161SAPE   C3818014   3.267   5.355   2.935 -0.0157  0.2440 -0.4230
  161SAPE   H8X18015   3.257   5.251   2.895 -0.6618 -0.4411  1.4038
  161SAPE   H8Y18016   3.163   5.393   2.947  0.2908  0.2975  2.8418
  161SAPE   C3918017   3.302   5.340   3.084  0.1604 -0.0167  0.3587
  161SAPE   H9X18018   3.289   5.443   3.123 -1.0999 -0.4975  1.2887
  161SAPE   H9Y18019   3.406   5.301   3.092 -0.3745 -1.4548  0.6436
  161SAPE  C31018020   3.202   5.246   3.155  0.3555  0.1289  0.7188
  161SAPE  H10X18021   3.210   5.148   3.104  1.1155 -0.1361  1.3293
  161SAPE  H10Y18022   3.098   5.276   3.130  0.2396 -0.5071  0.4215
  161SAPE  C31118023   3.229   5.224   3.303 -0.3181  0.0071 -0.0550
  161SAPE  H11X18024   3.330   5.178   3.306  0.0766  0.6930 -1.7800
  161SAPE  H11Y18025   3.149   5.164   3.352 -2.2936  0.7955 -2.1309
  161SAPE  C31218026   3.211   5.356   3.383 -0.2523  0.0810 -0.1275
  161SAPE  H12X18027   3.104   5.383   3.369 -0.1503  0.5590 -0.0202
  161SAPE  H12Y18028   3.273   5.439   3.342  1.2888 -1.1510 -0.3520
  161SAPE  C31318029   3.254   5.335   3.529  0.1379 -0.3151 -0.0769
  161SAPE  H13X18030   3.358   5.295   3.523 -0.7046 -2.3891 -2.4526
  161SAPE  H13Y18031   3.199   5.252   3.580  0.0207  0.9078  1.8766
  161SAPE  C31418032   3.245   5.450   3.629 -0.6253  0.8893  0.1975
  161SAPE  H14X18033   3.151   5.500   3.598 -2.2884 -1.4488  1.2039
  161SAPE  H14Y18034   3.334   5.508   3.596  1.4622 -1.5173  1.2308
  161SAPE  C31518035   3.248   5.414   3.776  0.0470  0.0476 -0.1654
  161SAPE  H15X18036   3.351   5.385   3.803  0.3764  1.4783  0.1974
  161SAPE  H15Y18037   3.168   5.338   3.793  0.3420 -0.3103 -0.3867
  161SAPE  C31618038   3.219   5.531   3.872 -0.1486 -1.1549 -0.1481
  161SAPE  H16X18039   3.206   5.495   3.976  0.8507 -1.9785 -0.2934
  161SAPE  H16Y18040   3.120   5.573   3.843  1.0190  1.0315 -1.1856
  161SAPE  C31718041   3.323   5.644   3.859  0.4365  0.6586 -0.2336
  161SAPE  H17X18042   3.341   5.661   3.750  3.0125  0.3193  0.0765
  161SAPE  H17Y18043   3.419   5.616   3.908  0.6135 -0.2261 -1.0402
  161SAPE  C31818044   3.296   5.781   3.914  0.5176 -0.0239 -0.4888
  161SAPE  H18X18045   3.389   5.843   3.916  0.0469  0.6889  1.2039
  161SAPE  H18Y18046   3.258   5.771   4.018  2.1180  0.6945  0.1942
  161SAPE  H18Z18047   3.215   5.828   3.854 -1.2121 -0.4925  1.3791
  162SAPE     N18048   1.621   6.024   2.106 -0.1110 -0.3221 -0.0796
  162SAPE   HN118049   1.565   6.012   2.193 -0.1181 -1.9786 -0.2835
  162SAPE   HN218050   1.541   6.038   2.040  0.7876  0.9935 -0.9338
  162SAPE   HN318051   1.667   5.936   2.076 -1.7497 -0.6312 -1.9458
  162SAPE   C1218052   1.708   6.145   2.114 -0.0727 -0.0322  0.0479
  162SAPE  H12A18053   1.754   6.175   2.018 -0.5592  1.9370  0.3740
  162SAPE  H12B18054   1.790   6.131   2.188 -1.6509 -1.4657  1.6250
  162SAPE   C1118055   1.605   6.253   2.163  0.2370 -0.0260  0.6049
  162SAPE  H11A18056   1.578   6.229   2.268 -0.3852 -0.6375  0.3155
  162SAPE  H11B18057   1.509   6.261   2.108 -1.1844 -1.4658  2.7084
  162SAPE     P18058   1.591   6.515   2.181 -0.0825  0.1909  0.0031
  162SAPE   O1318059   1.631   6.602   2.067 -0.2940 -0.1012  0.1405
  162SAPE   O1418060   1.454   6.472   2.204 -0.3271  0.1307 -0.0489
  162SAPE   O1218061   1.672   6.383   2.151 -0.0227 -0.3055 -0.5176
  162SAPE   O1118062   1.674   6.565   2.308  0.5572  0.0898 -0.3296
  162SAPE    C118063   1.686   6.480   2.421  0.1956  0.6127  0.5184
  162SAPE    HA18064   1.584   6.462   2.462  1.0637 -1.4996  1.9063
  162SAPE    HB18065   1.733   6.384   2.391  0.3901  0.6059  0.8383
  162SAPE    C218066   1.771   6.547   2.534  0.5083 -1.3519 -0.1237
  162SAPE    HS18067   1.866   6.580   2.489  2.3665 -2.1070  2.9381
  162SAPE   O2118068   1.805   6.463   2.650 -0.2244 -0.0978 -0.4675
  162SAPE   C2118069   1.929   6.474   2.695  0.0935  0.2648  0.2908
  162SAPE   O2218070   2.014   6.549   2.645  0.0241 -0.1864  0.5874
  162SAPE   C2218071   1.954   6.378   2.814 -0.0228 -0.3495  0.0034
  162SAPE   H2R18072   1.858   6.368   2.869  0.8365  0.4571  1.7173
  162SAPE   H2S18073   1.987   6.280   2.775  0.7158  0.1879 -0.7639
  162SAPE    C318074   1.701   6.679   2.575  0.3564  0.2594  0.5310
  162SAPE    HX18075   1.607   6.655   2.629 -0.1020 -1.5709 -0.9912
  162SAPE    HY18076   1.687   6.732   2.479 -1.8271 -0.9539  0.1326
  162SAPE   O3118077   1.789   6.752   2.664  0.5679  0.0429 -0.0013
  162SAPE   C3118078   1.869   6.850   2.616  0.1138 -0.0911  0.3970
  162SAPE   O3218079   1.854   6.908   2.509  0.1650  0.3261 -0.2064
  162SAPE   C3218080   1.990   6.871   2.704 -0.1339 -0.0793  0.1145
  162SAPE   H2X18081   2.077   6.807   2.680  0.0738 -1.6646  4.3184
  162SAPE   H2Y18082   1.960   6.831   2.803  0.3881 -0.2521  0.2067
  162SAPE   C2318083   2.067   6.427   2.921  0.3933 -0.5532  0.2229
  162SAPE   H3R18084   2.163   6.438   2.866 -0.9795  1.9933 -1.9421
  162SAPE   H3S18085   2.078   6.344   2.994 -0.3407  0.1836  1.1870
  162SAPE   C2418086   2.034   6.558   2.983 -0.1647  0.0100  0.7824
  162SAPE   H4R18087   1.940   6.532   3.037 -0.7632 -0.0771 -0.2587
  162SAPE   H4S18088   2.017   6.628   2.899 -1.0201 -0.7141  0.3311
  162SAPE   C2518089   2.137   6.610   3.081 -0.3731 -0.1637  0.5263
  162SAPE   H5R18090   2.225   6.658   3.034 -0.2468 -0.3134  0.6083
  162SAPE   C2618091   2.143   6.604   3.213 -0.3553 -0.2848 -0.0463
  162SAPE   H6R18092   2.229   6.654   3.259 -1.2039 -0.6476  2.0263
  162SAPE   C2718093   2.032   6.548   3.293 -0.5733 -0.5802 -0.0321
  162SAPE   H7R18094   2.003   6.450   3.249  0.9773 -0.6460 -1.0235
  162SAPE   H7S18095   1.952   6.624   3.296 -0.1060 -0.0737  3.6313
  162SAPE   C2818096   2.080   6.507   3.430 -0.8589  0.1790 -0.0678
  162SAPE   H8R18097   2.103   6.400   3.434  0.3411  0.4716  1.8433
  162SAPE   C2918098   2.092   6.590   3.536  0.1465 -0.2829 -0.4488
  162SAPE   H9R18099   2.104   6.542   3.635 -1.8817 -0.6545 -0.3554
  162SAPE  C21018100   2.052   6.731   3.548  0.2978  0.1708 -0.3478
  162SAPE  H10R18101   2.049   6.788   3.452  0.1268  1.7653  0.5761
  162SAPE  H10S18102   2.122   6.779   3.620  1.5070 -0.4332 -1.0779
  162SAPE  C21118103   1.915   6.752   3.608 -0.1387 -0.3245 -0.2304
  162SAPE  H11R18104   1.850   6.665   3.629 -2.4150  1.8065  2.2504
  162SAPE  C21218105   1.848   6.867   3.616  0.5235  0.9577  0.6546
  162SAPE  H12R18106   1.747   6.861   3.659  0.6837 -1.2800  0.8274
  162SAPE  C21318107   1.898   6.999   3.575 -0.2444  0.1793  0.1618
  162SAPE  H13R18108   1.806   7.058   3.558  0.6675  0.6808 -4.5288
  162SAPE  H13S18109   1.954   6.997   3.479  0.7888  1.8331  0.6780
  162SAPE  C21418110   1.979   7.063   3.686  0.1309  0.0405  0.4058
  162SAPE  H14R18111   2.080   7.020   3.692 -0.3992 -2.3631 -3.8797
  162SAPE  C21518112   1.954   7.175   3.757  0.2496 -0.2950 -0.5263
  162SAPE  H15R18113   2.032   7.202   3.829  0.1443  1.3390 -0.9987
  162SAPE  C21618114   1.828   7.264   3.753  0.6374 -0.0431  0.0092
  162SAPE  H16R18115   1.784   7.254   3.652 -0.0402  0.9793  0.1928
  162SAPE  H16S18116   1.871   7.367   3.760  2.2476 -0.7318  0.6718
  162SAPE  C21718117   1.717   7.251   3.848 -0.0908 -0.3407 -0.2557
  162SAPE  H17R18118   1.690   7.144   3.832  0.8434 -0.7493  0.7256
  162SAPE  H17S18119   1.630   7.318   3.829 -0.6144 -0.4910  1.3779
  162SAPE  C21818120   1.751   7.285   3.994  0.2759  0.0212 -0.7422
  162SAPE  H18R18121   1.832   7.222   4.037  3.8693  4.0740 -0.9808
  162SAPE  H18S18122   1.670   7.251   4.063  1.3468 -3.2478 -0.9004
  162SAPE  C21918123   1.766   7.429   4.009  0.0402  0.7142  0.5073
  162SAPE  H19R18124   1.672   7.475   3.974  1.4953  2.3679 -1.4414
  162SAPE  H19S18125   1.830   7.476   3.931  0.6988  0.1785  0.7068
  162SAPE  C22018126   1.806   7.478   4.147  0.1415 -0.5258 -0.0756
  162SAPE  H20R18127   1.781   7.585   4.155 -1.0520 -0.7841 -0.1243
  162SAPE  H20S18128   1.914   7.463   4.169  0.9275  1.9627 -1.8299
  162SAPE  H20T18129   1.738   7.430   4.221  0.8842 -0.0040  0.9628
  162SAPE   C3318130   2.034   7.019   2.721  0.7015 -0.2589  0.7224
  162SAPE   H3X18131   1.938   7.073   2.740  0.4169  0.1480 -1.5634
  162SAPE   H3Y18132   2.085   7.049   2.627  2.8033 -1.5095  1.3955
  162SAPE   C3418133   2.131   7.033   2.840  0.7976 -0.5683  0.4836
  162SAPE   H4X18134   2.106   6.987   2.938  2.1038  0.4311  1.3179
  162SAPE   H4Y18135   2.122   7.142   2.860  0.1816  0.5790 -4.5287
  162SAPE   C3518136   2.273   6.996   2.794  1.3477 -0.0821 -0.3206
  162SAPE   H5X18137   2.287   7.035   2.691 -0.6426 -0.5988 -0.8327
  162SAPE   H5Y18138   2.288   6.886   2.785  0.3940 -0.0995 -1.9989
  162SAPE   C3618139   2.382   7.052   2.891  0.7760  0.3917  0.0943
  162SAPE   H6X18140   2.346   7.128   2.964  3.1543  1.1120  0.5955
  162SAPE   H6Y18141   2.459   7.108   2.834  1.1035 -0.0063  0.1352
  162SAPE   C3718142   2.438   6.950   2.983 -0.0192 -0.8467  0.4385
  162SAPE   H7X18143   2.472   6.875   2.909 -1.9964  0.7389 -2.2616
  162SAPE   H7Y18144   2.359   6.904   3.046  0.5806 -1.3739  0.8198
  162SAPE   C3818145   2.560   6.994   3.060 -0.1726  0.1337  0.2089
  162SAPE   H8X18146   2.524   7.016   3.163 -0.6293  1.8352 -0.2755
  162SAPE   H8Y18147   2.602   7.084   3.011 -1.5299  1.0907  0.7319
  162SAPE   C3918148   2.662   6.884   3.062 -0.3809 -0.1428  0.5744
  162SAPE   H9X18149   2.681   6.857   2.955 -3.2251 -2.9596  0.6278
  162SAPE   H9Y18150   2.618   6.789   3.098 -1.3670  0.3200  0.6186
  162SAPE  C31018151   2.795   6.910   3.136 -0.3149  0.5788  0.6191
  162SAPE  H10X18152   2.830   7.011   3.104  1.3627 -0.6268 -1.6668
  162SAPE  H10Y18153   2.873   6.840   3.098  1.3895  3.3500 -1.4434
  162SAPE  C31118154   2.782   6.899   3.282 -0.6895 -0.1604 -0.3144
  162SAPE  H11X18155   2.763   6.793   3.311 -1.9431  0.2492  0.4321
  162SAPE  H11Y18156   2.700   6.961   3.324  0.8982  2.8834 -1.4364
  162SAPE  C31218157   2.896   6.955   3.375 -0.7526 -0.1943  0.3762
  162SAPE  H12X18158   2.912   7.061   3.349  1.5530 -0.2895  1.1696
  162SAPE  H12Y18159   2.991   6.900   3.361 -0.0518  1.2068 -0.4542
  162SAPE  C31318160   2.858   6.952   3.528 -0.3449 -0.3988  0.6728
  162SAPE  H13X18161   2.830   6.846   3.549 -0.8181 -0.4187 -0.0019
  162SAPE  H13Y18162   2.768   7.016   3.542 -0.2356  0.2006 -1.1871
  162SAPE  C31418163   2.976   6.992   3.623 -0.4212 -0.4058 -0.4827
  162SAPE  H14X18164   2.981   7.100   3.646 -2.1334 -0.8602  2.5936
  162SAPE  H14Y18165   3.073   6.954   3.586 -1.3420 -2.3602 -1.0263
  162SAPE  C31518166   2.954   6.938   3.764  0.9122 -0.1026 -0.8811
  162SAPE  H15X18167   3.018   6.987   3.840 -1.0058  2.0631 -0.5810
  162SAPE  H15Y18168   2.974   6.828   3.762  0.3348 -0.2165 -2.6749
  162SAPE  C31618169   2.811   6.961   3.801 -0.1304 -0.0134 -0.4179
  162SAPE  H16X18170   2.745   6.886   3.752  0.1271 -0.2849 -0.3536
  162SAPE  H16Y18171   2.772   7.059   3.767 -1.6266 -0.2287  0.5850
  162SAPE  C31718172   2.795   6.952   3.950  0.5420  0.2366  0.3292
  162SAPE  H17X18173   2.702   7.004   3.982 -0.4027 -1.6311  0.7599
  162SAPE  H17Y18174   2.887   6.982   4.004  0.2839 -1.5383  1.8635
  162SAPE  C31818175   2.750   6.813   4.006  0.1328  1.0028  0.5503
  162SAPE  H18X18176   2.836   6.745   3.990 -0.1220  0.1664  2.4650
  162SAPE  H18Y18177   2.660   6.780   3.951  0.7460 -0.1762  0.2108
  162SAPE  H18Z18178   2.738   6.824   4.116  0.1433  0.7299  0.5796
  163SAPE     N18179   1.678   5.471   2.250 -0.0837  0.3397 -0.1115
  163SAPE   HN118180   1.586   5.424   2.263 -0.1319  0.5172  0.1897
  163SAPE   HN218181   1.663   5.540   2.174 -0.3447  0.5907  0.1643
  163SAPE   HN318182   1.760   5.413   2.224 -0.1680 -0.1898  0.7402
  163SAPE   C1218183   1.697   5.550   2.379 -0.6710 -0.3345 -0.5853
  163SAPE  H12A18184   1.608   5.617   2.376 -0.4481  0.0328  0.6002
  163SAPE  H12B18185   1.786   5.613   2.362 -0.2708 -0.0296  2.1438
  163SAPE   C1118186   1.717   5.471   2.512 -0.1796  0.3427  0.3271
  163SAPE  H11A18187   1.741   5.537   2.599 -2.8040  1.5476  0.2019
  163SAPE  H11B18188   1.804   5.402   2.497  0.2304  0.7350  0.8431
  163SAPE     P18189   1.474   5.451   2.618  0.1596  0.1938  0.3341
  163SAPE   O1318190   1.475   5.597   2.627  0.0534  0.0697 -0.3918
  163SAPE   O1418191   1.354   5.381   2.562  0.0771  0.9380 -0.3429
  163SAPE   O1218192   1.601   5.399   2.537  0.0753  0.0625  0.4606
  163SAPE   O1118193   1.496   5.402   2.763 -0.0009  0.3087 -0.1139
  163SAPE    C118194   1.619   5.355   2.809  0.1047 -0.6433  0.4245
  163SAPE    HA18195   1.705   5.421   2.783  0.8287 -2.4359 -2.0404
  163SAPE    HB18196   1.612   5.348   2.920  0.4700  0.5743  0.5394
  163SAPE    C218197   1.633   5.206   2.773  0.2338  0.0952  0.7497
  163SAPE    HS18198   1.631   5.202   2.662  0.3967 -0.0655  0.7525
  163SAPE   O2118199   1.522   5.132   2.831  0.6885  0.0590  0.2308
  163SAPE   C2118200   1.493   5.019   2.768  0.0732 -0.6409 -0.6212
  163SAPE   O2218201   1.546   4.981   2.666  0.2601  0.5589  0.1597
  163SAPE   C2218202   1.373   4.955   2.835  0.0944  0.3743  0.3480
  163SAPE   H2R18203   1.343   5.032   2.909 -0.0208  0.2892  0.3908
  163SAPE   H2S18204   1.301   4.948   2.750 -0.4628 -0.4588  0.8637
  163SAPE    C318205   1.772   5.143   2.810 -0.6658  0.4693  0.2463
  163SAPE    HX18206   1.770   5.141   2.921 -0.6936  0.4684  0.2458
  163SAPE    HY18207   1.849   5.215   2.775 -1.3809  1.9824  1.6567
  163SAPE   O3118208   1.801   5.013   2.769 -0.9414 -0.3005 -0.3870
  163SAPE   C3118209   1.846   5.000   2.642  0.0408 -0.2474 -0.4481
  163SAPE   O3218210   1.858   5.095   2.566  0.2986 -0.1920 -0.2911
  163SAPE   C3218211   1.893   4.856   2.624  0.4664 -0.1663 -0.6222
  163SAPE   H2X18212   1.904   4.826   2.518  1.2181 -2.4378  0.0313
  163SAPE   H2Y18213   1.820   4.791   2.678 -0.4506  1.5085  0.2280
  163SAPE   C2318214   1.394   4.809   2.899 -0.4036  0.6188  0.3399
  163SAPE   H3R18215   1.457   4.757   2.824  0.4302 -0.9433  2.0646
  163SAPE   H3S18216   1.301   4.750   2.911 -0.7363  1.0464 -0.0827
  163SAPE   C2418217   1.453   4.811   3.047  0.6720 -0.0383 -0.0458
  163SAPE   H4R18218   1.450   4.711   3.096  0.9152 -0.1006 -0.1561
  163SAPE   H4S18219   1.387   4.878   3.107 -0.5525 -1.0801 -0.1832
  163SAPE   C2518220   1.594   4.853   3.041 -0.1212  0.0644  0.0886
  163SAPE   H5R18221   1.660   4.781   2.991  1.5810  2.0973 -0.7367
  163SAPE   C2618222   1.650   4.955   3.106 -0.2954 -0.4058  0.1298
  163SAPE   H6R18223   1.755   4.980   3.089 -1.0931  2.7724 -0.9043
  163SAPE   C2718224   1.578   5.071   3.178 -0.6783 -0.1500 -0.4906
  163SAPE   H7R18225   1.467   5.074   3.175 -0.6275  0.8674 -2.2735
  163SAPE   H7S18226   1.597   5.170   3.131  1.2611 -0.1483  0.2195
  163SAPE   C2818227   1.634   5.073   3.319 -0.1400  0.0609 -0.0654
  163SAPE   H8R18228   1.573   5.019   3.393  0.2255 -0.4189 -0.1123
  163SAPE   C2918229   1.751   5.129   3.359  0.6368  0.0684 -0.0822
  163SAPE   H9R18230   1.778   5.120   3.466 -0.6763  0.5561  0.3121
  163SAPE  C21018231   1.848   5.217   3.283 -0.3237 -0.3995  0.0835
  163SAPE  H10R18232   1.866   5.307   3.345 -1.5883  1.1031 -1.5953
  163SAPE  H10S18233   1.798   5.253   3.190  2.3170 -1.1508 -1.7500
  163SAPE  C21118234   1.980   5.164   3.239  0.7510 -0.1185 -0.3236
  163SAPE  H11R18235   1.987   5.118   3.139 -0.2494 -0.2539 -0.3458
  163SAPE  C21218236   2.098   5.173   3.313  0.9394 -0.1016  0.7962
  163SAPE  H12R18237   2.177   5.119   3.259 -1.3274 -1.1079 -1.8079
  163SAPE  C21318238   2.102   5.222   3.451  0.0107  0.2648  0.3976
  163SAPE  H13R18239   2.190   5.175   3.500  0.6581 -0.2362 -1.1798
  163SAPE  H13S18240   2.026   5.163   3.507  0.4948 -0.5484  0.2217
  163SAPE  C21418241   2.106   5.369   3.488 -0.0769  0.5532 -0.1535
  163SAPE  H14R18242   2.127   5.438   3.406  0.8680  1.5407  0.8824
  163SAPE  C21518243   2.065   5.415   3.607 -0.0933  0.1925  0.8040
  163SAPE  H15R18244   2.048   5.522   3.626 -0.7864 -0.0832  1.8306
  163SAPE  C21618245   2.030   5.322   3.722  0.0587  0.1129 -0.3401
  163SAPE  H16R18246   2.054   5.377   3.816  0.2516  2.3622 -1.6470
  163SAPE  H16S18247   2.088   5.228   3.710 -1.3670 -0.9940  0.8969
  163SAPE  C21718248   1.880   5.290   3.726 -0.6470 -0.1050  0.2064
  163SAPE  H17R18249   1.834   5.259   3.630 -2.3414 -1.1553  1.2875
  163SAPE  H17S18250   1.823   5.373   3.772 -0.9508 -0.3039  0.1953
  163SAPE  C21818251   1.858   5.174   3.822  0.6622 -0.0752  0.0965
  163SAPE  H18R18252   1.919   5.187   3.914  1.1200 -3.1488  0.3355
  163SAPE  H18S18253   1.896   5.076   3.788 -0.4940 -0.2630 -0.7049
  163SAPE  C21918254   1.716   5.143   3.867  0.3770  0.6893 -0.5279
  163SAPE  H19R18255   1.679   5.232   3.922  0.7016  0.7198 -0.3592
  163SAPE  H19S18256   1.708   5.064   3.944  2.0290  1.5013  0.5407
  163SAPE  C22018257   1.615   5.115   3.755 -0.4270  0.1425 -0.0128
  163SAPE  H20R18258   1.659   5.031   3.698 -1.3816 -1.1918  1.1267
  163SAPE  H20S18259   1.611   5.203   3.687 -0.5461  0.2038  0.0724
  163SAPE  H20T18260   1.513   5.084   3.788  0.4778 -0.6236  2.2241
  163SAPE   C3318261   2.041   4.838   2.679  0.1504 -0.0066 -0.7625
  163SAPE   H3X18262   2.092   4.921   2.626  0.5762  0.2230 -0.0135
  163SAPE   H3Y18263   2.078   4.737   2.649  0.8255 -0.2871  0.8926
  163SAPE   C3418264   2.054   4.849   2.837 -0.3325  0.1708 -0.2605
  163SAPE   H4X18265   2.019   4.951   2.865 -1.4554  1.0397 -4.2327
  163SAPE   H4Y18266   2.164   4.840   2.834 -0.4352 -0.8992 -2.1557
  163SAPE   C3518267   1.998   4.734   2.918 -0.2521 -0.5150 -0.2699
  163SAPE   H5X18268   2.047   4.638   2.889  0.0907 -0.7793  1.0973
  163SAPE   H5Y18269   1.892   4.720   2.891  0.3796 -2.4602 -2.0230
  163SAPE   C3618270   2.021   4.765   3.069 -0.4081 -0.7282 -0.4847
  163SAPE   H6X18271   1.961   4.856   3.091  2.4064  0.4712  3.5199
  163SAPE   H6Y18272   2.129   4.788   3.085 -0.4204  0.1170 -1.4835
  163SAPE   C3718273   1.987   4.662   3.171  0.6044 -0.3908  0.1587
  163SAPE   H7X18274   2.008   4.568   3.116 -2.8232 -0.7478 -0.7689
  163SAPE   H7Y18275   1.876   4.662   3.172  0.5176  1.0700 -2.0223
  163SAPE   C3818276   2.052   4.670   3.309 -0.1716  0.5398  0.2092
  163SAPE   H8X18277   2.162   4.660   3.301 -0.2595 -1.0176  0.6336
  163SAPE   H8Y18278   2.009   4.584   3.366  1.4164 -0.9060 -0.6778
  163SAPE   C3918279   2.020   4.807   3.377  0.3168  0.4290  0.0474
  163SAPE   H9X18280   1.923   4.845   3.339 -0.8332 -0.5586  1.8235
  163SAPE   H9Y18281   2.098   4.879   3.346  1.8752 -1.2833 -0.2046
  163SAPE  C31018282   2.010   4.811   3.533  0.0645  0.9625 -1.0349
  163SAPE  H10X18283   1.991   4.916   3.563 -0.3405  0.9450 -1.2195
  163SAPE  H10Y18284   2.109   4.774   3.568 -0.1389 -1.6003 -2.8498
  163SAPE  C31118285   1.899   4.725   3.596 -0.1079  0.0194 -0.1484
  163SAPE  H11X18286   1.914   4.622   3.556 -0.6449  0.3506 -1.2514
  163SAPE  H11Y18287   1.798   4.761   3.567 -0.2367 -0.9599 -0.9588
  163SAPE  C31218288   1.894   4.735   3.751  0.6056  0.4590  0.1725
  163SAPE  H12X18289   1.854   4.837   3.767 -2.7008 -0.5001 -1.1842
  163SAPE  H12Y18290   2.000   4.727   3.783  0.3646 -0.1210  0.8373
  163SAPE  C31318291   1.801   4.637   3.813  0.1948  0.8012  0.2364
  163SAPE  H13X18292   1.819   4.530   3.794  0.3067  0.9348 -0.4445
  163SAPE  H13Y18293   1.699   4.661   3.776 -0.5689  1.2982  2.5122
  163SAPE  C31418294   1.815   4.650   3.966 -0.3411 -0.1926  0.3673
  163SAPE  H14X18295   1.789   4.754   3.995 -2.0535 -0.5506  0.2383
  163SAPE  H14Y18296   1.921   4.630   3.991  0.1614 -0.6646 -1.9008
  163SAPE  C31518297   1.733   4.550   4.041 -0.0723  0.2083  0.1554
  163SAPE  H15X18298   1.778   4.450   4.022  3.2003  1.9236 -2.1060
  163SAPE  H15Y18299   1.628   4.544   4.006 -0.3040 -3.6882  1.0295
  163SAPE  C31618300   1.738   4.568   4.199  0.2029 -0.6182  0.2878
  163SAPE  H16X18301   1.648   4.512   4.232 -1.0919  1.1258 -0.0874
  163SAPE  H16Y18302   1.715   4.672   4.230 -0.6263 -0.1733 -1.6135
  163SAPE  C31718303   1.861   4.512   4.267  0.4279  0.0383 -1.0192
  163SAPE  H17X18304   1.865   4.552   4.370 -0.9635 -1.1697 -0.4734
  163SAPE  H17Y18305   1.948   4.539   4.204  1.6179  0.6927  0.8264
  163SAPE  C31818306   1.855   4.365   4.292 -0.1303  0.1078  0.0474
  163SAPE  H18X18307   1.958   4.329   4.314 -0.6337 -2.4501 -1.3027
  163SAPE  H18Y18308   1.821   4.317   4.197  0.6747 -0.2511 -0.0668
  163SAPE  H18Z18309   1.776   4.344   4.368  0.4001 -3.2774 -0.1783
  164SAPE     N18310   4.584   5.780   1.928 -0.5551  0.1714  0.1061
  164SAPE   HN118311   4.576   5.878   1.962  1.9438  0.7585 -0.7620
  164SAPE   HN218312   4.503   5.748   1.871 -0.4679 -2.0156  1.0903
  164SAPE   HN318313   4.593   5.718   2.011 -1.3056  0.3351  0.3107
  164SAPE   C1218314   4.711   5.772   1.857 -0.9369 -0.7155  0.2657
  164SAPE  H12A18315   4.763   5.869   1.874 -3.5635  0.9014 -0.2004
  164SAPE  H12B18316   4.689   5.773   1.748 -0.7388 -1.4402  0.2144
  164SAPE   C1118317   4.794   5.650   1.895 -0.7315  0.1267 -1.3503
  164SAPE  H11A18318   4.821   5.667   2.002 -2.0034 -0.1738 -0.9542
  164SAPE  H11B18319   4.891   5.650   1.842 -0.2592 -0.5211 -0.5141
  164SAPE     P18320   4.797   5.399   1.942 -0.2507  0.2338 -0.1351
  164SAPE   O1318321   4.869   5.350   1.818 -0.2247 -0.9046 -0.2867
  164SAPE   O1418322   4.881   5.435   2.055  0.2791  0.0823  0.2258
  164SAPE   O1218323   4.720   5.527   1.890  0.1154 -0.3526 -0.3565
  164SAPE   O1118324   4.670   5.299   1.977 -0.0833 -0.1886 -0.5649
  164SAPE    C118325   4.587   5.333   2.084  0.7684  0.4201 -0.7370
  164SAPE    HA18326   4.598   5.439   2.117  0.7817  0.1567  0.1310
  164SAPE    HB18327   4.480   5.321   2.060 -0.1018  1.9796  1.9070
  164SAPE    C218328   4.614   5.245   2.210  0.7335  0.9081  0.4272
  164SAPE    HS18329   4.541   5.267   2.291  2.8167  2.0111  2.0979
  164SAPE   O2118330   4.747   5.260   2.256 -0.7917 -0.0936  0.4955
  164SAPE   C2118331   4.758   5.363   2.341  0.7796 -0.2983 -0.7966
  164SAPE   O2218332   4.684   5.459   2.337 -0.0217  0.0348  0.0194
  164SAPE   C2218333   4.883   5.349   2.420 -0.0154  0.8746  0.3682
  164SAPE   H2R18334   4.917   5.244   2.428  1.3745  1.4507  3.6531
  164SAPE   H2S18335   4.957   5.412   2.368 -0.7573  0.8756 -0.7194
  164SAPE    C318336   4.602   5.095   2.185 -0.6402  0.0177 -0.3994
  164SAPE    HX18337   4.684   5.058   2.119 -0.2362 -0.7130  0.4971
  164SAPE    HY18338   4.505   5.062   2.143 -0.4739 -2.6401  1.1066
  164SAPE   O3118339   4.628   5.020   2.303  0.4649  0.3450 -0.3559
  164SAPE   C3118340   4.642   4.883   2.280  0.2929 -0.1236 -0.2930
  164SAPE   O3218341   4.664   4.840   2.167 -0.2932  0.2203  0.2080
  164SAPE   C3218342   4.617   4.808   2.403  0.2910  0.0589  0.7545
  164SAPE   H2X18343   4.616   4.698   2.392  0.6851  0.0427  0.8614
  164SAPE   H2Y18344   4.515   4.839   2.434 -0.3721 -0.9377 -0.3480
  164SAPE   C2318345   4.859   5.389   2.563 -0.0072 -0.6697  0.0145
  164SAPE   H3R18346   4.765   5.342   2.601  1.4713 -2.1027  2.0856
  164SAPE   H3S18347   4.849   5.500   2.563  3.1309 -0.2897  1.1251
  164SAPE   C2418348   4.982   5.366   2.651 -0.0613 -0.4874  0.2419
  164SAPE   H4R18349   4.984   5.437   2.737  2.1509 -1.0940  0.7431
  164SAPE   H4S18350   5.068   5.416   2.604 -1.4664  0.4847 -1.3906
  164SAPE   C2518351   5.003   5.218   2.681 -0.3050  0.1636 -0.1310
  164SAPE   H5R18352   5.016   5.147   2.598  2.0418 -0.2299  0.4958
  164SAPE   C2618353   4.989   5.157   2.800 -0.1037 -0.4683 -0.1736
  164SAPE   H6R18354   5.020   5.053   2.819  0.9734 -0.1406 -0.0941
  164SAPE   C2718355   4.969   5.231   2.930  0.1199 -0.0380 -0.2366
  164SAPE   H7R18356   4.944   5.147   2.999  0.1064 -0.2490 -0.4983
  164SAPE   H7S18357   4.882   5.298   2.924  0.7974  0.7768 -1.1673
  164SAPE   C2818358   5.084   5.319   2.984 -0.4455  0.2556  0.2157
  164SAPE   H8R18359   5.155   5.370   2.917  0.3313  1.8332  2.1296
  164SAPE   C2918360   5.099   5.355   3.110 -0.1656 -0.2917 -0.2917
  164SAPE   H9R18361   5.178   5.429   3.131  1.1057 -1.5274 -0.5988
  164SAPE  C21018362   5.023   5.303   3.228 -0.0467 -0.0492  0.2151
  164SAPE  H10R18363   4.925   5.269   3.188 -0.5650  1.2308  0.3532
  164SAPE  H10S18364   5.009   5.394   3.290 -1.5816  0.3034 -0.5900
  164SAPE  C21118365   5.097   5.193   3.299 -0.2334 -0.2002  0.0219
  164SAPE  H11R18366   5.129   5.110   3.234  0.5466 -1.2596  1.6800
  164SAPE  C21218367   5.155   5.206   3.423 -0.0595  0.8252 -0.4647
  164SAPE  H12R18368   5.207   5.119   3.465 -1.6118  0.3738  0.6038
  164SAPE  C21318369   5.144   5.318   3.521 -0.1358 -0.2100 -0.8177
  164SAPE  H13R18370   5.087   5.406   3.484  1.7227  1.1205 -0.5984
  164SAPE  H13S18371   5.252   5.341   3.533  0.0339 -1.7797  1.1876
  164SAPE  C21418372   5.083   5.276   3.652  1.0415  1.0173 -0.0937
  164SAPE  H14R18373   4.976   5.303   3.659  0.4981 -1.2720  1.5903
  164SAPE  C21518374   5.149   5.223   3.753  0.0326  0.2484  0.2241
  164SAPE  H15R18375   5.110   5.208   3.855  1.1050  0.9587  0.7576
  164SAPE  C21618376   5.292   5.210   3.764  0.1643  0.0328  0.3034
  164SAPE  H16R18377   5.331   5.312   3.783 -1.0970  0.5117  0.4203
  164SAPE  H16S18378   5.346   5.178   3.672 -1.9098 -0.5013 -0.8073
  164SAPE  C21718379   5.335   5.124   3.882 -0.3901 -0.1203  0.4166
  164SAPE  H17R18380   5.318   5.017   3.857  1.6074 -0.5005  0.4701
  164SAPE  H17S18381   5.283   5.151   3.976  0.8215 -0.6868  1.2856
  164SAPE  C21818382   5.493   5.134   3.906  0.2510 -0.5988 -0.2660
  164SAPE  H18R18383   5.498   5.217   3.981 -1.2914 -2.8020  2.4829
  164SAPE  H18S18384   5.554   5.155   3.816  1.0737 -0.3797  0.3282
  164SAPE  C21918385   5.560   5.019   3.986  0.0507 -0.5147 -0.8964
  164SAPE  H19R18386   5.549   4.929   3.921  0.4115 -2.1967  1.2615
  164SAPE  H19S18387   5.513   4.996   4.084  0.4337 -0.2165 -0.6390
  164SAPE  C22018388   5.703   5.047   4.018 -0.3494  0.5417  0.0326
  164SAPE  H20R18389   5.711   5.127   4.095 -1.0094  0.5744  0.0717
  164SAPE  H20S18390   5.755   5.082   3.925 -1.3501  0.4393 -0.5781
  164SAPE  H20T18391   5.752   4.960   4.065  0.4698  1.5978  1.2158
  164SAPE   C3318392   4.709   4.850   2.523  0.0499 -0.3520  0.5508
  164SAPE   H3X18393   4.724   4.960   2.529 -1.1719 -0.1795  0.6787
  164SAPE   H3Y18394   4.806   4.795   2.526  1.2663  1.7011  1.7189
  164SAPE   C3418395   4.645   4.831   2.668  0.1797  0.4679 -0.2687
  164SAPE   H4X18396   4.611   4.726   2.676  0.1065  0.5661  0.9223
  164SAPE   H4Y18397   4.563   4.905   2.681  2.1858  2.8046 -0.2122
  164SAPE   C3518398   4.752   4.857   2.781 -0.4965 -0.3339 -0.2622
  164SAPE   H5X18399   4.765   4.967   2.794 -1.6745 -0.4191  2.4279
  164SAPE   H5Y18400   4.850   4.811   2.759 -0.1343 -0.1610  0.8778
  164SAPE   C3618401   4.702   4.812   2.922  0.3031 -0.2104 -0.4254
  164SAPE   H6X18402   4.672   4.705   2.918 -0.5294 -0.0063  0.1372
  164SAPE   H6Y18403   4.605   4.865   2.933  1.0954  1.1114  0.4090
  164SAPE   C3718404   4.795   4.848   3.038 -0.1525 -0.1652  0.0088
  164SAPE   H7X18405   4.759   4.942   3.086  0.4530 -0.2086  0.5676
  164SAPE   H7Y18406   4.895   4.874   2.999 -0.1186  0.5363  0.5233
  164SAPE   C3818407   4.808   4.738   3.140  0.0394 -0.3812 -0.1835
  164SAPE   H8X18408   4.848   4.650   3.084  2.1935  1.1772 -1.2467
  164SAPE   H8Y18409   4.705   4.716   3.175 -0.8989  1.4465 -1.6469
  164SAPE   C3918410   4.900   4.766   3.258 -0.7344  0.3369  0.4227
  164SAPE   H9X18411   5.004   4.749   3.221 -0.1343 -0.8509  2.5036
  164SAPE   H9Y18412   4.873   4.682   3.325 -1.2761 -1.3152 -1.7363
  164SAPE  C31018413   4.878   4.906   3.326  0.3261  0.4222  0.8997
  164SAPE  H10X18414   4.767   4.912   3.332  0.1828 -1.0653  0.1419
  164SAPE  H10Y18415   4.915   4.980   3.252  0.8387 -0.6646  0.0391
  164SAPE  C31118416   4.952   4.928   3.459  0.3530 -0.4194 -0.3647
  164SAPE  H11X18417   4.919   5.031   3.485 -2.5911 -0.8174 -2.1137
  164SAPE  H11Y18418   5.062   4.928   3.449  0.6276 -1.8354  1.9783
  164SAPE  C31218419   4.920   4.835   3.580  0.6979  0.1154  0.7020
  164SAPE  H12X18420   4.960   4.732   3.565 -0.1591 -0.3014  1.2203
  164SAPE  H12Y18421   4.812   4.813   3.596  0.8662 -0.8940  0.5230
  164SAPE  C31318422   4.980   4.879   3.709  0.8287 -0.5678 -0.3506
  164SAPE  H13X18423   4.963   4.988   3.722 -2.9209 -0.7430 -2.3620
  164SAPE  H13Y18424   5.091   4.865   3.712  0.6362 -1.9583  1.1957
  164SAPE  C31418425   4.929   4.789   3.822  0.0673  0.1372  0.4233
  164SAPE  H14X18426   4.937   4.682   3.795 -0.3846 -0.1569  1.4068
  164SAPE  H14Y18427   4.821   4.805   3.844 -1.0145 -3.0436 -1.8203
  164SAPE  C31518428   5.006   4.804   3.955 -0.2737 -1.4163  0.0277
  164SAPE  H15X18429   5.103   4.842   3.915 -1.2983  0.7146 -0.5854
  164SAPE  H15Y18430   5.023   4.706   4.004  1.8002 -0.6722  0.9118
  164SAPE  C31618431   4.933   4.896   4.053 -0.6527 -0.4132 -0.6211
  164SAPE  H16X18432   4.836   4.852   4.086 -1.3620  2.5854  1.7474
  164SAPE  H16Y18433   4.915   4.990   3.997 -0.2755  0.2218  0.2919
  164SAPE  C31718434   5.012   4.929   4.186 -0.1546 -0.0400  0.3817
  164SAPE  H17X18435   5.034   4.833   4.237 -0.1500 -0.6177 -0.6737
  164SAPE  H17Y18436   4.935   4.976   4.250 -0.3245 -0.3246  0.3856
  164SAPE  C31818437   5.130   5.029   4.175 -0.6183  0.1032 -0.4334
  164SAPE  H18X18438   5.115   5.117   4.109  0.7854  0.3017 -0.5197
  164SAPE  H18Y18439   5.214   4.968   4.135 -0.2422  0.8816 -0.8528
  164SAPE  H18Z18440   5.167   5.075   4.268  0.5683 -1.4078 -0.1115
  165SAPE     N18441   3.119   6.678   2.139  0.4570 -0.5880  0.0739
  165SAPE   HN118442   3.042   6.608   2.141  0.3507 -0.4536  0.7985
  165SAPE   HN218443   3.106   6.767   2.191  0.9725 -0.5246  0.0912
  165SAPE   HN318444   3.146   6.706   2.042 -0.1007  0.7734  0.2828
  165SAPE   C1218445   3.242   6.605   2.189 -0.0916  0.9750 -0.2413
  165SAPE  H12A18446   3.270   6.525   2.117 -0.4648 -2.5051  3.1759
  165SAPE  H12B18447   3.223   6.551   2.283  2.7637 -0.8650 -0.6149
  165SAPE   C1118448   3.348   6.715   2.204  0.0150  0.3809  0.5098
  165SAPE  H11A18449   3.444   6.667   2.229 -0.8836 -1.5502  0.4144
  165SAPE  H11B18450   3.313   6.783   2.285  1.4375  2.7613 -0.7429
  165SAPE     P18451   3.467   6.888   2.043  0.1520  0.1856  0.3024
  165SAPE   O1318452   3.566   6.825   1.951  0.0258 -0.3855  0.2290
  165SAPE   O1418453   3.397   7.002   1.983  0.2428 -0.0712  0.3178
  165SAPE   O1218454   3.360   6.785   2.082 -0.7679  0.0380 -0.3275
  165SAPE   O1118455   3.534   6.930   2.182  0.3612  0.0635  0.1844
  165SAPE    C118456   3.508   7.060   2.240 -0.3969  0.6137 -0.2367
  165SAPE    HA18457   3.590   7.131   2.215  1.8727 -1.0965  1.9473
  165SAPE    HB18458   3.409   7.103   2.213 -0.2955  0.8627 -0.2128
  165SAPE    C218459   3.495   7.058   2.396 -0.3446 -0.9181 -0.1572
  165SAPE    HS18460   3.593   7.021   2.431 -0.2581 -2.0002 -1.4845
  165SAPE   O2118461   3.392   6.970   2.442 -0.4759  0.1703  0.1117
  165SAPE   C2118462   3.422   6.888   2.542 -0.3507 -0.3462  0.1438
  165SAPE   O2218463   3.539   6.851   2.571  0.2650 -0.6974 -0.4342
  165SAPE   C2218464   3.296   6.837   2.615 -0.3795 -0.0056  0.2987
  165SAPE   H2R18465   3.224   6.816   2.534  1.7821 -2.7559 -1.0749
  165SAPE   H2S18466   3.333   6.743   2.662 -0.4971 -0.2865 -0.1626
  165SAPE    C318467   3.475   7.194   2.458  0.3786 -0.4639  0.9077
  165SAPE    HX18468   3.388   7.246   2.411  0.9262  0.4606  0.8821
  165SAPE    HY18469   3.558   7.262   2.428 -0.7853  0.6504  0.0952
  165SAPE   O3118470   3.462   7.183   2.606 -0.4774 -0.3536 -0.2907
  165SAPE   C3118471   3.511   7.295   2.668 -0.1716 -0.0541 -0.5812
  165SAPE   O3218472   3.553   7.394   2.612 -0.7241 -0.0025  0.7347
  165SAPE   C3218473   3.495   7.286   2.818 -0.4169  0.1394 -0.4578
  165SAPE   H2X18474   3.476   7.180   2.844  0.9127  0.1793  0.7538
  165SAPE   H2Y18475   3.408   7.349   2.850 -0.5084 -0.7474  1.1379
  165SAPE   C2318476   3.231   6.938   2.715  0.0499  0.4231 -0.5115
  165SAPE   H3R18477   3.180   7.014   2.652 -1.4229 -0.5409 -0.5179
  165SAPE   H3S18478   3.302   6.989   2.783  0.3582  1.2452 -1.4270
  165SAPE   C2418479   3.142   6.859   2.812  0.3779  1.1707  0.1075
  165SAPE   H4R18480   3.204   6.777   2.855 -2.1353 -0.1354  1.5019
  165SAPE   H4S18481   3.074   6.804   2.743  2.7192 -1.6099 -0.1846
  165SAPE   C2518482   3.072   6.932   2.926  0.2750  0.1648  0.3387
  165SAPE   H5R18483   2.988   6.997   2.901 -1.5134 -1.4827  1.7134
  165SAPE   C2618484   3.111   6.931   3.050  0.0097  0.0160 -0.6199
  165SAPE   H6R18485   3.043   6.967   3.129 -0.9689  1.9885 -2.2489
  165SAPE   C2718486   3.226   6.841   3.098 -0.1521 -0.1792 -0.8343
  165SAPE   H7R18487   3.205   6.738   3.062  1.9186 -0.4312 -1.4220
  165SAPE   H7S18488   3.200   6.819   3.204 -0.9187  0.3104 -0.9093
  165SAPE   C2818489   3.373   6.866   3.079  0.2589 -0.4143  0.2889
  165SAPE   H8R18490   3.408   6.965   3.044  2.0316 -1.2087 -0.3250
  165SAPE   C2918491   3.465   6.771   3.091 -0.4489 -0.1163  0.2757
  165SAPE   H9R18492   3.572   6.794   3.076 -0.5765 -0.3707 -1.0733
  165SAPE  C21018493   3.433   6.630   3.119 -0.3400 -0.0562  0.3539
  165SAPE  H10R18494   3.376   6.586   3.034  1.7077 -0.8562 -0.6819
  165SAPE  H10S18495   3.369   6.623   3.209 -3.5124  0.8815 -1.6957
  165SAPE  C21118496   3.558   6.543   3.117  0.0330  0.2862 -0.4059
  165SAPE  H11R18497   3.645   6.591   3.070  0.6536  1.5286  1.8328
  165SAPE  C21218498   3.572   6.424   3.185 -0.8040 -0.2287  0.4216
  165SAPE  H12R18499   3.655   6.356   3.164 -1.0320  0.1211 -1.8138
  165SAPE  C21318500   3.468   6.366   3.282  0.3027 -1.4576 -0.1503
  165SAPE  H13R18501   3.373   6.423   3.275  1.9059  1.2324 -1.8689
  165SAPE  H13S18502   3.521   6.382   3.379  1.8406  1.0368 -1.2966
  165SAPE  C21418503   3.443   6.220   3.250  0.3517  0.4028 -0.6909
  165SAPE  H14R18504   3.410   6.193   3.149  0.0832 -2.7929  0.1359
  165SAPE  C21518505   3.470   6.113   3.330  0.8906 -0.1576 -0.0889
  165SAPE  H15R18506   3.427   6.016   3.300 -0.8584  0.3050  0.7820
  165SAPE  C21618507   3.523   6.126   3.472 -0.1905 -0.3184 -0.0230
  165SAPE  H16R18508   3.490   6.042   3.538  0.1389 -0.8591 -0.5307
  165SAPE  H16S18509   3.479   6.220   3.513 -1.5205 -0.7719 -0.3578
  165SAPE  C21718510   3.678   6.127   3.473 -0.2073  0.0034 -0.2896
  165SAPE  H17R18511   3.717   6.208   3.407  0.0768  2.0373  2.2447
  165SAPE  H17S18512   3.721   6.031   3.437 -0.1836  0.4832 -1.6012
  165SAPE  C21818513   3.740   6.165   3.613  0.4253 -0.7629  0.5744
  165SAPE  H18R18514   3.723   6.082   3.685 -2.3396  1.9955  3.4333
  165SAPE  H18S18515   3.694   6.255   3.659  2.2419  0.3324  0.3181
  165SAPE  C21918516   3.891   6.180   3.605 -0.0080  0.3288  0.2034
  165SAPE  H19R18517   3.915   6.253   3.524 -0.7392  0.0819 -0.2480
  165SAPE  H19S18518   3.943   6.087   3.575  1.0665  1.5562 -2.0046
  165SAPE  C22018519   3.941   6.223   3.747  0.5134 -0.3924 -0.4684
  165SAPE  H20R18520   3.904   6.147   3.818 -0.1860  1.3217  1.0648
  165SAPE  H20S18521   3.889   6.319   3.767 -1.3351 -2.0296  3.4746
  165SAPE  H20T18522   4.052   6.231   3.753  0.6111 -1.0054 -1.2609
  165SAPE   C3318523   3.616   7.326   2.905  0.0659 -0.3999 -0.1350
  165SAPE   H3X18524   3.653   7.425   2.871 -1.3560 -0.2299 -1.2844
  165SAPE   H3Y18525   3.696   7.250   2.914  0.0478 -0.3823  0.1871
  165SAPE   C3418526   3.571   7.345   3.048 -0.5539 -1.3840 -0.3416
  165SAPE   H4X18527   3.517   7.441   3.043 -1.2834 -1.6521  1.4467
  165SAPE   H4Y18528   3.656   7.363   3.117 -0.9649  2.4903 -0.6577
  165SAPE   C3518529   3.485   7.237   3.112 -0.7565  0.7412 -0.2298
  165SAPE   H5X18530   3.531   7.141   3.082  0.3593 -0.4410  4.5495
  165SAPE   H5Y18531   3.383   7.241   3.067 -0.4312 -0.1834 -1.0820
  165SAPE   C3618532   3.461   7.246   3.264  0.0019  0.3351 -0.2637
  165SAPE   H6X18533   3.430   7.352   3.278 -4.0990 -0.7790  0.6117
  165SAPE   H6Y18534   3.546   7.232   3.334 -1.1628  0.3042  1.2018
  165SAPE   C3718535   3.350   7.159   3.319  0.6536 -0.2161  0.4263
  165SAPE   H7X18536   3.369   7.050   3.316  0.0016 -0.3436  0.6363
  165SAPE   H7Y18537   3.263   7.169   3.251 -0.4399  2.5134  2.0426
  165SAPE   C3818538   3.308   7.205   3.462 -0.0629 -0.8704 -0.6921
  165SAPE   H8X18539   3.202   7.172   3.475 -0.8225  1.3880 -0.8032
  165SAPE   H8Y18540   3.298   7.315   3.465 -2.8747 -1.0507 -0.1029
  165SAPE   C3918541   3.393   7.144   3.571 -0.0370  0.4541 -0.4176
  165SAPE   H9X18542   3.502   7.164   3.570 -0.5061  3.4230 -0.1781
  165SAPE   H9Y18543   3.381   7.033   3.577 -0.8026  0.5181 -0.6282
  165SAPE  C31018544   3.334   7.193   3.713 -0.7525 -0.3890  0.8903
  165SAPE  H10X18545   3.224   7.178   3.705 -0.6590  0.0512 -2.5531
  165SAPE  H10Y18546   3.360   7.301   3.712  0.7832 -0.7041 -1.7830
  165SAPE  C31118547   3.396   7.112   3.825 -0.2242  0.2830 -0.5862
  165SAPE  H11X18548   3.503   7.091   3.804  0.4999  3.8194 -0.9152
  165SAPE  H11Y18549   3.352   7.010   3.824 -1.7820  0.9180 -1.7591
  165SAPE  C31218550   3.380   7.169   3.967 -0.5381 -0.5087 -0.0966
  165SAPE  H12X18551   3.357   7.277   3.952  0.8172 -0.4609 -2.4284
  165SAPE  H12Y18552   3.476   7.152   4.021 -1.0830 -1.1346  0.6954
  165SAPE  C31318553   3.264   7.113   4.053 -0.1302  0.1791 -0.9731
  165SAPE  H13X18554   3.166   7.140   4.008 -0.5717  2.1781  1.0601
  165SAPE  H13Y18555   3.277   7.160   4.152 -2.3441  1.3331 -1.1865
  165SAPE  C31418556   3.274   6.957   4.061 -0.5566 -0.6402  0.3424
  165SAPE  H14X18557   3.377   6.936   4.097  0.1480  0.4344 -0.9542
  165SAPE  H14Y18558   3.272   6.901   3.965  0.9249 -0.9172  0.4432
  165SAPE  C31518559   3.185   6.894   4.166  0.2631  0.0851  0.0775
  165SAPE  H15X18560   3.086   6.930   4.133  0.4537 -0.2756 -0.8998
  165SAPE  H15Y18561   3.184   6.935   4.269 -1.7711  1.3435 -0.3900
  165SAPE  C31618562   3.189   6.744   4.172 -0.7002  0.0634 -0.1026
  165SAPE  H16X18563   3.247   6.714   4.261  0.1880 -0.0215 -0.6965
  165SAPE  H16Y18564   3.232   6.703   4.078 -1.0577 -1.1844  0.2633
  165SAPE  C31718565   3.055   6.661   4.182 -0.0101  0.0310 -0.3364
  165SAPE  H17X18566   3.019   6.659   4.077 -1.6677  0.5548  0.1964
  165SAPE  H17Y18567   2.975   6.716   4.236 -1.0324 -0.7258 -1.0588
  165SAPE  C31818568   3.078   6.524   4.246 -0.1577  0.2571  0.2578
  165SAPE  H18X18569   2.982   6.470   4.266 -0.7934  0.6154 -1.5856
  165SAPE  H18Y18570   3.122   6.542   4.346  2.9211 -0.4003 -0.8835
  165SAPE  H18Z18571   3.144   6.463   4.180  1.2186  3.7663 -1.8777
  166SAPE     N18572   4.808   6.621   2.133  0.1921  0.1246 -0.0936
  166SAPE   HN118573   4.749   6.693   2.086  0.4257 -0.0244 -0.6214
  166SAPE   HN218574   4.904   6.656   2.115  1.0472 -1.3635  1.3042
  166SAPE   HN318575   4.789   6.537   2.075  0.3308  0.5176 -0.7233
  166SAPE   C1218576   4.759   6.602   2.277  0.0291  0.2075  0.2898
  166SAPE  H12A18577   4.803   6.686   2.335 -0.3888  1.2627 -0.8798
  166SAPE  H12B18578   4.813   6.509   2.306  2.1328  1.2502 -0.0355
  166SAPE   C1118579   4.605   6.585   2.287 -0.5441  0.0497  0.2275
  166SAPE  H11A18580   4.548   6.678   2.266 -0.0505  0.3827  0.3650
  166SAPE  H11B18581   4.579   6.559   2.392 -1.8619 -2.3883 -0.6114
  166SAPE     P18582   4.429   6.449   2.147  0.3067  0.4274 -0.3586
  166SAPE   O1318583   4.325   6.517   2.220  0.1096 -0.1576  0.1684
  166SAPE   O1418584   4.423   6.468   1.999 -0.3655 -0.2667 -0.0473
  166SAPE   O1218585   4.567   6.478   2.203 -0.2608  0.4665  0.5363
  166SAPE   O1118586   4.414   6.296   2.179  0.6006 -0.3337  0.4057
  166SAPE    C118587   4.525   6.208   2.191 -0.3820 -0.3552 -0.1232
  166SAPE    HA18588   4.505   6.126   2.119 -1.2125  0.4052 -0.7759
  166SAPE    HB18589   4.624   6.247   2.157 -0.8762 -1.0281 -2.4681
  166SAPE    C218590   4.546   6.141   2.332 -0.2964  0.1573 -0.1185
  166SAPE    HS18591   4.633   6.072   2.323  0.6983  1.2225  0.8585
  166SAPE   O2118592   4.425   6.068   2.368  0.0838 -0.1555  0.4793
  166SAPE   C2118593   4.436   5.932   2.349  0.4874  0.0945 -1.0927
  166SAPE   O2218594   4.539   5.877   2.323  0.0346 -0.1022 -0.0602
  166SAPE   C2218595   4.297   5.871   2.366  0.5621  0.1876 -0.8027
  166SAPE   H2R18596   4.246   5.908   2.457  0.0463  2.9393 -2.0839
  166SAPE   H2S18597   4.232   5.911   2.285 -0.0357 -0.5256 -0.6822
  166SAPE    C318598   4.582   6.247   2.444  0.3854 -0.7226 -0.0967
  166SAPE    HX18599   4.493   6.314   2.442  0.6201 -0.4137 -0.4778
  166SAPE    HY18600   4.659   6.318   2.405 -2.5082  3.6918  1.4153
  166SAPE   O3118601   4.609   6.181   2.570  0.2133 -0.0891 -0.7929
  166SAPE   C3118602   4.691   6.247   2.652 -0.0138 -0.5221  0.5071
  166SAPE   O3218603   4.757   6.347   2.631  0.3618  0.0230 -0.2387
  166SAPE   C3218604   4.666   6.186   2.792  0.6319 -0.7013 -0.0377
  166SAPE   H2X18605   4.757   6.128   2.818  1.4800  1.3768  1.8946
  166SAPE   H2Y18606   4.577   6.120   2.786  0.4809 -0.4269 -1.0375
  166SAPE   C2318607   4.314   5.718   2.367 -0.0698  0.1863 -0.4681
  166SAPE   H3R18608   4.371   5.680   2.279 -1.5729  0.2781 -1.5273
  166SAPE   H3S18609   4.215   5.667   2.360 -0.1391  0.2737 -0.1469
  166SAPE   C2418610   4.377   5.662   2.501 -0.4612 -0.6341  0.2113
  166SAPE   H4R18611   4.472   5.721   2.506 -0.2965 -0.8116 -0.6638
  166SAPE   H4S18612   4.409   5.561   2.469 -0.9259 -0.7784  0.1975
  166SAPE   C2518613   4.297   5.667   2.634 -0.1372  0.3781 -0.4006
  166SAPE   H5R18614   4.217   5.591   2.641 -1.3436  1.7423  2.5702
  166SAPE   C2618615   4.302   5.757   2.731  0.0720  0.1102  0.2657
  166SAPE   H6R18616   4.221   5.749   2.805  0.5650 -0.0250  0.7895
  166SAPE   C2718617   4.397   5.871   2.735 -0.2619  0.0673 -0.1603
  166SAPE   H7R18618   4.389   5.934   2.643  3.2614 -1.2237 -1.5214
  166SAPE   H7S18619   4.502   5.836   2.736  0.7156  2.6099 -2.2006
  166SAPE   C2818620   4.368   5.947   2.868  0.2683 -0.2374 -0.2907
  166SAPE   H8R18621   4.399   5.888   2.955 -2.1959 -1.8032 -0.3514
  166SAPE   C2918622   4.296   6.059   2.881  0.1673 -0.5004  0.5110
  166SAPE   H9R18623   4.280   6.101   2.982 -0.5966 -0.7399  0.4902
  166SAPE  C21018624   4.224   6.136   2.776 -0.5796  0.1468 -0.8276
  166SAPE  H10R18625   4.119   6.141   2.812  0.2739 -0.9620  2.0810
  166SAPE  H10S18626   4.232   6.087   2.676 -1.9733  1.0517 -1.4139
  166SAPE  C21118627   4.281   6.276   2.758 -0.1380  0.1254  0.2665
  166SAPE  H11R18628   4.379   6.276   2.708 -0.7936 -0.7671 -1.1203
  166SAPE  C21218629   4.220   6.391   2.796 -0.4826 -0.3473 -0.3051
  166SAPE  H12R18630   4.271   6.485   2.771  0.7922 -1.2158 -1.0826
  166SAPE  C21318631   4.086   6.402   2.863  0.6294 -0.4621  0.1860
  166SAPE  H13R18632   4.004   6.340   2.821  0.5190 -0.7329  0.7937
  166SAPE  H13S18633   4.047   6.505   2.848 -1.1532 -1.2887 -1.1555
  166SAPE  C21418634   4.095   6.371   3.012 -0.0779 -0.7534 -0.7498
  166SAPE  H14R18635   4.162   6.438   3.068 -0.0430 -1.1688 -0.2752
  166SAPE  C21518636   4.039   6.278   3.080  0.1296 -0.8775 -0.2340
  166SAPE  H15R18637   4.074   6.270   3.184  0.7072  1.3690 -0.2070
  166SAPE  C21618638   3.922   6.187   3.040 -0.5404 -0.3368  0.0291
  166SAPE  H16R18639   3.915   6.188   2.929  1.1993 -1.0108 -0.1238
  166SAPE  H16S18640   3.831   6.238   3.078 -0.6980 -1.0083  0.5831
  166SAPE  C21718641   3.941   6.042   3.086 -0.0327 -0.0527 -0.4017
  166SAPE  H17R18642   4.047   6.015   3.066 -0.0397 -2.1866  1.9507
  166SAPE  H17S18643   3.880   5.977   3.020 -0.8945  2.3346 -2.0950
  166SAPE  C21818644   3.923   6.013   3.239 -0.4182 -0.2863 -0.2934
  166SAPE  H18R18645   3.812   6.012   3.244 -0.3858 -0.3506  0.6144
  166SAPE  H18S18646   3.959   6.101   3.297 -1.3239  0.6493 -1.1040
  166SAPE  C21918647   3.985   5.879   3.286  0.5329 -0.2223 -0.3610
  166SAPE  H19R18648   3.954   5.787   3.232 -0.6317  0.4855 -0.9607
  166SAPE  H19S18649   3.948   5.868   3.390 -0.4697  3.8027 -0.1388
  166SAPE  C22018650   4.137   5.893   3.307 -0.1120  0.0173 -0.3847
  166SAPE  H20R18651   4.194   5.919   3.215  0.6305 -0.1121  0.0337
  166SAPE  H20S18652   4.178   5.797   3.345 -1.7527  0.5625  3.1326
  166SAPE  H20T18653   4.158   5.968   3.386 -1.8477  0.0364  0.0836
  166SAPE   C3318654   4.647   6.291   2.908  0.3431 -0.0220 -0.2177
  166SAPE   H3X18655   4.571   6.370   2.888  1.9115  1.9715  1.3259
  166SAPE   H3Y18656   4.748   6.327   2.937  1.4970 -3.3803  0.3344
  166SAPE   C3418657   4.605   6.202   3.027  0.3155  0.2693  0.7035
  166SAPE   H4X18658   4.699   6.158   3.066 -0.1701 -1.9438 -0.4326
  166SAPE   H4Y18659   4.554   6.107   2.999  0.2586  0.8668 -1.4000
  166SAPE   C3518660   4.516   6.274   3.139 -0.1536  0.0229  0.3206
  166SAPE   H5X18661   4.413   6.282   3.096 -0.1388 -2.3158 -0.2982
  166SAPE   H5Y18662   4.566   6.369   3.168 -1.4982  1.4020 -1.5651
  166SAPE   C3618663   4.514   6.174   3.260 -0.1310 -0.6362  0.0037
  166SAPE   H6X18664   4.618   6.162   3.296 -0.0811 -3.1335 -0.8090
  166SAPE   H6Y18665   4.481   6.070   3.242 -1.3583  0.0779 -2.4106
  166SAPE   C3718666   4.430   6.241   3.367  0.9282  0.2949 -0.0596
  166SAPE   H7X18667   4.331   6.273   3.328  1.5728  1.1407 -1.0296
  166SAPE   H7Y18668   4.476   6.332   3.411 -0.7676  0.4294  1.5817
  166SAPE   C3818669   4.425   6.143   3.484 -0.1474  0.3016 -0.2463
  166SAPE   H8X18670   4.527   6.142   3.529  0.0024 -0.8992 -0.5687
  166SAPE   H8Y18671   4.394   6.042   3.449 -1.3442  0.9203 -1.0226
  166SAPE   C3918672   4.332   6.192   3.594  1.2492 -0.1601  0.4212
  166SAPE   H9X18673   4.227   6.178   3.558  0.9159  1.1573  0.7996
  166SAPE   H9Y18674   4.337   6.303   3.590  2.6551 -0.1442  1.8965
  166SAPE  C31018675   4.342   6.127   3.732 -0.6822 -0.2056 -0.1955
  166SAPE  H10X18676   4.247   6.136   3.788  0.5379  0.8920  1.8194
  166SAPE  H10Y18677   4.416   6.185   3.792  0.0138  0.6178 -1.8108
  166SAPE  C31118678   4.383   5.977   3.733  0.7933 -0.7143 -0.4333
  166SAPE  H11X18679   4.409   5.946   3.837 -0.3800  0.2278  0.1666
  166SAPE  H11Y18680   4.473   5.956   3.671  0.8068 -0.9184 -0.3446
  166SAPE  C31218681   4.260   5.901   3.681 -0.7734 -0.3287 -0.4928
  166SAPE  H12X18682   4.247   5.938   3.577 -0.2293  0.2892 -0.3427
  166SAPE  H12Y18683   4.163   5.928   3.729 -1.2226 -1.6256 -0.6277
  166SAPE  C31318684   4.269   5.750   3.670 -0.7458 -0.0785 -0.1334
  166SAPE  H13X18685   4.362   5.731   3.611 -0.5525  2.9040 -0.9450
  166SAPE  H13Y18686   4.179   5.720   3.612  0.5762 -1.8650 -1.3947
  166SAPE  C31418687   4.279   5.678   3.802  1.1808 -0.6365 -0.4171
  166SAPE  H14X18688   4.189   5.711   3.859 -1.2132 -1.5713 -3.3570
  166SAPE  H14Y18689   4.375   5.709   3.846  1.4507 -1.5541 -0.3477
  166SAPE  C31518690   4.286   5.525   3.793 -0.0434 -0.1368  0.1638
  166SAPE  H15X18691   4.328   5.498   3.892  2.1025 -2.7287 -1.3227
  166SAPE  H15Y18692   4.370   5.507   3.722 -0.7503  1.6124 -1.2029
  166SAPE  C31618693   4.162   5.446   3.760 -0.1114 -0.1071  0.0906
  166SAPE  H16X18694   4.142   5.466   3.652 -1.4846 -1.7486 -0.0018
  166SAPE  H16Y18695   4.074   5.481   3.819  0.4679 -0.4984  1.2134
  166SAPE  C31718696   4.179   5.297   3.788  0.1017 -0.1391  0.4347
  166SAPE  H17X18697   4.287   5.274   3.802  0.3026  0.1120 -0.5845
  166SAPE  H17Y18698   4.144   5.236   3.702 -2.5399  1.1156  0.5396
  166SAPE  C31818699   4.113   5.251   3.918  0.9246  0.1744 -0.1318
  166SAPE  H18X18700   4.167   5.283   4.010  0.6944 -0.0454  0.0846
  166SAPE  H18Y18701   4.109   5.140   3.918  0.7591  0.1752 -1.2807
  166SAPE  H18Z18702   4.008   5.284   3.933  0.6879 -1.5180  2.7325
  167SAPE     N18703   5.315   4.021   2.131 -0.7943 -0.1918 -0.3675
  167SAPE   HN118704   5.331   4.086   2.211 -1.2955  4.0431 -3.4200
  167SAPE   HN218705   5.310   4.085   2.050  2.5727  0.4982 -0.1729
  167SAPE   HN318706   5.221   3.977   2.130 -0.7627 -0.2590 -0.3441
  167SAPE   C1218707   5.440   3.941   2.136  0.4568  0.2075 -0.4778
  167SAPE  H12A18708   5.430   3.893   2.235  0.0074  1.4515  0.0953
  167SAPE  H12B18709   5.526   4.011   2.141 -0.5828  1.4414  2.0849
  167SAPE   C1118710   5.448   3.837   2.020 -0.0636  0.0564 -0.4084
  167SAPE  H11A18711   5.550   3.798   2.041 -1.7545 -3.0786  2.8910
  167SAPE  H11B18712   5.444   3.890   1.922 -2.8965  2.5817  0.9014
  167SAPE     P18713   5.372   3.600   2.085 -0.2160  0.0717 -0.3692
  167SAPE   O1318714   5.251   3.521   2.079  0.1568  0.1575  0.3176
  167SAPE   O1418715   5.491   3.545   2.013 -0.1671 -0.4197 -0.9999
  167SAPE   O1218716   5.344   3.740   2.022  0.0551 -0.3581 -0.6254
  167SAPE   O1118717   5.409   3.635   2.235  0.4720  0.0349  0.3647
  167SAPE    C118718   5.290   3.661   2.319  0.3580 -0.4726 -0.3978
  167SAPE    HA18719   5.235   3.750   2.283  1.3633 -0.7165 -2.7120
  167SAPE    HB18720   5.219   3.575   2.320 -1.2029  0.6926  2.2029
  167SAPE    C218721   5.340   3.678   2.463 -0.8657 -0.6417 -0.5991
  167SAPE    HS18722   5.393   3.776   2.465 -0.1084 -1.0607  1.2530
  167SAPE   O2118723   5.418   3.567   2.514  0.1845 -0.4519  0.2850
  167SAPE   C2118724   5.523   3.610   2.590 -0.0487 -0.0240 -0.7485
  167SAPE   O2218725   5.539   3.729   2.620 -0.3538  1.1819 -0.6092
  167SAPE   C2218726   5.619   3.499   2.618 -0.2013  0.3345 -0.1143
  167SAPE   H2R18727   5.584   3.430   2.698  1.3913 -1.5006 -0.9117
  167SAPE   H2S18728   5.635   3.439   2.526  0.3226 -1.2042  0.9406
  167SAPE    C318729   5.224   3.692   2.571  0.8673 -0.4892  0.4353
  167SAPE    HX18730   5.175   3.592   2.570  2.3602 -1.2539 -1.0298
  167SAPE    HY18731   5.143   3.760   2.537  1.4655  0.1292  0.2258
  167SAPE   O3118732   5.267   3.735   2.709  0.2450  0.5184 -0.0098
  167SAPE   C3118733   5.286   3.867   2.739 -0.0070  0.5973 -0.6750
  167SAPE   O3218734   5.273   3.959   2.661  0.3956  0.2456  0.0122
  167SAPE   C3218735   5.307   3.897   2.888  0.5249  0.0783  0.8707
  167SAPE   H2X18736   5.207   3.884   2.935 -0.7133  3.4335 -0.4682
  167SAPE   H2Y18737   5.346   4.000   2.899 -0.4206  0.6680 -0.8170
  167SAPE   C2318738   5.757   3.552   2.689  0.3398  0.6016 -0.5251
  167SAPE   H3R18739   5.739   3.581   2.795 -2.7992 -3.6551  0.3676
  167SAPE   H3S18740   5.787   3.643   2.633  0.0660  1.0657  0.0681
  167SAPE   C2418741   5.866   3.445   2.691  0.3080 -0.3426 -0.3289
  167SAPE   H4R18742   5.892   3.420   2.585 -3.8875 -0.9522 -1.3989
  167SAPE   H4S18743   5.823   3.347   2.719  0.9452 -1.4616 -2.9027
  167SAPE   C2518744   5.983   3.478   2.772  0.1373  0.0619 -0.2759
  167SAPE   H5R18745   6.053   3.554   2.735 -2.2708  2.1207 -0.9175
  167SAPE   C2618746   6.001   3.436   2.900 -0.5830  0.4529  0.3849
  167SAPE   H6R18747   6.087   3.477   2.954 -1.7863  1.2299  1.7816
  167SAPE   C2718748   5.914   3.355   2.989 -0.7743 -0.5225 -0.4478
  167SAPE   H7R18749   5.845   3.284   2.939 -0.1373 -1.7816  0.4133
  167SAPE   H7S18750   5.842   3.428   3.032  1.1833  0.7999  0.7324
  167SAPE   C2818751   5.993   3.283   3.095 -0.7444 -0.0578  0.0259
  167SAPE   H8R18752   6.016   3.184   3.054  0.5197 -0.3457  1.3441
  167SAPE   C2918753   6.063   3.327   3.200  0.3085  0.0015  0.4905
  167SAPE   H9R18754   6.126   3.254   3.252 -0.4897 -1.3149 -0.3430
  167SAPE  C21018755   6.050   3.468   3.247 -0.1152 -0.4356 -0.4053
  167SAPE  H10R18756   5.991   3.537   3.183  0.0206  0.7420  0.6914
  167SAPE  H10S18757   6.150   3.513   3.234 -0.5517  0.8890  0.5322
  167SAPE  C21118758   6.011   3.484   3.395 -0.0713 -0.6633  0.2593
  167SAPE  H11R18759   5.903   3.497   3.408  0.2787  0.1380  3.3293
  167SAPE  C21218760   6.091   3.477   3.509 -0.0260  0.9406  0.1211
  167SAPE  H12R18761   6.042   3.495   3.606 -0.9356  0.7823 -0.2911
  167SAPE  C21318762   6.234   3.448   3.505 -0.4646 -0.9771 -0.0339
  167SAPE  H13R18763   6.296   3.516   3.442 -1.4138  0.3099  0.3952
  167SAPE  H13S18764   6.235   3.358   3.440  1.2964  0.9593 -2.9289
  167SAPE  C21418765   6.297   3.434   3.640  0.3958 -0.3583 -0.1736
  167SAPE  H14R18766   6.342   3.520   3.693 -3.3362  0.5328  1.8798
  167SAPE  C21518767   6.292   3.323   3.715 -0.5514 -0.3532  0.0603
  167SAPE  H15R18768   6.363   3.301   3.797 -0.4443 -2.8221 -0.6427
  167SAPE  C21618769   6.225   3.191   3.664  0.0979 -0.1588 -0.5328
  167SAPE  H16R18770   6.253   3.165   3.560  0.1466  1.0579 -0.8423
  167SAPE  H16S18771   6.114   3.198   3.670 -0.2037 -3.7053  0.4204
  167SAPE  C21718772   6.230   3.075   3.766  0.0220 -0.1673 -0.1494
  167SAPE  H17R18773   6.332   3.059   3.807  0.4449  2.3461 -0.0361
  167SAPE  H17S18774   6.201   2.978   3.720  1.1127 -1.2963  1.4100
  167SAPE  C21818775   6.130   3.083   3.888  0.7914  0.2989 -0.5823
  167SAPE  H18R18776   6.116   2.978   3.920 -1.7127  0.7347 -0.0880
  167SAPE  H18S18777   6.035   3.127   3.852  0.6653  1.1696  0.7556
  167SAPE  C21918778   6.179   3.166   3.997 -0.1675 -0.3423 -0.6278
  167SAPE  H19R18779   6.116   3.153   4.088  0.9338 -0.8968  0.0885
  167SAPE  H19S18780   6.165   3.267   3.954 -2.3775 -0.5833 -0.5713
  167SAPE  C22018781   6.319   3.144   4.042  0.3566  0.1429 -0.4012
  167SAPE  H20R18782   6.404   3.198   3.994  1.8519  0.6152  2.5176
  167SAPE  H20S18783   6.353   3.038   4.037 -1.4350 -0.4691 -0.2405
  167SAPE  H20T18784   6.317   3.173   4.149 -0.6386 -2.0567  0.2252
  167SAPE   C3318785   5.409   3.791   2.949  0.1186  0.3366  0.3211
  167SAPE   H3X18786   5.502   3.806   2.890  0.7510  0.1478  1.2471
  167SAPE   H3Y18787   5.362   3.690   2.944 -0.6782  0.5705  2.3216
  167SAPE   C3418788   5.429   3.804   3.098 -0.4275 -0.1389  0.7179
  167SAPE   H4X18789   5.476   3.903   3.116  1.9031 -0.9162 -0.6349
  167SAPE   H4Y18790   5.497   3.720   3.126 -1.8004 -1.1957  0.9585
  167SAPE   C3518791   5.310   3.801   3.187  0.0223  0.4144 -0.0972
  167SAPE   H5X18792   5.266   3.699   3.184 -2.8474  1.4245  2.5201
  167SAPE   H5Y18793   5.222   3.861   3.156  0.8714  1.3970 -0.6819
  167SAPE   C3618794   5.343   3.838   3.335 -0.0153  0.2737  0.3525
  167SAPE   H6X18795   5.425   3.769   3.365 -0.0402  1.0196  2.2240
  167SAPE   H6Y18796   5.251   3.811   3.391 -0.3005 -1.2467 -0.7713
  167SAPE   C3718797   5.375   3.985   3.369  0.4074 -0.2844  0.2915
  167SAPE   H7X18798   5.297   4.049   3.323  0.6739  0.1009  0.3722
  167SAPE   H7Y18799   5.475   4.003   3.322  0.8441  2.0375  1.9684
  167SAPE   C3818800   5.388   4.003   3.521 -0.9904 -0.6926  0.8409
  167SAPE   H8X18801   5.484   3.951   3.542  1.2192  2.4783 -0.6176
  167SAPE   H8Y18802   5.299   3.968   3.577 -1.1263  1.2002  1.8941
  167SAPE   C3918803   5.401   4.151   3.576  0.4245  0.0667  0.6627
  167SAPE   H9X18804   5.307   4.202   3.544  0.8385  1.7500  1.9893
  167SAPE   H9Y18805   5.482   4.203   3.522 -0.5023 -0.0607 -0.9235
  167SAPE  C31018806   5.442   4.161   3.724 -0.2334 -0.0482  0.9430
  167SAPE  H10X18807   5.385   4.079   3.774 -0.5643  2.3186  4.8824
  167SAPE  H10Y18808   5.415   4.254   3.778  1.4937  0.1743  1.4901
  167SAPE  C31118809   5.591   4.148   3.756  0.3815  0.1082 -0.2214
  167SAPE  H11X18810   5.643   4.243   3.730 -0.6748  1.2827  1.7607
  167SAPE  H11Y18811   5.633   4.064   3.697  0.3345  0.5595 -0.9172
  167SAPE  C31218812   5.615   4.119   3.907  0.2912 -0.1441  1.0129
  167SAPE  H12X18813   5.563   4.022   3.919  0.0555 -0.2219 -0.4851
  167SAPE  H12Y18814   5.567   4.195   3.973  0.9213  0.0841  1.2179
  167SAPE  C31318815   5.763   4.101   3.940 -0.4241  0.3073  0.0538
  167SAPE  H13X18816   5.811   4.201   3.935  2.5853 -0.9437  1.2752
  167SAPE  H13Y18817   5.817   4.037   3.867  2.3249  0.6378  1.6664
  167SAPE  C31418818   5.795   4.044   4.076  0.5220 -0.3559  0.0026
  167SAPE  H14X18819   5.727   4.083   4.155 -0.2909 -2.7167  0.5282
  167SAPE  H14Y18820   5.902   4.058   4.101  0.4046 -0.6275  0.7004
  167SAPE  C31518821   5.787   3.882   4.092  0.1102 -0.5959  0.0033
  167SAPE  H15X18822   5.695   3.835   4.052  0.2587 -1.1866  0.3575
  167SAPE  H15Y18823   5.788   3.860   4.200  1.2399 -1.0356 -0.0806
  167SAPE  C31618824   5.909   3.809   4.040  0.1118 -0.0400  0.5558
  167SAPE  H16X18825   6.000   3.830   4.101  1.3760 -0.6227 -1.0748
  167SAPE  H16Y18826   5.929   3.854   3.941  0.3662  1.0587  1.0833
  167SAPE  C31718827   5.892   3.661   4.018  0.2691  0.0713  0.3864
  167SAPE  H17X18828   5.825   3.635   3.933  2.1744 -1.4351 -0.7406
  167SAPE  H17Y18829   5.841   3.629   4.111  0.6825  1.5309  1.1565
  167SAPE  C31818830   6.022   3.582   3.985 -0.0014 -0.0826  0.1108
  167SAPE  H18X18831   6.049   3.585   3.878 -1.4582 -0.1767 -0.2732
  167SAPE  H18Y18832   6.007   3.475   4.008  0.6166  0.2782  2.4773
  167SAPE  H18Z18833   6.099   3.619   4.056  1.2095  0.5281 -1.4817
  168SAPE     N18834   2.648   5.678   2.053  0.5332 -0.1938  0.4185
  168SAPE   HN118835   2.583   5.754   2.023 -2.4814 -2.3071  1.1101
  168SAPE   HN218836   2.746   5.695   2.022  1.0428  1.0709  2.5407
  168SAPE   HN318837   2.597   5.596   2.015  0.5653 -0.3566  0.7253
  168SAPE   C1218838   2.645   5.675   2.211 -0.2703  0.2106  0.8229
  168SAPE  H12A18839   2.750   5.675   2.247 -0.2455  2.4818  0.8389
  168SAPE  H12B18840   2.598   5.577   2.238  0.0084 -0.1749 -0.0605
  168SAPE   C1118841   2.555   5.786   2.265 -0.7476  0.7027 -0.8273
  168SAPE  H11A18842   2.616   5.879   2.257  1.5152 -0.5100  0.9843
  168SAPE  H11B18843   2.541   5.769   2.374  3.2278 -1.3092 -0.4401
  168SAPE     P18844   2.342   5.922   2.267  0.7683  0.1487 -0.1529
  168SAPE   O1318845   2.380   6.057   2.216 -0.2822 -0.1684 -0.1389
  168SAPE   O1418846   2.200   5.881   2.247  0.6533 -0.0431 -0.1226
  168SAPE   O1218847   2.427   5.804   2.203  0.1764 -0.7067 -0.1920
  168SAPE   O1118848   2.368   5.905   2.422 -0.5245  0.0472 -0.4706
  168SAPE    C118849   2.440   6.004   2.494 -0.2589 -0.7379  0.0588
  168SAPE    HA18850   2.542   6.006   2.450 -0.0193 -3.2708  0.3462
  168SAPE    HB18851   2.389   6.102   2.483 -1.6028 -1.5999 -1.8248
  168SAPE    C218852   2.460   5.978   2.646 -0.0215  0.1997  0.0849
  168SAPE    HS18853   2.554   5.918   2.643 -0.0938  0.0740  0.3538
  168SAPE   O2118854   2.365   5.897   2.702 -0.0791  0.3371  0.1081
  168SAPE   C2118855   2.250   5.966   2.728 -0.6231  0.0731  0.2219
  168SAPE   O2218856   2.218   6.073   2.685 -0.3642  0.0237  0.2239
  168SAPE   C2218857   2.158   5.875   2.808  0.6055  0.2883  0.2917
  168SAPE   H2R18858   2.068   5.840   2.752  0.8735  2.9369 -1.9872
  168SAPE   H2S18859   2.207   5.783   2.846  0.7264 -0.0095 -0.5556
  168SAPE    C318860   2.505   6.105   2.735  0.5419  0.9644 -0.7085
  168SAPE    HX18861   2.433   6.189   2.725 -1.4417 -0.1499  2.5163
  168SAPE    HY18862   2.604   6.126   2.691  0.3063 -2.2577 -3.1497
  168SAPE   O3118863   2.512   6.083   2.879  0.7229  0.2494  0.0401
  168SAPE   C3118864   2.611   6.012   2.922 -0.2808  1.1953 -0.2213
  168SAPE   O3218865   2.678   5.943   2.848 -0.0474 -0.0928 -0.1604
  168SAPE   C3218866   2.630   6.020   3.075 -1.1754  0.3318 -0.8736
  168SAPE   H2X18867   2.523   6.021   3.107 -0.8767 -0.5122  0.2290
  168SAPE   H2Y18868   2.676   6.119   3.098  0.5300 -0.7357  0.4846
  168SAPE   C2318869   2.087   5.953   2.925  0.8826  0.2184  0.4557
  168SAPE   H3R18870   2.007   5.887   2.968  0.0624 -1.1061 -2.8004
  168SAPE   H3S18871   2.043   6.043   2.878 -0.2032 -0.8124 -0.6001
  168SAPE   C2418872   2.186   5.979   3.035 -0.3127 -0.0127 -0.5011
  168SAPE   H4R18873   2.261   6.055   3.004 -1.6998  0.6968 -2.3044
  168SAPE   H4S18874   2.239   5.885   3.062 -0.4620 -0.0117 -0.1986
  168SAPE   C2518875   2.117   6.040   3.151 -0.3706  0.0912  0.2070
  168SAPE   H5R18876   2.088   6.145   3.144  0.8113  0.4042 -0.2216
  168SAPE   C2618877   2.083   5.977   3.265 -0.3360  0.2225 -0.0803
  168SAPE   H6R18878   2.015   6.030   3.333 -0.6344 -0.1637 -0.0738
  168SAPE   C2718879   2.099   5.827   3.291  0.6712 -0.4757  0.0646
  168SAPE   H7R18880   2.204   5.800   3.312  0.6291 -1.1799 -0.5891
  168SAPE   H7S18881   2.073   5.768   3.201  1.1849  0.4840 -0.7430
  168SAPE   C2818882   2.005   5.775   3.405 -0.5675  0.6277 -0.1774
  168SAPE   H8R18883   1.922   5.713   3.370 -0.3629  1.5000 -2.3741
  168SAPE   C2918884   2.007   5.805   3.538  0.5703  0.5942  0.0813
  168SAPE   H9R18885   1.926   5.754   3.592 -0.3413 -0.0505 -1.8172
  168SAPE  C21018886   2.102   5.888   3.616  0.4717  0.1150  0.0472
  168SAPE  H10R18887   2.105   5.991   3.572  0.5558  0.1919  0.2323
  168SAPE  H10S18888   2.200   5.839   3.604 -0.1817 -1.2085 -0.0271
  168SAPE  C21118889   2.050   5.894   3.761 -0.4397  0.0694  0.5425
  168SAPE  H11R18890   1.967   5.964   3.778  0.5802  1.2480  0.7506
  168SAPE  C21218891   2.107   5.852   3.876 -0.4566  0.1148 -0.3145
  168SAPE  H12R18892   2.064   5.880   3.973  1.0340 -0.5015  0.5560
  168SAPE  C21318893   2.228   5.772   3.900  0.0835  0.3536  0.2990
  168SAPE  H13R18894   2.277   5.822   3.987  2.7589  3.5556 -2.7774
  168SAPE  H13S18895   2.298   5.780   3.815 -0.9417  0.4154 -0.5566
  168SAPE  C21418896   2.202   5.623   3.901  0.7396 -0.3599 -0.0406
  168SAPE  H14R18897   2.130   5.590   3.825 -0.6744  3.3954 -0.5393
  168SAPE  C21518898   2.260   5.544   3.989 -0.0221  0.1773  0.6817
  168SAPE  H15R18899   2.255   5.434   3.987  0.6698  0.1313  1.1832
  168SAPE  C21618900   2.347   5.586   4.102  0.3375  1.4858 -0.0984
  168SAPE  H16R18901   2.289   5.610   4.194 -0.1924  0.7297 -0.2187
  168SAPE  H16S18902   2.408   5.677   4.086  0.5832  1.4502  0.5932
  168SAPE  C21718903   2.446   5.471   4.145  0.5085  0.1973 -0.1603
  168SAPE  H17R18904   2.530   5.518   4.200  1.1540 -0.8607 -0.2256
  168SAPE  H17S18905   2.497   5.420   4.061 -0.7530 -1.7822  0.2263
  168SAPE  C21818906   2.375   5.364   4.229  0.3686 -0.0259  0.4867
  168SAPE  H18R18907   2.280   5.325   4.186  0.2227  1.1552 -0.3178
  168SAPE  H18S18908   2.349   5.410   4.327  0.6835  0.2878  0.4251
  168SAPE  C21918909   2.460   5.237   4.242  0.1367  0.0543  0.0658
  168SAPE  H19R18910   2.481   5.191   4.143 -1.3676 -1.5649  0.4489
  168SAPE  H19S18911   2.389   5.173   4.299 -1.5056  1.7105 -0.0435
  168SAPE  C22018912   2.590   5.237   4.327  0.3517  0.3279  0.6950
  168SAPE  H20R18913   2.628   5.133   4.338  1.4997  0.9198  3.3068
  168SAPE  H20S18914   2.559   5.284   4.423  0.4041  1.6668  0.0703
  168SAPE  H20T18915   2.658   5.311   4.280 -0.8452  1.5175  0.7954
  168SAPE   C3318916   2.718   5.921   3.148 -0.1608 -0.6393 -0.2333
  168SAPE   H3X18917   2.820   5.944   3.110 -0.4224  0.6329 -0.1974
  168SAPE   H3Y18918   2.701   5.814   3.125 -0.5613 -0.6950  0.3271
  168SAPE   C3418919   2.734   5.935   3.300  0.3267 -0.1002  0.0036
  168SAPE   H4X18920   2.777   6.036   3.313  0.5352 -0.3520  1.3802
  168SAPE   H4Y18921   2.806   5.863   3.345  1.7069  0.4860 -1.1757
  168SAPE   C3518922   2.597   5.935   3.376  0.1400 -0.0567 -0.4880
  168SAPE   H5X18923   2.538   5.842   3.365  0.6649 -0.4486 -0.0245
  168SAPE   H5Y18924   2.531   6.011   3.328  1.2093  2.5733  1.9409
  168SAPE   C3618925   2.620   5.977   3.524  0.1991 -0.9129 -0.1053
  168SAPE   H6X18926   2.676   6.072   3.533 -2.6694  0.7695  1.8986
  168SAPE   H6Y18927   2.687   5.915   3.588  1.2485  0.6176  0.3291
  168SAPE   C3718928   2.495   6.011   3.610  0.0029 -0.3168  1.0073
  168SAPE   H7X18929   2.430   5.921   3.607 -1.4171  0.7009 -1.1188
  168SAPE   H7Y18930   2.458   6.100   3.554  0.1667  0.1061  1.5529
  168SAPE   C3818931   2.534   6.042   3.752 -0.0810 -0.3527 -0.3430
  168SAPE   H8X18932   2.623   6.109   3.757  1.0902 -1.9318  0.7716
  168SAPE   H8Y18933   2.561   5.959   3.821  1.0526  0.9908  0.9117
  168SAPE   C3918934   2.415   6.107   3.818  0.5926 -0.3998  0.4562
  168SAPE   H9X18935   2.330   6.036   3.810  1.2379 -1.1541  0.0842
  168SAPE   H9Y18936   2.387   6.195   3.756  2.6954  1.1900  1.6474
  168SAPE  C31018937   2.427   6.147   3.962 -0.2075  0.0444  0.7471
  168SAPE  H10X18938   2.491   6.238   3.959 -2.7611  2.0982  3.0460
  168SAPE  H10Y18939   2.485   6.070   4.017  1.5412  0.9541  0.2645
  168SAPE  C31118940   2.295   6.193   4.024  0.3819 -0.1579  0.3198
  168SAPE  H11X18941   2.227   6.105   4.029 -0.4201  0.3216 -1.4106
  168SAPE  H11Y18942   2.253   6.281   3.971  1.2037  1.4544  2.2283
  168SAPE  C31218943   2.313   6.242   4.168  0.0273  0.0371 -0.1320
  168SAPE  H12X18944   2.397   6.314   4.165  0.1419 -0.0988 -0.2341
  168SAPE  H12Y18945   2.337   6.150   4.226  0.5183 -0.9541 -1.8154
  168SAPE  C31318946   2.189   6.313   4.227 -0.3372 -0.5883  0.9195
  168SAPE  H13X18947   2.097   6.268   4.184 -0.5304  0.7541 -0.1212
  168SAPE  H13Y18948   2.171   6.421   4.213  0.3689 -0.6074 -0.3083
  168SAPE  C31418949   2.173   6.296   4.386 -0.6324 -0.3826  0.5026
  168SAPE  H14X18950   2.230   6.206   4.415 -1.7239 -1.4089 -0.4051
  168SAPE  H14Y18951   2.062   6.288   4.395 -1.1506  3.4015 -0.8145
  168SAPE  C31518952   2.224   6.420   4.464 -0.6472 -0.5866 -0.4797
  168SAPE  H15X18953   2.166   6.508   4.429 -1.0863 -0.9709 -0.7229
  168SAPE  H15Y18954   2.331   6.438   4.441 -0.4731 -0.5136  0.3426
  168SAPE  C31618955   2.203   6.396   4.615  0.2505  0.1064 -0.1207
  168SAPE  H16X18956   2.097   6.371   4.637  0.2564 -1.1784 -1.4134
  168SAPE  H16Y18957   2.236   6.481   4.679 -0.8834  0.8896 -0.5577
  168SAPE  C31718958   2.296   6.278   4.663  0.7250 -0.3592  0.4254
  168SAPE  H17X18959   2.239   6.189   4.630 -0.6944  1.0038 -0.9911
  168SAPE  H17Y18960   2.306   6.284   4.774  2.5615  1.4399  0.2257
  168SAPE  C31818961   2.436   6.269   4.616 -0.3207 -0.3487 -0.0354
  168SAPE  H18X18962   2.501   6.194   4.666 -0.1272  0.7518  1.4344
  168SAPE  H18Y18963   2.482   6.368   4.638 -0.3465 -0.2039 -0.6265
  168SAPE  H18Z18964   2.436   6.248   4.507 -2.0366 -0.8800  0.0391
  169SAPE     N18965   5.605   3.324   2.098 -0.0896 -0.1379 -0.0305
  169SAPE   HN118966   5.658   3.264   2.032  1.8041  0.1607  1.1476
  169SAPE   HN218967   5.525   3.270   2.136  2.7153 -2.8383  2.5135
  169SAPE   HN318968   5.572   3.409   2.047 -0.1935  0.1217  0.4572
  169SAPE   C1218969   5.699   3.366   2.209 -0.0905 -0.0081  0.3568
  169SAPE  H12A18970   5.637   3.430   2.275 -0.3848  0.6029 -0.4886
  169SAPE  H12B18971   5.776   3.437   2.173  1.0440 -1.9148 -1.2402
  169SAPE   C1118972   5.764   3.239   2.266 -0.4474  0.3571 -0.3982
  169SAPE  H11A18973   5.686   3.179   2.317  1.2170 -1.1483  0.5102
  169SAPE  H11B18974   5.838   3.266   2.345 -0.4572  1.5808 -0.7940
  169SAPE     P18975   5.972   3.181   2.103  0.0572  0.0861  0.3372
  169SAPE   O1318976   6.065   3.082   2.167  0.5265  0.5170 -0.4498
  169SAPE   O1418977   5.940   3.175   1.958 -0.1291  0.2924  0.0226
  169SAPE   O1218978   5.827   3.161   2.165 -0.2491 -0.1284  0.6944
  169SAPE   O1118979   6.012   3.326   2.146 -0.0615  0.1604  0.3223
  169SAPE    C118980   6.129   3.395   2.116  0.2331  0.7578 -0.5128
  169SAPE    HA18981   6.215   3.332   2.084  1.1750  2.6809 -1.9867
  169SAPE    HB18982   6.120   3.467   2.032  0.5824 -0.8607 -1.9972
  169SAPE    C218983   6.165   3.474   2.239  0.1433 -0.2409 -0.8652
  169SAPE    HS18984   6.271   3.504   2.229 -0.1642  0.8893 -0.9560
  169SAPE   O2118985   6.129   3.398   2.357 -0.3087  0.3476 -0.0325
  169SAPE   C2118986   6.220   3.299   2.379  0.2276 -0.6469 -0.1900
  169SAPE   O2218987   6.323   3.292   2.313  0.7806  0.0668  0.1324
  169SAPE   C2218988   6.154   3.203   2.468 -0.3761  0.5574  0.1792
  169SAPE   H2R18989   6.098   3.257   2.547  0.4066 -0.4566  1.4745
  169SAPE   H2S18990   6.073   3.150   2.412 -0.7036 -1.3208  2.2914
  169SAPE    C318991   6.073   3.597   2.252 -0.3050 -0.4567 -0.4240
  169SAPE    HX18992   5.975   3.551   2.279  0.1071 -0.3399  1.4345
  169SAPE    HY18993   6.071   3.652   2.156  0.5088 -0.7599 -0.6230
  169SAPE   O3118994   6.123   3.680   2.367  0.0745 -0.0667 -0.2140
  169SAPE   C3118995   6.107   3.809   2.345 -0.0459  0.5799 -0.4651
  169SAPE   O3218996   6.038   3.855   2.255 -0.4085  0.2136 -0.1059
  169SAPE   C3218997   6.181   3.894   2.438 -0.1692 -0.0228 -0.1708
  169SAPE   H2X18998   6.153   4.002   2.439 -0.5369 -0.1073 -1.2493
  169SAPE   H2Y18999   6.287   3.883   2.407  0.1005  0.7594  0.4239
  169SAPE   C2319000   6.254   3.111   2.533  0.2828  0.9617 -0.4901
  169SAPE   H3R19001   6.314   3.060   2.455 -1.1544 -0.8534 -0.4528
  169SAPE   H3S19002   6.202   3.028   2.584 -0.2737  1.4561 -0.2472
  169SAPE   C2419003   6.350   3.187   2.631 -0.1247  0.1281 -0.0802
  169SAPE   H4R19004   6.406   3.268   2.580  0.4410 -1.1127 -1.5061
  169SAPE   H4S19005   6.418   3.105   2.664 -0.2588 -0.6151 -1.5578
  169SAPE   C2519006   6.279   3.251   2.750  0.5978  0.1961  0.2291
  169SAPE   H5R19007   6.217   3.340   2.730 -0.3608 -0.1453  1.4918
  169SAPE   C2619008   6.280   3.215   2.881 -0.5376 -0.2381  0.1514
  169SAPE   H6R19009   6.225   3.278   2.953 -1.3166  0.3968 -0.9574
  169SAPE   C2719010   6.353   3.104   2.946 -0.1038  0.0512  0.5933
  169SAPE   H7R19011   6.452   3.093   2.897 -0.2496  0.2688  0.2423
  169SAPE   H7S19012   6.311   3.004   2.923  1.4861 -0.8102  1.2374
  169SAPE   C2819013   6.377   3.122   3.097 -0.5366  0.2805 -0.2812
  169SAPE   H8R19014   6.462   3.189   3.115  1.2828 -1.9813  0.0385
  169SAPE   C2919015   6.325   3.057   3.207 -0.1312 -0.0309  0.4934
  169SAPE   H9R19016   6.364   3.084   3.307 -0.1078 -0.0417  0.4872
  169SAPE  C21019017   6.223   2.949   3.216 -0.2418 -0.9647  0.3527
  169SAPE  H10R19018   6.287   2.859   3.202  2.3843  1.1686 -3.1615
  169SAPE  H10S19019   6.146   2.949   3.136  1.4637 -0.8376 -1.3534
  169SAPE  C21119020   6.147   2.948   3.342  0.3966 -0.0318 -0.1297
  169SAPE  H11R19021   6.052   3.004   3.340 -1.3411 -2.7922 -0.5138
  169SAPE  C21219022   6.181   2.885   3.459  0.3568  0.1162  0.8783
  169SAPE  H12R19023   6.117   2.909   3.546 -1.3614  2.0035 -0.7850
  169SAPE  C21319024   6.309   2.799   3.478 -0.3477 -0.1329  0.0506
  169SAPE  H13R19025   6.395   2.855   3.520  1.1230 -2.3277  0.1839
  169SAPE  H13S19026   6.353   2.750   3.389  1.0957 -1.0352  1.1932
  169SAPE  C21419027   6.275   2.686   3.583  0.2192 -0.2892 -0.7207
  169SAPE  H14R19028   6.191   2.622   3.552  0.2214 -0.0060 -1.3287
  169SAPE  C21519029   6.338   2.659   3.695 -0.4782 -0.3634 -0.2794
  169SAPE  H15R19030   6.288   2.586   3.760 -2.1846  0.5516 -0.5031
  169SAPE  C21619031   6.454   2.730   3.753 -0.1450  0.0810 -0.2096
  169SAPE  H16R19032   6.423   2.833   3.781 -0.6715 -0.2155  0.3153
  169SAPE  H16S19033   6.532   2.749   3.677  0.7186 -1.1662  0.3337
  169SAPE  C21719034   6.501   2.674   3.886 -1.0611  0.1587 -0.1885
  169SAPE  H17R19035   6.545   2.574   3.864  0.7494  0.4680  1.7785
  169SAPE  H17S19036   6.415   2.665   3.956 -1.3310 -0.8561 -0.6187
  169SAPE  C21819037   6.610   2.762   3.951 -0.4072  0.0489 -0.5318
  169SAPE  H18R19038   6.559   2.849   3.997  0.3496  0.4381 -0.4178
  169SAPE  H18S19039   6.674   2.807   3.873 -0.7980  1.2176 -0.1889
  169SAPE  C21919040   6.685   2.696   4.072  0.0762 -0.4237  0.7626
  169SAPE  H19R19041   6.731   2.774   4.137 -0.3206  1.9175 -1.6063
  169SAPE  H19S19042   6.762   2.630   4.027 -1.6205 -1.3822 -0.8236
  169SAPE  C22019043   6.589   2.619   4.158  0.4318  0.4426  1.2152
  169SAPE  H20R19044   6.505   2.688   4.180 -1.2228  1.1593 -5.2725
  169SAPE  H20S19045   6.635   2.585   4.253 -0.2604 -2.2449  0.6642
  169SAPE  H20T19046   6.543   2.530   4.110  1.3191  0.8664 -0.5017
  169SAPE   C3319047   6.188   3.854   2.590 -0.2310  0.0899  0.7189
  169SAPE   H3X19048   6.252   3.924   2.648  0.0781 -0.1277  0.6415
  169SAPE   H3Y19049   6.223   3.749   2.591  0.0819  0.1737 -0.1753
  169SAPE   C3419050   6.053   3.858   2.656  0.2773 -0.1028 -0.0449
  169SAPE   H4X19051   5.979   3.789   2.610 -1.6836  1.9636 -0.1397
  169SAPE   H4Y19052   6.001   3.955   2.643  0.1184 -0.2974 -0.9027
  169SAPE   C3519053   6.060   3.823   2.810  0.3553  0.2792  0.1306
  169SAPE   H5X19054   6.135   3.883   2.865  3.2047 -2.8570 -0.0256
  169SAPE   H5Y19055   6.097   3.719   2.821  0.7928  0.4542  0.3572
  169SAPE   C3619056   5.932   3.856   2.893  0.2696  0.8661  0.4633
  169SAPE   H6X19057   5.835   3.838   2.842  0.9993  1.1531 -1.0801
  169SAPE   H6Y19058   5.937   3.967   2.890  2.0392  0.8087 -0.0253
  169SAPE   C3719059   5.945   3.801   3.037 -0.4311 -0.7677 -0.0578
  169SAPE   H7X19060   6.053   3.799   3.062 -0.5153  0.4237  0.4358
  169SAPE   H7Y19061   5.915   3.694   3.041  0.9685 -1.2451 -1.1933
  169SAPE   C3819062   5.868   3.885   3.140  0.5921  0.5447 -0.0358
  169SAPE   H8X19063   5.759   3.866   3.130 -0.0166  3.5802  0.1068
  169SAPE   H8Y19064   5.880   3.994   3.122  2.1872  0.5510  0.8763
  169SAPE   C3919065   5.894   3.849   3.289  0.1242  0.1951 -0.3697
  169SAPE   H9X19066   5.999   3.871   3.319 -0.3839 -0.6772  2.3015
  169SAPE   H9Y19067   5.873   3.741   3.305  1.3671  0.2241  1.9286
  169SAPE  C31019068   5.803   3.925   3.386  0.0463 -0.7668 -0.2239
  169SAPE  H10X19069   5.702   3.916   3.339  0.6011 -0.1836 -1.5763
  169SAPE  H10Y19070   5.837   4.030   3.374  0.3501 -0.8767 -0.3231
  169SAPE  C31119071   5.812   3.881   3.534 -0.1251  0.4818  0.7574
  169SAPE  H11X19072   5.819   3.771   3.544 -2.5142  0.0031 -1.6073
  169SAPE  H11Y19073   5.718   3.906   3.588 -1.2579  1.8733 -1.6578
  169SAPE  C31219074   5.921   3.956   3.610 -0.8013  0.0813 -0.3621
  169SAPE  H12X19075   5.880   3.935   3.711 -2.5647  1.7757 -0.6819
  169SAPE  H12Y19076   5.914   4.066   3.599  1.6641  0.2649 -0.6974
  169SAPE  C31319077   6.056   3.893   3.586 -0.1039 -0.1339  0.6213
  169SAPE  H13X19078   6.121   3.956   3.522  0.4402  1.1013  2.3222
  169SAPE  H13Y19079   6.052   3.790   3.543  0.7774 -0.2197  0.7326
  169SAPE  C31419080   6.144   3.867   3.708 -0.4447  0.3660 -0.9823
  169SAPE  H14X19081   6.235   3.815   3.674  0.7938  2.6514 -1.3833
  169SAPE  H14Y19082   6.088   3.791   3.766  0.3324  0.0358 -0.6530
  169SAPE  C31519083   6.184   3.987   3.788  0.3988 -0.6229  0.1372
  169SAPE  H15X19084   6.089   4.041   3.804 -0.1853 -1.0596 -1.5758
  169SAPE  H15Y19085   6.256   4.048   3.729 -0.6972  1.8965  1.2830
  169SAPE  C31619086   6.257   3.951   3.923 -0.0594  0.1364  0.1049
  169SAPE  H16X19087   6.337   3.877   3.905 -1.8871 -1.8106 -0.3705
  169SAPE  H16Y19088   6.186   3.896   3.988 -1.1578  1.7843  0.3822
  169SAPE  C31719089   6.297   4.082   3.987  0.2226 -0.6804 -0.4778
  169SAPE  H17X19090   6.362   4.128   3.910 -0.7454  0.1316 -0.8211
  169SAPE  H17Y19091   6.357   4.060   4.079  0.5538  0.4550 -0.4017
  169SAPE  C31819092   6.182   4.173   4.017  0.4455 -0.3890  0.0052
  169SAPE  H18X19093   6.200   4.246   4.099 -0.9569 -0.9540  0.8500
  169SAPE  H18Y19094   6.101   4.108   4.057  1.2192 -0.6660  1.1627
  169SAPE  H18Z19095   6.155   4.236   3.930  3.3676  0.2351 -0.5498
  170SAPE     N19096   0.223   5.680   2.145  0.3986  0.4915 -0.0244
  170SAPE   HN119097   0.240   5.625   2.231  2.4080  1.1142  0.0267
  170SAPE   HN219098   0.206   5.614   2.066 -2.9664 -0.4362  1.2917
  170SAPE   HN319099   0.303   5.745   2.133 -0.0640  0.9713 -0.5585
  170SAPE   C1219100   0.097   5.762   2.158 -0.0539  0.0407  0.1626
  170SAPE  H12A19101   0.074   5.822   2.067  1.1461 -0.3403 -0.3996
  170SAPE  H12B19102   0.113   5.832   2.243  1.6096 -0.8455  0.6192
  170SAPE   C1119103  -0.018   5.667   2.183 -0.0965  0.4031 -1.0597
  170SAPE  H11A19104  -0.101   5.741   2.191  1.0550  1.8718 -2.0816
  170SAPE  H11B19105  -0.000   5.616   2.280  1.4613 -0.2263 -1.6532
  170SAPE     P19106  -0.163   5.490   2.060  0.0333 -0.4166  0.2714
  170SAPE   O1319107  -0.275   5.579   2.025  0.4384  0.7514  0.3746
  170SAPE   O1419108  -0.148   5.381   1.960 -0.5652 -0.5814  0.1898
  170SAPE   O1219109  -0.026   5.571   2.078  0.5231 -0.2072 -0.0151
  170SAPE   O1119110  -0.172   5.425   2.204  0.0199 -0.8187 -0.2223
  170SAPE    C119111  -0.152   5.291   2.242 -0.1833 -0.1449  1.0016
  170SAPE    HA19112  -0.245   5.238   2.213  0.9624 -1.8098  0.2296
  170SAPE    HB19113  -0.066   5.255   2.182 -1.2872  0.5203 -1.1158
  170SAPE    C219114  -0.148   5.268   2.390  0.1697  0.1949 -0.4888
  170SAPE    HS19115  -0.130   5.161   2.412 -1.4492  0.1278  0.6505
  170SAPE   O2119116  -0.267   5.313   2.462 -0.1847  1.0058  0.5531
  170SAPE   C2119117  -0.374   5.233   2.443  0.2804  0.1964  0.4239
  170SAPE   O2219118  -0.374   5.130   2.379  0.2787 -0.4778 -0.0544
  170SAPE   C2219119  -0.483   5.288   2.534 -0.3309 -0.5737  0.5280
  170SAPE   H2R19120  -0.458   5.256   2.637 -1.2469  1.3230  1.3789
  170SAPE   H2S19121  -0.475   5.398   2.526  0.4426 -0.7533 -2.1249
  170SAPE    C319122  -0.026   5.341   2.455 -0.3566  0.0300  1.0313
  170SAPE    HX19123  -0.038   5.447   2.423  3.7701 -0.4938 -3.4399
  170SAPE    HY19124   0.068   5.309   2.405 -1.0224 -1.1502  0.4915
  170SAPE   O3119125  -0.020   5.333   2.596 -0.2379 -0.0610  0.3210
  170SAPE   C3119126   0.040   5.429   2.656  0.0345 -0.2954 -0.0932
  170SAPE   O3219127   0.107   5.518   2.610 -0.2026 -0.7729 -0.0169
  170SAPE   C3219128   0.008   5.410   2.806  0.2618  0.2351 -0.2955
  170SAPE   H2X19129   0.049   5.498   2.861  1.1216 -0.0967 -0.3845
  170SAPE   H2Y19130   0.070   5.327   2.845  1.2012  1.7730  1.6938
  170SAPE   C2319131  -0.620   5.240   2.476  1.1206  0.2179 -0.1384
  170SAPE   H3R19132  -0.618   5.131   2.453  0.5493  0.0139  0.7264
  170SAPE   H3S19133  -0.647   5.298   2.385 -1.1555  0.8258  0.8497
  170SAPE   C2419134  -0.727   5.282   2.582 -0.1538  0.6252 -0.2610
  170SAPE   H4R19135  -0.710   5.225   2.676  1.9092  1.7095  0.0853
  170SAPE   H4S19136  -0.817   5.233   2.538  0.9380 -1.2357 -0.5550
  170SAPE   C2519137  -0.742   5.431   2.582  0.7016  0.9088  0.2193
  170SAPE   H5R19138  -0.767   5.480   2.486 -0.7747  0.0230  0.1297
  170SAPE   C2619139  -0.731   5.509   2.689 -0.3627 -0.4829  0.0416
  170SAPE   H6R19140  -0.736   5.619   2.681  0.6209 -0.3711  0.7927
  170SAPE   C2719141  -0.698   5.455   2.825  0.0390 -0.7549  0.2436
  170SAPE   H7R19142  -0.603   5.398   2.822 -0.6679 -1.9430 -0.8894
  170SAPE   H7S19143  -0.780   5.385   2.853 -0.6707 -1.2026 -2.6614
  170SAPE   C2819144  -0.668   5.571   2.922 -0.6320 -0.6870 -0.7988
  170SAPE   H8R19145  -0.582   5.636   2.900 -0.7994 -0.1614  0.0599
  170SAPE   C2919146  -0.715   5.579   3.049  0.5205  0.5516  0.4675
  170SAPE   H9R19147  -0.691   5.671   3.104 -1.2905  2.1762 -1.3220
  170SAPE  C21019148  -0.828   5.496   3.107  0.1124 -0.5200 -1.1565
  170SAPE  H10R19149  -0.789   5.409   3.164 -1.1746 -0.5496 -0.2935
  170SAPE  H10S19150  -0.877   5.438   3.025  1.2099 -1.6468 -1.0522
  170SAPE  C21119151  -0.930   5.574   3.184  0.4308  0.6306 -0.9159
  170SAPE  H11R19152  -0.952   5.671   3.137  1.5159  0.1645 -2.4574
  170SAPE  C21219153  -0.990   5.535   3.300 -0.5874 -0.2073 -0.6299
  170SAPE  H12R19154  -1.065   5.602   3.347  1.8954  1.7674  0.8094
  170SAPE  C21319155  -0.961   5.417   3.378  0.0880 -0.7668 -0.5326
  170SAPE  H13R19156  -0.859   5.441   3.416  0.6021  1.2770 -2.9423
  170SAPE  H13S19157  -0.946   5.335   3.305 -2.8797  0.1008 -2.2443
  170SAPE  C21419158  -1.042   5.367   3.492 -0.0680 -0.2442  0.3467
  170SAPE  H14R19159  -1.151   5.374   3.479  0.0595  2.5948  0.2214
  170SAPE  C21519160  -0.999   5.290   3.594 -0.1743 -0.5708  0.1048
  170SAPE  H15R19161  -1.061   5.257   3.679  0.5310  0.1545  0.9167
  170SAPE  C21619162  -0.853   5.258   3.612  1.3031 -0.1465 -0.1926
  170SAPE  H16R19163  -0.792   5.346   3.583  1.3665  0.2771  1.1554
  170SAPE  H16S19164  -0.835   5.160   3.563 -1.6030 -0.8193 -0.1111
  170SAPE  C21719165  -0.818   5.232   3.761  0.5626  0.2788  0.1115
  170SAPE  H17R19166  -0.870   5.307   3.824  0.8099  0.5879 -0.0491
  170SAPE  H17S19167  -0.709   5.249   3.764  0.7089 -0.3505 -0.9872
  170SAPE  C21819168  -0.860   5.102   3.817 -0.1453  0.5245  1.0282
  170SAPE  H18R19169  -0.805   5.025   3.758 -1.5116 -0.9913  1.6385
  170SAPE  H18S19170  -0.966   5.079   3.797 -0.8253  2.1189  2.5659
  170SAPE  C21919171  -0.838   5.096   3.970  0.1638  0.1666  0.0224
  170SAPE  H19R19172  -0.877   5.001   4.011  1.0238  1.0096  3.1018
  170SAPE  H19S19173  -0.905   5.175   4.010  2.5130  2.7836 -0.8903
  170SAPE  C22019174  -0.700   5.117   4.026  0.4570  0.6451  0.2218
  170SAPE  H20R19175  -0.635   5.036   3.986 -1.8590 -1.2568  0.1052
  170SAPE  H20S19176  -0.723   5.098   4.133  1.7947 -0.1990  0.3841
  170SAPE  H20T19177  -0.657   5.219   4.018 -1.4544  1.4959  0.2201
  170SAPE   C3319178  -0.138   5.389   2.824  0.1768  0.2831  0.1299
  170SAPE   H3X19179  -0.178   5.301   2.769 -1.5345  0.8812  0.3495
  170SAPE   H3Y19180  -0.199   5.473   2.784  1.2999  1.0930  0.0772
  170SAPE   C3419181  -0.190   5.371   2.972  0.0663 -0.1860 -1.1927
  170SAPE   H4X19182  -0.173   5.463   3.032 -3.1125  2.4870 -3.9538
  170SAPE   H4Y19183  -0.120   5.297   3.017  1.0494  2.3165  1.7850
  170SAPE   C3519184  -0.337   5.334   2.973  0.0622  0.0263 -0.6134
  170SAPE   H5X19185  -0.349   5.253   2.898 -1.1665 -1.3597  0.9921
  170SAPE   H5Y19186  -0.398   5.421   2.941  0.7363  0.1924 -1.4771
  170SAPE   C3619187  -0.388   5.280   3.102  0.1743  0.0595 -0.0015
  170SAPE   H6X19188  -0.360   5.174   3.121 -1.2295  0.0854  2.8380
  170SAPE   H6Y19189  -0.500   5.280   3.104  0.1253 -0.2416  3.2680
  170SAPE   C3719190  -0.341   5.362   3.225 -0.0166 -0.0998 -0.3916
  170SAPE   H7X19191  -0.348   5.470   3.199  1.2299  0.4431  1.3259
  170SAPE   H7Y19192  -0.233   5.349   3.248  0.7320 -0.1639 -3.4442
  170SAPE   C3819193  -0.437   5.326   3.343 -0.0230  0.4252  0.3904
  170SAPE   H8X19194  -0.540   5.318   3.303  0.2501  0.5967 -0.3645
  170SAPE   H8Y19195  -0.437   5.411   3.415 -2.4543  0.9908 -0.1864
  170SAPE   C3919196  -0.381   5.209   3.427  0.3375  0.2247  0.3163
  170SAPE   H9X19197  -0.275   5.225   3.457  0.3947  1.9430 -0.7234
  170SAPE   H9Y19198  -0.372   5.128   3.350  0.3748  1.3325 -0.8717
  170SAPE  C31019199  -0.475   5.167   3.542  0.1196 -0.3496 -0.9178
  170SAPE  H10X19200  -0.568   5.124   3.499 -1.1191  1.6597 -0.3983
  170SAPE  H10Y19201  -0.522   5.253   3.595  1.0762 -0.3932  0.0234
  170SAPE  C31119202  -0.420   5.063   3.637  0.0651  0.6883  0.1148
  170SAPE  H11X19203  -0.373   4.994   3.564 -1.2950  0.9206 -1.0144
  170SAPE  H11Y19204  -0.502   5.002   3.680  0.8557 -2.6609 -2.6807
  170SAPE  C31219205  -0.327   5.116   3.745 -0.9698 -0.3183 -0.1801
  170SAPE  H12X19206  -0.385   5.188   3.807  1.2625  1.0096  0.4466
  170SAPE  H12Y19207  -0.233   5.157   3.704 -1.8476  0.7215 -1.2315
  170SAPE  C31319208  -0.278   5.000   3.849  1.4659 -0.2278 -0.4396
  170SAPE  H13X19209  -0.234   4.918   3.788 -0.2288  0.0460 -2.1323
  170SAPE  H13Y19210  -0.368   4.941   3.876  1.1986 -1.3445 -3.3712
  170SAPE  C31419211  -0.187   5.053   3.952 -0.1069  0.4052 -0.4607
  170SAPE  H14X19212  -0.241   5.131   4.010 -0.2034  0.2065 -0.2826
  170SAPE  H14Y19213  -0.106   5.101   3.893  0.2403 -0.3655 -0.6176
  170SAPE  C31519214  -0.122   4.950   4.050  0.2203 -0.3377 -0.7354
  170SAPE  H15X19215  -0.040   5.011   4.095 -1.9204  1.1487  1.4314
  170SAPE  H15Y19216  -0.083   4.868   3.987  1.4800  0.7201 -1.3923
  170SAPE  C31619217  -0.221   4.875   4.146  0.4875 -0.3636  0.0141
  170SAPE  H16X19218  -0.302   4.841   4.078 -0.7954 -0.4662  1.5185
  170SAPE  H16Y19219  -0.257   4.945   4.224 -0.8885 -0.1614 -0.7664
  170SAPE  C31719220  -0.170   4.757   4.222 -0.4297 -0.8407  0.1778
  170SAPE  H17X19221  -0.145   4.684   4.143  1.7080  0.5850 -0.5298
  170SAPE  H17Y19222  -0.261   4.723   4.278 -1.6742  0.6736 -0.8398
  170SAPE  C31819223  -0.064   4.784   4.328  0.7025  0.3054 -0.1990
  170SAPE  H18X19224   0.033   4.817   4.286  0.6171  0.0033 -0.6415
  170SAPE  H18Y19225  -0.062   4.693   4.391 -0.8163  1.4943  1.6779
  170SAPE  H18Z19226  -0.099   4.866   4.394 -0.9942 -0.7563  0.3032
  171SAPE     N19227   5.773   5.060   1.783 -0.4534  0.0906  0.3006
  171SAPE   HN119228   5.860   5.004   1.770  0.3806  1.3702  0.1594
  171SAPE   HN219229   5.760   5.119   1.698 -2.0819  0.1596  0.5657
  171SAPE   HN319230   5.781   5.126   1.863 -3.1654  0.4563  0.3773
  171SAPE   C1219231   5.662   4.966   1.816 -0.0035 -0.3121 -0.1394
  171SAPE  H12A19232   5.636   4.908   1.725  0.1738 -0.8803  0.1683
  171SAPE  H12B19233   5.573   5.028   1.840  0.8078 -0.1754  2.8907
  171SAPE   C1119234   5.692   4.880   1.945  0.1506  0.0477 -0.6753
  171SAPE  H11A19235   5.593   4.833   1.965  0.3881 -0.7814 -1.4204
  171SAPE  H11B19236   5.700   4.945   2.035  1.0327 -1.1339  0.1359
  171SAPE     P19237   5.772   4.642   1.891  0.5330  0.1978 -0.0391
  171SAPE   O1319238   5.673   4.638   1.778  0.0229  0.0995  0.1436
  171SAPE   O1419239   5.909   4.575   1.872  0.6343 -0.5348  0.4351
  171SAPE   O1219240   5.802   4.793   1.927  0.1989  0.3466  0.2856
  171SAPE   O1119241   5.706   4.583   2.015 -0.7364  0.1473 -0.6384
  171SAPE    C119242   5.685   4.623   2.146  0.4395 -0.1795  0.1469
  171SAPE    HA19243   5.730   4.723   2.164  1.4116 -0.7988  1.3897
  171SAPE    HB19244   5.579   4.643   2.173  0.7660  1.2126  0.5247
  171SAPE    C219245   5.749   4.535   2.263  0.0242 -0.1224 -1.1483
  171SAPE    HS19246   5.859   4.537   2.249  0.0753  1.2750 -0.6933
  171SAPE   O2119247   5.703   4.398   2.255 -0.4844 -0.0778  0.1296
  171SAPE   C2119248   5.777   4.299   2.298 -0.0022 -0.1135 -0.4379
  171SAPE   O2219249   5.897   4.297   2.321 -0.1675  0.1175  0.4176
  171SAPE   C2219250   5.680   4.176   2.307 -1.1723  0.3667  0.2949
  171SAPE   H2R19251   5.594   4.212   2.366 -1.0272  1.3840 -0.0969
  171SAPE   H2S19252   5.648   4.160   2.201 -0.4282  1.2016 -0.0721
  171SAPE    C319253   5.718   4.597   2.409 -0.0428 -0.4688 -0.2174
  171SAPE    HX19254   5.723   4.519   2.489 -0.2620  0.2310  0.4917
  171SAPE    HY19255   5.615   4.638   2.404  0.0033 -0.2104  0.7673
  171SAPE   O3119256   5.805   4.707   2.427  0.1159 -0.5387 -0.5843
  171SAPE   C3119257   5.924   4.676   2.474 -0.5625  0.2080  0.6294
  171SAPE   O3219258   5.971   4.558   2.485 -0.1151 -0.6939 -0.0115
  171SAPE   C3219259   6.004   4.802   2.513  0.0628  0.4678 -0.0933
  171SAPE   H2X19260   5.937   4.871   2.569  0.6474  0.6051  0.4392
  171SAPE   H2Y19261   6.051   4.854   2.428  2.1760 -0.6665  0.3061
  171SAPE   C2319262   5.739   4.050   2.373 -0.2467  0.2501 -0.3406
  171SAPE   H3R19263   5.833   4.017   2.324 -0.6660 -1.7564  0.1002
  171SAPE   H3S19264   5.660   3.973   2.360  0.3483 -0.4596  0.1008
  171SAPE   C2419265   5.746   4.061   2.524  0.4041  0.1656  0.3057
  171SAPE   H4R19266   5.837   4.123   2.540 -0.8422  1.9446  0.8374
  171SAPE   H4S19267   5.773   3.961   2.565 -0.7264 -0.3350 -0.1087
  171SAPE   C2519268   5.632   4.126   2.607 -0.1080  0.1026  0.1227
  171SAPE   H5R19269   5.536   4.072   2.599  0.1322 -0.1331 -1.7613
  171SAPE   C2619270   5.628   4.236   2.680 -0.0409  0.7709 -0.4373
  171SAPE   H6R19271   5.542   4.245   2.749  1.0017  1.0098  0.8754
  171SAPE   C2719272   5.733   4.339   2.702  0.3004  0.4586  0.2386
  171SAPE   H7R19273   5.791   4.353   2.608 -0.7945 -0.9099 -0.6809
  171SAPE   H7S19274   5.809   4.290   2.767 -0.1357  0.8802  1.0720
  171SAPE   C2819275   5.680   4.474   2.765 -0.3672  0.1034 -0.1008
  171SAPE   H8R19276   5.575   4.503   2.748  0.5602  1.9052 -3.6897
  171SAPE   C2919277   5.756   4.551   2.851 -0.1736 -0.4265  1.3029
  171SAPE   H9R19278   5.703   4.625   2.912  1.2846  1.7643  0.0251
  171SAPE  C21019279   5.899   4.515   2.888 -0.1464 -0.6069 -0.1590
  171SAPE  H10R19280   5.951   4.486   2.795 -0.1124  0.8313 -0.6109
  171SAPE  H10S19281   5.887   4.427   2.955  0.7948 -1.7914 -1.4848
  171SAPE  C21119282   5.967   4.639   2.952  0.0587  0.4792  0.0815
  171SAPE  H11R19283   5.978   4.727   2.888  0.8457  0.0119 -0.4408
  171SAPE  C21219284   6.018   4.640   3.080  1.0174 -0.4107 -0.9193
  171SAPE  H12R19285   6.060   4.733   3.120 -0.8412 -0.3429  1.0814
  171SAPE  C21319286   6.004   4.528   3.175  0.4105  0.9469  0.1748
  171SAPE  H13R19287   6.106   4.517   3.216  0.2060 -2.5681  0.0950
  171SAPE  H13S19288   5.988   4.429   3.126  2.2459  1.3713 -1.3924
  171SAPE  C21419289   5.885   4.551   3.275 -0.5267  0.7560  0.1351
  171SAPE  H14R19290   5.878   4.658   3.300 -0.5254  1.0659 -1.1418
  171SAPE  C21519291   5.802   4.467   3.338  1.1986 -0.3601  0.4428
  171SAPE  H15R19292   5.725   4.501   3.409 -0.8149 -1.6977 -0.9613
  171SAPE  C21619293   5.797   4.319   3.313 -0.1100  0.0614 -0.3060
  171SAPE  H16R19294   5.813   4.256   3.404 -3.0534 -1.2075 -0.5475
  171SAPE  H16S19295   5.870   4.276   3.241 -1.9582 -1.7989 -1.1965
  171SAPE  C21719296   5.660   4.277   3.256  0.0199 -0.3941  0.3276
  171SAPE  H17R19297   5.580   4.323   3.318 -0.4359 -0.7695  0.0166
  171SAPE  H17S19298   5.656   4.166   3.266  2.9787 -0.4566  2.2027
  171SAPE  C21819299   5.636   4.313   3.112 -0.2985 -0.0890 -0.1073
  171SAPE  H18R19300   5.716   4.273   3.045  0.2120 -0.3308  0.6349
  171SAPE  H18S19301   5.631   4.423   3.102  1.2419 -0.1721 -2.6962
  171SAPE  C21919302   5.498   4.268   3.055 -0.5306 -0.7301  0.2063
  171SAPE  H19R19303   5.499   4.160   3.029  1.2396 -0.6989  0.0497
  171SAPE  H19S19304   5.483   4.329   2.963 -0.2516  1.5050  1.5854
  171SAPE  C22019305   5.378   4.302   3.146  0.4465  0.2119 -0.6473
  171SAPE  H20R19306   5.389   4.243   3.239  0.5927  0.5493 -0.4474
  171SAPE  H20S19307   5.291   4.250   3.100 -1.0686  0.1798  2.0492
  171SAPE  H20T19308   5.369   4.409   3.175 -2.8853  0.3770 -1.8350
  171SAPE   C3319309   6.121   4.756   2.606 -0.6414  0.4762 -0.4586
  171SAPE   H3X19310   6.182   4.674   2.564 -0.2278 -0.1793  1.3065
  171SAPE   H3Y19311   6.075   4.721   2.701 -0.6310  0.0328 -0.6145
  171SAPE   C3419312   6.212   4.874   2.645  0.0305  0.1403  0.3123
  171SAPE   H4X19313   6.146   4.959   2.671 -0.5572 -0.5428  1.1089
  171SAPE   H4Y19314   6.269   4.910   2.557  1.7234 -1.2226  0.8079
  171SAPE   C3519315   6.309   4.834   2.753  0.8823 -0.6206  0.4294
  171SAPE   H5X19316   6.380   4.767   2.702  0.1824  0.1758 -1.6819
  171SAPE   H5Y19317   6.260   4.783   2.839  1.7066 -4.1821 -1.0514
  171SAPE   C3619318   6.400   4.954   2.796 -0.7790 -0.0351 -0.8384
  171SAPE   H6X19319   6.341   5.039   2.837 -2.2568 -0.9033 -1.0842
  171SAPE   H6Y19320   6.464   4.987   2.712  1.1644 -1.1323  0.1257
  171SAPE   C3719321   6.506   4.905   2.896 -0.2703  0.0592 -0.0093
  171SAPE   H7X19322   6.585   4.981   2.913 -1.0058  0.1732  3.8352
  171SAPE   H7Y19323   6.549   4.810   2.857 -0.1694 -1.6021  3.7549
  171SAPE   C3819324   6.455   4.854   3.028 -0.7012 -0.3871 -0.6397
  171SAPE   H8X19325   6.385   4.768   3.036 -0.0283 -0.8276  1.0710
  171SAPE   H8Y19326   6.397   4.931   3.083  0.2402 -0.5853  0.6953
  171SAPE   C3919327   6.583   4.809   3.102  0.5070 -0.5523 -0.1890
  171SAPE   H9X19328   6.651   4.896   3.101  1.7763 -1.5075 -1.4361
  171SAPE   H9Y19329   6.630   4.719   3.055  0.6428 -0.2772 -0.5843
  171SAPE  C31019330   6.565   4.771   3.249 -0.6540 -0.7944 -0.7816
  171SAPE  H10X19331   6.473   4.709   3.246 -0.2609 -1.3946 -0.6622
  171SAPE  H10Y19332   6.554   4.865   3.307 -1.7755 -0.3815 -1.6267
  171SAPE  C31119333   6.687   4.699   3.303 -0.0187 -0.5658  0.6265
  171SAPE  H11X19334   6.776   4.753   3.264 -0.3826  0.1217  0.7309
  171SAPE  H11Y19335   6.697   4.599   3.255 -2.5402 -0.6511  0.1494
  171SAPE  C31219336   6.703   4.700   3.457 -0.0565 -0.2459  0.7865
  171SAPE  H12X19337   6.616   4.645   3.498 -0.0861  0.0013  1.0602
  171SAPE  H12Y19338   6.709   4.805   3.494  3.9436  0.3735 -1.0617
  171SAPE  C31319339   6.833   4.642   3.504  0.5372 -0.7585  0.5077
  171SAPE  H13X19340   6.909   4.694   3.442 -0.3314  0.0511  0.1017
  171SAPE  H13Y19341   6.841   4.534   3.478  1.0050 -0.2896 -1.4661
  171SAPE  C31419342   6.877   4.657   3.652  0.5703 -0.4975  0.0926
  171SAPE  H14X19343   6.800   4.611   3.717 -0.3242 -0.9531 -1.2440
  171SAPE  H14Y19344   6.877   4.767   3.665  0.5414 -0.4330 -0.4288
  171SAPE  C31519345   7.011   4.588   3.681 -0.0630 -1.0338 -0.2305
  171SAPE  H15X19346   7.086   4.598   3.599 -0.5000 -2.6110 -0.8633
  171SAPE  H15Y19347   6.993   4.479   3.682  0.7459 -1.2069 -1.4373
  171SAPE  C31619348   7.080   4.633   3.812 -0.0825 -0.2955  0.9899
  171SAPE  H16X19349   7.112   4.740   3.810  1.3834 -0.7279  0.6012
  171SAPE  H16Y19350   7.183   4.593   3.816  1.7248  3.9083  3.2837
  171SAPE  C31719351   7.003   4.600   3.934 -0.4366  0.2627  0.2192
  171SAPE  H17X19352   6.997   4.490   3.934 -1.5366  0.2913  1.7240
  171SAPE  H17Y19353   6.898   4.634   3.922 -1.1741 -0.9719  2.5909
  171SAPE  C31819354   7.063   4.654   4.063 -0.1864 -0.1788 -0.3206
  171SAPE  H18X19355   7.152   4.593   4.088 -0.5325 -0.3972  0.4181
  171SAPE  H18Y19356   6.992   4.657   4.149  0.9808  1.5869  0.6314
  171SAPE  H18Z19357   7.100   4.757   4.048  0.6482 -0.5424 -0.8376
  172SAPE     N19358   6.285   6.529   1.708  0.0420 -0.0943  0.0795
  172SAPE   HN119359   6.288   6.429   1.679  0.8533 -0.4557  1.3558
  172SAPE   HN219360   6.199   6.569   1.664 -1.2246 -3.7803 -1.1649
  172SAPE   HN319361   6.367   6.588   1.684 -0.0133  0.9731  2.2899
  172SAPE   C1219362   6.267   6.535   1.860  0.7523  0.1179 -0.1523
  172SAPE  H12A19363   6.171   6.486   1.887 -0.3858  2.3065 -0.0444
  172SAPE  H12B19364   6.267   6.639   1.898  1.6445 -0.2650  0.9527
  172SAPE   C1119365   6.360   6.445   1.944  0.4529 -0.5075  0.0079
  172SAPE  H11A19366   6.341   6.461   2.052  1.0568  0.4244 -0.0133
  172SAPE  H11B19367   6.464   6.482   1.930  1.6541 -4.1008 -2.0177
  172SAPE     P19368   6.283   6.198   1.937 -0.2306  0.0327 -0.0283
  172SAPE   O1319369   6.155   6.205   1.865  0.2150 -0.3100 -0.0600
  172SAPE   O1419370   6.355   6.072   1.938  0.5750 -0.0040  0.4590
  172SAPE   O1219371   6.377   6.314   1.892 -0.0928 -0.2385  0.0421
  172SAPE   O1119372   6.255   6.230   2.090 -0.3769 -0.8574 -0.2335
  172SAPE    C119373   6.377   6.211   2.168  0.4466 -0.4205  0.5990
  172SAPE    HA19374   6.415   6.106   2.168 -1.3409 -1.1058  1.8598
  172SAPE    HB19375   6.460   6.282   2.148  0.0662 -0.1076  0.1218
  172SAPE    C219376   6.341   6.241   2.316  0.0767 -0.0701  0.1520
  172SAPE    HS19377   6.276   6.157   2.349  0.4641 -0.5690 -0.3414
  172SAPE   O2119378   6.276   6.369   2.327 -0.6711 -0.0703  0.1511
  172SAPE   C2119379   6.144   6.381   2.311 -0.0744 -0.2202  0.4396
  172SAPE   O2219380   6.070   6.283   2.314 -0.1587  0.0862 -0.1416
  172SAPE   C2219381   6.112   6.525   2.277  0.6777  0.2454  0.0643
  172SAPE   H2R19382   6.147   6.550   2.174 -0.3560 -2.5083 -1.0381
  172SAPE   H2S19383   6.001   6.531   2.275  0.6493  0.0423  0.8791
  172SAPE    C319384   6.468   6.225   2.404  0.5346  0.2071  0.6688
  172SAPE    HX19385   6.532   6.309   2.371  3.6714 -2.4989 -0.6367
  172SAPE    HY19386   6.514   6.127   2.379  0.4422 -0.0571  1.5119
  172SAPE   O3119387   6.418   6.240   2.540  0.9432 -0.2529  0.0321
  172SAPE   C3119388   6.510   6.279   2.623  0.2060 -0.3703 -1.4362
  172SAPE   O3219389   6.622   6.311   2.593  0.1493 -0.6346 -0.4014
  172SAPE   C3219390   6.453   6.291   2.764  0.7363 -0.0266 -0.5604
  172SAPE   H2X19391   6.413   6.196   2.804 -0.8275 -0.3086 -2.6108
  172SAPE   H2Y19392   6.370   6.366   2.761  0.4577 -0.0476  2.7364
  172SAPE   C2319393   6.179   6.634   2.369 -0.5557 -0.2052  0.0703
  172SAPE   H3R19394   6.165   6.734   2.322  0.9875  0.5416  1.1081
  172SAPE   H3S19395   6.287   6.609   2.361 -0.2126  0.9224  0.8392
  172SAPE   C2419396   6.131   6.613   2.515  0.4805 -0.1829 -0.5262
  172SAPE   H4R19397   6.193   6.683   2.575 -1.3368  0.5811  0.5412
  172SAPE   H4S19398   6.151   6.513   2.557  0.4891 -0.0287 -0.1573
  172SAPE   C2519399   5.979   6.633   2.539  0.2567  0.4378 -0.3850
  172SAPE   H5R19400   5.914   6.639   2.451  1.7602  0.5967 -1.5148
  172SAPE   C2619401   5.924   6.655   2.659  0.6196  0.1059  0.9291
  172SAPE   H6R19402   5.814   6.661   2.661  0.6612  0.8260  1.3205
  172SAPE   C2719403   5.977   6.660   2.798  0.1156  0.6114  0.1309
  172SAPE   H7R19404   5.907   6.719   2.861 -1.4201 -0.7992 -0.2034
  172SAPE   H7S19405   6.072   6.717   2.789  0.8560 -0.6980 -0.7329
  172SAPE   C2819406   5.993   6.527   2.877 -0.0468  0.2161  0.6596
  172SAPE   H8R19407   6.007   6.430   2.827  2.3733  0.8939 -0.1071
  172SAPE   C2919408   6.007   6.521   3.010 -0.0725  0.4218  0.9651
  172SAPE   H9R19409   6.012   6.417   3.045  1.4595 -0.6567 -2.0709
  172SAPE  C21019410   6.010   6.633   3.109  0.2902  0.5243 -0.2010
  172SAPE  H10R19411   5.988   6.733   3.065  2.0617  0.1039 -2.1786
  172SAPE  H10S19412   6.113   6.635   3.151  0.4003 -1.4931 -0.2804
  172SAPE  C21119413   5.910   6.609   3.215 -0.0163 -0.0631 -0.2729
  172SAPE  H11R19414   5.804   6.613   3.184  0.5578  0.8623 -2.2691
  172SAPE  C21219415   5.932   6.556   3.343 -0.1466 -0.1149  0.1265
  172SAPE  H12R19416   5.844   6.544   3.407  1.6708 -0.0808  2.7849
  172SAPE  C21319417   6.066   6.542   3.414  0.1092 -0.3287  0.0566
  172SAPE  H13R19418   6.031   6.554   3.518  0.4664  2.5326 -0.0895
  172SAPE  H13S19419   6.120   6.632   3.378 -1.9073  0.6906 -0.5841
  172SAPE  C21419420   6.157   6.420   3.392 -0.0574  0.5304  0.3747
  172SAPE  H14R19421   6.203   6.417   3.292 -0.9824  2.3623 -0.1666
  172SAPE  C21519422   6.173   6.321   3.477 -0.9704 -0.1298  0.0349
  172SAPE  H15R19423   6.264   6.263   3.457  0.9947  2.3025  1.3638
  172SAPE  C21619424   6.101   6.307   3.602 -0.1348  0.9310 -0.6885
  172SAPE  H16R19425   6.087   6.201   3.631  0.9046  1.4945  2.1632
  172SAPE  H16S19426   6.005   6.361   3.590 -1.1855 -1.1608 -2.4472
  172SAPE  C21719427   6.154   6.386   3.731 -0.1066  0.1358 -0.4316
  172SAPE  H17R19428   6.123   6.492   3.716 -0.7807 -0.0274 -0.1970
  172SAPE  H17S19429   6.264   6.396   3.741 -0.1248  1.8315 -1.5052
  172SAPE  C21819430   6.088   6.343   3.863 -0.0486  0.7673  0.2644
  172SAPE  H18R19431   6.104   6.234   3.877 -0.1300  0.6890 -0.2577
  172SAPE  H18S19432   5.978   6.358   3.854 -0.4063 -0.6785  1.6685
  172SAPE  C21919433   6.144   6.416   3.988  0.0972 -0.1827 -0.0004
  172SAPE  H19R19434   6.141   6.524   3.967  1.6291 -0.0351  0.4131
  172SAPE  H19S19435   6.252   6.392   3.996  0.1092  0.3212  1.6529
  172SAPE  C22019436   6.077   6.376   4.118  0.3825 -0.8804 -0.0022
  172SAPE  H20R19437   5.969   6.399   4.119  0.6144  0.3550 -0.8392
  172SAPE  H20S19438   6.128   6.430   4.201  0.7187  1.0952 -1.4305
  172SAPE  H20T19439   6.102   6.270   4.139  1.1225 -0.5462  0.8900
  172SAPE   C3319440   6.554   6.328   2.866 -0.6434 -0.2141 -0.0075
  172SAPE   H3X19441   6.600   6.426   2.841 -0.7988 -0.7575 -2.7492
  172SAPE   H3Y19442   6.629   6.247   2.866  0.3561  0.6785 -1.2906
  172SAPE   C3419443   6.498   6.332   3.014  0.2636  0.1337 -0.1156
  172SAPE   H4X19444   6.453   6.232   3.031  0.5058  0.0678  0.1376
  172SAPE   H4Y19445   6.427   6.416   3.024 -0.8142 -0.9862  2.3714
  172SAPE   C3519446   6.609   6.343   3.110  0.2638  0.4720  0.4717
  172SAPE   H5X19447   6.667   6.437   3.107  0.5308  0.3439  1.4425
  172SAPE   H5Y19448   6.678   6.262   3.077 -2.1886 -1.1968 -0.9382
  172SAPE   C3619449   6.569   6.317   3.262  0.8595  0.4627  0.0463
  172SAPE   H6X19450   6.582   6.210   3.288 -0.1214  0.4493  0.5293
  172SAPE   H6Y19451   6.463   6.336   3.289  0.1445 -1.0507 -1.5192
  172SAPE   C3719452   6.665   6.386   3.357  0.4812  0.0012  0.3438
  172SAPE   H7X19453   6.651   6.494   3.339  0.9669 -0.1524 -1.1231
  172SAPE   H7Y19454   6.772   6.365   3.332  0.9303  2.8512 -0.4433
  172SAPE   C3819455   6.649   6.367   3.514  0.0555  0.3448 -0.3483
  172SAPE   H8X19456   6.553   6.413   3.548 -0.2010  0.9862 -1.8569
  172SAPE   H8Y19457   6.736   6.418   3.562  0.4433 -0.1599 -0.5044
  172SAPE   C3919458   6.653   6.220   3.555  0.1769 -0.1983 -0.7343
  172SAPE   H9X19459   6.730   6.170   3.493  0.6763 -0.4316  0.0713
  172SAPE   H9Y19460   6.554   6.179   3.524 -0.0813 -0.4921  0.4350
  172SAPE  C31019461   6.670   6.182   3.701 -0.4387  0.5509 -0.2476
  172SAPE  H10X19462   6.778   6.193   3.723 -0.1024  0.2028 -1.6167
  172SAPE  H10Y19463   6.653   6.075   3.724  1.5195  0.5936  1.7399
  172SAPE  C31119464   6.590   6.267   3.794 -0.5222  0.2262 -0.6461
  172SAPE  H11X19465   6.487   6.231   3.779  0.6573 -2.5183 -3.2214
  172SAPE  H11Y19466   6.603   6.376   3.773  0.2785 -0.0399 -1.6235
  172SAPE  C31219467   6.635   6.243   3.940  0.4042 -0.0641 -0.1260
  172SAPE  H12X19468   6.717   6.317   3.951  0.9129 -0.8009  1.3679
  172SAPE  H12Y19469   6.673   6.139   3.930 -1.4916 -0.6547 -2.1549
  172SAPE  C31319470   6.521   6.268   4.039  0.5214  0.2682 -0.0366
  172SAPE  H13X19471   6.446   6.191   4.012  1.1833  0.0325 -1.2677
  172SAPE  H13Y19472   6.481   6.370   4.027 -0.4322 -0.1467 -0.4949
  172SAPE  C31419473   6.563   6.254   4.189  0.3343 -0.1823  0.2564
  172SAPE  H14X19474   6.640   6.334   4.197 -0.4903  0.7135 -0.5316
  172SAPE  H14Y19475   6.606   6.152   4.196  2.4256  0.3464 -2.6630
  172SAPE  C31519476   6.453   6.266   4.298  0.6586  0.2511 -0.4353
  172SAPE  H15X19477   6.416   6.168   4.335  0.0753  0.1728 -1.1956
  172SAPE  H15Y19478   6.361   6.314   4.257  1.1212  0.9857 -0.6397
  172SAPE  C31619479   6.500   6.352   4.420 -0.0843  0.7900  0.5325
  172SAPE  H16X19480   6.539   6.450   4.387  0.3654  0.6190  0.5595
  172SAPE  H16Y19481   6.585   6.290   4.454 -0.0678 -0.9131 -2.2829
  172SAPE  C31719482   6.397   6.367   4.533 -0.5257 -0.0072  0.5301
  172SAPE  H17X19483   6.439   6.416   4.624 -0.6437  1.5874 -0.2278
  172SAPE  H17Y19484   6.358   6.271   4.572  0.1142 -1.0254 -1.1865
  172SAPE  C31819485   6.283   6.472   4.500 -0.2665  1.5889  0.7462
  172SAPE  H18X19486   6.190   6.449   4.557 -1.2355 -0.4551 -1.4971
  172SAPE  H18Y19487   6.252   6.469   4.393 -1.0452 -0.2029  0.9825
  172SAPE  H18Z19488   6.326   6.573   4.520  1.3151  1.7255 -2.7252
  173SLPC     N19489   5.603   6.800   6.776  0.0697 -0.3287  0.3268
  173SLPC   C1319490   5.458   6.828   6.747 -0.4577 -0.1402 -0.1113
  173SLPC  H13A19491   5.418   6.874   6.837 -0.4453 -0.3552  0.0052
  173SLPC  H13B19492   5.447   6.897   6.665  0.7902  0.2288  0.0231
  173SLPC  H13C19493   5.393   6.744   6.727  0.2900 -1.0679  1.2261
  173SLPC   C1419494   5.603   6.724   6.909  0.5739 -0.2937  0.2920
  173SLPC  H14A19495   5.567   6.791   6.987  1.1672  0.8259 -0.3662
  173SLPC  H14B19496   5.535   6.641   6.896  1.9332 -1.2420 -0.9926
  173SLPC  H14C19497   5.702   6.694   6.939  1.8050  4.4642  1.9212
  173SLPC   C1519498   5.671   6.929   6.783 -0.1947 -0.5101 -0.3071
  173SLPC  H15A19499   5.625   7.001   6.849  1.2423  0.5502 -0.4139
  173SLPC  H15B19500   5.777   6.924   6.802 -0.1999  2.8608  1.2250
  173SLPC  H15C19501   5.670   6.966   6.681  0.6236  1.3553  0.3242
  173SLPC   C1219502   5.665   6.712   6.661  0.0906 -0.0999  0.3988
  173SLPC  H12A19503   5.663   6.773   6.572  1.1550  0.8438  1.0040
  173SLPC  H12B19504   5.598   6.631   6.636  0.7130 -0.6353  0.4724
  173SLPC   C1119505   5.806   6.651   6.673  0.7738  0.6949 -0.2165
  173SLPC  H11A19506   5.823   6.597   6.769  2.0276  0.9409 -0.2893
  173SLPC  H11B19507   5.885   6.728   6.666  0.4439  0.9736 -0.9956
  173SLPC     P19508   5.827   6.604   6.418  0.0057 -0.0091 -0.1013
  173SLPC   O1319509   5.903   6.502   6.347 -0.9643 -0.4793  0.0644
  173SLPC   O1419510   5.688   6.636   6.379  0.4486  0.5828  0.5068
  173SLPC   O1219511   5.814   6.554   6.570  0.7866  0.9636 -0.3385
  173SLPC   O1119512   5.912   6.741   6.422 -0.1355  0.1623 -0.6952
  173SLPC    C119513   6.032   6.751   6.339 -0.0219 -0.3725 -0.5869
  173SLPC    HA19514   6.109   6.811   6.391  0.6675 -2.6522  1.2049
  173SLPC    HB19515   6.078   6.654   6.311 -0.3388 -0.8031  0.3305
  173SLPC    C219516   5.998   6.834   6.212 -0.1228  0.5470  0.0153
  173SLPC    HS19517   5.959   6.936   6.234 -2.7941 -0.1265 -1.1800
  173SLPC   O2119518   5.894   6.762   6.131  0.0501  0.6133  0.3752
  173SLPC   C2119519   5.782   6.824   6.094  0.2607 -0.1568  0.4646
  173SLPC   O2219520   5.748   6.934   6.129  0.1559 -0.4621 -0.3032
  173SLPC   C2219521   5.712   6.724   6.001  0.4212  0.9539 -0.0383
  173SLPC   H2R19522   5.765   6.719   5.903 -0.2379  1.0895 -0.4104
  173SLPC   H2S19523   5.702   6.626   6.051 -0.6578  1.4603  0.7595
  173SLPC    C319524   6.129   6.848   6.124  0.2728 -0.3811 -0.1155
  173SLPC    HX19525   6.152   6.748   6.082  1.2859  0.5495 -1.8822
  173SLPC    HY19526   6.209   6.881   6.193  0.8368 -3.3938  0.8495
  173SLPC   O3119527   6.104   6.946   6.020 -1.1403  0.4909 -1.1565
  173SLPC   C3119528   6.103   6.893   5.892  0.3157 -0.4572  0.1551
  173SLPC   O3219529   6.084   6.777   5.871 -0.1721  0.3739 -0.4403
  173SLPC   C3219530   6.098   7.011   5.796 -0.3169 -0.0394  0.0415
  173SLPC   H2X19531   6.199   7.056   5.797 -0.2462 -0.2024  0.4863
  173SLPC   H2Y19532   6.026   7.086   5.837  1.2348  0.0971  2.7887
  173SLPC   C2319533   5.554   6.760   5.977 -0.4773 -0.1378  0.4530
  173SLPC   H3R19534   5.562   6.860   5.930  1.0235 -0.9814 -1.1940
  173SLPC   H3S19535   5.498   6.766   6.072  1.0574  0.8803  1.3232
  173SLPC   C2419536   5.476   6.683   5.870  0.0465 -0.0903 -0.5224
  173SLPC   H4R19537   5.376   6.730   5.856  0.0002 -0.6227 -2.3423
  173SLPC   H4S19538   5.457   6.583   5.914 -0.2318  0.0004 -0.4352
  173SLPC   C2519539   5.557   6.679   5.731 -0.3084  0.2607 -0.2360
  173SLPC   H5R19540   5.663   6.649   5.745 -0.8266 -1.8158 -0.4226
  173SLPC   H5S19541   5.572   6.781   5.690  0.6526 -0.4422 -1.7388
  173SLPC   C2619542   5.493   6.584   5.632  0.5982  0.3257  0.6990
  173SLPC   H6R19543   5.555   6.578   5.540 -1.2239  0.6696 -0.6277
  173SLPC   H6S19544   5.394   6.625   5.602  1.2224  0.7065 -0.9404
  173SLPC   C2719545   5.464   6.444   5.682  0.0578 -0.6813  0.1582
  173SLPC   H7R19546   5.393   6.451   5.767  1.2220 -0.3669  1.1189
  173SLPC   H7S19547   5.558   6.398   5.718 -0.6295 -1.5938  0.8059
  173SLPC   C2819548   5.379   6.357   5.585  0.8526 -0.4189  0.5664
  173SLPC   H8R19549   5.278   6.402   5.570  0.0478 -1.7271  1.8245
  173SLPC   H8S19550   5.354   6.260   5.633 -2.5185 -0.5217 -1.0635
  173SLPC   C2919551   5.457   6.340   5.455 -0.5757 -0.0401 -0.0697
  173SLPC   H9R19552   5.536   6.264   5.461  0.0222  0.6552  1.4174
  173SLPC  C21019553   5.420   6.381   5.327 -0.0076  0.2494  0.3536
  173SLPC  H10R19554   5.493   6.352   5.251 -0.2299  1.1353 -0.2049
  173SLPC  C21119555   5.318   6.488   5.290 -0.0735 -0.0505 -0.4487
  173SLPC  H11R19556   5.251   6.500   5.378  0.2018 -2.8414  0.2555
  173SLPC  H11S19557   5.246   6.464   5.208 -0.3338  2.9094 -1.1818
  173SLPC  C21219558   5.386   6.618   5.275  0.3634  0.1958 -0.3076
  173SLPC  H12R19559   5.421   6.657   5.372  2.7167 -1.0647 -0.5703
  173SLPC  C21319560   5.410   6.681   5.163  0.2139 -0.2837  0.6071
  173SLPC  H13R19561   5.466   6.776   5.164 -0.1180  0.0050 -1.7361
  173SLPC  C21419562   5.384   6.623   5.028 -0.7002 -0.3863 -0.3821
  173SLPC  H14R19563   5.363   6.514   5.021  0.7925 -1.0241  2.9619
  173SLPC  H14S19564   5.472   6.648   4.966 -0.3325 -0.8756 -0.0586
  173SLPC  C21519565   5.265   6.705   4.968  0.1811  0.7982  0.3173
  173SLPC  H15R19566   5.289   6.811   4.948 -2.4857  1.2981 -0.6309
  173SLPC  H15S19567   5.181   6.698   5.041  0.6086 -0.9200  0.6935
  173SLPC  C21619568   5.215   6.650   4.827 -0.4464 -1.0452  0.2399
  173SLPC  H16R19569   5.300   6.668   4.758 -1.0792 -1.0646 -0.5544
  173SLPC  H16S19570   5.124   6.710   4.805  1.9229  3.7229  1.9013
  173SLPC  C21719571   5.169   6.509   4.834 -0.2902 -0.6282  0.6236
  173SLPC  H17R19572   5.113   6.503   4.930  1.8520  4.1248  2.5568
  173SLPC  H17S19573   5.256   6.440   4.837  0.0893 -0.2555 -0.8308
  173SLPC  C21819574   5.087   6.459   4.710 -0.4448  0.0891 -0.4256
  173SLPC  H18R19575   4.983   6.497   4.705 -0.3723  0.8463  2.1538
  173SLPC  H18S19576   5.070   6.349   4.719 -0.2179 -0.0110 -1.1392
  173SLPC  H18T19577   5.139   6.473   4.613  1.6771 -2.3510  0.2225
  173SLPC   C3319578   6.056   6.970   5.649 -0.7291 -0.3699 -0.0913
  173SLPC   H3X19579   6.118   6.897   5.593 -1.2606 -1.2820  0.4801
  173SLPC   H3Y19580   6.067   7.064   5.591  1.2756 -0.2373  0.4481
  173SLPC   C3419581   5.917   6.915   5.641  0.3588  0.0916  0.2165
  173SLPC   H4X19582   5.842   6.962   5.708 -0.1111 -0.8740  0.3843
  173SLPC   H4Y19583   5.923   6.811   5.678  1.3311  1.4594  4.3847
  173SLPC   C3519584   5.849   6.904   5.503 -0.1136  0.9502 -0.0139
  173SLPC   H5X19585   5.788   6.995   5.486 -1.1010  0.4673  0.7998
  173SLPC   H5Y19586   5.777   6.820   5.507  0.8924  0.0430 -0.3253
  173SLPC   C3619587   5.941   6.873   5.383 -0.3175 -0.2905  0.2324
  173SLPC   H6X19588   5.992   6.778   5.410  0.8752  0.1348 -0.4406
  173SLPC   H6Y19589   6.011   6.959   5.373 -1.3048  0.7006  1.5311
  173SLPC   C3719590   5.875   6.861   5.249  0.1414 -0.5576 -0.3302
  173SLPC   H7X19591   5.778   6.807   5.245  0.3728 -0.9051 -2.1189
  173SLPC   H7Y19592   5.938   6.802   5.179  1.5497 -0.5355  0.8918
  173SLPC   C3819593   5.845   6.995   5.182  0.0764 -0.4247 -0.0268
  173SLPC   H8X19594   5.936   7.057   5.172  1.1221 -1.6967  1.3219
  173SLPC   H8Y19595   5.768   7.053   5.238  0.1219 -0.6599  0.2820
  173SLPC   C3919596   5.788   6.963   5.042  0.1384 -0.4373 -0.2089
  173SLPC   H9X19597   5.698   6.898   5.051 -1.3441  1.7588  2.2252
  173SLPC   H9Y19598   5.869   6.902   4.996  0.2597 -0.3348 -0.1339
  173SLPC  C31019599   5.756   7.083   4.947  0.1134  0.1068 -0.3274
  173SLPC  H10X19600   5.853   7.107   4.900  0.6750  0.7481  1.0893
  173SLPC  H10Y19601   5.722   7.168   5.010  2.2190 -0.6970  2.0718
  173SLPC  C31119602   5.652   7.039   4.843  0.5796 -0.1131  0.2459
  173SLPC  H11X19603   5.584   6.961   4.882  2.6613 -0.5810  3.2908
  173SLPC  H11Y19604   5.694   6.974   4.763  0.8692 -0.2877  0.5371
  173SLPC  C31219605   5.570   7.153   4.771 -0.8987  0.4514  0.3865
  173SLPC  H12X19606   5.582   7.243   4.835  2.0597  0.6513 -0.2987
  173SLPC  H12Y19607   5.463   7.126   4.766 -1.6971  2.3918  3.7207
  173SLPC  C31319608   5.621   7.181   4.623 -0.6276 -0.4037 -0.1827
  173SLPC  H13X19609   5.536   7.230   4.569 -0.0374  0.2088 -0.5740
  173SLPC  H13Y19610   5.645   7.080   4.583  0.6599  0.1706 -0.9025
  173SLPC  C31419611   5.742   7.267   4.623  0.1642  0.4513 -0.2034
  173SLPC  H14X19612   5.825   7.209   4.667 -1.5525 -1.5757  0.5601
  173SLPC  H14Y19613   5.737   7.356   4.689  1.6353 -1.3368  2.5026
  173SLPC  C31519614   5.792   7.306   4.476  0.4936 -0.2176  0.2068
  173SLPC  H15X19615   5.740   7.399   4.443  0.0149 -0.7647 -0.6160
  173SLPC  H15Y19616   5.753   7.224   4.412  0.0104  0.8805 -0.9639
  173SLPC  C31619617   5.944   7.315   4.459 -0.0333  0.1837  0.5698
  173SLPC  H16X19618   5.993   7.230   4.511 -1.6203 -0.7082  0.6920
  173SLPC  H16Y19619   5.981   7.411   4.500  1.9303 -1.0069  1.7031
  173SLPC  C31719620   5.973   7.306   4.309 -0.9163 -0.3770  0.6432
  173SLPC  H17X19621   5.908   7.386   4.267  0.7069  1.0096  0.6639
  173SLPC  H17Y19622   5.955   7.201   4.277  0.6466 -0.9183  1.4626
  173SLPC  C31819623   6.124   7.331   4.271  0.0129  0.5088 -0.3310
  173SLPC  H18X19624   6.155   7.411   4.340 -1.8920 -1.6270  3.3193
  173SLPC  H18Y19625   6.126   7.372   4.168 -0.2446  2.0658  0.2674
  173SLPC  H18Z19626   6.182   7.241   4.301 -0.2228  1.2483  2.6226
  174SLPC     N19627   2.622   0.953   6.717 -0.2125  0.7057  0.3217
  174SLPC   C1319628   2.697   0.993   6.838  0.1514 -0.5739  0.2267
  174SLPC  H13A19629   2.646   1.043   6.919  0.9929  1.4544 -0.4189
  174SLPC  H13B19630   2.728   0.896   6.873 -2.1468 -1.5602 -0.3080
  174SLPC  H13C19631   2.787   1.045   6.807 -0.5058  0.7495  0.4831
  174SLPC   C1419632   2.569   1.075   6.646  0.0069  0.6665  0.0626
  174SLPC  H14A19633   2.491   1.058   6.574  1.5781 -1.0143 -1.3192
  174SLPC  H14B19634   2.544   1.142   6.727 -0.1079 -1.1554  1.6210
  174SLPC  H14C19635   2.653   1.115   6.591 -0.1472  3.1948  1.5058
  174SLPC   C1519636   2.504   0.869   6.755 -0.3264  0.6117 -0.4618
  174SLPC  H15A19637   2.442   0.921   6.827 -2.0382 -1.9407  0.0557
  174SLPC  H15B19638   2.449   0.828   6.671  1.1118 -0.8943 -0.7185
  174SLPC  H15C19639   2.535   0.771   6.789 -1.1691  0.2137 -0.7859
  174SLPC   C1219640   2.711   0.877   6.625  0.2529 -0.6040  0.4596
  174SLPC  H12A19641   2.652   0.838   6.544 -1.2338  3.1385 -0.4222
  174SLPC  H12B19642   2.747   0.787   6.674 -0.9383 -1.1240  0.4055
  174SLPC   C1119643   2.835   0.945   6.556  0.5626 -0.0994  0.0054
  174SLPC  H11A19644   2.804   1.016   6.477  0.1266 -1.5769 -1.2086
  174SLPC  H11B19645   2.875   0.860   6.496  1.2048  0.6363 -0.6302
  174SLPC     P19646   3.042   0.910   6.706  0.1550 -0.0267  0.0439
  174SLPC   O1319647   3.093   0.978   6.825 -0.0263 -0.1256 -0.0403
  174SLPC   O1419648   3.008   0.770   6.710 -0.3651  0.1890  0.4753
  174SLPC   O1219649   2.933   1.003   6.643 -0.1801  0.7792 -0.1516
  174SLPC   O1119650   3.151   0.922   6.587 -0.3644  0.6562  0.1262
  174SLPC    C119651   3.208   1.039   6.530 -0.1888 -0.9374 -0.2687
  174SLPC    HA19652   3.194   1.129   6.593  1.4589 -1.4498  0.8996
  174SLPC    HB19653   3.319   1.027   6.529  0.3305  2.6357  0.5679
  174SLPC    C219654   3.175   1.059   6.381  0.5333  0.3182 -0.4442
  174SLPC    HS19655   3.065   1.078   6.376  0.7694  1.5541 -4.1687
  174SLPC   O2119656   3.223   0.937   6.315  0.3861 -0.0630  0.2011
  174SLPC   C2119657   3.159   0.899   6.211 -0.3008 -0.3629 -0.1267
  174SLPC   O2219658   3.060   0.952   6.161  0.2591  0.2657 -0.1027
  174SLPC   C2219659   3.225   0.772   6.156 -0.1009 -0.7532 -0.1609
  174SLPC   H2R19660   3.333   0.762   6.183 -0.2503  0.2233  0.8849
  174SLPC   H2S19661   3.170   0.693   6.211 -1.6055  1.3448  1.5338
  174SLPC    C319662   3.234   1.197   6.330  0.4918 -0.1546 -0.2101
  174SLPC    HX19663   3.341   1.191   6.360  0.2040 -1.2832  0.6847
  174SLPC    HY19664   3.175   1.268   6.392 -0.8844 -1.2005 -0.2682
  174SLPC   O3119665   3.220   1.211   6.190  0.3285  0.2766  0.6633
  174SLPC   C3119666   3.111   1.259   6.143  0.2786 -0.0697  0.4694
  174SLPC   O3219667   3.016   1.313   6.207  0.2906  0.3601 -0.0416
  174SLPC   C3219668   3.119   1.252   5.991  0.2368  0.3382  0.1140
  174SLPC   H2X19669   3.013   1.252   5.958 -0.1275 -2.2277  1.0828
  174SLPC   H2Y19670   3.159   1.154   5.958 -0.1781 -0.6555  2.4283
  174SLPC   C2319671   3.215   0.751   6.000 -0.0618 -0.1648 -0.4501
  174SLPC   H3R19672   3.111   0.763   5.963  0.1930 -0.0239 -1.1467
  174SLPC   H3S19673   3.227   0.645   5.969 -0.6949 -0.5286  0.5382
  174SLPC   C2419674   3.316   0.836   5.920  0.3081  0.4841  0.2756
  174SLPC   H4R19675   3.416   0.811   5.961 -0.2356 -0.4929  1.0551
  174SLPC   H4S19676   3.296   0.945   5.920  0.4153  0.5096  1.2124
  174SLPC   C2519677   3.317   0.817   5.765  0.2584 -0.2770 -0.0757
  174SLPC   H5R19678   3.390   0.893   5.730  0.7839 -0.3045  0.9158
  174SLPC   H5S19679   3.213   0.836   5.730  0.5255  0.8316 -0.2945
  174SLPC   C2619680   3.363   0.681   5.721 -0.5911  0.3687  0.2395
  174SLPC   H6R19681   3.295   0.600   5.753  0.6496 -0.4863  0.7843
  174SLPC   H6S19682   3.455   0.670   5.782 -0.7818 -0.0929  0.4452
  174SLPC   C2719683   3.384   0.676   5.574 -0.2461 -0.0431 -0.5613
  174SLPC   H7R19684   3.469   0.741   5.545 -1.4956  0.7174 -2.8289
  174SLPC   H7S19685   3.297   0.719   5.520 -0.4508  0.8003  0.4032
  174SLPC   C2819686   3.423   0.535   5.516  0.2386 -0.4709 -0.4567
  174SLPC   H8R19687   3.448   0.546   5.408  1.6274 -0.5350 -0.1608
  174SLPC   H8S19688   3.332   0.472   5.521  0.4706 -0.8899 -1.2063
  174SLPC   C2919689   3.529   0.469   5.595 -0.0884 -1.0302  0.1863
  174SLPC   H9R19690   3.500   0.443   5.698  1.3552  0.4114  0.9894
  174SLPC  C21019691   3.654   0.432   5.555  0.7838 -0.2084  0.4613
  174SLPC  H10R19692   3.717   0.373   5.625  1.6659 -1.2743 -1.1579
  174SLPC  C21119693   3.711   0.450   5.417 -0.0713 -0.4466  0.2694
  174SLPC  H11R19694   3.630   0.442   5.342 -0.2094 -2.3832  0.5776
  174SLPC  H11S19695   3.769   0.358   5.393 -0.0626 -0.5503  0.6700
  174SLPC  C21219696   3.781   0.579   5.398 -1.5846  0.2914  0.1435
  174SLPC  H12R19697   3.854   0.593   5.479 -1.2295  1.3556 -0.3570
  174SLPC  C21319698   3.779   0.660   5.290 -0.3424 -0.3110  0.2970
  174SLPC  H13R19699   3.839   0.752   5.286 -0.6307 -0.1487 -0.5303
  174SLPC  C21419700   3.700   0.634   5.163 -0.3901 -0.3183 -0.1125
  174SLPC  H14R19701   3.591   0.655   5.173 -0.5903 -0.3031 -1.9935
  174SLPC  H14S19702   3.710   0.525   5.145  0.1837 -0.0392 -1.5979
  174SLPC  C21519703   3.739   0.711   5.032 -1.6099 -0.5839  0.3840
  174SLPC  H15R19704   3.734   0.822   5.042 -1.8117 -0.4859 -0.6698
  174SLPC  H15S19705   3.682   0.694   4.938  2.1537  1.9965 -2.6911
  174SLPC  C21619706   3.876   0.658   4.980  0.3621 -0.6190  0.0596
  174SLPC  H16R19707   3.867   0.548   4.984 -1.7358 -0.4664  0.8280
  174SLPC  H16S19708   3.963   0.684   5.043 -0.1885  1.6519 -0.0166
  174SLPC  C21719709   3.922   0.701   4.833  0.2814  0.1407  0.4835
  174SLPC  H17R19710   3.942   0.809   4.814  0.1157  0.1814  0.5346
  174SLPC  H17S19711   3.834   0.680   4.768  0.5029  1.7248 -0.3923
  174SLPC  C21819712   4.044   0.639   4.774  0.1973 -0.2963 -0.5267
  174SLPC  H18R19713   4.128   0.677   4.836 -0.4206  1.3711 -0.6634
  174SLPC  H18S19714   4.069   0.671   4.671 -1.4492  2.5618 -0.1402
  174SLPC  H18T19715   4.028   0.529   4.768 -1.5657  0.0042 -2.8486
  174SLPC   C3319716   3.213   1.352   5.925 -0.1553 -0.2874 -0.0416
  174SLPC   H3X19717   3.315   1.337   5.967  0.2384 -0.8389 -1.1426
  174SLPC   H3Y19718   3.189   1.459   5.942  3.6927  0.6214  0.5793
  174SLPC   C3419719   3.204   1.334   5.769  0.5869 -0.2674  0.1383
  174SLPC   H4X19720   3.176   1.432   5.724  1.2797 -0.2199 -0.2146
  174SLPC   H4Y19721   3.130   1.256   5.742  1.8828 -1.7395  0.7000
  174SLPC   C3519722   3.341   1.304   5.709 -0.5656  0.3141 -0.1615
  174SLPC   H5X19723   3.405   1.247   5.781 -0.0010 -1.9944 -2.3568
  174SLPC   H5Y19724   3.399   1.398   5.696  3.2327 -1.4088  2.4755
  174SLPC   C3619725   3.337   1.226   5.575  0.3838  0.0725  0.0440
  174SLPC   H6X19726   3.311   1.296   5.493 -1.0220  0.1274  0.5112
  174SLPC   H6Y19727   3.261   1.146   5.587  0.7145 -0.1151  0.9867
  174SLPC   C3719728   3.472   1.167   5.550  0.1166 -0.0252  0.1327
  174SLPC   H7X19729   3.510   1.122   5.644 -2.4194 -0.2400  1.1250
  174SLPC   H7Y19730   3.549   1.244   5.526 -0.4999 -0.0691 -2.2746
  174SLPC   C3819731   3.465   1.049   5.456 -0.5180 -0.2729  0.6222
  174SLPC   H8X19732   3.397   0.968   5.489  2.1667 -2.1078  2.0670
  174SLPC   H8Y19733   3.561   0.993   5.455 -0.4485 -0.2029  1.7345
  174SLPC   C3919734   3.430   1.079   5.312 -0.1041 -0.3721  0.6433
  174SLPC   H9X19735   3.327   1.119   5.298  0.6173  1.8775  1.2927
  174SLPC   H9Y19736   3.459   0.987   5.256 -2.0261 -1.3951  1.2443
  174SLPC  C31019737   3.523   1.194   5.256  0.1506 -0.2888 -0.9928
  174SLPC  H10X19738   3.627   1.167   5.286 -0.3384 -1.7275 -0.5004
  174SLPC  H10Y19739   3.488   1.291   5.296  2.8931 -0.2410  1.7555
  174SLPC  C31119740   3.531   1.212   5.105  0.3836 -0.1883  0.2503
  174SLPC  H11X19741   3.438   1.244   5.054  0.8597 -2.3001 -2.1536
  174SLPC  H11Y19742   3.543   1.108   5.067 -0.8463 -0.6566  1.0654
  174SLPC  C31219743   3.646   1.304   5.067 -0.2903 -0.3448 -0.9069
  174SLPC  H12X19744   3.739   1.247   5.090  0.3359  0.0974 -2.2540
  174SLPC  H12Y19745   3.642   1.398   5.125 -0.2940  0.0846 -1.5983
  174SLPC  C31319746   3.644   1.338   4.919 -0.6715  0.5361  0.6912
  174SLPC  H13X19747   3.728   1.405   4.892 -1.4250  0.7679 -1.2233
  174SLPC  H13Y19748   3.551   1.393   4.892 -0.8908 -0.2861 -0.3107
  174SLPC  C31419749   3.659   1.211   4.835  0.0179 -0.7043  0.7236
  174SLPC  H14X19750   3.560   1.172   4.804  0.3756  0.5426 -2.3579
  174SLPC  H14Y19751   3.707   1.129   4.892 -0.5515 -1.2671  0.3992
  174SLPC  C31519752   3.737   1.212   4.699  0.1811  0.4691 -0.1461
  174SLPC  H15X19753   3.743   1.108   4.660 -0.2095  0.1769  0.5516
  174SLPC  H15Y19754   3.840   1.248   4.716  0.1433 -0.1117  1.4744
  174SLPC  C31619755   3.668   1.311   4.599  0.4176  0.4489  0.0652
  174SLPC  H16X19756   3.702   1.410   4.634 -0.2429  0.2459  1.3255
  174SLPC  H16Y19757   3.560   1.312   4.621  0.1933  0.9627 -1.0011
  174SLPC  C31719758   3.708   1.292   4.454 -0.2020 -0.3333  0.1166
  174SLPC  H17X19759   3.679   1.187   4.434 -0.2354 -0.2780 -0.1277
  174SLPC  H17Y19760   3.817   1.305   4.441 -0.1695  1.6054  1.7872
  174SLPC  C31819761   3.626   1.366   4.353 -0.0953  0.4980 -0.4880
  174SLPC  H18X19762   3.520   1.338   4.371  0.3540  0.2121  2.0873
  174SLPC  H18Y19763   3.648   1.332   4.249 -0.8937  0.6661 -0.7193
  174SLPC  H18Z19764   3.660   1.472   4.352  0.2945  0.3736 -0.5361
  175SLPC     N19765   6.295   1.362   5.983  0.3042 -0.0347 -0.3315
  175SLPC   C1319766   6.286   1.482   6.070 -0.3875 -0.5260 -0.5990
  175SLPC  H13A19767   6.203   1.490   6.139 -0.3030  2.8295 -0.7539
  175SLPC  H13B19768   6.374   1.505   6.128 -0.2284 -0.4758 -0.8613
  175SLPC  H13C19769   6.274   1.566   6.004  0.4909  0.9946  1.0979
  175SLPC   C1419770   6.193   1.368   5.880  0.0125 -0.2229  0.1263
  175SLPC  H14A19771   6.095   1.402   5.908  0.6175  0.6597  1.2823
  175SLPC  H14B19772   6.214   1.442   5.805 -0.3581 -2.0937 -1.9009
  175SLPC  H14C19773   6.187   1.278   5.822 -1.1248  0.5107 -0.9440
  175SLPC   C1519774   6.272   1.238   6.070  1.1074 -0.0715  0.3485
  175SLPC  H15A19775   6.320   1.153   6.024 -0.9972  0.4889 -3.2832
  175SLPC  H15B19776   6.322   1.245   6.165  2.2975 -0.2093 -0.2469
  175SLPC  H15C19777   6.166   1.222   6.081  0.6047  1.5582 -1.5886
  175SLPC   C1219778   6.427   1.350   5.915  0.1633  0.0950 -0.7395
  175SLPC  H12A19779   6.453   1.444   5.868 -1.4261  2.1183  2.0995
  175SLPC  H12B19780   6.419   1.272   5.841  0.5673 -2.0339  1.3481
  175SLPC   C1119781   6.543   1.322   6.019 -0.2505  0.8785  0.0286
  175SLPC  H11A19782   6.630   1.287   5.960 -1.5092 -2.7458  0.0479
  175SLPC  H11B19783   6.532   1.238   6.091  1.1639 -0.6310 -1.4005
  175SLPC     P19784   6.714   1.468   6.151 -0.4271  0.0003 -0.2266
  175SLPC   O1319785   6.699   1.538   6.288  0.0104  0.3405  0.3927
  175SLPC   O1419786   6.793   1.341   6.168 -0.0924  0.1554 -0.0751
  175SLPC   O1219787   6.574   1.443   6.088  0.0614  0.4178  0.3241
  175SLPC   O1119788   6.794   1.566   6.055  0.1534 -0.0133  0.0441
  175SLPC    C119789   6.727   1.643   5.959 -0.5121 -0.3191 -0.2214
  175SLPC    HA19790   6.616   1.640   5.965 -0.4907  0.2834  0.5924
  175SLPC    HB19791   6.762   1.746   5.980 -0.9120 -0.2820  0.2763
  175SLPC    C219792   6.763   1.609   5.805  1.0092  0.0364 -0.1423
  175SLPC    HS19793   6.722   1.507   5.794 -0.1226 -0.0682  3.6349
  175SLPC   O2119794   6.900   1.617   5.779 -0.3061  0.1978  0.5778
  175SLPC   C2119795   6.966   1.508   5.727 -0.0388 -0.0629 -0.9139
  175SLPC   O2219796   6.923   1.394   5.717  0.6813 -0.3208 -0.0846
  175SLPC   C2219797   7.108   1.548   5.686 -0.7497 -1.1847  0.0683
  175SLPC   H2R19798   7.110   1.657   5.664  2.5526 -1.0817  0.4236
  175SLPC   H2S19799   7.183   1.522   5.764 -0.7639 -0.1842  0.4326
  175SLPC    C319800   6.685   1.690   5.702 -0.4228  0.2007  0.8674
  175SLPC    HX19801   6.733   1.790   5.707  1.1537 -0.4060 -0.8964
  175SLPC    HY19802   6.578   1.687   5.732 -0.2194 -1.6395  1.5060
  175SLPC   O3119803   6.710   1.647   5.562 -0.3533 -0.2494  0.7124
  175SLPC   C3119804   6.621   1.565   5.506 -0.1935  0.3744  0.6203
  175SLPC   O3219805   6.527   1.517   5.567  0.0869  0.1077 -0.0705
  175SLPC   C3219806   6.653   1.553   5.361 -0.4762 -0.8129  0.4220
  175SLPC   H2X19807   6.745   1.606   5.329 -2.1342  1.4607 -0.8849
  175SLPC   H2Y19808   6.570   1.605   5.310 -0.3549  0.5511  1.5741
  175SLPC   C2319809   7.151   1.475   5.553 -0.6238 -0.9493  0.6752
  175SLPC   H3R19810   7.128   1.366   5.554 -1.3112 -0.8265 -0.4373
  175SLPC   H3S19811   7.259   1.497   5.537 -0.4091 -0.3399  2.7651
  175SLPC   C2419812   7.063   1.520   5.429  0.3535  0.3448 -0.3224
  175SLPC   H4R19813   7.048   1.630   5.428  0.3348  0.4032  1.7117
  175SLPC   H4S19814   6.961   1.476   5.427 -0.6404  2.5235 -2.3452
  175SLPC   C2519815   7.130   1.470   5.301  0.0417  0.2868 -0.4798
  175SLPC   H5R19816   7.153   1.362   5.304  2.7356  0.7786 -0.8726
  175SLPC   H5S19817   7.228   1.524   5.303  2.1709 -3.2385 -1.0455
  175SLPC   C2619818   7.059   1.504   5.173  0.0234  0.0059  0.5355
  175SLPC   H6R19819   7.006   1.599   5.196  0.7238  0.9552 -1.5105
  175SLPC   H6S19820   6.997   1.420   5.135  1.5052 -0.4421 -1.0277
  175SLPC   C2719821   7.160   1.540   5.068  0.4146 -0.3132  0.1708
  175SLPC   H7R19822   7.234   1.619   5.093  0.5058  0.9915 -3.6240
  175SLPC   H7S19823   7.100   1.574   4.981  0.8882 -0.2469 -0.1273
  175SLPC   C2819824   7.244   1.421   5.022 -0.4840 -0.8579 -0.3517
  175SLPC   H8R19825   7.176   1.353   4.966 -1.7286  0.6226 -0.6994
  175SLPC   H8S19826   7.290   1.358   5.101  2.0588 -0.0172 -1.0684
  175SLPC   C2919827   7.368   1.466   4.938  1.1644  0.0245  0.1010
  175SLPC   H9R19828   7.444   1.531   4.985 -0.0170  1.3623  0.2210
  175SLPC  C21019829   7.408   1.432   4.814  0.1974 -0.3946 -0.0676
  175SLPC  H10R19830   7.503   1.476   4.779 -0.4135 -0.0529 -1.3707
  175SLPC  C21119831   7.319   1.335   4.722  0.2157 -0.9338 -0.7561
  175SLPC  H11R19832   7.276   1.252   4.783 -2.0926  0.9176  0.2680
  175SLPC  H11S19833   7.391   1.281   4.656  2.6172  1.1782  0.0157
  175SLPC  C21219834   7.205   1.395   4.650 -0.5547  0.2131 -0.1187
  175SLPC  H12R19835   7.143   1.460   4.713 -0.8273  0.5953 -0.7738
  175SLPC  C21319836   7.189   1.391   4.515  0.6420 -0.4673  0.2804
  175SLPC  H13R19837   7.097   1.440   4.482 -0.3109 -0.4373  2.7424
  175SLPC  C21419838   7.262   1.327   4.406  0.4234  0.3612  0.3797
  175SLPC  H14R19839   7.308   1.228   4.430  1.2023  0.4418 -0.7151
  175SLPC  H14S19840   7.358   1.379   4.388 -0.0439  0.2324 -3.2250
  175SLPC  C21519841   7.188   1.319   4.276  0.2007  0.2492  0.5134
  175SLPC  H15R19842   7.179   1.422   4.235  3.6393  0.2151 -0.6593
  175SLPC  H15S19843   7.088   1.273   4.288  0.0018  0.7781  0.9456
  175SLPC  C21619844   7.265   1.237   4.175  0.2394  0.4341 -0.3366
  175SLPC  H16R19845   7.260   1.130   4.207 -0.6349  0.8091  0.8711
  175SLPC  H16S19846   7.373   1.260   4.177  0.0899  1.1059  0.6095
  175SLPC  C21719847   7.212   1.256   4.033 -0.1834 -0.5473  0.4116
  175SLPC  H17R19848   7.245   1.360   4.015  1.9503 -0.9778  1.5959
  175SLPC  H17S19849   7.101   1.252   4.024 -0.2929 -2.1950  1.9621
  175SLPC  C21819850   7.255   1.153   3.927 -0.3715 -0.6158 -0.1767
  175SLPC  H18R19851   7.244   1.048   3.961 -0.6421 -1.2746 -2.1830
  175SLPC  H18S19852   7.360   1.176   3.899 -0.1669 -2.1841 -0.7855
  175SLPC  H18T19853   7.183   1.169   3.844 -2.7722  0.0779  1.8874
  175SLPC   C3319854   6.673   1.410   5.319 -0.2173 -1.1530 -0.0590
  175SLPC   H3X19855   6.586   1.343   5.335 -0.5165 -0.8978 -0.5913
  175SLPC   H3Y19856   6.752   1.367   5.384 -0.3807  0.5399  1.3560
  175SLPC   C3419857   6.715   1.407   5.169 -0.2935  0.2619 -0.3103
  175SLPC   H4X19858   6.795   1.483   5.155  1.6801 -0.8127  3.5798
  175SLPC   H4Y19859   6.632   1.439   5.102  1.4438  1.7653 -1.8679
  175SLPC   C3519860   6.762   1.271   5.113  0.3936 -0.2744  0.2752
  175SLPC   H5X19861   6.691   1.188   5.134  0.8512 -0.6203  0.4823
  175SLPC   H5Y19862   6.853   1.256   5.175 -0.8015 -0.1841  2.1465
  175SLPC   C3619863   6.796   1.283   4.965  0.1383 -0.1845 -0.2786
  175SLPC   H6X19864   6.839   1.384   4.949 -1.1860  0.2509 -1.2501
  175SLPC   H6Y19865   6.705   1.286   4.901  0.7447 -1.5039 -1.2497
  175SLPC   C3719866   6.882   1.173   4.912 -0.0470 -0.2564  1.0567
  175SLPC   H7X19867   6.848   1.071   4.938  1.2534 -0.3773  2.3778
  175SLPC   H7Y19868   6.978   1.184   4.968 -0.7960  0.2258  2.3069
  175SLPC   C3819869   6.900   1.174   4.753 -0.3776 -0.3168 -0.0476
  175SLPC   H8X19870   6.956   1.262   4.714 -1.1264 -0.1606 -0.7865
  175SLPC   H8Y19871   6.795   1.185   4.718  0.1917 -0.4826 -1.8920
  175SLPC   C3919872   6.957   1.046   4.696 -0.8155  0.4729 -0.3367
  175SLPC   H9X19873   6.889   0.960   4.717 -1.0631  0.3610 -1.5477
  175SLPC   H9Y19874   7.055   1.014   4.739 -1.9317 -1.9836  0.5802
  175SLPC  C31019875   6.975   1.039   4.538 -0.6273 -0.4824  0.8437
  175SLPC  H10X19876   7.022   1.136   4.515 -0.8713 -0.7176 -0.8349
  175SLPC  H10Y19877   6.871   1.048   4.500 -0.5704 -0.5789  0.6633
  175SLPC  C31119878   7.049   0.921   4.493  0.0617 -0.2550  0.4189
  175SLPC  H11X19879   7.008   0.830   4.542 -0.3681 -1.0127 -1.2731
  175SLPC  H11Y19880   7.146   0.924   4.547  0.0424 -0.1613  0.4467
  175SLPC  C31219881   7.066   0.916   4.343  0.0817  0.1942 -0.6221
  175SLPC  H12X19882   7.150   0.854   4.305  0.9080  1.6645 -1.3005
  175SLPC  H12Y19883   7.093   1.021   4.319  1.5001 -0.1220 -0.5161
  175SLPC  C31319884   6.939   0.866   4.275  0.3083 -0.5535 -0.2450
  175SLPC  H13X19885   6.891   0.952   4.222 -1.1503 -0.3488  1.3160
  175SLPC  H13Y19886   6.865   0.825   4.347  1.1653 -2.3166 -0.3125
  175SLPC  C31419887   6.969   0.749   4.184 -0.4952 -0.7133  0.5567
  175SLPC  H14X19888   6.866   0.712   4.169 -0.8092 -0.4007  1.8406
  175SLPC  H14Y19889   7.037   0.678   4.236 -0.3150 -0.0742  1.2199
  175SLPC  C31519890   7.025   0.781   4.052  0.5785 -0.7924  0.6077
  175SLPC  H15X19891   7.118   0.841   4.064 -1.1176  1.8347  1.6779
  175SLPC  H15Y19892   6.952   0.834   3.986  1.1096 -2.4596 -1.4208
  175SLPC  C31619893   7.044   0.656   3.968 -0.1035  0.4087 -0.4431
  175SLPC  H16X19894   6.949   0.623   3.920 -0.6331  1.3532 -0.0837
  175SLPC  H16Y19895   7.076   0.571   4.032  4.6195  2.5875  0.4774
  175SLPC  C31719896   7.145   0.670   3.846  0.1954 -0.9956 -0.9646
  175SLPC  H17X19897   7.243   0.715   3.874 -1.1869  1.4939  0.2342
  175SLPC  H17Y19898   7.099   0.749   3.783  1.4784  0.1769 -0.4709
  175SLPC  C31819899   7.174   0.539   3.776 -0.2906  0.0211 -0.2388
  175SLPC  H18X19900   7.091   0.465   3.769  1.7167 -2.4321  0.6191
  175SLPC  H18Y19901   7.255   0.488   3.833 -0.3200  2.5854  2.3298
  175SLPC  H18Z19902   7.215   0.560   3.675 -1.5423 -0.9393 -0.9636
  176SLPC     N19903   6.513   0.601   6.698 -0.4368  0.4390  0.0015
  176SLPC   C1319904   6.564   0.538   6.572 -0.3925 -0.1220  0.2836
  176SLPC  H13A19905   6.623   0.451   6.598 -1.5821 -0.5856  1.4835
  176SLPC  H13B19906   6.474   0.508   6.521  0.3140 -3.0315  0.5712
  176SLPC  H13C19907   6.627   0.611   6.522 -1.0928  0.0549 -0.3485
  176SLPC   C1419908   6.623   0.671   6.776  0.1364 -0.9157 -0.1262
  176SLPC  H14A19909   6.706   0.604   6.791  1.9459  1.6430  2.3368
  176SLPC  H14B19910   6.662   0.754   6.720  3.0374 -0.6871  2.0204
  176SLPC  H14C19911   6.581   0.706   6.869  0.1804  0.8818 -0.7392
  176SLPC   C1519912   6.459   0.492   6.785 -0.4940 -0.6191 -0.5049
  176SLPC  H15A19913   6.421   0.528   6.879 -2.1660  2.3643 -2.1447
  176SLPC  H15B19914   6.383   0.446   6.723 -1.3148  1.9269 -1.5497
  176SLPC  H15C19915   6.543   0.428   6.805  2.9596  3.7001  0.2621
  176SLPC   C1219916   6.409   0.707   6.661 -0.2560 -0.1792 -0.2111
  176SLPC  H12A19917   6.459   0.772   6.591  0.7965  0.6968  1.2878
  176SLPC  H12B19918   6.393   0.775   6.743 -0.3750  0.5338 -0.8160
  176SLPC   C1119919   6.273   0.660   6.596  0.3601  1.0971 -0.1661
  176SLPC  H11A19920   6.201   0.744   6.589  0.4554  1.1216 -0.9439
  176SLPC  H11B19921   6.235   0.581   6.665 -1.6148  1.1348 -1.1399
  176SLPC     P19922   6.299   0.687   6.336  0.1747 -0.0013 -0.2582
  176SLPC   O1319923   6.249   0.824   6.359 -0.5821  0.0625  0.6757
  176SLPC   O1419924   6.434   0.686   6.262 -0.0759  0.7446  0.3662
  176SLPC   O1219925   6.293   0.598   6.466 -0.1237 -0.0667  0.3880
  176SLPC   O1119926   6.199   0.607   6.248 -0.5716 -0.1357  0.6450
  176SLPC    C119927   6.204   0.467   6.229 -0.1714 -0.7724 -0.2343
  176SLPC    HA19928   6.309   0.433   6.239 -0.4750 -1.2011  2.1942
  176SLPC    HB19929   6.140   0.420   6.307 -2.1236 -0.2833 -1.4695
  176SLPC    C219930   6.162   0.435   6.081 -1.5624 -0.0084  0.2247
  176SLPC    HS19931   6.136   0.327   6.077 -1.4118 -0.1229  1.6831
  176SLPC   O2119932   6.266   0.467   5.987 -0.5863  0.4697 -0.3791
  176SLPC   C2119933   6.375   0.392   5.992  0.1897  0.4792 -0.1421
  176SLPC   O2219934   6.401   0.295   6.058  0.0241  0.0633  0.1012
  176SLPC   C2219935   6.470   0.449   5.883 -0.2467  0.1241  0.4027
  176SLPC   H2R19936   6.502   0.539   5.940  0.3326  0.2221 -0.0696
  176SLPC   H2S19937   6.545   0.368   5.868 -1.9451 -1.6234  0.9606
  176SLPC    C319938   6.023   0.505   6.041 -0.5912 -0.4550  0.7833
  176SLPC    HX19939   6.040   0.615   6.051 -2.0546  0.0184 -1.3071
  176SLPC    HY19940   5.938   0.473   6.105 -1.1814 -0.1121  0.1850
  176SLPC   O3119941   5.993   0.466   5.901  0.3364  0.1276  0.5773
  176SLPC   C3119942   5.983   0.569   5.816 -0.3440  0.1172 -0.2357
  176SLPC   O3219943   5.995   0.685   5.842 -0.1247 -0.1926  0.1492
  176SLPC   C3219944   5.943   0.516   5.683  0.6077 -0.2069 -0.0528
  176SLPC   H2X19945   5.835   0.537   5.669  0.7690 -0.1035 -1.2694
  176SLPC   H2Y19946   5.966   0.408   5.695  2.0306  0.1205  0.3151
  176SLPC   C2319947   6.409   0.479   5.738  0.7372  0.3016 -0.7311
  176SLPC   H3R19948   6.470   0.549   5.676  1.8449 -0.1961 -0.2397
  176SLPC   H3S19949   6.311   0.529   5.753  0.7056  0.0700 -0.1558
  176SLPC   C2419950   6.401   0.348   5.653 -0.2267 -0.2126 -0.3388
  176SLPC   H4R19951   6.373   0.265   5.720  1.0710  0.4598  1.1221
  176SLPC   H4S19952   6.508   0.327   5.630  0.4063 -1.1775  2.8930
  176SLPC   C2519953   6.309   0.354   5.537  0.3058 -0.1913 -0.3266
  176SLPC   H5R19954   6.323   0.458   5.500  1.6480  0.3751  1.6078
  176SLPC   H5S19955   6.204   0.333   5.567  0.5611 -1.2356 -0.1141
  176SLPC   C2619956   6.341   0.257   5.423 -0.0203  0.0740  0.0778
  176SLPC   H6R19957   6.324   0.153   5.458  2.0826  0.2877  2.0004
  176SLPC   H6S19958   6.450   0.275   5.407  0.4501 -0.1520  2.5524
  176SLPC   C2719959   6.251   0.279   5.296 -0.1132  0.2068 -0.7675
  176SLPC   H7R19960   6.233   0.388   5.290  0.8677  0.3562 -1.2135
  176SLPC   H7S19961   6.146   0.246   5.308 -0.1649 -0.4257 -2.6032
  176SLPC   C2819962   6.305   0.210   5.169 -0.4904  0.8851 -0.3000
  176SLPC   H8R19963   6.413   0.236   5.162  0.0518 -0.9234  0.5399
  176SLPC   H8S19964   6.251   0.249   5.081  0.4872 -1.5746 -2.1099
  176SLPC   C2919965   6.292   0.055   5.167  0.3133 -0.6453  0.5351
  176SLPC   H9R19966   6.245   0.002   5.251 -1.1501  0.6596  0.5844
  176SLPC  C21019967   6.319  -0.023   5.065 -0.7549  0.7553 -0.5196
  176SLPC  H10R19968   6.297  -0.131   5.063 -0.8825  0.6958 -4.4023
  176SLPC  C21119969   6.370   0.026   4.931  0.5833  0.1075  0.3099
  176SLPC  H11R19970   6.472   0.069   4.945  0.8746 -0.1287 -0.9519
  176SLPC  H11S19971   6.294   0.093   4.886  1.4650  1.1413  0.2996
  176SLPC  C21219972   6.394  -0.089   4.831  0.5993 -0.0885 -0.5446
  176SLPC  H12R19973   6.498  -0.125   4.833  0.8512  0.6361 -0.0078
  176SLPC  C21319974   6.298  -0.154   4.763 -0.3095  0.2326 -0.2590
  176SLPC  H13R19975   6.329  -0.238   4.700  1.9248 -2.2941  3.7321
  176SLPC  C21419976   6.148  -0.127   4.767 -0.4415  0.5080 -0.0575
  176SLPC  H14R19977   6.119  -0.027   4.804 -0.8431  1.0689 -1.7625
  176SLPC  H14S19978   6.101  -0.202   4.834  1.2016  1.9265  2.8545
  176SLPC  C21519979   6.079  -0.125   4.627 -0.1883  0.4222 -0.3067
  176SLPC  H15R19980   5.974  -0.119   4.662  0.6023 -0.9736  2.6467
  176SLPC  H15S19981   6.086  -0.229   4.590  0.8081  0.7081 -0.9508
  176SLPC  C21619982   6.135  -0.021   4.529 -0.3414  0.4278  0.7719
  176SLPC  H16R19983   6.225  -0.057   4.475  0.0851  1.8710  0.4583
  176SLPC  H16S19984   6.177   0.060   4.593 -0.1945 -0.4383  1.7937
  176SLPC  C21719985   6.030   0.044   4.439  0.1888 -0.5866  0.4495
  176SLPC  H17R19986   6.064   0.135   4.385 -1.5003 -0.0132  0.2784
  176SLPC  H17S19987   5.950   0.077   4.508  0.8416  1.7799  0.1636
  176SLPC  C21819988   5.965  -0.044   4.328 -0.3334 -0.7494 -0.5402
  176SLPC  H18R19989   5.925  -0.143   4.361  1.1568 -1.1412  0.1967
  176SLPC  H18S19990   6.047  -0.083   4.265 -0.7543 -2.3397 -0.1526
  176SLPC  H18T19991   5.892   0.016   4.270 -0.9077  1.4238  2.2065
  176SLPC   C3319992   6.019   0.579   5.571 -0.1465 -0.2875  0.2504
  176SLPC   H3X19993   6.124   0.541   5.578 -0.3393 -0.7215  0.9231
  176SLPC   H3Y19994   6.026   0.690   5.582 -3.0849  0.1804 -1.7058
  176SLPC   C3419995   5.958   0.559   5.435  0.2561 -0.6279 -0.4051
  176SLPC   H4X19996   5.851   0.584   5.447  0.3299 -0.3443 -0.3310
  176SLPC   H4Y19997   5.972   0.449   5.425  2.4917 -0.8023  2.8295
  176SLPC   C3519998   6.024   0.642   5.332 -0.0412 -0.1617 -1.2531
  176SLPC   H5X19999   6.129   0.608   5.325  0.0284 -0.6435  1.2391
  176SLPC   H5Y20000   6.029   0.749   5.362 -2.4673 -0.1575 -0.6899
  176SLPC   C3620001   5.950   0.644   5.203  0.0605  0.3464 -0.0535
  176SLPC   H6X20002   5.934   0.742   5.153 -3.8486  0.8425  1.8094
  176SLPC   H6Y20003   5.845   0.625   5.234  0.1088  2.1288  1.3771
  176SLPC   C3720004   6.014   0.532   5.108 -0.8480  0.4293 -0.3805
  176SLPC   H7X20005   6.013   0.443   5.175 -0.2592 -0.5284 -1.6034
  176SLPC   H7Y20006   6.119   0.565   5.091 -0.7708  1.0168  1.0786
  176SLPC   C3820007   5.934   0.507   4.979  0.3849  0.5167 -0.5940
  176SLPC   H8X20008   5.824   0.523   4.992  0.0457 -0.9050 -1.4840
  176SLPC   H8Y20009   5.960   0.405   4.946  1.2959  0.9128 -1.1249
  176SLPC   C3920010   5.983   0.595   4.859  0.9498 -0.2024 -0.6560
  176SLPC   H9X20011   5.947   0.549   4.764  3.2522  0.6492 -2.0171
  176SLPC   H9Y20012   6.094   0.588   4.867  0.9957  0.2865 -0.7955
  176SLPC  C31020013   5.946   0.742   4.872 -0.6449  0.0164  0.1490
  176SLPC  H10X20014   6.025   0.791   4.933  1.1386 -0.1691 -1.8937
  176SLPC  H10Y20015   5.847   0.765   4.918 -0.8209  2.6535 -1.3333
  176SLPC  C31120016   5.955   0.814   4.734  0.6948 -0.1122 -0.0785
  176SLPC  H11X20017   6.049   0.787   4.680  0.5981 -1.2644  0.2997
  176SLPC  H11Y20018   5.962   0.923   4.754 -0.8463  0.2371 -1.2844
  176SLPC  C31220019   5.842   0.799   4.635  0.0823 -1.1411 -0.3839
  176SLPC  H12X20020   5.752   0.823   4.696 -0.1738 -3.9491  0.5381
  176SLPC  H12Y20021   5.830   0.695   4.598 -1.4598 -1.5389  1.0957
  176SLPC  C31320022   5.861   0.876   4.502 -0.3727  0.5150 -0.3989
  176SLPC  H13X20023   5.900   0.977   4.530 -1.2290  1.0881 -1.2046
  176SLPC  H13Y20024   5.764   0.872   4.448  0.3468  0.2517 -1.6835
  176SLPC  C31420025   5.973   0.817   4.411 -0.1331 -0.1537  0.0497
  176SLPC  H14X20026   5.957   0.708   4.400  1.4756 -0.6779  2.2153
  176SLPC  H14Y20027   6.077   0.838   4.442  0.5601  0.8035 -2.7155
  176SLPC  C31520028   5.968   0.878   4.264 -0.0918  0.2106 -0.5933
  176SLPC  H15X20029   6.023   0.975   4.261  0.9993 -0.4022 -0.6067
  176SLPC  H15Y20030   5.858   0.887   4.249 -0.6515  0.4924  2.7717
  176SLPC  C31620031   6.028   0.780   4.158 -0.1105  0.3271  0.1701
  176SLPC  H16X20032   5.965   0.691   4.134 -0.5602  1.2388 -2.2429
  176SLPC  H16Y20033   6.132   0.753   4.186  0.6473 -0.5133 -3.0346
  176SLPC  C31720034   6.033   0.844   4.013  0.8178  0.1143 -0.8149
  176SLPC  H17X20035   5.925   0.844   3.985  0.4001 -0.6065  0.7387
  176SLPC  H17Y20036   6.099   0.777   3.953  2.2068 -0.2887  1.0975
  176SLPC  C31820037   6.087   0.984   3.985 -0.3731  0.2966 -0.1935
  176SLPC  H18X20038   6.160   1.023   4.059  0.8850 -1.6204 -0.3288
  176SLPC  H18Y20039   6.011   1.057   3.951 -0.6323  0.3469  0.4781
  176SLPC  H18Z20040   6.152   0.977   3.895 -0.1255 -2.8412  0.1080
  177SLPC     N20041   0.244   1.549   6.259 -0.1289  0.5698  0.1325
  177SLPC   C1320042   0.265   1.638   6.375  0.4843  0.7540 -0.0029
  177SLPC  H13A20043   0.174   1.650   6.431  0.1758 -2.5375  0.4022
  177SLPC  H13B20044   0.329   1.583   6.443 -0.2702  0.4418  0.4688
  177SLPC  H13C20045   0.324   1.724   6.345  2.9479 -0.9586 -0.3991
  177SLPC   C1420046   0.174   1.418   6.294  0.4761 -0.4070 -0.1733
  177SLPC  H14A20047   0.077   1.440   6.335  1.5640  1.3011  1.6384
  177SLPC  H14B20048   0.151   1.344   6.219 -1.7408  0.3996 -0.3779
  177SLPC  H14C20049   0.224   1.367   6.375 -0.0610  0.2066  0.5652
  177SLPC   C1520050   0.386   1.508   6.206 -0.0908 -0.6335 -0.0242
  177SLPC  H15A20051   0.442   1.599   6.192 -0.2248 -0.6477 -0.6776
  177SLPC  H15B20052   0.433   1.442   6.277 -0.2064 -1.3739 -0.6236
  177SLPC  H15C20053   0.376   1.449   6.116  0.9200 -1.9886  0.7203
  177SLPC   C1220054   0.169   1.615   6.139  0.9686  0.9758 -0.5319
  177SLPC  H12A20055   0.098   1.681   6.186  0.8472 -0.4976  1.4653
  177SLPC  H12B20056   0.105   1.540   6.095  0.0004  1.6797 -0.3494
  177SLPC   C1120057   0.256   1.695   6.037 -0.3237  0.0207  0.2024
  177SLPC  H11A20058   0.195   1.731   5.951 -0.5482 -0.7652  0.0298
  177SLPC  H11B20059   0.328   1.622   5.994 -0.1305  0.3808 -0.0876
  177SLPC     P20060   0.261   1.929   6.158  0.1769  0.1112 -0.0729
  177SLPC   O1320061   0.118   1.905   6.199 -0.2786 -1.0579  0.2062
  177SLPC   O1420062   0.347   1.989   6.267  0.3052  0.5058  0.6729
  177SLPC   O1220063   0.327   1.799   6.109  0.4744  0.0626  0.0280
  177SLPC   O1120064   0.266   2.038   6.042  0.1458 -0.2813 -0.3289
  177SLPC    C120065   0.174   2.152   6.029  0.6304 -0.4368 -0.8468
  177SLPC    HA20066   0.127   2.177   6.127 -1.4681 -1.3889 -1.5573
  177SLPC    HB20067   0.230   2.243   6.000  4.1573 -1.6827  1.3847
  177SLPC    C220068   0.062   2.147   5.926 -0.2992  0.2522  0.0052
  177SLPC    HS20069  -0.018   2.076   5.957  0.0590  0.2678  1.0141
  177SLPC   O2120070   0.111   2.127   5.790 -0.2320 -0.2226  0.3595
  177SLPC   C2120071   0.109   1.997   5.753  0.3501 -0.0636 -0.2308
  177SLPC   O2220072   0.067   1.908   5.831 -0.1388 -1.2678  0.3193
  177SLPC   C2220073   0.165   1.979   5.618  0.7153  0.0820  0.2560
  177SLPC   H2R20074   0.214   2.075   5.587 -0.3589  0.5145 -0.1583
  177SLPC   H2S20075   0.247   1.905   5.632  1.9233  1.7736  2.7663
  177SLPC    C320076  -0.011   2.284   5.909  0.0901 -0.1427  0.2565
  177SLPC    HX20077   0.073   2.356   5.899 -0.1802 -0.0450 -2.0030
  177SLPC    HY20078  -0.073   2.316   5.995 -1.2963  1.2562 -1.2032
  177SLPC   O3120079  -0.094   2.280   5.789 -0.8095  0.8663 -0.2938
  177SLPC   C3120080  -0.207   2.342   5.797  0.8343  0.0022 -0.3843
  177SLPC   O3220081  -0.260   2.394   5.895 -0.2475  0.3900  0.4993
  177SLPC   C3220082  -0.275   2.325   5.662  1.0945  0.0378  0.7115
  177SLPC   H2X20083  -0.357   2.399   5.651 -0.0839 -1.4537 -1.2675
  177SLPC   H2Y20084  -0.333   2.231   5.669 -1.3969  1.3282 -1.1440
  177SLPC   C2320085   0.058   1.917   5.523 -0.2746 -0.5331 -0.7458
  177SLPC   H3R20086  -0.034   1.976   5.541  0.3456  0.3561 -0.4435
  177SLPC   H3S20087   0.028   1.814   5.552  0.1237 -0.3671  0.2948
  177SLPC   C2420088   0.089   1.936   5.373 -0.0214  0.1438 -0.2863
  177SLPC   H4R20089   0.181   1.881   5.344 -1.4090 -2.1548 -0.5950
  177SLPC   H4S20090   0.117   2.042   5.357  2.9143 -0.4683  0.1668
  177SLPC   C2520091  -0.020   1.894   5.271 -0.3236  0.0507  0.2271
  177SLPC   H5R20092  -0.113   1.954   5.270  1.1120  2.3957 -0.9981
  177SLPC   H5S20093  -0.041   1.790   5.305  0.7598 -0.6924 -1.2753
  177SLPC   C2620094   0.030   1.895   5.124  0.3513 -0.4305  0.6634
  177SLPC   H6R20095   0.138   1.871   5.118  0.5587  0.6861 -0.6979
  177SLPC   H6S20096   0.032   1.999   5.084  0.6417 -0.8870 -0.5703
  177SLPC   C2720097  -0.058   1.806   5.032 -0.5253  0.1058 -0.0395
  177SLPC   H7R20098  -0.160   1.814   5.076 -0.8967  0.4200 -0.9371
  177SLPC   H7S20099  -0.027   1.700   5.047 -1.5370 -0.4851 -1.8805
  177SLPC   C2820100  -0.070   1.855   4.884 -0.0475 -0.1149 -0.4413
  177SLPC   H8R20101  -0.063   1.965   4.882  1.2505 -0.1115  1.5154
  177SLPC   H8S20102  -0.171   1.824   4.849 -0.9652  1.0021  1.1253
  177SLPC   C2920103   0.034   1.804   4.794 -0.0155  0.0290 -0.0850
  177SLPC   H9R20104   0.120   1.872   4.791 -0.0030  0.2250  2.3524
  177SLPC  C21020105   0.021   1.694   4.715 -0.3944  0.1179 -0.0070
  177SLPC  H10R20106   0.101   1.682   4.641  1.5569 -0.0199  2.0180
  177SLPC  C21120107  -0.095   1.596   4.694 -0.2954  0.0760  0.2280
  177SLPC  H11R20108  -0.154   1.596   4.788  1.5054 -3.6845  1.5930
  177SLPC  H11S20109  -0.046   1.497   4.677  0.1405  0.4576 -0.7818
  177SLPC  C21220110  -0.194   1.631   4.581  0.4563 -0.3953 -0.4075
  177SLPC  H12R20111  -0.209   1.740   4.586  2.6826 -0.0681  0.5915
  177SLPC  C21320112  -0.259   1.550   4.494  0.2370 -0.2777  0.5825
  177SLPC  H13R20113  -0.322   1.597   4.417  1.8074 -1.0074 -1.2416
  177SLPC  C21420114  -0.239   1.396   4.476 -0.0419 -0.3683 -0.5331
  177SLPC  H14R20115  -0.339   1.359   4.446 -0.3467  1.0172 -1.3450
  177SLPC  H14S20116  -0.210   1.344   4.569  1.4762 -0.3115 -0.9530
  177SLPC  C21520117  -0.138   1.358   4.373 -0.5205  0.0991  0.0846
  177SLPC  H15R20118  -0.117   1.250   4.365 -0.1182  0.1033  0.9201
  177SLPC  H15S20119  -0.035   1.398   4.385 -0.9327  0.5673  3.0121
  177SLPC  C21620120  -0.186   1.383   4.229  0.6758 -0.3195  0.0469
  177SLPC  H16R20121  -0.142   1.481   4.200 -1.0420  0.3743 -0.3729
  177SLPC  H16S20122  -0.296   1.398   4.223  0.2873 -2.1375  1.6901
  177SLPC  C21720123  -0.129   1.297   4.123  0.5833  0.1570  0.6400
  177SLPC  H17R20124  -0.018   1.308   4.123  0.9786 -2.6501  2.5297
  177SLPC  H17S20125  -0.173   1.343   4.032  1.7132 -0.1875 -0.1077
  177SLPC  C21820126  -0.179   1.153   4.121 -0.0613 -0.1444  0.8827
  177SLPC  H18R20127  -0.115   1.081   4.066 -0.1893  0.2437  0.2172
  177SLPC  H18S20128  -0.282   1.160   4.081 -0.8842 -0.0391  2.8707
  177SLPC  H18T20129  -0.194   1.116   4.225 -1.1956  1.0203  1.1616
  177SLPC   C3320130  -0.185   2.309   5.536 -0.2647  0.8916 -0.7595
  177SLPC   H3X20131  -0.096   2.244   5.545  0.3203  1.6307 -1.1490
  177SLPC   H3Y20132  -0.135   2.408   5.534  1.5498 -0.0018 -1.7028
  177SLPC   C3420133  -0.257   2.298   5.404  0.1821 -0.0292 -0.2298
  177SLPC   H4X20134  -0.347   2.361   5.413 -0.9613 -1.6747  0.4246
  177SLPC   H4Y20135  -0.281   2.191   5.387  1.0580  0.0135 -1.9619
  177SLPC   C3520136  -0.171   2.330   5.279 -0.8369  0.1234 -0.1037
  177SLPC   H5X20137  -0.093   2.251   5.272 -0.6166 -0.0144  2.6525
  177SLPC   H5Y20138  -0.131   2.431   5.299 -1.1028  0.4636 -1.2410
  177SLPC   C3620139  -0.252   2.304   5.147 -0.4109 -0.7698  0.3210
  177SLPC   H6X20140  -0.192   2.338   5.060 -1.0564 -0.0551  0.1413
  177SLPC   H6Y20141  -0.347   2.362   5.149 -0.6330 -1.1482  1.4005
  177SLPC   C3720142  -0.287   2.162   5.122 -0.6126  0.1773  0.6935
  177SLPC   H7X20143  -0.374   2.149   5.190  1.2200  1.1710  3.4197
  177SLPC   H7Y20144  -0.203   2.102   5.163  0.2212  1.4801  0.9588
  177SLPC   C3820145  -0.307   2.114   4.978 -0.7567 -0.0882  0.6904
  177SLPC   H8X20146  -0.318   2.004   4.982 -0.0419 -0.2719 -1.2788
  177SLPC   H8Y20147  -0.207   2.131   4.934 -1.6859  3.0246 -0.4947
  177SLPC   C3920148  -0.416   2.179   4.900  1.1029 -0.3427  0.0703
  177SLPC   H9X20149  -0.403   2.289   4.899  1.9869 -0.4411  0.2195
  177SLPC   H9Y20150  -0.516   2.176   4.950  0.7749  2.4199 -0.2977
  177SLPC  C31020151  -0.431   2.120   4.759  0.0336  0.7854 -0.4547
  177SLPC  H10X20152  -0.516   2.180   4.719  0.5453  2.0183  0.2594
  177SLPC  H10Y20153  -0.459   2.015   4.781 -0.7145  0.9309 -0.6884
  177SLPC  C31120154  -0.318   2.124   4.655  0.2535  0.9734 -0.3096
  177SLPC  H11X20155  -0.226   2.079   4.698 -0.2231 -1.2855 -1.5169
  177SLPC  H11Y20156  -0.298   2.231   4.632 -1.9324  1.4372 -0.2728
  177SLPC  C31220157  -0.345   2.050   4.527 -0.3336  0.0117  0.4461
  177SLPC  H12X20158  -0.395   2.118   4.454  1.8423  1.0873 -0.1284
  177SLPC  H12Y20159  -0.407   1.962   4.554  0.3363 -0.0569  1.8381
  177SLPC  C31320160  -0.210   1.998   4.461  0.6154  0.0651  0.2363
  177SLPC  H13X20161  -0.238   1.930   4.378  0.9333 -0.8072  0.8313
  177SLPC  H13Y20162  -0.159   1.934   4.536  0.5411  0.0563  0.2787
  177SLPC  C31420163  -0.115   2.109   4.418 -0.2019 -0.0112 -0.1699
  177SLPC  H14X20164  -0.093   2.178   4.502  4.3438 -1.3853  0.0488
  177SLPC  H14Y20165  -0.185   2.162   4.351 -1.2580  0.2675  1.1001
  177SLPC  C31520166   0.017   2.073   4.348  0.4269  0.3580 -0.4688
  177SLPC  H15X20167  -0.013   1.979   4.298 -0.5505  1.0766 -1.2638
  177SLPC  H15Y20168   0.097   2.055   4.423  1.0996  1.1868 -0.9707
  177SLPC  C31620169   0.050   2.181   4.244 -0.0296  0.5142 -0.4644
  177SLPC  H16X20170   0.087   2.266   4.305  1.5344 -1.2007  1.0695
  177SLPC  H16Y20171  -0.046   2.212   4.197 -1.0934  0.2678  1.4392
  177SLPC  C31720172   0.152   2.144   4.138  0.0891 -0.1285 -0.3354
  177SLPC  H17X20173   0.180   2.233   4.077 -0.7766 -0.2154 -0.8768
  177SLPC  H17Y20174   0.105   2.070   4.070 -0.5220  0.2904 -0.3842
  177SLPC  C31820175   0.287   2.076   4.175  0.3229 -0.6737  0.7640
  177SLPC  H18X20176   0.342   2.053   4.081 -2.1610 -1.3913 -0.5965
  177SLPC  H18Y20177   0.255   1.976   4.212  1.5894 -1.2713  0.2929
  177SLPC  H18Z20178   0.344   2.131   4.253  2.3893  0.9226 -1.6869
  178SLPC     N20179   3.661   4.760   6.660 -0.2039 -0.2403 -0.2878
  178SLPC   C1320180   3.784   4.680   6.692 -0.0434  0.7183  0.1229
  178SLPC  H13A20181   3.797   4.682   6.799 -1.4964 -1.6292  0.4042
  178SLPC  H13B20182   3.780   4.579   6.653 -1.3489 -0.0112  2.0246
  178SLPC  H13C20183   3.871   4.721   6.641 -0.5082  0.9197 -0.5239
  178SLPC   C1420184   3.691   4.896   6.716 -0.6815 -0.2728  0.3873
  178SLPC  H14A20185   3.609   4.964   6.703  1.5642  2.1146 -3.0877
  178SLPC  H14B20186   3.724   4.884   6.818  0.8353 -3.0911 -0.3149
  178SLPC  H14C20187   3.770   4.938   6.655 -0.5928 -1.6065 -0.4737
  178SLPC   C1520188   3.539   4.704   6.733 -0.1156 -0.1328  0.0643
  178SLPC  H15A20189   3.496   4.627   6.672 -1.2222  0.7794 -0.3530
  178SLPC  H15B20190   3.555   4.670   6.834 -1.6089  1.4414  0.8974
  178SLPC  H15C20191   3.462   4.780   6.730 -0.8355 -0.8051  1.0594
  178SLPC   C1220192   3.635   4.767   6.516  0.3139 -0.0847  0.1065
  178SLPC  H12A20193   3.549   4.832   6.508 -1.2952 -2.2124 -0.6075
  178SLPC  H12B20194   3.604   4.666   6.494 -0.0439  0.1164 -0.3274
  178SLPC   C1120195   3.746   4.807   6.414 -0.4156 -0.5224  0.6614
  178SLPC  H11A20196   3.779   4.910   6.437 -0.5928  0.0197 -1.3486
  178SLPC  H11B20197   3.705   4.790   6.312  0.4633  0.9368  0.0418
  178SLPC     P20198   3.865   4.583   6.344  0.0062 -0.0312 -0.1512
  178SLPC   O1320199   4.003   4.534   6.356  0.1124  0.6253  0.5535
  178SLPC   O1420200   3.755   4.492   6.399  0.1383  0.2407  0.3970
  178SLPC   O1220201   3.858   4.722   6.427  0.1379  0.0099  0.4678
  178SLPC   O1120202   3.839   4.623   6.191 -0.0151 -0.0172  0.3253
  178SLPC    C120203   3.935   4.706   6.124  0.3241 -0.1468 -0.0862
  178SLPC    HA20204   3.934   4.808   6.168  0.9857 -0.4357  0.6343
  178SLPC    HB20205   4.038   4.666   6.137  0.9301  0.6140 -2.1136
  178SLPC    C220206   3.911   4.738   5.973  0.5414 -0.4933  0.1109
  178SLPC    HS20207   3.814   4.792   5.965  1.8810  1.8260 -5.4287
  178SLPC   O2120208   3.910   4.615   5.892 -0.3662  0.5772 -0.2735
  178SLPC   C2120209   3.832   4.614   5.785  0.1870  0.3795  0.4688
  178SLPC   O2220210   3.775   4.703   5.734  0.2646 -0.5664 -0.2835
  178SLPC   C2220211   3.847   4.476   5.720  0.5727 -0.3423  0.1398
  178SLPC   H2R20212   3.948   4.436   5.742 -0.0974 -2.0715  0.2165
  178SLPC   H2S20213   3.774   4.410   5.770  1.1631 -2.6457 -1.8548
  178SLPC    C320214   4.016   4.841   5.921  0.4113 -0.2612 -0.3068
  178SLPC    HX20215   4.118   4.804   5.945 -0.1694 -1.6095  0.1726
  178SLPC    HY20216   3.995   4.930   5.984 -1.4842 -1.7194  1.2383
  178SLPC   O3120217   4.005   4.873   5.779 -0.0647  0.3014 -0.3743
  178SLPC   C3120218   3.909   4.962   5.755 -0.5077 -0.0497  0.7537
  178SLPC   O3220219   3.853   5.035   5.833 -0.7458  0.2133  0.0192
  178SLPC   C3220220   3.894   4.959   5.606  0.5567 -0.3217 -0.6348
  178SLPC   H2X20221   3.879   4.854   5.572  0.3919 -0.6950  0.5404
  178SLPC   H2Y20222   3.986   4.998   5.557  1.8368 -0.0041  1.8699
  178SLPC   C2320223   3.804   4.463   5.576  0.5314  0.4171  0.2591
  178SLPC   H3R20224   3.700   4.494   5.554 -0.2307 -1.5822  0.9012
  178SLPC   H3S20225   3.823   4.358   5.545  0.0135  0.6793 -1.0269
  178SLPC   C2420226   3.902   4.528   5.476 -0.1473  0.4603  0.5321
  178SLPC   H4R20227   3.996   4.469   5.478 -1.0409 -1.0456  0.0268
  178SLPC   H4S20228   3.913   4.634   5.506  1.4151  0.3574  0.3893
  178SLPC   C2520229   3.854   4.537   5.327  0.7141 -0.3372  0.3156
  178SLPC   H5R20230   3.949   4.570   5.280  1.6918 -3.2357  0.0518
  178SLPC   H5S20231   3.775   4.614   5.320  0.4669 -0.6637 -0.8039
  178SLPC   C2620232   3.803   4.408   5.250  0.3661 -0.3974 -0.5251
  178SLPC   H6R20233   3.708   4.379   5.299 -0.2201 -0.7825 -1.8313
  178SLPC   H6S20234   3.879   4.327   5.251  0.1656 -0.6580 -2.1649
  178SLPC   C2720235   3.760   4.450   5.111  0.0050  0.0915  0.5915
  178SLPC   H7R20236   3.850   4.473   5.050 -0.7315  1.3459 -0.0730
  178SLPC   H7S20237   3.700   4.543   5.125 -0.7606 -0.0733 -1.2664
  178SLPC   C2820238   3.683   4.348   5.028 -0.6770 -0.4971  0.4948
  178SLPC   H8R20239   3.586   4.329   5.079 -1.2679 -2.0630 -1.0879
  178SLPC   H8S20240   3.731   4.248   5.023 -2.2637 -1.2682 -0.1075
  178SLPC   C2920241   3.661   4.399   4.887  0.3237 -0.0035 -1.1723
  178SLPC   H9R20242   3.745   4.455   4.843  0.5232 -0.2679 -1.1344
  178SLPC  C21020243   3.540   4.400   4.826 -0.1607  0.2585  0.1531
  178SLPC  H10R20244   3.523   4.446   4.728 -2.5340 -0.8064 -0.0017
  178SLPC  C21120245   3.413   4.343   4.877  0.2188  0.5640 -0.7807
  178SLPC  H11R20246   3.411   4.303   4.981 -1.2156 -1.3206 -1.4570
  178SLPC  H11S20247   3.378   4.262   4.809 -0.4856  0.3547 -0.1902
  178SLPC  C21220248   3.298   4.442   4.878  0.3677 -0.7939  0.6224
  178SLPC  H12R20249   3.260   4.476   4.780  1.3714  1.5238  0.9636
  178SLPC  C21320250   3.247   4.501   4.980  0.1303 -0.1393  0.1546
  178SLPC  H13R20251   3.176   4.581   4.955 -1.9818 -1.9004  0.1757
  178SLPC  C21420252   3.309   4.490   5.120 -0.3519 -0.8929  0.3383
  178SLPC  H14R20253   3.417   4.465   5.126 -0.1356  0.0135  0.2417
  178SLPC  H14S20254   3.245   4.415   5.172 -0.3002  0.1056  1.9044
  178SLPC  C21520255   3.282   4.625   5.195 -0.2663  0.2862  0.1624
  178SLPC  H15R20256   3.174   4.649   5.200 -0.6158 -0.9060 -0.9273
  178SLPC  H15S20257   3.339   4.700   5.137  0.0552 -2.0343 -2.8032
  178SLPC  C21620258   3.323   4.621   5.340  0.0732  0.3593 -0.6688
  178SLPC  H16R20259   3.286   4.531   5.393  3.1107  0.3178  1.7064
  178SLPC  H16S20260   3.271   4.708   5.387 -1.7675  0.0729 -2.0584
  178SLPC  C21720261   3.479   4.634   5.366  0.3917  0.1339  0.1394
  178SLPC  H17R20262   3.514   4.709   5.292 -0.5356  2.2307  1.7250
  178SLPC  H17S20263   3.533   4.539   5.349 -0.5972 -0.0877 -2.0873
  178SLPC  C21820264   3.521   4.696   5.503 -0.6442  0.1190  0.3908
  178SLPC  H18R20265   3.497   4.628   5.588  0.2609 -1.6849 -0.7489
  178SLPC  H18S20266   3.483   4.801   5.507 -1.2534 -0.0855  0.1175
  178SLPC  H18T20267   3.630   4.709   5.515 -0.6259  0.2473  0.0883
  178SLPC   C3320268   3.774   5.059   5.571 -0.1479 -0.1207  0.4396
  178SLPC   H3X20269   3.781   5.155   5.625  1.5342 -0.0082  0.0775
  178SLPC   H3Y20270   3.681   5.005   5.600 -0.6043  0.9049  0.9376
  178SLPC   C3420271   3.761   5.099   5.421 -0.2757  0.1303  0.1308
  178SLPC   H4X20272   3.859   5.146   5.399 -0.0885 -0.9925 -1.6957
  178SLPC   H4Y20273   3.679   5.174   5.422 -0.5888 -0.1986  1.5265
  178SLPC   C3520274   3.729   4.976   5.330  0.8171  0.5198  0.0962
  178SLPC   H5X20275   3.656   4.901   5.366 -2.8422  1.6683 -4.0315
  178SLPC   H5Y20276   3.825   4.919   5.324  0.1675 -1.1318  3.1389
  178SLPC   C3620277   3.695   5.010   5.188 -0.4835  0.5830 -0.3135
  178SLPC   H6X20278   3.779   5.061   5.135 -0.5318  1.4134  0.3856
  178SLPC   H6Y20279   3.609   5.080   5.196  0.0881  1.2691 -0.0260
  178SLPC   C3720280   3.639   4.893   5.106  0.5459  0.3941 -0.1411
  178SLPC   H7X20281   3.535   4.875   5.140  0.4453  0.1309 -0.5702
  178SLPC   H7Y20282   3.698   4.802   5.130 -0.3980 -0.3440 -0.5606
  178SLPC   C3820283   3.634   4.923   4.956  0.0305  0.7306  0.6441
  178SLPC   H8X20284   3.737   4.925   4.915 -0.0531  2.8631  0.4058
  178SLPC   H8Y20285   3.598   5.025   4.932  0.4340  1.5704  3.3079
  178SLPC   C3920286   3.563   4.816   4.875  0.6997 -0.6958 -0.0182
  178SLPC   H9X20287   3.461   4.801   4.915  1.4032 -1.3964  1.6133
  178SLPC   H9Y20288   3.617   4.720   4.893  3.3023  0.5764 -0.5395
  178SLPC  C31020289   3.538   4.864   4.727 -0.4764  0.5750  0.6891
  178SLPC  H10X20290   3.628   4.854   4.663 -0.6612  0.6828  0.4099
  178SLPC  H10Y20291   3.514   4.972   4.717 -0.8298  0.3393 -1.4442
  178SLPC  C31120292   3.428   4.781   4.658  0.0649  0.7828 -0.2654
  178SLPC  H11X20293   3.333   4.807   4.708 -1.3073 -1.9228 -1.2546
  178SLPC  H11Y20294   3.450   4.673   4.673  1.5467  0.6239 -2.8894
  178SLPC  C31220295   3.431   4.811   4.509 -0.0054  0.0803 -0.1057
  178SLPC  H12X20296   3.528   4.768   4.477  0.4528 -0.5029  1.9068
  178SLPC  H12Y20297   3.443   4.920   4.493  1.1954  0.3730  2.3249
  178SLPC  C31320298   3.305   4.757   4.445 -0.2556 -0.4439 -0.5709
  178SLPC  H13X20299   3.226   4.826   4.480 -0.2927  1.0438 -3.2739
  178SLPC  H13Y20300   3.274   4.658   4.486 -0.2055 -1.7391 -3.4035
  178SLPC  C31420301   3.312   4.745   4.297 -0.4667  0.5456  0.3089
  178SLPC  H14X20302   3.236   4.670   4.269  1.2802 -0.5745 -1.7867
  178SLPC  H14Y20303   3.411   4.697   4.280 -1.4169 -0.5959 -2.6922
  178SLPC  C31520304   3.290   4.876   4.217 -0.1258  0.2358 -0.0807
  178SLPC  H15X20305   3.342   4.957   4.272  0.9926 -0.4561 -0.0649
  178SLPC  H15Y20306   3.181   4.891   4.208 -0.1377 -0.1449 -0.6440
  178SLPC  C31620307   3.360   4.871   4.079 -0.0393  0.9867 -0.5752
  178SLPC  H16X20308   3.305   4.792   4.025  1.9339  0.5780 -2.0986
  178SLPC  H16Y20309   3.465   4.837   4.088 -0.0393  0.9467 -0.7259
  178SLPC  C31720310   3.346   5.005   4.003 -0.4930  0.9454  0.6678
  178SLPC  H17X20311   3.241   5.040   3.995 -0.5491  0.8710  1.0729
  178SLPC  H17Y20312   3.385   4.988   3.900 -0.0440 -2.0702  1.2529
  178SLPC  C31820313   3.423   5.120   4.066 -0.4147  0.3096 -0.1941
  178SLPC  H18X20314   3.387   5.137   4.170 -0.4944 -2.5198  0.3135
  178SLPC  H18Y20315   3.410   5.219   4.017 -0.0447  1.6464  2.2584
  178SLPC  H18Z20316   3.531   5.101   4.084 -0.8999 -1.0671  1.5724
  179SLPC     N20317   3.190   1.837   1.953  0.7453 -0.1598  0.0777
  179SLPC   C1320318   3.152   1.788   2.085  0.4926 -0.3501  0.2003
  179SLPC  H13A20319   3.061   1.731   2.087  0.2916 -0.0768  2.6518
  179SLPC  H13B20320   3.233   1.733   2.131 -0.3984 -3.1117 -1.3332
  179SLPC  H13C20321   3.125   1.877   2.140  0.0077  0.1118 -0.7735
  179SLPC   C1420322   3.270   1.965   1.966  0.5559  0.1432 -0.4086
  179SLPC  H14A20323   3.298   2.002   1.868 -2.7666  1.8699 -0.8765
  179SLPC  H14B20324   3.222   2.039   2.029  0.7336  0.1712 -0.3062
  179SLPC  H14C20325   3.357   1.938   2.023  2.1665  0.9703 -2.3461
  179SLPC   C1520326   3.062   1.863   1.875  0.0118 -0.0305 -0.1201
  179SLPC  H15A20327   3.086   1.876   1.770  0.7253 -1.5269 -0.1627
  179SLPC  H15B20328   2.996   1.778   1.881  1.0456 -0.8047  0.4977
  179SLPC  H15C20329   3.010   1.948   1.916 -1.0955 -0.1336 -1.2655
  179SLPC   C1220330   3.273   1.735   1.883 -0.0884  0.6522  0.1788
  179SLPC  H12A20331   3.360   1.709   1.941 -1.5998 -1.3918  1.7049
  179SLPC  H12B20332   3.297   1.772   1.785 -0.5118  1.9740  0.5573
  179SLPC   C1120333   3.215   1.592   1.864 -0.2665  0.6901  0.8068
  179SLPC  H11A20334   3.117   1.610   1.815 -0.1085  1.8172  0.8789
  179SLPC  H11B20335   3.191   1.555   1.966  0.5641 -0.1152  0.7189
  179SLPC     P20336   3.395   1.390   1.840  0.0977  0.0512  0.3048
  179SLPC   O1320337   3.308   1.281   1.897 -0.4909  0.0647  0.4561
  179SLPC   O1420338   3.495   1.356   1.738  0.4608 -0.2643  0.2202
  179SLPC   O1220339   3.298   1.501   1.780  0.8242  0.3376 -0.2922
  179SLPC   O1120340   3.475   1.457   1.958  0.0182  0.4500  0.2631
  179SLPC    C120341   3.556   1.369   2.039  0.4387  0.2653 -0.6576
  179SLPC    HA20342   3.592   1.275   1.992 -1.6111 -1.4697  1.0656
  179SLPC    HB20343   3.649   1.429   2.054 -1.2653  2.7834  0.4768
  179SLPC    C220344   3.495   1.343   2.172  0.0111 -0.7849 -0.4276
  179SLPC    HS20345   3.394   1.300   2.151 -0.4328  0.5973 -1.2935
  179SLPC   O2120346   3.501   1.469   2.254 -0.6037 -0.6365  0.0764
  179SLPC   C2120347   3.398   1.539   2.247 -0.5922  0.5718  0.8930
  179SLPC   O2220348   3.287   1.506   2.207  0.3052 -0.6852 -0.2711
  179SLPC   C2220349   3.425   1.667   2.324 -0.2116  0.2213  0.0645
  179SLPC   H2R20350   3.525   1.704   2.290 -0.2625  0.9479  0.6853
  179SLPC   H2S20351   3.355   1.744   2.285 -1.3276 -1.7677 -2.0901
  179SLPC    C320352   3.565   1.231   2.253  0.7098 -0.3154  0.2577
  179SLPC    HX20353   3.671   1.263   2.253  0.5986  0.5510 -3.3018
  179SLPC    HY20354   3.559   1.133   2.201  0.5378 -0.2032  0.0650
  179SLPC   O3120355   3.503   1.221   2.386  0.3821 -0.0201  0.8318
  179SLPC   C3120356   3.565   1.280   2.486 -0.2402 -0.3893  0.0861
  179SLPC   O3220357   3.669   1.345   2.484  0.2511 -0.1887 -0.8077
  179SLPC   C3220358   3.461   1.279   2.604  0.5375  0.6626 -0.5894
  179SLPC   H2X20359   3.431   1.173   2.610  2.4719 -0.1309 -3.1950
  179SLPC   H2Y20360   3.372   1.338   2.575  0.1770  1.5625  2.0226
  179SLPC   C2320361   3.400   1.656   2.478  0.1202 -0.5729  0.0413
  179SLPC   H3R20362   3.494   1.622   2.528  0.0723 -0.9925 -0.1475
  179SLPC   H3S20363   3.319   1.585   2.505 -0.7451  0.4138  0.0748
  179SLPC   C2420364   3.374   1.802   2.533  0.6276 -0.0645 -0.1797
  179SLPC   H4R20365   3.275   1.831   2.492  0.9277  2.2280  0.5978
  179SLPC   H4S20366   3.447   1.878   2.497  2.1785 -2.0009 -1.3763
  179SLPC   C2520367   3.363   1.819   2.682 -0.0863 -0.1253 -1.2546
  179SLPC   H5R20368   3.312   1.729   2.724 -0.9119  0.4362 -1.0404
  179SLPC   H5S20369   3.315   1.912   2.718  1.1852 -0.7897  2.6363
  179SLPC   C2620370   3.498   1.841   2.759  0.0213 -0.4917  0.1124
  179SLPC   H6R20371   3.553   1.929   2.719 -1.7069  0.6727  0.1982
  179SLPC   H6S20372   3.564   1.753   2.743 -0.6468 -0.7848 -1.1439
  179SLPC   C2720373   3.478   1.864   2.909 -0.0482  0.1372  0.4941
  179SLPC   H7R20374   3.413   1.954   2.919 -0.0329  0.2548 -0.3980
  179SLPC   H7S20375   3.576   1.891   2.954  0.3252 -1.1081  0.4536
  179SLPC   C2820376   3.419   1.753   2.991  0.0869 -0.5143  0.2580
  179SLPC   H8R20377   3.483   1.662   2.992  1.5818  0.4402 -1.4700
  179SLPC   H8S20378   3.323   1.733   2.938  0.6900 -0.1713 -1.0034
  179SLPC   C2920379   3.397   1.803   3.130 -0.4898 -0.6158  0.4114
  179SLPC   H9R20380   3.304   1.863   3.135 -0.4717 -0.6655  1.4303
  179SLPC  C21020381   3.468   1.780   3.239  0.6413  0.2259  0.0243
  179SLPC  H10R20382   3.435   1.821   3.335 -0.2984 -0.6658  0.0992
  179SLPC  C21120383   3.597   1.702   3.251 -0.4538 -0.6054 -0.4284
  179SLPC  H11R20384   3.629   1.681   3.146 -1.0148 -1.5642 -0.4193
  179SLPC  H11S20385   3.565   1.606   3.297 -1.0248 -0.2401 -0.0672
  179SLPC  C21220386   3.712   1.764   3.329  0.4167 -0.0343  0.0525
  179SLPC  H12R20387   3.738   1.866   3.300  0.8608  0.3949  1.8143
  179SLPC  C21320388   3.775   1.716   3.434  0.5215  0.0814  0.2496
  179SLPC  H13R20389   3.849   1.789   3.469 -1.1739  1.0971  1.9352
  179SLPC  C21420390   3.758   1.574   3.498 -0.3327 -0.8391 -0.3488
  179SLPC  H14R20391   3.855   1.520   3.497  0.6689  0.8874 -1.1647
  179SLPC  H14S20392   3.680   1.522   3.437 -0.7956  0.9005 -1.3357
  179SLPC  C21520393   3.720   1.588   3.644  0.0034  0.7806 -0.0230
  179SLPC  H15R20394   3.620   1.634   3.659  0.1083  0.1035  3.7952
  179SLPC  H15S20395   3.801   1.651   3.684  2.1324 -2.1455  0.6233
  179SLPC  C21620396   3.722   1.461   3.727 -0.4756  0.6929 -0.1320
  179SLPC  H16R20397   3.818   1.406   3.722 -1.3286 -0.8153 -0.5810
  179SLPC  H16S20398   3.638   1.402   3.685  1.1750 -2.0689  0.2229
  179SLPC  C21720399   3.695   1.490   3.874 -0.7258 -0.4107 -0.2859
  179SLPC  H17R20400   3.683   1.395   3.931  0.7771 -1.2635 -1.3184
  179SLPC  H17S20401   3.593   1.534   3.871 -0.7083 -0.3984 -0.7612
  179SLPC  C21820402   3.795   1.568   3.959 -1.3040 -0.0209 -0.0688
  179SLPC  H18R20403   3.796   1.679   3.954 -0.0974 -0.0080  0.1768
  179SLPC  H18S20404   3.899   1.543   3.931 -1.4987  1.4247 -2.2548
  179SLPC  H18T20405   3.791   1.543   4.068 -0.3479  1.0471  0.2321
  179SLPC   C3320406   3.524   1.327   2.729  0.3447 -0.0692 -0.4657
  179SLPC   H3X20407   3.555   1.434   2.725  3.1934 -0.7685  0.3577
  179SLPC   H3Y20408   3.624   1.280   2.743 -0.4014 -1.2692  1.1023
  179SLPC   C3420409   3.428   1.302   2.842  0.4008 -0.1108  0.3520
  179SLPC   H4X20410   3.395   1.196   2.833  1.5770 -0.3642 -1.2149
  179SLPC   H4Y20411   3.342   1.369   2.820 -0.7117 -1.6709 -0.2023
  179SLPC   C3520412   3.468   1.336   2.992 -0.0214 -0.2851  0.4512
  179SLPC   H5X20413   3.526   1.249   3.031  1.0285  1.5198  3.1830
  179SLPC   H5Y20414   3.534   1.425   2.995  0.0142 -0.3273  0.8897
  179SLPC   C3620415   3.347   1.370   3.075  0.7757  0.2565 -0.3757
  179SLPC   H6X20416   3.264   1.301   3.049 -0.0213 -0.2165  2.9888
  179SLPC   H6Y20417   3.307   1.465   3.033 -0.6502  0.8845  2.1752
  179SLPC   C3720418   3.368   1.387   3.228  0.2247 -0.7794 -0.3754
  179SLPC   H7X20419   3.274   1.399   3.286  1.8043  0.0547  2.2128
  179SLPC   H7Y20420   3.433   1.476   3.243  1.1066 -1.5844  0.8265
  179SLPC   C3820421   3.457   1.271   3.282  0.1405 -0.3863 -0.3416
  179SLPC   H8X20422   3.555   1.275   3.228  0.8333 -0.1948  0.8913
  179SLPC   H8Y20423   3.402   1.178   3.259 -0.6260  0.9431 -5.0316
  179SLPC   C3920424   3.487   1.289   3.434  0.1580 -0.1105 -0.0180
  179SLPC   H9X20425   3.527   1.390   3.455 -0.0860 -0.1983  0.8881
  179SLPC   H9Y20426   3.563   1.213   3.462 -1.7362 -1.8263  0.7543
  179SLPC  C31020427   3.368   1.262   3.521  0.6336 -0.0953 -0.7405
  179SLPC  H10X20428   3.346   1.153   3.513  4.6561 -1.1043 -0.0175
  179SLPC  H10Y20429   3.279   1.321   3.488 -0.5554 -2.5298 -2.1703
  179SLPC  C31120430   3.404   1.292   3.671 -0.0054  0.2729  0.2228
  179SLPC  H11X20431   3.430   1.400   3.672 -2.4834  1.0062 -1.9759
  179SLPC  H11Y20432   3.499   1.240   3.696  0.4863  1.2942  0.5111
  179SLPC  C31220433   3.287   1.269   3.757  0.4294  0.0238 -0.0918
  179SLPC  H12X20434   3.262   1.160   3.762  0.1832 -0.2269 -3.8871
  179SLPC  H12Y20435   3.201   1.326   3.717 -0.5350  0.2089  2.0984
  179SLPC  C31320436   3.312   1.301   3.904  0.6369  0.7892 -0.2500
  179SLPC  H13X20437   3.401   1.244   3.938  0.0597 -0.2484 -0.4488
  179SLPC  H13Y20438   3.231   1.258   3.966  3.4308 -2.2820  1.6272
  179SLPC  C31420439   3.322   1.451   3.947 -0.0494  0.1709  0.4715
  179SLPC  H14X20440   3.222   1.498   3.936  0.0362  0.5208  1.1244
  179SLPC  H14Y20441   3.385   1.495   3.867 -1.2445 -1.5682 -1.5242
  179SLPC  C31520442   3.394   1.468   4.074  0.2015 -0.4197 -0.1831
  179SLPC  H15X20443   3.492   1.418   4.058 -0.3332 -0.8123 -2.5894
  179SLPC  H15Y20444   3.337   1.412   4.151 -0.0936  1.2119  0.8164
  179SLPC  C31620445   3.397   1.616   4.112 -0.2977  0.4248  0.4036
  179SLPC  H16X20446   3.311   1.671   4.068 -1.7926 -1.8541  0.2848
  179SLPC  H16Y20447   3.490   1.655   4.068 -0.8780  1.4940  0.1043
  179SLPC  C31720448   3.410   1.637   4.264  0.5380  0.2489  0.0720
  179SLPC  H17X20449   3.514   1.612   4.294  1.3249  0.4297 -2.2909
  179SLPC  H17Y20450   3.356   1.559   4.321  2.8855 -2.2904 -0.9555
  179SLPC  C31820451   3.376   1.784   4.307  1.2891 -0.6830 -0.2730
  179SLPC  H18X20452   3.393   1.796   4.416 -1.8235  1.6216  0.0910
  179SLPC  H18Y20453   3.275   1.821   4.279  0.4900 -2.4382  0.1767
  179SLPC  H18Z20454   3.448   1.858   4.265 -0.9135  1.2823 -0.8495
  180SLPC     N20455   1.277   6.791   1.408  0.7589 -0.5062  0.2891
  180SLPC   C1320456   1.156   6.730   1.351 -0.2715 -0.2141  0.0522
  180SLPC  H13A20457   1.118   6.646   1.407 -0.7093 -1.5407 -2.1149
  180SLPC  H13B20458   1.075   6.801   1.341  0.0116  0.0217 -0.5791
  180SLPC  H13C20459   1.177   6.696   1.251 -0.2912  0.6158 -0.2436
  180SLPC   C1420460   1.387   6.694   1.409  0.1104 -0.2297 -0.0944
  180SLPC  H14A20461   1.357   6.614   1.475 -0.2130 -0.2009 -0.2063
  180SLPC  H14B20462   1.406   6.653   1.311  2.1234  0.2397  0.0490
  180SLPC  H14C20463   1.481   6.725   1.453 -0.1857  0.4962  0.0388
  180SLPC   C1520464   1.253   6.838   1.548 -0.1183 -0.2854  0.1506
  180SLPC  H15A20465   1.178   6.915   1.553  1.2772  1.1599 -0.4308
  180SLPC  H15B20466   1.239   6.761   1.623 -0.5395  1.8212  2.3584
  180SLPC  H15C20467   1.342   6.892   1.577 -1.8361  2.3384  0.8650
  180SLPC   C1220468   1.323   6.908   1.320  0.1271  0.8126 -0.3067
  180SLPC  H12A20469   1.341   6.868   1.221  2.3361  2.9149 -0.8365
  180SLPC  H12B20470   1.413   6.949   1.362  0.3312  0.7115 -0.6349
  180SLPC   C1120471   1.227   7.025   1.311  0.4018  0.2975  0.9561
  180SLPC  H11A20472   1.131   6.994   1.266  1.5520  1.9490 -3.0616
  180SLPC  H11B20473   1.268   7.094   1.234  1.1920 -1.7401 -0.5185
  180SLPC     P20474   1.085   7.178   1.468  0.7200 -0.0145  0.1461
  180SLPC   O1320475   1.003   7.212   1.349 -0.0587  0.6462 -0.0313
  180SLPC   O1420476   1.006   7.110   1.571 -0.6304  0.4787  0.0585
  180SLPC   O1220477   1.219   7.098   1.433 -0.1655 -0.2344  1.2658
  180SLPC   O1120478   1.117   7.317   1.534 -0.2926  0.5335 -0.2460
  180SLPC    C120479   1.248   7.338   1.589  0.8719 -0.2691  0.5755
  180SLPC    HA20480   1.327   7.286   1.531 -0.0499 -2.2974  1.0291
  180SLPC    HB20481   1.280   7.443   1.578  2.8851 -0.8608  0.3606
  180SLPC    C220482   1.250   7.309   1.742  0.4968 -0.3922 -0.8986
  180SLPC    HS20483   1.243   7.199   1.748  0.8211 -0.3641  0.2177
  180SLPC   O2120484   1.138   7.380   1.803  0.0794 -0.3486 -0.1385
  180SLPC   C2120485   1.073   7.310   1.904 -0.5019 -0.3917  0.4038
  180SLPC   O2220486   1.095   7.189   1.928 -0.3682 -0.9901  0.1685
  180SLPC   C2220487   0.979   7.394   1.987 -0.1991  0.3545 -0.2911
  180SLPC   H2R20488   1.029   7.492   2.002 -1.5150  0.9351  0.4681
  180SLPC   H2S20489   0.879   7.400   1.937 -0.4748  1.1724  0.3344
  180SLPC    C320490   1.374   7.360   1.807  0.5936  0.3374  0.3570
  180SLPC    HX20491   1.374   7.471   1.808  1.3297  0.3648 -0.7367
  180SLPC    HY20492   1.465   7.317   1.759  1.1071 -0.5790  2.0591
  180SLPC   O3120493   1.378   7.308   1.943  0.4297  0.3187  0.2071
  180SLPC   C3120494   1.383   7.388   2.043 -0.0165 -0.1205  0.6625
  180SLPC   O3220495   1.405   7.507   2.032  0.2097 -0.3801 -0.3344
  180SLPC   C3220496   1.382   7.305   2.174 -0.4917 -0.3929 -0.0994
  180SLPC   H2X20497   1.461   7.228   2.160 -1.7195 -1.6580 -0.2737
  180SLPC   H2Y20498   1.285   7.250   2.177  0.8575 -2.9015  0.3199
  180SLPC   C2320499   0.961   7.342   2.133 -0.4435 -0.0039  0.0777
  180SLPC   H3R20500   1.049   7.320   2.197 -1.0193 -0.2487  0.7858
  180SLPC   H3S20501   0.909   7.246   2.114  2.1988 -1.5908  0.3147
  180SLPC   C2420502   0.871   7.432   2.224 -0.6378  0.2692  0.4776
  180SLPC   H4R20503   0.830   7.383   2.315 -1.6790 -0.2949 -0.2712
  180SLPC   H4S20504   0.782   7.433   2.157 -1.4623 -1.7293  1.4743
  180SLPC   C2520505   0.910   7.572   2.258  0.6172 -0.0276 -0.1861
  180SLPC   H5R20506   0.817   7.629   2.278  1.4605  0.9028  1.2732
  180SLPC   H5S20507   0.965   7.628   2.180  0.1911 -2.7033 -2.5676
  180SLPC   C2620508   0.994   7.564   2.391  0.9443  0.5657 -0.3556
  180SLPC   H6R20509   1.090   7.511   2.373 -0.6202 -2.6804  0.0704
  180SLPC   H6S20510   0.927   7.511   2.462 -1.8966  1.0779 -2.4928
  180SLPC   C2720511   1.021   7.706   2.457 -0.2465  0.5467 -0.2421
  180SLPC   H7R20512   0.927   7.766   2.459 -0.2242  0.5596  0.7495
  180SLPC   H7S20513   1.094   7.762   2.394  1.1246 -0.5707  0.3054
  180SLPC   C2820514   1.079   7.696   2.601  0.3799 -0.0615  0.0977
  180SLPC   H8R20515   1.112   7.801   2.618  1.7650 -0.1883 -1.5112
  180SLPC   H8S20516   1.166   7.627   2.595  0.6029 -0.0307  2.1919
  180SLPC   C2920517   0.980   7.656   2.707 -1.2690  0.5752  0.1306
  180SLPC   H9R20518   0.882   7.705   2.715 -1.8908 -0.4523 -0.7741
  180SLPC  C21020519   1.000   7.550   2.780  0.6367 -0.1523 -0.4497
  180SLPC  H10R20520   0.920   7.516   2.849  0.8395  1.1149  0.4522
  180SLPC  C21120521   1.124   7.467   2.785 -0.0790 -0.0468 -0.0859
  180SLPC  H11R20522   1.211   7.536   2.782  0.4754 -0.7953 -2.1979
  180SLPC  H11S20523   1.139   7.386   2.712  1.5478  0.3575 -0.2297
  180SLPC  C21220524   1.151   7.391   2.918 -0.3085  0.0050  0.8652
  180SLPC  H12R20525   1.160   7.281   2.915 -0.1228  0.0399 -0.4856
  180SLPC  C21320526   1.171   7.443   3.033 -0.7782  0.7743 -0.0121
  180SLPC  H13R20527   1.202   7.379   3.118 -0.8846 -0.5859 -0.9675
  180SLPC  C21420528   1.169   7.587   3.076  0.1529 -0.0141  0.2309
  180SLPC  H14R20529   1.174   7.655   2.988 -0.8856 -0.7141 -0.4002
  180SLPC  H14S20530   1.248   7.609   3.150 -1.4342  0.7557  1.7559
  180SLPC  C21520531   1.033   7.619   3.145 -0.1638 -0.1365  0.1479
  180SLPC  H15R20532   0.943   7.608   3.081  0.1553  0.9246 -0.4939
  180SLPC  H15S20533   1.038   7.729   3.157  1.0926  0.0885 -1.9641
  180SLPC  C21620534   1.017   7.551   3.285  0.0028 -1.1134  0.8242
  180SLPC  H16R20535   0.996   7.443   3.275  1.2326 -1.2411 -0.8905
  180SLPC  H16S20536   0.925   7.589   3.335  1.3000 -0.3131  2.7268
  180SLPC  C21720537   1.136   7.571   3.372  0.3055  0.0053 -0.0153
  180SLPC  H17R20538   1.137   7.682   3.375  1.3819 -0.0082  0.8722
  180SLPC  H17S20539   1.232   7.532   3.333 -0.3816 -2.6389  0.7402
  180SLPC  C21820540   1.118   7.517   3.515  0.6261 -0.2416 -0.7126
  180SLPC  H18R20541   1.199   7.557   3.580 -0.0058 -1.0477  0.6267
  180SLPC  H18S20542   1.133   7.407   3.527  0.6426 -0.1740 -0.0721
  180SLPC  H18T20543   1.031   7.559   3.569  0.0659  0.7915 -2.3822
  180SLPC   C3320544   1.421   7.392   2.300  0.2064  0.0818 -0.1660
  180SLPC   H3X20545   1.345   7.472   2.314 -0.7323 -0.5744 -1.2894
  180SLPC   H3Y20546   1.517   7.446   2.291 -0.1656  1.1590  1.6875
  180SLPC   C3420547   1.429   7.302   2.424  0.4842  0.4449  0.0462
  180SLPC   H4X20548   1.502   7.220   2.411  0.1744  0.3508 -1.1746
  180SLPC   H4Y20549   1.334   7.245   2.431  1.0221 -0.3282  1.3564
  180SLPC   C3520550   1.454   7.386   2.550 -0.4197 -0.2936 -1.0939
  180SLPC   H5X20551   1.374   7.464   2.558  0.5611  0.9183 -2.5130
  180SLPC   H5Y20552   1.557   7.429   2.551  0.4732 -1.4373  5.5502
  180SLPC   C3620553   1.472   7.290   2.667  1.2513  0.4644 -0.7390
  180SLPC   H6X20554   1.544   7.207   2.647  0.2844  0.0053 -2.5492
  180SLPC   H6Y20555   1.371   7.245   2.682  1.0187  1.3535  0.5064
  180SLPC   C3720556   1.510   7.354   2.799 -0.3749  0.2611  0.1224
  180SLPC   H7X20557   1.434   7.431   2.827 -2.4089 -1.7251  0.3205
  180SLPC   H7Y20558   1.601   7.416   2.781 -1.2199  1.1836 -1.1419
  180SLPC   C3820559   1.547   7.259   2.911 -0.6612 -0.5657 -0.3819
  180SLPC   H8X20560   1.655   7.242   2.894  0.5759  3.8910  1.4207
  180SLPC   H8Y20561   1.480   7.172   2.926 -0.1841 -1.1478 -1.4805
  180SLPC   C3920562   1.559   7.346   3.042 -0.2556  0.4871 -0.1439
  180SLPC   H9X20563   1.471   7.410   3.063 -0.4418 -0.4602  2.2701
  180SLPC   H9Y20564   1.652   7.406   3.030  0.3541 -0.7665 -2.2881
  180SLPC  C31020565   1.570   7.257   3.175 -0.5378 -0.6684  0.1362
  180SLPC  H10X20566   1.663   7.196   3.182 -0.5132 -0.4641  2.7911
  180SLPC  H10Y20567   1.485   7.188   3.157 -1.2898  0.2205  0.1831
  180SLPC  C31120568   1.538   7.340   3.302  0.2027  0.1423  0.0783
  180SLPC  H11X20569   1.435   7.378   3.293 -0.7641 -1.5587  2.6914
  180SLPC  H11Y20570   1.627   7.403   3.323  1.1936 -1.6254  1.5333
  180SLPC  C31220571   1.526   7.244   3.426  0.0147  0.4129  0.2483
  180SLPC  H12X20572   1.531   7.306   3.518 -0.0104  1.1198 -0.2210
  180SLPC  H12Y20573   1.611   7.171   3.431 -0.1802  0.0721 -1.1324
  180SLPC  C31320574   1.393   7.166   3.436 -0.1301 -0.0506  0.3792
  180SLPC  H13X20575   1.354   7.136   3.336  1.9378 -0.2091 -0.4285
  180SLPC  H13Y20576   1.308   7.233   3.461  0.1887 -0.0547  1.5138
  180SLPC  C31420577   1.401   7.045   3.534  0.7803  0.1021  0.2008
  180SLPC  H14X20578   1.296   7.013   3.548  0.6363  0.8174  0.8012
  180SLPC  H14Y20579   1.444   7.085   3.628 -0.7878 -0.7850  1.3419
  180SLPC  C31520580   1.497   6.935   3.479 -0.5109  0.0478  0.2075
  180SLPC  H15X20581   1.603   6.954   3.506 -0.3769 -0.4277  0.0382
  180SLPC  H15Y20582   1.492   6.936   3.368  0.2282 -0.6285  0.1583
  180SLPC  C31620583   1.465   6.796   3.533  0.0032  0.7491 -0.0093
  180SLPC  H16X20584   1.366   6.779   3.486  1.2786 -0.4284 -2.4391
  180SLPC  H16Y20585   1.461   6.812   3.643 -0.7411 -1.5583  0.3446
  180SLPC  C31720586   1.559   6.683   3.489 -0.0918 -0.6746 -0.1865
  180SLPC  H17X20587   1.623   6.654   3.575 -0.4131 -1.8335 -0.3159
  180SLPC  H17Y20588   1.609   6.728   3.401 -2.4221  0.9039 -0.8092
  180SLPC  C31820589   1.489   6.553   3.464  0.1413 -0.3102 -0.0034
  180SLPC  H18X20590   1.559   6.468   3.448 -0.7597 -0.9803 -0.5593
  180SLPC  H18Y20591   1.423   6.565   3.375  0.2839  0.5699  0.0010
  180SLPC  H18Z20592   1.420   6.537   3.549 -0.8936  0.8566 -0.5911
  181SLPC     N20593   6.774   1.546   1.654 -0.0252  0.5703  0.4899
  181SLPC   C1320594   6.694   1.601   1.767 -0.4012 -0.5338 -0.3714
  181SLPC  H13A20595   6.758   1.598   1.855  0.8378 -0.2257 -1.2312
  181SLPC  H13B20596   6.661   1.703   1.750  2.2594  0.0627 -2.6855
  181SLPC  H13C20597   6.612   1.541   1.803  0.3138 -0.7297  1.0235
  181SLPC   C1420598   6.915   1.575   1.668 -1.1207 -0.3254  0.4772
  181SLPC  H14A20599   6.951   1.541   1.764 -0.4537  0.8682  0.6653
  181SLPC  H14B20600   6.972   1.527   1.590 -0.6417  1.3586 -0.2524
  181SLPC  H14C20601   6.940   1.680   1.662  0.5011 -0.3538  4.1097
  181SLPC   C1520602   6.741   1.624   1.524  0.4799  0.4535 -0.7036
  181SLPC  H15A20603   6.820   1.596   1.456  1.0281  2.0628 -0.7573
  181SLPC  H15B20604   6.646   1.594   1.482 -0.6373 -1.1781  2.6168
  181SLPC  H15C20605   6.742   1.728   1.552 -1.8154  0.6412 -1.1415
  181SLPC   C1220606   6.751   1.396   1.634  0.3503 -0.0339  0.2361
  181SLPC  H12A20607   6.647   1.367   1.636  0.4875 -0.7061 -1.1653
  181SLPC  H12B20608   6.786   1.338   1.718 -0.1959  0.3811  0.7605
  181SLPC   C1120609   6.795   1.335   1.497  0.3515  0.3921 -0.3777
  181SLPC  H11A20610   6.733   1.387   1.420  0.5078  0.5033 -0.4301
  181SLPC  H11B20611   6.775   1.227   1.507  0.8921  0.4814  2.3965
  181SLPC     P20612   7.021   1.272   1.376  0.0094  0.0074  0.0804
  181SLPC   O1320613   6.923   1.191   1.297 -0.2152  0.2036  0.2959
  181SLPC   O1420614   7.098   1.384   1.312 -0.0663 -0.4311 -0.6530
  181SLPC   O1220615   6.937   1.351   1.495 -0.4783 -0.3005  0.2214
  181SLPC   O1120616   7.108   1.173   1.465 -0.2275 -0.0831  0.5251
  181SLPC    C120617   7.182   1.225   1.578  0.1149  0.0919  0.2064
  181SLPC    HA20618   7.219   1.329   1.565  0.9926 -0.4776 -2.7581
  181SLPC    HB20619   7.115   1.233   1.666  1.4148  1.6553  1.0906
  181SLPC    C220620   7.302   1.133   1.617  0.2650 -0.3194  0.2273
  181SLPC    HS20621   7.348   1.127   1.516 -0.5044  1.9939 -0.3454
  181SLPC   O2120622   7.253   1.007   1.660  0.3254  0.2985 -0.4592
  181SLPC   C2120623   7.356   0.915   1.654 -0.0355  0.3503  0.0882
  181SLPC   O2220624   7.468   0.936   1.616 -0.5301 -0.2114 -0.4085
  181SLPC   C2220625   7.299   0.782   1.690  0.5940 -0.0671  0.1964
  181SLPC   H2R20626   7.204   0.773   1.632  0.2855  1.0762  0.4851
  181SLPC   H2S20627   7.370   0.699   1.671  1.6631  0.7858  0.3562
  181SLPC    C320628   7.403   1.203   1.711  1.1837  0.5198 -0.6217
  181SLPC    HX20629   7.436   1.293   1.656 -0.8140  0.5019 -1.9409
  181SLPC    HY20630   7.486   1.130   1.723 -0.6706 -2.0604 -2.1495
  181SLPC   O3120631   7.334   1.239   1.838 -0.0234 -0.1603 -0.3833
  181SLPC   C3120632   7.413   1.274   1.937  0.7409  0.3764 -0.1104
  181SLPC   O3220633   7.535   1.277   1.925 -0.1513  0.6014  0.2896
  181SLPC   C3220634   7.334   1.293   2.060  0.2593 -0.6753 -0.3022
  181SLPC   H2X20635   7.247   1.355   2.030  1.5031  1.2411 -0.0970
  181SLPC   H2Y20636   7.390   1.357   2.131  0.5489 -0.4995 -0.6806
  181SLPC   C2320637   7.257   0.767   1.836  0.2114  0.1534 -0.6640
  181SLPC   H3R20638   7.201   0.671   1.821 -0.7624  0.5124  0.5237
  181SLPC   H3S20639   7.183   0.844   1.867 -1.0308 -1.6993  1.2991
  181SLPC   C2420640   7.364   0.745   1.933  0.2363  0.2898 -0.0090
  181SLPC   H4R20641   7.406   0.847   1.931 -0.2603  0.5041 -1.9796
  181SLPC   H4S20642   7.441   0.669   1.909  0.1387  0.5250 -1.1215
  181SLPC   C2520643   7.304   0.693   2.061 -0.0698 -0.1149 -0.2929
  181SLPC   H5R20644   7.259   0.594   2.038  1.7583 -1.1669  0.4805
  181SLPC   H5S20645   7.227   0.758   2.108  0.3368  0.1140  0.0669
  181SLPC   C2620646   7.413   0.664   2.165  0.9636 -0.6909 -0.3283
  181SLPC   H6R20647   7.471   0.754   2.198 -1.2067 -0.0141  1.9326
  181SLPC   H6S20648   7.485   0.595   2.115  1.4463 -0.9518  0.6872
  181SLPC   C2720649   7.354   0.588   2.279  0.1408  0.3548  0.6395
  181SLPC   H7R20650   7.297   0.506   2.231  1.7349  0.5697 -1.8259
  181SLPC   H7S20651   7.276   0.643   2.335 -0.5038 -0.9333  1.0589
  181SLPC   C2820652   7.457   0.535   2.380 -0.5956  0.1193 -0.5631
  181SLPC   H8R20653   7.516   0.624   2.408 -1.5892 -0.1727  2.9008
  181SLPC   H8S20654   7.522   0.478   2.310  0.6129  0.6884  0.0724
  181SLPC   C2920655   7.405   0.452   2.491 -0.0405  0.4076 -0.7255
  181SLPC   H9R20656   7.349   0.368   2.448  0.7292 -1.5442  1.8219
  181SLPC  C21020657   7.423   0.464   2.623 -0.5338 -0.0846  0.0184
  181SLPC  H10R20658   7.380   0.387   2.689 -0.3386  1.4272  1.9788
  181SLPC  C21120659   7.508   0.564   2.698 -0.2315 -0.5079  0.1165
  181SLPC  H11R20660   7.569   0.618   2.623 -2.2572  0.1949 -1.1197
  181SLPC  H11S20661   7.590   0.508   2.747  1.4978 -0.1722 -2.1982
  181SLPC  C21220662   7.429   0.645   2.790 -0.3040  0.5645 -0.5399
  181SLPC  H12R20663   7.381   0.735   2.750 -0.1986  1.3358  1.0094
  181SLPC  C21320664   7.422   0.639   2.919  0.3919  0.0137 -0.2734
  181SLPC  H13R20665   7.360   0.709   2.976  0.4549 -2.1346  2.6809
  181SLPC  C21420666   7.488   0.541   3.012  0.3091  0.7438  0.1048
  181SLPC  H14R20667   7.589   0.509   2.980  0.0752 -1.0929  1.0147
  181SLPC  H14S20668   7.435   0.446   3.035 -1.2051  1.8954  1.7040
  181SLPC  C21520669   7.506   0.598   3.152 -0.1882 -0.0098  0.0385
  181SLPC  H15R20670   7.401   0.619   3.180 -0.0422  1.8962 -0.6622
  181SLPC  H15S20671   7.577   0.683   3.153  0.3164 -0.4080  1.8013
  181SLPC  C21620672   7.568   0.500   3.260  0.1598 -0.3955  0.3214
  181SLPC  H16R20673   7.673   0.486   3.227 -0.0739  1.5577 -1.4733
  181SLPC  H16S20674   7.525   0.398   3.272 -0.4999 -0.1557  0.0059
  181SLPC  C21720675   7.568   0.569   3.390 -0.1897  0.0353 -0.5380
  181SLPC  H17R20676   7.469   0.608   3.421  0.6477 -1.3803  5.0467
  181SLPC  H17S20677   7.622   0.666   3.394  0.5773 -0.2800 -2.2926
  181SLPC  C21820678   7.616   0.482   3.498 -0.4181 -0.2893  0.1907
  181SLPC  H18R20679   7.727   0.493   3.493 -0.5018  0.3850 -0.3257
  181SLPC  H18S20680   7.586   0.375   3.494  0.8915 -0.6854  0.4577
  181SLPC  H18T20681   7.572   0.516   3.594 -1.9731 -2.6114  0.3797
  181SLPC   C3320682   7.281   1.173   2.121  0.0732 -0.0383 -0.4499
  181SLPC   H3X20683   7.322   1.085   2.068  1.8293 -1.1198  2.4260
  181SLPC   H3Y20684   7.171   1.171   2.109  0.1995  1.2294 -2.0846
  181SLPC   C3420685   7.300   1.161   2.275  0.6159  1.1555  0.0303
  181SLPC   H4X20686   7.246   1.246   2.323  0.3222  1.3140 -0.5715
  181SLPC   H4Y20687   7.410   1.170   2.286  0.7631 -1.0995  0.7530
  181SLPC   C3520688   7.256   1.022   2.339  0.1761  0.2327  0.3060
  181SLPC   H5X20689   7.272   0.942   2.264  0.4342  1.5934 -1.1483
  181SLPC   H5Y20690   7.148   1.027   2.362  0.0536  1.2020 -0.4215
  181SLPC   C3620691   7.325   1.003   2.473 -0.4430  0.8322  0.2863
  181SLPC   H6X20692   7.262   0.954   2.551  1.6292 -0.9030  0.9646
  181SLPC   H6Y20693   7.338   1.111   2.498  0.7182  1.1785 -1.6570
  181SLPC   C3720694   7.474   0.952   2.465  0.5439  0.0359  0.3003
  181SLPC   H7X20695   7.521   1.001   2.378  0.1981 -1.4738 -0.7816
  181SLPC   H7Y20696   7.463   0.846   2.433  1.5620 -0.1481  0.5407
  181SLPC   C3820697   7.547   0.971   2.595 -0.5603  0.3631 -0.5484
  181SLPC   H8X20698   7.639   0.912   2.572 -0.8208  0.1287 -1.0029
  181SLPC   H8Y20699   7.493   0.916   2.674 -0.8749  1.9334  0.3743
  181SLPC   C3920700   7.573   1.111   2.646 -0.5580  0.2995  0.0370
  181SLPC   H9X20701   7.490   1.146   2.710 -0.1271  2.5376 -0.5273
  181SLPC   H9Y20702   7.577   1.178   2.557  2.5639 -1.2593 -1.1399
  181SLPC  C31020703   7.706   1.123   2.726 -0.5529  0.1837 -0.1105
  181SLPC  H10X20704   7.728   1.226   2.762 -1.4846 -0.6184  3.1818
  181SLPC  H10Y20705   7.788   1.091   2.659 -0.4304  2.1353 -0.9494
  181SLPC  C31120706   7.705   1.042   2.858 -0.0729 -0.7182  0.3544
  181SLPC  H11X20707   7.807   1.034   2.901  0.1648  0.9805  0.1727
  181SLPC  H11Y20708   7.668   0.942   2.828  0.7844  0.1185 -4.0618
  181SLPC  C31220709   7.615   1.100   2.961 -0.1123 -1.0760  0.3440
  181SLPC  H12X20710   7.530   1.034   2.987  0.3479 -1.3676  1.1400
  181SLPC  H12Y20711   7.562   1.195   2.938 -1.1598 -1.0079  2.7313
  181SLPC  C31320712   7.687   1.116   3.095  0.1105 -0.3729  0.5042
  181SLPC  H13X20713   7.767   1.191   3.075  1.1975 -2.0531 -1.9249
  181SLPC  H13Y20714   7.734   1.021   3.127  1.1221  0.7490  2.5479
  181SLPC  C31420715   7.596   1.175   3.204  0.0182 -0.2961 -0.1208
  181SLPC  H14X20716   7.499   1.120   3.211 -0.9500  1.4909  1.5274
  181SLPC  H14Y20717   7.576   1.279   3.171 -2.3112 -0.9368 -0.9338
  181SLPC  C31520718   7.647   1.164   3.344  0.0893  0.5405 -0.0592
  181SLPC  H15X20719   7.607   1.247   3.406  1.1154 -0.3517  1.9246
  181SLPC  H15Y20720   7.756   1.184   3.342  0.1680  0.0104 -1.3425
  181SLPC  C31620721   7.602   1.033   3.408  0.5093 -0.5616 -0.4831
  181SLPC  H16X20722   7.637   0.948   3.346  0.7005  0.0847 -1.2646
  181SLPC  H16Y20723   7.491   1.025   3.420  0.6044 -0.1484  0.8733
  181SLPC  C31720724   7.675   1.010   3.532 -0.3306 -0.4377  0.6182
  181SLPC  H17X20725   7.650   0.920   3.592 -0.0609 -0.3526  0.8614
  181SLPC  H17Y20726   7.666   1.096   3.602 -1.6658  0.8585 -1.0440
  181SLPC  C31820727   7.821   0.979   3.506  0.1910 -0.2577 -0.0920
  181SLPC  H18X20728   7.844   0.903   3.429  0.5611 -1.9498  1.6121
  181SLPC  H18Y20729   7.863   0.940   3.602  0.3125  2.2557  0.9584
  181SLPC  H18Z20730   7.880   1.070   3.481  1.0805 -0.7978 -0.0049
  182SLPC     N20731   3.953   0.827   1.738  0.5354 -0.1339  0.6679
  182SLPC   C1320732   4.022   0.956   1.782  0.5566  0.6201  0.1493
  182SLPC  H13A20733   4.126   0.932   1.773 -0.0344 -1.4489 -2.6801
  182SLPC  H13B20734   3.998   1.041   1.720  2.3743  1.1649  0.1544
  182SLPC  H13C20735   3.992   0.970   1.885 -0.3916 -0.3891  0.0309
  182SLPC   C1420736   4.025   0.797   1.612  0.3064 -0.8068 -0.2846
  182SLPC  H14A20737   3.965   0.724   1.560  0.1663  0.6304 -2.2126
  182SLPC  H14B20738   4.027   0.880   1.544 -0.2394 -1.5282 -1.2018
  182SLPC  H14C20739   4.125   0.759   1.629  0.1769 -0.0216  2.8417
  182SLPC   C1520740   3.803   0.858   1.730 -0.3700 -0.2155 -0.4993
  182SLPC  H15A20741   3.791   0.930   1.650 -0.3809 -0.8895 -1.1206
  182SLPC  H15B20742   3.743   0.770   1.711  1.5131 -1.4780 -0.9060
  182SLPC  H15C20743   3.769   0.896   1.825 -0.9815  2.1136 -1.5826
  182SLPC   C1220744   3.975   0.710   1.825  0.5784  0.4364 -0.5474
  182SLPC  H12A20745   4.069   0.660   1.805  0.0923 -0.9782  0.5113
  182SLPC  H12B20746   3.905   0.629   1.808  0.1108  0.4582  1.1064
  182SLPC   C1120747   3.964   0.743   1.977  0.0614 -0.2481  0.1712
  182SLPC  H11A20748   4.045   0.812   2.010 -1.1146  0.0902  2.5855
  182SLPC  H11B20749   3.981   0.649   2.034 -0.7208 -0.5146 -0.0275
  182SLPC     P20750   3.734   0.741   2.099 -0.0962  0.1541 -0.3025
  182SLPC   O1320751   3.633   0.845   2.124 -0.1079  0.3245 -0.0281
  182SLPC   O1420752   3.690   0.609   2.048 -0.7762 -0.3392 -0.3318
  182SLPC   O1220753   3.839   0.798   2.002  0.5303 -0.3964  0.1540
  182SLPC   O1120754   3.821   0.722   2.232  0.2651 -0.2582 -0.3179
  182SLPC    C120755   3.926   0.804   2.282  0.4451 -0.2594 -0.4785
  182SLPC    HA20756   4.021   0.749   2.266  0.1087 -0.3449 -2.5309
  182SLPC    HB20757   3.938   0.889   2.212 -0.3754 -0.1489 -0.5003
  182SLPC    C220758   3.900   0.848   2.430 -0.6127 -0.5495  0.2757
  182SLPC    HS20759   3.989   0.906   2.462 -1.9392  1.8171 -0.0529
  182SLPC   O2120760   3.872   0.731   2.509 -0.3499 -0.3497  0.0543
  182SLPC   C2120761   3.985   0.677   2.566 -0.4216  0.1061  0.1388
  182SLPC   O2220762   4.100   0.715   2.541 -0.2104  0.2546  0.5258
  182SLPC   C2220763   3.953   0.565   2.663 -0.2653 -0.2358 -0.3626
  182SLPC   H2R20764   3.890   0.625   2.732 -1.5751 -1.0565 -0.8267
  182SLPC   H2S20765   3.894   0.482   2.621  2.5143 -1.9860 -1.0814
  182SLPC    C320766   3.775   0.933   2.456  0.6506 -0.4399 -0.5594
  182SLPC    HX20767   3.686   0.881   2.415  0.9721 -0.1085 -1.7262
  182SLPC    HY20768   3.787   1.028   2.401 -1.1501  0.3353  0.2966
  182SLPC   O3120769   3.761   0.960   2.594 -0.3187 -0.0705  0.2510
  182SLPC   C3120770   3.646   0.916   2.646 -0.3528  0.6753  0.3416
  182SLPC   O3220771   3.554   0.858   2.596  0.2198  0.4978 -0.1896
  182SLPC   C3220772   3.650   0.958   2.793 -0.4671  0.8853  0.4965
  182SLPC   H2X20773   3.673   1.066   2.806  0.2743  0.8259 -0.2501
  182SLPC   H2Y20774   3.745   0.908   2.823  0.1483  0.5095 -1.8885
  182SLPC   C2320775   4.081   0.504   2.724  0.2009 -0.0076 -0.2337
  182SLPC   H3R20776   4.144   0.593   2.746 -0.3708  0.3528 -0.0273
  182SLPC   H3S20777   4.143   0.448   2.650  0.8287  0.4918 -0.0945
  182SLPC   C2420778   4.051   0.431   2.858 -0.3263 -0.4674  0.1426
  182SLPC   H4R20779   4.149   0.408   2.905 -0.1554  0.4094  0.2359
  182SLPC   H4S20780   3.989   0.339   2.849 -1.2047  0.2381 -1.6688
  182SLPC   C2520781   3.983   0.529   2.958  0.1595  0.3385 -0.0321
  182SLPC   H5R20782   3.872   0.531   2.950 -0.0172  0.6985  2.0656
  182SLPC   H5S20783   4.019   0.633   2.944  0.5382  0.9723  4.4242
  182SLPC   C2620784   4.024   0.505   3.099  0.3542  0.2981  0.2123
  182SLPC   H6R20785   4.132   0.505   3.126 -0.1698 -0.0705  2.5637
  182SLPC   H6S20786   3.980   0.403   3.104 -1.7212  0.7597 -4.1072
  182SLPC   C2720787   3.953   0.605   3.195 -0.2429  0.1204 -0.3934
  182SLPC   H7R20788   3.848   0.631   3.168 -0.6411  0.4304  1.3184
  182SLPC   H7S20789   4.003   0.702   3.176  0.0454 -0.1237 -0.8979
  182SLPC   C2820790   3.957   0.564   3.348 -0.0389 -0.2121 -0.0459
  182SLPC   H8R20791   3.917   0.658   3.392 -2.6321 -0.4431 -1.6740
  182SLPC   H8S20792   4.062   0.562   3.383 -0.6270 -1.9569  1.7786
  182SLPC   C2920793   3.894   0.432   3.389  0.2526  0.0200  0.6795
  182SLPC   H9R20794   3.938   0.348   3.334  1.9033  1.1157  0.2230
  182SLPC  C21020795   3.778   0.422   3.447  0.2149  0.7377  0.0173
  182SLPC  H10R20796   3.740   0.324   3.477 -0.0617  1.0932  0.8862
  182SLPC  C21120797   3.698   0.539   3.496  0.3296  0.0909 -0.3161
  182SLPC  H11R20798   3.604   0.493   3.532  1.8480 -1.5411  1.7714
  182SLPC  H11S20799   3.672   0.607   3.412 -1.5237 -0.0533  0.0813
  182SLPC  C21220800   3.758   0.618   3.613  0.5466  0.1817  0.3047
  182SLPC  H12R20801   3.843   0.682   3.582  1.5549 -0.7354  1.1136
  182SLPC  C21320802   3.723   0.635   3.736  0.2640 -0.5991 -0.2705
  182SLPC  H13R20803   3.791   0.690   3.803 -1.1465 -2.3554  2.8201
  182SLPC  C21420804   3.598   0.582   3.802  0.3559  0.0019  0.3074
  182SLPC  H14R20805   3.623   0.474   3.805 -0.5732 -0.2122  0.4191
  182SLPC  H14S20806   3.506   0.594   3.741 -0.9080 -2.6413  1.5385
  182SLPC  C21520807   3.566   0.627   3.943 -0.2372  0.3495  0.1026
  182SLPC  H15R20808   3.478   0.570   3.981 -0.8120  1.4655  0.4828
  182SLPC  H15S20809   3.532   0.733   3.940 -0.9696  0.1696  1.2993
  182SLPC  C21620810   3.679   0.620   4.048 -0.1211 -0.2304  0.2838
  182SLPC  H16R20811   3.659   0.669   4.145  1.2405 -1.0801  1.0329
  182SLPC  H16S20812   3.768   0.660   3.995 -0.2567  0.2363  0.4029
  182SLPC  C21720813   3.692   0.471   4.095  0.0392 -0.3035 -0.5504
  182SLPC  H17R20814   3.797   0.453   4.125  0.7245  4.0853  0.3537
  182SLPC  H17S20815   3.673   0.405   4.007  2.2582 -0.1179 -1.2131
  182SLPC  C21820816   3.606   0.428   4.217 -0.3046 -0.4484 -0.4375
  182SLPC  H18R20817   3.502   0.448   4.182  0.2967  0.7114 -1.6741
  182SLPC  H18S20818   3.639   0.483   4.308 -1.9338  1.0770 -0.7165
  182SLPC  H18T20819   3.612   0.319   4.238 -2.5843 -1.2046 -3.0921
  182SLPC   C3320820   3.538   0.891   2.882 -0.2839 -0.7340  0.3998
  182SLPC   H3X20821   3.537   0.785   2.849  2.2420 -0.5018 -0.5920
  182SLPC   H3Y20822   3.444   0.937   2.845 -0.6098 -0.7976  1.1257
  182SLPC   C3420823   3.564   0.901   3.034  0.1398  0.2921  0.1129
  182SLPC   H4X20824   3.584   1.006   3.065 -0.7373  0.5252 -0.0863
  182SLPC   H4Y20825   3.657   0.846   3.059  2.5457  3.6548 -0.7107
  182SLPC   C3520826   3.446   0.859   3.119 -0.0679  0.8441  0.0614
  182SLPC   H5X20827   3.401   0.765   3.079  0.5034  0.8954 -0.7190
  182SLPC   H5Y20828   3.360   0.929   3.122 -0.8567 -0.0759 -0.5068
  182SLPC   C3620829   3.486   0.834   3.266 -0.2119 -0.6229  0.0032
  182SLPC   H6X20830   3.575   0.896   3.287  0.4360 -0.2597 -3.2977
  182SLPC   H6Y20831   3.526   0.730   3.267 -0.0081 -0.5855 -1.7842
  182SLPC   C3720832   3.370   0.875   3.365  0.4991  0.1701  0.6947
  182SLPC   H7X20833   3.277   0.816   3.347 -0.4578  1.8181  0.0005
  182SLPC   H7Y20834   3.343   0.980   3.343  1.2826 -0.1371 -2.0550
  182SLPC   C3820835   3.412   0.860   3.508 -0.8897  0.4854  0.2266
  182SLPC   H8X20836   3.495   0.929   3.534 -0.7937  0.6091 -0.3859
  182SLPC   H8Y20837   3.451   0.756   3.510 -1.3476  0.3133  0.2849
  182SLPC   C3920838   3.290   0.872   3.605  0.4470  0.8539  0.7146
  182SLPC   H9X20839   3.226   0.785   3.580  2.4081 -0.5405  0.3147
  182SLPC   H9Y20840   3.226   0.958   3.574 -0.8285 -0.5478 -0.7375
  182SLPC  C31020841   3.330   0.857   3.754  0.1712  0.6250  0.6511
  182SLPC  H10X20842   3.406   0.937   3.767 -0.3508  1.6247 -1.7958
  182SLPC  H10Y20843   3.380   0.758   3.761 -0.6411  0.2563  1.3475
  182SLPC  C31120844   3.212   0.863   3.856  0.4098  0.1406  0.1114
  182SLPC  H11X20845   3.132   0.790   3.831 -0.3514  1.0716 -0.2314
  182SLPC  H11Y20846   3.159   0.960   3.847 -1.4404 -0.6668  1.5058
  182SLPC  C31220847   3.254   0.843   4.007 -0.1873 -0.7363 -0.2140
  182SLPC  H12X20848   3.313   0.749   4.014  2.1001  0.2266 -3.9298
  182SLPC  H12Y20849   3.165   0.851   4.072 -0.7216  4.4550 -1.0991
  182SLPC  C31320850   3.343   0.953   4.061 -0.5486 -0.3674 -0.4575
  182SLPC  H13X20851   3.279   1.043   4.072  0.4079  0.1036  1.8234
  182SLPC  H13Y20852   3.418   0.983   3.984  1.8509 -1.7800  1.1991
  182SLPC  C31420853   3.402   0.906   4.189 -0.1870  1.1564 -0.5287
  182SLPC  H14X20854   3.476   0.826   4.166 -1.9086 -1.3879  2.0018
  182SLPC  H14Y20855   3.327   0.855   4.253 -0.1954  0.8868 -0.7529
  182SLPC  C31520856   3.472   1.009   4.279 -0.0991  0.4145 -0.0419
  182SLPC  H15X20857   3.437   1.113   4.262 -0.5392  0.5722  1.6889
  182SLPC  H15Y20858   3.581   1.007   4.255 -0.0317 -1.1123  0.2969
  182SLPC  C31620859   3.455   1.006   4.432  1.3851 -0.6176  0.3452
  182SLPC  H16X20860   3.349   0.988   4.460  1.5214 -1.6986  0.1958
  182SLPC  H16Y20861   3.484   1.105   4.474  0.7369 -1.2852  2.4657
  182SLPC  C31720862   3.531   0.894   4.492 -0.2504  0.0492 -0.6365
  182SLPC  H17X20863   3.641   0.913   4.493 -0.2895  0.5612 -2.5391
  182SLPC  H17Y20864   3.519   0.805   4.427 -2.1286 -0.8626  0.8692
  182SLPC  C31820865   3.483   0.855   4.636 -0.3192 -0.7636 -0.1477
  182SLPC  H18X20866   3.480   0.940   4.708  0.8151  0.2871 -1.2929
  182SLPC  H18Y20867   3.538   0.771   4.684 -2.4010 -2.1914 -0.1556
  182SLPC  H18Z20868   3.378   0.821   4.633 -0.3702 -0.6071 -0.0923
  183SLPC     N20869   4.706   1.951   2.078  0.0427 -0.0798  0.2812
  183SLPC   C1320870   4.822   1.973   1.993 -0.6869  0.6242  0.1179
  183SLPC  H13A20871   4.799   2.042   1.914  0.5558 -0.9529 -1.7092
  183SLPC  H13B20872   4.897   2.035   2.040  1.2500  0.7382 -2.9139
  183SLPC  H13C20873   4.872   1.883   1.960  0.8266  2.1664 -2.0496
  183SLPC   C1420874   4.613   1.887   1.984  0.2977  0.0136 -0.1419
  183SLPC  H14A20875   4.582   1.944   1.898 -0.5935 -2.2474 -1.3883
  183SLPC  H14B20876   4.660   1.806   1.930  2.6365  1.7701 -0.8983
  183SLPC  H14C20877   4.523   1.848   2.029 -0.1389 -1.5078 -2.1958
  183SLPC   C1520878   4.653   2.079   2.128 -0.2600 -0.1738 -0.0028
  183SLPC  H15A20879   4.607   2.140   2.052 -1.1879  0.1098  0.7634
  183SLPC  H15B20880   4.573   2.073   2.200 -0.4945 -1.3030 -0.3462
  183SLPC  H15C20881   4.738   2.128   2.175  1.0264 -2.4767  0.2455
  183SLPC   C1220882   4.751   1.864   2.194  0.1127 -0.4021 -0.2584
  183SLPC  H12A20883   4.665   1.851   2.258  0.2737  1.6229  0.4471
  183SLPC  H12B20884   4.818   1.928   2.249 -0.5264  1.0290 -1.0751
  183SLPC   C1120885   4.812   1.723   2.165 -0.0778  0.4324  0.4157
  183SLPC  H11A20886   4.858   1.702   2.265 -0.2196  0.6035  0.5169
  183SLPC  H11B20887   4.896   1.738   2.094 -0.7022  2.0619 -0.0199
  183SLPC     P20888   4.715   1.474   2.141  0.1947  0.4652  0.1464
  183SLPC   O1320889   4.620   1.406   2.045  0.2397  0.4441  0.0260
  183SLPC   O1420890   4.854   1.428   2.123  0.1120  0.5404  0.2951
  183SLPC   O1220891   4.707   1.629   2.125  0.0049  0.2112  0.0421
  183SLPC   O1120892   4.675   1.444   2.290 -0.6244 -0.5732 -0.2228
  183SLPC    C120893   4.558   1.495   2.358 -0.3553 -0.3355  0.4678
  183SLPC    HA20894   4.566   1.602   2.385 -2.2302  0.6405 -2.3363
  183SLPC    HB20895   4.468   1.481   2.294 -1.3458 -3.2341  2.3191
  183SLPC    C220896   4.549   1.423   2.494 -0.4541 -0.6409 -0.2276
  183SLPC    HS20897   4.475   1.473   2.560 -1.0432 -0.7136 -0.8216
  183SLPC   O2120898   4.678   1.419   2.555  0.6830  0.1372 -0.0298
  183SLPC   C2120899   4.698   1.519   2.639  0.3076 -0.4966  0.1254
  183SLPC   O2220900   4.616   1.604   2.669  0.0752 -0.1299 -0.2776
  183SLPC   C2220901   4.836   1.508   2.695 -0.1089  0.5927  0.4967
  183SLPC   H2R20902   4.889   1.440   2.626 -1.3428 -1.3030  1.3434
  183SLPC   H2S20903   4.877   1.611   2.684  0.2659  0.3446 -0.5032
  183SLPC    C320904   4.500   1.277   2.470 -0.1955  0.0205 -0.6156
  183SLPC    HX20905   4.562   1.228   2.391 -1.8108 -0.1056 -1.8763
  183SLPC    HY20906   4.396   1.275   2.431 -0.2527 -1.7854 -0.4491
  183SLPC   O3120907   4.501   1.210   2.592  0.0937  0.5348 -0.6220
  183SLPC   C3120908   4.545   1.084   2.595  0.1218 -0.2662 -0.0103
  183SLPC   O3220909   4.566   1.017   2.498  0.2339  0.5069  0.0002
  183SLPC   C3220910   4.571   1.042   2.743 -0.0923 -0.2625  0.4379
  183SLPC   H2X20911   4.567   0.931   2.744  1.4549 -0.3629 -1.0112
  183SLPC   H2Y20912   4.489   1.081   2.807  0.2632 -0.2942  0.9287
  183SLPC   C2320913   4.841   1.445   2.833  0.1059 -0.4964 -0.2349
  183SLPC   H3R20914   4.920   1.367   2.831  1.4728  0.8053  0.6164
  183SLPC   H3S20915   4.743   1.396   2.851 -0.6517  0.7320 -0.8067
  183SLPC   C2420916   4.867   1.550   2.944 -0.7379  0.4588 -1.0057
  183SLPC   H4R20917   4.792   1.632   2.942  1.3667  2.4589 -2.0845
  183SLPC   H4S20918   4.968   1.589   2.923  0.3183 -2.8975 -2.8755
  183SLPC   C2520919   4.865   1.481   3.084  0.7552  0.6191  0.9396
  183SLPC   H5R20920   4.953   1.419   3.109 -0.1018 -0.3765  1.5867
  183SLPC   H5S20921   4.781   1.408   3.089  2.4227 -1.3779  1.3421
  183SLPC   C2620922   4.863   1.565   3.217 -0.4483  0.3981  1.3873
  183SLPC   H6R20923   4.772   1.629   3.213 -0.9950 -0.4224 -0.1290
  183SLPC   H6S20924   4.961   1.618   3.218  0.5712 -1.3707  0.8609
  183SLPC   C2720925   4.854   1.468   3.336 -0.7216 -0.2542 -0.2572
  183SLPC   H7R20926   4.924   1.384   3.317  0.6538  1.0018 -0.9415
  183SLPC   H7S20927   4.753   1.423   3.326 -1.0027  0.5132 -1.0799
  183SLPC   C2820928   4.892   1.523   3.472  0.4601  0.3967  0.0363
  183SLPC   H8R20929   4.824   1.606   3.503 -0.0592  0.4060 -1.0536
  183SLPC   H8S20930   4.987   1.580   3.467  0.4618  0.4292  0.4256
  183SLPC   C2920931   4.911   1.410   3.569  0.1998  0.0759  0.2043
  183SLPC   H9R20932   4.984   1.334   3.535  0.4073  0.2163  0.3357
  183SLPC  C21020933   4.844   1.403   3.689  0.5621  0.3137 -0.4380
  183SLPC  H10R20934   4.873   1.323   3.758  1.5334  1.9358  1.1328
  183SLPC  C21120935   4.742   1.504   3.746  0.0810  0.1734  1.0819
  183SLPC  H11R20936   4.650   1.446   3.770 -0.7756  0.2688 -1.6581
  183SLPC  H11S20937   4.709   1.577   3.669  0.3080  0.4474  1.2425
  183SLPC  C21220938   4.785   1.574   3.873  0.3291 -0.3388 -0.1568
  183SLPC  H12R20939   4.874   1.536   3.924  0.0032 -1.8072 -0.6387
  183SLPC  C21320940   4.726   1.692   3.917 -0.6083  0.2975 -0.3394
  183SLPC  H13R20941   4.763   1.739   4.009 -1.0983 -2.3884  1.3375
  183SLPC  C21420942   4.607   1.762   3.865  0.4957 -0.0505 -0.3720
  183SLPC  H14R20943   4.575   1.721   3.766  3.2443 -3.2846 -0.1270
  183SLPC  H14S20944   4.642   1.867   3.853  1.6968 -0.2804  0.8540
  183SLPC  C21520945   4.491   1.751   3.967 -0.4130  0.5152 -0.2133
  183SLPC  H15R20946   4.520   1.776   4.071  0.3491  0.3198 -0.3727
  183SLPC  H15S20947   4.460   1.645   3.962 -1.2354  0.7687 -0.8705
  183SLPC  C21620948   4.369   1.838   3.943 -0.5238 -0.2965 -0.2326
  183SLPC  H16R20949   4.322   1.825   3.843 -0.4909 -0.1645 -0.2656
  183SLPC  H16S20950   4.386   1.948   3.939  0.4410 -0.4783 -2.4237
  183SLPC  C21720951   4.265   1.815   4.050  0.8841 -0.3256 -0.4288
  183SLPC  H17R20952   4.307   1.849   4.147  0.2363 -1.9810  0.4818
  183SLPC  H17S20953   4.234   1.709   4.065 -0.7993 -0.1235 -2.1144
  183SLPC  C21820954   4.142   1.899   4.022 -0.0718  0.0395 -0.1042
  183SLPC  H18R20955   4.162   2.006   4.001 -1.8366  0.1214 -1.5333
  183SLPC  H18S20956   4.076   1.900   4.112 -0.3767 -1.5368 -0.2843
  183SLPC  H18T20957   4.077   1.865   3.938 -2.7976 -0.6539  2.1229
  183SLPC   C3320958   4.707   1.095   2.785  0.4822 -0.0250 -0.1234
  183SLPC   H3X20959   4.691   1.204   2.799 -4.1478 -0.5345  0.1784
  183SLPC   H3Y20960   4.780   1.081   2.703  2.4770 -0.9246  1.7169
  183SLPC   C3420961   4.748   1.049   2.927  0.4005  0.3164 -0.1141
  183SLPC   H4X20962   4.850   1.089   2.946  0.6470  0.2230 -1.1847
  183SLPC   H4Y20963   4.742   0.938   2.921  0.4079  0.3620 -0.9547
  183SLPC   C3520964   4.650   1.089   3.038 -0.0232 -0.8195  0.3462
  183SLPC   H5X20965   4.549   1.047   3.021 -0.8983  1.0804  0.5901
  183SLPC   H5Y20966   4.642   1.199   3.043  0.5643 -0.7728  0.3710
  183SLPC   C3620967   4.694   1.044   3.173 -0.1711  0.3463  0.6177
  183SLPC   H6X20968   4.801   1.071   3.164  0.3124 -1.7509 -0.5764
  183SLPC   H6Y20969   4.680   0.934   3.175  0.6423  0.1836 -1.0994
  183SLPC   C3720970   4.632   1.106   3.296 -0.2562 -0.9839 -0.5504
  183SLPC   H7X20971   4.523   1.094   3.309 -0.3926  0.1318 -0.5488
  183SLPC   H7Y20972   4.652   1.215   3.298 -0.0784 -0.9988  2.2875
  183SLPC   C3820973   4.702   1.072   3.436 -0.0452 -0.2942 -0.1902
  183SLPC   H8X20974   4.808   1.103   3.425 -0.1318 -0.4627 -1.7030
  183SLPC   H8Y20975   4.707   0.962   3.444  1.0579 -0.1251  2.7269
  183SLPC   C3920976   4.645   1.147   3.559 -0.3961 -0.0937  0.1174
  183SLPC   H9X20977   4.535   1.140   3.550 -0.3796 -0.4243  0.1240
  183SLPC   H9Y20978   4.674   1.254   3.557  0.8161 -0.3425  1.6717
  183SLPC  C31020979   4.700   1.087   3.690 -0.2910 -0.2293 -0.3651
  183SLPC  H10X20980   4.808   1.112   3.681 -0.4091  0.5076  0.2241
  183SLPC  H10Y20981   4.678   0.978   3.686 -2.6398  0.0723  2.0823
  183SLPC  C31120982   4.634   1.149   3.814 -0.3357 -0.6147 -0.0499
  183SLPC  H11X20983   4.525   1.139   3.798 -0.6053  0.3041  1.1122
  183SLPC  H11Y20984   4.668   1.255   3.818 -0.6933 -0.5049  0.0373
  183SLPC  C31220985   4.668   1.094   3.952  0.1196  0.5618 -0.6070
  183SLPC  H12X20986   4.643   1.170   4.029 -1.2201 -0.5541  0.1066
  183SLPC  H12Y20987   4.773   1.064   3.971 -0.1990  0.5100  1.3368
  183SLPC  C31320988   4.566   0.982   3.992 -0.8831 -0.3692 -0.2373
  183SLPC  H13X20989   4.533   0.919   3.907 -2.0131  1.0028 -0.8590
  183SLPC  H13Y20990   4.471   1.035   4.015 -0.1814  1.0498 -0.5106
  183SLPC  C31420991   4.624   0.904   4.103 -0.0398 -0.7442 -0.0983
  183SLPC  H14X20992   4.712   0.846   4.067  0.9591  0.6876 -0.0369
  183SLPC  H14Y20993   4.556   0.819   4.125 -0.1220 -0.8665 -0.7859
  183SLPC  C31520994   4.665   0.979   4.228 -0.4221  0.1631  0.1705
  183SLPC  H15X20995   4.575   1.027   4.271 -0.7401  0.7525 -1.1126
  183SLPC  H15Y20996   4.727   1.067   4.204 -0.5977 -0.4036 -2.6990
  183SLPC  C31620997   4.746   0.896   4.331 -0.8133 -0.3356 -1.0990
  183SLPC  H16X20998   4.768   0.961   4.418 -2.6831  0.5263 -1.2317
  183SLPC  H16Y20999   4.842   0.866   4.284  0.1116  0.1503  0.4052
  183SLPC  C31721000   4.670   0.782   4.382  0.3311  0.4434 -0.1930
  183SLPC  H17X21001   4.647   0.716   4.295  1.4976  0.9290 -0.9067
  183SLPC  H17Y21002   4.573   0.829   4.407 -0.9476 -1.3454 -1.4945
  183SLPC  C31821003   4.719   0.710   4.500  0.6550 -0.1581  0.3854
  183SLPC  H18X21004   4.656   0.624   4.533  1.1872  0.1850  2.4659
  183SLPC  H18Y21005   4.740   0.771   4.590  1.4457  1.0961 -0.6268
  183SLPC  H18Z21006   4.817   0.679   4.459  0.4613 -0.4744  0.1585
  184SLPC     N21007   4.983   4.970   1.982 -0.5206  0.6162 -1.0366
  184SLPC   C1321008   4.971   5.093   2.060  0.3752 -0.2013  0.4711
  184SLPC  H13A21009   4.992   5.182   2.002  0.6878 -0.7500 -0.2784
  184SLPC  H13B21010   4.872   5.102   2.103  0.7675  1.4337  1.1381
  184SLPC  H13C21011   5.046   5.096   2.138 -0.9988 -1.2236  1.9052
  184SLPC   C1421012   4.866   4.953   1.886  0.6787  0.2355  0.0434
  184SLPC  H14A21013   4.884   4.874   1.816  1.4924  0.6329 -0.2066
  184SLPC  H14B21014   4.771   4.926   1.931  0.5989 -2.0076 -1.3300
  184SLPC  H14C21015   4.860   5.033   1.814  1.3612 -0.0603 -0.3453
  184SLPC   C1521016   4.979   4.845   2.064  0.7220  0.0666  0.0799
  184SLPC  H15A21017   4.904   4.851   2.141  1.0695  2.2986  0.3251
  184SLPC  H15B21018   4.958   4.757   2.006  2.9846  0.6770 -1.8186
  184SLPC  H15C21019   5.072   4.827   2.116 -0.2711 -1.2354  1.5162
  184SLPC   C1221020   5.117   4.976   1.913  0.4657 -0.2797  0.5765
  184SLPC  H12A21021   5.118   5.045   1.830  3.8840 -1.4531 -0.5312
  184SLPC  H12B21022   5.143   4.883   1.864  0.9774  0.5764 -0.8279
  184SLPC   C1121023   5.236   5.013   2.003 -0.5877  0.3566 -0.2973
  184SLPC  H11A21024   5.244   5.121   2.025 -1.2025  0.8874 -2.4548
  184SLPC  H11B21025   5.329   4.999   1.944  1.9005  1.0390  3.1673
  184SLPC     P21026   5.338   4.812   2.150  0.2468 -0.3454 -0.1731
  184SLPC   O1321027   5.248   4.733   2.241 -0.4448 -0.2968  0.0730
  184SLPC   O1421028   5.360   4.749   2.019  0.2909 -0.5301 -0.1484
  184SLPC   O1221029   5.244   4.940   2.130  0.1847 -0.2358  0.0716
  184SLPC   O1121030   5.473   4.855   2.221 -0.1686  0.0950 -0.7672
  184SLPC    C121031   5.469   4.900   2.357  0.3266 -0.0513 -0.2694
  184SLPC    HA21032   5.379   4.963   2.371 -0.0347 -0.4767 -0.6304
  184SLPC    HB21033   5.466   4.819   2.433 -1.8565 -0.7074 -0.9956
  184SLPC    C221034   5.589   4.996   2.381 -0.5991 -0.3242  0.2297
  184SLPC    HS21035   5.682   4.952   2.341  0.0597  0.7343  0.5498
  184SLPC   O2121036   5.600   5.011   2.526  0.4939  0.4749  0.3740
  184SLPC   C2121037   5.715   5.073   2.565 -0.6602 -0.5454 -0.1403
  184SLPC   O2221038   5.798   5.122   2.493  0.9891 -0.5088  0.3062
  184SLPC   C2221039   5.710   5.094   2.718  0.1981  0.3317  0.8598
  184SLPC   H2R21040   5.625   5.165   2.725 -1.0985 -0.6121 -2.8954
  184SLPC   H2S21041   5.686   4.995   2.761 -1.0313 -1.4578 -3.3661
  184SLPC    C321042   5.566   5.129   2.314 -0.7485 -0.3875  0.2983
  184SLPC    HX21043   5.540   5.116   2.207 -0.3185  3.9920 -0.5216
  184SLPC    HY21044   5.657   5.192   2.315 -1.3320  0.4729 -0.0137
  184SLPC   O3121045   5.466   5.192   2.398 -0.1079 -0.3144 -0.0294
  184SLPC   C3121046   5.380   5.282   2.339  0.0300 -0.7609  0.2127
  184SLPC   O3221047   5.372   5.305   2.221  0.5815  0.2504 -0.1061
  184SLPC   C3221048   5.311   5.366   2.443  0.6463  0.5274  0.4365
  184SLPC   H2X21049   5.342   5.334   2.545 -0.2016 -0.6345  0.3554
  184SLPC   H2Y21050   5.205   5.331   2.436 -0.0233  2.7602 -2.0896
  184SLPC   C2321051   5.849   5.126   2.772 -0.3762 -0.5853  0.1125
  184SLPC   H3R21052   5.889   5.226   2.744  1.3233 -1.1338  0.4299
  184SLPC   H3S21053   5.923   5.052   2.734  0.8151  1.4648 -1.8179
  184SLPC   C2421054   5.857   5.135   2.918  0.4031  0.3754  0.2024
  184SLPC   H4R21055   5.795   5.055   2.963  0.8864 -1.4560 -2.2217
  184SLPC   H4S21056   5.813   5.234   2.946  0.6730  0.1904  1.3511
  184SLPC   C2521057   5.996   5.120   2.967  0.1697 -0.0652  0.2781
  184SLPC   H5R21058   6.048   5.214   2.942 -0.6140  1.0765  2.6330
  184SLPC   H5S21059   6.040   5.037   2.907  0.1365  0.1639 -0.0669
  184SLPC   C2621060   6.005   5.106   3.116  0.5086 -0.5293  0.3079
  184SLPC   H6R21061   5.923   5.036   3.142  1.1828 -1.0187  1.1994
  184SLPC   H6S21062   5.985   5.204   3.163 -0.1928  1.0491 -3.0229
  184SLPC   C2721063   6.141   5.048   3.147 -0.4534  1.0133  0.4512
  184SLPC   H7R21064   6.225   5.106   3.101  0.6293 -0.3045  0.6997
  184SLPC   H7S21065   6.140   4.943   3.110 -0.6522  1.2023 -0.0936
  184SLPC   C2821066   6.179   5.035   3.294 -0.2344  0.2859 -0.0906
  184SLPC   H8R21067   6.196   5.139   3.332 -0.6003  0.8454 -1.4022
  184SLPC   H8S21068   6.278   4.988   3.308 -0.1262  0.6503  0.4106
  184SLPC   C2921069   6.073   4.961   3.382  0.0443 -0.3100  0.8215
  184SLPC   H9R21070   5.974   5.010   3.385 -0.0266 -0.3029 -0.8152
  184SLPC  C21021071   6.091   4.848   3.456 -0.3418  0.1617 -0.0176
  184SLPC  H10R21072   5.999   4.809   3.503 -0.0459 -0.6602 -0.1177
  184SLPC  C21121073   6.223   4.774   3.471 -0.0710 -1.0419  0.3213
  184SLPC  H11R21074   6.300   4.843   3.509 -1.6554  2.9766 -3.0057
  184SLPC  H11S21075   6.274   4.749   3.375  1.9534  0.2077  1.0220
  184SLPC  C21221076   6.208   4.641   3.548  0.0427 -0.4104 -1.1421
  184SLPC  H12R21077   6.165   4.559   3.489 -0.3083 -0.6319 -0.5821
  184SLPC  C21321078   6.256   4.613   3.676  0.3088  0.0644  0.1776
  184SLPC  H13R21079   6.241   4.514   3.722 -0.2791  0.6182  1.2351
  184SLPC  C21421080   6.322   4.720   3.759  0.7717  0.3504  0.0760
  184SLPC  H14R21081   6.246   4.792   3.798  0.4169 -0.2894  0.5868
  184SLPC  H14S21082   6.409   4.781   3.726 -0.3655  1.5494 -0.8270
  184SLPC  C21521083   6.362   4.650   3.892  0.2952 -0.8108 -0.3952
  184SLPC  H15R21084   6.400   4.726   3.963 -1.9362 -1.2483  1.3510
  184SLPC  H15S21085   6.439   4.574   3.865  1.4115  0.1844 -0.0992
  184SLPC  C21621086   6.239   4.598   3.969 -0.6265  0.3541  0.4684
  184SLPC  H16R21087   6.229   4.487   3.971  0.7900  0.0399 -2.9381
  184SLPC  H16S21088   6.147   4.647   3.929  0.1419  2.7086  1.4259
  184SLPC  C21721089   6.239   4.641   4.119  0.0522 -0.3245 -0.0813
  184SLPC  H17R21090   6.141   4.606   4.159 -0.9948 -0.7792 -2.7615
  184SLPC  H17S21091   6.240   4.752   4.117 -2.5515 -0.2247 -0.3105
  184SLPC  C21821092   6.358   4.589   4.196  0.2086 -0.2290 -0.1742
  184SLPC  H18R21093   6.333   4.617   4.300 -0.9586 -1.0397 -0.2205
  184SLPC  H18S21094   6.462   4.617   4.166  0.3872  0.4722  1.0337
  184SLPC  H18T21095   6.355   4.479   4.183 -0.7535 -0.0199 -2.0479
  184SLPC   C3321096   5.308   5.514   2.415 -0.0853  0.2125 -0.0732
  184SLPC   H3X21097   5.216   5.534   2.357  0.9487 -2.6213 -2.9827
  184SLPC   H3Y21098   5.400   5.537   2.357 -0.0849  1.7108  0.4753
  184SLPC   C3421099   5.312   5.598   2.542  0.5601 -0.0552  0.1799
  184SLPC   H4X21100   5.398   5.577   2.609  0.6635  0.9517  0.3775
  184SLPC   H4Y21101   5.217   5.584   2.598  1.4683  0.2550  1.8671
  184SLPC   C3521102   5.334   5.745   2.519  0.5444 -0.3157  0.2610
  184SLPC   H5X21103   5.243   5.780   2.467  0.3543  0.8123  1.3104
  184SLPC   H5Y21104   5.416   5.756   2.444 -0.6974 -0.8254 -1.2114
  184SLPC   C3621105   5.364   5.828   2.648 -0.3225 -0.0513 -0.0406
  184SLPC   H6X21106   5.372   5.931   2.606  0.5277  0.4152  1.2277
  184SLPC   H6Y21107   5.464   5.800   2.688  0.3023  1.3391 -0.5438
  184SLPC   C3721108   5.248   5.820   2.741 -0.1753  0.2627  0.2864
  184SLPC   H7X21109   5.217   5.718   2.773 -1.8735  1.4021  2.4687
  184SLPC   H7Y21110   5.161   5.850   2.679  0.9032 -0.9407 -1.9858
  184SLPC   C3821111   5.276   5.903   2.867 -0.0277 -0.1500 -0.1904
  184SLPC   H8X21112   5.304   6.006   2.838  1.7303 -0.2627  0.9541
  184SLPC   H8Y21113   5.365   5.866   2.923  1.7274  1.8721 -1.5152
  184SLPC   C3921114   5.154   5.905   2.970 -0.6634 -0.2299  0.9649
  184SLPC   H9X21115   5.140   5.801   3.009  0.1345 -0.9108 -0.4762
  184SLPC   H9Y21116   5.059   5.926   2.917 -0.1480  0.5056  0.3204
  184SLPC  C31021117   5.173   6.004   3.082 -0.1444  0.0195 -0.3902
  184SLPC  H10X21118   5.169   6.103   3.032 -1.5862  0.7501  1.0736
  184SLPC  H10Y21119   5.272   5.996   3.133  0.3665 -1.1285 -1.5188
  184SLPC  C31121120   5.057   6.008   3.187  0.3583  0.3680 -0.1498
  184SLPC  H11X21121   5.022   5.908   3.219 -2.1887  1.6292  1.4101
  184SLPC  H11Y21122   4.974   6.062   3.136 -0.7061 -0.4838  0.6342
  184SLPC  C31221123   5.087   6.077   3.317 -0.0099 -0.6498 -0.1924
  184SLPC  H12X21124   5.003   6.116   3.378  0.8111  0.9690 -0.0587
  184SLPC  H12Y21125   5.152   6.164   3.298  0.3017 -1.3518 -2.8544
  184SLPC  C31321126   5.159   5.979   3.413  0.9228  0.1559  0.0631
  184SLPC  H13X21127   5.234   5.913   3.363  0.9906 -0.4024  0.8849
  184SLPC  H13Y21128   5.082   5.916   3.463  0.2370 -0.1701 -1.3478
  184SLPC  C31421129   5.244   6.044   3.526 -0.1196 -0.8372  0.4576
  184SLPC  H14X21130   5.183   6.122   3.576  1.7215  1.8828 -1.2818
  184SLPC  H14Y21131   5.328   6.097   3.477  1.2606 -0.4454  3.0614
  184SLPC  C31521132   5.308   5.951   3.630 -0.2239 -0.5436  0.2429
  184SLPC  H15X21133   5.384   6.007   3.687  1.7487 -0.2798 -2.4695
  184SLPC  H15Y21134   5.371   5.871   3.586  0.2622 -2.5201  4.0750
  184SLPC  C31621135   5.207   5.889   3.726  0.0462 -0.4379 -0.2856
  184SLPC  H16X21136   5.179   5.787   3.693 -0.0393  0.1110 -2.0422
  184SLPC  H16Y21137   5.114   5.951   3.728  1.4865  1.8059  1.1172
  184SLPC  C31721138   5.256   5.878   3.875 -0.2630 -0.0742 -0.5779
  184SLPC  H17X21139   5.166   5.856   3.936  1.4475  0.6901  2.4372
  184SLPC  H17Y21140   5.289   5.978   3.911  0.8749 -0.9365  0.9411
  184SLPC  C31821141   5.368   5.775   3.906  0.1419 -0.5471  0.5124
  184SLPC  H18X21142   5.455   5.798   3.840 -1.5709  0.5899 -1.4809
  184SLPC  H18Y21143   5.338   5.671   3.882 -0.3751 -0.8133  2.1903
  184SLPC  H18Z21144   5.388   5.779   4.015 -1.1704 -0.4626  0.7612
  185POPC     N21145   2.170   6.354   6.897 -0.2152  0.0089 -0.6546
  185POPC   C1221146   2.062   6.338   6.791  0.1307 -0.4634  0.3914
  185POPC  H12A21147   1.963   6.331   6.834  0.5276 -0.6103  1.2950
  185POPC  H12B21148   2.079   6.245   6.740  2.0792 -0.3271  0.7439
  185POPC   C1321149   2.190   6.223   6.964  0.3857 -0.6166  0.9861
  185POPC  H13A21150   2.099   6.166   6.966  0.3210 -0.4984  1.9615
  185POPC  H13B21151   2.273   6.168   6.922 -0.2238 -0.7741 -0.0417
  185POPC  H13C21152   2.205   6.233   7.070  0.5549  0.0028  0.9085
  185POPC   C1421153   2.295   6.393   6.825 -0.2224 -0.2908 -1.0725
  185POPC  H14A21154   2.312   6.317   6.750 -3.0350 -1.6958 -0.4552
  185POPC  H14B21155   2.282   6.487   6.773 -4.7392  0.6679  1.2436
  185POPC  H14C21156   2.384   6.389   6.885  1.2474 -2.8973 -3.2041
  185POPC   C1521157   2.136   6.457   6.998  0.3540 -0.7391 -0.1794
  185POPC  H15A21158   2.082   6.428   7.087  1.1678 -0.2878  0.4737
  185POPC  H15B21159   2.074   6.520   6.937  0.7016 -0.5634 -0.3539
  185POPC  H15C21160   2.217   6.521   7.030  1.0399 -1.7970  0.2613
  185POPC   C1121161   2.056   6.443   6.677  0.4571 -0.0355 -0.3029
  185POPC  H11A21162   1.974   6.424   6.605  0.7951 -0.6187 -0.5390
  185POPC  H11B21163   2.152   6.431   6.623  0.8085 -1.9910  0.6560
  185POPC     P21164   2.122   6.692   6.725  0.3817  0.0617  0.3329
  185POPC   O1321165   2.241   6.657   6.646  0.1053  0.4656 -0.1083
  185POPC   O1421166   2.131   6.738   6.866  0.1544 -0.0925  0.2647
  185POPC   O1221167   2.023   6.572   6.724 -0.3440 -0.4949 -0.1734
  185POPC   O1121168   2.043   6.801   6.637  0.0949  0.0579 -0.2734
  185POPC    C121169   1.972   6.749   6.523  0.0770 -0.1697 -0.0346
  185POPC    HA21170   1.895   6.824   6.495  0.2468 -0.6328 -1.8548
  185POPC    HB21171   1.913   6.658   6.546  1.1285 -1.4299 -2.0291
  185POPC    C221172   2.055   6.731   6.396  0.0657  0.3594 -0.4344
  185POPC    HS21173   2.112   6.638   6.416 -1.6996 -0.5854  0.5484
  185POPC   O2121174   2.142   6.845   6.369 -0.4470  0.1099  0.1440
  185POPC   C2121175   2.255   6.805   6.309 -0.0816 -0.3096  1.2676
  185POPC   O2221176   2.279   6.691   6.284  0.1849  0.3704  0.2787
  185POPC   C2221177   2.346   6.925   6.297  0.1294  0.0621 -0.2361
  185POPC   H2R21178   2.359   6.963   6.400 -4.0659  1.7214 -0.0928
  185POPC   H2S21179   2.295   7.001   6.234 -0.4641 -1.6056 -1.8935
  185POPC    C321180   1.969   6.697   6.277  0.3578 -0.2988  0.2964
  185POPC    HX21181   2.020   6.660   6.186 -0.3321  1.3215 -0.8091
  185POPC    HY21182   1.924   6.795   6.250  1.5669  0.3397  0.5561
  185POPC   O3121183   1.853   6.618   6.308 -0.2187  0.1437  0.0286
  185POPC   C3121184   1.873   6.488   6.311  0.4441  0.9360 -0.1195
  185POPC   O3221185   1.975   6.427   6.299 -0.0666  0.0793 -0.5920
  185POPC   C3221186   1.742   6.420   6.344 -0.1858  0.0423  0.1104
  185POPC   H2X21187   1.694   6.475   6.427  2.1020  2.9936 -0.3215
  185POPC   H2Y21188   1.753   6.317   6.384  2.3491 -0.0121 -0.5024
  185POPC   C2321189   2.479   6.895   6.223 -0.1135 -0.3692 -0.0345
  185POPC   H3R21190   2.475   6.807   6.155  1.1178  0.4268 -1.1913
  185POPC   H3S21191   2.547   6.870   6.307 -1.2635 -1.8979  0.4879
  185POPC   C2421192   2.527   7.017   6.148 -0.2635 -0.2116  0.4886
  185POPC   H4R21193   2.529   7.102   6.219  2.3137  2.3897 -2.4529
  185POPC   H4S21194   2.452   7.041   6.069  0.6232  1.0333 -0.0026
  185POPC   C2521195   2.662   7.005   6.074 -0.6077  0.2616  0.0651
  185POPC   H5R21196   2.744   7.007   6.148  1.9717 -2.7027 -2.4565
  185POPC   H5S21197   2.671   7.094   6.008  1.4829  0.1887  0.1912
  185POPC   C2621198   2.676   6.877   5.988 -0.7017  0.2460 -1.0000
  185POPC   H6R21199   2.585   6.843   5.935  0.1296  1.5069 -3.4163
  185POPC   H6S21200   2.692   6.793   6.058 -1.3007  1.9365  1.2946
  185POPC   C2721201   2.810   6.885   5.903 -0.3494 -0.1756 -0.7216
  185POPC   H7R21202   2.877   6.857   5.988 -0.9038 -0.6447 -0.4323
  185POPC   H7S21203   2.823   6.992   5.876  2.2624 -0.6151 -1.4195
  185POPC   C2821204   2.829   6.804   5.768 -0.0216  0.1024 -0.8808
  185POPC   H8R21205   2.744   6.840   5.707  0.4837  0.8441 -1.1590
  185POPC   H8S21206   2.827   6.696   5.794 -2.2823  0.7321  2.1303
  185POPC   C2921207   2.959   6.849   5.710 -0.1801  0.2031 -0.1313
  185POPC   H9121208   3.034   6.882   5.784  0.1864  1.6078 -1.0852
  185POPC  C21021209   2.990   6.855   5.575 -0.5230 -0.3760 -0.0502
  185POPC  H10121210   3.086   6.892   5.538 -1.8621  0.7596 -2.6489
  185POPC  C21121211   2.900   6.817   5.470 -0.6810  0.2191  0.3461
  185POPC  H11R21212   2.797   6.848   5.497 -0.8934 -0.8727  0.8013
  185POPC  H11S21213   2.901   6.706   5.468  0.6068  0.1988 -1.9605
  185POPC  C21221214   2.935   6.871   5.325  0.4439 -0.0649 -0.4300
  185POPC  H12R21215   2.868   6.823   5.251  2.0411  0.2489 -2.1658
  185POPC  H12S21216   3.035   6.835   5.294 -0.0235 -1.5814 -0.2430
  185POPC  C21321217   2.916   7.021   5.304  0.8651 -0.6518  0.0034
  185POPC  H13R21218   3.007   7.068   5.349  0.2492  0.0782  0.5255
  185POPC  H13S21219   2.818   7.043   5.353  1.0629  1.7031 -0.5229
  185POPC  C21421220   2.915   7.052   5.154  1.1358 -0.1693 -0.2860
  185POPC  H14R21221   2.876   7.155   5.134 -0.5090 -0.2348  2.0799
  185POPC  H14S21222   2.845   6.975   5.117 -0.5530  0.1856  1.8954
  185POPC  C21521223   3.056   7.044   5.096  0.3358 -0.0732 -0.4463
  185POPC  H15R21224   3.091   6.942   5.123  1.3582  0.2348 -0.5593
  185POPC  H15S21225   3.118   7.121   5.147 -0.7256  1.7889 -1.8384
  185POPC  C21621226   3.056   7.065   4.944  0.3650  0.3088  0.7348
  185POPC  H16R21227   3.039   7.171   4.916  1.3669  0.1603 -0.5601
  185POPC  H16S21228   2.980   7.001   4.895  2.2715 -1.5365  0.0114
  185POPC  C21721229   3.196   7.041   4.875  0.3687  0.4055  0.6047
  185POPC  H17R21230   3.241   6.948   4.915  0.1562  1.3280  3.1136
  185POPC  H17S21231   3.276   7.113   4.902 -0.2479  1.3160  0.0739
  185POPC  C21821232   3.184   7.028   4.723  0.0150 -0.0890  0.2393
  185POPC  H18R21233   3.155   7.126   4.682  1.2495  1.3679  2.6188
  185POPC  H18S21234   3.116   6.948   4.686 -0.5429 -0.0134  1.0667
  185POPC  H18T21235   3.285   7.006   4.684  1.1335  0.1658  2.8080
  185POPC   C3321236   1.639   6.417   6.224  0.0643 -0.5665 -0.3762
  185POPC   H3X21237   1.614   6.520   6.190 -1.2060 -0.7079  0.0882
  185POPC   H3Y21238   1.544   6.377   6.267 -1.8992  3.2588 -0.7363
  185POPC   C3421239   1.677   6.338   6.101  0.6197  0.1842 -0.5907
  185POPC   H4X21240   1.681   6.231   6.128 -1.8191  0.2298  0.2010
  185POPC   H4Y21241   1.781   6.354   6.066  1.2036 -0.7377  0.6567
  185POPC   C3521242   1.583   6.347   5.977  0.0625  0.0438  0.0274
  185POPC   H5X21243   1.562   6.453   5.952 -0.3321  0.1642  0.8316
  185POPC   H5Y21244   1.487   6.304   6.013 -1.1235  2.2001 -0.3973
  185POPC   C3621245   1.633   6.263   5.861  0.0999 -0.5545 -0.8781
  185POPC   H6X21246   1.668   6.167   5.906  0.9756  0.7981  1.4752
  185POPC   H6Y21247   1.729   6.306   5.824  1.4911 -2.1291  0.6749
  185POPC   C3721248   1.527   6.258   5.750 -0.2248 -0.0987  0.4865
  185POPC   H7X21249   1.509   6.363   5.717  1.4189 -0.5312 -2.0784
  185POPC   H7Y21250   1.436   6.210   5.791 -0.2635 -0.4073  0.0555
  185POPC   C3821251   1.569   6.174   5.622 -0.3594  0.0598 -0.1404
  185POPC   H8X21252   1.573   6.067   5.654 -2.6003  0.3494  1.3030
  185POPC   H8Y21253   1.669   6.200   5.582  0.3081 -2.4884 -0.2948
  185POPC   C3921254   1.460   6.179   5.516 -0.0737  0.1398 -0.3114
  185POPC   H9X21255   1.432   6.285   5.496 -0.3499  1.2094  4.4648
  185POPC   H9Y21256   1.375   6.122   5.560 -0.9802  1.7918  0.1666
  185POPC  C31021257   1.502   6.103   5.380  0.3827 -0.4728  0.5825
  185POPC  H10X21258   1.532   5.997   5.395 -1.3518 -0.7740  2.3618
  185POPC  H10Y21259   1.586   6.159   5.332 -0.0115 -1.6718 -1.6102
  185POPC  C31121260   1.389   6.119   5.275 -0.6232  0.8082  0.4817
  185POPC  H11X21261   1.383   6.223   5.236  1.1754  0.3735 -1.1268
  185POPC  H11Y21262   1.289   6.088   5.311 -1.1184  1.1767 -0.5265
  185POPC  C31221263   1.405   6.024   5.147  0.4301  0.3791 -0.4399
  185POPC  H12X21264   1.378   5.923   5.183 -0.2070  0.3831 -0.8906
  185POPC  H12Y21265   1.514   6.031   5.129  0.6384  2.1901  1.2585
  185POPC  C31321266   1.304   6.043   5.035  0.0202 -0.2100 -0.1350
  185POPC  H13X21267   1.331   6.140   4.989  1.0985  0.0368  0.9819
  185POPC  H13Y21268   1.205   6.056   5.084 -0.1958 -0.6877 -0.4385
  185POPC  C31421269   1.321   5.929   4.933  0.5722 -0.4675  0.4551
  185POPC  H14X21270   1.239   5.942   4.859  1.1885  1.9117  0.0866
  185POPC  H14Y21271   1.306   5.833   4.986 -1.4040 -0.5256 -0.1501
  185POPC  C31521272   1.450   5.941   4.845 -0.2731  0.3266  0.0188
  185POPC  H15X21273   1.537   5.946   4.914 -0.7999  0.2612  0.7008
  185POPC  H15Y21274   1.430   6.042   4.803 -2.7886  0.0513  0.3717
  185POPC  C31621275   1.449   5.830   4.738 -0.0642 -0.0121 -0.0792
  185POPC  H16X21276   1.536   5.847   4.670 -0.2461  1.1001 -0.0477
  185POPC  H16Y21277   1.356   5.823   4.677 -0.9078  1.3368  0.9950
  185POPC  H16Z21278   1.470   5.735   4.792 -0.0412  0.5247  0.8735
  186POPC     N21279   3.606   3.672   6.395  0.4985 -0.0034  0.5084
  186POPC   C1221280   3.647   3.816   6.389 -0.5192 -0.3582 -0.0880
  186POPC  H12A21281   3.587   3.876   6.455  0.9764  0.6780  0.3744
  186POPC  H12B21282   3.634   3.854   6.289  0.0954  1.2736  0.4244
  186POPC   C1321283   3.457   3.659   6.385  0.5695  0.2796  0.5465
  186POPC  H13A21284   3.426   3.681   6.283 -1.6200  1.7848  1.4572
  186POPC  H13B21285   3.432   3.558   6.410 -0.3234  0.1922 -0.5972
  186POPC  H13C21286   3.397   3.727   6.444 -1.6367 -0.0672 -1.1738
  186POPC   C1421287   3.673   3.595   6.290 -0.0868  0.0282 -0.0113
  186POPC  H14A21288   3.633   3.614   6.192  0.5164 -0.5427 -0.3826
  186POPC  H14B21289   3.777   3.623   6.281 -0.0424  0.5703  1.8570
  186POPC  H14C21290   3.657   3.488   6.292 -1.5969  0.2460  0.5275
  186POPC   C1521291   3.642   3.613   6.525  0.1429  0.7239 -0.3603
  186POPC  H15A21292   3.614   3.675   6.609 -1.9708 -1.0924  0.3758
  186POPC  H15B21293   3.750   3.603   6.529 -0.0273 -0.9399  1.6190
  186POPC  H15C21294   3.595   3.516   6.534 -0.7381  1.1730  0.0033
  186POPC   C1121295   3.790   3.849   6.424 -0.5891  0.3858  0.8370
  186POPC  H11A21296   3.826   3.825   6.526  0.7899 -0.9974  0.0574
  186POPC  H11B21297   3.794   3.959   6.406 -2.0231  0.1615 -1.2874
  186POPC     P21298   3.942   3.825   6.193  0.0630 -0.0128  0.1224
  186POPC   O1321299   3.958   3.715   6.100  0.4667  0.0910 -0.4643
  186POPC   O1421300   4.057   3.907   6.222 -0.4860 -0.4010 -0.1278
  186POPC   O1221301   3.885   3.780   6.333 -0.4073  0.1012  0.8750
  186POPC   O1121302   3.830   3.924   6.146  0.1965 -0.4659 -0.2361
  186POPC    C121303   3.721   3.884   6.062  0.8486  0.5092  0.0800
  186POPC    HA21304   3.646   3.965   6.072 -0.9191 -1.1538  1.0342
  186POPC    HB21305   3.666   3.796   6.103  1.3290  0.4303  0.5787
  186POPC    C221306   3.756   3.877   5.909 -0.1164 -0.1219 -0.3750
  186POPC    HS21307   3.829   3.794   5.904  1.0684  0.8330  0.2150
  186POPC   O2121308   3.823   3.996   5.871  0.1008 -0.0349 -0.0567
  186POPC   C2121309   3.921   3.966   5.773  0.2963  0.4396  0.1969
  186POPC   O2221310   3.943   3.858   5.730 -0.0933  0.2824 -0.0834
  186POPC   C2221311   4.001   4.086   5.741 -0.2922 -0.1761 -0.3818
  186POPC   H2R21312   4.037   4.129   5.837 -1.3290  0.4493 -0.2587
  186POPC   H2S21313   3.942   4.161   5.683  1.4732  1.1426 -0.5817
  186POPC    C321314   3.624   3.866   5.814 -0.4563 -0.2308 -0.3156
  186POPC    HX21315   3.576   3.965   5.832 -1.2135 -1.1472  3.8073
  186POPC    HY21316   3.562   3.784   5.856 -2.0912 -0.3598 -2.7882
  186POPC   O3121317   3.654   3.848   5.674  0.0311  0.0186 -0.3516
  186POPC   C3121318   3.698   3.728   5.639 -0.4066 -0.1497 -0.6834
  186POPC   O3221319   3.692   3.628   5.718  0.3485 -0.1632 -0.5987
  186POPC   C3221320   3.736   3.725   5.493  0.1919 -0.4629 -0.0265
  186POPC   H2X21321   3.789   3.820   5.473  0.7566 -0.9586 -0.9477
  186POPC   H2Y21322   3.645   3.728   5.430  0.3489 -0.8831 -0.2791
  186POPC   C2321323   4.135   4.057   5.665 -0.5338  0.1122 -0.0350
  186POPC   H3R21324   4.111   3.990   5.580  0.7055 -1.5975  0.8922
  186POPC   H3S21325   4.194   3.986   5.727  1.5546  0.1791 -1.8389
  186POPC   C2421326   4.218   4.170   5.612 -0.5003 -0.7809 -0.6847
  186POPC   H4R21327   4.287   4.203   5.693 -0.7922  1.3977 -1.2439
  186POPC   H4S21328   4.156   4.260   5.593  2.6619  1.6586 -0.3304
  186POPC   C2521329   4.300   4.118   5.501  0.8518  0.5476  0.5238
  186POPC   H5R21330   4.235   4.067   5.427 -0.8923 -0.4358  2.6097
  186POPC   H5S21331   4.369   4.046   5.550 -0.5904 -1.5184 -0.3630
  186POPC   C2621332   4.385   4.238   5.445  0.0034  0.4763 -0.7990
  186POPC   H6R21333   4.474   4.195   5.393 -1.6658 -1.8715 -1.8882
  186POPC   H6S21334   4.428   4.298   5.528  2.1077  1.4707 -2.4920
  186POPC   C2721335   4.295   4.321   5.352 -0.0209 -0.0375 -0.2054
  186POPC   H7R21336   4.361   4.406   5.324 -1.0845  0.3490 -1.6897
  186POPC   H7S21337   4.204   4.366   5.400  0.6550  0.9873  0.1570
  186POPC   C2821338   4.246   4.253   5.226 -0.6529 -0.4935 -0.1371
  186POPC   H8R21339   4.178   4.169   5.252  0.1270 -1.6553 -1.6933
  186POPC   H8S21340   4.332   4.227   5.161 -1.1312  0.8846 -1.3789
  186POPC   C2921341   4.154   4.339   5.147 -0.8106 -0.3470  0.0326
  186POPC   H9121342   4.137   4.442   5.183  0.0220 -0.2189  0.0630
  186POPC  C21021343   4.096   4.290   5.034  0.3164  0.4932  0.0318
  186POPC  H10121344   4.021   4.355   4.989  0.2450  1.9564  2.1132
  186POPC  C21121345   4.105   4.152   4.978  0.7129  0.2984  0.0132
  186POPC  H11R21346   4.018   4.091   5.010  0.4205  0.1264 -1.0545
  186POPC  H11S21347   4.192   4.097   5.021  1.3855  0.3294 -1.2497
  186POPC  C21221348   4.114   4.145   4.824 -0.3343  0.3826  0.1092
  186POPC  H12R21349   4.168   4.051   4.801 -0.5562 -0.1783  1.7573
  186POPC  H12S21350   4.183   4.223   4.785  1.7623 -2.5396 -2.6141
  186POPC  C21321351   3.977   4.157   4.745  0.1327  0.1002 -0.2103
  186POPC  H13R21352   3.923   4.238   4.799  0.0942 -0.2470  0.2717
  186POPC  H13S21353   3.931   4.057   4.753  1.2296 -0.4360 -0.4058
  186POPC  C21421354   4.005   4.202   4.600  0.1314  0.1936  0.5088
  186POPC  H14R21355   4.073   4.131   4.549  0.9371  2.1483 -1.2495
  186POPC  H14S21356   4.055   4.301   4.597  0.8200 -0.1544  0.4636
  186POPC  C21521357   3.876   4.217   4.527  0.1541  1.0648 -0.4376
  186POPC  H15R21358   3.817   4.297   4.576 -0.8232  0.0386  0.1156
  186POPC  H15S21359   3.808   4.129   4.537  1.3393  0.1244 -0.3427
  186POPC  C21621360   3.904   4.255   4.380  0.5522  1.0631  0.1306
  186POPC  H16R21361   3.945   4.162   4.334 -1.5129 -1.1236  2.3697
  186POPC  H16S21362   3.996   4.316   4.387  0.8383  0.5945  0.5347
  186POPC  C21721363   3.791   4.316   4.297  0.0186  0.5846  0.5886
  186POPC  H17R21364   3.692   4.278   4.329  0.3833 -0.4397  0.5207
  186POPC  H17S21365   3.818   4.288   4.193 -1.1547  0.6449  0.2508
  186POPC  C21821366   3.802   4.466   4.324  0.1377  0.1655  0.3272
  186POPC  H18R21367   3.766   4.471   4.429 -0.4139 -1.3179  0.2487
  186POPC  H18S21368   3.736   4.511   4.246  0.5515 -0.2818 -0.3000
  186POPC  H18T21369   3.903   4.509   4.313 -0.2929  1.0278 -0.4205
  186POPC   C3321370   3.831   3.609   5.450  0.3375  0.0521 -0.2662
  186POPC   H3X21371   3.799   3.508   5.482  1.2856 -0.1319  0.1390
  186POPC   H3Y21372   3.923   3.607   5.512  0.1640 -0.7410 -0.0178
  186POPC   C3421373   3.863   3.609   5.300 -1.1502  0.0744  0.3025
  186POPC   H4X21374   3.777   3.595   5.232  0.7665  1.7195 -2.6404
  186POPC   H4Y21375   3.929   3.521   5.282 -2.4478 -0.5239 -1.7911
  186POPC   C3521376   3.947   3.729   5.259 -0.2112 -1.5863  0.8802
  186POPC   H5X21377   4.031   3.749   5.329  0.5025  1.1925 -0.5829
  186POPC   H5Y21378   3.881   3.818   5.260  2.6154  0.6793  0.7442
  186POPC   C3621379   4.002   3.733   5.111 -0.1003 -0.2876 -0.1671
  186POPC   H6X21380   4.101   3.685   5.100 -0.1511 -0.4128 -0.0838
  186POPC   H6Y21381   4.006   3.841   5.088  1.7184 -0.4667 -0.8498
  186POPC   C3721382   3.905   3.673   5.005 -0.1093  0.2971  0.3693
  186POPC   H7X21383   3.804   3.719   5.004 -0.1043  0.4906 -2.8279
  186POPC   H7Y21384   3.908   3.565   5.031 -2.4678  0.6490  2.4201
  186POPC   C3821385   3.959   3.701   4.861  0.2737 -0.0880  0.0476
  186POPC   H8X21386   4.063   3.662   4.853  0.2991  0.2139 -1.2270
  186POPC   H8Y21387   3.978   3.810   4.852  2.3842 -0.5750 -2.6202
  186POPC   C3921388   3.876   3.652   4.747  0.0012  0.2662  0.5249
  186POPC   H9X21389   3.772   3.693   4.739  0.5429  1.3923 -1.5146
  186POPC   H9Y21390   3.862   3.542   4.751  0.7021 -0.0322 -2.6724
  186POPC  C31021391   3.944   3.663   4.605  0.1609 -0.2681 -0.4203
  186POPC  H10X21392   3.894   3.596   4.531  1.8174 -0.4295 -1.4635
  186POPC  H10Y21393   4.043   3.613   4.610 -1.1492 -3.3326 -2.5302
  186POPC  C31121394   3.938   3.810   4.562  0.1511 -0.2262  0.0614
  186POPC  H11X21395   3.997   3.876   4.629  1.7267  0.2077 -1.6742
  186POPC  H11Y21396   3.834   3.850   4.566  0.7248  1.2447  1.4632
  186POPC  C31221397   3.995   3.827   4.423 -0.2539 -0.2005 -0.0611
  186POPC  H12X21398   3.968   3.930   4.392  0.6190  0.7679  2.1354
  186POPC  H12Y21399   3.948   3.764   4.346 -0.2471 -0.0082 -0.2239
  186POPC  C31321400   4.145   3.818   4.410  0.9444 -0.5512 -0.2396
  186POPC  H13X21401   4.161   3.717   4.367  0.1003 -0.7904 -0.0204
  186POPC  H13Y21402   4.201   3.838   4.504 -2.1437  1.4261  1.3456
  186POPC  C31421403   4.191   3.915   4.303  0.3935  0.3956 -0.1060
  186POPC  H14X21404   4.176   4.018   4.342 -2.4696 -0.1665  0.5245
  186POPC  H14Y21405   4.136   3.904   4.207 -0.0528  0.8728  0.0881
  186POPC  C31521406   4.345   3.888   4.277  0.1433 -0.8543  0.3213
  186POPC  H15X21407   4.370   3.785   4.308  1.4549 -0.8184 -0.5135
  186POPC  H15Y21408   4.398   3.954   4.350  1.0246 -0.0277 -1.0244
  186POPC  C31621409   4.377   3.924   4.134  0.0444 -0.1279 -0.1104
  186POPC  H16X21410   4.344   4.024   4.099 -1.1902 -0.2763  0.5674
  186POPC  H16Y21411   4.324   3.855   4.065 -2.1665  1.9868 -0.6844
  186POPC  H16Z21412   4.484   3.905   4.111 -0.2154 -1.9824  0.0541
  187POPC     N21413   5.310   6.169   1.814 -0.6147 -0.3210 -0.2254
  187POPC   C1221414   5.248   6.187   1.949  0.1813  0.7335 -0.9692
  187POPC  H12A21415   5.318   6.178   2.031  0.5811  2.6678 -1.0476
  187POPC  H12B21416   5.168   6.116   1.967  0.4850  0.5163 -0.4417
  187POPC   C1321417   5.389   6.041   1.813  0.5420  0.4243  0.0243
  187POPC  H13A21418   5.483   6.046   1.865  0.9943  0.2019 -0.7604
  187POPC  H13B21419   5.341   5.955   1.857  0.9576 -0.8155 -1.8402
  187POPC  H13C21420   5.414   6.013   1.712  2.1240  0.1404  0.4630
  187POPC   C1421421   5.205   6.164   1.709  0.1695 -0.1854 -0.3469
  187POPC  H14A21422   5.256   6.151   1.614  3.2379  0.3004  1.1174
  187POPC  H14B21423   5.141   6.078   1.722  0.1056 -0.1827 -0.6191
  187POPC  H14C21424   5.148   6.255   1.709  0.8149  0.2264  0.4704
  187POPC   C1521425   5.399   6.285   1.778 -0.3009 -0.2956  0.3125
  187POPC  H15A21426   5.443   6.262   1.683 -1.5118  1.5295 -0.7422
  187POPC  H15B21427   5.478   6.305   1.849 -0.2121  1.5803 -0.2653
  187POPC  H15C21428   5.334   6.369   1.764 -1.9665 -1.8666 -2.0964
  187POPC   C1121429   5.181   6.323   1.974  0.1625  0.3856  0.1017
  187POPC  H11A21430   5.249   6.408   1.951 -0.5991  0.7807 -0.7520
  187POPC  H11B21431   5.160   6.350   2.080 -1.4599  0.9273 -0.3364
  187POPC     P21432   4.928   6.258   1.965 -0.1660 -0.5435  0.3745
  187POPC   O1321433   4.889   6.164   1.862  0.0010 -0.1459  0.3370
  187POPC   O1421434   4.833   6.358   2.017  0.3810 -0.5012 -0.1070
  187POPC   O1221435   5.056   6.335   1.910  0.2868 -0.4414 -0.7428
  187POPC   O1121436   4.982   6.166   2.088 -0.4936 -0.1202  0.1251
  187POPC    C121437   4.905   6.145   2.206 -0.5008 -0.1962 -0.6649
  187POPC    HA21438   4.800   6.122   2.180 -0.6682  0.2601 -0.3801
  187POPC    HB21439   4.915   6.225   2.282  2.4267 -1.8970  0.9387
  187POPC    C221440   4.956   6.014   2.276 -0.1647  0.0014 -0.1044
  187POPC    HS21441   4.961   5.936   2.196 -1.6543  2.5410 -2.8695
  187POPC   O2121442   4.860   5.979   2.379  0.0265 -0.6115 -0.0130
  187POPC   C2121443   4.892   5.861   2.428 -1.2558  0.0230 -0.1267
  187POPC   O2221444   4.977   5.784   2.380  0.3336  0.0462 -0.3934
  187POPC   C2221445   4.788   5.833   2.536 -0.6164 -0.1859  0.4393
  187POPC   H2R21446   4.724   5.744   2.517 -0.7545  0.1499 -0.7134
  187POPC   H2S21447   4.726   5.925   2.547 -1.7255 -1.1779  3.7312
  187POPC    C321448   5.099   6.036   2.335 -0.1876  0.4565  0.0379
  187POPC    HX21449   5.173   6.030   2.252  2.0328  0.1210  1.9051
  187POPC    HY21450   5.144   5.954   2.395  0.6526  1.2925  0.5825
  187POPC   O3121451   5.107   6.155   2.404 -0.2568  0.2337 -0.5276
  187POPC   C3121452   5.085   6.149   2.539 -0.1091 -0.0193 -0.4188
  187POPC   O3221453   5.049   6.057   2.605  0.3274  0.5608  0.3925
  187POPC   C3221454   5.122   6.286   2.609 -0.0864  0.0582  0.1077
  187POPC   H2X21455   5.076   6.368   2.549  0.6889 -0.5367 -1.3520
  187POPC   H2Y21456   5.232   6.292   2.604 -0.1085 -0.0906 -0.5956
  187POPC   C2321457   4.862   5.809   2.666 -0.1915  0.0010  0.2898
  187POPC   H3R21458   4.909   5.905   2.699 -0.2972 -0.0228  0.5094
  187POPC   H3S21459   4.936   5.730   2.644 -1.0399 -0.4397 -1.0889
  187POPC   C2421460   4.766   5.775   2.784  0.1693  0.2772 -0.0895
  187POPC   H4R21461   4.694   5.692   2.768  0.3005  0.3065 -0.8554
  187POPC   H4S21462   4.706   5.868   2.795  1.8364  1.3160  0.7860
  187POPC   C2521463   4.839   5.748   2.923  0.5426  0.8630 -0.2743
  187POPC   H5R21464   4.856   5.847   2.969  2.6725  0.6544 -0.5033
  187POPC   H5S21465   4.930   5.688   2.901  0.7872 -0.0152  2.7115
  187POPC   C2621466   4.756   5.655   3.009 -0.0991  0.6434  0.2566
  187POPC   H6R21467   4.806   5.648   3.108 -0.4587  1.0793  0.4707
  187POPC   H6S21468   4.751   5.555   2.960 -2.9677 -0.0701  1.7913
  187POPC   C2721469   4.619   5.709   3.041  0.3709  0.2318 -0.6482
  187POPC   H7R21470   4.537   5.642   3.009 -0.6595  0.6610  0.9986
  187POPC   H7S21471   4.603   5.798   2.976  0.0999  0.0727 -0.8004
  187POPC   C2821472   4.610   5.747   3.190  1.3151  0.3490 -0.0758
  187POPC   H8R21473   4.629   5.652   3.244  1.0634  0.0302 -0.5424
  187POPC   H8S21474   4.503   5.776   3.204  1.4396  0.3041  1.1337
  187POPC   C2921475   4.695   5.857   3.239  0.3106 -0.8360 -0.1335
  187POPC   H9121476   4.710   5.941   3.169 -0.1242 -1.3685 -0.8703
  187POPC  C21021477   4.764   5.875   3.354  0.1152  0.2167 -0.1651
  187POPC  H10121478   4.820   5.968   3.373  0.2878  0.0735  0.0410
  187POPC  C21121479   4.791   5.774   3.467  0.5319 -0.4506  0.3905
  187POPC  H11R21480   4.900   5.772   3.490  0.9330 -1.0048 -1.3304
  187POPC  H11S21481   4.766   5.671   3.431  0.2748 -0.0022 -0.7763
  187POPC  C21221482   4.701   5.801   3.590  1.3288 -0.0020 -0.4943
  187POPC  H12R21483   4.595   5.809   3.560  0.5101  1.5050  2.4602
  187POPC  H12S21484   4.728   5.895   3.644  0.0721 -0.0877  0.3243
  187POPC  C21321485   4.720   5.690   3.697  0.1765  0.5401  0.2044
  187POPC  H13R21486   4.682   5.597   3.649  0.4489  0.8155 -0.5659
  187POPC  H13S21487   4.655   5.706   3.785  1.1411  2.2671  0.6443
  187POPC  C21421488   4.869   5.670   3.750 -0.2401  0.4259 -0.0323
  187POPC  H14R21489   4.911   5.773   3.752  0.2985  0.2028  0.3426
  187POPC  H14S21490   4.924   5.626   3.665  0.3810  2.5944 -0.8082
  187POPC  C21521491   4.874   5.592   3.870 -0.5181  0.5908 -0.1291
  187POPC  H15R21492   4.836   5.489   3.853 -0.9609  0.9742 -1.5080
  187POPC  H15S21493   4.816   5.642   3.951 -1.2160  2.2408 -1.5889
  187POPC  C21621494   5.025   5.578   3.906 -0.7671  0.0214  0.1759
  187POPC  H16R21495   5.056   5.684   3.920  0.3102  0.0447 -1.9511
  187POPC  H16S21496   5.078   5.535   3.818  0.2321 -2.3738  1.8445
  187POPC  C21721497   5.043   5.489   4.036 -0.7466  0.0438 -0.1964
  187POPC  H17R21498   5.003   5.392   3.999 -2.4415  0.5466  0.2762
  187POPC  H17S21499   4.975   5.527   4.115 -0.1808 -1.0001  0.8332
  187POPC  C21821500   5.183   5.462   4.078 -0.4009 -0.1040 -0.7027
  187POPC  H18R21501   5.232   5.394   4.004  0.7349  0.3539 -0.3994
  187POPC  H18S21502   5.179   5.410   4.176 -0.8328  0.3064 -0.5062
  187POPC  H18T21503   5.253   5.547   4.093  1.5245 -1.1308 -3.0500
  187POPC   C3321504   5.078   6.304   2.759 -0.1722  0.2152  0.5275
  187POPC   H3X21505   5.101   6.213   2.818 -1.6629  0.2823  1.2482
  187POPC   H3Y21506   4.967   6.307   2.762 -0.3585 -1.8704 -1.4622
  187POPC   C3421507   5.137   6.433   2.822 -0.5042 -0.0952 -0.1510
  187POPC   H4X21508   5.156   6.511   2.745  0.5552  0.5161  0.7120
  187POPC   H4Y21509   5.230   6.416   2.880 -0.4958  1.5272  0.3680
  187POPC   C3521510   5.059   6.507   2.938  0.3770  0.1227 -0.0773
  187POPC   H5X21511   4.960   6.536   2.898 -0.0484 -2.2503 -0.9042
  187POPC   H5Y21512   5.115   6.600   2.962 -2.0120  1.5061  0.4261
  187POPC   C3621513   5.041   6.412   3.051 -0.2532 -0.3961  0.5131
  187POPC   H6X21514   5.134   6.382   3.104  0.3765 -1.5083 -1.1547
  187POPC   H6Y21515   4.997   6.320   3.008  1.9446  0.2472 -3.6169
  187POPC   C3721516   4.934   6.464   3.145 -0.3043  0.7398 -0.0064
  187POPC   H7X21517   4.841   6.489   3.089 -0.1326  1.7409  0.1245
  187POPC   H7Y21518   4.963   6.559   3.195 -2.3844  1.0365  0.7314
  187POPC   C3821519   4.905   6.369   3.262  0.3973  0.2657 -0.2133
  187POPC   H8X21520   4.995   6.353   3.326  0.1075  2.1358  0.7584
  187POPC   H8Y21521   4.873   6.270   3.225 -1.0193  0.0932  1.3541
  187POPC   C3921522   4.797   6.422   3.359  0.2114  0.6557 -0.3344
  187POPC   H9X21523   4.694   6.434   3.318 -0.0563  0.0287  0.1436
  187POPC   H9Y21524   4.838   6.519   3.394  0.9398  0.4696 -0.6435
  187POPC  C31021525   4.782   6.335   3.484 -0.3595  0.3492 -0.0103
  187POPC  H10X21526   4.876   6.279   3.497 -0.1751  0.3900 -1.1061
  187POPC  H10Y21527   4.698   6.263   3.475  0.5654 -0.6191 -1.3169
  187POPC  C31121528   4.759   6.421   3.609 -0.1861  0.6219 -0.3541
  187POPC  H11X21529   4.697   6.509   3.582 -0.0772  0.8269  0.0621
  187POPC  H11Y21530   4.852   6.455   3.658  0.1212 -1.3203  0.4942
  187POPC  C31221531   4.683   6.347   3.729  0.0471  0.1590  0.2855
  187POPC  H12X21532   4.732   6.249   3.749  0.2627 -0.0579 -1.2027
  187POPC  H12Y21533   4.574   6.341   3.708 -0.0832 -1.4809  1.2320
  187POPC  C31321534   4.695   6.426   3.856  0.1122  0.1575 -0.4190
  187POPC  H13X21535   4.659   6.527   3.825 -0.7726 -0.0589 -0.1182
  187POPC  H13Y21536   4.800   6.444   3.885 -0.0909  1.1019 -0.2397
  187POPC  C31421537   4.601   6.373   3.966  0.4181  0.1718  0.1628
  187POPC  H14X21538   4.648   6.284   4.014 -0.6948  0.5664  2.0872
  187POPC  H14Y21539   4.501   6.343   3.930  1.0221 -0.5657 -0.9801
  187POPC  C31521540   4.583   6.476   4.081 -0.2325  0.3104  0.3779
  187POPC  H15X21541   4.479   6.454   4.112  0.1171 -0.3419  1.1234
  187POPC  H15Y21542   4.579   6.578   4.036 -0.6952 -1.0845 -3.0190
  187POPC  C31621543   4.689   6.470   4.185  0.2736  0.3101  0.0525
  187POPC  H16X21544   4.674   6.545   4.265 -1.2777 -0.4718  0.5338
  187POPC  H16Y21545   4.784   6.484   4.130 -1.3179  0.3376 -2.8767
  187POPC  H16Z21546   4.702   6.374   4.239  3.4951  0.0988 -0.9200
  188POPC     N21547   4.065   2.825   1.724  0.7394  0.0951  0.2426
  188POPC   C1221548   4.160   2.842   1.834 -0.1460  0.4365 -0.1442
  188POPC  H12A21549   4.236   2.904   1.791 -0.6277  1.8785  1.0188
  188POPC  H12B21550   4.202   2.747   1.865  0.9061  1.7085  2.6538
  188POPC   C1321551   4.016   2.947   1.653 -0.1423 -0.5419  0.9356
  188POPC  H13A21552   3.987   3.024   1.722 -1.3107 -0.4126  0.3293
  188POPC  H13B21553   4.086   2.987   1.582 -1.3974 -0.0149 -0.0477
  188POPC  H13C21554   3.931   2.921   1.591 -0.3874  1.0755  0.5564
  188POPC   C1421555   4.133   2.740   1.623 -0.1419  0.5498 -0.0152
  188POPC  H14A21556   4.197   2.664   1.666 -1.0947 -0.0135  0.4376
  188POPC  H14B21557   4.062   2.694   1.557  0.5368  0.4462 -0.6854
  188POPC  H14C21558   4.196   2.799   1.558 -0.2700  1.3324  0.5474
  188POPC   C1521559   3.944   2.760   1.771 -0.2030  0.7249 -0.5382
  188POPC  H15A21560   3.870   2.768   1.693 -1.2046 -0.6238  0.2232
  188POPC  H15B21561   3.905   2.815   1.855  0.7270  2.5771 -1.2619
  188POPC  H15C21562   3.951   2.657   1.802 -0.9043  1.4566  2.2880
  188POPC   C1121563   4.100   2.908   1.959  0.4540  0.0777  0.0990
  188POPC  H11A21564   4.171   2.907   2.045 -1.6196  1.4725  1.9427
  188POPC  H11B21565   4.009   2.858   1.999  0.9392 -1.4035 -0.5992
  188POPC     P21566   4.169   3.157   1.918  0.3156 -0.0918 -0.0232
  188POPC   O1321567   4.111   3.261   1.834  0.8863  0.3020  0.4805
  188POPC   O1421568   4.294   3.103   1.868 -0.5392 -0.0017  0.0616
  188POPC   O1221569   4.059   3.041   1.932 -0.1673  0.0206  0.2196
  188POPC   O1121570   4.188   3.210   2.070 -0.0977  0.1630 -0.5452
  188POPC    C121571   4.158   3.136   2.188  0.1636 -0.1525 -0.7889
  188POPC    HA21572   4.201   3.182   2.279 -4.3080  1.4194  0.8292
  188POPC    HB21573   4.186   3.030   2.202  2.0563  0.6493  2.4801
  188POPC    C221574   4.001   3.141   2.214  0.1248  0.2386 -0.2643
  188POPC    HS21575   3.951   3.146   2.115 -1.1596 -0.5832  0.2997
  188POPC   O2121576   3.967   3.262   2.290  0.4478 -0.1201 -0.4036
  188POPC   C2121577   3.835   3.287   2.313  0.3795 -0.1743 -0.0571
  188POPC   O2221578   3.742   3.219   2.280  0.5895  0.3129 -0.0259
  188POPC   C2221579   3.827   3.394   2.415 -0.0722  0.5781  0.4623
  188POPC   H2R21580   3.737   3.455   2.392 -0.4091  0.5791  1.7166
  188POPC   H2S21581   3.922   3.451   2.424 -0.2320  1.1671 -1.3136
  188POPC    C321582   3.963   3.016   2.286  0.7019 -0.2882 -0.2097
  188POPC    HX21583   3.990   2.925   2.229  0.6122 -0.8916  0.6948
  188POPC    HY21584   3.854   3.000   2.298  0.7453  0.7105  2.2043
  188POPC   O3121585   4.036   3.006   2.412 -0.7248  0.4601 -0.0098
  188POPC   C3121586   3.979   3.002   2.523  0.0471 -0.1610 -0.0701
  188POPC   O3221587   3.861   3.013   2.545  0.0672  0.3434 -0.2026
  188POPC   C3221588   4.081   2.987   2.633 -0.6789 -0.3615 -0.9704
  188POPC   H2X21589   4.132   2.888   2.632  1.1806  0.5497 -0.5547
  188POPC   H2Y21590   4.031   2.992   2.732  0.9870 -0.1477 -0.1028
  188POPC   C2321591   3.785   3.333   2.550 -0.1776  0.2410 -0.6440
  188POPC   H3R21592   3.856   3.257   2.590 -0.3590 -1.2001 -2.8673
  188POPC   H3S21593   3.682   3.291   2.547 -1.1575  2.2862  1.5581
  188POPC   C2421594   3.779   3.432   2.662 -0.3298  0.1216 -1.2637
  188POPC   H4R21595   3.882   3.470   2.678 -1.6813  2.9599  1.8647
  188POPC   H4S21596   3.748   3.378   2.753 -0.5502  1.6518 -0.3987
  188POPC   C2521597   3.687   3.552   2.633  0.2412 -0.3417 -0.1719
  188POPC   H5R21598   3.586   3.529   2.592 -0.1165  1.6423 -0.4683
  188POPC   H5S21599   3.744   3.620   2.567  3.9886 -1.8130  1.2634
  188POPC   C2621600   3.673   3.638   2.760  0.2778 -0.7608  0.2390
  188POPC   H6R21601   3.607   3.585   2.833 -0.5544 -1.4431 -0.9691
  188POPC   H6S21602   3.612   3.729   2.740 -3.6349 -3.1981 -0.0240
  188POPC   C2721603   3.811   3.679   2.823  0.2104  0.6315  0.3863
  188POPC   H7R21604   3.798   3.786   2.852  2.1134  0.8685  0.5100
  188POPC   H7S21605   3.898   3.663   2.756 -0.6018  0.9087 -0.7542
  188POPC   C2821606   3.834   3.603   2.957 -0.4812 -0.2869 -0.6810
  188POPC   H8R21607   3.815   3.494   2.948  1.7044 -0.7170 -0.7243
  188POPC   H8S21608   3.755   3.641   3.026  2.8111 -0.8564  3.8413
  188POPC   C2921609   3.970   3.621   3.024  0.4746 -0.2965  0.2706
  188POPC   H9121610   4.061   3.620   2.962  0.9357 -0.5006  0.9383
  188POPC  C21021611   3.995   3.644   3.154 -0.1134  0.3523 -0.7331
  188POPC  H10121612   4.102   3.652   3.178  0.1875 -1.6862 -1.1686
  188POPC  C21121613   3.903   3.665   3.274 -0.0380  0.4822 -0.4295
  188POPC  H11R21614   3.904   3.577   3.342 -3.5267  1.4137  1.0715
  188POPC  H11S21615   3.796   3.673   3.245 -0.8305 -2.8371  1.0154
  188POPC  C21221616   3.927   3.782   3.374  0.5413  0.6637 -0.4712
  188POPC  H12R21617   3.884   3.872   3.326  0.5970  0.8605 -0.1499
  188POPC  H12S21618   4.038   3.790   3.373  0.8162 -1.8246  0.9674
  188POPC  C21321619   3.859   3.770   3.513  0.1445 -0.1509  0.2805
  188POPC  H13R21620   3.882   3.665   3.541  0.9550 -0.5810 -1.8328
  188POPC  H13S21621   3.749   3.764   3.496  0.3555 -0.3575 -1.0809
  188POPC  C21421622   3.891   3.878   3.609  0.3848 -0.8857 -0.1481
  188POPC  H14R21623   3.825   3.965   3.590 -0.7477 -1.5906  0.4569
  188POPC  H14S21624   3.994   3.913   3.588 -0.1491  2.1289  1.6641
  188POPC  C21521625   3.885   3.838   3.764  0.4974 -0.2818 -0.0346
  188POPC  H15R21626   3.952   3.750   3.777 -2.8621 -3.1627 -0.7175
  188POPC  H15S21627   3.781   3.800   3.779  0.5913 -0.9430 -0.9860
  188POPC  C21621628   3.926   3.962   3.853  0.5660  0.1121 -0.1076
  188POPC  H16R21629   3.875   4.052   3.811  3.9335  1.5863 -1.3298
  188POPC  H16S21630   4.034   3.983   3.838  0.8580 -1.7157 -0.7948
  188POPC  C21721631   3.899   3.931   4.004 -0.1881  0.2733  0.1766
  188POPC  H17R21632   3.938   4.016   4.064 -0.9846  2.3697 -2.1139
  188POPC  H17S21633   3.968   3.847   4.026 -0.9434 -0.8592 -1.5614
  188POPC  C21821634   3.756   3.901   4.036 -0.1614 -0.1736  0.1256
  188POPC  H18R21635   3.717   3.961   4.121 -1.2259 -2.3274  1.2351
  188POPC  H18S21636   3.744   3.800   4.081 -0.0476 -0.1204  0.2771
  188POPC  H18T21637   3.684   3.918   3.953  1.8661 -0.0260 -1.6916
  188POPC   C3321638   4.189   3.102   2.632 -1.2020 -0.1131  0.0914
  188POPC   H3X21639   4.242   3.105   2.535  0.4691 -0.1048  0.9793
  188POPC   H3Y21640   4.264   3.063   2.703 -1.3052  0.0023  0.2641
  188POPC   C3421641   4.141   3.241   2.670 -0.1227  0.3482 -0.5984
  188POPC   H4X21642   4.073   3.287   2.595 -0.0865  3.5341  1.1717
  188POPC   H4Y21643   4.234   3.301   2.663  0.7278 -0.5431  1.9935
  188POPC   C3521644   4.076   3.246   2.815 -0.1564  0.2338  0.3644
  188POPC   H5X21645   4.004   3.164   2.834  1.0209 -0.7819  0.6439
  188POPC   H5Y21646   4.032   3.347   2.829 -0.7640  0.2926 -1.6019
  188POPC   C3621647   4.184   3.242   2.921 -0.0670  0.5043  0.4346
  188POPC   H6X21648   4.250   3.332   2.918  1.8631 -0.7183  2.4816
  188POPC   H6Y21649   4.254   3.157   2.903 -0.5966 -0.1532  1.3681
  188POPC   C3721650   4.131   3.229   3.062  0.5393 -0.4259  0.8435
  188POPC   H7X21651   4.122   3.122   3.091 -1.1647 -0.3365  0.7688
  188POPC   H7Y21652   4.029   3.274   3.061 -0.1954 -1.9366 -1.4759
  188POPC   C3821653   4.225   3.287   3.167  0.0377  0.4082 -0.3293
  188POPC   H8X21654   4.243   3.395   3.147  2.2023 -0.0931 -1.3783
  188POPC   H8Y21655   4.321   3.231   3.165 -0.9659 -1.3636 -2.0870
  188POPC   C3921656   4.164   3.263   3.312 -0.4216 -0.3327 -0.2819
  188POPC   H9X21657   4.181   3.155   3.326 -0.1595 -0.3465 -0.6993
  188POPC   H9Y21658   4.057   3.295   3.317 -0.2187  0.2121  2.7327
  188POPC  C31021659   4.248   3.334   3.421 -0.4154  0.1886 -1.1193
  188POPC  H10X21660   4.240   3.444   3.408 -1.7854  0.3643  0.7130
  188POPC  H10Y21661   4.353   3.300   3.409 -0.5728  0.4155 -3.5934
  188POPC  C31121662   4.195   3.301   3.555 -0.8834 -0.0886 -0.6835
  188POPC  H11X21663   4.203   3.192   3.574  0.7852  0.4595  2.4423
  188POPC  H11Y21664   4.089   3.324   3.580 -1.1335 -1.0843 -0.7971
  188POPC  C31221665   4.280   3.359   3.668 -0.1356  0.0546  0.4015
  188POPC  H12X21666   4.324   3.459   3.647 -0.8272 -0.0827 -1.9878
  188POPC  H12Y21667   4.370   3.294   3.683 -0.3409 -0.1167  0.9318
  188POPC  C31321668   4.213   3.354   3.802  0.2540  0.9951  0.2410
  188POPC  H13X21669   4.225   3.254   3.849  0.2856  1.2778  0.8304
  188POPC  H13Y21670   4.103   3.365   3.797 -0.1372 -0.8508  2.8320
  188POPC  C31421671   4.280   3.442   3.911 -0.3995  0.3036  0.3062
  188POPC  H14X21672   4.298   3.545   3.873 -1.4427  0.0483 -0.9137
  188POPC  H14Y21673   4.371   3.391   3.950 -1.7361 -1.8536  0.7368
  188POPC  C31521674   4.169   3.462   4.005 -0.2336 -0.3154 -0.4596
  188POPC  H15X21675   4.121   3.367   4.035  0.8465 -0.2048  1.7857
  188POPC  H15Y21676   4.098   3.537   3.963 -1.5478 -1.0593  0.3707
  188POPC  C31621677   4.211   3.508   4.143 -0.5691 -0.4443 -0.1473
  188POPC  H16X21678   4.261   3.606   4.131 -1.0052 -0.3091 -0.9360
  188POPC  H16Y21679   4.279   3.440   4.200 -0.0528  0.7671  0.7214
  188POPC  H16Z21680   4.127   3.534   4.212  1.2438  1.1325  1.5822
  189SAPI   C1221681   3.072   4.275   6.558 -0.4438 -0.2598  0.4080
  189SAPI    H221682   3.091   4.280   6.449 -2.9767 -0.5395 -0.0888
  189SAPI    O221683   3.082   4.409   6.614 -0.2280 -0.2513 -0.5916
  189SAPI   HO221684   3.151   4.451   6.563 -0.8184 -0.7341 -1.8157
  189SAPI   C1321685   2.932   4.226   6.577  0.2508  0.2555  0.2008
  189SAPI    H321686   2.931   4.123   6.536  1.6437  0.1431  0.4045
  189SAPI    O321687   2.845   4.311   6.495  0.2227  0.7602  0.4929
  189SAPI   HO321688   2.833   4.399   6.530 -1.7763  0.6272  0.2225
  189SAPI   C1421689   2.891   4.214   6.723 -0.6506  0.8440 -0.0586
  189SAPI    H421690   2.857   4.318   6.743 -2.3024  0.2936  0.1850
  189SAPI    O421691   2.772   4.133   6.736  0.0800  0.0774 -0.4288
  189SAPI   HO421692   2.698   4.185   6.703  1.0101  2.4169  0.8824
  189SAPI   C1521693   2.997   4.175   6.821 -0.8887  0.2328  0.4564
  189SAPI    H521694   2.979   4.067   6.838 -0.2180 -0.3044 -1.9243
  189SAPI    O521695   2.976   4.239   6.942 -0.2090  0.0946 -0.2591
  189SAPI   HO521696   2.965   4.172   7.009  0.5211  0.6629  0.4518
  189SAPI   C1621697   3.146   4.175   6.772 -0.2904  0.6342  0.4876
  189SAPI    H621698   3.178   4.278   6.798 -0.1982  0.8646 -0.4886
  189SAPI    O621699   3.224   4.084   6.849  0.7647  0.9433 -0.1215
  189SAPI   HO621700   3.315   4.104   6.827  0.6541  1.5945  0.0043
  189SAPI   C1121701   3.174   4.176   6.621 -0.1839  0.5442 -0.1309
  189SAPI    H121702   3.150   4.073   6.587 -0.3222  0.9867 -1.4358
  189SAPI     P21703   3.411   4.111   6.521  0.1233 -0.1705  0.2033
  189SAPI   O1321704   3.355   3.975   6.534 -0.3294 -0.1781 -0.2750
  189SAPI   O1421705   3.552   4.126   6.568  0.4596 -0.2640  0.5202
  189SAPI   O1221706   3.306   4.213   6.592  0.2753 -0.6310 -0.6472
  189SAPI   O1121707   3.408   4.164   6.371 -0.4081 -0.4332 -0.8385
  189SAPI    C121708   3.291   4.191   6.303 -0.4507  0.1757 -0.2581
  189SAPI    HA21709   3.207   4.134   6.349  0.0437 -0.2369  0.1563
  189SAPI    HB21710   3.263   4.298   6.306 -3.0291 -0.4458  1.0196
  189SAPI    C221711   3.298   4.132   6.161 -0.0164 -0.5602  0.3602
  189SAPI    HS21712   3.338   4.029   6.158  1.7768  0.1179 -0.3290
  189SAPI   O2121713   3.372   4.228   6.079 -0.0424  0.7135 -0.0436
  189SAPI   C2121714   3.409   4.181   5.961 -0.5020  0.4690 -1.8170
  189SAPI   O2221715   3.388   4.073   5.916 -0.8930  0.1429  0.2261
  189SAPI   C2221716   3.485   4.291   5.903 -0.1861  0.6066  0.1844
  189SAPI   H2R21717   3.492   4.383   5.966 -1.0215  0.1602  0.9666
  189SAPI   H2S21718   3.593   4.265   5.898  0.2469  2.4759 -2.2672
  189SAPI    C321719   3.145   4.129   6.107  0.2263 -0.6252 -1.0826
  189SAPI    HX21720   3.100   4.228   6.123 -0.7871 -1.3280  0.5938
  189SAPI    HY21721   3.083   4.077   6.183  2.7657  0.4967  1.9838
  189SAPI   O3121722   3.117   4.087   5.974  0.2440 -0.1621  0.0826
  189SAPI   C3121723   3.113   3.956   5.966  0.0767 -0.0345 -0.0092
  189SAPI   O3221724   3.139   3.884   6.062  0.0904  0.6220 -0.4695
  189SAPI   C3221725   3.099   3.908   5.819 -0.0097  0.4776 -0.2819
  189SAPI   H2X21726   3.148   3.975   5.746 -0.6270 -0.5223 -1.6764
  189SAPI   H2Y21727   2.990   3.912   5.797  0.0222  0.8557 -0.3813
  189SAPI   C2321728   3.436   4.344   5.761  0.1455  0.5069 -0.1984
  189SAPI   H3R21729   3.529   4.384   5.716 -0.2582  0.1406 -1.4009
  189SAPI   H3S21730   3.359   4.423   5.769  1.0421  1.6383 -2.0360
  189SAPI   C2421731   3.377   4.236   5.667 -0.3017 -0.8671 -0.0778
  189SAPI   H4R21732   3.270   4.219   5.687 -0.3722 -0.6241 -0.2372
  189SAPI   H4S21733   3.432   4.140   5.678  1.0921 -0.1505 -0.5642
  189SAPI   C2521734   3.397   4.288   5.528  0.8220  0.2054 -0.8516
  189SAPI   H5R21735   3.354   4.388   5.511  0.8870  0.4768  0.4577
  189SAPI   C2621736   3.467   4.228   5.432  0.0963 -0.2492 -0.0427
  189SAPI   H6R21737   3.466   4.272   5.331 -1.4373 -3.3363 -1.5424
  189SAPI   C2721738   3.535   4.089   5.424  0.4758 -0.4046  0.0680
  189SAPI   H7R21739   3.468   4.027   5.361 -0.1734 -0.5632  0.8938
  189SAPI   H7S21740   3.536   4.043   5.525 -0.0394  1.3210  0.9020
  189SAPI   C2821741   3.671   4.103   5.357 -0.4408 -0.5503 -0.3392
  189SAPI   H8R21742   3.738   4.155   5.427 -1.8077 -1.4797  1.7267
  189SAPI   C2921743   3.712   4.060   5.239  0.4924 -0.2849 -0.0096
  189SAPI   H9R21744   3.815   4.079   5.205  0.3676  0.1810 -0.1425
  189SAPI  C21021745   3.628   4.004   5.124  0.8466  0.0397  0.3470
  189SAPI  H10R21746   3.537   4.066   5.109  0.3181 -0.1730  2.3285
  189SAPI  H10S21747   3.583   3.907   5.154  1.6047 -0.1077  1.0428
  189SAPI  C21121748   3.695   3.971   4.996 -0.8497  0.2769  1.1380
  189SAPI  H11R21749   3.804   3.954   4.998 -0.5959  0.3027 -3.0366
  189SAPI  C21221750   3.640   3.946   4.876 -0.1871  0.2917  0.6328
  189SAPI  H12R21751   3.705   3.940   4.787 -1.7225  1.4903 -0.6304
  189SAPI  C21321752   3.498   3.962   4.832  0.3833 -0.4829  0.7083
  189SAPI  H13R21753   3.491   4.058   4.777 -0.6738 -1.4788 -0.9838
  189SAPI  H13S21754   3.424   3.974   4.914 -1.1622 -2.7086 -0.2420
  189SAPI  C21421755   3.442   3.845   4.758  1.1243  1.0269  0.0631
  189SAPI  H14R21756   3.388   3.777   4.825 -0.1870  0.3949 -1.5488
  189SAPI  C21521757   3.423   3.837   4.619  0.1749 -0.1220 -0.4367
  189SAPI  H15R21758   3.380   3.746   4.575  0.6822 -0.3861 -0.3946
  189SAPI  C21621759   3.483   3.929   4.516  0.3469 -0.4974 -1.0271
  189SAPI  H16R21760   3.556   3.996   4.566 -0.0645 -0.2074 -0.8100
  189SAPI  H16S21761   3.405   3.990   4.464  1.3247  1.6006 -0.1377
  189SAPI  C21721762   3.569   3.856   4.409  0.1828 -0.1012 -0.6352
  189SAPI  H17R21763   3.613   3.776   4.473 -0.1982  0.4227  0.2824
  189SAPI  H17S21764   3.650   3.920   4.369  0.8007 -0.5636 -0.1459
  189SAPI  C21821765   3.483   3.796   4.298 -0.5333 -0.3063  0.3702
  189SAPI  H18R21766   3.391   3.754   4.344 -0.7922  0.6605  0.7623
  189SAPI  H18S21767   3.537   3.719   4.240 -0.5379  0.2299 -0.3535
  189SAPI  C21921768   3.439   3.903   4.195  0.5261 -0.1050 -0.8151
  189SAPI  H19R21769   3.525   3.967   4.165 -0.5369  1.7385 -0.1263
  189SAPI  H19S21770   3.380   3.980   4.249 -0.7319 -0.4561 -1.6395
  189SAPI  C22021771   3.360   3.849   4.078 -0.1469 -0.8640 -0.1637
  189SAPI  H20R21772   3.429   3.790   4.015 -1.3197 -0.5399 -1.8254
  189SAPI  H20S21773   3.337   3.927   4.002  0.4044 -1.4123 -0.9006
  189SAPI  H20T21774   3.265   3.798   4.105 -0.2163 -0.6234  0.0609
  189SAPI   C3321775   3.137   3.758   5.787 -0.0619 -1.2558  0.5865
  189SAPI   H3X21776   3.074   3.688   5.846 -1.1408  0.0047  0.9622
  189SAPI   H3Y21777   3.244   3.750   5.816  0.2818 -1.0294 -0.5575
  189SAPI   C3421778   3.151   3.713   5.645 -0.1445 -1.2422 -0.3859
  189SAPI   H4X21779   3.060   3.688   5.586 -0.3136 -1.7818  0.0986
  189SAPI   H4Y21780   3.204   3.616   5.649 -0.0986 -1.1809  0.7655
  189SAPI   C3521781   3.246   3.814   5.569 -0.1144 -0.4943 -0.2093
  189SAPI   H5X21782   3.319   3.863   5.636  1.5012  0.8592 -2.8032
  189SAPI   H5Y21783   3.179   3.893   5.529 -1.4771 -2.6580 -2.5102
  189SAPI   C3621784   3.326   3.752   5.455  0.6050  0.4227  0.4253
  189SAPI   H6X21785   3.384   3.668   5.498 -0.0575 -0.1213  0.2666
  189SAPI   H6Y21786   3.404   3.820   5.412  0.2550 -0.2069 -1.3203
  189SAPI   C3721787   3.229   3.704   5.347  0.3460 -0.0158  0.3504
  189SAPI   H7X21788   3.147   3.774   5.321  1.0482  0.7789  0.2246
  189SAPI   H7Y21789   3.178   3.614   5.387 -0.1600 -0.7293 -1.7690
  189SAPI   C3821790   3.302   3.664   5.212  1.0017 -0.2382  0.3889
  189SAPI   H8X21791   3.321   3.761   5.161 -4.5570  1.0377  0.0377
  189SAPI   H8Y21792   3.234   3.609   5.143  0.8429  0.1865  0.2061
  189SAPI   C3921793   3.432   3.597   5.235 -0.3303  0.1443 -0.2622
  189SAPI   H9X21794   3.423   3.493   5.272 -1.6932  0.7414  1.2304
  189SAPI   H9Y21795   3.500   3.651   5.304  0.4472 -0.6374 -0.3982
  189SAPI  C31021796   3.513   3.582   5.097  0.3387 -0.1026 -0.1990
  189SAPI  H10X21797   3.614   3.543   5.123  0.0712  0.1189  1.2955
  189SAPI  H10Y21798   3.516   3.685   5.054 -4.4004  0.2227 -0.2809
  189SAPI  C31121799   3.440   3.506   4.986  0.7714  0.3742 -0.5171
  189SAPI  H11X21800   3.351   3.566   4.956 -0.3840 -0.9027  0.1908
  189SAPI  H11Y21801   3.405   3.407   5.023  1.7298  0.1630 -0.1656
  189SAPI  C31221802   3.531   3.484   4.860  0.0229 -0.0565  0.8639
  189SAPI  H12X21803   3.600   3.403   4.895  0.0221  0.2598  1.6358
  189SAPI  H12Y21804   3.591   3.576   4.842  2.1995 -1.4434  0.6824
  189SAPI  C31321805   3.473   3.438   4.724  0.2562 -0.1877 -0.2465
  189SAPI  H13X21806   3.421   3.523   4.677  1.1485 -0.1293 -1.1761
  189SAPI  H13Y21807   3.399   3.356   4.734 -1.5524  1.5744  1.8371
  189SAPI  C31421808   3.588   3.399   4.627  0.3330 -0.1006 -0.6900
  189SAPI  H14X21809   3.657   3.332   4.682  1.7023  1.7513 -0.0507
  189SAPI  H14Y21810   3.648   3.488   4.599  0.9463  0.3343  1.7393
  189SAPI  C31521811   3.543   3.317   4.506  0.5908 -0.0625 -0.2488
  189SAPI  H15X21812   3.500   3.223   4.547 -1.3151  1.3441  1.1581
  189SAPI  H15Y21813   3.629   3.305   4.438  1.1025 -3.4529  0.8314
  189SAPI  C31621814   3.434   3.394   4.424  0.0553 -0.1008  0.3668
  189SAPI  H16X21815   3.411   3.489   4.477 -1.2877  0.0535 -0.4584
  189SAPI  H16Y21816   3.345   3.328   4.425 -0.1494  0.1296 -0.8101
  189SAPI  C31721817   3.485   3.434   4.286 -0.1259 -0.8001 -0.0730
  189SAPI  H17X21818   3.541   3.349   4.242 -2.2284 -1.9187 -0.7116
  189SAPI  H17Y21819   3.538   3.532   4.292 -3.1404  0.8632  2.5482
  189SAPI  C31821820   3.368   3.463   4.185 -0.3275  0.3298  0.6863
  189SAPI  H18X21821   3.418   3.474   4.087 -0.6851  2.2551  0.6820
  189SAPI  H18Y21822   3.311   3.552   4.220  2.2801  2.0816  0.7490
  189SAPI  H18Z21823   3.295   3.379   4.190  1.0958 -1.0348 -0.4270
  190SAPI   C1221824   1.301   1.534   6.048 -0.2741  0.2589  0.4131
  190SAPI    H221825   1.380   1.576   6.114  0.3894  0.0362 -0.2317
  190SAPI    O221826   1.201   1.459   6.117 -0.3303 -0.4676  0.0084
  190SAPI   HO221827   1.245   1.374   6.128 -0.5535 -0.7796 -1.3031
  190SAPI   C1321828   1.237   1.645   5.969 -0.3924 -0.5610  0.0510
  190SAPI    H321829   1.328   1.691   5.924  0.1021 -2.3717 -0.8961
  190SAPI    O321830   1.180   1.741   6.055  0.2095  0.0860  0.1845
  190SAPI   HO321831   1.089   1.713   6.063 -0.0253  0.9779  0.7425
  190SAPI   C1421832   1.147   1.609   5.861  0.5308 -0.2262  0.4782
  190SAPI    H421833   1.053   1.584   5.914  0.9671 -0.2666  1.2508
  190SAPI    O421834   1.125   1.723   5.777 -0.3435 -0.2055  0.0791
  190SAPI   HO421835   1.060   1.710   5.708 -0.6128 -3.4962  0.7891
  190SAPI   C1521836   1.185   1.489   5.779 -0.8029 -0.0906  0.1710
  190SAPI    H521837   1.255   1.534   5.705 -1.4382  0.6176 -0.0146
  190SAPI    O521838   1.072   1.436   5.713  0.1616  0.5858 -0.1071
  190SAPI   HO521839   1.037   1.501   5.652 -0.0617 -0.1733 -0.8046
  190SAPI   C1621840   1.269   1.378   5.839  0.3460 -0.0422 -0.5026
  190SAPI    H621841   1.190   1.315   5.884  0.6094  0.1187  0.2094
  190SAPI    O621842   1.342   1.304   5.744 -0.3386  0.3395 -0.2020
  190SAPI   HO621843   1.397   1.235   5.783  0.0454 -0.9119 -2.7861
  190SAPI   C1121844   1.360   1.425   5.961 -0.3911 -0.3314  0.1555
  190SAPI    H121845   1.444   1.471   5.905 -0.2755 -0.8646 -0.1187
  190SAPI     P21846   1.569   1.254   6.006 -0.1430  0.0110  0.1687
  190SAPI   O1321847   1.614   1.164   6.112  0.2471  0.6139 -0.4197
  190SAPI   O1421848   1.664   1.361   5.963 -0.2912  0.2943 -0.2265
  190SAPI   O1221849   1.421   1.321   6.037 -0.0632 -0.4876 -0.0362
  190SAPI   O1121850   1.535   1.166   5.873  0.3513  0.2867 -0.5126
  190SAPI    C121851   1.467   1.039   5.870 -0.6548 -0.2548 -0.6527
  190SAPI    HA21852   1.485   0.978   5.961 -0.6422 -0.0886 -0.5417
  190SAPI    HB21853   1.359   1.065   5.870 -1.0411 -1.7485 -2.2956
  190SAPI    C221854   1.505   0.951   5.748  0.4236 -0.5511  0.3707
  190SAPI    HS21855   1.611   0.923   5.762  0.9157  0.9182 -0.2298
  190SAPI   O2121856   1.491   1.029   5.630 -0.1914 -0.4938 -0.1006
  190SAPI   C2121857   1.604   1.073   5.569 -0.2262 -0.5235 -0.5228
  190SAPI   O2221858   1.716   1.052   5.606 -0.1332  0.0818 -0.3060
  190SAPI   C2221859   1.567   1.138   5.441  0.1564  0.0678  0.1348
  190SAPI   H2R21860   1.510   1.055   5.395  1.6985 -2.5843  2.6245
  190SAPI   H2S21861   1.506   1.226   5.470  2.3544  2.2111 -1.3265
  190SAPI    C321862   1.417   0.821   5.736 -0.0284 -1.5040 -0.5536
  190SAPI    HX21863   1.312   0.858   5.727  0.2454 -0.4868  0.2754
  190SAPI    HY21864   1.426   0.767   5.833 -0.3340 -0.3783  0.1142
  190SAPI   O3121865   1.465   0.751   5.627 -0.1315  0.1334 -0.2910
  190SAPI   C3121866   1.369   0.671   5.582 -0.6060  0.1660 -0.6023
  190SAPI   O3221867   1.254   0.664   5.626 -0.0274  0.1889 -0.0151
  190SAPI   C3221868   1.424   0.591   5.469 -0.7935 -0.0694 -0.0672
  190SAPI   H2X21869   1.508   0.528   5.507  0.3703  2.5837  2.0786
  190SAPI   H2Y21870   1.455   0.655   5.384 -0.9115 -0.9214 -0.7713
  190SAPI   C2321871   1.675   1.176   5.340 -0.5406 -0.5426  0.0525
  190SAPI   H3R21872   1.752   1.097   5.334  0.6769  0.6313 -0.2098
  190SAPI   H3S21873   1.726   1.270   5.369  0.1371 -1.1292  0.7926
  190SAPI   C2421874   1.635   1.194   5.184  0.3037  0.0924 -0.1136
  190SAPI   H4R21875   1.729   1.232   5.138  1.0177  1.1870  2.0955
  190SAPI   H4S21876   1.555   1.271   5.174  1.3336  1.4070  1.1095
  190SAPI   C2521877   1.592   1.062   5.127  0.5720  0.4798 -0.2172
  190SAPI   H5R21878   1.573   0.977   5.195 -1.0878  0.5234 -0.5870
  190SAPI   C2621879   1.597   1.029   4.996  0.2880  0.0652 -0.0417
  190SAPI   H6R21880   1.553   0.932   4.967  1.8129 -0.9912  0.9839
  190SAPI   C2721881   1.635   1.116   4.878  0.3587  0.4969 -0.8158
  190SAPI   H7R21882   1.698   1.192   4.929 -0.2123 -0.6080  1.6971
  190SAPI   H7S21883   1.536   1.153   4.843  0.6371 -0.6102 -2.9283
  190SAPI   C2821884   1.724   1.056   4.767  0.7130 -0.4316  0.1180
  190SAPI   H8R21885   1.776   0.964   4.799 -2.8061 -1.6645  2.9068
  190SAPI   C2921886   1.738   1.108   4.642  0.0666 -0.4671  0.3903
  190SAPI   H9R21887   1.798   1.055   4.567 -0.7160  0.7908 -1.2102
  190SAPI  C21021888   1.676   1.237   4.591 -0.6171  0.4924 -0.1417
  190SAPI  H10R21889   1.620   1.271   4.680 -0.8504 -0.4466  0.0793
  190SAPI  H10S21890   1.598   1.210   4.517 -0.4914  0.7173 -0.3565
  190SAPI  C21121891   1.774   1.331   4.526 -0.1123 -0.0524 -0.3501
  190SAPI  H11R21892   1.881   1.309   4.540 -0.4073 -0.4886  1.4127
  190SAPI  C21221893   1.735   1.443   4.454  0.0295  0.0876  0.1913
  190SAPI  H12R21894   1.805   1.507   4.398  0.9189  0.5383  1.7675
  190SAPI  C21321895   1.595   1.478   4.433 -0.2220 -0.5623 -0.2613
  190SAPI  H13R21896   1.571   1.543   4.520  0.7384 -0.9569  0.3156
  190SAPI  H13S21897   1.536   1.384   4.439  2.3322 -2.2321  0.4939
  190SAPI  C21421898   1.559   1.564   4.313  0.0768 -0.0637 -0.9667
  190SAPI  H14R21899   1.506   1.654   4.347 -0.8446 -1.6281  2.1060
  190SAPI  C21521900   1.601   1.545   4.183  0.4005 -0.3562  0.4350
  190SAPI  H15R21901   1.586   1.625   4.110  0.2075 -1.9826 -1.4005
  190SAPI  C21621902   1.696   1.450   4.124 -0.2427  0.0192  0.4785
  190SAPI  H16R21903   1.682   1.354   4.178  0.8009  0.0154  0.7525
  190SAPI  H16S21904   1.802   1.480   4.140 -0.1118  0.0173 -0.3445
  190SAPI  C21721905   1.707   1.419   3.968  0.5648 -0.2028  0.6874
  190SAPI  H17R21906   1.739   1.518   3.931 -1.7893  0.3168 -0.1382
  190SAPI  H17S21907   1.601   1.403   3.940  0.5139 -2.1382  1.7264
  190SAPI  C21821908   1.789   1.290   3.938 -0.4349 -0.2230 -0.6700
  190SAPI  H18R21909   1.742   1.208   3.995 -2.5425  2.0259  1.0171
  190SAPI  H18S21910   1.895   1.302   3.970 -0.2391  0.2413 -1.4505
  190SAPI  C21921911   1.804   1.253   3.787  0.2162 -0.2521  0.3393
  190SAPI  H19R21912   1.857   1.155   3.788 -2.7839 -2.0006 -0.9820
  190SAPI  H19S21913   1.869   1.331   3.742 -0.4736  1.0067  1.4595
  190SAPI  C22021914   1.678   1.227   3.714 -0.2274  0.6674  0.5506
  190SAPI  H20R21915   1.617   1.320   3.708 -2.1257 -0.5404  0.3928
  190SAPI  H20S21916   1.616   1.147   3.759  0.2684  0.6781  1.2591
  190SAPI  H20T21917   1.708   1.196   3.611  1.0378 -0.5199  1.2485
  190SAPI   C3321918   1.326   0.484   5.404 -0.6483  0.4502 -0.1555
  190SAPI   H3X21919   1.229   0.525   5.370 -0.0619  3.0994  1.0933
  190SAPI   H3Y21920   1.310   0.408   5.483  0.9922  0.1408 -0.0851
  190SAPI   C3421921   1.399   0.412   5.292  0.5315  0.0821 -0.4353
  190SAPI   H4X21922   1.367   0.306   5.282  1.9953 -0.2983 -1.5245
  190SAPI   H4Y21923   1.508   0.416   5.314  0.5582 -0.7561 -0.3968
  190SAPI   C3521924   1.383   0.483   5.162  0.5782  0.1059 -0.1522
  190SAPI   H5X21925   1.448   0.571   5.143  2.0213 -1.2262 -1.5843
  190SAPI   H5Y21926   1.278   0.519   5.162 -0.0209 -1.5250  0.8407
  190SAPI   C3621927   1.420   0.390   5.044 -0.3660  0.4348 -0.6750
  190SAPI   H6X21928   1.374   0.289   5.049  3.0029 -1.2285 -0.2098
  190SAPI   H6Y21929   1.530   0.373   5.044 -0.0448  2.3040 -1.3619
  190SAPI   C3721930   1.375   0.460   4.916  0.2708  0.1664  0.4149
  190SAPI   H7X21931   1.416   0.562   4.925  2.1251 -0.6257  1.3714
  190SAPI   H7Y21932   1.263   0.462   4.919  0.2549 -0.9110  1.7648
  190SAPI   C3821933   1.426   0.384   4.797  0.0473 -0.2722  0.9649
  190SAPI   H8X21934   1.419   0.273   4.800  1.0213 -0.3421  0.8670
  190SAPI   H8Y21935   1.536   0.398   4.789  0.2423 -2.2721 -0.6101
  190SAPI   C3921936   1.357   0.420   4.662  0.3077 -0.1587  0.0910
  190SAPI   H9X21937   1.385   0.528   4.657 -1.5434  0.5279  2.7954
  190SAPI   H9Y21938   1.247   0.409   4.666  0.1302  1.5640  0.4709
  190SAPI  C31021939   1.411   0.342   4.541 -0.4391 -0.1363 -0.4511
  190SAPI  H10X21940   1.399   0.233   4.556 -1.2883 -0.3013 -2.0493
  190SAPI  H10Y21941   1.518   0.371   4.535 -0.4300 -0.0265  0.2441
  190SAPI  C31121942   1.332   0.371   4.421  0.3468  0.0792 -0.0065
  190SAPI  H11X21943   1.346   0.479   4.399  1.5450  0.4244  2.1891
  190SAPI  H11Y21944   1.227   0.353   4.454  0.7504  0.5358  1.5970
  190SAPI  C31221945   1.368   0.295   4.294  0.2706  0.0385 -0.4646
  190SAPI  H12X21946   1.337   0.191   4.317 -1.2436  0.7484  0.9137
  190SAPI  H12Y21947   1.478   0.303   4.276 -0.1608 -0.0385 -3.8620
  190SAPI  C31321948   1.304   0.359   4.168 -0.5344 -0.7282 -0.3203
  190SAPI  H13X21949   1.330   0.467   4.166 -1.1539 -0.5904 -2.1419
  190SAPI  H13Y21950   1.194   0.358   4.184 -1.3751  1.5606 -4.5081
  190SAPI  C31421951   1.360   0.314   4.032  1.7230 -0.5519  0.5407
  190SAPI  H14X21952   1.347   0.205   4.015  2.9283 -0.7176  0.6030
  190SAPI  H14Y21953   1.469   0.332   4.040  1.8200 -0.7275 -0.3360
  190SAPI  C31521954   1.285   0.391   3.919  0.9223 -0.2916 -0.0613
  190SAPI  H15X21955   1.346   0.386   3.826 -2.1185 -1.3697 -2.1862
  190SAPI  H15Y21956   1.268   0.492   3.961 -1.4711 -0.3393 -0.7487
  190SAPI  C31621957   1.142   0.314   3.887  0.4389 -0.0094 -0.2032
  190SAPI  H16X21958   1.102   0.266   3.979 -1.9490  1.3229 -0.4777
  190SAPI  H16Y21959   1.175   0.236   3.815 -0.4957 -0.0060 -0.6435
  190SAPI  C31721960   1.033   0.411   3.835 -0.1341 -0.1999  0.1277
  190SAPI  H17X21961   1.074   0.466   3.747 -1.9196 -0.3366 -0.8510
  190SAPI  H17Y21962   1.001   0.481   3.915 -0.0827 -1.4897  1.3216
  190SAPI  C31821963   0.911   0.341   3.780 -0.4412 -0.2914  1.0310
  190SAPI  H18X21964   0.865   0.292   3.867 -0.2373 -3.5261 -0.5421
  190SAPI  H18Y21965   0.941   0.271   3.698 -0.2602 -0.5466  1.3140
  190SAPI  H18Z21966   0.845   0.422   3.742 -0.3292 -0.4975  0.3769
  191SAPI   C1221967   3.644   3.930   2.093  0.5736 -0.0305  0.4017
  191SAPI    H221968   3.686   4.021   2.141  0.0432 -0.6598  2.1452
  191SAPI    O221969   3.642   3.813   2.177 -0.0490  0.4318  0.3605
  191SAPI   HO221970   3.669   3.838   2.266  1.5347 -0.8160  0.2560
  191SAPI   C1321971   3.505   3.969   2.045  0.2928 -0.1620 -0.2033
  191SAPI    H321972   3.526   4.061   1.986 -2.2973  0.7107  0.1336
  191SAPI    O321973   3.417   3.981   2.161 -0.5487 -0.0865 -0.1980
  191SAPI   HO321974   3.419   3.892   2.199  3.0479  0.0362  0.2505
  191SAPI   C1421975   3.446   3.855   1.961 -0.1746 -0.7930 -0.3434
  191SAPI    H421976   3.440   3.769   2.031  2.0832  0.7607  1.9175
  191SAPI    O421977   3.315   3.888   1.912  0.0287  0.2137 -0.3755
  191SAPI   HO421978   3.288   3.798   1.891  3.0497 -0.6083 -1.3535
  191SAPI   C1521979   3.531   3.818   1.846 -0.2503  0.1373  0.0552
  191SAPI    H521980   3.514   3.893   1.765  1.8467 -0.8462 -1.3896
  191SAPI    O521981   3.489   3.687   1.801 -0.4088  0.3617 -0.1561
  191SAPI   HO521982   3.418   3.682   1.737  0.2115 -0.4264 -0.8032
  191SAPI   C1621983   3.681   3.806   1.873 -0.8252 -0.3709 -0.0719
  191SAPI    H621984   3.713   3.707   1.911 -0.9911 -0.7773 -0.9702
  191SAPI    O621985   3.749   3.834   1.749 -0.3208  0.0668  0.1464
  191SAPI   HO621986   3.842   3.824   1.768 -0.6603 -1.8658  1.0815
  191SAPI   C1121987   3.734   3.904   1.972  0.5789 -0.0876 -0.2300
  191SAPI    H121988   3.730   4.002   1.922 -0.3378  1.4697  2.6439
  191SAPI     P21989   3.989   3.968   2.042 -0.3632 -0.3602 -0.1584
  191SAPI   O1321990   3.983   4.079   1.942 -0.2378  0.3567 -0.0972
  191SAPI   O1421991   4.114   3.889   2.055 -0.1860  0.3947 -0.2217
  191SAPI   O1221992   3.871   3.870   1.995  0.5741  0.4892 -0.5431
  191SAPI   O1121993   3.949   4.017   2.189  0.4093  0.1267  0.1143
  191SAPI    C121994   3.951   3.918   2.295 -0.0770 -0.3668  0.4511
  191SAPI    HA21995   3.879   3.837   2.270 -0.4813 -0.2568  1.2158
  191SAPI    HB21996   4.049   3.868   2.305  0.0807 -0.1872 -0.1414
  191SAPI    C221997   3.923   3.981   2.442 -0.6793  0.5564  0.4663
  191SAPI    HS21998   3.908   3.892   2.507  1.9237 -1.7708 -1.8247
  191SAPI   O2121999   3.811   4.068   2.440 -0.3486 -0.0514 -0.0231
  191SAPI   C2122000   3.691   4.012   2.435  0.3584  0.0495 -0.1825
  191SAPI   O2222001   3.670   3.895   2.426  0.0368 -0.5046  0.0540
  191SAPI   C2222002   3.579   4.119   2.438  0.1506  0.1789  1.3835
  191SAPI   H2R22003   3.603   4.167   2.341 -2.2972 -0.8984  0.1843
  191SAPI   H2S22004   3.481   4.069   2.438 -0.3142  0.8227 -2.3072
  191SAPI    C322005   4.040   4.071   2.497 -0.8671 -0.4873 -0.1933
  191SAPI    HX22006   4.068   4.164   2.442  2.1072 -1.3531 -0.3205
  191SAPI    HY22007   4.129   4.006   2.482  0.5190  0.8505  1.7008
  191SAPI   O3122008   4.033   4.097   2.643 -0.0538 -0.0404  0.1856
  191SAPI   C3122009   4.003   4.228   2.672  0.9263  0.3107 -0.3595
  191SAPI   O3222010   3.952   4.308   2.589 -0.8630 -0.2458 -0.2539
  191SAPI   C3222011   4.045   4.263   2.809  0.0017  0.7764 -0.0241
  191SAPI   H2X22012   4.029   4.372   2.822 -0.7171  0.8930 -1.5992
  191SAPI   H2Y22013   4.153   4.252   2.828 -0.0148  1.6896  0.6173
  191SAPI   C2322014   3.597   4.223   2.543  0.3501 -0.1352 -0.5629
  191SAPI   H3R22015   3.532   4.308   2.516  1.0379  0.7878  0.5883
  191SAPI   H3S22016   3.696   4.273   2.542 -0.7480  2.1892  0.5106
  191SAPI   C2422017   3.548   4.172   2.678 -0.3007 -0.4046 -0.2829
  191SAPI   H4R22018   3.451   4.121   2.662  1.0070 -2.5144 -2.0607
  191SAPI   H4S22019   3.538   4.267   2.735  2.6448  0.1910 -0.5944
  191SAPI   C2522020   3.647   4.088   2.751 -0.5814 -0.0550 -0.8706
  191SAPI   H5R22021   3.705   4.014   2.695  0.7671  1.6740 -1.8838
  191SAPI   C2622022   3.637   4.084   2.886 -0.2650  0.1158 -0.2772
  191SAPI   H6R22023   3.711   4.025   2.941  1.1301  0.9711 -1.1907
  191SAPI   C2722024   3.536   4.156   2.977 -0.0798  0.6262  0.3002
  191SAPI   H7R22025   3.438   4.106   2.960 -0.8766  1.3160  2.4774
  191SAPI   H7S22026   3.522   4.264   2.957  0.2288  0.8474  1.2276
  191SAPI   C2822027   3.555   4.148   3.124 -0.1306 -0.4729 -0.3894
  191SAPI   H8R22028   3.587   4.242   3.173 -1.9266 -1.0209  2.0200
  191SAPI   C2922029   3.514   4.054   3.213 -0.0266 -0.5064  0.3825
  191SAPI   H9R22030   3.545   4.065   3.318  0.6032  0.5858  0.0993
  191SAPI  C21022031   3.431   3.928   3.192  0.2462 -0.4068 -0.4774
  191SAPI  H10R22032   3.405   3.914   3.085  0.7597  1.2557 -0.8500
  191SAPI  H10S22033   3.333   3.939   3.244  1.5533  0.2902  2.0377
  191SAPI  C21122034   3.505   3.802   3.256  0.3537 -0.5880 -0.6539
  191SAPI  H11R22035   3.586   3.764   3.192 -2.0468 -1.2617 -3.5450
  191SAPI  C21222036   3.475   3.735   3.363  0.1352  0.1914 -0.0783
  191SAPI  H12R22037   3.535   3.650   3.398 -0.9406 -0.1268  1.0675
  191SAPI  C21322038   3.366   3.771   3.462 -0.1348 -0.1233 -0.1857
  191SAPI  H13R22039   3.297   3.687   3.485  0.1148 -0.2922 -0.0371
  191SAPI  H13S22040   3.305   3.857   3.428  1.6706  0.2038 -2.9180
  191SAPI  C21422041   3.414   3.826   3.603 -0.2719 -0.5045 -0.1897
  191SAPI  H14R22042   3.393   3.934   3.608  2.0577  0.1220 -1.9462
  191SAPI  C21522043   3.484   3.765   3.702  0.4638 -0.3962  0.3328
  191SAPI  H15R22044   3.515   3.821   3.792 -0.7826  2.0518 -0.6703
  191SAPI  C21622045   3.514   3.618   3.700 -0.2025  0.3093  0.4861
  191SAPI  H16R22046   3.572   3.606   3.606  2.9066  0.0485  2.3069
  191SAPI  H16S22047   3.424   3.553   3.690  1.4035 -1.7980 -1.0473
  191SAPI  C21722048   3.604   3.572   3.820  0.1296 -0.1000  0.0263
  191SAPI  H17R22049   3.537   3.540   3.903 -0.7534  1.5008 -0.0372
  191SAPI  H17S22050   3.663   3.655   3.863  0.4614 -1.6649  2.7953
  191SAPI  C21822051   3.703   3.456   3.790 -0.0334  0.1702  0.0704
  191SAPI  H18R22052   3.756   3.470   3.694  1.3039 -0.3572  0.7064
  191SAPI  H18S22053   3.648   3.360   3.787 -2.0962  1.2701  0.7182
  191SAPI  C21922054   3.810   3.434   3.900 -0.4081  0.4617 -0.3845
  191SAPI  H19R22055   3.897   3.503   3.897  0.0851 -0.0924  0.6368
  191SAPI  H19S22056   3.869   3.340   3.901  1.3591  1.4389  3.0584
  191SAPI  C22022057   3.764   3.431   4.044  0.4360  0.4624 -0.4110
  191SAPI  H20R22058   3.687   3.351   4.059 -1.6541  2.1014 -1.7369
  191SAPI  H20S22059   3.710   3.523   4.075 -0.8832 -0.5275  0.3594
  191SAPI  H20T22060   3.847   3.417   4.117 -0.0430 -0.7449 -0.0659
  191SAPI   C3322061   3.958   4.195   2.921  0.1355  0.2311  0.0977
  191SAPI   H3X22062   3.970   4.084   2.919  1.0159  0.3152 -2.4538
  191SAPI   H3Y22063   3.852   4.219   2.900  0.2948 -0.8902 -2.3087
  191SAPI   C3422064   3.998   4.254   3.057  0.0967  0.1859 -0.4471
  191SAPI   H4X22065   4.008   4.365   3.055  1.1373  0.1406  0.8740
  191SAPI   H4Y22066   4.098   4.212   3.083 -0.4321  0.7068  2.9751
  191SAPI   C3522067   3.910   4.202   3.171 -0.1676  0.2725  0.2946
  191SAPI   H5X22068   3.902   4.092   3.174 -1.2891 -0.0195 -4.5628
  191SAPI   H5Y22069   3.805   4.239   3.166 -0.0241  1.2965  3.2061
  191SAPI   C3622070   3.960   4.267   3.306  0.1233 -0.4408  0.2145
  191SAPI   H6X22071   3.971   4.377   3.297  2.4339 -0.6722 -0.4896
  191SAPI   H6Y22072   4.061   4.229   3.332  0.2668 -0.4664 -0.3762
  191SAPI   C3722073   3.871   4.232   3.429  0.1875 -0.1453  0.6821
  191SAPI   H7X22074   3.841   4.126   3.415 -1.5041  0.3858 -0.0097
  191SAPI   H7Y22075   3.785   4.303   3.427  1.2142  1.1408  1.1230
  191SAPI   C3822076   3.953   4.246   3.558 -0.4201 -0.4916  0.9864
  191SAPI   H8X22077   4.050   4.194   3.571  1.1387  1.8547 -0.4116
  191SAPI   H8Y22078   3.886   4.179   3.616 -1.2952 -1.6010 -1.2333
  191SAPI   C3922079   3.952   4.387   3.624 -0.9158  1.4627  0.1022
  191SAPI   H9X22080   3.855   4.430   3.590 -2.0962 -1.1959 -0.1569
  191SAPI   H9Y22081   4.044   4.442   3.596  0.1480 -1.1484 -2.0226
  191SAPI  C31022082   3.932   4.375   3.772  0.6891  0.1281 -0.0658
  191SAPI  H10X22083   3.860   4.304   3.819  3.0994  0.2243  4.4121
  191SAPI  H10Y22084   3.905   4.477   3.806  1.6621  0.4957 -0.3629
  191SAPI  C31122085   4.065   4.335   3.841 -0.1129  0.2217  0.9281
  191SAPI  H11X22086   4.145   4.401   3.803 -0.4687  1.4102  2.1388
  191SAPI  H11Y22087   4.088   4.232   3.808 -0.2633  0.3533  0.4078
  191SAPI  C31222088   4.056   4.344   3.992  0.1568  0.2345 -0.0740
  191SAPI  H12X22089   4.009   4.255   4.039  2.2092  0.2953  2.2517
  191SAPI  H12Y22090   4.016   4.443   4.022  2.0276  0.0007  3.7578
  191SAPI  C31322091   4.197   4.330   4.042 -0.3122 -0.0539  0.0686
  191SAPI  H13X22092   4.255   4.418   4.005 -3.1974  1.7610 -0.4432
  191SAPI  H13Y22093   4.244   4.235   4.008 -0.2411 -0.2317  0.6422
  191SAPI  C31422094   4.213   4.337   4.190 -0.2934 -0.0781  0.1584
  191SAPI  H14X22095   4.158   4.252   4.236  0.9294 -0.5827  0.7471
  191SAPI  H14Y22096   4.162   4.432   4.218 -0.0593  0.7474 -2.0581
  191SAPI  C31522097   4.362   4.325   4.242 -0.5555  0.2811 -0.0480
  191SAPI  H15X22098   4.424   4.405   4.196 -1.5019  0.4554 -1.0678
  191SAPI  H15Y22099   4.390   4.224   4.206 -1.4151  0.0415 -0.0709
  191SAPI  C31622100   4.376   4.325   4.397  0.3206 -0.6216  0.0598
  191SAPI  H16X22101   4.486   4.309   4.407  0.1598 -1.5473  0.3915
  191SAPI  H16Y22102   4.329   4.240   4.450 -0.0571 -1.9643 -2.2940
  191SAPI  C31722103   4.333   4.463   4.450 -0.0206 -0.1878 -0.0012
  191SAPI  H17X22104   4.223   4.473   4.465 -0.3369  1.9292 -2.8235
  191SAPI  H17Y22105   4.349   4.535   4.366  0.0771 -0.6400 -0.3713
  191SAPI  C31822106   4.405   4.523   4.574 -0.3432 -0.6706  0.5243
  191SAPI  H18X22107   4.366   4.626   4.590  1.9489  0.1454  1.3068
  191SAPI  H18Y22108   4.512   4.532   4.545 -0.0210  2.1190  2.2236
  191SAPI  H18Z22109   4.391   4.462   4.666  2.4271  0.9257  2.1433
  192SAPI   C1222110   6.667   2.631   2.137 -0.4961 -0.5375  0.1110
  192SAPI    H222111   6.629   2.549   2.202  0.0615 -0.3107  0.7294
  192SAPI    O222112   6.547   2.701   2.097  0.1407 -0.2462  0.6539
  192SAPI   HO222113   6.465   2.652   2.105 -0.0346 -0.1541 -0.4568
  192SAPI   C1322114   6.757   2.729   2.198 -0.0909 -0.0433 -0.6105
  192SAPI    H322115   6.857   2.686   2.218  0.7961  2.2404  0.1638
  192SAPI    O322116   6.707   2.774   2.323  0.2108 -0.0437  0.2111
  192SAPI   HO322117   6.636   2.835   2.301  0.0773  0.2222  1.3490
  192SAPI   C1422118   6.771   2.848   2.108  0.8588 -0.0616  1.0038
  192SAPI    H422119   6.671   2.895   2.099  1.2482  0.7736  0.8765
  192SAPI    O422120   6.857   2.951   2.162  0.0496  0.3290  0.0784
  192SAPI   HO422121   6.813   3.035   2.144 -0.9238  0.0460  1.0268
  192SAPI   C1522122   6.819   2.810   1.973 -0.2680 -0.1428  0.2025
  192SAPI    H522123   6.930   2.807   1.974 -0.1287  2.6266  1.7676
  192SAPI    O522124   6.792   2.918   1.881  0.1207  0.0813  0.1383
  192SAPI   HO522125   6.701   2.916   1.851  0.8812 -1.7221 -2.3259
  192SAPI   C1622126   6.788   2.672   1.915  0.7126 -0.6802 -0.9611
  192SAPI    H622127   6.697   2.692   1.855  0.6283  2.8421  0.1113
  192SAPI    O622128   6.889   2.625   1.832  0.5490 -0.7122  0.2523
  192SAPI   HO622129   6.879   2.531   1.815 -2.8172 -0.1391 -2.0439
  192SAPI   C1122130   6.744   2.569   2.022 -0.2547 -0.3849  0.2148
  192SAPI    H122131   6.840   2.525   2.057 -1.0136 -4.1871 -1.8824
  192SAPI     P22132   6.737   2.321   1.920 -0.3006 -0.4362  0.5042
  192SAPI   O1322133   6.879   2.330   1.876 -0.9942 -0.7259 -0.9654
  192SAPI   O1422134   6.647   2.256   1.817 -0.0194 -0.0904 -0.6486
  192SAPI   O1222135   6.671   2.464   1.960 -1.0325 -0.2410  0.3106
  192SAPI   O1122136   6.729   2.253   2.052 -0.2531 -0.5855 -0.4359
  192SAPI    C122137   6.814   2.153   2.109  1.2032  0.3780  0.0036
  192SAPI    HA22138   6.794   2.060   2.051  0.2326 -0.5031  1.6822
  192SAPI    HB22139   6.923   2.175   2.111  1.7734 -1.6682 -2.6336
  192SAPI    C222140   6.764   2.116   2.244  0.1303 -0.1445 -0.2476
  192SAPI    HS22141   6.656   2.093   2.228 -0.0972 -0.6631  1.7908
  192SAPI   O2122142   6.773   2.231   2.330 -0.1593 -0.6775  0.3337
  192SAPI   C2122143   6.670   2.243   2.421 -0.5802 -0.4970  0.9249
  192SAPI   O2222144   6.574   2.170   2.418 -0.1557  0.4793  0.0282
  192SAPI   C2222145   6.689   2.368   2.503 -0.1468  0.2153 -0.4025
  192SAPI   H2R22146   6.800   2.380   2.509 -0.1674  1.0645 -1.3397
  192SAPI   H2S22147   6.664   2.460   2.446  1.7477  1.2205  0.2893
  192SAPI    C322148   6.823   1.982   2.298  0.0712 -0.2258  0.1445
  192SAPI    HX22149   6.787   1.898   2.235 -0.6876 -0.9295  1.4634
  192SAPI    HY22150   6.782   1.962   2.399 -0.9537  0.7370 -0.0632
  192SAPI   O3122151   6.965   1.993   2.290  0.1804  0.0542  0.0116
  192SAPI   C3122152   7.018   1.963   2.407 -0.3679 -0.3514 -0.5584
  192SAPI   O3222153   6.965   1.929   2.515  0.2051  0.1633  0.9702
  192SAPI   C3222154   7.175   1.967   2.402 -0.6633  0.4811 -0.1245
  192SAPI   H2X22155   7.206   2.073   2.391  0.2222  0.2642  0.2101
  192SAPI   H2Y22156   7.203   1.917   2.307 -2.5427  1.9582 -1.5334
  192SAPI   C2322157   6.644   2.360   2.651 -0.2128  0.3101 -0.1165
  192SAPI   H3R22158   6.533   2.361   2.667 -0.1213  1.7903  0.6022
  192SAPI   H3S22159   6.673   2.463   2.682  0.8270 -0.1411  0.4588
  192SAPI   C2422160   6.712   2.241   2.724 -0.5863 -0.1561  0.7300
  192SAPI   H4R22161   6.823   2.244   2.716 -0.6509  0.0037 -0.2040
  192SAPI   H4S22162   6.689   2.149   2.665 -0.5659 -0.8574  1.7828
  192SAPI   C2522163   6.674   2.234   2.869 -0.0479  0.4398 -0.5021
  192SAPI   H5R22164   6.674   2.325   2.932  0.0259  0.1716 -0.1131
  192SAPI   C2622165   6.647   2.115   2.931  1.0646  0.1747 -0.0395
  192SAPI   H6R22166   6.627   2.117   3.040  0.1230  2.9641 -0.1786
  192SAPI   C2722167   6.638   1.974   2.861  0.2304 -0.4532  0.1278
  192SAPI   H7R22168   6.591   1.982   2.761  1.8547  0.0985 -0.6094
  192SAPI   H7S22169   6.576   1.917   2.935 -0.3370 -0.0731 -0.0462
  192SAPI   C2822170   6.777   1.917   2.847 -0.4116 -0.4023  0.4042
  192SAPI   H8R22171   6.830   1.953   2.758 -0.0931  2.1056  1.5133
  192SAPI   C2922172   6.841   1.822   2.914  0.4440  0.0097  0.4937
  192SAPI   H9R22173   6.946   1.804   2.886  0.2693  0.0530 -0.1938
  192SAPI  C21022174   6.809   1.759   3.047  0.6959 -0.4308  1.2192
  192SAPI  H10R22175   6.810   1.649   3.033  2.3707 -0.4347  1.1677
  192SAPI  H10S22176   6.703   1.777   3.073  0.5069 -0.9826  0.8533
  192SAPI  C21122177   6.910   1.803   3.156  0.2697  0.3382 -0.0629
  192SAPI  H11R22178   6.952   1.902   3.137  0.8243  0.2207  0.5190
  192SAPI  C21222179   6.944   1.722   3.259  0.3429 -0.0785 -0.2005
  192SAPI  H12R22180   7.012   1.760   3.336 -0.5586 -1.9029  1.5959
  192SAPI  C21322181   6.876   1.593   3.290  0.5740  0.3563 -0.8746
  192SAPI  H13R22182   6.936   1.506   3.258 -0.7761  0.0761 -2.8035
  192SAPI  H13S22183   6.782   1.584   3.231  1.5224 -1.8752 -2.1962
  192SAPI  C21422184   6.843   1.596   3.446  0.3902  0.1056  0.4099
  192SAPI  H14R22185   6.823   1.695   3.490 -0.8836  0.5412 -1.0574
  192SAPI  C21522186   6.822   1.492   3.524 -0.0685  0.1331 -0.0655
  192SAPI  H15R22187   6.779   1.509   3.624  0.2599  0.4800  0.0202
  192SAPI  C21622188   6.835   1.350   3.478 -0.3854  0.1660  0.8299
  192SAPI  H16R22189   6.886   1.283   3.550 -0.3277  0.5844  1.1801
  192SAPI  H16S22190   6.891   1.351   3.382  0.8452  1.2729  1.5417
  192SAPI  C21722191   6.689   1.291   3.468  0.1340 -0.0230 -0.2665
  192SAPI  H17R22192   6.641   1.331   3.376  2.6328  1.4671 -1.0265
  192SAPI  H17S22193   6.620   1.321   3.550  0.6957  1.8832 -0.4382
  192SAPI  C21822194   6.693   1.137   3.464  0.0971 -0.0120 -0.0012
  192SAPI  H18R22195   6.749   1.096   3.551 -0.5034 -1.2708 -0.1927
  192SAPI  H18S22196   6.758   1.114   3.377  3.8292  1.7810  2.0740
  192SAPI  C21922197   6.562   1.064   3.470  0.8800  0.2856  0.6574
  192SAPI  H19R22198   6.580   0.955   3.460 -0.0571  0.2237 -0.5809
  192SAPI  H19S22199   6.505   1.100   3.381  2.8442 -0.1141 -0.8457
  192SAPI  C22022200   6.488   1.079   3.602  0.0276 -0.0818 -0.0848
  192SAPI  H20R22201   6.385   1.040   3.589 -0.0731  0.5228 -1.1924
  192SAPI  H20S22202   6.487   1.186   3.634 -2.1043 -0.2633  0.5992
  192SAPI  H20T22203   6.543   1.024   3.681 -0.6666 -0.3752  0.2010
  192SAPI   C3322204   7.243   1.922   2.535  0.4113 -0.4069 -0.1943
  192SAPI   H3X22205   7.349   1.900   2.511  1.3315  2.3930  0.9163
  192SAPI   H3Y22206   7.196   1.832   2.580  1.6130 -1.5055 -1.0615
  192SAPI   C3422207   7.229   2.034   2.645 -0.3948 -1.3995 -0.2001
  192SAPI   H4X22208   7.122   2.064   2.639  0.1955  1.3054  1.4133
  192SAPI   H4Y22209   7.288   2.123   2.614 -0.1275 -1.5437 -0.1123
  192SAPI   C3522210   7.254   1.989   2.788  0.5152  0.6097 -0.5693
  192SAPI   H5X22211   7.357   1.947   2.783 -0.0404 -0.6308 -3.5214
  192SAPI   H5Y22212   7.181   1.909   2.811  0.4719  0.6314 -0.6303
  192SAPI   C3622213   7.247   2.110   2.890 -0.1417  0.0547  0.2003
  192SAPI   H6X22214   7.146   2.154   2.877  0.3048  1.6575  1.7794
  192SAPI   H6Y22215   7.312   2.190   2.847  2.0966 -2.2395 -1.0205
  192SAPI   C3722216   7.277   2.053   3.035 -0.1380  0.5483 -0.0994
  192SAPI   H7X22217   7.387   2.059   3.046 -0.2679  0.1585  1.7684
  192SAPI   H7Y22218   7.241   1.948   3.033  0.7933  0.2263 -0.3967
  192SAPI   C3822219   7.194   2.130   3.143  0.0372  0.2910 -0.0672
  192SAPI   H8X22220   7.091   2.149   3.107 -0.6408 -1.6803  0.7195
  192SAPI   H8Y22221   7.223   2.237   3.141 -0.2485  0.3855  0.6583
  192SAPI   C3922222   7.193   2.069   3.278  0.2288 -0.5271 -0.0296
  192SAPI   H9X22223   7.171   1.961   3.267  0.2699 -0.5062 -0.3189
  192SAPI   H9Y22224   7.116   2.115   3.345  0.2396 -1.4969  0.6766
  192SAPI  C31022225   7.320   2.094   3.361 -0.1873  0.3944 -0.3312
  192SAPI  H10X22226   7.368   2.192   3.343  1.0767 -0.4470 -1.7719
  192SAPI  H10Y22227   7.389   2.020   3.316  0.7908  3.0830 -3.6710
  192SAPI  C31122228   7.298   2.062   3.512 -0.2403  0.3604 -0.1395
  192SAPI  H11X22229   7.272   2.157   3.563  2.1947  0.9605  0.1403
  192SAPI  H11Y22230   7.399   2.035   3.549 -1.1264 -1.0803  1.3882
  192SAPI  C31222231   7.212   1.941   3.544 -0.2091  0.4446 -0.6187
  192SAPI  H12X22232   7.248   1.852   3.489 -1.1574 -2.1154  2.6281
  192SAPI  H12Y22233   7.109   1.968   3.513 -1.1366 -3.2822 -1.2407
  192SAPI  C31322234   7.211   1.904   3.697  0.4564  0.0956 -1.0830
  192SAPI  H13X22235   7.212   1.999   3.755 -2.1346  0.3161 -1.2487
  192SAPI  H13Y22236   7.307   1.851   3.713  0.5042  0.7555  1.0513
  192SAPI  C31422237   7.085   1.823   3.738 -0.2806  0.1467 -1.2792
  192SAPI  H14X22238   7.088   1.717   3.705 -2.3513  0.3090 -2.1641
  192SAPI  H14Y22239   6.991   1.868   3.700 -1.3125 -0.0454  0.8661
  192SAPI  C31522240   7.079   1.827   3.891 -0.0339  0.1537 -1.0719
  192SAPI  H15X22241   7.038   1.926   3.921  2.3970  1.2522 -1.0776
  192SAPI  H15Y22242   7.182   1.835   3.932 -0.5121 -0.2082  0.2559
  192SAPI  C31622243   6.995   1.713   3.956  0.6697  0.1392  0.4165
  192SAPI  H16X22244   7.057   1.621   3.951 -2.0293 -1.7475 -1.6722
  192SAPI  H16Y22245   6.910   1.693   3.888 -0.7807  1.9415  1.5984
  192SAPI  C31722246   6.956   1.740   4.100 -0.4190 -0.4983  0.5436
  192SAPI  H17X22247   6.848   1.718   4.092 -0.6455  1.2220 -2.1038
  192SAPI  H17Y22248   6.981   1.846   4.123 -2.0984 -0.2624  1.4681
  192SAPI  C31822249   7.018   1.648   4.205 -0.1470  1.0750  0.1896
  192SAPI  H18X22250   7.129   1.662   4.209  0.0407 -0.4651  0.8641
  192SAPI  H18Y22251   7.005   1.541   4.179  1.9033  0.4708  1.3909
  192SAPI  H18Z22252   6.964   1.661   4.301 -1.4817  0.1321 -0.4158
  193SOD    SOD22253   5.314   3.014   1.418  0.3362 -0.1614  0.3139
  194SOD    SOD22254   5.463   4.419   6.832 -0.2909  0.7890  0.1266
  195SOD    SOD22255   3.586   3.056   0.831 -0.4034  0.3306  0.1086
  196SOD    SOD22256   3.539   3.876   7.432  0.1130  0.0887  0.1935
  197SOD    SOD22257   5.646   1.974   7.256  0.3407  0.2106  0.5035
  198SOD    SOD22258   3.286   5.197   8.021  0.4117  0.0562 -0.3824
  199SOD    SOD22259   1.029   6.526   0.839 -0.6461  0.0597  0.2424
  200SOD    SOD22260   3.995   2.933   6.840  0.0091 -0.4705 -0.2532
  201SOD    SOD22261   2.998   5.646   6.404 -0.0372  0.3423  0.0496
  202SOD    SOD22262   4.285   3.500   7.071  0.2212  0.4445  0.1291
  203SOD    SOD22263   4.966   2.615   1.505  0.2496 -0.6066 -0.3851
  204SOD    SOD22264   6.404   5.247   7.124  0.3089 -0.2465  0.2266
  205SOD    SOD22265   1.654   1.603   1.328 -0.2305 -0.2604  0.0944
  206SOD    SOD22266   1.291   4.830   1.823  0.3319 -0.5234  0.3480
  207SOD    SOD22267   6.036   2.849   6.742  0.2650 -0.3650 -0.1525
  208SOD    SOD22268   5.854   0.774   7.806 -0.0774  0.0931  0.2537
  209SOD    SOD22269   6.113   4.323   2.210 -0.0636 -0.0729 -0.2031
  210SOD    SOD22270   3.241   5.282   1.506  0.1360 -0.5537  0.4944
  211SOD    SOD22271   2.627   4.306   0.553 -0.4555 -0.1043 -0.1431
  212SOD    SOD22272   5.945   4.607   8.302  0.0704  0.3550  0.4913
  213SOD    SOD22273   1.949   3.153   1.406 -0.3548  0.2150 -0.6221
  214SOD    SOD22274   6.388   4.119   6.814  0.1816 -0.4715 -0.8222
  215SOD    SOD22275   1.956   3.156   0.299  0.0443 -0.5347 -0.2516
  216SOD    SOD22276   1.011   1.654   0.149  0.4669 -0.2147  0.0155
  217SOD    SOD22277   0.092   2.684   1.145  0.2285  0.1588  0.2685
  218SOD    SOD22278   1.086   5.958   7.752 -0.4646  0.0286  0.3055
  219SOD    SOD22279   0.049   6.623   0.036  0.1455 -0.4235 -0.0489
  220SOD    SOD22280   3.358   2.415   7.486  0.0619  0.1001  0.3911
  221SOD    SOD22281   6.001   2.745   1.396 -0.2125 -0.2013  0.0833
  222SOD    SOD22282   4.252   4.309   8.308  0.1315 -0.2845  0.0549
  223SOD    SOD22283   0.011   5.798   1.710 -0.0452 -0.1535 -0.2902
  224SOD    SOD22284   3.076   6.512   0.122  0.1019  0.6017 -0.1374
  225SOD    SOD22285   1.721   1.531   6.987 -0.3011 -0.2299  0.2253
  226SOD    SOD22286   5.781   0.947   0.904 -0.3769 -0.0784 -0.6048
  227SOD    SOD22287   3.012   0.175   7.174  0.5118 -0.1523 -1.0152
  228SOD    SOD22288   5.601   2.160   0.324 -0.2060  0.6766  0.0904
  229SOD    SOD22289   1.069   4.619   7.958  0.0346  0.0168 -0.5687
  230SOD    SOD22290   6.853   4.929   7.189 -0.1107 -0.0838 -0.1378
  231SOD    SOD22291   5.736   6.119   7.061  0.3865 -0.3884  0.1124
  232SOD    SOD22292   1.866   0.110   7.173  0.5578 -0.1368  0.0812
  233SOD    SOD22293   5.696   3.585   0.337  0.4140  0.1819 -0.0336
  234CLA    CLA22294   3.804   3.069   0.354  0.4250 -0.3465  0.4534
  235CLA    CLA22295   5.093   0.066   0.860  0.4315  0.3417  0.0786
  236CLA    CLA22296   4.056   6.312   8.008 -0.3352  0.1778 -0.1758
  237CLA    CLA22297   5.897   6.399   7.808  0.0287  0.0313 -0.0355
  238CLA    CLA22298   0.740   5.920   1.116  0.1054 -0.1597 -0.0239
  239CLA    CLA22299   0.738   1.197   8.406  0.1081  0.0985 -0.2264
  240CLA    CLA22300   4.097   1.740   7.818 -0.3257  0.1973 -0.3904
  241CLA    CLA22301   0.642   0.863   7.811  0.1596  0.0834  0.3693
  242CLA    CLA22302   4.595   2.800   7.455 -0.1288 -0.2135  0.1268
  243CLA    CLA22303   5.964   1.889   7.625 -0.1528  0.2428  0.3318
  244CLA    CLA22304   5.726   2.785   1.431  0.2158  0.2675  0.0780
  245CLA    CLA22305   3.807   4.011   0.670  0.3868  0.2567  0.0170
  246CLA    CLA22306   4.697   4.016   7.355  0.2556 -0.2010  0.3264
  247CLA    CLA22307   4.434   2.331   1.239 -0.0609  0.2608  0.1161
  248CLA    CLA22308   4.147   4.893   1.303  0.4333 -0.0140  0.1743
  249CLA    CLA22309   6.783   6.371   0.767  0.4392  0.2903  0.2926
  250CLA    CLA22310   0.303   4.631   1.300 -0.3073 -0.1808  0.2624
  251TIP3   OH222311   0.601   6.346   0.872 -0.5434  0.2163 -0.0966
  251TIP3    H122312   0.679   6.321   0.823 -0.8301 -0.0909 -0.3989
  251TIP3    H222313   0.581   6.434   0.840 -0.5286  0.1542 -0.2808
  252TIP3   OH222314   6.298   1.630   0.627 -0.1509  0.4317  0.4353
  252TIP3    H122315   6.240   1.648   0.700 -1.0627 -0.6459 -0.0007
  252TIP3    H222316   6.275   1.695   0.561 -0.2347  0.5797  0.6123
  253TIP3   OH222317   2.948   2.123   6.825 -0.3493 -0.0244  0.4118
  253TIP3    H122318   2.878   2.165   6.776 -0.8249 -0.1747  0.9495
  253TIP3    H222319   2.975   2.188   6.890  1.9578  1.1281 -1.5396
  254TIP3   OH222320   2.328   2.140   7.195 -0.1457 -0.1269  0.7578
  254TIP3    H122321   2.244   2.094   7.194 -1.0401  1.4247  1.0821
  254TIP3    H222322   2.308   2.226   7.231  1.0583  1.2488 -1.6082
  255TIP3   OH222323   2.295   2.662   7.388  0.1573 -0.2512 -0.5769
  255TIP3    H122324   2.214   2.710   7.374  0.5334  1.1554  1.6580
  255TIP3    H222325   2.359   2.728   7.415  0.8078 -1.8631  2.2519
  256TIP3   OH222326   0.265   3.828   0.662 -0.0807  0.2775 -0.2881
  256TIP3    H122327   0.292   3.737   0.648 -0.1075  0.4713 -1.8109
  256TIP3    H222328   0.344   3.873   0.689 -0.1320 -0.2534  0.7682
  257TIP3   OH222329   4.082   4.161   8.383 -0.5707 -0.1156 -0.7855
  257TIP3    H122330   4.018   4.175   8.452  0.5061 -0.7761  0.3820
  257TIP3    H222331   4.035   4.110   8.316 -0.9223 -1.8446  0.6918
  258TIP3   OH222332   6.555   1.473   1.025 -0.2154 -0.3343 -0.9797
  258TIP3    H122333   6.487   1.462   1.092  0.4126 -2.6008 -0.6364
  258TIP3    H222334   6.606   1.549   1.055 -0.6567 -0.5872  0.5008
  259TIP3   OH222335   6.173   2.111   0.028 -0.1612  0.6271 -0.0124
  259TIP3    H122336   6.230   2.160  -0.031 -2.8755  0.5937 -2.9429
  259TIP3    H222337   6.107   2.174   0.056 -0.2260  0.0623  1.2097
  260TIP3   OH222338   6.343   1.779   1.430  0.3875 -0.5345  0.2272
  260TIP3    H122339   6.346   1.824   1.515  1.1441 -0.0579 -0.0517
  260TIP3    H222340   6.381   1.841   1.368 -2.6171  0.2888 -1.0233
  261TIP3   OH222341   1.960   1.961   1.235 -0.4646 -0.3856  0.1775
  261TIP3    H122342   1.986   1.873   1.208  0.8079 -0.2177  0.7612
  261TIP3    H222343   2.032   2.017   1.206 -0.8376  0.3318  0.6028
  262TIP3   OH222344   3.996   6.074   1.887  0.0865  0.5238 -0.2860
  262TIP3    H122345   4.051   6.090   1.810  0.9344 -0.0267  0.1844
  262TIP3    H222346   4.058   6.072   1.960 -0.6370  0.4461  0.3409
  263TIP3   OH222347   1.864   3.599   0.314  0.4254  0.2671  0.1182
  263TIP3    H122348   1.865   3.614   0.409 -1.1166  0.7593  0.0859
  263TIP3    H222349   1.851   3.505   0.305 -1.9013  0.4846  0.4695
  264TIP3   OH222350   3.740   6.116   8.023 -0.1772  0.2340 -0.2649
  264TIP3    H122351   3.785   6.102   7.940  0.7083 -2.3953  0.5463
  264TIP3    H222352   3.808   6.100   8.089 -1.3264  0.2451  0.9593
  265TIP3   OH222353   4.704   6.600   0.132  0.4473  0.7352  0.2469
  265TIP3    H122354   4.741   6.563   0.051 -2.3773 -3.1570  0.4452
  265TIP3    H222355   4.627   6.649   0.103 -0.5835 -0.6851  0.4856
  266TIP3   OH222356   3.651   3.501   7.840  0.0479  0.2402 -0.2194
  266TIP3    H122357   3.646   3.544   7.755 -0.7314  2.4923  0.8720
  266TIP3    H222358   3.744   3.503   7.862  0.5114 -1.9249 -1.6891
  267TIP3   OH222359   6.892   3.189   6.359  0.5096 -0.1007 -0.2505
  267TIP3    H122360   6.942   3.139   6.295  0.1910  0.4530 -0.9433
  267TIP3    H222361   6.850   3.258   6.308 -1.9311 -1.2415  0.0877
  268TIP3   OH222362   2.394   3.145   1.544  0.2341 -0.8656 -0.3152
  268TIP3    H122363   2.450   3.104   1.610  0.0006 -1.4769 -0.4849
  268TIP3    H222364   2.454   3.179   1.478  0.4738 -0.1856  0.2439
  269TIP3   OH222365   0.765   4.506   6.994 -0.7013  0.9293 -0.0954
  269TIP3    H122366   0.800   4.478   7.079 -0.3187 -1.2584 -0.9165
  269TIP3    H222367   0.838   4.548   6.951 -0.8023  1.7490  0.5041
  270TIP3   OH222368   0.336   0.664   7.071  0.7130 -0.3878 -0.7404
  270TIP3    H122369   0.402   0.684   7.137 -0.4437  0.7533  0.1350
  270TIP3    H222370   0.253   0.686   7.114 -0.0060  1.8882 -3.0516
  271TIP3   OH222371   0.273   6.840   0.476  0.2955 -0.3233  0.5834
  271TIP3    H122372   0.338   6.844   0.546 -0.4074 -0.2368  1.2395
  271TIP3    H222373   0.270   6.929   0.440 -0.5781  0.0792  1.5972
  272TIP3   OH222374   0.174   3.324   6.568  0.6744  0.0380 -0.0789
  272TIP3    H122375   0.205   3.315   6.478  1.2430 -1.8937  0.2782
  272TIP3    H222376   0.109   3.256   6.578 -0.6429  1.3233  0.5001
  273TIP3   OH222377   0.149   3.089   6.155  0.7536  0.2598 -0.2353
  273TIP3    H122378   0.108   3.106   6.070  1.8679  0.7697 -0.7025
  273TIP3    H222379   0.219   3.026   6.135  0.8991  0.2345  0.3394
  274TIP3   OH222380   0.328   2.678   1.168  0.0272  0.2836 -0.1842
  274TIP3    H122381   0.379   2.713   1.241 -0.7683  1.1016 -0.0062
  274TIP3    H222382   0.372   2.596   1.146  2.6601  1.8536 -1.3670
  275TIP3   OH222383   5.339   6.298   1.258 -0.0195  0.1798 -0.4766
  275TIP3    H122384   5.421   6.261   1.291 -0.5027 -0.1314  0.3970
  275TIP3    H222385   5.324   6.376   1.311 -0.7004 -0.2145 -0.0762
  276TIP3   OH222386   4.452   2.712   7.851 -0.1982 -0.6752  0.0795
  276TIP3    H122387   4.434   2.721   7.757 -0.0891  0.6678  0.1759
  276TIP3    H222388   4.381   2.657   7.884 -1.5441  0.7238 -0.3890
  277TIP3   OH222389   1.031   1.805   1.907 -0.2031  0.1782  0.5303
  277TIP3    H122390   1.023   1.868   1.836  0.6925 -0.4701 -0.1696
  277TIP3    H222391   1.112   1.829   1.951 -0.3816  0.1307  0.8884
  278TIP3   OH222392   2.565   4.026   7.585 -0.4670  0.0623  0.1178
  278TIP3    H122393   2.583   3.935   7.611 -0.3812  0.4585  1.5367
  278TIP3    H222394   2.487   4.020   7.529 -1.0952 -0.7899  1.0491
  279TIP3   OH222395   0.792   0.067   7.060  0.5156  0.4630  0.0065
  279TIP3    H122396   0.832   0.136   7.113  0.2415  1.0944 -0.5953
  279TIP3    H222397   0.769   0.110   6.978 -1.0732  0.0416  0.1995
  280TIP3   OH222398   6.661   3.323   8.245  0.0170  0.6606 -0.1190
  280TIP3    H122399   6.616   3.364   8.319  0.3115  0.5302  0.1359
  280TIP3    H222400   6.753   3.320   8.272  0.0801  0.3342 -0.3648
  281TIP3   OH222401   6.816   1.259   8.162  0.8628  0.4992 -0.2982
  281TIP3    H122402   6.771   1.343   8.152 -0.1625 -0.0721 -0.6365
  281TIP3    H222403   6.749   1.199   8.193  1.4409 -0.3291 -0.6050
  282TIP3   OH222404   5.412   5.548   0.086 -0.2965 -0.4216  0.1059
  282TIP3    H122405   5.386   5.640   0.082  1.1937  0.1589  1.9431
  282TIP3    H222406   5.346   5.502   0.034 -0.8881  1.6973 -1.1789
  283TIP3   OH222407   6.737   4.507   0.363  0.2666  0.4791  0.1121
  283TIP3    H122408   6.671   4.459   0.312  0.1106  1.0477 -0.2296
  283TIP3    H222409   6.690   4.539   0.439  0.1415  0.9035 -0.1428
  284TIP3   OH222410   1.532   3.163   7.857  0.6857  0.0211  0.2059
  284TIP3    H122411   1.503   3.190   7.770  0.8378 -0.0118  0.1452
  284TIP3    H222412   1.455   3.118   7.894 -0.0373  1.7156  0.8433
  285TIP3   OH222413   3.330   4.786   1.449  0.4840 -0.4391  0.1083
  285TIP3    H122414   3.398   4.813   1.387 -1.5361  0.9278 -1.6801
  285TIP3    H222415   3.356   4.827   1.532  1.2643  1.0428 -0.8062
  286TIP3   OH222416   0.076   4.008   1.073 -0.4595 -0.1687 -0.4462
  286TIP3    H122417   0.071   4.037   0.982 -0.7601 -0.2264 -0.4490
  286TIP3    H222418   0.124   4.078   1.117 -0.1567 -0.2257 -0.6846
  287TIP3   OH222419   5.722   4.831   8.518  0.1084  0.2673  0.7695
  287TIP3    H122420   5.796   4.817   8.459  0.9853 -0.7126  2.0526
  287TIP3    H222421   5.656   4.875   8.464 -0.0621 -2.6402 -1.6365
  288TIP3   OH222422   3.963   0.667   7.513  0.3133 -0.2075 -0.5226
  288TIP3    H122423   3.871   0.687   7.528  0.5393 -0.1738  0.9101
  288TIP3    H222424   3.996   0.638   7.598  1.0657 -2.5108 -1.5070
  289TIP3   OH222425   4.226   5.147   7.786 -0.1390  0.2980 -1.1122
  289TIP3    H122426   4.239   5.072   7.844 -0.1092 -0.6137 -2.2701
  289TIP3    H222427   4.146   5.126   7.738  1.1273 -0.1393 -3.1406
  290TIP3   OH222428   5.782   1.283   0.565  0.6628  0.1500 -0.2993
  290TIP3    H122429   5.785   1.256   0.473  1.0576 -0.2066 -0.1836
  290TIP3    H222430   5.783   1.201   0.614 -1.4627  0.2496  0.0061
  291TIP3   OH222431   2.684   5.124   0.911 -0.2591  0.4838 -0.3597
  291TIP3    H122432   2.765   5.164   0.944  0.3164  0.8835 -2.1277
  291TIP3    H222433   2.654   5.068   0.982  1.2524  0.7868  0.5666
  292TIP3   OH222434   6.394   0.276   1.940 -0.2628  0.1273  0.0392
  292TIP3    H122435   6.356   0.188   1.939  2.1478 -1.0126 -0.7084
  292TIP3    H222436   6.473   0.267   1.993  0.4256  1.6622 -0.6607
  293TIP3   OH222437   3.194   0.825   8.124 -0.7149  0.9029 -0.0055
  293TIP3    H122438   3.148   0.755   8.171 -0.9977  1.4916  0.6151
  293TIP3    H222439   3.151   0.905   8.153  0.3353  1.4272  0.1485
  294TIP3   OH222440   1.181   4.572   7.121 -0.1127 -0.4138 -0.1648
  294TIP3    H122441   1.223   4.530   7.196  0.6009  1.0837  0.2950
  294TIP3    H222442   1.192   4.508   7.050  2.1496 -0.4757  0.1713
  295TIP3   OH222443   2.842   4.126   7.623  0.7811 -0.4325 -0.1487
  295TIP3    H122444   2.773   4.060   7.612 -0.0132  0.3105  0.2498
  295TIP3    H222445   2.873   4.143   7.534 -0.1366 -0.1750 -0.4318
  296TIP3   OH222446   2.802   0.475   0.487 -0.0104  0.3331 -0.4171
  296TIP3    H122447   2.716   0.462   0.447 -0.0451  2.1804 -1.0317
  296TIP3    H222448   2.802   0.567   0.514  0.9366 -0.2106  1.6430
  297TIP3   OH222449   6.895   4.147   6.650 -0.3243 -0.6044  0.4557
  297TIP3    H122450   6.938   4.232   6.661  0.8675 -1.2530  0.9054
  297TIP3    H222451   6.886   4.137   6.555 -0.8630  0.2000  0.4091
  298TIP3   OH222452   4.620   2.666   0.261  1.1124 -0.1996 -0.1558
  298TIP3    H122453   4.592   2.755   0.283 -2.4344 -1.3292  0.5699
  298TIP3    H222454   4.637   2.668   0.167 -1.4104  0.7436 -0.6535
  299TIP3   OH222455   1.016   6.010   0.710  0.6952  0.4862 -0.4328
  299TIP3    H122456   0.935   5.979   0.671  0.7928 -0.5877  0.1799
  299TIP3    H222457   1.085   5.956   0.671  1.0690  1.0568 -0.5833
  300TIP3   OH222458   0.577   6.051   7.543 -0.4722 -0.0857  0.3122
  300TIP3    H122459   0.660   6.089   7.512 -0.7030 -0.9823 -1.5266
  300TIP3    H222460   0.515   6.068   7.472 -1.7348  0.0388  1.4101
  301TIP3   OH222461   5.501   5.300   0.156 -0.0992  0.2884 -0.3446
  301TIP3    H122462   5.503   5.389   0.121  0.3677 -0.3987 -2.1620
  301TIP3    H222463   5.557   5.250   0.097  1.9402 -0.6934  2.2217
  302TIP3   OH222464   1.688   3.763   7.990 -0.5022  0.1317  0.1119
  302TIP3    H122465   1.719   3.810   7.913 -0.7827 -0.2068 -0.2098
  302TIP3    H222466   1.767   3.745   8.041 -0.5003  1.9496  0.8175
  303TIP3   OH222467   4.310   4.230   8.102  0.1279 -0.0575 -0.0357
  303TIP3    H122468   4.243   4.194   8.044  0.3186 -1.6870  0.6744
  303TIP3    H222469   4.384   4.170   8.093  1.4083  1.5396 -0.5813
  304TIP3   OH222470   2.407   5.221   0.523  0.2511  0.0414  0.3396
  304TIP3    H122471   2.321   5.252   0.494  1.8480  0.7720 -4.4880
  304TIP3    H222472   2.390   5.132   0.555 -2.1646 -0.7312 -2.5849
  305TIP3   OH222473   4.028   3.946   6.599 -0.0993  1.1935  0.3817
  305TIP3    H122474   4.094   3.900   6.547 -1.4844 -0.9214  0.3801
  305TIP3    H222475   4.013   4.028   6.551  2.2007  1.5958  0.2048
  306TIP3   OH222476   2.058   1.355   0.742 -0.9014 -0.2609 -0.1299
  306TIP3    H122477   2.080   1.297   0.669  3.2438  0.4756  0.2712
  306TIP3    H222478   2.110   1.321   0.815 -2.2573  1.0835  1.5362
  307TIP3   OH222479   1.645   6.871   6.705 -0.3463  0.5614  0.2369
  307TIP3    H122480   1.613   6.781   6.703 -0.5531  0.5519 -3.2992
  307TIP3    H222481   1.614   6.906   6.788  0.9654 -2.9706  2.4254
  308TIP3   OH222482   2.721   5.695   0.120 -0.3138 -0.4186  0.0276
  308TIP3    H122483   2.745   5.694   0.027 -0.6078  0.2441 -0.0611
  308TIP3    H222484   2.647   5.635   0.127 -1.2268  0.6113 -0.4436
  309TIP3   OH222485   5.328   1.690   7.570  0.9593  0.8509 -0.1475
  309TIP3    H122486   5.331   1.735   7.486  2.9156  1.9609  0.4485
  309TIP3    H222487   5.270   1.743   7.624 -0.7962 -0.1993 -0.9158
  310TIP3   OH222488   5.574   2.900   8.320  0.3565 -0.3862  0.3044
  310TIP3    H122489   5.625   2.919   8.242 -1.3352  0.1028 -0.7192
  310TIP3    H222490   5.577   2.981   8.371 -1.0425  0.3679 -0.7363
  311TIP3   OH222491   4.422   5.623   7.331 -0.4934  0.4979 -0.0449
  311TIP3    H122492   4.341   5.608   7.379 -0.0657  1.7094  1.0984
  311TIP3    H222493   4.460   5.535   7.321 -1.4764  0.0246  0.2078
  312TIP3   OH222494   4.069   6.645   0.103  0.0241 -0.4502 -0.2353
  312TIP3    H122495   4.007   6.576   0.081 -0.4478 -0.2893  0.5721
  312TIP3    H222496   4.150   6.618   0.060 -1.2762  0.8178 -3.9521
  313TIP3   OH222497   0.664   1.106   7.457  0.4845 -0.6458 -0.2209
  313TIP3    H122498   0.747   1.154   7.448  0.7041 -1.0204 -0.2084
  313TIP3    H222499   0.690   1.018   7.482  0.0201 -0.3999  1.2337
  314TIP3   OH222500   0.441   6.525   7.976  0.7200  0.1773 -0.7252
  314TIP3    H122501   0.469   6.592   7.915  0.0983  0.1790 -1.0190
  314TIP3    H222502   0.419   6.572   8.056 -1.4039  0.5776 -1.4759
  315TIP3   OH222503   2.223   5.591   6.358 -0.3264 -0.5626  0.2322
  315TIP3    H122504   2.145   5.642   6.382 -0.5423 -0.9221  0.3026
  315TIP3    H222505   2.263   5.568   6.442  0.7365  0.9427  0.1863
  316TIP3   OH222506   3.858   6.104   7.131 -0.0492  0.5030 -0.1875
  316TIP3    H122507   3.821   6.103   7.219  1.7470  0.6855  0.6123
  316TIP3    H222508   3.843   6.193   7.099 -1.4936  0.1857 -0.4459
  317TIP3   OH222509   2.820   1.290   0.759  0.1723  0.1099 -0.1086
  317TIP3    H122510   2.886   1.358   0.755  0.5684 -0.2712 -0.0920
  317TIP3    H222511   2.859   1.215   0.715  0.4424 -0.6935  1.4234
  318TIP3   OH222512   2.320   1.743   7.943  0.0240  0.1996 -0.3699
  318TIP3    H122513   2.400   1.691   7.946  0.6783  1.1257 -1.2427
  318TIP3    H222514   2.348   1.833   7.954 -0.6288  0.7475 -2.5905
  319TIP3   OH222515   2.299   2.011   0.420  0.4499 -0.1066  0.3577
  319TIP3    H122516   2.251   1.934   0.453  0.9187 -0.4346  0.2820
  319TIP3    H222517   2.239   2.049   0.355  0.1350 -0.2999  0.5288
  320TIP3   OH222518   2.704   6.283   8.348 -0.0263 -0.5197  0.0749
  320TIP3    H122519   2.793   6.253   8.370  0.7409  1.5316 -0.0800
  320TIP3    H222520   2.667   6.310   8.432 -0.3717 -1.0023  0.0806
  321TIP3   OH222521   2.650   3.338   8.050  0.1075  0.0728 -0.1463
  321TIP3    H122522   2.587   3.386   7.996 -2.2710 -1.1631  1.3143
  321TIP3    H222523   2.730   3.334   7.998 -1.2100  1.2107 -2.3918
  322TIP3   OH222524   2.866   1.999   2.135 -0.1059  0.2919 -0.8312
  322TIP3    H122525   2.879   2.022   2.227  0.6009 -0.0141 -0.8545
  322TIP3    H222526   2.901   2.074   2.086 -2.1350  1.3151 -0.8576
  323TIP3   OH222527   2.296   2.910   0.326 -0.5465 -0.3037 -0.6156
  323TIP3    H122528   2.364   2.844   0.312  0.0244 -0.0417  0.7644
  323TIP3    H222529   2.340   2.993   0.310 -0.6806 -0.1613 -0.2551
  324TIP3   OH222530   5.456   6.057   1.099 -0.2040  0.5239 -0.2891
  324TIP3    H122531   5.466   5.962   1.097 -1.4942  0.3639  0.1012
  324TIP3    H222532   5.495   6.084   1.182 -1.8362  0.0519  0.6740
  325TIP3   OH222533   3.804   0.035   7.681 -0.9311 -0.4371 -0.2204
  325TIP3    H122534   3.846   0.099   7.624  0.1049 -1.7421 -0.9953
  325TIP3    H222535   3.782   0.084   7.760  3.5916  0.1160  0.9906
  326TIP3   OH222536   4.417   3.512   6.653  0.1097  0.2453  0.5783
  326TIP3    H122537   4.325   3.536   6.638  0.1705  0.0163 -0.2024
  326TIP3    H222538   4.467   3.578   6.606  0.4464  1.9329  3.1467
  327TIP3   OH222539   0.600   1.685   6.427 -0.0175  0.1332 -0.6229
  327TIP3    H122540   0.635   1.656   6.343 -0.9956  1.3506 -1.4866
  327TIP3    H222541   0.557   1.607   6.463  1.5719 -0.7683 -0.5824
  328TIP3   OH222542   0.341   2.706   0.310 -0.0983 -0.4324 -0.0444
  328TIP3    H122543   0.357   2.729   0.218 -1.4943 -0.6786 -0.3727
  328TIP3    H222544   0.427   2.681   0.344  0.4612 -0.2033 -1.2479
  329TIP3   OH222545   4.121   5.092   0.221 -0.0742  0.2738  0.4296
  329TIP3    H122546   4.070   5.172   0.234 -0.0617  0.2226  0.7914
  329TIP3    H222547   4.071   5.023   0.266 -0.3300 -0.0140 -0.2816
  330TIP3   OH222548   3.895   3.642   7.867 -0.8603  0.3531  0.3322
  330TIP3    H122549   3.880   3.637   7.961  0.7401  0.0543  0.6040
  330TIP3    H222550   3.986   3.668   7.858 -0.4231 -1.4126 -1.1058
  331TIP3   OH222551   2.078   4.256   7.441  0.2918  0.2295 -0.0005
  331TIP3    H122552   2.095   4.262   7.347 -0.0555  0.3791 -0.0524
  331TIP3    H222553   2.102   4.166   7.464  2.1461  0.7100  0.1199
  332TIP3   OH222554   1.484   6.003   7.877  0.6265 -0.1466 -0.6690
  332TIP3    H122555   1.537   5.938   7.832 -0.1599 -0.1973 -1.5305
  332TIP3    H222556   1.511   5.996   7.969  0.7275 -1.5065 -0.7892
  333TIP3   OH222557   6.369   6.752   0.646 -0.4348 -0.2897 -0.2195
  333TIP3    H122558   6.453   6.778   0.684 -0.6241 -0.4925  0.3492
  333TIP3    H222559   6.330   6.834   0.616 -0.1847 -0.1540 -0.1801
  334TIP3   OH222560   5.843   0.336   0.774 -0.0273  0.0200 -0.0454
  334TIP3    H122561   5.858   0.411   0.832  0.6173  0.7249 -1.0933
  334TIP3    H222562   5.923   0.285   0.779  0.0867  0.1573 -0.4069
  335TIP3   OH222563   1.620   6.166   0.832  0.0017 -0.2991 -0.0608
  335TIP3    H122564   1.707   6.153   0.868 -0.0197 -0.7526 -0.1690
  335TIP3    H222565   1.589   6.247   0.874 -0.1064 -0.9143  1.0834
  336TIP3   OH222566   5.461   1.047   7.194  0.2875  0.5248 -0.9070
  336TIP3    H122567   5.388   1.105   7.217  1.2883  1.1037  1.0200
  336TIP3    H222568   5.533   1.107   7.172  0.8638  0.0121 -0.4681
  337TIP3   OH222569   3.647   3.093   6.934  0.3219  0.0500  0.1972
  337TIP3    H122570   3.630   3.019   6.876 -0.2294  1.1323 -1.0646
  337TIP3    H222571   3.734   3.076   6.970  0.6217 -0.7141 -0.8492
  338TIP3   OH222572   3.702   4.266   1.278 -0.2705  0.1520 -0.2829
  338TIP3    H122573   3.736   4.269   1.367 -0.1118 -0.4556 -0.3186
  338TIP3    H222574   3.695   4.172   1.258  0.3260  0.2756 -1.1469
  339TIP3   OH222575   4.693   2.392   8.118 -0.0247  0.2912 -0.2952
  339TIP3    H122576   4.769   2.444   8.145 -0.9272  2.4959 -1.6271
  339TIP3    H222577   4.694   2.398   8.022 -0.0040 -2.5320 -0.5426
  340TIP3   OH222578   6.659   0.563   6.220  0.4776 -0.8540 -0.5356
  340TIP3    H122579   6.737   0.609   6.252  0.1753  0.3440 -1.4279
  340TIP3    H222580   6.586   0.622   6.242 -0.1468 -1.8215  0.0298
  341TIP3   OH222581   0.001   2.474   1.244  0.3043 -0.1081  0.0741
  341TIP3    H122582  -0.035   2.479   1.333  1.0294 -0.2620  0.3870
  341TIP3    H222583  -0.045   2.401   1.203  1.6797 -1.6756  1.1623
  342TIP3   OH222584   1.582   1.913   8.431 -0.2142 -0.3747  0.7055
  342TIP3    H122585   1.562   1.857   8.356 -1.4952 -0.1471  0.8577
  342TIP3    H222586   1.568   2.002   8.399 -2.1654 -0.3207  1.5532
  343TIP3   OH222587   6.240   2.773   1.360 -0.0267  0.4180  0.0411
  343TIP3    H122588   6.296   2.772   1.437 -1.0715 -2.7375  0.9200
  343TIP3    H222589   6.286   2.719   1.296  0.7814  2.9152 -1.6545
  344TIP3   OH222590   3.906   2.549   1.118 -0.1512  0.2437  0.4229
  344TIP3    H122591   3.932   2.493   1.190 -0.2768 -0.8431 -0.3506
  344TIP3    H222592   3.988   2.588   1.086  0.2942 -1.3572 -0.5255
  345TIP3   OH222593   5.686   5.473   8.486 -0.3807 -0.2050 -0.1109
  345TIP3    H122594   5.697   5.511   8.399  1.4089 -0.3791  0.0056
  345TIP3    H222595   5.688   5.549   8.545 -0.4632 -0.1817 -0.1379
  346TIP3   OH222596   1.536   5.578   6.969  0.6204 -0.5666  0.3636
  346TIP3    H122597   1.597   5.505   6.964 -0.9974 -2.0654  1.2139
  346TIP3    H222598   1.463   5.552   6.912  0.3287  0.7117  0.1235
  347TIP3   OH222599   0.779   2.739   1.376  0.2878  0.2475  0.2417
  347TIP3    H122600   0.728   2.787   1.311 -1.3297 -1.0477  0.4780
  347TIP3    H222601   0.751   2.775   1.460 -1.7947 -1.6911  0.5043
  348TIP3   OH222602   3.599   1.830   7.749  0.4503  0.1240  0.6562
  348TIP3    H122603   3.533   1.800   7.686 -0.3018  0.5197  1.2403
  348TIP3    H222604   3.664   1.876   7.695  0.6818 -0.9570 -0.0176
  349TIP3   OH222605   1.621   0.812   0.316 -0.1676  0.4984  0.3355
  349TIP3    H122606   1.636   0.848   0.403  0.9965 -1.7334  1.1506
  349TIP3    H222607   1.701   0.832   0.268 -0.0133  0.0901  0.4145
  350TIP3   OH222608   0.123   5.580   8.080  0.2881 -0.3182  0.5186
  350TIP3    H122609   0.034   5.562   8.048 -0.1884  0.7722  1.1976
  350TIP3    H222610   0.122   5.549   8.171 -0.0865  1.6337  1.2276
  351TIP3   OH222611   5.880   2.367   0.564  0.2099  0.1955 -0.0725
  351TIP3    H122612   5.944   2.436   0.549 -0.7665  0.5916 -3.1802
  351TIP3    H222613   5.916   2.290   0.519  1.3111 -1.5181  3.3794
  352TIP3   OH222614   3.613   4.044   7.250  0.3348 -0.8613  0.0391
  352TIP3    H122615   3.646   4.131   7.270  0.1170 -0.7084 -0.2655
  352TIP3    H222616   3.671   4.011   7.181 -1.0139 -0.0036 -1.5760
  353TIP3   OH222617   1.184   5.224   2.411  0.0701  0.1662  0.2386
  353TIP3    H122618   1.241   5.257   2.481 -0.5906  0.1070  0.8229
  353TIP3    H222619   1.217   5.137   2.392  2.0077  1.1838 -1.5018
  354TIP3   OH222620   5.178   2.963   7.834  0.1872 -0.9352 -0.1535
  354TIP3    H122621   5.265   2.979   7.798 -0.2181  0.5431 -0.5739
  354TIP3    H222622   5.119   2.975   7.760 -0.4827 -0.3245  0.4551
  355TIP3   OH222623   6.626   6.685   7.451 -0.3273  0.5562  0.1431
  355TIP3    H122624   6.662   6.722   7.370 -2.0117  0.9900 -0.4503
  355TIP3    H222625   6.685   6.716   7.520  0.6823  0.8464 -0.8230
  356TIP3   OH222626   5.761   0.445   6.329 -0.5626 -0.2588  0.0909
  356TIP3    H122627   5.832   0.382   6.317 -0.0299  0.0826  1.3488
  356TIP3    H222628   5.702   0.403   6.391 -0.7032  0.0807  0.1878
  357TIP3   OH222629   3.779   6.398   6.646 -0.4076 -0.3293 -0.3588
  357TIP3    H122630   3.855   6.390   6.704  0.2433  0.9058 -0.9888
  357TIP3    H222631   3.749   6.487   6.658  0.3820  0.3107 -2.6140
  358TIP3   OH222632   2.381   3.555   7.734  0.2325  0.2248 -0.2974
  358TIP3    H122633   2.298   3.529   7.695  0.2223 -0.7747  0.3736
  358TIP3    H222634   2.408   3.632   7.683 -0.1802 -0.5501 -1.7448
  359TIP3   OH222635   1.864   2.352   0.584 -0.1630 -0.3285 -0.1776
  359TIP3    H122636   1.806   2.426   0.565 -0.2126 -0.8661 -2.4957
  359TIP3    H222637   1.824   2.279   0.537  1.5901 -1.0585 -0.5998
  360TIP3   OH222638   0.279   1.955   6.577  0.8645  0.0229 -0.1865
  360TIP3    H122639   0.299   1.871   6.618  0.8543  0.8179  1.5245
  360TIP3    H222640   0.298   1.942   6.484  2.4850 -1.3575  0.2977
  361TIP3   OH222641   4.887   1.672   1.475 -0.3867  0.2238 -0.3606
  361TIP3    H122642   4.897   1.699   1.384  2.1560  0.5356 -0.0542
  361TIP3    H222643   4.867   1.578   1.470 -0.5332  0.2995 -1.2397
  362TIP3   OH222644   1.498   5.156   2.086 -0.7674  0.4903  0.3638
  362TIP3    H122645   1.582   5.180   2.046 -1.3816  0.3500 -1.0496
  362TIP3    H222646   1.507   5.182   2.178  0.9175  0.2292  0.3024
  363TIP3   OH222647   6.454   0.798   6.004 -0.3002  1.0606  0.0210
  363TIP3    H122648   6.534   0.763   5.967 -1.4599  0.1554 -1.7906
  363TIP3    H222649   6.460   0.779   6.097  0.1854 -1.9079 -0.5273
  364TIP3   OH222650   4.505   2.127   1.657  0.4729  0.3873 -0.1888
  364TIP3    H122651   4.479   2.194   1.722 -1.6193 -1.0381  0.5576
  364TIP3    H222652   4.453   2.148   1.580 -0.1937 -0.3428  0.0493
  365TIP3   OH222653   1.256   1.622   0.113 -0.8113  0.0067  0.1521
  365TIP3    H122654   1.266   1.572   0.194 -0.8397  1.8676  1.3697
  365TIP3    H222655   1.327   1.687   0.116 -0.7468  0.0540 -1.3860
  366TIP3   OH222656   4.366   4.676   7.432 -0.6394 -0.3328  0.0135
  366TIP3    H122657   4.393   4.590   7.466 -1.4008 -0.6702 -0.2192
  366TIP3    H222658   4.434   4.736   7.462 -0.4117 -0.9160  0.6914
  367TIP3   OH222659   4.682   3.510   7.505 -0.4911  0.9573 -0.7700
  367TIP3    H122660   4.624   3.581   7.476  0.7983  1.4127 -2.4239
  367TIP3    H222661   4.765   3.553   7.525  0.1809  0.0038 -1.3680
  368TIP3   OH222662   0.144   5.960   1.844  0.5588  0.3540 -0.2430
  368TIP3    H122663   0.215   6.013   1.881 -0.1803 -0.4647  2.6026
  368TIP3    H222664   0.068   6.019   1.844  0.7479  0.6206 -1.3934
  369TIP3   OH222665   3.006   1.937   7.471 -0.1318 -0.1020  0.1580
  369TIP3    H122666   3.083   1.969   7.424 -1.5039 -0.6297 -2.6942
  369TIP3    H222667   2.933   1.988   7.436 -1.3590 -1.1387  1.1041
  370TIP3   OH222668   3.410   3.464   7.965  0.3981 -0.5022 -0.3406
  370TIP3    H122669   3.490   3.461   7.913  0.0064 -2.7844 -0.8880
  370TIP3    H222670   3.440   3.483   8.054  1.3741  0.2328 -0.8068
  371TIP3   OH222671   0.966   3.515   8.549 -0.5880 -0.3905  0.3231
  371TIP3    H122672   0.875   3.490   8.563 -0.8338  0.3453  0.0641
  371TIP3    H222673   1.016   3.461   8.610 -0.9966 -2.2973 -0.9223
  372TIP3   OH222674   1.854   2.262   7.080 -0.0507 -0.2513  0.0326
  372TIP3    H122675   1.873   2.353   7.058  0.0399 -0.1256  0.6179
  372TIP3    H222676   1.804   2.230   7.005  0.6913  0.0121 -0.5845
  373TIP3   OH222677   6.651   3.541   8.069  0.0326  0.2381 -0.3071
  373TIP3    H122678   6.669   3.468   8.128  1.1491 -0.2567 -1.2091
  373TIP3    H222679   6.556   3.547   8.067 -0.0523 -0.4468  0.6630
  374TIP3   OH222680   4.206   0.059   0.937  0.2664  0.1733 -0.4142
  374TIP3    H122681   4.254  -0.004   0.991 -0.4418  0.1693  0.2242
  374TIP3    H222682   4.223   0.031   0.847  1.0230 -0.1431 -0.1819
  375TIP3   OH222683   1.190   4.188   8.050 -0.0538 -0.3720  0.2856
  375TIP3    H122684   1.234   4.201   8.134  0.4336  0.0230 -0.0194
  375TIP3    H222685   1.251   4.134   7.999 -0.3586 -0.6339  0.2029
  376TIP3   OH222686   5.348   6.837   0.795  0.3206  0.0317  0.6226
  376TIP3    H122687   5.310   6.763   0.749  0.1707 -0.1196  0.9841
  376TIP3    H222688   5.273   6.892   0.819  0.4692  0.5383 -0.0497
  377TIP3   OH222689   3.062   2.858   7.440  0.2105  0.5314  0.1942
  377TIP3    H122690   3.043   2.782   7.385 -0.1112  0.3923  0.4978
  377TIP3    H222691   3.081   2.928   7.378  1.0234  0.0813 -0.0923
  378TIP3   OH222692   3.114   1.018   8.290  0.1950  0.4260  0.2225
  378TIP3    H122693   3.103   1.090   8.351  1.7811 -0.5436  1.7414
  378TIP3    H222694   3.088   0.940   8.339 -1.7599 -0.0744 -1.4744
  379TIP3   OH222695   0.358   1.798   8.523 -0.1540 -0.5326 -0.5703
  379TIP3    H122696   0.333   1.845   8.443  3.1322 -0.6292 -1.7926
  379TIP3    H222697   0.353   1.864   8.592  0.0495  0.4348 -1.4554
  380TIP3   OH222698   5.552   2.000   7.655  0.0445 -0.2119  0.2423
  380TIP3    H122699   5.471   1.982   7.703  0.5768 -1.3563  0.7236
  380TIP3    H222700   5.522   2.025   7.567 -0.8128 -1.4240  0.1675
  381TIP3   OH222701   5.860   2.722   0.879  0.1952  0.4390  0.2943
  381TIP3    H122702   5.844   2.817   0.877 -0.8430  0.2655  0.1485
  381TIP3    H222703   5.842   2.692   0.790 -0.9341 -0.1129  0.6889
  382TIP3   OH222704   5.965   1.145   8.013 -0.3531  0.0332 -0.6788
  382TIP3    H122705   6.060   1.130   8.013 -0.2798  0.4191  0.3192
  382TIP3    H222706   5.956   1.240   8.001 -0.6569 -0.1254 -1.8225
  383TIP3   OH222707   1.055   0.608   6.628 -0.1686 -0.3069  0.0998
  383TIP3    H122708   0.983   0.545   6.634  0.8719 -1.4283  1.4128
  383TIP3    H222709   1.108   0.592   6.706 -0.5125  3.0811  1.2270
  384TIP3   OH222710   1.306   5.586   8.166  0.3016 -0.5807  0.0846
  384TIP3    H122711   1.308   5.556   8.258 -2.1311  0.4775  0.5466
  384TIP3    H222712   1.284   5.679   8.171 -1.6873 -0.8890 -1.5878
  385TIP3   OH222713   3.449   0.465   8.009 -0.0758 -0.1051 -0.0175
  385TIP3    H122714   3.418   0.554   7.993  0.1285  0.2255  1.2722
  385TIP3    H222715   3.471   0.431   7.923  1.3950  1.6563 -0.3975
  386TIP3   OH222716   2.980   3.592   1.410 -0.2002  0.4593  0.2979
  386TIP3    H122717   3.040   3.666   1.406  0.0630  0.1986 -0.6653
  386TIP3    H222718   3.010   3.541   1.486  0.2017  0.8286  0.3908
  387TIP3   OH222719   4.798   4.730   0.115 -0.6206  0.2596 -0.5065
  387TIP3    H122720   4.732   4.719   0.183  0.0928 -0.0055  0.1635
  387TIP3    H222721   4.850   4.805   0.144  1.0083 -1.1287  0.4003
  388TIP3   OH222722   6.873   5.163   8.451  0.0373 -0.1515 -0.1786
  388TIP3    H122723   6.911   5.147   8.537 -0.8923  0.3820  0.3405
  388TIP3    H222724   6.797   5.104   8.446 -0.8675  0.9506  0.0310
  389TIP3   OH222725   1.279   6.111   8.570  0.0097  0.3199  0.2332
  389TIP3    H122726   1.233   6.193   8.551 -0.1318 -0.0826 -1.2846
  389TIP3    H222727   1.213   6.043   8.553  0.7561 -0.1985 -0.6934
  390TIP3   OH222728   2.811   6.888   0.348 -0.5256 -0.7104 -0.3708
  390TIP3    H122729   2.794   6.954   0.281 -0.8110 -0.1331  0.2608
  390TIP3    H222730   2.894   6.916   0.388 -1.8855  0.7684  1.6253
  391TIP3   OH222731   2.332   0.661   7.435 -0.1392  0.1791  0.7068
  391TIP3    H122732   2.357   0.690   7.522 -1.2757  2.2144  0.4086
  391TIP3    H222733   2.270   0.589   7.450 -0.2139  0.4222  1.5677
  392TIP3   OH222734   2.906   4.694   0.641  0.5847  0.0467  0.1817
  392TIP3    H122735   2.915   4.789   0.632  1.6036 -0.1094 -0.6289
  392TIP3    H222736   2.919   4.660   0.553 -0.0549 -0.8357  0.4128
  393TIP3   OH222737   5.022   4.329   2.801 -0.0115  0.4185  0.6882
  393TIP3    H122738   5.021   4.385   2.723  0.0653 -0.8754 -0.2792
  393TIP3    H222739   5.042   4.242   2.767  1.6918  0.0846  2.3498
  394TIP3   OH222740   0.611   4.113   1.563  0.0598 -0.3092  0.4866
  394TIP3    H122741   0.696   4.133   1.602  0.3548 -0.3803 -0.1063
  394TIP3    H222742   0.612   4.159   1.479 -1.1159  0.9921  1.1377
  395TIP3   OH222743   2.999   0.328   0.642 -0.0241 -0.0073 -0.0337
  395TIP3    H122744   2.942   0.358   0.571  0.6694  1.6057  0.0425
  395TIP3    H222745   3.002   0.402   0.703  1.5171 -0.3452  0.3415
  396TIP3   OH222746   1.964   5.001   8.495  0.5213 -0.4035  0.2676
  396TIP3    H122747   1.897   4.956   8.547  1.0447  0.7924  2.0747
  396TIP3    H222748   1.987   5.078   8.547 -0.6991  2.3240 -2.8688
  397TIP3   OH222749   6.202   3.642   6.699 -0.2139  0.3424  0.2796
  397TIP3    H122750   6.180   3.665   6.789 -1.0498 -0.7147  0.3641
  397TIP3    H222751   6.155   3.707   6.646 -0.6780  0.2478  0.5713
  398TIP3   OH222752   1.779   3.052   7.891 -0.0711 -0.1976  0.9944
  398TIP3    H122753   1.700   3.105   7.897 -0.4895 -0.5979 -0.4717
  398TIP3    H222754   1.763   2.993   7.817  0.3763 -2.3983  2.5588
  399TIP3   OH222755   6.767   2.752   8.269  0.5450  0.2339 -0.2313
  399TIP3    H122756   6.722   2.707   8.340  1.0270 -1.4684 -0.9579
  399TIP3    H222757   6.696   2.784   8.212  0.1448  1.8434  1.0816
  400TIP3   OH222758   4.317   2.192   8.548 -0.0293 -0.2343 -0.1147
  400TIP3    H122759   4.273   2.178   8.464 -1.0959  1.7335  0.0586
  400TIP3    H222760   4.247   2.184   8.613 -0.5266  3.8789  0.1061
  401TIP3   OH222761   0.501   6.079   0.058  0.2007  0.3001  1.0792
  401TIP3    H122762   0.550   6.140   0.002 -1.5914  0.6393 -0.1875
  401TIP3    H222763   0.559   6.004   0.068  1.2322  0.9472  0.1487
  402TIP3   OH222764   0.754   5.853   0.663 -0.4181  0.2946 -0.2610
  402TIP3    H122765   0.692   5.787   0.632  0.5124 -1.5011  1.4309
  402TIP3    H222766   0.709   5.893   0.738  0.5924 -1.5183  1.4350
  403TIP3   OH222767   4.294   2.291   6.102 -0.2281 -0.5170 -0.3545
  403TIP3    H122768   4.207   2.322   6.077  0.0366  0.0357 -0.5874
  403TIP3    H222769   4.278   2.233   6.177 -0.7742 -0.2582 -0.2699
  404TIP3   OH222770   2.771   0.193   7.244  0.1688  0.5434  0.4891
  404TIP3    H122771   2.694   0.242   7.216  1.1227  1.4665 -0.6694
  404TIP3    H222772   2.750   0.102   7.225 -0.1354  0.9168 -1.1658
  405TIP3   OH222773   4.305   2.546   0.146 -0.7798  0.4463  0.2364
  405TIP3    H122774   4.314   2.599   0.225 -1.0547  1.4367 -0.3709
  405TIP3    H222775   4.309   2.610   0.074 -1.6474 -0.3018 -0.4980
  406TIP3   OH222776   3.823   0.253   8.267  0.7236  0.2078 -0.3796
  406TIP3    H122777   3.814   0.191   8.339  0.6307 -0.1959 -0.7347
  406TIP3    H222778   3.743   0.307   8.272  0.5109 -0.0979 -0.4400
  407TIP3   OH222779   2.538   1.237   0.201  0.7454  0.3580  0.3151
  407TIP3    H122780   2.460   1.292   0.210  0.5427 -0.0823  1.3998
  407TIP3    H222781   2.507   1.149   0.226  0.9328 -0.3811 -1.8209
  408TIP3   OH222782   2.803   4.155   8.505 -0.0069 -0.0081 -0.1864
  408TIP3    H122783   2.720   4.126   8.467 -0.2518 -1.4283  1.3259
  408TIP3    H222784   2.861   4.166   8.429 -1.1718 -0.3029 -1.1596
  409TIP3   OH222785   2.799   3.876   0.434 -0.3593  0.1439  0.0776
  409TIP3    H122786   2.833   3.794   0.397  0.5037  0.5755 -0.1189
  409TIP3    H222787   2.803   3.938   0.362  0.0248  0.6350  0.5097
  410TIP3   OH222788   4.349   2.923   1.552 -0.5278 -0.3174 -0.1457
  410TIP3    H122789   4.377   2.953   1.638 -0.8500 -0.4758  0.0162
  410TIP3    H222790   4.430   2.903   1.505 -0.0956  3.2210 -1.1736
  411TIP3   OH222791   1.273   3.717   7.314 -0.2518 -0.1498 -0.4383
  411TIP3    H122792   1.289   3.634   7.270  1.4283 -1.0340  1.6729
  411TIP3    H222793   1.232   3.693   7.397 -0.0617  1.1399  0.0600
  412TIP3   OH222794   3.532   1.552   7.206 -0.6262  0.1022 -0.3537
  412TIP3    H122795   3.454   1.585   7.250 -0.1093  0.7688  0.0743
  412TIP3    H222796   3.530   1.594   7.120 -1.9804 -1.6912 -1.2771
  413TIP3   OH222797   2.123   2.893   1.721  0.0943 -0.7407  0.1311
  413TIP3    H122798   2.034   2.859   1.727 -0.9602  1.6444 -0.8608
  413TIP3    H222799   2.124   2.971   1.777  0.9238  0.4017 -1.3750
  414TIP3   OH222800   6.457   5.939   7.923 -0.2717 -0.5611  0.0995
  414TIP3    H122801   6.529   5.876   7.913 -0.5982 -0.9880  0.4322
  414TIP3    H222802   6.381   5.886   7.945 -0.6553 -0.0912 -0.0755
  415TIP3   OH222803   6.584   3.876   6.994  0.0788  0.5400  0.0867
  415TIP3    H122804   6.520   3.869   6.924 -0.4056  1.6590  0.3911
  415TIP3    H222805   6.660   3.827   6.962 -1.1165 -1.3391 -0.0167
  416TIP3   OH222806   4.245   6.554   7.898  0.0061  0.4604 -0.1476
  416TIP3    H122807   4.202   6.473   7.925 -1.3525  1.1940 -0.0251
  416TIP3    H222808   4.255   6.604   7.979  1.8521 -0.0048 -0.0397
  417TIP3   OH222809   3.412   6.345   7.076 -0.0676 -0.0848 -0.5382
  417TIP3    H122810   3.438   6.383   6.992 -3.8468  1.4764 -1.1969
  417TIP3    H222811   3.323   6.314   7.062 -1.0014  0.5782  2.9730
  418TIP3   OH222812   3.084   5.055   6.929  0.1577 -0.0529 -0.0336
  418TIP3    H122813   3.135   4.973   6.928  3.0460  1.5973 -0.5624
  418TIP3    H222814   3.007   5.034   6.982  1.7579 -2.5714  1.5538
  419TIP3   OH222815   0.097   5.598   6.188  0.5202  0.2670 -0.2809
  419TIP3    H122816   0.135   5.680   6.218  0.7822 -0.9506  3.1522
  419TIP3    H222817   0.017   5.588   6.239 -1.1517 -0.2737 -2.7906
  420TIP3   OH222818   6.330   2.646   1.115  0.6282 -0.7425 -0.4906
  420TIP3    H122819   6.396   2.576   1.119 -0.2675 -1.5555  1.3275
  420TIP3    H222820   6.267   2.614   1.051  1.3442 -0.5426 -1.3153
  421TIP3   OH222821   4.506   0.887   8.128  0.2475  0.1579  0.5072
  421TIP3    H122822   4.482   0.966   8.079  1.1716 -0.5332 -1.1309
  421TIP3    H222823   4.459   0.816   8.085 -1.4198 -0.1280  2.6126
  422TIP3   OH222824   0.242   1.670   7.448  0.3598 -0.4908 -0.2967
  422TIP3    H122825   0.189   1.669   7.369 -1.1761 -0.4731  0.6905
  422TIP3    H222826   0.184   1.706   7.516  2.0601  0.8281  0.5461
  423TIP3   OH222827   4.721   1.440   6.407  0.2995 -0.0911 -0.3737
  423TIP3    H122828   4.658   1.461   6.476  0.8034 -0.7695  0.3126
  423TIP3    H222829   4.752   1.525   6.376  1.1509  0.2554  1.2619
  424TIP3   OH222830   4.649   0.359   0.035  0.2530  0.2744  0.3826
  424TIP3    H122831   4.700   0.400   0.104 -1.0993  1.9739  0.4504
  424TIP3    H222832   4.597   0.430  -0.002  0.0234 -0.8284 -1.5645
  425TIP3   OH222833   1.559   1.372   0.580 -0.2209  0.1530 -0.2281
  425TIP3    H122834   1.559   1.326   0.664  1.6728  1.7734  0.7241
  425TIP3    H222835   1.581   1.305   0.516 -1.8747 -1.1519  0.4828
  426TIP3   OH222836   4.434   1.584   1.657 -0.0801  0.2006 -0.5664
  426TIP3    H122837   4.415   1.677   1.669 -0.3517  0.0366  0.3814
  426TIP3    H222838   4.510   1.583   1.599  0.0706  1.0280 -0.4049
  427TIP3   OH222839   1.223   1.289   6.531  0.2131  0.4766  0.1981
  427TIP3    H122840   1.288   1.359   6.540  2.3635 -1.3314 -0.4810
  427TIP3    H222841   1.244   1.247   6.448  0.0234 -1.9249  1.2850
  428TIP3   OH222842   1.619   4.978   0.465  0.2617  0.0513  0.0541
  428TIP3    H122843   1.551   4.915   0.439 -0.3626  0.2369  1.1663
  428TIP3    H222844   1.646   5.019   0.383 -0.7006 -0.2949 -0.4592
  429TIP3   OH222845   3.102   0.603   8.273  0.4982 -0.4974 -0.1576
  429TIP3    H122846   3.170   0.536   8.268 -0.6964 -1.9175  1.2519
  429TIP3    H222847   3.037   0.566   8.333 -1.4451  0.8350 -1.3110
  430TIP3   OH222848   2.997   5.886   0.648 -0.2068 -0.0015  0.1899
  430TIP3    H122849   3.016   5.978   0.627 -0.3119  0.0969  0.5246
  430TIP3    H222850   3.073   5.856   0.698  0.6312 -0.6070 -1.3820
  431TIP3   OH222851   3.833   6.623   1.587 -0.0402 -0.2358 -0.1699
  431TIP3    H122852   3.915   6.672   1.589  2.5735 -4.1940  2.1620
  431TIP3    H222853   3.791   6.645   1.671 -0.2729  0.0885 -0.3687
  432TIP3   OH222854   4.535   1.518   7.929 -0.3130  0.3069  0.7147
  432TIP3    H122855   4.601   1.497   7.996 -0.2780 -2.4891 -0.0676
  432TIP3    H222856   4.566   1.474   7.850 -1.5425  1.5933 -0.5319
  433TIP3   OH222857   1.931   4.643   6.015 -0.2101  0.5466 -0.1356
  433TIP3    H122858   1.837   4.633   6.028 -0.3140  1.8363  0.2555
  433TIP3    H222859   1.953   4.724   6.061  1.7313 -1.4320  2.7212
  434TIP3   OH222860   0.224   0.461   0.138 -0.1649  0.0739 -0.2808
  434TIP3    H122861   0.314   0.473   0.169 -0.4495  0.9434  0.2436
  434TIP3    H222862   0.178   0.540   0.166 -2.1012 -2.0102  3.1250
  435TIP3   OH222863   5.609   2.784   6.392 -0.1590  0.5839 -0.8543
  435TIP3    H122864   5.673   2.721   6.359  0.4317  0.8414 -0.2243
  435TIP3    H222865   5.629   2.865   6.345 -0.5489  0.4600 -1.2442
  436TIP3   OH222866   4.975   4.538   6.324 -0.5163  0.0493  0.2483
  436TIP3    H122867   4.992   4.572   6.236  1.1120  1.2599  0.9794
  436TIP3    H222868   4.882   4.514   6.323 -0.4202 -0.4527 -1.9376
  437TIP3   OH222869   1.231   1.390   7.094  0.3459  0.0385  0.1317
  437TIP3    H122870   1.267   1.351   7.173 -0.9386  0.3474  0.8878
  437TIP3    H222871   1.198   1.475   7.122  0.0598  0.2366 -0.7854
  438TIP3   OH222872   5.557   0.774   0.054  0.0755  0.1221  0.0350
  438TIP3    H122873   5.574   0.800   0.145  0.8639 -0.0538 -0.0588
  438TIP3    H222874   5.531   0.683   0.060  1.2427 -0.2280 -0.0136
  439TIP3   OH222875   3.651   5.382   8.058  0.2214  0.1560  0.0444
  439TIP3    H122876   3.602   5.365   8.138  0.8303  0.0395  0.3976
  439TIP3    H222877   3.730   5.328   8.066 -0.2724 -0.8172 -1.1865
  440TIP3   OH222878   0.881   5.693   0.974 -0.0055 -0.3810 -0.2258
  440TIP3    H122879   0.839   5.778   0.986  1.5686  0.5563 -1.0227
  440TIP3    H222880   0.953   5.693   1.038  1.2684 -0.2096 -1.6085
  441TIP3   OH222881   6.512   2.279   0.852  0.2378 -0.6546  0.1866
  441TIP3    H122882   6.539   2.192   0.823 -3.2830 -1.2867 -1.9088
  441TIP3    H222883   6.545   2.339   0.785  0.3240 -0.7596  0.1362
  442TIP3   OH222884   6.489   1.888   7.569 -0.2444  0.3877 -0.1845
  442TIP3    H122885   6.472   1.927   7.654  1.4219 -0.9010  0.8076
  442TIP3    H222886   6.510   1.796   7.588  1.2438  0.3290 -1.8447
  443TIP3   OH222887   0.373   3.670   8.073 -0.6568  0.6413 -0.5334
  443TIP3    H122888   0.435   3.663   8.001  0.6968 -0.4427  0.6703
  443TIP3    H222889   0.362   3.765   8.087  1.7153  0.8851  0.0034
  444TIP3   OH222890   6.262   2.754   0.643  0.2569 -0.0059  0.0721
  444TIP3    H122891   6.212   2.833   0.662 -1.0428 -0.7660 -0.1022
  444TIP3    H222892   6.348   2.786   0.614 -0.1249  1.3195  0.3612
  445TIP3   OH222893   2.789   2.108   1.423 -0.3803 -0.1093  0.2568
  445TIP3    H122894   2.814   2.104   1.331  0.4636  0.1022  0.4680
  445TIP3    H222895   2.862   2.067   1.470 -0.1467  1.0303  0.9368
  446TIP3   OH222896   5.800   3.861   2.106 -0.3191 -0.3612  0.7002
  446TIP3    H122897   5.799   3.924   2.034 -0.7512 -0.5545  0.5341
  446TIP3    H222898   5.887   3.871   2.145  0.4272 -1.2110 -0.6724
  447TIP3   OH222899   6.236   3.472   6.471 -0.5414  0.5466  0.5644
  447TIP3    H122900   6.226   3.522   6.552 -1.2095 -1.0716  1.5241
  447TIP3    H222901   6.148   3.438   6.452 -0.8553  2.5120 -1.9864
  448TIP3   OH222902   3.851   0.833   7.252 -0.6417 -0.5296  0.1747
  448TIP3    H122903   3.856   0.918   7.295  1.5284 -0.2007 -0.5939
  448TIP3    H222904   3.938   0.796   7.262 -0.6645 -1.3618 -2.0313
  449TIP3   OH222905   5.679   0.080   0.295  0.2709  0.3003 -0.0509
  449TIP3    H122906   5.734   0.143   0.342 -0.7925  1.2989 -0.0880
  449TIP3    H222907   5.647   0.128   0.219 -0.5217 -0.3045 -0.1120
  450TIP3   OH222908   6.520   4.773   1.494 -0.1982 -0.0137  0.0897
  450TIP3    H122909   6.547   4.701   1.436 -0.8187 -0.7943  0.7319
  450TIP3    H222910   6.427   4.757   1.509 -0.3128  0.8608  0.3629
  451TIP3   OH222911   2.971   2.369   0.461  0.0929  0.4141 -0.2134
  451TIP3    H122912   3.010   2.433   0.521  1.4565 -1.4781  1.0350
  451TIP3    H222913   2.972   2.287   0.510 -3.1468 -0.2859 -1.1376
  452TIP3   OH222914   1.242   0.008   7.335 -0.1974 -0.4053  0.2265
  452TIP3    H122915   1.231   0.077   7.270  0.6183 -1.4070 -1.0119
  452TIP3    H222916   1.314  -0.045   7.302  0.2987 -0.8988  2.0021
  453TIP3   OH222917   5.587   1.444   5.676  0.1873 -0.5221  0.1079
  453TIP3    H122918   5.526   1.512   5.650 -0.8932 -1.5606 -0.1578
  453TIP3    H222919   5.553   1.411   5.759  2.0434  0.8519  1.5139
  454TIP3   OH222920   2.231   1.226   7.049  0.3151  0.2929 -0.0279
  454TIP3    H122921   2.147   1.210   7.092  0.1940  0.6838 -0.1122
  454TIP3    H222922   2.274   1.292   7.103  1.4903 -1.4077  1.1915
  455TIP3   OH222923   5.839   4.864   7.543  0.2544 -0.0151 -0.5287
  455TIP3    H122924   5.799   4.777   7.540 -1.9234  0.8497  0.7590
  455TIP3    H222925   5.927   4.849   7.578 -0.6433 -1.5663  1.2449
  456TIP3   OH222926   0.852   6.060   8.559  0.7587  0.7268  0.1347
  456TIP3    H122927   0.925   6.021   8.510 -0.2311  0.9901 -1.6245
  456TIP3    H222928   0.801   5.986   8.590  0.7993  0.5558 -0.1970
  457TIP3   OH222929   4.161   4.412   8.533 -0.1681 -0.5716 -0.0773
  457TIP3    H122930   4.252   4.435   8.556 -0.3243  0.5549 -0.4926
  457TIP3    H222931   4.111   4.437   8.611 -0.4268  1.2748 -0.7696
  458TIP3   OH222932   1.186   6.526   7.608  0.1417 -0.0487 -0.1329
  458TIP3    H122933   1.091   6.521   7.591 -0.0220 -0.7743  0.9097
  458TIP3    H222934   1.218   6.587   7.542 -0.7093 -1.4735 -1.9798
  459TIP3   OH222935   1.958   5.059   1.938  0.1715  0.5728 -0.4542
  459TIP3    H122936   2.027   5.116   1.972 -0.7117  1.6393 -0.4052
  459TIP3    H222937   1.949   4.990   2.004 -0.6768  1.9415  0.9180
  460TIP3   OH222938   4.596   2.745   6.597 -0.0704 -0.6001 -0.9540
  460TIP3    H122939   4.572   2.825   6.551 -1.0559  0.4078  1.1729
  460TIP3    H222940   4.534   2.679   6.565 -1.1371  0.2286 -0.6373
  461TIP3   OH222941   6.269   6.106   0.575  0.5128 -0.0603 -0.1619
  461TIP3    H122942   6.322   6.185   0.565 -1.1720  1.0809 -0.4557
  461TIP3    H222943   6.231   6.112   0.662  0.1380 -0.3845 -0.2947
  462TIP3   OH222944   5.880   4.838   0.415 -0.9775  0.5724 -0.8341
  462TIP3    H122945   5.809   4.841   0.479 -0.9960 -0.6669 -0.7659
  462TIP3    H222946   5.857   4.903   0.349 -1.8607  0.6033 -0.5042
  463TIP3   OH222947   0.458   3.641   0.390 -0.0666 -0.8420  0.3486
  463TIP3    H122948   0.510   3.642   0.310 -0.6020 -0.1297 -0.0066
  463TIP3    H222949   0.384   3.699   0.371  1.3097  1.7668  2.3955
  464TIP3   OH222950   6.898   2.745   0.185 -0.2848  0.1431  0.0587
  464TIP3    H122951   6.984   2.726   0.149 -0.3503  0.0998 -0.0746
  464TIP3    H222952   6.899   2.706   0.273 -0.5350 -0.7745 -0.3370
  465TIP3   OH222953   3.224   5.590   7.773  0.4730 -0.6530 -0.2467
  465TIP3    H122954   3.136   5.570   7.743  0.3738 -2.2378  0.9835
  465TIP3    H222955   3.281   5.553   7.706  0.2080 -1.0105 -0.2778
  466TIP3   OH222956   4.889   3.894   6.077 -0.2295  0.1197  0.3391
  466TIP3    H122957   4.957   3.909   6.143  0.5755  1.7636 -0.7864
  466TIP3    H222958   4.898   3.801   6.055 -0.6360 -0.5108  2.6121
  467TIP3   OH222959   5.429   2.672   5.962 -0.2383  0.0760 -0.0678
  467TIP3    H122960   5.452   2.754   6.005 -1.0034  0.6152 -0.6468
  467TIP3    H222961   5.506   2.651   5.908 -0.2977  0.7981 -0.4567
  468TIP3   OH222962   0.199   4.940   6.210 -0.0452  0.1994  0.3728
  468TIP3    H122963   0.153   5.009   6.259 -1.7001 -0.7014  0.1591
  468TIP3    H222964   0.129   4.884   6.177  1.2783 -2.1894  1.3895
  469TIP3   OH222965   3.064   5.399   1.586 -0.1878  0.4564  0.0439
  469TIP3    H122966   2.974   5.372   1.571 -0.8522  3.2650 -1.5151
  469TIP3    H222967   3.062   5.442   1.672 -0.1717 -0.0250  0.2907
  470TIP3   OH222968   0.211   1.830   1.604  0.0864  0.4210 -0.0717
  470TIP3    H122969   0.242   1.749   1.565 -0.8302 -0.1742  0.3998
  470TIP3    H222970   0.259   1.836   1.687  1.3954  1.2485 -0.8375
  471TIP3   OH222971   1.862   1.231   8.047 -0.0691  0.2244 -0.0113
  471TIP3    H122972   1.772   1.203   8.067 -0.3586  0.9449 -0.2681
  471TIP3    H222973   1.917   1.164   8.087 -0.7152 -0.1121  0.3419
  472TIP3   OH222974   2.517   5.071   0.131 -0.4331 -0.0192  0.0992
  472TIP3    H122975   2.595   5.085   0.185  0.3951  0.5006 -1.1802
  472TIP3    H222976   2.456   5.139   0.159  0.5059  1.1074 -0.5286
  473TIP3   OH222977   4.500   3.542   6.072 -0.0624 -0.4888 -0.9276
  473TIP3    H122978   4.563   3.544   6.144 -0.9118 -1.2832 -0.1379
  473TIP3    H222979   4.489   3.449   6.053 -0.3201 -0.3105 -1.6676
  474TIP3   OH222980   0.709   1.973   0.143 -0.2363  0.5471  0.0456
  474TIP3    H122981   0.708   1.883   0.111 -0.3487  0.7829 -0.6339
  474TIP3    H222982   0.696   1.965   0.238 -1.7307 -0.0818 -0.1756
  475TIP3   OH222983   5.759   3.487   6.803 -0.6050  0.0039 -0.1423
  475TIP3    H122984   5.751   3.578   6.829  0.9620 -0.3219  1.6941
  475TIP3    H222985   5.669   3.456   6.792 -1.1983  1.2816  0.9763
  476TIP3   OH222986   2.361   5.979   8.068 -0.1792 -0.7926  0.2141
  476TIP3    H122987   2.372   5.932   8.151  1.8889 -0.1064  0.3784
  476TIP3    H222988   2.445   5.971   8.024 -1.3040 -1.3647 -1.9899
  477TIP3   OH222989   3.947   0.296   6.971 -0.3705 -0.2800 -0.2155
  477TIP3    H122990   3.960   0.390   6.988  1.9344 -0.8751  1.8415
  477TIP3    H222991   3.872   0.273   7.025  0.2541  0.0374  0.8195
  478TIP3   OH222992   2.993   5.721   1.034  0.3142 -0.3350 -0.5105
  478TIP3    H122993   3.083   5.703   1.007  0.1667 -0.5884 -0.8421
  478TIP3    H222994   3.001   5.763   1.119  0.8158  0.9890 -1.1992
  479TIP3   OH222995   1.917   0.860   0.994 -0.5236  0.1055 -0.5655
  479TIP3    H122996   1.837   0.820   1.027 -0.3657 -0.5329 -0.9482
  479TIP3    H222997   1.891   0.950   0.973 -1.1968 -0.1560 -0.8998
  480TIP3   OH222998   4.748   1.164   0.313  0.1234  0.3241  0.3291
  480TIP3    H122999   4.757   1.169   0.408 -0.4560 -0.2316  0.4220
  480TIP3    H223000   4.657   1.188   0.297  0.4695  1.3202 -0.1679
  481TIP3   OH223001   2.448   3.109   7.138  0.2930 -0.2276 -0.3561
  481TIP3    H123002   2.471   3.193   7.178 -1.8115  0.5407 -0.6436
  481TIP3    H223003   2.411   3.132   7.053  0.9718 -1.5652 -1.0456
  482TIP3   OH223004   6.158   5.433   0.967 -0.0477  0.1050 -0.0679
  482TIP3    H123005   6.150   5.413   0.874 -0.3513 -1.0026  0.1758
  482TIP3    H223006   6.167   5.347   1.009 -3.8444  0.1856  1.2953
  483TIP3   OH223007   3.668   5.744   1.561 -0.1181 -0.5322 -0.7517
  483TIP3    H123008   3.743   5.759   1.619 -0.1600  0.4508 -0.9370
  483TIP3    H223009   3.598   5.798   1.597  0.2258  1.1119 -2.4171
  484TIP3   OH223010   4.675   0.504   1.238  0.9363 -0.0267 -0.4352
  484TIP3    H123011   4.722   0.421   1.228  0.6092 -0.5563  1.7677
  484TIP3    H223012   4.595   0.480   1.284 -0.8449  1.0747 -2.7525
  485TIP3   OH223013   3.900   3.753   7.126 -0.1404  0.1049  0.6526
  485TIP3    H123014   3.810   3.765   7.095 -0.0492  1.6865  0.9498
  485TIP3    H223015   3.954   3.796   7.060  0.2391  1.0449  1.5532
  486TIP3   OH223016   0.362   2.027   0.891 -0.4263  0.6325 -0.3582
  486TIP3    H123017   0.436   1.966   0.885 -2.0629 -1.4501 -0.4503
  486TIP3    H223018   0.390   2.104   0.841  1.1104 -0.6947 -1.6498
  487TIP3   OH223019   1.164   4.433   0.543 -0.6018  0.4889 -0.2609
  487TIP3    H123020   1.241   4.376   0.533  0.6917  2.4535 -2.5391
  487TIP3    H223021   1.094   4.384   0.501 -0.0747 -0.3968 -0.1483
  488TIP3   OH223022   2.724   0.529   8.238  0.1331 -0.3135 -0.4088
  488TIP3    H123023   2.754   0.523   8.328 -1.4627 -2.3177  0.0764
  488TIP3    H223024   2.737   0.440   8.203 -0.9047 -0.0307 -1.5759
  489TIP3   OH223025   1.814   4.786   7.193  0.2786  0.5323 -0.0643
  489TIP3    H123026   1.719   4.781   7.183  0.4182 -0.3004 -1.0240
  489TIP3    H223027   1.845   4.824   7.111  1.2302 -4.2687 -2.2650
  490TIP3   OH223028   3.339   3.594   0.491  0.1666 -0.5035  0.8013
  490TIP3    H123029   3.265   3.653   0.474 -0.3729 -1.2973  0.3368
  490TIP3    H223030   3.416   3.651   0.487 -0.3889  0.2919  1.0424
  491TIP3   OH223031   4.883   5.195   6.985  0.0823  0.3180  0.2802
  491TIP3    H123032   4.856   5.258   6.918  0.9684  1.0049  0.5382
  491TIP3    H223033   4.819   5.125   6.980 -0.8186  1.1510 -0.1552
  492TIP3   OH223034   4.267   4.983   2.224 -0.3544 -0.1335  0.7366
  492TIP3    H123035   4.298   5.010   2.310 -1.0247 -0.0166  0.9479
  492TIP3    H223036   4.192   4.925   2.242 -1.2395  0.8210  0.2194
  493TIP3   OH223037   6.519   4.342   8.265 -0.1859  0.1461  0.2943
  493TIP3    H123038   6.571   4.415   8.232 -2.1219  1.5341  0.1356
  493TIP3    H223039   6.531   4.344   8.360  0.3577  0.1850  0.2256
  494TIP3   OH223040   4.947   0.854   2.270  0.3007  0.0167  0.0645
  494TIP3    H123041   4.933   0.846   2.365  1.5274 -1.1798  0.1770
  494TIP3    H223042   4.890   0.787   2.232  0.7328 -0.3588  0.0630
  495TIP3   OH223043   1.328   5.687   0.282 -0.4530  0.1002  0.8491
  495TIP3    H123044   1.353   5.770   0.241 -1.3593  0.0128  0.1122
  495TIP3    H223045   1.393   5.675   0.352  0.7056  0.5776 -0.1167
  496TIP3   OH223046   4.971   0.574   0.676  0.1503  0.0391 -0.0037
  496TIP3    H123047   4.999   0.654   0.632  1.2671  0.0348  0.6525
  496TIP3    H223048   4.919   0.605   0.750 -1.7954  0.0441 -1.3002
  497TIP3   OH223049   1.012   2.978   8.197  0.1374  0.1739 -0.1046
  497TIP3    H123050   1.022   3.046   8.263 -0.4508 -0.1529  0.3293
  497TIP3    H223051   0.917   2.967   8.188  0.1855  0.8000 -1.6115
  498TIP3   OH223052   1.617   6.235   7.706 -0.0729 -0.0184 -0.2121
  498TIP3    H123053   1.546   6.225   7.770 -0.8875  1.2754 -0.8698
  498TIP3    H223054   1.640   6.146   7.682 -0.5487 -0.4971  1.0213
  499TIP3   OH223055   3.307   6.184   2.130 -0.4282 -0.2686  0.3736
  499TIP3    H123056   3.363   6.262   2.122  0.8156 -1.2098 -0.4471
  499TIP3    H223057   3.240   6.196   2.062 -0.0046 -0.1029 -0.0190
  500TIP3   OH223058   1.283   0.367   6.680 -0.3980 -0.1756  0.1144
  500TIP3    H123059   1.355   0.337   6.624 -0.4167  1.6449 -0.9970
  500TIP3    H223060   1.206   0.321   6.647 -0.0274 -0.8427  0.1685
  501TIP3   OH223061   1.591   2.097   0.704  0.5581 -0.0740 -0.1599
  501TIP3    H123062   1.630   2.085   0.791 -0.1887 -0.5150  0.1237
  501TIP3    H223063   1.665   2.092   0.643  1.2959  1.5889  0.5279
  502TIP3   OH223064   5.192   0.251   8.282 -0.0231 -0.2325 -0.4334
  502TIP3    H123065   5.148   0.201   8.351  0.2392  2.0646  1.5302
  502TIP3    H223066   5.285   0.243   8.304  0.2800 -1.4393 -1.9937
  503TIP3   OH223067   6.243   5.603   1.184 -0.4330  0.3159  0.1825
  503TIP3    H123068   6.324   5.633   1.142  0.8336 -1.4569  1.2550
  503TIP3    H223069   6.210   5.534   1.126  0.9673 -1.6748  1.6453
  504TIP3   OH223070   2.420   0.963   1.321  0.4922  0.1753 -0.1753
  504TIP3    H123071   2.439   0.894   1.385  1.5375 -1.0802 -1.7482
  504TIP3    H223072   2.476   1.036   1.346  1.2523 -0.4774  0.0747
  505TIP3   OH223073   0.373   5.437   1.919  0.9252 -0.1806 -0.3492
  505TIP3    H123074   0.435   5.466   1.986 -2.3440  0.9058  2.4755
  505TIP3    H223075   0.345   5.350   1.947 -0.0960  0.0590 -0.5715
  506TIP3   OH223076   2.128   6.284   0.958  0.1361 -0.1083 -0.4197
  506TIP3    H123077   2.130   6.318   0.869  1.5698  0.2986 -0.2530
  506TIP3    H223078   2.196   6.333   1.005 -0.2244 -0.6831  0.7603
  507TIP3   OH223079   5.128   4.195   1.602  0.5885 -0.2455  0.6884
  507TIP3    H123080   5.110   4.287   1.583  0.9118 -0.3287 -0.0472
  507TIP3    H223081   5.116   4.150   1.519  0.8641 -0.8023  0.9418
  508TIP3   OH223082   3.531   5.982   8.306 -0.6955 -0.2534 -0.0702
  508TIP3    H123083   3.552   6.067   8.345 -0.3589 -1.8921  3.8565
  508TIP3    H223084   3.616   5.940   8.294 -0.9356 -1.4256  1.8696
  509TIP3   OH223085   1.834   0.647   7.754 -0.5231  0.7506  0.0036
  509TIP3    H123086   1.835   0.742   7.765  1.3785  0.8348 -0.4272
  509TIP3    H223087   1.857   0.613   7.840 -0.9189  0.6896  0.0865
  510TIP3   OH223088   1.251   6.452   1.188 -0.1007  0.0001  0.2379
  510TIP3    H123089   1.225   6.434   1.278 -0.1036  1.0954  0.4680
  510TIP3    H223090   1.185   6.409   1.134 -0.3884 -0.2307  0.7701
  511TIP3   OH223091   0.174   1.369   0.107 -0.0616  0.0602  0.2001
  511TIP3    H123092   0.229   1.325   0.171 -1.1841 -0.3520  0.9136
  511TIP3    H223093   0.235   1.413   0.049  0.9934  1.0523  1.9792
  512TIP3   OH223094   4.870   2.157   0.050  0.1723 -0.1171  0.0221
  512TIP3    H123095   4.811   2.088   0.080  1.2625 -0.8332  0.5982
  512TIP3    H223096   4.881   2.214   0.126 -0.9389  0.8703 -0.5326
  513TIP3   OH223097   2.593   2.257   1.969  0.9646 -0.4340  0.3800
  513TIP3    H123098   2.573   2.311   1.893  1.6033  0.8366  1.0773
  513TIP3    H223099   2.592   2.318   2.043  2.1054 -1.2901  1.1486
  514TIP3   OH223100   4.715   4.572   0.991  0.1096 -0.1646  0.0981
  514TIP3    H123101   4.700   4.526   1.073  1.2314  1.8887  1.5742
  514TIP3    H223102   4.797   4.620   1.006 -0.3347  1.2832 -1.7497
  515TIP3   OH223103   4.266   5.685   8.039  0.1409  0.2505  0.0388
  515TIP3    H123104   4.314   5.609   8.005 -0.6774 -0.5080  0.5349
  515TIP3    H223105   4.322   5.760   8.018  1.3519 -0.5619  0.2552
  516TIP3   OH223106   6.287   5.867   1.771 -0.0946  0.2526 -0.0635
  516TIP3    H123107   6.373   5.829   1.785 -0.2719 -0.9868 -1.9803
  516TIP3    H223108   6.275   5.927   1.845  2.0177 -0.1900  0.7092
  517TIP3   OH223109   0.420   1.153   6.751  0.6015 -0.3839  0.2209
  517TIP3    H123110   0.378   1.083   6.800  0.7281 -0.0755  0.7813
  517TIP3    H223111   0.424   1.226   6.813  1.4656 -0.2403  0.0069
  518TIP3   OH223112   1.632   1.059   1.320  0.1139  0.2345 -0.7433
  518TIP3    H123113   1.554   1.113   1.304  0.4007  0.8485 -0.1442
  518TIP3    H223114   1.641   1.058   1.415  0.7326  0.0117 -0.7987
  519TIP3   OH223115   5.192   4.493   1.481  0.4381  0.4379  0.0712
  519TIP3    H123116   5.179   4.526   1.393 -1.7269  0.3396  0.2979
  519TIP3    H223117   5.185   4.569   1.538  0.7528  0.3464  0.2379
  520TIP3   OH223118   1.731   0.808   0.560  0.2006  0.0082 -0.4596
  520TIP3    H123119   1.819   0.843   0.548  0.4431  0.2663  1.6306
  520TIP3    H223120   1.741   0.737   0.623 -1.1694  0.5743  0.4523
  521TIP3   OH223121   6.372   3.413   0.356 -0.7390 -0.2407  0.5242
  521TIP3    H123122   6.444   3.392   0.297 -0.7937  1.2005 -0.0903
  521TIP3    H223123   6.414   3.452   0.432 -0.9226  4.4436 -1.4773
  522TIP3   OH223124   5.762   4.276   0.864 -0.1208 -0.3659  0.2014
  522TIP3    H123125   5.793   4.365   0.882 -0.2773 -0.1767 -0.4494
  522TIP3    H223126   5.685   4.266   0.919  0.4537 -0.4548  1.0180
  523TIP3   OH223127   5.094   6.879   0.569 -0.2137  0.4237 -0.0461
  523TIP3    H123128   5.115   6.793   0.606 -2.2419 -0.5799 -1.0738
  523TIP3    H223129   5.071   6.932   0.645 -1.1075 -0.6245  0.4414
  524TIP3   OH223130   5.929   6.221   7.103 -0.5809 -0.3703  0.3968
  524TIP3    H123131   6.002   6.163   7.080  0.1247  1.0029 -1.0499
  524TIP3    H223132   5.961   6.270   7.178 -1.0057 -1.4760  1.3364
  525TIP3   OH223133   4.651   6.843   1.729  0.0956  0.5957 -0.1072
  525TIP3    H123134   4.724   6.800   1.686 -0.4335  0.8853 -1.3348
  525TIP3    H223135   4.669   6.833   1.823 -0.0724 -2.4319 -0.2827
  526TIP3   OH223136   4.718   0.850   7.207  0.4130  0.3013  0.3323
  526TIP3    H123137   4.705   0.900   7.127  0.9682  0.5288  0.3834
  526TIP3    H223138   4.645   0.877   7.264 -1.5376 -1.7517 -0.9789
  527TIP3   OH223139   4.611   4.810   8.288 -0.0449  0.0811 -0.5990
  527TIP3    H123140   4.614   4.744   8.358 -0.0268  0.3378 -0.3555
  527TIP3    H223141   4.665   4.882   8.321  0.0426  0.1631 -0.9210
  528TIP3   OH223142   1.144   1.901   7.334  0.4144  0.0807 -0.8500
  528TIP3    H123143   1.116   1.865   7.419  2.2192 -0.0030 -0.2306
  528TIP3    H223144   1.098   1.984   7.327  0.3769  0.1832  0.3141
  529TIP3   OH223145   4.402   1.497   1.909  0.1228 -0.6625 -0.1975
  529TIP3    H123146   4.430   1.509   1.819  1.4903  1.9178  0.4999
  529TIP3    H223147   4.469   1.440   1.947  0.7376 -0.0005 -0.2725
  530TIP3   OH223148   6.352   3.996   0.890  0.0028 -0.6217  0.0259
  530TIP3    H123149   6.333   4.085   0.918  1.9103 -0.5931  1.5119
  530TIP3    H223150   6.413   4.006   0.817  0.3426 -0.6726  0.2946
  531TIP3   OH223151   6.095   6.721   2.008 -0.1071  0.3326 -0.2189
  531TIP3    H123152   6.142   6.782   2.065 -0.4215 -0.3174  0.7724
  531TIP3    H223153   6.074   6.772   1.930  1.4018  0.9015 -0.2742
  532TIP3   OH223154   1.133   1.137   7.793  0.3637  0.2764  0.1478
  532TIP3    H123155   1.094   1.133   7.880 -0.4954  0.9419 -0.1909
  532TIP3    H223156   1.225   1.113   7.807  0.3872  0.9792  1.3343
  533TIP3   OH223157   6.290   5.157   0.831  0.5434  0.4448  0.0525
  533TIP3    H123158   6.294   5.081   0.888  0.5774  0.5106  0.1380
  533TIP3    H223159   6.373   5.154   0.782 -0.4310 -0.8598 -1.6080
  534TIP3   OH223160   3.909   3.504   6.662  0.0919  0.3012 -0.2366
  534TIP3    H123161   3.832   3.517   6.717  0.4725  1.1273  0.1262
  534TIP3    H223162   3.890   3.426   6.612 -0.4192 -0.2756  0.8213
  535TIP3   OH223163   5.542   6.272   7.991 -0.1463  0.0279  0.0141
  535TIP3    H123164   5.484   6.217   8.044 -0.8516  0.2131 -0.5652
  535TIP3    H223165   5.573   6.339   8.052  0.7647 -1.0058  0.7474
  536TIP3   OH223166   0.413   0.210   8.153 -0.1375 -0.8050  0.3002
  536TIP3    H123167   0.385   0.148   8.086 -2.4785 -0.1401  0.5669
  536TIP3    H223168   0.508   0.197   8.160  0.2304 -0.9325 -3.0746
  537TIP3   OH223169   5.033   5.625   2.131  0.0115  0.2180  0.2740
  537TIP3    H123170   4.961   5.565   2.112 -1.1381  1.9288 -1.2427
  537TIP3    H223171   5.005   5.673   2.209 -0.9244  1.3902 -0.7312
  538TIP3   OH223172   1.835   1.516   7.860  0.9149 -0.1394 -0.3190
  538TIP3    H123173   1.823   1.609   7.843 -0.3773 -0.1828  0.2120
  538TIP3    H223174   1.838   1.509   7.956 -1.2664 -0.8444 -0.2467
  539TIP3   OH223175   6.222   0.595   0.054  0.5524 -0.2372  0.3419
  539TIP3    H123176   6.134   0.634   0.057  1.2381  1.4603 -0.2174
  539TIP3    H223177   6.207   0.501   0.064 -1.3295  0.0026  0.1673
  540TIP3   OH223178   4.529   6.549   1.584 -0.1119  0.4732  0.7871
  540TIP3    H123179   4.491   6.540   1.671 -1.2971  0.3809  0.2850
  540TIP3    H223180   4.527   6.460   1.547  0.0483  0.5732  0.5319
  541TIP3   OH223181   5.071   4.898   6.217 -0.0230  0.1982  0.0861
  541TIP3    H123182   5.030   4.981   6.244  0.9053  0.1255  1.8802
  541TIP3    H223183   5.162   4.906   6.247  0.0756 -1.4707  0.2807
  542TIP3   OH223184   4.504   6.723   7.889  0.2792  0.2118 -0.3837
  542TIP3    H123185   4.420   6.686   7.915 -0.0575 -0.9467 -2.8549
  542TIP3    H223186   4.551   6.736   7.971 -1.4412 -1.2348  0.8959
  543TIP3   OH223187   6.072   5.153   0.142  0.5666  0.5472  0.1698
  543TIP3    H123188   6.028   5.237   0.137  2.1738  1.6210  2.3796
  543TIP3    H223189   6.045   5.117   0.226  1.3317 -0.2916  0.0749
  544TIP3   OH223190   4.401   0.670   0.203 -0.0844  0.3735  0.1952
  544TIP3    H123191   4.470   0.695   0.263 -1.7220  0.9984  1.9305
  544TIP3    H223192   4.321   0.707   0.241 -1.3407  0.0138 -1.9059
  545TIP3   OH223193   4.141   2.242   7.599 -0.2118  0.0983 -0.0869
  545TIP3    H123194   4.057   2.281   7.576 -0.6660  0.6892  2.2729
  545TIP3    H223195   4.119   2.156   7.634 -0.0583  0.7734  1.8188
  546TIP3   OH223196   4.203   1.269   0.223  0.2821 -0.1870 -0.0410
  546TIP3    H123197   4.134   1.335   0.220  0.4614 -0.0148 -0.5826
  546TIP3    H223198   4.157   1.186   0.218  0.0526 -0.1091  0.6722
  547TIP3   OH223199   6.281   1.407   8.516 -0.4039  0.2537 -0.3698
  547TIP3    H123200   6.255   1.409   8.423  1.0733  1.4650 -0.7909
  547TIP3    H223201   6.364   1.361   8.516 -1.0527 -0.9703  0.5758
  548TIP3   OH223202   4.520   4.455   7.961  0.4361  0.4136 -0.3512
  548TIP3    H123203   4.608   4.490   7.973  1.3217 -1.2452 -1.5121
  548TIP3    H223204   4.486   4.441   8.050  1.4842  0.7447  0.1076
  549TIP3   OH223205   1.379   4.279   0.504 -0.0985  0.4694  0.7477
  549TIP3    H123206   1.452   4.341   0.500 -1.2379  1.7709 -1.4843
  549TIP3    H223207   1.410   4.209   0.562  2.4809  1.5106  0.7383
  550TIP3   OH223208   6.878   2.534   0.703  0.1760 -0.2161  0.1915
  550TIP3    H123209   6.946   2.488   0.653  0.2517  1.4481 -1.2975
  550TIP3    H223210   6.800   2.479   0.693  0.8476 -1.2408  0.4514
  551TIP3   OH223211   3.820   4.628   0.734  0.5263 -0.0726 -0.4644
  551TIP3    H123212   3.898   4.617   0.787  1.0191  1.3662 -0.8488
  551TIP3    H223213   3.777   4.706   0.769 -0.9430 -1.0318 -0.0386
  552TIP3   OH223214   1.596   0.031   1.475 -0.0483 -0.1776  0.3268
  552TIP3    H123215   1.634  -0.021   1.546 -2.2730 -1.6106  0.5680
  552TIP3    H223216   1.625   0.120   1.493  0.5968 -0.7102  2.2360
  553TIP3   OH223217   3.805   5.146   8.107 -0.2418 -0.6850 -0.1602
  553TIP3    H123218   3.846   5.071   8.151 -0.1167 -1.4474 -1.5080
  553TIP3    H223219   3.783   5.113   8.019 -2.8105 -0.0158  0.1422
  554TIP3   OH223220   1.891   5.891   7.913  0.0235  0.1998  0.3329
  554TIP3    H123221   1.932   5.807   7.933  0.6086  0.6746  1.1889
  554TIP3    H223222   1.820   5.899   7.978 -1.4715 -0.6251 -1.1448
  555TIP3   OH223223   4.188   2.855   8.131  0.0593 -0.3028 -1.1159
  555TIP3    H123224   4.141   2.929   8.170 -1.9495 -0.8879 -2.2528
  555TIP3    H223225   4.172   2.782   8.191  0.0990 -0.3446 -1.1563
  556TIP3   OH223226   3.222   4.921   0.888 -0.2412 -0.4441  0.1707
  556TIP3    H123227   3.169   4.870   0.949 -0.5532 -0.1332  0.1618
  556TIP3    H223228   3.307   4.879   0.889 -0.1025 -0.1487  1.1779
  557TIP3   OH223229   2.815   3.861   6.577  0.9021 -0.6382 -0.0803
  557TIP3    H123230   2.788   3.921   6.646 -0.2097 -2.5914  1.2798
  557TIP3    H223231   2.741   3.859   6.517  1.0435 -0.4996 -0.2647
  558TIP3   OH223232   4.379   4.870   1.988  0.2983 -0.0652  0.2897
  558TIP3    H123233   4.338   4.906   2.067 -2.0692 -0.0761 -0.8518
  558TIP3    H223234   4.393   4.946   1.932 -2.4299 -0.5144 -1.1296
  559TIP3   OH223235   3.453   2.115   0.066  0.1562 -0.0194 -0.3065
  559TIP3    H123236   3.496   2.187   0.112  0.1653  0.3618 -0.9035
  559TIP3    H223237   3.395   2.157   0.003 -1.4399 -0.5234  0.7828
  560TIP3   OH223238   3.212   2.014   1.558 -0.4495  0.2392  0.0769
  560TIP3    H123239   3.259   1.935   1.530 -2.0856 -1.1043  0.9004
  560TIP3    H223240   3.277   2.065   1.606  0.2480 -1.4679  1.0483
  561TIP3   OH223241   1.987   1.550   6.595  0.4555 -0.1931  0.0812
  561TIP3    H123242   1.996   1.499   6.676 -0.1263 -0.7367 -0.1912
  561TIP3    H223243   1.895   1.543   6.572  0.7125 -0.4882 -0.9132
  562TIP3   OH223244   3.515   1.725   2.048  0.1286  0.2671  0.0406
  562TIP3    H123245   3.531   1.638   2.085  1.0897  0.1375 -0.6267
  562TIP3    H223246   3.551   1.786   2.112  0.0208  0.1406  0.2203
  563TIP3   OH223247   1.532   3.535   6.829  0.1285 -0.3096 -0.1766
  563TIP3    H123248   1.612   3.559   6.783 -0.5215 -0.8793 -1.6623
  563TIP3    H223249   1.481   3.486   6.764 -0.5405 -1.7368  1.3428
  564TIP3   OH223250   1.442   4.011   8.388 -0.0306 -0.1977  0.2033
  564TIP3    H123251   1.452   3.947   8.318  2.2079  0.5775 -0.2692
  564TIP3    H223252   1.450   3.960   8.469  0.5787 -0.6914 -0.1566
  565TIP3   OH223253   5.506   1.223   6.948  0.1459  0.3069  0.2643
  565TIP3    H123254   5.529   1.271   6.868  1.1980  1.1739  1.0588
  565TIP3    H223255   5.588   1.181   6.974 -0.1469  0.1817  0.9880
  566TIP3   OH223256   5.686   0.938   1.632  0.3143 -0.1289 -0.1883
  566TIP3    H123257   5.725   0.862   1.677 -0.0873 -0.7212 -0.8224
  566TIP3    H223258   5.679   1.005   1.700  1.4764 -0.3585  0.1835
  567TIP3   OH223259   3.612   1.229   8.125 -0.1351  0.0549 -0.0851
  567TIP3    H123260   3.607   1.264   8.214  1.7322 -0.7747  0.3931
  567TIP3    H223261   3.534   1.174   8.116 -0.5417  0.4530  0.8889
  568TIP3   OH223262   4.676   3.090   0.064  0.0567 -0.2469 -0.0702
  568TIP3    H123263   4.648   3.180   0.050  1.6169  0.1773 -0.6231
  568TIP3    H223264   4.771   3.094   0.073  0.4124 -1.9954 -1.9916
  569TIP3   OH223265   4.202   1.553   1.524 -0.1495 -0.3351 -0.0374
  569TIP3    H123266   4.268   1.610   1.565 -0.8205  1.5988 -1.5180
  569TIP3    H223267   4.250   1.473   1.503  1.7620  0.9909 -1.0381
  570TIP3   OH223268   5.132   1.369   7.962  0.5176 -0.0249 -0.1337
  570TIP3    H123269   5.183   1.290   7.980 -0.1228 -0.2163  0.8983
  570TIP3    H223270   5.190   1.422   7.907  2.0314 -0.0621  1.3096
  571TIP3   OH223271   5.848   3.794   7.536  0.2963  0.2674 -0.6392
  571TIP3    H123272   5.838   3.846   7.456 -0.0855 -0.2416 -0.9272
  571TIP3    H223273   5.940   3.768   7.536  0.1927 -0.1206 -1.1668
  572TIP3   OH223274   4.152   6.388   0.239  0.2482  0.3457  0.2712
  572TIP3    H123275   4.172   6.301   0.275 -1.2517 -0.9350 -1.7794
  572TIP3    H223276   4.128   6.440   0.316  1.7745 -0.8300  1.6284
  573TIP3   OH223277   6.455   0.407   0.590 -0.1231  0.4176 -0.3112
  573TIP3    H123278   6.475   0.317   0.615 -1.4232 -0.0430 -0.8620
  573TIP3    H223279   6.514   0.460   0.644  1.4594 -0.7865 -0.7775
  574TIP3   OH223280   5.086   2.205   1.616 -0.1319 -0.0398 -0.3104
  574TIP3    H123281   5.029   2.258   1.561 -2.5834 -1.5080  0.6467
  574TIP3    H223282   5.078   2.244   1.703  1.6890  0.6960 -0.4114
  575TIP3   OH223283   0.089   4.295   7.891 -0.0588  0.3740 -0.4541
  575TIP3    H123284   0.062   4.382   7.864 -0.8432  0.6853  1.2076
  575TIP3    H223285   0.181   4.304   7.914  0.1787  0.4725 -1.4202
  576TIP3   OH223286   6.537   0.319   6.290  0.2845  0.3118  0.0672
  576TIP3    H123287   6.579   0.401   6.262  0.1183  0.8148  1.2316
  576TIP3    H223288   6.490   0.289   6.212  1.8711  0.3184 -0.9490
  577TIP3   OH223289   5.273   0.635   8.321 -0.2014  0.1359 -0.7758
  577TIP3    H123290   5.334   0.570   8.358 -1.4616  0.0455  1.2755
  577TIP3    H223291   5.226   0.587   8.253  1.2760 -0.0599 -1.7245
  578TIP3   OH223292   0.919   2.219   7.036  0.4053 -0.5432 -0.5911
  578TIP3    H123293   0.910   2.147   7.098  0.2892  0.5726  0.7314
  578TIP3    H223294   0.865   2.193   6.961 -0.3886 -1.4095  0.2572
  579TIP3   OH223295   5.219   3.082   8.074 -0.3467  0.2319  0.3837
  579TIP3    H123296   5.177   3.000   8.101 -1.8754  0.0720 -2.1264
  579TIP3    H223297   5.216   3.080   7.978 -0.0077  3.0329  0.2241
  580TIP3   OH223298   6.802   6.021   1.686 -0.5165 -0.8497 -0.0088
  580TIP3    H123299   6.744   6.089   1.718 -0.4513 -1.4127  1.3634
  580TIP3    H223300   6.758   5.986   1.609 -1.1991 -0.1911  0.0718
  581TIP3   OH223301   4.765   0.808   1.903 -0.2592  0.1575  0.0123
  581TIP3    H123302   4.695   0.832   1.842 -0.6788 -0.1154  0.3827
  581TIP3    H223303   4.825   0.883   1.901  0.6162 -0.5300 -1.9864
  582TIP3   OH223304   4.321   1.787   0.534  0.1366 -0.1854 -0.0440
  582TIP3    H123305   4.228   1.806   0.533  0.2838  0.5440  0.0420
  582TIP3    H223306   4.326   1.694   0.558 -0.5909 -0.4293 -0.7698
  583TIP3   OH223307   4.528   3.446   7.785  0.5764 -0.1217 -0.8116
  583TIP3    H123308   4.469   3.372   7.799 -1.3047  1.5371  0.6111
  583TIP3    H223309   4.600   3.410   7.734 -2.1355 -2.0667 -3.6434
  584TIP3   OH223310   6.859   6.191   6.243  0.5284 -0.2321 -0.3002
  584TIP3    H123311   6.768   6.190   6.214  0.6587  1.8388 -0.9196
  584TIP3    H223312   6.858   6.142   6.325 -1.2096  0.0904 -0.0821
  585TIP3   OH223313   6.173   0.105   1.454  0.1509  0.0327  0.4129
  585TIP3    H123314   6.113   0.125   1.527  0.9951 -1.6652  1.6381
  585TIP3    H223315   6.214   0.022   1.478  0.1798 -0.8174 -2.2131
  586TIP3   OH223316   4.743   5.941   7.750 -0.3145  0.2389  0.4463
  586TIP3    H123317   4.653   5.972   7.765 -0.6388 -0.7048  0.5346
  586TIP3    H223318   4.797   6.019   7.758 -0.8205  0.4141  3.1460
  587TIP3   OH223319   1.291   2.051   1.611  0.0844  1.0955  0.5204
  587TIP3    H123320   1.209   2.042   1.564  0.2497 -0.5212  0.4879
  587TIP3    H223321   1.307   2.145   1.614 -1.6235  1.4216  0.3104
  588TIP3   OH223322   1.844   5.140   7.492  0.4400 -0.1417  0.4851
  588TIP3    H123323   1.933   5.134   7.458  0.4909 -1.2146  0.7763
  588TIP3    H223324   1.836   5.067   7.552 -0.9008 -0.5646 -0.1594
  589TIP3   OH223325   5.984   0.796   0.421 -0.3237 -0.3686 -0.4106
  589TIP3    H123326   5.899   0.797   0.377 -0.2659  1.0066 -0.5245
  589TIP3    H223327   6.044   0.837   0.359 -0.2626  1.7441  0.9411
  590TIP3   OH223328   5.489   4.381   0.036  0.4903  0.0552 -0.0707
  590TIP3    H123329   5.510   4.292   0.062 -0.2398  0.3820  1.7640
  590TIP3    H223330   5.556   4.435   0.078 -1.5035  0.7196  2.4775
  591TIP3   OH223331   1.488   6.433   0.839 -0.4337  0.4178 -0.1367
  591TIP3    H123332   1.425   6.369   0.805 -0.9101 -0.5177  2.3131
  591TIP3    H223333   1.502   6.493   0.766 -0.7096 -1.9060 -2.2440
  592TIP3   OH223334   5.320   0.617   0.938  0.3475  0.2636  0.0164
  592TIP3    H123335   5.300   0.677   0.867  2.7122  0.6919 -0.3664
  592TIP3    H223336   5.286   0.532   0.909  1.7714  0.3033 -1.9424
  593TIP3   OH223337   3.593   2.181   1.458  0.0098 -0.2108  0.1213
  593TIP3    H123338   3.569   2.259   1.509 -1.4391 -0.3994 -0.2322
  593TIP3    H223339   3.652   2.133   1.516 -1.2512 -0.2005  1.4754
  594TIP3   OH223340   4.917   5.268   0.740 -0.1299 -0.6180 -0.0336
  594TIP3    H123341   5.006   5.270   0.777  0.3641  0.4347 -1.2011
  594TIP3    H223342   4.887   5.178   0.755  1.6645 -1.4032 -0.8338
  595TIP3   OH223343   5.835   4.521   7.049  0.0108 -0.9458  0.5559
  595TIP3    H123344   5.901   4.564   7.103  0.8379  0.1176 -1.1901
  595TIP3    H223345   5.769   4.589   7.034  1.1367 -0.2526 -1.9098
  596TIP3   OH223346   0.767   2.902   0.631  0.1090  0.0532 -0.0851
  596TIP3    H123347   0.752   2.990   0.598  0.2775 -0.1646 -0.7474
  596TIP3    H223348   0.730   2.903   0.719 -0.1878  0.6872 -0.2144
  597TIP3   OH223349   4.008   4.586   0.938 -0.3701  0.6499  0.1962
  597TIP3    H123350   3.965   4.508   0.971  1.8069 -1.1130 -0.8922
  597TIP3    H223351   4.095   4.585   0.979 -0.1365  2.2594 -0.1823
  598TIP3   OH223352   3.723   2.684   8.089 -0.5773  0.3929  0.0520
  598TIP3    H123353   3.743   2.765   8.041  0.8026 -0.6061 -1.1543
  598TIP3    H223354   3.796   2.625   8.068 -0.2768 -0.3731  2.8039
  599TIP3   OH223355   0.502   4.288   6.145  0.4371 -0.5956  0.0406
  599TIP3    H123356   0.518   4.311   6.054 -2.0610  0.0494 -0.2991
  599TIP3    H223357   0.518   4.193   6.148  0.9671 -0.5552 -0.9481
  600TIP3   OH223358   2.917   1.118   7.185  0.4382  0.5133 -0.1418
  600TIP3    H123359   2.959   1.093   7.268  0.6237 -2.0039 -0.9175
  600TIP3    H223360   2.856   1.187   7.209  2.8036  2.1734  1.5335
  601TIP3   OH223361   3.308   4.884   6.637 -0.2195  0.5881 -0.3626
  601TIP3    H123362   3.245   4.849   6.573  3.0451 -0.2729 -3.4415
  601TIP3    H223363   3.357   4.950   6.588  2.5313 -0.1665  1.1775
  602TIP3   OH223364   5.178   0.839   1.537  0.2391  0.0123  0.1986
  602TIP3    H123365   5.188   0.931   1.563 -0.8263  1.4185 -3.6500
  602TIP3    H223366   5.262   0.815   1.499 -0.5540  0.7705 -2.2099
  603TIP3   OH223367   5.826   6.040   1.206  0.1453 -0.0067  0.1191
  603TIP3    H123368   5.904   5.996   1.240  0.5930  1.1852  0.6894
  603TIP3    H223369   5.756   6.012   1.264  0.3456 -0.2704  0.2383
  604TIP3   OH223370   2.909   6.096   6.599  0.0707 -0.1641 -0.7330
  604TIP3    H123371   2.835   6.157   6.591  1.6202  1.7768 -0.9977
  604TIP3    H223372   2.871   6.018   6.641 -1.8932  1.1785  0.1519
  605TIP3   OH223373   4.123   6.247   8.457  0.0106 -0.0697  0.1005
  605TIP3    H123374   4.184   6.173   8.447 -0.9512 -0.9246  0.3396
  605TIP3    H223375   4.147   6.307   8.387  1.8824  0.1795  0.9121
  606TIP3   OH223376   3.326   4.792   8.155 -0.2749  0.4053 -0.5191
  606TIP3    H123377   3.310   4.712   8.105 -0.4792  0.0192  0.1500
  606TIP3    H223378   3.301   4.770   8.244 -0.8108  1.3727 -0.4090
  607TIP3   OH223379   1.363   4.943   2.015 -0.1042  0.2886  0.2546
  607TIP3    H123380   1.291   4.939   2.078  0.6831 -2.4762  1.1318
  607TIP3    H223381   1.416   5.018   2.043 -0.9417  0.4263  1.5399
  608TIP3   OH223382   6.222   6.361   6.971  0.2519  0.3619  0.2745
  608TIP3    H123383   6.166   6.302   7.021  0.2350  1.8529  2.1197
  608TIP3    H223384   6.307   6.356   7.015  0.3519  1.3979  0.2271
  609TIP3   OH223385   1.000   3.955   0.509 -0.6096  0.4095  0.0336
  609TIP3    H123386   0.929   3.901   0.474 -1.6230  1.0271  1.0452
  609TIP3    H223387   0.960   4.041   0.524  0.1953  0.6238  1.1244
  610TIP3   OH223388   5.417   5.195   0.828  0.1317  0.1570  0.1765
  610TIP3    H123389   5.418   5.137   0.904  1.3587 -0.4512 -0.2712
  610TIP3    H223390   5.350   5.158   0.770  0.7512 -0.7074 -0.0090
  611TIP3   OH223391   3.883   3.375   0.455  0.3543  0.1418 -0.2412
  611TIP3    H123392   3.879   3.350   0.547  0.6661  0.5565 -0.1164
  611TIP3    H223393   3.832   3.307   0.410 -0.7078  0.5239  0.3526
  612TIP3   OH223394   5.125   2.124   8.503  0.1224  0.3623  0.0082
  612TIP3    H123395   5.032   2.123   8.528 -0.4189  0.0862 -1.8767
  612TIP3    H223396   5.124   2.129   8.408  2.0477 -0.6897 -0.1077
  613TIP3   OH223397   1.970   5.400   0.850 -0.5531  0.5604  0.2703
  613TIP3    H123398   2.044   5.364   0.800  0.6708  1.8632  1.0670
  613TIP3    H223399   1.999   5.397   0.941 -2.5174 -1.2183  0.9286
  614TIP3   OH223400   2.062   4.448   8.532 -0.0021  0.0865 -0.1426
  614TIP3    H123401   2.044   4.542   8.535  0.7088  0.2218  0.1221
  614TIP3    H223402   1.976   4.407   8.532 -0.3280  0.7532 -0.9617
  615TIP3   OH223403   2.900   6.381   0.807 -0.2080 -0.0606 -0.1809
  615TIP3    H123404   2.882   6.288   0.824  0.5934 -0.3068 -0.6452
  615TIP3    H223405   2.961   6.380   0.734  0.3609  0.8140  0.2773
  616TIP3   OH223406   1.538   2.213   1.723 -0.3529  0.0010 -0.3827
  616TIP3    H123407   1.617   2.247   1.680 -0.0811 -1.1320 -0.8123
  616TIP3    H223408   1.466   2.254   1.675 -0.0982  2.5831  1.2318
  617TIP3   OH223409   1.179   0.200   7.181 -0.4085  0.5110 -0.1959
  617TIP3    H123410   1.149   0.290   7.180  1.0673  1.0383 -0.3898
  617TIP3    H223411   1.210   0.184   7.091  1.2137  0.5243  0.3256
  618TIP3   OH223412   6.539   6.626   1.638  0.5329 -0.3254 -0.1510
  618TIP3    H123413   6.570   6.635   1.548  0.2199  0.6317 -0.1807
  618TIP3    H223414   6.619   6.619   1.691  0.7409 -0.1114 -0.4334
  619TIP3   OH223415   1.551   6.075   6.405 -0.3403 -0.5147  0.0488
  619TIP3    H123416   1.473   6.130   6.397 -0.4114 -0.5556  0.4293
  619TIP3    H223417   1.549   6.019   6.327 -0.1230  0.1992 -0.4772
  620TIP3   OH223418   4.112   0.102   6.402  0.4597 -0.4410  0.1945
  620TIP3    H123419   4.023   0.125   6.431 -0.5858 -3.6168 -0.0343
  620TIP3    H223420   4.116   0.131   6.311 -0.4890 -0.5271  0.1079
  621TIP3   OH223421   6.786   2.622   7.872  0.7643 -0.1764  0.2148
  621TIP3    H123422   6.809   2.571   7.795  1.0169  0.0289  0.1524
  621TIP3    H223423   6.775   2.711   7.839 -1.1975 -0.4333  0.0433
  622TIP3   OH223424   6.672   5.968   1.447 -0.0467  0.1456 -0.3047
  622TIP3    H123425   6.660   5.874   1.458 -1.1887  0.4480  1.4880
  622TIP3    H223426   6.729   5.976   1.371  1.7989 -2.0875  0.7077
  623TIP3   OH223427   3.441   4.405   7.240  0.2743  0.3694 -0.3522
  623TIP3    H123428   3.402   4.353   7.169  2.2721 -0.7231 -0.7438
  623TIP3    H223429   3.366   4.445   7.284 -1.4997 -3.1380  0.1989
  624TIP3   OH223430   3.313   0.680   1.225 -0.3587  0.2037 -0.1486
  624TIP3    H123431   3.303   0.775   1.220 -1.0318  0.2407  1.2565
  624TIP3    H223432   3.355   0.666   1.310 -0.1895 -0.7503 -0.3829
  625TIP3   OH223433   6.207   0.708   1.542 -0.0950 -0.6597  0.0399
  625TIP3    H123434   6.275   0.640   1.534  0.3997 -0.1212 -0.5135
  625TIP3    H223435   6.150   0.693   1.466  1.5506  1.1631 -1.6702
  626TIP3   OH223436   5.094   3.955   1.808 -0.5908  0.4748 -0.0926
  626TIP3    H123437   5.049   3.980   1.889 -0.1028  0.0245  0.3333
  626TIP3    H223438   5.071   4.023   1.745  0.5548  1.9190  0.9675
  627TIP3   OH223439   4.406   5.910   7.970 -0.0639 -0.6132 -0.0401
  627TIP3    H123440   4.316   5.939   7.985  0.0436  0.5343 -1.3456
  627TIP3    H223441   4.434   5.959   7.892  1.3985 -1.5957 -0.1709
  628TIP3   OH223442   1.852   1.973   0.847 -0.4659 -0.2123  0.5755
  628TIP3    H123443   1.815   1.901   0.796 -1.1338 -1.0028  2.1349
  628TIP3    H223444   1.947   1.962   0.837 -0.5713  0.1462 -1.1318
  629TIP3   OH223445   1.213   5.271   2.777  0.1163 -0.4012  0.4883
  629TIP3    H123446   1.242   5.305   2.692  0.0932 -0.4538  0.4588
  629TIP3    H223447   1.292   5.270   2.831  0.1489 -0.4475  0.4402
  630TIP3   OH223448   6.664   1.168   1.834 -0.1110 -0.7003  0.2792
  630TIP3    H123449   6.730   1.104   1.861 -0.2517 -1.0674 -0.2448
  630TIP3    H223450   6.625   1.198   1.916  0.7497 -0.4339  0.6012
  631TIP3   OH223451   0.956   1.488   0.483 -0.5483  0.3515  0.2060
  631TIP3    H123452   0.940   1.423   0.414 -1.2554  1.2326 -0.4768
  631TIP3    H223453   0.925   1.445   0.563 -0.6139 -0.3142 -0.1653
  632TIP3   OH223454   3.958   1.191   6.304 -0.1208 -0.1231 -0.4394
  632TIP3    H123455   3.898   1.264   6.315  0.0325  0.1493 -1.2879
  632TIP3    H223456   4.008   1.188   6.386 -2.2232 -1.2663  0.8670
  633TIP3   OH223457   3.094   4.905   1.360 -0.7756 -0.1503 -0.7468
  633TIP3    H123458   3.169   4.864   1.405 -0.3191  0.1891 -1.1881
  633TIP3    H223459   3.070   4.978   1.417 -0.4521  0.0385 -0.8490
  634TIP3   OH223460   1.430   3.297   8.287 -0.2473  0.1257  0.5530
  634TIP3    H123461   1.482   3.349   8.226 -0.9803  0.2116 -0.0241
  634TIP3    H223462   1.472   3.211   8.288 -1.1902 -0.4200 -1.4353
  635TIP3   OH223463   6.811   6.185   1.970 -0.6664  0.0261  0.4335
  635TIP3    H123464   6.733   6.132   1.955 -0.9256  0.7827 -1.0499
  635TIP3    H223465   6.795   6.265   1.920 -0.0956  1.3292  2.2309
  636TIP3   OH223466   0.424   3.651   6.733 -0.3748 -0.1093 -0.6469
  636TIP3    H123467   0.468   3.675   6.815  0.9413  3.7402 -2.2847
  636TIP3    H223468   0.350   3.597   6.761 -0.5517  1.7831  3.1698
  637TIP3   OH223469   5.416   4.401   0.981 -0.1326  0.8703 -0.5006
  637TIP3    H123470   5.435   4.319   1.027 -2.1477  0.8247  0.3884
  637TIP3    H223471   5.424   4.379   0.888  1.7436  0.3382 -0.2459
  638TIP3   OH223472   6.668   5.342   8.509  0.0496 -1.0867  0.4145
  638TIP3    H123473   6.619   5.289   8.572 -0.4841 -1.0128  0.0692
  638TIP3    H223474   6.750   5.362   8.554  0.1598 -1.9953  0.6501
  639TIP3   OH223475   4.817   4.798   6.142 -0.7301 -0.2480  0.5041
  639TIP3    H123476   4.750   4.730   6.156 -0.3786 -0.5435  0.7499
  639TIP3    H223477   4.887   4.753   6.095 -0.3272 -0.1548  1.0100
  640TIP3   OH223478   1.572   3.509   1.100  0.1375 -0.1547  0.5241
  640TIP3    H123479   1.512   3.434   1.103  0.0922 -0.2530 -1.6565
  640TIP3    H223480   1.592   3.527   1.192 -0.5325 -2.2839  1.1394
  641TIP3   OH223481   0.304   1.987   7.088  0.0709  0.6702 -0.3354
  641TIP3    H123482   0.234   1.966   7.150 -0.4644  0.2512 -1.0683
  641TIP3    H223483   0.280   2.073   7.053 -0.7524 -0.0148 -1.4990
  642TIP3   OH223484   2.793   4.985   0.197 -0.0633 -0.4032  0.5598
  642TIP3    H123485   2.866   4.924   0.183 -1.5847 -2.1327 -0.3426
  642TIP3    H223486   2.746   4.949   0.272 -2.0713 -1.5831 -1.1406
  643TIP3   OH223487   4.313   2.242   0.772 -0.5356 -0.1800 -0.6127
  643TIP3    H123488   4.269   2.296   0.838 -1.0500 -1.3400  0.0227
  643TIP3    H223489   4.243   2.219   0.710  0.0638  1.4147 -1.9597
  644TIP3   OH223490   6.708   5.904   7.571 -0.4007 -0.5083  0.2553
  644TIP3    H123491   6.789   5.853   7.573  0.3388  0.5407 -0.9282
  644TIP3    H223492   6.724   5.975   7.634 -1.7986 -2.1746  2.6265
  645TIP3   OH223493   3.897   0.503   0.835 -0.6606  0.0382 -0.2894
  645TIP3    H123494   3.956   0.431   0.858  0.0463  0.4712 -0.7023
  645TIP3    H223495   3.955   0.574   0.809 -1.3402  0.9425  0.6240
  646TIP3   OH223496   5.448   3.743   1.508 -0.8991 -0.5502 -0.4897
  646TIP3    H123497   5.462   3.802   1.434 -1.1843  0.1073 -0.0286
  646TIP3    H223498   5.511   3.771   1.574 -0.7651 -1.0206 -0.4151
  647TIP3   OH223499   4.635   0.743   7.838 -0.2488 -0.4899  0.1011
  647TIP3    H123500   4.668   0.653   7.841  1.4156  0.0336 -1.0339
  647TIP3    H223501   4.702   0.795   7.882  1.0062  0.7121 -2.9661
  648TIP3   OH223502   5.919   5.506   0.331  0.4576  0.3483 -0.0076
  648TIP3    H123503   5.871   5.553   0.399  1.1140  0.7008  0.2247
  648TIP3    H223504   5.938   5.572   0.265 -0.3884 -0.0475 -0.6584
  649TIP3   OH223505   0.212   2.734   7.153 -0.2377  0.2034  0.2537
  649TIP3    H123506   0.271   2.782   7.212  1.4796 -0.0795 -1.1419
  649TIP3    H223507   0.175   2.802   7.096 -2.4198  0.5695  1.9781
  650TIP3   OH223508   2.676   0.478   6.841  0.1963  0.1016  0.0718
  650TIP3    H123509   2.736   0.405   6.828  0.3433 -0.0647  1.5951
  650TIP3    H223510   2.731   0.556   6.833  0.1141  0.0559 -1.1330
  651TIP3   OH223511   0.166   3.578   1.255 -0.1543 -0.5205  0.5237
  651TIP3    H123512   0.192   3.494   1.217  0.1426 -0.1311 -0.1372
  651TIP3    H223513   0.248   3.622   1.275 -0.3084 -0.5040  1.1581
  652TIP3   OH223514   0.321   6.656   6.716  0.4234  0.0555 -0.3031
  652TIP3    H123515   0.375   6.596   6.665  2.4909  1.2206  0.3789
  652TIP3    H223516   0.320   6.618   6.804  0.4718  0.2470 -0.2191
  653TIP3   OH223517   5.876   2.056   0.680 -1.2459 -0.0826  0.0958
  653TIP3    H123518   5.881   2.110   0.758 -0.6702  0.4526 -0.3034
  653TIP3    H223519   5.867   1.966   0.714  0.4039 -0.0157  0.8157
  654TIP3   OH223520   6.093   5.586   7.002 -0.6629  0.2238 -0.4852
  654TIP3    H123521   6.002   5.611   6.984  0.0305  1.7567 -2.0664
  654TIP3    H223522   6.145   5.634   6.938  1.3943  0.3445  1.1648
  655TIP3   OH223523   1.605   4.424   6.202 -0.5687  0.5629 -0.6062
  655TIP3    H123524   1.698   4.445   6.214 -0.8746  1.7504 -0.1570
  655TIP3    H223525   1.604   4.357   6.135  0.6635  0.0398 -0.1368
  656TIP3   OH223526   6.573   5.419   0.387  0.0765  0.0534 -0.0788
  656TIP3    H123527   6.622   5.363   0.447 -0.6389 -1.7235 -1.0737
  656TIP3    H223528   6.501   5.454   0.441 -0.3982 -1.2919  0.2028
  657TIP3   OH223529   2.963   2.084   0.590 -0.1525  0.2783 -0.3564
  657TIP3    H123530   3.052   2.056   0.572 -0.3062  0.2931 -1.1893
  657TIP3    H223531   2.914   2.061   0.510 -1.1164 -0.7031  0.4820
  658TIP3   OH223532   5.604   3.198   0.905  1.2671 -0.3334  0.1719
  658TIP3    H123533   5.591   3.256   0.980  0.8107 -1.2528  0.8180
  658TIP3    H223534   5.564   3.244   0.831  2.2587  0.8564  0.3488
  659TIP3   OH223535   4.874   1.798   7.815 -0.1840 -0.7885 -0.0898
  659TIP3    H123536   4.783   1.821   7.799  0.0148  1.3933  1.5411
  659TIP3    H223537   4.869   1.711   7.856 -1.7271  0.0366  1.6545
  660TIP3   OH223538   1.122   1.772   7.783  0.0041 -0.2029  0.5856
  660TIP3    H123539   1.047   1.767   7.723  0.2897  1.1276  0.0989
  660TIP3    H223540   1.187   1.713   7.744  1.0739  2.3202 -1.7621
  661TIP3   OH223541   4.259   0.144   7.144  0.1983  0.4396  0.2710
  661TIP3    H123542   4.260   0.094   7.225  1.5493  0.3748  0.2337
  661TIP3    H223543   4.339   0.118   7.098 -1.0491 -0.3148 -1.5721
  662TIP3   OH223544   6.428   2.255   1.471  0.1038  0.0893 -0.3155
  662TIP3    H123545   6.399   2.222   1.386 -0.1346 -0.3314 -0.0758
  662TIP3    H223546   6.466   2.340   1.452 -3.2144  1.7154 -0.4164
  663TIP3   OH223547   3.239   2.096   8.105  0.2980 -0.6719  0.4804
  663TIP3    H123548   3.168   2.145   8.146  0.1740 -0.8613  0.4895
  663TIP3    H223549   3.271   2.037   8.173  1.0397  0.0192  0.7462
  664TIP3   OH223550   0.879   5.427   1.270 -0.4814 -0.5591  0.8135
  664TIP3    H123551   0.884   5.375   1.190  0.1719 -1.3804  1.3777
  664TIP3    H223552   0.785   5.447   1.279 -0.2899  2.4521 -1.9406
  665TIP3   OH223553   1.172   2.386   0.874  0.1134 -0.1294  0.1606
  665TIP3    H123554   1.165   2.333   0.953 -0.4698 -0.1162  0.1195
  665TIP3    H223555   1.124   2.466   0.894 -0.8328 -0.5080 -0.5231
  666TIP3   OH223556   1.274   2.689   6.953  0.5450  0.1637  0.1456
  666TIP3    H123557   1.246   2.744   6.880 -0.8692  1.0515  1.2963
  666TIP3    H223558   1.195   2.642   6.979  0.9490  0.0776  1.2795
  667TIP3   OH223559   0.701   5.094   8.183 -0.0718 -0.1995 -0.0766
  667TIP3    H123560   0.620   5.145   8.184 -0.3448 -0.6038  1.2671
  667TIP3    H223561   0.692   5.033   8.257  2.0819  0.7697  1.0977
  668TIP3   OH223562   2.406   3.387   0.327 -0.1058 -0.1812  0.1849
  668TIP3    H123563   2.430   3.381   0.235  0.6818  1.0969  0.2768
  668TIP3    H223564   2.394   3.480   0.343 -2.8693 -0.5309  0.7695
  669TIP3   OH223565   4.831   3.508   7.141  0.2212  0.1847  0.1187
  669TIP3    H123566   4.855   3.462   7.221  0.6792  1.8696  0.9883
  669TIP3    H223567   4.754   3.560   7.165 -0.1492  0.0817 -0.7841
  670TIP3   OH223568   4.721   4.307   7.204 -0.6795  0.3393  0.5442
  670TIP3    H123569   4.729   4.398   7.233 -0.8597  0.2772  0.7908
  670TIP3    H223570   4.677   4.262   7.276 -0.0201 -0.0847  0.6967
  671TIP3   OH223571   6.639   4.089   6.761 -0.2763 -0.5845  0.1758
  671TIP3    H123572   6.725   4.129   6.745 -0.1777 -0.2273  1.4662
  671TIP3    H223573   6.636   4.013   6.703 -0.4710  1.2285 -2.4158
  672TIP3   OH223574   6.223   5.827   7.936  0.3448  0.0588  0.7688
  672TIP3    H123575   6.134   5.862   7.944 -0.4081 -1.3787 -0.6359
  672TIP3    H223576   6.220   5.742   7.980  1.2477  0.3243  1.3639
  673TIP3   OH223577   4.458   5.336   7.331 -0.2062 -0.1004  0.1462
  673TIP3    H123578   4.489   5.288   7.254 -0.2719  0.6786 -0.3781
  673TIP3    H223579   4.429   5.268   7.391 -1.9882 -0.7076 -1.2919
  674TIP3   OH223580   5.570   6.139   1.356  0.2181 -0.6697  0.3085
  674TIP3    H123581   5.593   6.226   1.388 -0.1891 -0.6382  0.5205
  674TIP3    H223582   5.578   6.083   1.432 -1.3504 -0.4901  0.6336
  675TIP3   OH223583   2.228   0.542   1.033  0.3899  0.5153 -0.1496
  675TIP3    H123584   2.226   0.576   1.123 -2.4514 -0.2101  0.1569
  675TIP3    H223585   2.177   0.604   0.983 -0.8667 -0.7951 -0.5443
  676TIP3   OH223586   3.044   0.693   0.551  0.2622 -0.6971  0.1128
  676TIP3    H123587   3.077   0.757   0.614 -0.8750 -0.4611  0.5007
  676TIP3    H223588   3.118   0.675   0.493  0.9006  0.1760  0.6379
  677TIP3   OH223589   6.407   3.127   0.151  0.4863 -0.1684 -0.1813
  677TIP3    H123590   6.470   3.197   0.140 -0.4499  0.6070 -0.7406
  677TIP3    H223591   6.405   3.111   0.246 -0.0122  1.2646  0.0753
  678TIP3   OH223592   0.356   6.629   0.642  0.1057 -0.6241  0.0307
  678TIP3    H123593   0.424   6.605   0.705 -0.1087 -2.0405 -0.2456
  678TIP3    H223594   0.336   6.720   0.663  0.6531 -0.7955  1.4349
  679TIP3   OH223595   6.401   1.218   6.394  0.0147  0.6017  0.4094
  679TIP3    H123596   6.313   1.193   6.423  0.4826  1.4459  2.8476
  679TIP3    H223597   6.429   1.146   6.337 -2.0323  0.0701 -0.0184
  680TIP3   OH223598   1.534   1.411   7.092  0.4320 -0.2220 -0.4446
  680TIP3    H123599   1.440   1.408   7.111  0.5909 -0.9974  0.2914
  680TIP3    H223600   1.575   1.371   7.169  1.2606 -1.5220 -1.5161
  681TIP3   OH223601   5.098   2.373   6.623 -0.7150 -0.0093 -0.6048
  681TIP3    H123602   5.129   2.439   6.686 -0.5461  0.1865 -0.8924
  681TIP3    H223603   5.168   2.366   6.559 -0.2934 -1.1868 -0.0574
  682TIP3   OH223604   5.554   6.216   0.329  0.4428 -0.2575 -0.0414
  682TIP3    H123605   5.626   6.181   0.381  0.1897 -0.1216  0.4083
  682TIP3    H223606   5.596   6.274   0.265  0.8169 -0.9713 -0.4486
  683TIP3   OH223607   2.828   0.371   1.090  0.2748 -0.3639  0.0890
  683TIP3    H123608   2.871   0.435   1.034  0.1757 -0.0596  0.3552
  683TIP3    H223609   2.896   0.308   1.112  0.6207  0.1678  0.5851
  684TIP3   OH223610   1.449   5.240   0.314  0.1091  0.2664  0.3650
  684TIP3    H123611   1.521   5.215   0.257  0.3964  1.3521  0.2269
  684TIP3    H223612   1.374   5.190   0.281  0.0415  1.5326 -1.5875
  685TIP3   OH223613   1.889   5.064   1.381  0.3349  0.2541 -0.3757
  685TIP3    H123614   1.898   5.146   1.333 -1.6083 -0.4362 -2.0867
  685TIP3    H223615   1.865   5.091   1.470  1.7296  1.5233 -0.3369
  686TIP3   OH223616   5.770   2.935   0.400 -0.2496  0.0809  0.2086
  686TIP3    H123617   5.807   2.847   0.397  0.0747  0.2190 -0.0619
  686TIP3    H223618   5.842   2.990   0.433 -0.8434  0.0595  1.5865
  687TIP3   OH223619   2.970   3.946   0.024 -0.4139 -0.1603  0.5093
  687TIP3    H123620   2.937   4.029  -0.008 -0.5056 -0.3502  0.0987
  687TIP3    H223621   2.976   3.957   0.119  1.2335  0.9233  0.3227
  688TIP3   OH223622   4.764   0.498   6.926  0.1248  0.5796 -0.2161
  688TIP3    H123623   4.765   0.452   6.842 -0.5267  1.0061 -0.4721
  688TIP3    H223624   4.778   0.590   6.903 -0.2828  0.7286  0.1179
  689TIP3   OH223625   1.658   1.867   6.904  0.0208  0.2076  0.4065
  689TIP3    H123626   1.742   1.863   6.858  1.1090  1.1003  2.2246
  689TIP3    H223627   1.641   1.960   6.916  0.1863  0.0191  2.4675
  690TIP3   OH223628   1.906   1.265   8.562 -0.5585  0.1453 -0.3608
  690TIP3    H123629   1.843   1.303   8.501 -0.0115  0.4398 -0.7536
  690TIP3    H223630   1.987   1.314   8.546 -0.8489  1.5152  1.8771
  691TIP3   OH223631   2.746   2.000   8.240  0.2845  0.6107 -0.1798
  691TIP3    H123632   2.835   1.976   8.214  0.0629 -0.1799 -0.2362
  691TIP3    H223633   2.693   1.924   8.217  0.1854 -0.6178  3.4333
  692TIP3   OH223634   1.633   2.674   7.082  1.3111  0.2275 -0.3122
  692TIP3    H123635   1.583   2.747   7.046 -0.7926 -1.0541 -0.1607
  692TIP3    H223636   1.597   2.662   7.170 -0.0767 -2.4417 -1.1621
  693TIP3   OH223637   5.666   5.367   0.726  0.3045 -0.5428  0.5037
  693TIP3    H123638   5.675   5.457   0.758 -1.3577  0.1504 -0.8728
  693TIP3    H223639   5.577   5.342   0.751  0.1214 -1.1463 -0.7198
  694TIP3   OH223640   5.632   6.337   6.681  0.7382  0.0087 -0.6878
  694TIP3    H123641   5.692   6.406   6.653 -0.3081  0.7004 -1.3039
  694TIP3    H223642   5.668   6.257   6.645  1.6837  0.2965 -0.4173
  695TIP3   OH223643   1.760   2.838   0.255 -0.5899  0.3268 -0.9159
  695TIP3    H123644   1.835   2.827   0.196 -1.0327 -0.2984 -1.3737
  695TIP3    H223645   1.767   2.766   0.317  0.1939  1.3016  0.1815
  696TIP3   OH223646   1.972   0.691   7.017 -0.3606  0.4468  0.0641
  696TIP3    H123647   1.978   0.786   7.025 -0.9829  0.5118 -0.1805
  696TIP3    H223648   1.934   0.662   7.100  0.2722  0.3630  0.3258
  697TIP3   OH223649   0.774   5.780   6.166  0.3596  0.0006 -0.0634
  697TIP3    H123650   0.814   5.702   6.205  0.2465 -0.1615 -0.2696
  697TIP3    H223651   0.712   5.745   6.102  0.3938  0.2629 -0.2386
  698TIP3   OH223652   2.470   4.703   0.340  0.7935  0.1600  0.0221
  698TIP3    H123653   2.385   4.739   0.365  0.7227 -0.9305  1.4826
  698TIP3    H223654   2.448   4.625   0.289  0.9330  0.6249 -0.7564
  699TIP3   OH223655   0.149   6.178   7.933 -0.5321  0.6040 -0.2635
  699TIP3    H123656   0.071   6.177   7.989  0.1159 -0.2446  0.6532
  699TIP3    H223657   0.210   6.236   7.978 -0.8059  1.7269 -1.2702
  700TIP3   OH223658   6.591   6.373   7.753  0.5206 -0.1090  0.0096
  700TIP3    H123659   6.504   6.397   7.720  1.0309  0.5189 -0.9298
  700TIP3    H223660   6.625   6.453   7.792  0.2631 -0.6353  1.3790
  701TIP3   OH223661   2.772   6.498   2.360 -1.3014 -0.0068  0.3856
  701TIP3    H123662   2.692   6.448   2.372 -1.1435 -0.0539  1.4009
  701TIP3    H223663   2.837   6.450   2.412 -0.1190 -1.0441 -1.9079
  702TIP3   OH223664   1.672   3.810   6.965 -0.0026 -0.4562  0.5553
  702TIP3    H123665   1.726   3.752   7.018 -0.3578 -1.2360  0.0724
  702TIP3    H223666   1.714   3.809   6.879  0.2583  0.3773  0.6627
  703TIP3   OH223667   4.400   0.086   6.878  0.3976 -0.9908  0.1444
  703TIP3    H123668   4.442   0.047   6.801  1.0972 -1.8351  0.9260
  703TIP3    H223669   4.335   0.146   6.842  0.8743 -1.1869 -1.1035
  704TIP3   OH223670   0.380   6.077   1.940  0.5653 -0.0284  0.3439
  704TIP3    H123671   0.394   6.095   2.033  1.2146 -0.9924  0.4494
  704TIP3    H223672   0.405   6.158   1.896  0.8011  0.2485  0.9722
  705TIP3   OH223673   5.756   4.382   7.356  0.5331 -0.4939 -0.2413
  705TIP3    H123674   5.777   4.304   7.407 -0.4365 -0.9851 -0.5533
  705TIP3    H223675   5.709   4.349   7.280 -0.1377  0.4105 -0.2466
  706TIP3   OH223676   5.038   5.984   0.100  0.3019 -0.0577  0.4934
  706TIP3    H123677   4.952   5.991   0.143 -0.5352 -1.5785 -0.8193
  706TIP3    H223678   5.085   6.063   0.127 -2.1762  1.7834 -0.1903
  707TIP3   OH223679   3.756   6.031   6.861  0.3084 -0.4203  0.4042
  707TIP3    H123680   3.827   6.035   6.797 -0.5154 -0.9176 -0.5529
  707TIP3    H223681   3.801   6.036   6.946  1.4544 -0.3313 -0.1890
  708TIP3   OH223682   1.714   1.154   6.741  0.0441 -0.2173  0.1244
  708TIP3    H123683   1.752   1.067   6.756 -0.2369 -0.5714 -1.0276
  708TIP3    H223684   1.626   1.148   6.777  0.1748 -0.2626  0.4402
  709TIP3   OH223685   0.178   6.001   6.582 -0.3061 -0.0287 -0.6914
  709TIP3    H123686   0.204   6.090   6.558  0.3022 -0.5787 -2.2291
  709TIP3    H223687   0.245   5.945   6.541 -0.2573 -1.1742  0.8525
  710TIP3   OH223688   2.705   0.106   6.460 -0.2231 -0.3956  0.2729
  710TIP3    H123689   2.616   0.125   6.433  0.3387  0.5614 -1.0304
  710TIP3    H223690   2.710   0.011   6.463 -1.3216 -0.4566  0.5309
  711TIP3   OH223691   5.981   6.771   7.152 -0.2873 -0.1532 -0.5241
  711TIP3    H123692   6.000   6.865   7.151 -2.2797  0.2879 -0.9351
  711TIP3    H223693   6.067   6.730   7.144  1.0721  1.5216  2.9274
  712TIP3   OH223694   3.997   4.242   0.945 -0.4601  0.1411 -0.9345
  712TIP3    H123695   3.988   4.179   1.017  2.3841  1.3032  0.6325
  712TIP3    H223696   4.080   4.218   0.903 -1.4820  0.2361 -3.1329
  713TIP3   OH223697   2.058   1.194   1.028 -0.0626  0.4299 -0.0142
  713TIP3    H123698   2.028   1.187   1.119  0.6916 -1.6967  0.1365
  713TIP3    H223699   1.977   1.199   0.977 -0.5362  0.2951  0.7066
  714TIP3   OH223700   0.180   1.955   1.975 -0.0908  0.2172 -0.0154
  714TIP3    H123701   0.256   1.928   1.923  0.5972  0.5793  0.7645
  714TIP3    H223702   0.196   2.047   1.994 -1.4458  0.6917 -1.0200
  715TIP3   OH223703   2.207   6.756   7.907  0.7000  0.1730  0.0783
  715TIP3    H123704   2.257   6.736   7.987  1.7752  0.6088 -0.4581
  715TIP3    H223705   2.237   6.692   7.843  2.3187  1.8162 -0.9168
  716TIP3   OH223706   3.796   2.170   8.343  0.0433  0.4678  0.4155
  716TIP3    H123707   3.743   2.098   8.310 -1.5331  1.3229  1.0005
  716TIP3    H223708   3.855   2.128   8.407 -0.8787 -0.3057  0.7934
  717TIP3   OH223709   2.543   3.011   7.722  0.6467 -0.1237  0.1571
  717TIP3    H123710   2.468   3.039   7.775 -0.5734 -1.4244 -0.7999
  717TIP3    H223711   2.605   2.974   7.785  0.5199  0.9897  0.9658
  718TIP3   OH223712   1.224   5.034   1.700  0.0940  0.0527  0.5379
  718TIP3    H123713   1.270   5.118   1.701  0.5899 -0.2084  1.7984
  718TIP3    H223714   1.146   5.048   1.754 -0.1741 -0.1079  0.1961
  719TIP3   OH223715   1.448   1.095   7.777  0.0840 -0.3599 -0.1300
  719TIP3    H123716   1.429   1.013   7.822  0.7769 -0.8276 -0.6737
  719TIP3    H223717   1.492   1.149   7.843  0.2677 -0.6947  0.0222
  720TIP3   OH223718   6.719   4.906   7.486 -0.2378  0.1629 -0.3844
  720TIP3    H123719   6.740   4.957   7.564 -0.4393 -3.5371  2.3897
  720TIP3    H223720   6.625   4.892   7.491 -0.3449  0.3106 -1.6573
  721TIP3   OH223721   6.057   6.200   1.025 -0.2225  0.0103 -0.0942
  721TIP3    H123722   5.993   6.129   1.021 -1.0042  0.7622 -2.4266
  721TIP3    H223723   6.013   6.269   1.074 -0.9727  0.2878 -1.1383
  722TIP3   OH223724   1.995   3.373   8.413 -0.3039  0.2592 -0.0835
  722TIP3    H123725   2.004   3.422   8.331  0.4796  0.8267  0.3307
  722TIP3    H223726   1.902   3.353   8.418 -0.3860  0.3114 -1.0573
  723TIP3   OH223727   5.775   6.130   7.898 -0.1574 -0.7181  0.3982
  723TIP3    H123728   5.696   6.157   7.945 -0.2335  0.0699 -0.1700
  723TIP3    H223729   5.810   6.210   7.861 -0.0843 -1.3129 -0.8732
  724TIP3   OH223730   1.016   4.580   8.347 -0.4433  0.0228  0.0431
  724TIP3    H123731   1.043   4.513   8.284 -2.9336  0.3663 -1.5322
  724TIP3    H223732   1.031   4.663   8.302 -2.8255  0.2572 -0.4430
  725TIP3   OH223733   2.379   2.414   7.462  0.6655 -0.2602  0.3564
  725TIP3    H123734   2.355   2.505   7.444 -0.0542 -0.2952  1.0923
  725TIP3    H223735   2.301   2.364   7.437  0.4806 -0.5183  1.4111
  726TIP3   OH223736   5.920   0.889   6.858 -0.1026  0.0288 -0.0028
  726TIP3    H123737   5.855   0.948   6.896 -0.6410  0.0788 -0.9652
  726TIP3    H223738   5.938   0.926   6.772 -0.3984 -1.1690 -0.5972
  727TIP3   OH223739   6.888   3.842   7.072 -0.1896  0.0847  0.2366
  727TIP3    H123740   6.965   3.788   7.089 -0.7842 -0.8475  0.0007
  727TIP3    H223741   6.900   3.875   6.983 -1.8300 -3.1759 -1.3715
  728TIP3   OH223742   3.353   6.860   1.628 -0.4178  0.0736  0.0494
  728TIP3    H123743   3.387   6.785   1.677  0.1296 -0.5156 -1.1837
  728TIP3    H223744   3.323   6.822   1.545 -1.2818  1.0486 -0.0934
  729TIP3   OH223745   2.919   0.852   7.056  0.6789  0.6407  0.5547
  729TIP3    H123746   3.010   0.828   7.071  1.1191  2.1243  0.4154
  729TIP3    H223747   2.906   0.931   7.109 -0.7620  0.0138  1.2021
  730TIP3   OH223748   3.501   2.909   6.608 -0.5888  0.3826 -0.0284
  730TIP3    H123749   3.535   2.871   6.526 -2.5821  0.4887 -0.9791
  730TIP3    H223750   3.413   2.937   6.585 -1.7576 -0.9009  2.5653
  731TIP3   OH223751   2.933   5.824   7.876  0.7210 -0.7291  0.2529
  731TIP3    H123752   3.018   5.863   7.857  1.2281 -1.7638  0.3152
  731TIP3    H223753   2.922   5.757   7.809 -1.2256  1.0661 -1.3203
  732TIP3   OH223754   4.846   1.444   8.413 -0.5259  0.5207 -1.0580
  732TIP3    H123755   4.932   1.483   8.397  0.1030 -0.0160  0.7953
  732TIP3    H223756   4.859   1.351   8.395 -0.4365  0.2880  0.1287
  733TIP3   OH223757   3.696   2.753   8.349 -0.1341  0.2728  0.4092
  733TIP3    H123758   3.769   2.727   8.406 -0.9271  0.2645  1.4509
  733TIP3    H223759   3.726   2.731   8.261  0.7451 -0.6053  0.8984
  734TIP3   OH223760   4.923   5.284   8.464  0.0849 -0.1172  0.6255
  734TIP3    H123761   4.968   5.227   8.401  1.0566  0.4490  0.7868
  734TIP3    H223762   4.891   5.356   8.411 -0.3374 -0.3466  0.5653
  735TIP3   OH223763   5.673   0.878   2.366  0.2009 -0.2767  0.5556
  735TIP3    H123764   5.601   0.850   2.422 -0.1488 -0.6658 -0.0741
  735TIP3    H223765   5.731   0.802   2.361  1.7059  0.6509  2.6513
  736TIP3   OH223766   6.740   5.636   6.323 -0.0980 -0.0508 -0.5405
  736TIP3    H123767   6.669   5.625   6.385  0.9695 -2.2219  0.4254
  736TIP3    H223768   6.815   5.593   6.365  1.4741  1.1313 -2.0038
  737TIP3   OH223769   3.080   3.080   6.946  0.5344 -0.2742  0.0884
  737TIP3    H123770   3.131   3.115   6.873 -0.4752 -0.1097 -0.5649
  737TIP3    H223771   3.008   3.141   6.956  1.3594  0.4309  2.1178
  738TIP3   OH223772   1.836   3.083   8.155 -0.0015  0.4235 -0.3044
  738TIP3    H123773   1.927   3.101   8.180 -0.3528  1.5329  0.2454
  738TIP3    H223774   1.841   3.062   8.062  0.6880  1.7483 -0.6012
  739TIP3   OH223775   1.611   0.611   5.993  0.0161  0.4808  0.1126
  739TIP3    H123776   1.642   0.701   5.985  3.6742 -0.5696  0.9246
  739TIP3    H223777   1.650   0.580   6.075  0.6289 -2.4584 -1.1988
  740TIP3   OH223778   0.753   0.362   7.447  0.2122  0.4607  0.2455
  740TIP3    H123779   0.673   0.403   7.412  1.3022  4.0140  1.4716
  740TIP3    H223780   0.721   0.303   7.515 -1.4569  2.5494  1.4272
  741TIP3   OH223781   2.619   6.522   8.164 -0.2415 -0.2997 -0.8713
  741TIP3    H123782   2.528   6.510   8.191 -0.3013 -2.2936 -1.7696
  741TIP3    H223783   2.659   6.436   8.174  1.1206  0.1556 -2.0122
  742TIP3   OH223784   2.631   0.383   7.808 -0.0852  0.5253 -0.3160
  742TIP3    H123785   2.669   0.306   7.850  0.7600  0.4028 -1.2586
  742TIP3    H223786   2.590   0.350   7.728 -3.7494  0.3869  1.4161
  743TIP3   OH223787   4.490   4.708   0.537 -0.2369  0.2261 -0.0808
  743TIP3    H123788   4.504   4.767   0.611  2.6904  0.8732 -1.0248
  743TIP3    H223789   4.494   4.620   0.575 -0.5081  0.5802  0.7742
  744TIP3   OH223790   3.260   6.484   0.281 -0.0704  0.0999  0.3566
  744TIP3    H123791   3.277   6.411   0.341  0.0944  0.6537  0.9945
  744TIP3    H223792   3.341   6.535   0.281 -0.3886  0.6130  0.3868
  745TIP3   OH223793   6.288   5.774   0.515  0.5254  0.0350  0.2946
  745TIP3    H123794   6.329   5.698   0.557 -0.2862 -0.1589  0.7631
  745TIP3    H223795   6.347   5.846   0.535  0.2634 -0.0838  1.6570
  746TIP3   OH223796   0.075   0.886   1.105 -0.2828  0.3268  0.4048
  746TIP3    H123797   0.022   0.964   1.085  0.2707  0.7732  0.6393
  746TIP3    H223798   0.122   0.867   1.024  0.5799  1.0400  0.7215
  747TIP3   OH223799   5.613   5.827   8.088  0.8529  0.3112 -0.0136
  747TIP3    H123800   5.676   5.884   8.044  0.9240 -0.4170 -0.8711
  747TIP3    H223801   5.626   5.741   8.048  1.1816 -0.4790  1.6679
  748TIP3   OH223802   4.408   1.785   0.279  0.2281  0.6914 -0.6909
  748TIP3    H123803   4.388   1.800   0.371 -0.0216 -2.2224 -0.1631
  748TIP3    H223804   4.323   1.772   0.238  0.4339 -0.1675 -0.8639
  749TIP3   OH223805   3.173   6.278   6.827  0.1774  0.1232 -0.1885
  749TIP3    H123806   3.231   6.323   6.766  0.7547 -0.1209  0.1728
  749TIP3    H223807   3.180   6.186   6.803  1.6061 -0.1729  1.2015
  750TIP3   OH223808   3.845   1.262   0.969  0.0835 -0.1741  0.0275
  750TIP3    H123809   3.859   1.179   0.924  2.3049  0.5448 -0.7016
  750TIP3    H223810   3.933   1.297   0.984 -0.8072  2.6754 -0.8812
  751TIP3   OH223811   0.656   1.422   0.172  0.0861  0.5240 -0.1341
  751TIP3    H123812   0.634   1.443   0.081 -0.0729  0.3437 -0.1385
  751TIP3    H223813   0.603   1.482   0.224 -1.2307 -0.6122 -0.1193
  752TIP3   OH223814   5.805   6.191   8.275  0.1051 -0.1643 -0.4986
  752TIP3    H123815   5.834   6.279   8.253  0.7791 -0.2072  0.1956
  752TIP3    H223816   5.883   6.137   8.263 -0.2554 -0.6426 -0.7366
  753TIP3   OH223817   3.067   3.747   8.374 -0.2970 -0.1324  0.6272
  753TIP3    H123818   3.105   3.747   8.462 -0.2774 -2.0668  0.6594
  753TIP3    H223819   3.088   3.660   8.339  0.7229  1.0037 -1.7583
  754TIP3   OH223820   0.749   1.521   1.419  0.3654  0.2814 -0.4819
  754TIP3    H123821   0.829   1.505   1.368 -0.6415  0.9208 -2.3440
  754TIP3    H223822   0.714   1.435   1.437  0.7983  0.0357 -0.7860
  755TIP3   OH223823   3.895   4.971   7.396  0.1256 -0.8241 -0.4598
  755TIP3    H123824   3.829   5.039   7.409  0.2796 -0.2458 -2.4487
  755TIP3    H223825   3.914   4.939   7.485  0.5089  2.1348  0.6125
  756TIP3   OH223826   5.458   2.178   7.919 -0.4964 -0.2173  0.4117
  756TIP3    H123827   5.381   2.229   7.895  0.5767  1.3909  0.2379
  756TIP3    H223828   5.521   2.196   7.849  0.7356  0.1403  1.5784
  757TIP3   OH223829   5.980   6.146   0.098  0.3949  0.0682 -0.4580
  757TIP3    H123830   6.017   6.132   0.010  2.0786  1.7143 -0.0710
  757TIP3    H223831   6.048   6.193   0.145 -0.8120 -0.0640  1.5035
  758TIP3   OH223832   5.159   6.327   7.963 -1.1059 -0.3273 -0.3548
  758TIP3    H123833   5.142   6.239   7.997  0.0343 -0.3155  0.2895
  758TIP3    H223834   5.197   6.374   8.037 -1.5276  0.6670 -0.7447
  759TIP3   OH223835   2.866   5.864   6.727  0.1293 -0.0475 -0.3954
  759TIP3    H123836   2.936   5.801   6.710  0.2149 -0.3216  0.8460
  759TIP3    H223837   2.791   5.810   6.753  0.1180  0.3306  0.4086
  760TIP3   OH223838   1.532   4.954   8.132  0.4672  0.2129  0.5025
  760TIP3    H123839   1.572   5.015   8.069  0.0817  0.4759  0.5095
  760TIP3    H223840   1.605   4.929   8.189  1.2297 -1.3870 -1.0557
  761TIP3   OH223841   3.006   1.946   0.134  0.5676 -0.3206  0.0090
  761TIP3    H123842   3.066   1.953   0.060  3.0812  0.5197  1.9842
  761TIP3    H223843   2.955   1.866   0.116  1.9138 -0.8113 -2.0001
  762TIP3   OH223844   6.632   3.694   7.228 -0.6425  0.6017 -0.1400
  762TIP3    H123845   6.667   3.623   7.174 -2.5066 -1.8795  1.7031
  762TIP3    H223846   6.612   3.764   7.165 -0.3466 -1.1244 -2.2807
  763TIP3   OH223847   5.374   1.984   8.507  0.1784  0.3808 -0.0175
  763TIP3    H123848   5.376   1.958   8.415  1.6170  1.1889 -0.2499
  763TIP3    H223849   5.280   1.994   8.527 -0.3095 -2.1443 -0.6597
  764TIP3   OH223850   2.723   1.555   0.387  0.6125 -0.2052  0.0653
  764TIP3    H123851   2.774   1.476   0.404 -0.1843 -0.9380 -0.8509
  764TIP3    H223852   2.647   1.548   0.445  0.2722 -0.3782 -0.3977
  765TIP3   OH223853   0.103   5.869   6.258 -1.0176 -0.1482 -0.3251
  765TIP3    H123854   0.180   5.860   6.314 -0.4867  0.2586 -0.9708
  765TIP3    H223855   0.037   5.908   6.315 -0.3121  0.7871 -0.1096
  766TIP3   OH223856   4.061   6.759   1.219  0.0383 -0.3365 -0.1158
  766TIP3    H123857   4.041   6.698   1.290  0.3819  1.8892  2.0269
  766TIP3    H223858   3.977   6.777   1.178 -0.4279 -0.4662  0.7645
  767TIP3   OH223859   3.125   5.341   2.151 -0.7498  0.4648 -0.7088
  767TIP3    H123860   3.183   5.414   2.127  1.2303 -0.4411  0.9973
  767TIP3    H223861   3.149   5.272   2.089 -0.1698  0.1849 -0.1853
  768TIP3   OH223862   5.074   3.629   7.870  0.3163  0.1022 -0.5388
  768TIP3    H123863   5.002   3.645   7.809 -0.2616 -2.0164 -0.4990
  768TIP3    H223864   5.152   3.630   7.815 -0.0564 -0.4253 -1.0949
  769TIP3   OH223865   3.494   1.172   1.285 -0.1307 -0.1468 -0.3890
  769TIP3    H123866   3.469   1.263   1.270  1.2803  0.5512  1.2079
  769TIP3    H223867   3.575   1.161   1.235 -0.2805 -0.5160 -0.5493
  770TIP3   OH223868   5.282   2.362   6.428 -0.1667 -0.3933 -0.5769
  770TIP3    H123869   5.256   2.302   6.357 -1.1527  0.9475 -1.3942
  770TIP3    H223870   5.327   2.433   6.383  1.5770 -0.7858  0.4554
  771TIP3   OH223871   4.818   0.779   6.930  0.4489 -0.7127 -0.1548
  771TIP3    H123872   4.886   0.773   6.997  0.7618 -1.6789 -0.5354
  771TIP3    H223873   4.863   0.817   6.854  0.5234 -1.1697 -0.3435
  772TIP3   OH223874   1.826   1.567   0.365  0.4764 -0.0795  0.4351
  772TIP3    H123875   1.860   1.631   0.303  0.9810 -1.5080 -0.8189
  772TIP3    H223876   1.774   1.619   0.427 -1.6976  1.2334 -2.2669
  773TIP3   OH223877   6.011   2.436   0.305 -0.0939 -0.3958  0.2387
  773TIP3    H123878   6.092   2.421   0.256  0.0590 -0.4330  0.5026
  773TIP3    H223879   6.037   2.493   0.378 -0.5046  0.4543 -0.2660
  774TIP3   OH223880   5.364   1.430   1.726  0.2915  0.2171  0.2282
  774TIP3    H123881   5.269   1.434   1.739 -0.1911 -1.0286 -2.2707
  774TIP3    H223882   5.380   1.482   1.648  1.7270  0.5176  0.6902
  775TIP3   OH223883   0.064   3.488   0.787  0.2763  0.0853 -0.5503
  775TIP3    H123884   0.005   3.418   0.815 -1.2614  1.7844  0.6982
  775TIP3    H223885   0.149   3.445   0.777 -0.1395 -1.6040  2.1027
  776TIP3   OH223886   0.267   6.533   0.104 -0.2882  0.0444 -0.5762
  776TIP3    H123887   0.296   6.447   0.075  0.7808  0.3299 -0.3975
  776TIP3    H223888   0.265   6.527   0.199 -1.0467 -0.0316 -0.5893
  777TIP3   OH223889   3.327   6.451   6.434 -0.4039  0.3456  0.4019
  777TIP3    H123890   3.393   6.411   6.377  0.3766  0.4253  1.2398
  777TIP3    H223891   3.279   6.511   6.376 -0.3243 -0.3524 -0.4142
  778TIP3   OH223892   5.707   2.790   2.300 -0.3220 -0.4393  0.3599
  778TIP3    H123893   5.786   2.843   2.313 -1.0954  1.7295 -2.6096
  778TIP3    H223894   5.636   2.845   2.334 -1.0455  0.1806 -1.9678
  779TIP3   OH223895   4.023   1.460   0.270 -0.0886  0.0091 -0.2741
  779TIP3    H123896   4.092   1.524   0.251  0.2367  0.1332  1.1775
  779TIP3    H223897   3.958   1.509   0.320 -0.2783 -0.5785  0.0630
  780TIP3   OH223898   6.611   1.984   1.767 -0.3997 -1.0257 -0.3883
  780TIP3    H123899   6.640   2.075   1.765 -0.8239 -0.9038 -1.8306
  780TIP3    H223900   6.661   1.944   1.839 -0.1618  0.3136  0.2139
  781TIP3   OH223901   1.843   3.824   7.768  0.0150 -0.0918  0.5938
  781TIP3    H123902   1.848   3.852   7.676  0.3520  1.2784  1.0185
  781TIP3    H223903   1.896   3.744   7.771 -0.4640 -0.4778 -0.5088
  782TIP3   OH223904   3.787   1.133   7.209  0.4166 -0.4293 -0.1250
  782TIP3    H123905   3.826   1.105   7.127  1.3662 -1.5064  0.6653
  782TIP3    H223906   3.824   1.220   7.225 -0.5719  0.2439 -1.3206
  783TIP3   OH223907   6.611   5.635   2.395  0.4739  0.1460 -0.0071
  783TIP3    H123908   6.688   5.579   2.398  1.3152  1.2707 -0.0247
  783TIP3    H223909   6.549   5.588   2.338  1.6459 -0.1519 -1.0864
  784TIP3   OH223910   4.462   0.540   2.243  0.3516 -0.2665 -0.1172
  784TIP3    H123911   4.371   0.539   2.274  0.4833 -2.6139  0.3733
  784TIP3    H223912   4.513   0.567   2.320  0.1624  0.0957 -0.1151
  785TIP3   OH223913   6.435   0.415   8.027  0.1425  0.2248  0.2898
  785TIP3    H123914   6.375   0.490   8.017 -0.6938 -0.4184  0.3770
  785TIP3    H223915   6.464   0.396   7.938 -2.4767 -1.6003 -0.2746
  786TIP3   OH223916   3.270   5.831   8.244 -0.1783  0.0915  0.1680
  786TIP3    H123917   3.355   5.812   8.283 -0.7094  0.8702  1.7823
  786TIP3    H223918   3.285   5.821   8.150  2.0861  1.5515  0.2748
  787TIP3   OH223919   3.193   6.781   1.099 -0.1277  0.2926 -0.0298
  787TIP3    H123920   3.223   6.690   1.093  0.1564  0.3812 -0.0066
  787TIP3    H223921   3.137   6.794   1.023 -0.5925 -0.0553  0.2466
  788TIP3   OH223922   5.663   1.951   7.970 -0.0404  0.2004  0.0050
  788TIP3    H123923   5.750   1.926   8.003  0.2650 -1.0205 -1.5893
  788TIP3    H223924   5.680   2.015   7.901 -0.4892  0.7516  0.3979
  789TIP3   OH223925   0.998   1.884   0.121  0.6396  0.2251 -0.0771
  789TIP3    H123926   0.909   1.882   0.085  1.0400  0.9626 -1.1781
  789TIP3    H223927   1.015   1.976   0.137  0.7836 -0.0255  1.2727
  790TIP3   OH223928   1.131   1.066   6.789 -0.3500  0.1482  0.2169
  790TIP3    H123929   1.181   1.048   6.710  0.8658  0.7863  0.8135
  790TIP3    H223930   1.039   1.063   6.761  0.0101 -0.9532 -0.9198
  791TIP3   OH223931   4.626   3.355   1.871  0.6209 -0.0821  0.4469
  791TIP3    H123932   4.716   3.342   1.900  1.2436 -0.9616 -1.6504
  791TIP3    H223933   4.574   3.351   1.951  2.4537  0.7507  1.7484
  792TIP3   OH223934   5.639   5.679   1.716  0.7433 -0.1525  0.0443
  792TIP3    H123935   5.660   5.626   1.639  0.2146 -1.1455  0.5705
  792TIP3    H223936   5.547   5.702   1.705  0.9062  0.4791 -0.0603
  793TIP3   OH223937   5.367   6.834   7.797  0.3151  0.1656  0.0833
  793TIP3    H123938   5.321   6.766   7.749  0.5923  0.1140 -0.1138
  793TIP3    H223939   5.383   6.796   7.883  1.9153 -0.6577 -0.5369
  794TIP3   OH223940   3.224   3.354   6.380  0.8183 -0.6717  0.1694
  794TIP3    H123941   3.149   3.351   6.321  1.2215 -0.0662 -0.3791
  794TIP3    H223942   3.285   3.290   6.343  1.0891 -0.2597 -0.0918
  795TIP3   OH223943   3.583   4.956   2.001 -0.1868 -0.0866 -0.0892
  795TIP3    H123944   3.534   5.016   2.058 -1.7565 -0.2083 -1.2449
  795TIP3    H223945   3.524   4.883   1.986  1.4694 -1.7008  0.7897
  796TIP3   OH223946   0.032   0.592   7.611  0.2871  0.5352  0.2622
  796TIP3    H123947   0.061   0.676   7.645 -0.0389  0.7496  0.0138
  796TIP3    H223948  -0.049   0.572   7.659  0.6263  0.1277  0.6725
  797TIP3   OH223949   0.041   3.693   7.906  0.1871 -0.3945 -0.3563
  797TIP3    H123950   0.104   3.648   7.850  0.5882 -1.6082  1.0001
  797TIP3    H223951   0.047   3.785   7.881  2.5452 -0.4563 -0.2304
  798TIP3   OH223952   3.296   6.108   8.158 -0.6193 -0.4570  0.1353
  798TIP3    H123953   3.262   6.047   8.224 -2.0863 -0.9910 -1.0623
  798TIP3    H223954   3.387   6.122   8.184 -1.3192 -0.0285  2.7260
  799TIP3   OH223955   1.649   5.493   1.563  0.0235 -0.7618  0.0249
  799TIP3    H123956   1.623   5.452   1.480 -0.6175  0.6704 -0.5282
  799TIP3    H223957   1.571   5.488   1.618  0.0088 -0.5011  0.0309
  800TIP3   OH223958   4.022   4.113   6.855  0.2730  0.5578 -0.4473
  800TIP3    H123959   3.982   4.056   6.789  0.7319 -1.0077  0.5611
  800TIP3    H223960   4.009   4.202   6.822 -2.5700  0.0356 -0.9705
  801TIP3   OH223961   6.813   1.732   7.079  0.3822  0.5345  0.4952
  801TIP3    H123962   6.764   1.658   7.115  0.6270  1.5386  3.1371
  801TIP3    H223963   6.896   1.731   7.126  1.4453  1.0255 -1.2691
  802TIP3   OH223964   3.498   6.437   1.901  0.2050 -0.1523 -0.1272
  802TIP3    H123965   3.503   6.413   1.994  1.5945 -0.6681 -0.3001
  802TIP3    H223966   3.531   6.360   1.855  1.4735  0.8086 -0.9121
  803TIP3   OH223967   5.286   3.817   0.502 -0.4397  0.2058  0.2667
  803TIP3    H123968   5.251   3.818   0.591  0.9669  2.3499  0.8796
  803TIP3    H223969   5.211   3.837   0.446 -1.8744 -3.4357  0.5997
  804TIP3   OH223970   2.513   2.886   1.423 -0.0586  0.1738 -0.2018
  804TIP3    H123971   2.551   2.920   1.342  1.1611 -0.1844  0.2031
  804TIP3    H223972   2.456   2.956   1.454  0.3709  0.7835 -0.7721
  805TIP3   OH223973   3.532   4.475   7.757  0.3712 -0.0726  0.0636
  805TIP3    H123974   3.494   4.396   7.719 -0.8951  1.1766 -1.3898
  805TIP3    H223975   3.597   4.504   7.693 -1.1365  1.5429 -0.8329
  806TIP3   OH223976   2.048   6.384   0.717 -0.2358  0.4629 -0.1672
  806TIP3    H123977   2.035   6.310   0.658 -0.5718 -2.7375  3.5618
  806TIP3    H223978   1.959   6.415   0.736 -0.4042 -0.6695  1.0471
  807TIP3   OH223979   4.814   1.974   8.416 -0.2070  0.2142 -0.4007
  807TIP3    H123980   4.740   1.936   8.463 -0.6273  0.5588 -0.7690
  807TIP3    H223981   4.823   2.062   8.453  0.7736 -0.2209  0.4643
  808TIP3   OH223982   0.452   5.765   7.447 -0.0246 -0.0849  0.0299
  808TIP3    H123983   0.537   5.729   7.424 -1.1053 -2.6307 -0.3497
  808TIP3    H223984   0.454   5.855   7.414  1.9336 -0.5692 -1.3443
  809TIP3   OH223985   3.493   0.508   1.400  0.2481 -0.1950  0.0551
  809TIP3    H123986   3.561   0.569   1.429 -0.1531  0.0119  0.5970
  809TIP3    H223987   3.441   0.492   1.479  1.0545 -2.1957  0.2316
  810TIP3   OH223988   2.085   1.067   8.115  0.1038  0.2532 -0.4626
  810TIP3    H123989   2.149   1.089   8.183 -0.5254  1.6933 -0.3026
  810TIP3    H223990   2.061   0.976   8.132 -0.4496  0.7475  1.5807
  811TIP3   OH223991   4.455   5.547   1.842  0.0408 -0.0531 -0.5317
  811TIP3    H123992   4.414   5.491   1.776 -0.1035  0.3342 -0.7682
  811TIP3    H223993   4.546   5.518   1.844  0.2256  0.4493 -1.4448
  812TIP3   OH223994   0.330   1.383   1.089 -0.1437  0.4732  0.3415
  812TIP3    H123995   0.341   1.476   1.111 -2.8064  1.6634 -2.5957
  812TIP3    H223996   0.271   1.349   1.156  1.6497  0.5209  2.0364
  813TIP3   OH223997   4.383   1.361   7.417  0.5319 -0.6262  0.2880
  813TIP3    H123998   4.351   1.378   7.329  1.9103  1.2063  0.0926
  813TIP3    H223999   4.304   1.358   7.471 -0.2315 -0.3405 -0.7838
  814TIP3   OH224000   5.722   6.249   8.521 -0.3432 -0.4429 -0.1360
  814TIP3    H124001   5.778   6.243   8.444  0.2639  1.0997  0.1350
  814TIP3    H224002   5.776   6.293   8.586 -1.5644  0.2515  0.4422
  815TIP3   OH224003   4.466   3.808   6.191  0.1221 -0.1053  0.3994
  815TIP3    H124004   4.516   3.865   6.133 -0.4303  0.3533  0.3724
  815TIP3    H224005   4.442   3.733   6.136  0.9557 -0.4454  0.4698
  816TIP3   OH224006   1.245   6.861   7.626  0.4729 -0.4357  0.4369
  816TIP3    H124007   1.339   6.847   7.641  0.2822 -1.4634  0.7776
  816TIP3    H224008   1.236   6.859   7.530  0.6500 -1.5693  0.4219
  817TIP3   OH224009   1.594   1.280   1.539  0.1395  0.1525 -0.2683
  817TIP3    H124010   1.604   1.191   1.572  2.8507  0.7917  0.9943
  817TIP3    H224011   1.504   1.304   1.560 -0.8283 -2.4294 -1.1519
  818TIP3   OH224012   2.139   4.941   2.346 -0.2697  0.0472 -0.0405
  818TIP3    H124013   2.187   4.997   2.407 -0.5265 -0.1750  0.3638
  818TIP3    H224014   2.202   4.925   2.275  0.1251  0.0747  0.2979
  819TIP3   OH224015   0.620   3.036   7.903 -0.2210  0.1555  0.2076
  819TIP3    H124016   0.653   3.122   7.933  0.1736 -0.2358  0.9317
  819TIP3    H224017   0.548   3.057   7.844  1.6590  1.0815 -1.9002
  820TIP3   OH224018   1.674   3.882   7.470  0.8550 -0.1435  0.8952
  820TIP3    H124019   1.766   3.856   7.469  0.8380 -0.3219 -1.4600
  820TIP3    H224020   1.645   3.873   7.379 -1.9112 -1.4909  1.7769
  821TIP3   OH224021   5.561   3.483   1.432  0.0027 -0.3807  0.0813
  821TIP3    H124022   5.510   3.564   1.438  0.7395  0.1042 -0.1279
  821TIP3    H224023   5.523   3.426   1.499 -0.6006  0.0875  0.1490
  822TIP3   OH224024   4.421   6.040   6.231  0.3589 -0.1126 -0.0622
  822TIP3    H124025   4.495   6.093   6.262  0.2239  0.7332 -1.1050
  822TIP3    H224026   4.421   6.053   6.136 -2.0155  1.1333  0.0224
  823TIP3   OH224027   4.513   6.829   8.332  0.4371 -0.2992  0.5615
  823TIP3    H124028   4.589   6.885   8.316  1.0047 -1.2969 -0.3946
  823TIP3    H224029   4.543   6.741   8.309 -1.4344 -0.5176 -1.3423
  824TIP3   OH224030   0.625   3.611   1.369 -0.9417  0.0293 -0.2561
  824TIP3    H124031   0.706   3.581   1.411  0.7576  0.8231 -2.7707
  824TIP3    H224032   0.609   3.548   1.299 -3.5641 -1.0937  1.1703
  825TIP3   OH224033   6.078   0.954   7.291  0.5200 -0.3903 -0.1693
  825TIP3    H124034   6.116   0.993   7.370  1.2310  0.3722 -0.8663
  825TIP3    H224035   6.135   0.982   7.220 -1.2742  0.7374 -1.2628
  826TIP3   OH224036   5.012   2.110   7.873 -0.4544 -0.1632  0.2512
  826TIP3    H124037   5.000   2.165   7.796 -1.2987  0.6475  0.9289
  826TIP3    H224038   4.997   2.021   7.842  0.6943 -0.0043 -0.8212
  827TIP3   OH224039   2.308   1.308   5.791 -0.4986  0.2549  0.0162
  827TIP3    H124040   2.288   1.342   5.878 -0.5642 -0.3597  0.2446
  827TIP3    H224041   2.387   1.356   5.765  1.1902 -1.5021  1.5979
  828TIP3   OH224042   3.401   3.859   7.009 -0.7170  0.4105  0.1413
  828TIP3    H124043   3.350   3.783   7.035 -0.5111  0.1333 -0.2440
  828TIP3    H224044   3.351   3.935   7.040 -0.9925  0.1235  0.3988
  829TIP3   OH224045   3.943   0.906   0.582 -0.5239 -1.0946 -0.5983
  829TIP3    H124046   4.032   0.876   0.603  0.0720  1.7191  1.3191
  829TIP3    H224047   3.941   0.906   0.486  2.1857  0.3466 -0.7608
  830TIP3   OH224048   3.035   1.650   0.234  0.3150  0.2892  0.6828
  830TIP3    H124049   3.033   1.663   0.329 -0.0750  0.3851  0.6649
  830TIP3    H224050   2.950   1.682   0.204  0.3145 -0.0283  0.3387
  831TIP3   OH224051   1.731   6.629   1.140  0.4427 -0.1198  0.6015
  831TIP3    H124052   1.803   6.570   1.162  1.1168 -0.1317 -1.4835
  831TIP3    H224053   1.663   6.571   1.105 -0.4054 -0.0343  1.9933
  832TIP3   OH224054   5.821   2.581   6.329  0.1776 -0.5178 -0.4177
  832TIP3    H124055   5.878   2.539   6.394  1.1271  2.0597  0.5384
  832TIP3    H224056   5.878   2.644   6.285 -0.8653 -1.0695 -2.7058
  833TIP3   OH224057   4.315   0.582   6.174  0.3613  0.4180 -0.0541
  833TIP3    H124058   4.222   0.589   6.195 -0.2470  0.9348 -2.6209
  833TIP3    H224059   4.340   0.669   6.145  1.4770  0.1029 -0.0936
  834TIP3   OH224060   6.550   5.553   8.104 -0.4780  0.8012  0.5914
  834TIP3    H124061   6.480   5.581   8.045 -0.4958  1.0667  0.7375
  834TIP3    H224062   6.510   5.485   8.158 -0.9927  1.8028  1.5068
  835TIP3   OH224063   0.073   4.834   1.453 -0.4789  0.3808 -0.1730
  835TIP3    H124064   0.133   4.800   1.386 -1.3401  1.1623 -1.3820
  835TIP3    H224065   0.113   4.916   1.482 -0.8920  0.8527 -0.9083
  836TIP3   OH224066   3.901   3.156   6.789  0.0637 -0.3828 -0.1140
  836TIP3    H124067   3.987   3.181   6.754 -0.1769  0.5655 -0.0591
  836TIP3    H224068   3.843   3.157   6.713 -0.3790  1.3021  0.2095
  837TIP3   OH224069   5.717   4.651   8.261  0.3805 -0.3505  0.3281
  837TIP3    H124070   5.673   4.567   8.274  2.1597 -1.3446  0.1696
  837TIP3    H224071   5.655   4.716   8.294 -1.0807 -1.7012  0.3450
  838TIP3   OH224072   5.433   4.487   7.442  0.2566  0.9037  0.6186
  838TIP3    H124073   5.370   4.457   7.508 -0.0310  0.7256  0.2698
  838TIP3    H224074   5.512   4.437   7.460 -0.0996  0.1904  0.2826
  839TIP3   OH224075   0.430   0.046   2.117  0.2084  0.0019  0.0638
  839TIP3    H124076   0.429  -0.044   2.152  0.6376 -0.3189 -0.7360
  839TIP3    H224077   0.520   0.076   2.129 -0.0611  0.5357  0.8278
  840TIP3   OH224078   1.759   5.936   1.792 -0.1743 -0.0139  0.0793
  840TIP3    H124079   1.685   5.885   1.826  0.9050 -1.2484  0.6603
  840TIP3    H224080   1.814   5.953   1.868  0.2375  0.7469 -0.3754
  841TIP3   OH224081   1.614   5.407   6.328  0.2951  0.0121  0.2684
  841TIP3    H124082   1.619   5.394   6.234 -1.7093 -0.3461  0.1605
  841TIP3    H224083   1.556   5.338   6.359  0.6177  0.3535  1.7153
  842TIP3   OH224084   3.512   5.309   8.304  0.0116 -0.3349 -0.3082
  842TIP3    H124085   3.476   5.229   8.340 -0.6340 -1.7389 -3.7128
  842TIP3    H224086   3.471   5.379   8.356 -0.1906 -2.0857  2.0814
  843TIP3   OH224087   5.936   2.537   7.678 -0.6534 -0.3080  0.5666
  843TIP3    H124088   5.983   2.591   7.742  0.8890 -1.6949  0.6771
  843TIP3    H224089   5.904   2.599   7.613  1.1144  0.7445  0.6332
  844TIP3   OH224090   1.963   4.138   0.596 -0.3704  0.2917 -0.2540
  844TIP3    H124091   1.994   4.080   0.666  0.7714  0.8968 -0.2189
  844TIP3    H224092   1.986   4.093   0.515  1.0696  0.9209 -0.2324
  845TIP3   OH224093   6.410   4.646   2.264 -0.2087 -0.2141  0.0131
  845TIP3    H124094   6.413   4.736   2.298 -1.6793  0.2888 -1.1322
  845TIP3    H224095   6.494   4.609   2.291  0.7784  1.7457 -0.1490
  846TIP3   OH224096   3.075   5.484   1.855 -0.2174 -0.3934 -0.6317
  846TIP3    H124097   3.099   5.399   1.893 -0.7792 -0.8158 -1.2027
  846TIP3    H224098   3.147   5.542   1.879 -0.3700 -0.7425  0.7465
  847TIP3   OH224099   1.662   3.544   8.348 -0.2988 -0.6370  0.1333
  847TIP3    H124100   1.718   3.551   8.270 -2.7364  0.6046 -1.6681
  847TIP3    H224101   1.647   3.450   8.359 -1.6213 -0.8190 -2.3444
  848TIP3   OH224102   6.646   6.815   0.666  0.4030  0.2459 -0.1093
  848TIP3    H124103   6.718   6.767   0.624  0.2305 -1.3968  1.3592
  848TIP3    H224104   6.678   6.905   0.672  1.6785 -0.1165 -0.9130
  849TIP3   OH224105   0.514   6.807   8.447  0.0392 -0.2904 -0.4702
  849TIP3    H124106   0.520   6.770   8.535 -0.5784 -0.8312 -0.6518
  849TIP3    H224107   0.476   6.894   8.460 -0.0395 -0.3637 -0.2023
  850TIP3   OH224108   2.973   2.766   8.220 -0.2157  0.4138 -0.1534
  850TIP3    H124109   2.907   2.755   8.288 -2.4623 -1.1106 -2.4407
  850TIP3    H224110   2.998   2.676   8.197 -1.0636  0.7700 -2.7085
  851TIP3   OH224111   1.595   2.052   1.352  0.6037 -0.2351 -0.3970
  851TIP3    H124112   1.646   2.033   1.430  1.5355  0.4148 -0.8353
  851TIP3    H224113   1.658   2.086   1.289 -0.6062  2.1811 -0.4254
  852TIP3   OH224114   0.835   1.689   0.298 -0.1999 -0.3078  0.5434
  852TIP3    H124115   0.776   1.626   0.339 -0.4682 -0.3476  0.1056
  852TIP3    H224116   0.869   1.741   0.370 -0.0999 -0.8477  0.8969
  853TIP3   OH224117   0.546   1.057   0.860 -0.3234  0.5967 -0.0949
  853TIP3    H124118   0.619   1.019   0.812  0.0561  0.0143  0.9165
  853TIP3    H224119   0.485   1.086   0.792 -0.6766 -1.8914 -0.9198
  854TIP3   OH224120   3.515   5.899   2.026  0.0397 -0.3841 -0.5608
  854TIP3    H124121   3.605   5.929   2.042 -0.4647  1.5456 -1.0907
  854TIP3    H224122   3.524   5.805   2.006  1.8991 -0.2795 -0.3849
  855TIP3   OH224123   6.578   6.306   0.369  0.1308  0.1875 -0.3554
  855TIP3    H124124   6.662   6.275   0.403  0.2178  1.8824  1.1208
  855TIP3    H224125   6.600   6.341   0.282  1.1038  1.1489  0.2498
  856TIP3   OH224126   6.533   3.388   6.849  0.5438 -0.6244 -0.7146
  856TIP3    H124127   6.626   3.395   6.830  0.2479 -0.5766 -2.3371
  856TIP3    H224128   6.496   3.341   6.773 -0.8171 -0.1715 -0.3734
  857TIP3   OH224129   4.942   3.799   7.429 -0.2440  0.3371 -0.2189
  857TIP3    H124130   4.914   3.889   7.443 -1.0040  0.2281 -0.9418
  857TIP3    H224131   5.030   3.806   7.393  0.1276  0.7403  0.7195
  858TIP3   OH224132   2.116   2.314   0.696 -0.3542  0.0044 -0.5183
  858TIP3    H124133   2.176   2.364   0.641 -1.4727  0.9759 -0.8940
  858TIP3    H224134   2.028   2.338   0.665 -1.1837  2.1756  2.8934
  859TIP3   OH224135   3.242   4.254   0.793 -0.9554 -0.4175 -0.4764
  859TIP3    H124136   3.302   4.243   0.867 -0.4724  0.5990 -0.6995
  859TIP3    H224137   3.297   4.240   0.715 -1.1906 -0.3169 -0.6625
  860TIP3   OH224138   5.001   6.733   1.319  0.6637 -0.3890  0.4597
  860TIP3    H124139   5.008   6.639   1.305 -1.4127 -0.2234 -2.9858
  860TIP3    H224140   5.065   6.771   1.258  2.2538  0.5364  2.5630
  861TIP3   OH224141   0.070   6.522   1.489  0.3254  0.2083  0.2968
  861TIP3    H124142   0.038   6.609   1.511  1.4811  0.8413 -0.4255
  861TIP3    H224143  -0.006   6.465   1.498 -0.6117  1.3998  0.0999
  862TIP3   OH224144   0.023   6.854   0.099 -0.4943 -0.5105  0.3703
  862TIP3    H124145  -0.056   6.900   0.068  0.2905  1.1403  0.7122
  862TIP3    H224146   0.081   6.924   0.129  1.0918 -1.7050  0.1902
  863TIP3   OH224147   3.345   2.250   6.335 -0.5674 -0.1317 -0.3544
  863TIP3    H124148   3.311   2.190   6.269  0.9754 -0.9336 -0.4719
  863TIP3    H224149   3.385   2.192   6.401 -2.0137  0.6379  1.2891
  864TIP3   OH224150   2.184   1.597   8.121  0.2577  0.2980  0.0813
  864TIP3    H124151   2.205   1.656   8.049  1.9404  1.2866  1.3054
  864TIP3    H224152   2.241   1.521   8.107 -0.6849 -0.3106 -0.5610
  865TIP3   OH224153   2.320   1.588   7.073 -0.4552 -0.4673  0.4483
  865TIP3    H124154   2.319   1.684   7.080 -1.0317 -0.4233 -0.1686
  865TIP3    H224155   2.410   1.568   7.048 -0.1307 -0.1460  1.3297
  866TIP3   OH224156   6.764   1.098   2.089 -0.0512 -0.2726 -0.4175
  866TIP3    H124157   6.741   1.059   2.173 -0.3306 -0.3212 -0.5134
  866TIP3    H224158   6.709   1.177   2.084  1.1281  0.6084  0.1556
  867TIP3   OH224159   3.407   2.397   6.926 -0.0052  0.1357 -0.6136
  867TIP3    H124160   3.396   2.338   7.001 -0.8446 -0.9992 -1.5907
  867TIP3    H224161   3.319   2.407   6.890  0.6569 -1.0925 -2.7232
  868TIP3   OH224162   2.323   4.862   0.046  0.1733  0.4511 -0.2081
  868TIP3    H124163   2.377   4.937   0.074 -1.5083  1.9378 -0.7558
  868TIP3    H224164   2.356   4.841  -0.041 -0.9603  2.2677 -1.1374
  869TIP3   OH224165   1.615   3.825   1.074  0.4830  0.1823 -0.0685
  869TIP3    H124166   1.551   3.754   1.085 -2.4737  2.1614 -2.6869
  869TIP3    H224167   1.694   3.780   1.043 -0.4547 -2.1740  0.6894
  870TIP3   OH224168   5.753   5.713   1.242  0.2289 -0.3233 -0.1178
  870TIP3    H124169   5.823   5.742   1.184  0.9264 -2.4611 -0.4081
  870TIP3    H224170   5.672   5.732   1.193  0.7710 -1.2985 -1.4386
  871TIP3   OH224171   2.053   6.765   1.691 -0.1639  0.8775  0.0591
  871TIP3    H124172   2.010   6.726   1.767 -1.1701  0.2778 -0.8042
  871TIP3    H224173   2.094   6.845   1.725  1.7174 -0.7270  1.8109
  872TIP3   OH224174   1.037   0.891   0.464  0.2021 -0.1916 -0.0740
  872TIP3    H124175   1.006   0.836   0.537  0.2296  1.3422  1.1418
  872TIP3    H224176   1.099   0.952   0.504 -1.0672  1.8232 -1.0156
  873TIP3   OH224177   6.312   1.496   0.221  0.3532  0.1447 -0.9020
  873TIP3    H124178   6.331   1.589   0.215 -1.0928  0.5718  0.4733
  873TIP3    H224179   6.273   1.474   0.137 -1.5773  1.3783 -0.3778
  874TIP3   OH224180   0.269   4.469   1.016 -0.0408  0.5766 -0.1185
  874TIP3    H124181   0.273   4.518   1.098  0.3311 -0.3139  0.4155
  874TIP3    H224182   0.310   4.527   0.951  1.2399  0.6226  0.6897
  875TIP3   OH224183   5.178   6.255   0.728 -0.6161 -0.4806  0.5689
  875TIP3    H124184   5.241   6.224   0.793 -0.6213  0.3203  0.9818
  875TIP3    H224185   5.230   6.309   0.668 -1.0490  1.1961  1.6063
  876TIP3   OH224186   4.889   0.721   0.340  0.1272 -0.5682 -0.1666
  876TIP3    H124187   4.966   0.712   0.395  0.7333 -1.2112 -1.1085
  876TIP3    H224188   4.915   0.784   0.273 -0.6441  0.2967  0.3198
  877TIP3   OH224189   1.487   3.089   1.020  0.9472  0.0433 -0.2213
  877TIP3    H124190   1.501   3.061   1.110  2.0001 -0.2450 -0.4633
  877TIP3    H224191   1.402   3.134   1.021  0.9345  0.0015  0.8938
  878TIP3   OH224192   6.443   1.328   6.935 -0.2314 -0.2963  0.1537
  878TIP3    H124193   6.456   1.404   6.992  2.1509 -0.2167 -0.4125
  878TIP3    H224194   6.471   1.253   6.988 -4.0072 -1.1301  1.2789
  879TIP3   OH224195   1.725   6.090   1.585  0.5594 -0.7271  0.5239
  879TIP3    H124196   1.707   6.036   1.509  0.3894 -1.3811  1.0235
  879TIP3    H224197   1.769   6.032   1.647  2.0577  0.1623  0.3616
  880TIP3   OH224198   3.901   0.303   0.067 -0.0597  0.1916 -0.1030
  880TIP3    H124199   3.962   0.375   0.055 -1.7018  1.4074 -1.5807
  880TIP3    H224200   3.918   0.244  -0.007  0.4302 -0.3283  0.4120
  881TIP3   OH224201   2.065   0.093   8.168  0.5948 -0.0036  0.3503
  881TIP3    H124202   2.000   0.059   8.106  1.4688 -0.0516 -0.5733
  881TIP3    H224203   2.046   0.049   8.250  1.7173 -2.8658 -0.7936
  882TIP3   OH224204   4.489   6.136   0.638 -0.3395 -0.1748  0.3760
  882TIP3    H124205   4.518   6.224   0.662  0.9497 -0.6347  0.5927
  882TIP3    H224206   4.413   6.119   0.692  0.2099  0.2982  1.3131
  883TIP3   OH224207   1.218   2.030   6.880  0.5760 -0.3794 -0.0987
  883TIP3    H124208   1.267   1.999   6.804  0.5780  0.9749 -0.6613
  883TIP3    H224209   1.285   2.057   6.942  0.5573 -0.6639  0.0506
  884TIP3   OH224210   6.046   2.463   6.447  0.0159 -0.2855  0.3071
  884TIP3    H124211   6.062   2.403   6.520  0.3583 -1.2710 -0.5423
  884TIP3    H224212   6.045   2.406   6.370 -1.5637  0.5478 -0.3450
  885TIP3   OH224213   4.669   6.041   7.119 -0.1498  0.5161  0.1024
  885TIP3    H124214   4.612   6.114   7.142 -1.2584 -0.5778  0.9810
  885TIP3    H224215   4.742   6.047   7.181 -1.3561 -0.3552  1.6854
  886TIP3   OH224216   1.269   4.754   1.261 -0.3499 -0.0108 -0.3646
  886TIP3    H124217   1.198   4.697   1.291 -0.0114  0.5249  1.5993
  886TIP3    H224218   1.226   4.820   1.207 -1.0358 -0.8705 -0.9028
  887TIP3   OH224219   2.653   1.386   1.035 -0.2758  0.1137 -0.1537
  887TIP3    H124220   2.745   1.406   1.014  0.3490 -0.8524  1.5229
  887TIP3    H224221   2.625   1.326   0.966  0.8615 -0.8278  0.1767
  888TIP3   OH224222   3.871   4.034   1.455  0.1898 -0.5010  0.2230
  888TIP3    H124223   3.892   4.049   1.547 -1.0311  0.5152  0.3565
  888TIP3    H224224   3.948   4.064   1.408  0.8284 -1.0301  0.8971
  889TIP3   OH224225   4.037   5.636   6.299  0.3398 -0.3108 -0.1652
  889TIP3    H124226   3.982   5.714   6.289 -0.6058 -0.8758  0.4615
  889TIP3    H224227   4.002   5.573   6.236 -1.0047 -1.3345  1.4984
  890TIP3   OH224228   1.118   1.041   0.815 -0.0188 -0.2922  0.0328
  890TIP3    H124229   1.126   1.124   0.863  0.3241  0.3804 -1.1284
  890TIP3    H224230   1.056   0.990   0.865 -0.4603  0.7956  0.6326
  891TIP3   OH224231   4.397   2.511   6.211  0.0210 -0.3888 -0.0825
  891TIP3    H124232   4.450   2.549   6.141  0.0681 -0.2680  0.0180
  891TIP3    H224233   4.352   2.438   6.170  0.2649 -0.4919 -0.1702
  892TIP3   OH224234   3.019   0.506   0.853  0.1010 -0.3771 -0.4582
  892TIP3    H124235   3.062   0.568   0.794  1.0435 -2.4041 -2.0554
  892TIP3    H224236   3.048   0.532   0.940 -1.2575  2.6556 -0.7931
  893TIP3   OH224237   6.793   2.043   6.185  0.0668 -0.1270  0.2309
  893TIP3    H124238   6.869   1.989   6.162  0.7205  1.4118 -1.5007
  893TIP3    H224239   6.719   1.982   6.186  0.9587 -1.2566 -0.5289
  894TIP3   OH224240   3.901   2.884   8.017  0.0612  0.0634  0.1307
  894TIP3    H124241   3.949   2.942   7.957 -0.5154 -0.4845 -0.8931
  894TIP3    H224242   3.904   2.929   8.101 -0.6664  1.7511 -0.7071
  895TIP3   OH224243   1.195   0.397   0.863 -0.8293  0.1345 -0.0791
  895TIP3    H124244   1.133   0.346   0.915 -1.1013 -1.0881 -1.4976
  895TIP3    H224245   1.260   0.333   0.834  0.7709  1.2768  0.8650
  896TIP3   OH224246   1.520   6.459   1.103 -0.0259  0.2992 -0.3659
  896TIP3    H124247   1.511   6.424   1.014 -1.1491  2.0860 -1.0105
  896TIP3    H224248   1.449   6.418   1.152 -0.4459  0.5678 -0.7383
  897TIP3   OH224249   1.733   3.277   8.341  0.4054  0.0411 -0.3800
  897TIP3    H124250   1.689   3.215   8.399  0.6452 -0.0709 -0.3156
  897TIP3    H224251   1.746   3.230   8.259 -1.0882  0.6123 -0.9797
  898TIP3   OH224252   2.067   0.804   6.257 -0.3745 -0.1518 -0.5924
  898TIP3    H124253   2.029   0.741   6.319  1.8879  1.1266  2.3877
  898TIP3    H224254   2.154   0.770   6.239  0.5727  1.5600  0.4026
  899TIP3   OH224255   4.640   3.372   0.050  0.7337 -0.0428 -0.2217
  899TIP3    H124256   4.724   3.413   0.026  0.9341 -0.3826 -0.1047
  899TIP3    H224257   4.616   3.413   0.133  0.7779  0.0608 -0.2593
  900TIP3   OH224258   5.304   0.002   6.182  0.2823  0.0200 -0.1699
  900TIP3    H124259   5.242   0.044   6.242  1.4746 -1.9361  2.6161
  900TIP3    H224260   5.339   0.074   6.130 -0.6546  1.8874  1.6490
  901TIP3   OH224261   2.088   2.759   0.372 -0.9299  0.2844 -0.5330
  901TIP3    H124262   2.129   2.675   0.352 -1.9447 -0.4603  0.3872
  901TIP3    H224263   2.160   2.822   0.367  0.6170 -1.0832  1.9724
  902TIP3   OH224264   2.826   0.929   0.771 -0.0244 -0.3204 -0.2891
  902TIP3    H124265   2.888   0.976   0.715 -0.4213  1.3151  0.5694
  902TIP3    H224266   2.763   0.996   0.799 -1.5125 -1.6872 -0.1928
  903TIP3   OH224267   4.028   2.751   0.302 -0.7457 -0.3570  0.6607
  903TIP3    H124268   4.002   2.834   0.342 -0.6295 -0.4078  0.8438
  903TIP3    H224269   3.946   2.712   0.272 -0.7480  0.0775  0.0757
  904TIP3   OH224270   4.263   5.498   2.080 -0.8504 -0.2138 -0.0039
  904TIP3    H124271   4.331   5.496   2.013 -0.3547  0.3383  0.4617
  904TIP3    H224272   4.214   5.578   2.062 -1.1104 -0.3940 -0.0890
  905TIP3   OH224273   5.890   6.462   7.307 -0.8186  0.3104 -0.1120
  905TIP3    H124274   5.815   6.520   7.322 -0.3260  1.1925 -0.9495
  905TIP3    H224275   5.876   6.389   7.368 -1.5173  1.2381  0.8880
  906TIP3   OH224276   2.138   5.731   0.323 -0.3564  0.7747 -0.3081
  906TIP3    H124277   2.067   5.775   0.370 -1.1056 -0.5092 -0.1692
  906TIP3    H224278   2.207   5.797   0.315 -0.4899  1.2746  1.9365
  907TIP3   OH224279   4.893   2.670   6.410 -0.4835 -0.0836 -0.0715
  907TIP3    H124280   4.854   2.635   6.491  1.7326  0.1979  1.2133
  907TIP3    H224281   4.934   2.594   6.369  0.2383  0.1516  0.2080
  908TIP3   OH224282   0.031   1.868   6.444 -0.4980 -0.2511 -0.8122
  908TIP3    H124283   0.053   1.881   6.352  0.5695  1.0624 -0.3993
  908TIP3    H224284   0.110   1.891   6.492 -1.0057 -0.9907  0.4477
  909TIP3   OH224285   6.500   4.648   0.185 -0.1443  0.4983  0.2669
  909TIP3    H124286   6.463   4.675   0.101 -2.9574  0.8770  1.5333
  909TIP3    H224287   6.425   4.628   0.240  1.5740  0.5798  2.8377
  910TIP3   OH224288   0.848   3.673   8.306 -0.1408 -0.3920 -0.1057
  910TIP3    H124289   0.845   3.612   8.380 -2.3322 -0.7766 -0.4365
  910TIP3    H224290   0.758   3.677   8.274 -0.0780  2.8852 -0.2527
  911TIP3   OH224291   6.871   0.972   1.884 -0.0471 -0.3456 -0.0621
  911TIP3    H124292   6.901   0.887   1.915  0.0482 -0.1250  0.4611
  911TIP3    H224293   6.855   1.022   1.964  1.0880  0.5505 -0.3722
  912TIP3   OH224294   3.107   2.487   6.388  0.1601 -0.1192  0.0491
  912TIP3    H124295   3.185   2.475   6.442  1.1028 -1.2648 -1.4821
  912TIP3    H224296   3.044   2.424   6.423 -0.2016  0.9940  1.4576
  913TIP3   OH224297   0.991   0.772   6.182  0.0434  0.4402  0.3667
  913TIP3    H124298   0.908   0.819   6.183 -1.2279 -1.5179  3.4100
  913TIP3    H224299   0.968   0.684   6.213  3.1402 -0.4140  0.5103
  914TIP3   OH224300   5.902   6.823   8.552  0.1872  0.3728 -0.0702
  914TIP3    H124301   5.977   6.883   8.549  1.8638 -1.6274 -0.0103
  914TIP3    H224302   5.830   6.873   8.513  1.5732  2.3071 -0.2851
  915TIP3   OH224303   2.994   6.731   7.614 -0.5757 -0.6736 -0.0802
  915TIP3    H124304   2.912   6.681   7.608  0.8330 -3.3795  1.1594
  915TIP3    H224305   3.060   6.671   7.579  1.4970 -0.4539  3.0878
  916TIP3   OH224306   3.171   5.771   6.316 -0.1454 -0.9265 -0.1092
  916TIP3    H124307   3.225   5.845   6.346  0.3874 -1.7990  1.1958
  916TIP3    H224308   3.226   5.725   6.252 -0.0906 -0.7336 -0.2002
  917TIP3   OH224309   5.631   1.876   8.558 -0.2213  0.0372  0.0178
  917TIP3    H124310   5.641   1.828   8.476  1.0512  2.3174 -1.2614
  917TIP3    H224311   5.572   1.948   8.537 -0.1966  0.4303  1.2165
  918TIP3   OH224312   0.611   5.296   5.850  1.0421  0.5233  0.3238
  918TIP3    H124313   0.544   5.354   5.814 -0.1074 -2.3332 -2.6124
  918TIP3    H224314   0.564   5.243   5.915  1.0170  0.0633 -0.0656
  919TIP3   OH224315   3.532   4.930   0.349  0.9066 -0.0105  0.3987
  919TIP3    H124316   3.506   4.845   0.383  0.8469 -0.2695 -0.2903
  919TIP3    H224317   3.466   4.991   0.385  0.9430 -0.2462  0.8792
  920TIP3   OH224318   1.071   5.365   7.645  0.0163  0.1327 -0.2111
  920TIP3    H124319   1.119   5.333   7.721 -1.0725  0.8794  0.8279
  920TIP3    H224320   1.044   5.286   7.598 -0.1112 -0.3810  0.7017
  921TIP3   OH224321   1.502   1.034   8.388 -0.0181 -0.0123  0.1420
  921TIP3    H124322   1.506   1.071   8.476 -1.0698  0.6805 -0.0839
  921TIP3    H224323   1.412   1.003   8.380 -0.7780  2.3432 -1.6059
  922TIP3   OH224324   6.734   4.193   6.984 -0.3518  0.0436  0.4145
  922TIP3    H124325   6.820   4.185   6.943 -0.2199  0.0898  0.6818
  922TIP3    H224326   6.675   4.148   6.924  0.0567 -1.1398  0.8685
  923TIP3   OH224327   3.073   3.615   7.444 -0.1929 -0.7332  0.1167
  923TIP3    H124328   2.986   3.586   7.416  0.1598 -1.5744 -0.1317
  923TIP3    H224329   3.134   3.557   7.397  0.4581 -1.4612  1.7842
  924TIP3   OH224330   0.529   0.449   6.635  0.2515  0.0398 -0.1192
  924TIP3    H124331   0.527   0.502   6.555 -0.7863 -0.4407 -0.4332
  924TIP3    H224332   0.472   0.496   6.696 -0.6362 -0.6530 -0.3839
  925TIP3   OH224333   1.453   6.157   1.049 -0.3987  0.4029 -0.1661
  925TIP3    H124334   1.532   6.198   1.084  0.0738  1.0767 -1.9211
  925TIP3    H224335   1.484   6.087   0.993 -1.0483  0.5942 -0.7808
  926TIP3   OH224336   1.303   5.242   0.797 -0.2015 -0.4211  0.3655
  926TIP3    H124337   1.322   5.169   0.739 -2.6374 -0.9802  0.1708
  926TIP3    H224338   1.211   5.231   0.821 -0.2133  1.7086  1.5861
  927TIP3   OH224339   0.519   4.053   6.910  0.0448  0.0575 -0.1936
  927TIP3    H124340   0.477   3.991   6.970  0.1867  0.6177  0.4921
  927TIP3    H224341   0.447   4.092   6.860  0.0128 -1.2846 -1.2674
  928TIP3   OH224342   4.637   3.965   1.008 -0.1394  0.0553  0.2525
  928TIP3    H124343   4.648   4.053   1.044 -0.9762  0.4305 -0.3968
  928TIP3    H224344   4.594   3.916   1.078  1.5832 -0.2550  1.1647
  929TIP3   OH224345   5.370   2.403   7.203  0.3990 -0.0265 -0.5162
  929TIP3    H124346   5.278   2.388   7.183  0.2399  0.3740 -0.1017
  929TIP3    H224347   5.398   2.469   7.140  1.0204 -1.7413 -2.1417
  930TIP3   OH224348   5.515   1.931   0.376 -0.0578  0.0026  0.3280
  930TIP3    H124349   5.468   1.881   0.310 -1.1581  0.9403  0.3685
  930TIP3    H224350   5.518   1.873   0.452 -1.7951  0.1534  0.5566
  931TIP3   OH224351   4.497   3.230   2.464 -0.1900  0.3034  0.1500
  931TIP3    H124352   4.593   3.235   2.471 -0.2251  0.8719  0.2260
  931TIP3    H224353   4.479   3.136   2.459  0.2218  0.0473  2.3158
  932TIP3   OH224354   4.724   4.875   6.392 -0.1241 -0.3667  0.0184
  932TIP3    H124355   4.770   4.855   6.310  3.5193 -0.7187  1.9023
  932TIP3    H224356   4.717   4.791   6.437  1.2975  0.2375  1.5105
  933TIP3   OH224357   5.524   1.764   0.614  0.0741  0.0522 -0.0988
  933TIP3    H124358   5.435   1.758   0.580  0.8400 -0.8315 -2.0476
  933TIP3    H224359   5.514   1.812   0.696 -2.3572 -1.1877  0.4302
  934TIP3   OH224360   6.005   4.355   7.811 -0.2837 -0.1330  0.3660
  934TIP3    H124361   5.970   4.266   7.808 -0.9341  0.1389 -0.5498
  934TIP3    H224362   6.100   4.344   7.803 -0.3192 -0.7594  0.7078
  935TIP3   OH224363   1.261   4.706   6.851  0.1945  0.6592 -0.4192
  935TIP3    H124364   1.278   4.673   6.939 -0.7954  0.7274 -0.1879
  935TIP3    H224365   1.313   4.651   6.793 -0.8331 -0.8379  0.0209
  936TIP3   OH224366   3.079   4.288   1.264 -0.5069  0.0070  0.0223
  936TIP3    H124367   3.105   4.233   1.191  1.6030  0.9622 -0.0253
  936TIP3    H224368   2.988   4.265   1.281 -0.5617 -1.3550 -1.8692
  937TIP3   OH224369   2.219   0.799   0.075  0.0280 -0.5187 -0.1160
  937TIP3    H124370   2.165   0.722   0.093  1.5223 -1.7589 -0.7468
  937TIP3    H224371   2.283   0.801   0.146 -0.4497  0.5949  0.3063
  938TIP3   OH224372   6.054   4.694   0.559  0.0458 -0.1453 -0.0827
  938TIP3    H124373   6.091   4.725   0.642 -0.4179 -0.1540  0.1267
  938TIP3    H224374   6.011   4.770   0.522 -0.3125 -0.3040  0.0002
  939TIP3   OH224375   3.054   3.403   0.287 -0.0446  0.8910  0.9678
  939TIP3    H124376   3.143   3.401   0.321  1.1927  1.8511 -1.8944
  939TIP3    H224377   3.054   3.340   0.215 -1.6653  0.9765  0.8517
  940TIP3   OH224378   0.534   5.614   6.040  0.5094 -0.5268  0.9624
  940TIP3    H124379   0.547   5.525   6.007  0.1460 -0.7199  1.3319
  940TIP3    H224380   0.458   5.647   5.992  1.1249 -0.1208  0.2469
  941TIP3   OH224381   1.919   5.048   0.361  0.4261 -0.1502 -0.4094
  941TIP3    H124382   1.859   4.978   0.388 -0.4109  0.7295  0.0912
  941TIP3    H224383   1.993   5.002   0.321  0.1384 -1.3369  0.3608
  942TIP3   OH224384   3.269   1.036   1.964  0.3657 -0.1921  0.4152
  942TIP3    H124385   3.189   1.044   2.015  0.8184  0.8358  0.9882
  942TIP3    H224386   3.298   1.126   1.951  1.3935 -0.5505  0.1697
  943TIP3   OH224387   3.155   6.281   1.028  0.1670  0.2733  0.0388
  943TIP3    H124388   3.230   6.340   1.014 -0.8396  1.5019 -0.3794
  943TIP3    H224389   3.136   6.244   0.942 -1.9233  2.7822 -0.7087
  944TIP3   OH224390   4.161   2.675   1.098 -0.3319 -0.1318 -0.3790
  944TIP3    H124391   4.174   2.738   1.027 -2.0078  1.9152  1.0219
  944TIP3    H224392   4.214   2.709   1.170 -0.3495 -0.9695  0.0398
  945TIP3   OH224393   3.184   1.976   8.482  0.0235  0.3832 -0.4444
  945TIP3    H124394   3.182   1.979   8.387 -0.0260  0.1003 -0.4551
  945TIP3    H224395   3.272   1.946   8.503 -0.2561 -0.4757 -0.4368
  946TIP3   OH224396   1.248   3.100   1.511  0.4377 -0.1478 -0.4455
  946TIP3    H124397   1.246   3.074   1.418  0.3870 -1.3001 -0.1355
  946TIP3    H224398   1.250   3.196   1.509 -2.2262 -0.0448 -1.5945
  947TIP3   OH224399   6.238   4.435   7.249 -0.0092  0.4855 -0.3182
  947TIP3    H124400   6.294   4.362   7.274 -1.0104  0.0442  0.7130
  947TIP3    H224401   6.190   4.457   7.329 -1.5576  0.6060 -1.2339
  948TIP3   OH224402   6.886   6.132   0.144 -0.1023 -0.3215 -0.1573
  948TIP3    H124403   6.838   6.089   0.214 -1.4234  0.7086 -0.3908
  948TIP3    H224404   6.967   6.161   0.185 -0.5268 -0.3888  0.7528
  949TIP3   OH224405   1.067   0.673   6.943  0.0219 -0.3300  0.4880
  949TIP3    H124406   1.147   0.648   6.897 -1.0582 -0.6911 -1.3025
  949TIP3    H224407   1.077   0.767   6.958  0.1184 -0.0205 -1.2252
  950TIP3   OH224408   4.690   1.364   1.123  0.3195  0.0392  0.2252
  950TIP3    H124409   4.682   1.278   1.082  1.1548  1.0433 -2.2181
  950TIP3    H224410   4.617   1.368   1.185  0.6569 -2.6472  0.8996
  951TIP3   OH224411   2.830   0.942   0.119 -0.2363  0.1916 -0.2774
  951TIP3    H124412   2.865   1.002   0.185 -2.4889  0.7108  0.5262
  951TIP3    H224413   2.758   0.990   0.078 -0.4175 -1.0115 -1.4679
  952TIP3   OH224414   5.813   3.589   1.622 -0.3349  0.2616  0.4737
  952TIP3    H124415   5.727   3.588   1.663 -0.1326 -0.4588  0.9011
  952TIP3    H224416   5.812   3.516   1.561 -1.0533  2.0323 -1.7454
  953TIP3   OH224417   1.974   4.759   6.303 -0.0592  0.4156 -0.1396
  953TIP3    H124418   1.913   4.695   6.338  0.9482 -0.5963 -0.1493
  953TIP3    H224419   1.922   4.838   6.288 -1.3784 -0.4771 -0.3479
  954TIP3   OH224420   3.297   2.862   0.098  0.4757  0.1585 -0.3636
  954TIP3    H124421   3.289   2.785   0.153  1.0221  0.6260  0.3914
  954TIP3    H224422   3.213   2.869   0.053 -0.2705  0.1945  0.9824
  955TIP3   OH224423   5.564   4.203   0.349 -0.0142 -0.2797 -0.5011
  955TIP3    H124424   5.608   4.262   0.411 -1.4347  0.4384 -0.1107
  955TIP3    H224425   5.529   4.133   0.404 -0.5641 -0.0781 -0.5811
  956TIP3   OH224426   6.157   3.435   7.492 -0.2568  0.0754  0.1483
  956TIP3    H124427   6.141   3.454   7.585 -1.7015 -0.6065  0.0708
  956TIP3    H224428   6.248   3.407   7.489 -0.5321 -1.1587  1.6063
  957TIP3   OH224429   1.228   2.195   7.450  0.1673  0.1110 -0.2740
  957TIP3    H124430   1.190   2.138   7.516 -1.2386  0.7612 -0.5031
  957TIP3    H224431   1.262   2.270   7.499 -0.0844  0.1826 -0.2120
  958TIP3   OH224432   0.295   4.811   0.734 -0.2193 -0.0326 -0.2846
  958TIP3    H124433   0.238   4.883   0.761  0.6731  1.1207 -1.3699
  958TIP3    H224434   0.236   4.746   0.697 -1.1922 -0.5384  2.0076
  959TIP3   OH224435   6.379   3.273   1.559  0.4897 -0.4121  0.8850
  959TIP3    H124436   6.467   3.235   1.562  0.1382 -1.5224 -0.9353
  959TIP3    H224437   6.323   3.205   1.597  0.2538 -0.3221  0.6991
  960TIP3   OH224438   3.929   5.646   0.366 -0.4108  0.2761  0.3432
  960TIP3    H124439   3.869   5.588   0.413  0.2944 -1.0793 -0.3800
  960TIP3    H224440   4.006   5.651   0.422 -0.7374  1.1247  0.7425
  961TIP3   OH224441   2.547   1.572   1.208 -0.5887  0.3627  0.6510
  961TIP3    H124442   2.536   1.536   1.296 -1.3067 -0.6935  0.1468
  961TIP3    H224443   2.598   1.506   1.161 -2.3894 -0.3364 -0.4414
  962TIP3   OH224444   3.989   3.799   1.264  0.2709  0.5585 -0.2697
  962TIP3    H124445   4.016   3.719   1.218 -0.6595  0.4558 -0.6510
  962TIP3    H224446   3.960   3.768   1.349 -1.1330  0.3341 -0.8050
  963TIP3   OH224447   6.599   0.766   0.243  0.2028  0.5649  0.4055
  963TIP3    H124448   6.598   0.848   0.192  0.7476  1.7963  2.2620
  963TIP3    H224449   6.514   0.765   0.288  0.9331  1.1742  1.8926
  964TIP3   OH224450   4.353   0.092   0.002 -0.3321  0.6304 -0.4956
  964TIP3    H124451   4.340   0.052  -0.084  0.9639  1.2652 -1.0203
  964TIP3    H224452   4.276   0.068   0.052  0.2237 -2.3080 -0.8651
  965TIP3   OH224453   2.264   6.581   1.253  0.4972  0.0301  0.8218
  965TIP3    H124454   2.203   6.608   1.322  1.5474  2.5572  0.8942
  965TIP3    H224455   2.336   6.538   1.299 -0.3311 -1.3201  0.9106
  966TIP3   OH224456   4.138   6.016   0.920  0.7360 -0.0884 -0.0371
  966TIP3    H124457   4.176   6.078   0.859 -0.5561  1.3961  0.5869
  966TIP3    H224458   4.201   5.944   0.924  1.5953  0.4928 -1.8829
  967TIP3   OH224459   2.583   0.758   8.137 -0.0770 -0.1199  0.3712
  967TIP3    H124460   2.588   0.675   8.185  0.3701  0.2743  1.0232
  967TIP3    H224461   2.573   0.732   8.045  0.1198 -0.8959  0.5606
  968TIP3   OH224462   2.447   1.622   2.109  0.6678  0.2786 -0.0411
  968TIP3    H124463   2.400   1.703   2.131  0.8260  0.1780  0.7141
  968TIP3    H224464   2.388   1.576   2.049  0.6116  0.9861 -0.5339
  969TIP3   OH224465   1.818   5.352   1.724 -0.8002 -0.0518  0.3777
  969TIP3    H124466   1.907   5.382   1.702 -0.9089  0.5214  0.6930
  969TIP3    H224467   1.761   5.413   1.678 -1.0285  0.1872  0.9741
  970TIP3   OH224468   5.163   2.703   6.242  0.0218 -0.4402  0.7801
  970TIP3    H124469   5.166   2.670   6.152 -0.7568  1.2962  0.0891
  970TIP3    H224470   5.070   2.706   6.265  0.0034  1.6464  0.6326
  971TIP3   OH224471   2.389   6.083   8.532 -0.1804  0.1520 -0.1623
  971TIP3    H124472   2.331   6.159   8.538  0.8607  0.8908  1.2163
  971TIP3    H224473   2.410   6.075   8.439  0.1405  1.9335 -0.2698
  972TIP3   OH224474   0.335   1.699   6.661  0.2218  0.7782 -0.2346
  972TIP3    H124475   0.282   1.621   6.643  0.1148  0.9634 -0.7238
  972TIP3    H224476   0.314   1.722   6.751 -1.7107  1.7528 -0.8894
  973TIP3   OH224477   5.544   4.629   7.985  0.0425 -0.5696 -0.3666
  973TIP3    H124478   5.475   4.636   8.051 -0.1528 -2.6790 -0.2621
  973TIP3    H224479   5.500   4.651   7.903 -0.0342  0.7957  0.0130
  974TIP3   OH224480   5.679   1.308   1.121 -0.3943 -0.2796  0.3158
  974TIP3    H124481   5.718   1.388   1.087 -2.3795  1.1416  1.1899
  974TIP3    H224482   5.728   1.288   1.201 -0.0262  0.1837  0.2034
  975TIP3   OH224483   5.541   3.454   0.215  0.1421 -0.0540 -0.4476
  975TIP3    H124484   5.532   3.361   0.235  2.2324 -0.5683 -1.5433
  975TIP3    H224485   5.458   3.478   0.173 -1.4262 -0.7126  2.0799
  976TIP3   OH224486   4.478   4.973   0.710  0.2680 -0.0747  0.2561
  976TIP3    H124487   4.452   5.000   0.622 -0.1425 -1.4650 -0.0851
  976TIP3    H224488   4.421   5.023   0.769 -1.2330 -0.9642 -0.3835
  977TIP3   OH224489   1.006   5.894   0.378  0.1313 -0.3471  0.1642
  977TIP3    H124490   1.068   5.967   0.379  1.2155 -1.0606 -2.8222
  977TIP3    H224491   1.055   5.821   0.414  0.7125 -0.6330 -1.1290
  978TIP3   OH224492   5.798   3.765   1.407 -0.0096  0.4572 -0.2252
  978TIP3    H124493   5.783   3.745   1.499 -2.1342  0.2974 -0.5375
  978TIP3    H224494   5.773   3.857   1.398  1.3124  0.8077 -0.4375
  979TIP3   OH224495   6.681   2.507   0.320 -0.0300  0.2262  0.2727
  979TIP3    H124496   6.616   2.474   0.258 -1.7214  0.1298  2.0080
  979TIP3    H224497   6.654   2.597   0.336  1.4182  0.8058 -0.3876
  980TIP3   OH224498   1.415   2.765   0.690  0.5022 -0.3269  0.6228
  980TIP3    H124499   1.392   2.770   0.783 -0.3225  0.6378  0.3837
  980TIP3    H224500   1.406   2.672   0.668 -2.1065 -0.2148  0.8463
  981TIP3   OH224501   0.398   5.421   0.845  0.0439 -0.1567 -0.1363
  981TIP3    H124502   0.490   5.444   0.859 -0.0642  0.2996 -0.1843
  981TIP3    H224503   0.399   5.325   0.840  0.6447 -0.1268 -0.9758
  982TIP3   OH224504   1.844   3.230   6.255 -0.3341 -0.5131  0.1461
  982TIP3    H124505   1.750   3.244   6.267 -0.1436  0.5736  0.5256
  982TIP3    H224506   1.850   3.160   6.190 -1.4038 -0.7346  0.2704
  983TIP3   OH224507   1.620   1.055   7.139 -0.4276 -0.3397  0.3060
  983TIP3    H124508   1.576   0.984   7.186 -1.9586 -0.0846 -0.6759
  983TIP3    H224509   1.617   1.129   7.200  1.1706 -1.0728  1.3322
  984TIP3   OH224510   6.359   3.185   1.056  0.2844  0.2531 -0.0363
  984TIP3    H124511   6.426   3.252   1.069  1.0219 -0.5495  0.3999
  984TIP3    H224512   6.328   3.166   1.144  0.3704 -0.2663 -0.1190
  985TIP3   OH224513   5.545   6.461   7.410 -0.5570  0.5107 -0.4247
  985TIP3    H124514   5.510   6.528   7.469  0.0301  1.0622 -0.6837
  985TIP3    H224515   5.525   6.378   7.453  0.3190  0.9135  0.8422
  986TIP3   OH224516   2.309   6.284   2.070  0.5274 -0.3239 -0.7194
  986TIP3    H124517   2.317   6.213   2.133  2.6305  1.3246  1.0144
  986TIP3    H224518   2.261   6.352   2.118  0.3453  0.1901 -1.6211
  987TIP3   OH224519   4.111   3.499   0.379  0.0874  0.2131 -0.0116
  987TIP3    H124520   4.114   3.529   0.470 -0.2002 -0.7226  0.3132
  987TIP3    H224521   4.030   3.449   0.373  0.2535  0.0209 -0.7098
  988TIP3   OH224522   6.785   4.657   1.340  0.0001 -0.0888  0.3433
  988TIP3    H124523   6.799   4.566   1.367  0.0726  0.3974  2.1024
  988TIP3    H224524   6.833   4.708   1.405 -0.1735  1.2226 -0.5215
  989TIP3   OH224525   1.602   3.815   8.248  0.1622 -0.2525 -0.2043
  989TIP3    H124526   1.618   3.731   8.291 -2.6015 -0.8680 -0.2264
  989TIP3    H224527   1.611   3.796   8.154  2.4083  0.2189 -0.1435
  990TIP3   OH224528   0.644   4.695   7.948  0.4591  0.5649  0.0670
  990TIP3    H124529   0.562   4.705   7.996  0.2351 -0.2908 -0.1252
  990TIP3    H224530   0.675   4.784   7.935 -0.4611  0.9005  0.1050
  991TIP3   OH224531   0.746   0.879   8.470  0.1155  0.1484  0.4531
  991TIP3    H124532   0.668   0.904   8.520 -0.2245  0.6397 -0.2947
  991TIP3    H224533   0.786   0.962   8.445 -0.8648  0.0118 -1.8247
  992TIP3   OH224534   0.261   2.243   7.268 -0.2823  0.5416 -0.0694
  992TIP3    H124535   0.321   2.305   7.310  0.2784 -0.2202  0.2836
  992TIP3    H224536   0.316   2.190   7.211 -0.6616  0.0248  0.0285
  993TIP3   OH224537   3.030   2.912   2.080 -0.2728  0.9853 -0.8249
  993TIP3    H124538   3.019   2.872   2.166 -1.2867  0.4798 -1.1718
  993TIP3    H224539   3.082   2.991   2.097 -0.5435  0.9503  0.2653
  994TIP3   OH224540   4.809   6.524   7.665 -0.2529 -0.2377  0.5067
  994TIP3    H124541   4.837   6.476   7.743 -2.0928 -1.8078  0.2701
  994TIP3    H224542   4.888   6.530   7.611  0.4786 -1.2784  1.4171
  995TIP3   OH224543   0.144   5.007   6.488 -0.1066  0.2247 -0.4625
  995TIP3    H124544   0.056   4.974   6.473 -0.2640  0.5323 -0.2266
  995TIP3    H224545   0.194   4.930   6.516 -0.2550  0.0169 -0.7651
  996TIP3   OH224546   4.725   0.595   1.593  0.1156  0.0877 -0.4073
  996TIP3    H124547   4.774   0.674   1.570  0.8416 -0.5906 -1.3347
  996TIP3    H224548   4.772   0.559   1.668 -0.0155  0.3724 -0.1912
  997TIP3   OH224549   2.868   1.179   7.710 -0.2637 -0.0971 -0.3374
  997TIP3    H124550   2.847   1.256   7.657 -4.6079  0.8150  2.2013
  997TIP3    H224551   2.910   1.119   7.649 -2.9802  1.5957 -4.3427
  998TIP3   OH224552   4.757   6.647   8.057  0.0761 -0.3786 -0.0162
  998TIP3    H124553   4.718   6.609   8.135 -0.7573 -1.5453 -0.9603
  998TIP3    H224554   4.773   6.572   7.999 -1.0597  0.6063 -1.6979
  999TIP3   OH224555   1.510   6.854   7.498  0.0272 -0.2604 -0.3958
  999TIP3    H124556   1.549   6.787   7.441  0.9146  0.0457 -0.1589
  999TIP3    H224557   1.508   6.933   7.444  2.5273  0.5115  0.4984
 1000TIP3   OH224558   3.186   6.696   6.816  0.5386 -0.0245 -0.1694
 1000TIP3    H124559   3.185   6.791   6.802 -0.0510  0.0139  0.0973
 1000TIP3    H224560   3.252   6.663   6.755  0.6287  0.5391 -0.3810
 1001TIP3   OH224561   0.565   4.743   6.865 -0.0282 -0.1887 -0.0551
 1001TIP3    H124562   0.519   4.802   6.805 -0.5126 -1.5065 -1.0368
 1001TIP3    H224563   0.496   4.699   6.913  0.3665  1.0187  1.7059
 1002TIP3   OH224564   0.838   0.976   0.183 -0.0579 -0.5715 -0.5416
 1002TIP3    H124565   0.855   1.048   0.244  0.1867 -1.6054  0.6550
 1002TIP3    H224566   0.769   0.925   0.224  1.7521 -2.6578  0.1310
 1003TIP3   OH224567   5.997   3.183   1.081 -0.3668  0.0633 -0.4552
 1003TIP3    H124568   6.015   3.271   1.049 -1.2634  0.3799 -0.1378
 1003TIP3    H224569   5.926   3.195   1.144  0.2632 -0.7472  0.4371
 1004TIP3   OH224570   4.602   1.571   1.450 -0.0785 -0.3039 -0.0296
 1004TIP3    H124571   4.686   1.530   1.468 -0.0562 -0.6772 -0.9271
 1004TIP3    H224572   4.621   1.639   1.387 -0.5745 -1.0425 -1.0135
 1005TIP3   OH224573   4.079   3.145   0.287 -0.2338 -0.2325 -0.2372
 1005TIP3    H124574   4.068   3.207   0.216 -1.3345 -1.7751 -1.4791
 1005TIP3    H224575   3.991   3.126   0.318  0.1193 -0.7684  0.4968
 1006TIP3   OH224576   1.856   3.045   1.604  0.0533 -0.1886  0.2322
 1006TIP3    H124577   1.872   2.959   1.643 -1.3286 -0.4275  0.3304
 1006TIP3    H224578   1.827   3.100   1.678 -0.7780 -0.1330 -0.1308
 1007TIP3   OH224579   1.142   3.613   6.916  0.1876 -0.1601  0.1212
 1007TIP3    H124580   1.202   3.629   6.843  0.6045 -1.9423  0.0207
 1007TIP3    H224581   1.088   3.539   6.887 -0.1520 -0.4129  1.3294
 1008TIP3   OH224582   6.082   5.935   0.495  0.2747 -0.2553  0.3431
 1008TIP3    H124583   6.135   6.013   0.510 -1.0932  0.8988 -0.5401
 1008TIP3    H224584   6.145   5.864   0.485  1.5219  0.5157  2.2535
 1009TIP3   OH224585   4.309   5.649   6.853  0.2462 -0.1326 -0.4228
 1009TIP3    H124586   4.303   5.652   6.758 -0.7124  0.0533 -0.3716
 1009TIP3    H224587   4.367   5.575   6.871  0.9651  0.2373 -1.1535
 1010TIP3   OH224588   4.270   2.853   0.181  0.3109 -0.5182 -0.1729
 1010TIP3    H124589   4.289   2.798   0.105 -0.0998  0.4333 -0.9966
 1010TIP3    H224590   4.187   2.820   0.214 -1.1265  0.9742 -2.0440
 1011TIP3   OH224591   0.346   2.217   8.275 -0.2013 -0.4673  0.1666
 1011TIP3    H124592   0.351   2.171   8.191  0.4535 -0.2912  0.1052
 1011TIP3    H224593   0.255   2.206   8.302 -0.7239  0.4311 -1.1072
 1012TIP3   OH224594   2.149   3.234   6.211 -0.1520  0.3566  0.2833
 1012TIP3    H124595   2.158   3.323   6.243  2.0248 -0.7342  3.1994
 1012TIP3    H224596   2.061   3.207   6.237 -0.5213  1.3722  0.1063
 1013TIP3   OH224597   5.191   1.579   1.287  0.1182  0.1683 -0.2579
 1013TIP3    H124598   5.105   1.552   1.255 -0.9370 -1.0897  3.1968
 1013TIP3    H224599   5.186   1.675   1.292 -1.0599  0.1170 -0.1740
 1014TIP3   OH224600   4.902   1.191   0.604  0.1577  0.3602  0.4255
 1014TIP3    H124601   4.884   1.267   0.660  2.8405  1.2822  0.1658
 1014TIP3    H224602   4.899   1.116   0.664 -1.9520  0.6909  0.7979
 1015TIP3   OH224603   3.335   6.212   6.602  0.2356 -0.3427 -0.2634
 1015TIP3    H124604   3.420   6.198   6.643 -0.2228 -0.9036  0.5255
 1015TIP3    H224605   3.350   6.281   6.538  1.0694  0.2691  0.5650
 1016TIP3   OH224606   5.072   3.077   2.287  0.4335  0.3507  0.5034
 1016TIP3    H124607   5.086   3.171   2.302  1.8828  0.0726  1.0013
 1016TIP3    H224608   5.140   3.052   2.225 -0.6652 -0.1577 -0.5263
 1017TIP3   OH224609   1.121   2.029   7.626 -0.1882 -0.2745 -0.4513
 1017TIP3    H124610   1.183   1.961   7.652 -0.8170 -0.7212 -0.0864
 1017TIP3    H224611   1.035   1.992   7.647 -0.5718  0.3744 -0.8543
 1018TIP3   OH224612   4.151   3.969   7.233  0.2201 -0.1754  0.2609
 1018TIP3    H124613   4.173   4.062   7.239 -0.5120  0.1364 -1.3909
 1018TIP3    H224614   4.233   3.923   7.250  1.1286  0.8330 -1.2280
 1019TIP3   OH224615   3.099   4.903   7.498  0.3628 -0.4180 -0.0278
 1019TIP3    H124616   3.080   4.814   7.526  0.7965 -1.4973 -2.8398
 1019TIP3    H224617   3.194   4.904   7.481  0.6149  1.0062  1.2300
 1020TIP3   OH224618   2.156   6.693   8.348  0.0165  0.0768  0.0808
 1020TIP3    H124619   2.086   6.684   8.283 -1.0457  0.9988  1.0570
 1020TIP3    H224620   2.232   6.649   8.308 -0.6886  0.3513 -1.6262
 1021TIP3   OH224621   4.430   0.952   0.238  0.5239  0.1221  0.3488
 1021TIP3    H124622   4.434   1.036   0.283 -0.9271 -0.1259  1.0009
 1021TIP3    H224623   4.346   0.915   0.264  0.9665 -1.3609 -0.2397
 1022TIP3   OH224624   6.510   5.692   1.825  1.1819 -0.6044 -0.0574
 1022TIP3    H124625   6.430   5.642   1.809  0.2907  0.8272 -0.3168
 1022TIP3    H224626   6.541   5.661   1.910 -0.3365 -0.3737  0.6186
 1023TIP3   OH224627   1.313   2.875   0.050  0.2551  0.4526  0.2152
 1023TIP3    H124628   1.372   2.801   0.065 -0.0724  0.2015  0.2797
 1023TIP3    H224629   1.339   2.909  -0.036  0.3987  0.2552  0.1804
 1024TIP3   OH224630   0.480   4.035   7.337  0.7584  0.0323  0.0252
 1024TIP3    H124631   0.477   4.096   7.263 -0.3080 -0.1893 -0.1214
 1024TIP3    H224632   0.525   3.958   7.303 -1.5230 -0.9121 -1.0647
 1025TIP3   OH224633   1.495   6.644   1.820  0.0970 -0.8658 -0.3324
 1025TIP3    H124634   1.543   6.722   1.795  1.8456 -2.1631 -1.2437
 1025TIP3    H224635   1.546   6.606   1.891  1.7527 -3.3273 -2.6134
 1026TIP3   OH224636   2.502   1.011   7.190 -0.2437 -0.4306  0.0538
 1026TIP3    H124637   2.457   1.092   7.165 -1.8677 -1.1005  0.6227
 1026TIP3    H224638   2.442   0.942   7.161 -0.2818 -1.3312  2.1299
 1027TIP3   OH224639   6.050   0.450   0.954  0.5929  0.8022  0.1433
 1027TIP3    H124640   6.058   0.358   0.927  1.1543  0.6347  0.8396
 1027TIP3    H224641   6.130   0.467   1.004  0.2444  1.5158  0.4721
 1028TIP3   OH224642   5.816   0.580   1.510 -0.0535 -0.5727  0.0480
 1028TIP3    H124643   5.822   0.637   1.587  0.6340  1.8695 -1.6872
 1028TIP3    H224644   5.885   0.516   1.522 -1.6600 -2.0066  2.6852
 1029TIP3   OH224645   0.951   0.191   7.970  0.5183 -0.0810  0.3943
 1029TIP3    H124646   1.016   0.169   7.903 -0.9030  0.0903 -1.1270
 1029TIP3    H224647   0.936   0.285   7.960  1.1898  0.2007  1.8349
 1030TIP3   OH224648   1.555   6.235   7.323  0.2306 -0.4242  0.2677
 1030TIP3    H124649   1.534   6.150   7.283  0.2191  0.5055 -1.8478
 1030TIP3    H224650   1.488   6.248   7.390 -0.6131 -1.4491 -0.3490
 1031TIP3   OH224651   2.945   1.918   1.527 -0.1739  0.4459  0.2035
 1031TIP3    H124652   2.931   1.840   1.472  0.4588  2.3192 -2.9085
 1031TIP3    H224653   3.039   1.933   1.522 -0.4982  2.3703 -0.7918
 1032TIP3   OH224654   4.567   3.958   0.300  0.3764  0.8994 -0.3199
 1032TIP3    H124655   4.497   4.001   0.251  1.2733  0.2096 -2.2943
 1032TIP3    H224656   4.540   3.967   0.391 -1.2663  2.4169 -0.8792
 1033TIP3   OH224657   1.642   0.405   7.513  0.5501 -0.0739 -0.1279
 1033TIP3    H124658   1.552   0.407   7.547  0.5790 -0.0685 -0.0526
 1033TIP3    H224659   1.667   0.497   7.507  0.2394 -0.0346 -0.9648
 1034TIP3   OH224660   6.260   5.902   6.539  0.3323 -0.0650 -0.0085
 1034TIP3    H124661   6.281   5.811   6.520  2.2899  0.1480  0.9131
 1034TIP3    H224662   6.221   5.935   6.458 -0.8809 -1.8274 -0.1858
 1035TIP3   OH224663   4.684   1.563   7.333  0.0049 -0.7030  0.2514
 1035TIP3    H124664   4.619   1.621   7.371  0.0479  0.1253 -0.8761
 1035TIP3    H224665   4.727   1.521   7.408 -1.3168 -0.7172  1.0220
 1036TIP3   OH224666   1.506   4.436   7.274 -0.2506  0.0140 -0.5999
 1036TIP3    H124667   1.502   4.465   7.183  1.6497  0.3448 -0.6156
 1036TIP3    H224668   1.598   4.414   7.289 -0.4908  0.0694  1.2783
 1037TIP3   OH224669   5.095   4.123   6.772  0.0127 -0.6213 -0.0046
 1037TIP3    H124670   5.174   4.157   6.729  1.0543 -2.1548  0.6108
 1037TIP3    H224671   5.030   4.192   6.761  1.2485  0.4179 -1.0947
 1038TIP3   OH224672   6.396   5.881   8.229 -0.6660  0.7025  0.6990
 1038TIP3    H124673   6.320   5.936   8.212 -0.5086  0.7987  0.2894
 1038TIP3    H224674   6.463   5.915   8.170 -0.5600  0.0875  0.4684
 1039TIP3   OH224675   3.057   1.311   7.537  0.4131  0.1703 -0.3239
 1039TIP3    H124676   3.059   1.339   7.629  0.7346  0.9209 -0.5484
 1039TIP3    H224677   3.113   1.375   7.492  1.0930 -0.8050 -0.8848
 1040TIP3   OH224678   4.606   1.853   7.763  0.4992 -0.1647 -0.4148
 1040TIP3    H124679   4.564   1.883   7.682  0.9236  0.2317 -0.4923
 1040TIP3    H224680   4.536   1.855   7.828 -0.0274 -1.1981 -0.9343
 1041TIP3   OH224681   3.176   5.020   8.095 -0.0645 -0.2506  0.6836
 1041TIP3    H124682   3.148   5.028   8.186  1.3957  0.5565  1.1049
 1041TIP3    H224683   3.234   4.944   8.095 -1.9459 -1.7727 -0.1258
 1042TIP3   OH224684   3.927   1.357   7.303 -0.3718 -0.2303  0.2034
 1042TIP3    H124685   3.939   1.374   7.396 -0.4180  0.1982  0.1348
 1042TIP3    H224686   3.905   1.443   7.266  0.8565 -0.1505 -0.3918
 1043TIP3   OH224687   0.338   5.577   6.439 -0.1375 -0.0502 -0.3376
 1043TIP3    H124688   0.417   5.577   6.385 -0.5641 -0.7805 -0.9870
 1043TIP3    H224689   0.369   5.554   6.527  0.2774 -1.1366 -0.7555
 1044TIP3   OH224690   4.627   0.154   7.804 -0.1628  0.2647 -0.0024
 1044TIP3    H124691   4.699   0.153   7.866  0.6124  0.6876 -0.8732
 1044TIP3    H224692   4.643   0.078   7.748  1.4721  2.0990 -2.2165
 1045TIP3   OH224693   1.559   1.422   1.208 -0.0069 -0.0979  0.5131
 1045TIP3    H124694   1.621   1.369   1.158  1.8005  0.3101  2.2133
 1045TIP3    H224695   1.487   1.361   1.227 -0.9680 -0.1535 -2.7890
 1046TIP3   OH224696   4.440   1.167   6.917  0.3422 -0.9276  0.1309
 1046TIP3    H124697   4.374   1.162   6.848  2.1190 -2.2749 -1.5616
 1046TIP3    H224698   4.428   1.086   6.967 -0.2817 -0.4212  0.8352
 1047TIP3   OH224699   0.141   2.875   1.031 -0.1086 -0.3386  0.1411
 1047TIP3    H124700   0.176   2.888   0.943  1.0707 -0.2377  0.6084
 1047TIP3    H224701   0.081   2.949   1.045 -0.5337 -0.5237 -0.6829
 1048TIP3   OH224702   5.098   0.975   7.504  0.2909  0.0400  0.4755
 1048TIP3    H124703   5.052   1.054   7.530  0.7549 -0.0094  1.4959
 1048TIP3    H224704   5.145   0.947   7.583 -0.2944 -1.5484  0.3007
 1049TIP3   OH224705   1.294   5.847   7.721  0.3522  0.3486  0.0923
 1049TIP3    H124706   1.366   5.894   7.763  0.8650 -1.4816  1.3299
 1049TIP3    H224707   1.268   5.781   7.784 -1.6724  0.2155 -0.8093
 1050TIP3   OH224708   1.368   0.516   7.584 -0.8551 -0.1144  0.0993
 1050TIP3    H124709   1.322   0.576   7.525 -0.3430  0.1525 -0.0350
 1050TIP3    H224710   1.304   0.448   7.605 -1.3043  0.2453 -0.0963
 1051TIP3   OH224711   4.693   3.148   7.213 -0.0187  0.7963 -0.3165
 1051TIP3    H124712   4.657   3.200   7.285  1.3302  1.3922 -0.0490
 1051TIP3    H224713   4.617   3.129   7.157 -1.4289 -1.0024  1.9940
 1052TIP3   OH224714   0.177   2.920   0.766 -0.5505 -0.6097 -0.5379
 1052TIP3    H124715   0.249   2.939   0.705 -0.8106 -0.7145 -0.8785
 1052TIP3    H224716   0.100   2.909   0.710 -0.7608 -0.8683 -0.2018
 1053TIP3   OH224717   4.456   1.159   7.674 -0.3364  0.1872 -0.2957
 1053TIP3    H124718   4.518   1.090   7.649 -0.8463 -0.8598  1.1891
 1053TIP3    H224719   4.393   1.162   7.601  1.2165  1.0382 -1.6656
 1054TIP3   OH224720   2.327   0.697   6.202 -0.4053 -0.0003  0.0668
 1054TIP3    H124721   2.375   0.765   6.249 -0.0232 -1.2081  1.5002
 1054TIP3    H224722   2.395   0.646   6.157 -0.3192 -1.3847  1.6598
 1055TIP3   OH224723   1.571   4.262   1.597 -0.0600  0.6812 -0.1860
 1055TIP3    H124724   1.514   4.256   1.674 -0.6279 -0.3686 -0.6724
 1055TIP3    H224725   1.657   4.285   1.633 -0.7877  2.4657  0.5482
 1056TIP3   OH224726   1.848   2.964   1.272 -0.2185 -0.5285  0.1755
 1056TIP3    H124727   1.834   2.963   1.178 -0.7592  0.6564  0.2238
 1056TIP3    H224728   1.782   2.904   1.307  0.4701 -1.5615 -0.2296
 1057TIP3   OH224729   5.157   6.901   1.150  0.4814  0.2185  0.0271
 1057TIP3    H124730   5.161   6.921   1.056  1.8408  0.4052  0.0956
 1057TIP3    H224731   5.130   6.984   1.191 -2.6312 -0.5003 -0.3441
 1058TIP3   OH224732   0.200   3.211   7.568 -0.4080  0.9225 -0.2495
 1058TIP3    H124733   0.156   3.146   7.513  0.9516 -0.3099  0.0249
 1058TIP3    H224734   0.145   3.217   7.646  0.1797 -1.0856  0.3875
 1059TIP3   OH224735   5.608   1.543   0.372 -0.0571  0.1533  0.0627
 1059TIP3    H124736   5.677   1.512   0.314  0.0373  0.1785  0.1606
 1059TIP3    H224737   5.638   1.629   0.402  1.2554 -0.9904  2.3275
 1060TIP3   OH224738   5.439   2.260   8.446  0.0248  0.3563 -0.2932
 1060TIP3    H124739   5.379   2.185   8.438  0.3017 -0.0375  1.1145
 1060TIP3    H224740   5.382   2.334   8.464 -0.2346  0.4753 -1.5040
 1061TIP3   OH224741   5.973   6.141   2.097  0.1533  0.1188  0.5272
 1061TIP3    H124742   6.043   6.139   2.032  0.6088  0.5326  0.9977
 1061TIP3    H224743   6.011   6.186   2.173  0.0795 -1.5724  1.6233
 1062TIP3   OH224744   6.850   0.480   8.017  0.1097 -0.5573  0.6186
 1062TIP3    H124745   6.945   0.475   8.007 -0.0565 -0.4126 -1.5208
 1062TIP3    H224746   6.837   0.494   8.110  2.2158 -0.0993  0.9059
 1063TIP3   OH224747   5.262   4.748   6.771 -0.0641  0.4252  0.0306
 1063TIP3    H124748   5.269   4.659   6.736  3.1749  0.2038  0.9490
 1063TIP3    H224749   5.210   4.795   6.705 -0.6106 -1.7526 -1.2050
 1064TIP3   OH224750   6.058   1.429   1.445 -0.1262  0.0814 -0.8467
 1064TIP3    H124751   6.133   1.459   1.496 -2.2044  1.2318  1.8099
 1064TIP3    H224752   6.056   1.487   1.369  1.0222  0.7978 -0.3642
 1065TIP3   OH224753   3.115   0.371   1.422  0.3986  0.3582 -0.4720
 1065TIP3    H124754   3.185   0.429   1.450 -0.8295  1.4462  0.4477
 1065TIP3    H224755   3.118   0.298   1.484  0.4520  0.6161 -0.1680
 1066TIP3   OH224756   6.456   5.047   0.600 -0.2362 -0.1785  0.1067
 1066TIP3    H124757   6.400   5.078   0.529 -0.5407 -0.8753  0.0266
 1066TIP3    H224758   6.491   4.964   0.567  1.1483  0.4240  0.0090
 1067TIP3   OH224759   4.953   3.796   6.998  0.2156 -0.1850 -0.3737
 1067TIP3    H124760   4.905   3.878   7.009 -1.3192 -0.4648 -3.7513
 1067TIP3    H224761   5.034   3.821   6.953  0.6281 -0.3561  0.2541
 1068TIP3   OH224762   1.482   4.573   7.691 -0.1789  0.4132  0.1456
 1068TIP3    H124763   1.455   4.481   7.685 -0.1295  0.4545 -0.9166
 1068TIP3    H224764   1.575   4.572   7.672 -0.6518  0.9361 -2.5244
 1069TIP3   OH224765   3.953   3.901   0.403  0.6686 -0.1396 -0.4882
 1069TIP3    H124766   3.930   3.928   0.491  2.1324  1.0198 -0.4134
 1069TIP3    H224767   3.942   3.806   0.403  0.9694 -0.1984  1.0552
 1070TIP3   OH224768   0.082   1.645   0.664 -0.2525 -0.2389 -0.0570
 1070TIP3    H124769   0.046   1.590   0.733 -0.5837 -2.3982 -1.8554
 1070TIP3    H224770   0.163   1.603   0.639 -0.0702  0.5755 -0.9086
 1071TIP3   OH224771   4.919   3.245   7.571 -0.0597 -0.7710  0.6247
 1071TIP3    H124772   4.924   3.280   7.482 -1.1486 -0.1778  0.7772
 1071TIP3    H224773   5.006   3.259   7.608  1.8065 -4.7119 -1.6234
 1072TIP3   OH224774   4.185   5.323   7.442 -0.0698 -0.0517  0.3949
 1072TIP3    H124775   4.135   5.242   7.443 -1.3227  0.7003  0.6386
 1072TIP3    H224776   4.150   5.372   7.368  2.0895 -0.5531 -1.0384
 1073TIP3   OH224777   3.417   6.064   0.743  0.0845 -0.1868 -0.3997
 1073TIP3    H124778   3.510   6.060   0.722  0.3380  0.1038  0.5975
 1073TIP3    H224779   3.412   6.033   0.834 -0.9933 -1.7982 -0.9566
 1074TIP3   OH224780   1.890   1.113   0.839 -0.1873 -0.0070  0.0472
 1074TIP3    H124781   1.852   1.189   0.794 -0.5909  0.8803  1.8109
 1074TIP3    H224782   1.980   1.110   0.808 -0.6510  0.0764 -1.4145
 1075TIP3   OH224783   4.469   5.599   6.569  0.2969 -0.1194  0.2246
 1075TIP3    H124784   4.488   5.506   6.572 -1.9705 -0.7190 -1.2644
 1075TIP3    H224785   4.529   5.635   6.504 -0.0639 -0.9169 -0.5633
 1076TIP3   OH224786   3.708   6.213   1.889  0.1204 -0.3682  0.1010
 1076TIP3    H124787   3.755   6.222   1.806 -0.4806  0.0066 -0.2079
 1076TIP3    H224788   3.626   6.169   1.864 -0.3477  0.3288  0.3902
 1077TIP3   OH224789   2.276   2.573   7.686 -0.3597  0.0023 -0.1010
 1077TIP3    H124790   2.290   2.594   7.594  1.6877 -1.6837 -0.2522
 1077TIP3    H224791   2.351   2.613   7.731 -0.9641  0.2045  0.7348
 1078TIP3   OH224792   4.699   6.480   1.298 -0.3411 -0.0831  0.4353
 1078TIP3    H124793   4.763   6.511   1.363 -1.6065  0.1942  1.6088
 1078TIP3    H224794   4.622   6.535   1.313 -1.1848 -1.0395 -0.2845
 1079TIP3   OH224795   3.758   6.058   2.110  0.4970  0.2325 -0.0507
 1079TIP3    H124796   3.774   6.108   2.030  0.9710 -0.7572 -0.5883
 1079TIP3    H224797   3.722   6.122   2.171 -0.7007  0.8198 -1.3279
 1080TIP3   OH224798   4.372   6.716   7.166  0.1843 -0.3242 -0.1113
 1080TIP3    H124799   4.446   6.656   7.158  0.0298 -0.3905 -1.2220
 1080TIP3    H224800   4.323   6.683   7.242  1.2964 -0.2444  0.6669
 1081TIP3   OH224801   2.516   2.074   1.329  0.0159 -0.0067 -0.2814
 1081TIP3    H124802   2.601   2.103   1.362  1.0433  1.4254 -3.7331
 1081TIP3    H224803   2.459   2.074   1.406  2.4953  1.5399  1.7061
 1082TIP3   OH224804   5.864   5.114   8.141  0.3556 -0.2758  0.0387
 1082TIP3    H124805   5.806   5.117   8.065 -0.3258 -1.6797  0.4589
 1082TIP3    H224806   5.804   5.108   8.216  1.0329  0.0441  0.6130
 1083TIP3   OH224807   6.337   5.441   0.170 -0.4825 -0.4242 -0.4209
 1083TIP3    H124808   6.251   5.460   0.133 -1.8456 -1.6276  1.8658
 1083TIP3    H224809   6.373   5.527   0.193 -1.5037  0.0542 -0.5620
 1084TIP3   OH224810   6.042   2.392   8.171 -0.3469 -0.4916  0.1161
 1084TIP3    H124811   6.025   2.442   8.091 -3.3549  0.0861  0.9826
 1084TIP3    H224812   6.132   2.413   8.193 -0.1589  1.1628 -1.8800
 1085TIP3   OH224813   2.563   6.807   0.865  0.2131 -0.3319 -0.3942
 1085TIP3    H124814   2.505   6.796   0.940  0.2160 -2.3027 -0.6380
 1085TIP3    H224815   2.651   6.793   0.901  0.6191  2.4729 -0.0580
 1086TIP3   OH224816   1.112   3.834   7.771  0.0676 -0.0017 -0.3777
 1086TIP3    H124817   1.172   3.861   7.840 -0.8806 -2.5179  1.5613
 1086TIP3    H224818   1.031   3.883   7.788  0.1959  0.2375 -0.4442
 1087TIP3   OH224819   2.303   5.324   1.916 -0.0302  0.2450  0.6943
 1087TIP3    H124820   2.229   5.312   1.975  0.6276  1.2039  1.7646
 1087TIP3    H224821   2.268   5.306   1.829 -1.7662  1.6474  1.0494
 1088TIP3   OH224822   1.922   1.491   5.909 -0.2863 -0.1685 -0.1461
 1088TIP3    H124823   1.970   1.442   5.842 -0.8987 -0.5601 -0.3149
 1088TIP3    H224824   1.834   1.453   5.907 -1.3905  2.2325 -1.6507
 1089TIP3   OH224825   3.495   2.413   6.152  0.5438  0.2407 -0.0576
 1089TIP3    H124826   3.432   2.432   6.221  2.2330 -0.4421  1.7842
 1089TIP3    H224827   3.530   2.326   6.174  1.8163  0.4101 -1.2420
 1090TIP3   OH224828   2.813   4.249   1.292  0.6178 -0.0830 -0.0988
 1090TIP3    H124829   2.753   4.183   1.258  0.6292 -1.0072  1.6040
 1090TIP3    H224830   2.780   4.270   1.379  1.6127  0.8836  0.0700
 1091TIP3   OH224831   1.065   6.749   7.029 -0.4682  0.3629  0.0891
 1091TIP3    H124832   1.067   6.841   7.055 -1.5058  0.2908  0.4516
 1091TIP3    H224833   1.044   6.750   6.936  0.5680  0.5153 -0.1620
 1092TIP3   OH224834   5.416   2.488   6.180  0.0536  0.4645  0.4429
 1092TIP3    H124835   5.479   2.417   6.171 -0.7619 -0.4286  1.4140
 1092TIP3    H224836   5.440   2.551   6.112  1.4734 -0.2207  0.2714
 1093TIP3   OH224837   1.998   5.838   2.429  0.3673 -0.4737 -0.2089
 1093TIP3    H124838   2.088   5.822   2.402  0.2505 -1.6128  0.0088
 1093TIP3    H224839   1.963   5.751   2.448 -0.3914  0.0499  0.9237
 1094TIP3   OH224840   2.545   4.197   7.801  0.4786  0.3907 -0.3757
 1094TIP3    H124841   2.592   4.166   7.878  1.4907 -0.5688 -1.3541
 1094TIP3    H224842   2.568   4.135   7.732 -1.5714  0.3790 -1.1079
 1095TIP3   OH224843   3.055   5.962   1.328  0.8245 -0.0275  0.3411
 1095TIP3    H124844   3.078   5.869   1.334  0.1627 -0.2864 -0.9511
 1095TIP3    H224845   3.133   6.003   1.290  0.9764 -0.1136  0.5589
 1096TIP3   OH224846   0.152   5.636   8.457 -0.2511 -0.0798  0.3054
 1096TIP3    H124847   0.075   5.607   8.409  0.2315  0.1613 -0.6303
 1096TIP3    H224848   0.117   5.676   8.537 -1.1360  0.6686 -0.4349
 1097TIP3   OH224849   1.021   3.161   7.862  0.2777  0.2580  0.3547
 1097TIP3    H124850   0.980   3.140   7.946 -1.2738 -0.0236 -0.4313
 1097TIP3    H224851   1.087   3.093   7.850 -0.3321 -0.4203  0.7704
 1098TIP3   OH224852   6.785   1.309   0.733  0.2236  0.0191  0.1416
 1098TIP3    H124853   6.706   1.294   0.786  0.5881  0.5203  0.8445
 1098TIP3    H224854   6.842   1.362   0.789  0.3204  1.2084 -1.0268
 1099TIP3   OH224855   4.082   0.056   6.881 -0.0393  0.1976  1.0939
 1099TIP3    H124856   4.014   0.124   6.878  2.5689  3.0693  1.3589
 1099TIP3    H224857   4.093   0.038   6.974 -0.9159 -0.8318  1.0078
 1100TIP3   OH224858   2.052   1.828   7.194  0.0060 -0.1167  0.5973
 1100TIP3    H124859   2.023   1.766   7.128  1.0513  1.0755 -1.0625
 1100TIP3    H224860   2.143   1.847   7.171  0.2314  0.7620  2.0635
 1101TIP3   OH224861   0.748   3.722   1.654  0.0833 -0.2016  0.2572
 1101TIP3    H124862   0.694   3.764   1.720  1.1106 -1.2080  1.7851
 1101TIP3    H224863   0.736   3.776   1.576 -4.3315 -1.2363 -0.0363
 1102TIP3   OH224864   1.153   3.031   7.507  0.1275  0.4359  0.0021
 1102TIP3    H124865   1.211   3.090   7.459  0.2800  1.7353  1.6731
 1102TIP3    H224866   1.194   2.945   7.498 -0.3512  0.4063 -2.8911
 1103TIP3   OH224867   1.579   5.681   0.412  0.3984  0.1841  0.3484
 1103TIP3    H124868   1.632   5.726   0.347  3.1346 -0.9204  1.6749
 1103TIP3    H224869   1.614   5.710   0.497  0.1237 -1.9313  1.2559
 1104TIP3   OH224870   1.080   3.302   0.107 -0.0361 -0.3305 -0.4553
 1104TIP3    H124871   1.148   3.340   0.051 -0.3290 -0.9141 -1.2303
 1104TIP3    H224872   1.129   3.257   0.176  0.3204  1.6865  0.7011
 1105TIP3   OH224873   3.030   6.268   0.122 -0.1798 -0.0343 -0.4129
 1105TIP3    H124874   3.041   6.173   0.116 -1.4656 -0.1077 -3.5716
 1105TIP3    H224875   2.956   6.280   0.181 -0.5494 -1.0659 -0.6398
 1106TIP3   OH224876   6.390   5.721   7.260 -0.0489 -0.4527  0.7807
 1106TIP3    H124877   6.354   5.809   7.256 -0.7303 -0.7772 -1.3749
 1106TIP3    H224878   6.480   5.734   7.289 -0.4886  0.8213  1.6744
 1107TIP3   OH224879   1.506   2.065   0.981  0.5318 -0.3594  0.3054
 1107TIP3    H124880   1.576   2.129   0.992  0.6456  0.2504 -2.9634
 1107TIP3    H224881   1.434   2.099   1.034  1.1125  1.6477 -0.1072
 1108TIP3   OH224882   3.611   0.208   0.086  0.4125  0.0061 -0.0997
 1108TIP3    H124883   3.568   0.261   0.153 -0.4848 -2.0670  1.0388
 1108TIP3    H224884   3.686   0.261   0.059  0.9211  0.8466  2.6528
 1109TIP3   OH224885   5.257   3.971   0.871 -0.0791 -0.0916  0.2184
 1109TIP3    H124886   5.192   3.978   0.941 -0.7323  0.5729 -0.4358
 1109TIP3    H224887   5.217   4.017   0.797  0.0610 -1.7988 -0.9852
 1110TIP3   OH224888   3.227   2.958   0.516 -0.0964  0.3357  0.0843
 1110TIP3    H124889   3.232   2.941   0.610  0.8029  0.2783  0.0360
 1110TIP3    H224890   3.316   2.986   0.492 -0.0663 -0.5541 -0.9206
 1111TIP3   OH224891   5.060   0.613   7.491 -0.0704 -0.1635 -0.0465
 1111TIP3    H124892   5.009   0.532   7.485  2.0713 -1.5141 -1.1425
 1111TIP3    H224893   5.075   0.638   7.400  0.3563  0.7575  0.2691
 1112TIP3   OH224894   6.028   1.020   2.493  0.8368 -0.3728 -0.0564
 1112TIP3    H124895   6.018   0.928   2.515  0.3819 -0.4346 -0.5205
 1112TIP3    H224896   6.046   1.063   2.577 -1.2098 -0.5629  0.5224
 1113TIP3   OH224897   0.482   4.942   7.330  0.3142 -0.9793 -0.3316
 1113TIP3    H124898   0.456   4.971   7.243 -0.9072 -1.1401 -0.0282
 1113TIP3    H224899   0.437   5.001   7.390  0.2992 -1.5431  0.2166
 1114TIP3   OH224900   6.339   1.298   0.619  0.1668 -0.0775 -0.4404
 1114TIP3    H124901   6.344   1.212   0.576 -0.3401  0.4415 -1.5844
 1114TIP3    H224902   6.380   1.358   0.556  1.2288  0.4191  0.6828
 1115TIP3   OH224903   6.048   1.175   0.388 -0.1043 -0.6201 -0.1425
 1115TIP3    H124904   6.072   1.138   0.303 -0.8960 -0.1291 -0.5837
 1115TIP3    H224905   6.061   1.102   0.450  2.8203 -0.3265 -0.2681
 1116TIP3   OH224906   0.318   3.281   6.788 -0.4265  0.0747  0.2482
 1116TIP3    H124907   0.351   3.191   6.778  1.1092  0.6310  0.1395
 1116TIP3    H224908   0.290   3.306   6.699 -1.3007 -0.4353  0.3624
 1117TIP3   OH224909   2.421   5.478   7.897  0.7082  0.3208 -0.1827
 1117TIP3    H124910   2.478   5.551   7.875 -0.5247  0.9573 -1.4079
 1117TIP3    H224911   2.342   5.493   7.845 -0.2135 -1.0138  0.7808
 1118TIP3   OH224912   4.925   6.710   5.971 -0.3990  0.0205 -0.1904
 1118TIP3    H124913   4.986   6.741   6.038 -0.1945  0.0668 -0.3937
 1118TIP3    H224914   4.857   6.663   6.019 -0.9008  1.0724  0.1597
 1119TIP3   OH224915   0.821   4.560   0.947 -0.2298 -0.5876 -0.2455
 1119TIP3    H124916   0.849   4.559   0.855  0.9714  0.8957  0.0610
 1119TIP3    H224917   0.727   4.542   0.944  0.0554 -2.0975 -1.6227
 1120TIP3   OH224918   1.358   3.381   0.818  0.2408 -0.5442 -0.1638
 1120TIP3    H124919   1.281   3.432   0.791  1.4053  0.7543 -1.1834
 1120TIP3    H224920   1.429   3.445   0.822  1.7225 -2.0348 -1.2675
 1121TIP3   OH224921   3.881   4.172   1.701  0.2715 -0.0740  0.1925
 1121TIP3    H124922   3.806   4.226   1.726  0.5505  0.3712  0.0799
 1121TIP3    H224923   3.905   4.126   1.781  2.7686  3.2488  1.6042
 1122TIP3   OH224924   2.191   2.487   0.333  0.0937 -0.3828  0.4176
 1122TIP3    H124925   2.106   2.443   0.340  1.0160 -2.4205 -0.3245
 1122TIP3    H224926   2.253   2.423   0.367  1.3635  1.0373  0.8693
 1123TIP3   OH224927   2.918   6.505   2.103 -0.1925  0.3056 -0.0490
 1123TIP3    H124928   2.836   6.512   2.150 -0.2482  0.4836 -0.1737
 1123TIP3    H224929   2.902   6.438   2.036  0.0085 -0.2360  0.4385
 1124TIP3   OH224930   6.200   4.000   7.617 -0.1839 -0.1932  0.1431
 1124TIP3    H124931   6.285   4.043   7.605 -0.6483  0.9325  0.7316
 1124TIP3    H224932   6.221   3.907   7.626  0.8955 -0.0520 -0.6739
 1125TIP3   OH224933   3.849   4.258   0.229  0.3578 -0.1445 -0.2351
 1125TIP3    H124934   3.762   4.296   0.219  0.4536 -0.2050 -1.4422
 1125TIP3    H224935   3.904   4.332   0.257  0.4650  0.5809 -2.1795
 1126TIP3   OH224936   5.071   1.942   1.124  0.0240 -0.0927  0.0946
 1126TIP3    H124937   5.131   1.988   1.182  0.9257 -2.6228  1.3116
 1126TIP3    H224938   5.089   1.978   1.037  1.1913  1.2795  0.8617
 1127TIP3   OH224939   0.312   3.035   1.231  0.0052 -0.6798 -0.6055
 1127TIP3    H124940   0.250   3.043   1.303 -1.8067  0.7726 -2.2510
 1127TIP3    H224941   0.293   2.949   1.193 -0.1721 -0.7435 -0.3761
 1128TIP3   OH224942   0.957   2.582   6.049 -0.0867 -0.6628 -0.7252
 1128TIP3    H124943   1.043   2.543   6.063  0.6998 -0.0045 -3.1287
 1128TIP3    H224944   0.973   2.676   6.047 -1.1588 -0.4344  0.3739
 1129TIP3   OH224945   3.844   1.289   1.406  0.3426 -0.4353 -0.1839
 1129TIP3    H124946   3.830   1.361   1.344 -2.1824  0.1644  0.9450
 1129TIP3    H224947   3.830   1.210   1.355  3.7842 -0.3225 -1.6041
 1130TIP3   OH224948   6.599   0.485   1.107 -0.4111 -0.0497  0.4315
 1130TIP3    H124949   6.596   0.557   1.170  1.7329 -0.8158  1.5045
 1130TIP3    H224950   6.683   0.495   1.063 -1.3195 -0.2838 -1.4607
 1131TIP3   OH224951   2.498   2.366   8.059 -0.1027  0.0164  0.5413
 1131TIP3    H124952   2.425   2.407   8.013 -0.7596  0.3221  1.8202
 1131TIP3    H224953   2.457   2.318   8.131  0.9545  0.2202  1.2947
 1132TIP3   OH224954   4.800   0.311   1.471  0.2964  0.2721 -0.1269
 1132TIP3    H124955   4.852   0.326   1.391 -1.0106  1.5556 -0.7904
 1132TIP3    H224956   4.779   0.399   1.502  0.9415 -0.2047  1.7894
 1133TIP3   OH224957   6.748   5.380   7.388 -0.1341 -0.6602 -0.4148
 1133TIP3    H124958   6.817   5.316   7.407  1.2402  0.8242 -0.1672
 1133TIP3    H224959   6.783   5.463   7.421 -2.4921 -0.0177  0.6844
 1134TIP3   OH224960   2.364   6.105   1.782  0.0080 -0.2275 -0.4633
 1134TIP3    H124961   2.398   6.094   1.870 -0.5367 -0.3241 -0.2593
 1134TIP3    H224962   2.406   6.185   1.749  1.1213 -0.8306 -0.5636
 1135TIP3   OH224963   2.626   3.855   1.325  0.1416  0.0648  0.0048
 1135TIP3    H124964   2.543   3.902   1.328  0.5431  0.7388  1.8225
 1135TIP3    H224965   2.680   3.897   1.392  2.4427  0.4828 -1.9726
 1136TIP3   OH224966   5.639   3.308   8.232  0.5644 -0.6102  0.2220
 1136TIP3    H124967   5.564   3.277   8.282  0.3167 -0.0720  0.1870
 1136TIP3    H224968   5.670   3.385   8.280  0.5931 -0.3503 -0.2139
 1137TIP3   OH224969   4.875   4.372   1.964 -0.1996 -0.1773  0.4181
 1137TIP3    H124970   4.906   4.462   1.953 -1.8859  0.4035 -0.0450
 1137TIP3    H224971   4.914   4.342   2.045 -0.1229  1.2258  0.9219
 1138TIP3   OH224972   3.733   6.603   1.325 -0.2464  0.5599 -0.1631
 1138TIP3    H124973   3.763   6.598   1.416 -1.1447 -1.6050  0.0787
 1138TIP3    H224974   3.712   6.695   1.312  2.0838  1.3600  1.0671
 1139TIP3   OH224975   2.202   4.535   0.896 -0.2571  0.1563 -0.4727
 1139TIP3    H124976   2.125   4.536   0.839 -0.7327 -2.5410  0.0147
 1139TIP3    H224977   2.170   4.503   0.980  0.8316  2.1009  0.7715
 1140TIP3   OH224978   1.415   0.869   7.212  0.7551 -0.3235 -0.2442
 1140TIP3    H124979   1.342   0.928   7.231 -1.1528 -2.8005  0.6552
 1140TIP3    H224980   1.411   0.857   7.117  0.8566  0.5568 -0.3717
 1141TIP3   OH224981   2.488   0.671   2.128  1.0239 -0.1791  0.3980
 1141TIP3    H124982   2.534   0.616   2.065  0.3335  0.4346 -0.6949
 1141TIP3    H224983   2.548   0.744   2.145  0.5635  0.5554 -0.9283
 1142TIP3   OH224984   2.115   3.035   6.759  0.0965 -0.1436 -0.2044
 1142TIP3    H124985   2.057   3.111   6.768  1.9129  1.1589  1.2781
 1142TIP3    H224986   2.100   3.004   6.670 -0.8647  1.8089 -0.7851
 1143TIP3   OH224987   2.739   5.222   7.579 -0.2749  0.8622  0.1075
 1143TIP3    H124988   2.710   5.145   7.531  0.7400 -0.6144  1.7281
 1143TIP3    H224989   2.832   5.230   7.559  0.1802  0.2011  1.7408
 1144TIP3   OH224990   5.458   0.970   7.459  0.2457 -0.5325  0.6310
 1144TIP3    H124991   5.478   0.993   7.368  1.4734  0.8006  1.1777
 1144TIP3    H224992   5.363   0.970   7.464  0.1679  0.0911 -0.4945
 1145TIP3   OH224993   0.618   4.839   6.578 -0.3542 -0.6719 -0.0634
 1145TIP3    H124994   0.566   4.759   6.577  0.6796 -1.3740  0.2332
 1145TIP3    H224995   0.662   4.840   6.493  0.0345 -0.6884  0.1368
 1146TIP3   OH224996   0.661   3.882   1.238 -0.2724 -0.0436 -0.4974
 1146TIP3    H124997   0.619   3.796   1.243  0.0555 -0.2440 -1.1190
 1146TIP3    H224998   0.700   3.895   1.324  0.2436 -0.8046 -0.6120
 1147TIP3   OH224999   4.324   2.680   7.598 -0.1417  0.2071 -0.1296
 1147TIP3    H125000   4.399   2.693   7.541 -1.3336  0.7473 -1.6383
 1147TIP3    H225001   4.320   2.585   7.611  1.5911  0.2539  1.1530
 1148TIP3   OH225002   0.733   0.716   0.136 -0.3188  0.5732  0.4739
 1148TIP3    H125003   0.789   0.645   0.105 -0.0098  0.8391  0.4180
 1148TIP3    H225004   0.740   0.783   0.068 -0.3214  0.8041  0.7005
 1149TIP3   OH225005   0.144   3.445   6.931 -0.1726  0.3999  0.1364
 1149TIP3    H125006   0.066   3.427   6.879  1.0049 -0.4191 -1.4106
 1149TIP3    H225007   0.204   3.374   6.910  0.4273  0.1207  2.5187
 1150TIP3   OH225008   6.522   2.213   1.186 -0.0807  0.0461 -0.0411
 1150TIP3    H125009   6.529   2.258   1.101  0.5159 -2.2562 -1.2792
 1150TIP3    H225010   6.613   2.205   1.216 -0.0693 -1.2892 -0.3924
 1151TIP3   OH225011   5.820   3.178   7.585 -0.4781 -0.9687 -0.4566
 1151TIP3    H125012   5.796   3.157   7.676 -0.3473  0.3544 -0.0969
 1151TIP3    H225013   5.779   3.262   7.569  0.0489 -0.8908 -1.4198
 1152TIP3   OH225014   0.533   0.566   7.780  0.5175 -0.2636  0.1504
 1152TIP3    H125015   0.594   0.528   7.842  2.9619  2.8283 -0.1343
 1152TIP3    H225016   0.540   0.660   7.793 -3.4260  0.3439 -0.7353
 1153TIP3   OH225017   5.109   4.676   1.691 -0.5203  0.2157  0.2704
 1153TIP3    H125018   5.018   4.678   1.719  0.0458 -0.9047  2.4387
 1153TIP3    H225019   5.152   4.617   1.752  1.7698  1.0484 -0.3977
 1154TIP3   OH225020   2.084   5.730   1.720 -0.3357 -0.1084 -0.3671
 1154TIP3    H125021   2.040   5.798   1.669 -0.6978  0.6467  0.9319
 1154TIP3    H225022   2.178   5.746   1.705 -0.4417 -0.3026 -1.2993
 1155TIP3   OH225023   0.754   0.246   7.703  0.0537  0.2890 -0.8517
 1155TIP3    H125024   0.777   0.308   7.773 -2.9115  0.4336  0.1094
 1155TIP3    H225025   0.826   0.183   7.703  1.8378  2.1975 -0.0400
 1156TIP3   OH225026   4.703   6.776   7.706  0.4115 -0.0345 -0.0579
 1156TIP3    H125027   4.628   6.759   7.763 -1.1351  0.9626 -1.6677
 1156TIP3    H225028   4.739   6.690   7.686 -2.2109 -0.8927 -1.5971
 1157TIP3   OH225029   3.220   2.304   2.274 -0.2109  0.2273  0.4357
 1157TIP3    H125030   3.147   2.347   2.230  0.7952 -0.7296 -2.4158
 1157TIP3    H225031   3.298   2.348   2.240  0.6312  0.0176  2.0029
 1158TIP3   OH225032   3.868   5.155   1.527  0.1431 -0.0330  0.0089
 1158TIP3    H125033   3.910   5.092   1.586 -0.7084 -1.9770 -1.3192
 1158TIP3    H225034   3.932   5.167   1.456  0.8496  1.6937  0.8970
 1159TIP3   OH225035   1.787   4.692   1.252  0.2469  0.2043  0.0082
 1159TIP3    H125036   1.866   4.740   1.278  0.5968 -0.9911  1.2498
 1159TIP3    H225037   1.718   4.729   1.308  0.2193  0.2271 -0.0403
 1160TIP3   OH225038   2.371   4.493   8.313  0.0341 -0.0959  0.1328
 1160TIP3    H125039   2.370   4.587   8.334  0.5316 -0.0124 -0.2055
 1160TIP3    H225040   2.279   4.468   8.314 -0.3048  0.8683 -1.7560
 1161TIP3   OH225041   1.543   0.930   1.829 -0.1039 -0.0184 -0.2086
 1161TIP3    H125042   1.581   0.854   1.873 -1.8407 -1.6533 -1.3938
 1161TIP3    H225043   1.481   0.966   1.892  1.0519  0.7327  0.5293
 1162TIP3   OH225044   4.267   1.765   0.869  0.3683 -0.4940  0.0225
 1162TIP3    H125045   4.334   1.830   0.890 -0.2980  0.6899 -1.3312
 1162TIP3    H225046   4.195   1.785   0.928  0.3169 -0.2465 -0.1225
 1163TIP3   OH225047   4.323   1.626   8.506 -0.4381  0.6168 -0.6156
 1163TIP3    H125048   4.382   1.575   8.562  0.3964  0.1280 -1.8984
 1163TIP3    H225049   4.246   1.571   8.497 -0.6869  0.8034  0.2163
 1164TIP3   OH225050   2.451   0.435   8.307  0.2425 -0.0740  0.6473
 1164TIP3    H125051   2.542   0.464   8.307 -0.5670  2.8491 -0.3084
 1164TIP3    H225052   2.450   0.356   8.253  2.4097 -1.2487  2.1640
 1165TIP3   OH225053   3.062   6.439   0.585 -0.2243  0.2925 -0.4874
 1165TIP3    H125054   3.061   6.519   0.533  1.5013  1.0077  0.5192
 1165TIP3    H225055   3.077   6.369   0.521  2.1432  1.1691 -0.9957
 1166TIP3   OH225056   4.253   6.008   7.574 -0.2296 -0.5094 -0.2577
 1166TIP3    H125057   4.173   6.057   7.594  0.5572  0.3692  0.8501
 1166TIP3    H225058   4.255   6.004   7.478 -1.0968  0.3213 -0.3248
 1167TIP3   OH225059   0.990   4.351   8.143  0.2234  0.0676  0.2849
 1167TIP3    H125060   0.962   4.385   8.058  0.4545 -0.8707 -0.1768
 1167TIP3    H225061   1.073   4.307   8.126  0.6506  0.5116  1.1426
 1168TIP3   OH225062   2.440   5.156   7.632  0.2087 -0.3978  0.0005
 1168TIP3    H125063   2.515   5.211   7.657 -0.8522  1.3227 -0.4012
 1168TIP3    H225064   2.421   5.181   7.542 -1.1586 -0.4027  0.2687
 1169TIP3   OH225065   5.326   2.136   0.766 -0.3724 -0.0712  0.1966
 1169TIP3    H125066   5.302   2.202   0.701  0.8887  0.0621 -0.1503
 1169TIP3    H225067   5.243   2.092   0.786 -1.0674  0.9693 -0.2728
 1170TIP3   OH225068   6.103   2.563   0.562  0.4219 -0.6259 -0.2439
 1170TIP3    H125069   6.161   2.636   0.584 -2.5484  1.0772  2.8386
 1170TIP3    H225070   6.124   2.495   0.626 -1.8131  0.6367  2.0261
 1171TIP3   OH225071   3.627   2.264   1.798  0.3289 -0.6124 -0.0426
 1171TIP3    H125072   3.715   2.302   1.802  0.4176 -0.8788  2.6367
 1171TIP3    H225073   3.636   2.178   1.841 -1.4656 -0.0375  1.6473
 1172TIP3   OH225074   3.540   3.756   0.445 -0.1391  0.1432  0.4502
 1172TIP3    H125075   3.632   3.733   0.458 -0.0634  0.5250  0.5998
 1172TIP3    H225076   3.533   3.847   0.474 -0.6712 -0.0378  0.9100
 1173TIP3   OH225077   1.397   1.481   8.439 -0.1923  0.1467 -0.0801
 1173TIP3    H125078   1.479   1.529   8.422 -0.7955  1.0793 -0.4452
 1173TIP3    H225079   1.375   1.504   8.529 -1.4072  2.0593 -0.7954
 1174TIP3   OH225080   0.688   0.454   8.367  0.5530 -0.5720 -0.1312
 1174TIP3    H125081   0.595   0.461   8.344  0.7942  0.3920 -0.8814
 1174TIP3    H225082   0.728   0.533   8.330  0.9033  1.5201  4.0515
 1175TIP3   OH225083   5.094   1.454   6.437 -0.3559  0.2976  0.0098
 1175TIP3    H125084   5.098   1.550   6.440 -0.0089  0.3297 -1.1437
 1175TIP3    H225085   5.003   1.433   6.458 -0.3081  0.8454  0.8120
 1176TIP3   OH225086   0.522   5.175   6.647  0.0486 -0.1042 -0.3503
 1176TIP3    H125087   0.546   5.266   6.630  0.3696 -0.2845 -0.8880
 1176TIP3    H225088   0.564   5.126   6.576  1.3709 -0.8832  0.9196
 1177TIP3   OH225089   5.397   1.810   0.163  0.1047 -0.2634  0.1081
 1177TIP3    H125090   5.431   1.833   0.077  1.0675 -0.5314  0.4025
 1177TIP3    H225091   5.378   1.716   0.157 -1.5269  0.0641 -0.3455
 1178TIP3   OH225092   0.039   5.027   7.900  0.1418 -0.2052  0.0777
 1178TIP3    H125093   0.076   5.104   7.944  0.6484 -0.6250  0.3938
 1178TIP3    H225094  -0.028   4.995   7.959  1.4877 -1.3541  1.0485
 1179TIP3   OH225095   3.123   2.714   0.409 -0.0362  0.1162 -0.3515
 1179TIP3    H125096   3.136   2.803   0.440  0.2030 -0.3648  0.9813
 1179TIP3    H225097   3.078   2.670   0.480  0.5277 -1.0228 -0.6726
 1180TIP3   OH225098   0.338   5.875   6.405 -0.6424 -0.2978 -0.9772
 1180TIP3    H125099   0.357   5.788   6.440 -1.6185  0.5518  1.9609
 1180TIP3    H225100   0.421   5.906   6.371 -0.2553 -2.3028 -1.9993
 1181TIP3   OH225101   0.585   3.790   7.210 -0.1626 -0.4367 -0.7456
 1181TIP3    H125102   0.671   3.752   7.193  0.5927  1.6169 -1.8020
 1181TIP3    H225103   0.576   3.788   7.305  1.6943  0.5865 -0.5098
 1182TIP3   OH225104   4.688   1.000   8.323  0.4485 -0.2771 -0.6390
 1182TIP3    H125105   4.623   1.049   8.374  0.6119 -0.3200 -0.3931
 1182TIP3    H225106   4.637   0.935   8.275  0.0359  0.9676 -2.0020
 1183TIP3   OH225107   0.885   6.375   2.120 -0.3329 -0.5110  0.4592
 1183TIP3    H125108   0.800   6.371   2.076  0.7131 -1.0651 -1.6466
 1183TIP3    H225109   0.888   6.296   2.175 -0.9496 -0.7737  0.1155
 1184TIP3   OH225110   5.888   1.054   6.465 -0.4171 -0.2972  0.9042
 1184TIP3    H125111   5.807   1.068   6.514 -0.4514 -0.4688  0.8965
 1184TIP3    H225112   5.889   0.960   6.447 -0.8601 -0.1090 -0.2069
 1185TIP3   OH225113   3.883   4.327   1.483 -0.3553 -0.0457 -0.3792
 1185TIP3    H125114   3.930   4.406   1.509  2.6027 -1.7543 -0.0278
 1185TIP3    H225115   3.885   4.271   1.561 -2.3542 -0.5272 -0.6215
 1186TIP3   OH225116   1.158   6.311   0.441 -0.8841  0.0017  0.5229
 1186TIP3    H125117   1.064   6.329   0.447 -0.9969 -0.8855  1.9189
 1186TIP3    H225118   1.166   6.218   0.461  0.1532 -0.3740 -1.3534
 1187TIP3   OH225119   4.460   0.253   7.992  0.1437  0.2747  0.1420
 1187TIP3    H125120   4.476   0.211   8.076  0.3135  0.8640  0.4097
 1187TIP3    H225121   4.523   0.211   7.932 -0.0744 -0.2422  0.2675
 1188TIP3   OH225122   1.782   4.626   6.480  0.1895  0.0592 -0.4562
 1188TIP3    H125123   1.805   4.573   6.557 -0.4261 -0.7746 -0.8374
 1188TIP3    H225124   1.722   4.692   6.515 -0.0405 -0.2767 -0.1983
 1189TIP3   OH225125   3.312   2.630   0.239 -0.3565  0.0100 -0.4237
 1189TIP3    H125126   3.229   2.642   0.286  0.5176 -1.4841  1.6405
 1189TIP3    H225127   3.380   2.649   0.304  0.9775  1.7458 -2.2216
 1190TIP3   OH225128   0.709   0.975   8.096 -0.3718 -0.6601 -0.4333
 1190TIP3    H125129   0.652   0.936   8.162 -3.8950  2.7728 -1.1089
 1190TIP3    H225130   0.689   0.927   8.015  0.3235 -1.6620 -0.0360
 1191TIP3   OH225131   6.252   2.867   7.674 -0.3239  0.4815  0.6237
 1191TIP3    H125132   6.177   2.891   7.618 -1.8257  0.5384  2.5519
 1191TIP3    H225133   6.283   2.950   7.709 -0.2567  0.3257  0.9342
 1192TIP3   OH225134   0.241   4.574   8.057 -0.1220  0.4856  0.2296
 1192TIP3    H125135   0.190   4.561   7.977  1.4681 -0.4504 -0.6853
 1192TIP3    H225136   0.218   4.501   8.113 -0.3608  0.4908  0.1362
 1193TIP3   OH225137   1.043   2.882   6.426  0.4203  0.0805 -1.2818
 1193TIP3    H125138   1.082   2.794   6.418  0.7449  0.1830 -0.8734
 1193TIP3    H225139   0.950   2.869   6.408 -0.1695 -0.9337  1.9292
 1194TIP3   OH225140   1.908   3.969   7.131  0.2146 -0.6555  0.1911
 1194TIP3    H125141   1.853   3.892   7.136  0.0621 -0.5815 -0.3243
 1194TIP3    H225142   1.956   3.960   7.049 -0.3321  0.1485 -0.2284
 1195TIP3   OH225143   1.631   6.202   0.387  0.1060  0.2512 -0.2968
 1195TIP3    H125144   1.656   6.141   0.456 -0.9643  0.2558  0.1106
 1195TIP3    H225145   1.680   6.172   0.310  0.3751 -0.5010  0.1539
 1196TIP3   OH225146   3.904   3.045   8.231 -0.4247 -0.9383  0.2370
 1196TIP3    H125147   3.929   3.079   8.317 -0.4946 -2.9532  1.0936
 1196TIP3    H225148   3.811   3.068   8.223 -0.0572  0.5934 -0.0087
 1197TIP3   OH225149   2.179   1.319   0.023 -0.3353 -0.7549 -0.0271
 1197TIP3    H125150   2.252   1.352   0.075  0.1808 -0.5280 -0.8920
 1197TIP3    H225151   2.186   1.224   0.030 -0.3535 -0.7273  0.4199
 1198TIP3   OH225152   3.060   4.295   0.526  0.3449  0.1780 -0.1399
 1198TIP3    H125153   3.133   4.232   0.524  0.2533  0.0448  0.4461
 1198TIP3    H225154   3.075   4.346   0.605  0.2135  0.6556 -0.4199
 1199TIP3   OH225155   0.553   1.352   6.915 -0.1551  0.2225  0.4598
 1199TIP3    H125156   0.618   1.314   6.974 -0.6784  0.8563  1.4983
 1199TIP3    H225157   0.603   1.382   6.839  0.3579 -1.7922 -0.0452
 1200TIP3   OH225158   5.842   0.991   0.166  1.2340 -0.3216  0.6432
 1200TIP3    H125159   5.794   0.920   0.207 -0.1631 -0.3156 -0.8798
 1200TIP3    H225160   5.819   1.069   0.216 -0.0251 -0.3934  0.2070
 1201TIP3   OH225161   3.145   6.275   1.577 -0.0563  0.2596 -0.0126
 1201TIP3    H125162   3.156   6.316   1.491  2.0230 -1.2466 -0.5640
 1201TIP3    H225163   3.129   6.347   1.637  2.6887  1.8727 -1.0306
 1202TIP3   OH225164   6.144   5.545   8.527 -0.5746  0.4060  0.5023
 1202TIP3    H125165   6.194   5.626   8.520  0.2675 -0.1043  0.4540
 1202TIP3    H225166   6.065   5.569   8.576  0.2784  0.9863  1.6490
 1203TIP3   OH225167   4.034   5.713   2.028  0.0409  0.4112  0.2501
 1203TIP3    H125168   3.963   5.685   1.971 -0.3634  0.4814  0.7146
 1203TIP3    H225169   3.993   5.773   2.091  0.5575  0.6547  0.3632
 1204TIP3   OH225170   6.530   4.294   6.430  0.5848 -0.3516 -0.6380
 1204TIP3    H125171   6.465   4.311   6.362 -1.0291 -2.2783  0.2903
 1204TIP3    H225172   6.486   4.319   6.512  1.5030 -0.5003 -0.0791
 1205TIP3   OH225173   6.677   0.247   8.483 -0.0462  0.2938 -0.3384
 1205TIP3    H125174   6.631   0.282   8.406  0.1071 -1.2083 -1.1431
 1205TIP3    H225175   6.769   0.273   8.469 -0.2746  1.4962  0.2292
 1206TIP3   OH225176   0.034   1.075   8.388  0.2192 -0.4752  0.5989
 1206TIP3    H125177   0.076   1.048   8.306  1.1857  0.3607  0.8018
 1206TIP3    H225178  -0.039   1.014   8.398  0.1492 -0.6723 -0.8185
 1207TIP3   OH225179   2.492   0.772   1.739 -0.7614 -0.6672 -0.6098
 1207TIP3    H125180   2.528   0.840   1.795  2.4189 -2.0265 -0.8246
 1207TIP3    H225181   2.505   0.691   1.789 -0.8161 -1.5435 -1.9780
 1208TIP3   OH225182   3.697   0.226   1.746  0.2188  0.4250 -0.3361
 1208TIP3    H125183   3.717   0.305   1.797  2.7634  1.6012 -2.8581
 1208TIP3    H225184   3.724   0.154   1.803 -1.5285  1.3161  1.7681
 1209TIP3   OH225185   2.829   4.792   8.360 -0.1105  0.2459  0.2783
 1209TIP3    H125186   2.812   4.771   8.268  1.3167 -0.3910  0.1337
 1209TIP3    H225187   2.751   4.761   8.406 -0.4280 -0.3157 -0.6106
 1210TIP3   OH225188   1.216   5.440   0.403  0.1098 -0.2016 -0.3467
 1210TIP3    H125189   1.302   5.399   0.400  0.4791  0.5112  0.2254
 1210TIP3    H225190   1.232   5.529   0.435 -0.7381  0.2237 -1.0610
 1211TIP3   OH225191   5.226   1.328   1.394 -0.6025 -0.2108 -0.4678
 1211TIP3    H125192   5.170   1.322   1.471 -1.1770  0.5669 -0.8092
 1211TIP3    H225193   5.221   1.420   1.367  1.1341 -0.0349 -0.3004
 1212TIP3   OH225194   4.122   0.500   8.562 -0.6009 -0.1778  0.6730
 1212TIP3    H125195   4.133   0.569   8.497 -0.3566 -0.5429  0.3202
 1212TIP3    H225196   4.203   0.448   8.556  0.2964  0.8702  2.5888
 1213TIP3   OH225197   1.649   5.399   6.633  0.5845  0.0160 -0.0466
 1213TIP3    H125198   1.616   5.488   6.622  1.3191  0.2759 -0.1714
 1213TIP3    H225199   1.591   5.345   6.580 -0.7271  0.2219  1.1172
 1214TIP3   OH225200   0.462   0.426   1.707  0.2229  0.2123  0.1646
 1214TIP3    H125201   0.549   0.460   1.684  0.3303  0.4184  0.8461
 1214TIP3    H225202   0.401   0.481   1.658  0.3614  1.8448  1.7202
 1215TIP3   OH225203   1.873   5.205   0.111 -0.5180 -0.1695 -0.1059
 1215TIP3    H125204   1.805   5.151   0.151  1.3723 -0.1190  3.5804
 1215TIP3    H225205   1.878   5.282   0.168  2.9311 -0.4393  0.1237
 1216TIP3   OH225206   3.177   1.078   7.335 -0.2350  0.0601 -0.0757
 1216TIP3    H125207   3.191   1.016   7.264 -0.3116  0.7825 -0.7378
 1216TIP3    H225208   3.265   1.098   7.367 -0.2723 -1.3671  1.0289
 1217TIP3   OH225209   4.253   4.618   1.147  0.0163 -0.4814 -0.0255
 1217TIP3    H125210   4.296   4.644   1.066 -0.3972  1.3205  0.2746
 1217TIP3    H225211   4.209   4.698   1.177 -1.3124 -1.5540  1.0517
 1218TIP3   OH225212   0.313   6.537   7.230 -0.5979  0.9403 -0.3608
 1218TIP3    H125213   0.319   6.456   7.280 -0.0772  0.1567 -1.6377
 1218TIP3    H225214   0.304   6.606   7.296  0.0296 -0.0563  0.7986
 1219TIP3   OH225215   5.111   5.839   1.991  0.5079  0.0330 -0.6483
 1219TIP3    H125216   5.089   5.778   2.061 -0.2690 -1.1404 -1.8728
 1219TIP3    H225217   5.206   5.850   1.998  0.3665  0.4914  0.9917
 1220TIP3   OH225218   0.096   6.646   7.527 -0.1635 -0.3435  0.4351
 1220TIP3    H125219   0.158   6.593   7.576  1.0347  1.1205  0.5704
 1220TIP3    H225220   0.056   6.584   7.465  1.9524 -1.1997 -0.1529
 1221TIP3   OH225221   0.324   1.169   0.698  0.7568 -0.7661  0.6404
 1221TIP3    H125222   0.373   1.225   0.638  0.0162 -0.1544  0.5913
 1221TIP3    H225223   0.282   1.104   0.641 -0.3645  0.1233  0.4089
 1222TIP3   OH225224   6.272   2.389   0.179  0.7974 -0.6568  0.0817
 1222TIP3    H125225   6.367   2.392   0.176  0.7615  1.7458 -2.0353
 1222TIP3    H225226   6.243   2.460   0.121 -2.2825 -2.6207 -1.0836
 1223TIP3   OH225227   5.812   5.679   6.939  0.6865 -0.6706 -0.1159
 1223TIP3    H125228   5.813   5.605   6.879 -0.1341  0.6548 -1.8683
 1223TIP3    H225229   5.727   5.721   6.924  0.4813 -0.2189  1.9426
 1224TIP3   OH225230   0.045   1.935   7.609 -0.3207  0.5614 -0.0731
 1224TIP3    H125231   0.053   2.018   7.656  2.9412  1.9050 -2.5695
 1224TIP3    H225232  -0.030   1.947   7.551 -1.4394  0.7050  1.3524
 1225TIP3   OH225233   2.801   3.282   0.397 -0.1110 -0.1188 -0.3445
 1225TIP3    H125234   2.844   3.347   0.342  0.3304 -0.7971 -0.8176
 1225TIP3    H225235   2.861   3.207   0.397 -0.5250 -0.4605  0.3367
 1226TIP3   OH225236   1.228   0.014   1.007 -0.1851  0.7828  0.2785
 1226TIP3    H125237   1.316   0.051   1.019  0.1364 -0.0389  0.5703
 1226TIP3    H225238   1.244  -0.080   0.996 -1.1916  0.2224  2.8743
 1227TIP3   OH225239   4.008   5.737   8.004  0.5726 -0.2541 -0.1812
 1227TIP3    H125240   3.976   5.746   8.093  0.4944  1.2057 -0.3351
 1227TIP3    H225241   4.102   5.722   8.013  0.6095  0.1610  0.1471
 1228TIP3   OH225242   6.080   4.188   0.840 -0.4864 -0.0189  0.7045
 1228TIP3    H125243   6.063   4.272   0.797 -0.6774 -0.9953 -1.2470
 1228TIP3    H225244   6.145   4.208   0.907 -1.4244  1.8814  1.1270
 1229TIP3   OH225245   2.158   4.705   8.149  0.0080 -0.4305  0.0534
 1229TIP3    H125246   2.146   4.619   8.111  1.5309 -0.9871  0.7373
 1229TIP3    H225247   2.154   4.766   8.075  0.0244 -1.1953 -0.5843
 1230TIP3   OH225248   2.657   2.502   0.657 -0.0080  0.3158  0.6052
 1230TIP3    H125249   2.661   2.406   0.647 -1.6616  0.2039  0.7717
 1230TIP3    H225250   2.711   2.520   0.734 -1.6843 -0.7871  2.1089
 1231TIP3   OH225251   3.062   6.797   7.897 -0.3925 -0.2155  0.7382
 1231TIP3    H125252   3.039   6.772   7.808  0.7097 -0.5164  0.5240
 1231TIP3    H225253   3.018   6.733   7.953 -0.8804 -0.1760  0.3984
 1232TIP3   OH225254   4.991   5.073   0.434  0.1093  0.4438  0.1491
 1232TIP3    H125255   4.898   5.091   0.449  0.0668  1.0020 -0.7128
 1232TIP3    H225256   5.006   5.101   0.344  1.0745  0.1823  0.2249
 1233TIP3   OH225257   5.256   2.349   0.615  0.0114 -0.1429 -0.3978
 1233TIP3    H125258   5.329   2.398   0.575  0.0826 -0.7476 -1.0243
 1233TIP3    H225259   5.198   2.417   0.649  0.1053  0.3806 -1.2631
 1234TIP3   OH225260   6.455   2.658   0.836  0.0250  0.2395 -0.3232
 1234TIP3    H125261   6.361   2.645   0.825  0.2907 -1.1825 -1.2224
 1234TIP3    H225262   6.465   2.752   0.849 -1.5790  0.3253  0.5235
 1235TIP3   OH225263   3.647   2.086   0.672 -0.4914 -0.1970  0.1067
 1235TIP3    H125264   3.620   2.152   0.609 -0.6178  1.4918  1.8279
 1235TIP3    H225265   3.608   2.114   0.755  0.4965 -1.7405  1.1645
 1236TIP3   OH225266   0.043   5.587   0.533 -0.1179 -0.1514 -0.7661
 1236TIP3    H125267  -0.037   5.636   0.556  0.1413  0.4239 -1.0895
 1236TIP3    H225268   0.055   5.603   0.440  0.0727 -0.6932 -0.8369
 1237TIP3   OH225269   0.982   6.627   0.381 -0.1351 -0.2271 -0.0459
 1237TIP3    H125270   1.075   6.623   0.406  0.2721 -0.9737 -1.5347
 1237TIP3    H225271   0.974   6.565   0.309 -1.6218  0.4448 -0.5075
 1238TIP3   OH225272   6.481   6.794   6.440  0.4234 -0.0600 -0.2559
 1238TIP3    H125273   6.496   6.713   6.392 -2.9635  0.8167 -3.1814
 1238TIP3    H225274   6.444   6.766   6.524  2.6140 -1.4969  0.3341
 1239TIP3   OH225275   1.369   3.698   7.759 -0.0292  0.1498  0.0618
 1239TIP3    H125276   1.383   3.785   7.722 -1.3522 -0.7084 -2.6773
 1239TIP3    H225277   1.276   3.680   7.746 -0.0037 -1.3089  1.4974
 1240TIP3   OH225278   0.632   1.745   0.017  0.4807  0.0888  0.5080
 1240TIP3    H125279   0.667   1.685  -0.049  0.1254 -0.7906  1.1051
 1240TIP3    H225280   0.565   1.794  -0.030  0.3085 -0.4556  0.1700
 1241TIP3   OH225281   6.283   1.468   1.177 -0.4442 -0.3344 -0.1938
 1241TIP3    H125282   6.189   1.452   1.175 -0.1470 -2.2987 -1.6717
 1241TIP3    H225283   6.307   1.456   1.269 -1.8235  1.7675  0.5024
 1242TIP3   OH225284   2.645   2.588   0.062 -0.0110  0.0180 -0.1143
 1242TIP3    H125285   2.678   2.523   0.124 -0.4563  0.6958  0.8491
 1242TIP3    H225286   2.610   2.536  -0.010 -0.5233 -0.8236  0.7195
 1243TIP3   OH225287   1.332   3.034   8.001  0.0732  0.0950  0.2961
 1243TIP3    H125288   1.292   3.102   8.055 -1.3326  0.0099 -0.5994
 1243TIP3    H225289   1.259   2.984   7.967  0.9448 -0.2162 -1.2173
 1244TIP3   OH225290   0.732   0.268   6.517 -0.3125 -0.2570 -0.4835
 1244TIP3    H125291   0.654   0.307   6.555 -1.1427 -1.8525 -0.4583
 1244TIP3    H225292   0.699   0.202   6.457  0.9644 -2.2546  0.8701
 1245TIP3   OH225293   6.413   3.296   6.621  0.3902  0.2123  0.4372
 1245TIP3    H125294   6.386   3.340   6.541  0.5338 -0.4756 -0.0005
 1245TIP3    H225295   6.454   3.214   6.591  2.4800  0.9618  1.1003
 1246TIP3   OH225296   0.796   4.202   0.218 -0.2628 -0.0374 -0.5438
 1246TIP3    H125297   0.840   4.179   0.136  2.1964  1.0575  0.3731
 1246TIP3    H225298   0.774   4.295   0.207 -1.5746 -0.3245 -0.5975
 1247TIP3   OH225299   4.144   5.005   8.472 -0.1389 -0.0249  0.0227
 1247TIP3    H125300   4.139   4.972   8.561 -1.9098 -0.8395 -0.3355
 1247TIP3    H225301   4.107   5.094   8.477  0.1036  0.0687  0.1576
 1248TIP3   OH225302   4.967   1.820   0.487 -0.2148  0.2875 -0.0536
 1248TIP3    H125303   5.034   1.873   0.443  0.6772 -1.3800 -0.8212
 1248TIP3    H225304   4.884   1.860   0.462  0.4256  1.5066 -0.3171
 1249TIP3   OH225305   0.311   4.702   7.342  0.3386 -0.0511 -0.6778
 1249TIP3    H125306   0.386   4.734   7.390  0.7537 -1.0050 -0.6697
 1249TIP3    H225307   0.302   4.610   7.368  0.2912 -0.4652 -2.0304
 1250TIP3   OH225308   0.287   0.988   0.472 -0.5081  0.1900 -0.0859
 1250TIP3    H125309   0.214   0.950   0.423 -1.7913  0.0997  1.8223
 1250TIP3    H225310   0.328   0.913   0.515  1.0166  0.1846 -1.4253
 1251TIP3   OH225311   0.426   6.724   1.001 -0.4107  0.5400 -0.1903
 1251TIP3    H125312   0.396   6.806   1.040  0.4504 -0.2193  2.2596
 1251TIP3    H225313   0.398   6.656   1.062  0.0229 -0.8773 -1.4979
 1252TIP3   OH225314   0.598   1.808   6.704  0.0141  0.1614 -0.8533
 1252TIP3    H125315   0.610   1.854   6.621 -0.2415  1.2459 -0.2961
 1252TIP3    H225316   0.526   1.747   6.687  0.0755  0.2518 -1.4742
 1253TIP3   OH225317   4.889   3.726   0.657  0.1548 -0.1972  0.0749
 1253TIP3    H125318   4.829   3.690   0.592 -0.0065 -2.3808  1.3331
 1253TIP3    H225319   4.900   3.817   0.631 -2.3220 -0.1635 -1.2117
 1254TIP3   OH225320   5.545   3.069   0.510  0.6619 -0.6214  0.6675
 1254TIP3    H125321   5.626   3.072   0.459  1.1465 -1.0910  1.3987
 1254TIP3    H225322   5.555   2.993   0.567 -0.3146 -0.7070  0.7368
 1255TIP3   OH225323   4.759   5.419   7.711  0.1784  0.4089 -0.1614
 1255TIP3    H125324   4.799   5.505   7.721  1.2313 -0.0599 -0.1304
 1255TIP3    H225325   4.706   5.426   7.632 -2.4194  2.0206  1.5484
 1256TIP3   OH225326   0.013   6.835   1.525  0.4674 -0.1444 -0.8355
 1256TIP3    H125327   0.076   6.898   1.559  1.3701 -1.2682 -0.3598
 1256TIP3    H225328   0.025   6.837   1.430 -1.2968  2.2020 -1.0986
 1257TIP3   OH225329   4.832   3.096   6.711 -0.6486  0.2061  0.0781
 1257TIP3    H125330   4.854   3.037   6.639 -0.2503  0.5355 -0.0691
 1257TIP3    H225331   4.772   3.045   6.766 -0.3589 -0.3110 -0.0819
 1258TIP3   OH225332   5.700   0.834   2.092 -0.0744  0.0352  0.0931
 1258TIP3    H125333   5.664   0.855   2.178 -0.1143 -0.1962  0.1358
 1258TIP3    H225334   5.795   0.831   2.105 -0.1116 -0.5781  0.2664
 1259TIP3   OH225335   6.224   2.006   1.704 -0.2127  0.1395 -0.4089
 1259TIP3    H125336   6.170   1.987   1.781 -0.1345 -0.9174 -0.6098
 1259TIP3    H225337   6.206   2.098   1.685  0.2028  0.5952  1.2153
 1260TIP3   OH225338   5.559   0.579   0.625 -0.2708 -0.1218  0.5514
 1260TIP3    H125339   5.586   0.555   0.714  0.4102 -0.4754  0.2638
 1260TIP3    H225340   5.482   0.633   0.637 -0.4240 -0.4948  1.3433
 1261TIP3   OH225341   0.358   5.484   8.355 -0.2605 -0.1794 -0.3245
 1261TIP3    H125342   0.287   5.543   8.378 -0.9834 -0.9467 -0.5239
 1261TIP3    H225343   0.333   5.448   8.270  1.9974  2.0278 -2.0556
 1262TIP3   OH225344   5.787   4.134   6.790  0.1379  0.1599 -0.8705
 1262TIP3    H125345   5.713   4.194   6.801 -1.5548 -2.0604  0.8672
 1262TIP3    H225346   5.762   4.080   6.716 -0.3682 -1.0380  0.1400
 1263TIP3   OH225347   0.111   5.266   0.982 -0.2617  0.0070  0.0093
 1263TIP3    H125348   0.079   5.341   0.932 -1.0071  0.0203  0.4940
 1263TIP3    H225349   0.107   5.193   0.921 -1.7966 -0.1121  0.2278
 1264TIP3   OH225350   6.434   6.847   8.322 -0.2587 -0.1153  0.0216
 1264TIP3    H125351   6.389   6.853   8.237 -0.7329 -0.1308  0.2671
 1264TIP3    H225352   6.422   6.934   8.361  2.4750  0.8950 -1.1495
 1265TIP3   OH225353   3.520   4.040   8.276 -0.0638  0.0528 -0.8556
 1265TIP3    H125354   3.520   4.077   8.365 -0.5967 -0.3522 -0.6850
 1265TIP3    H225355   3.608   4.060   8.243  1.3781 -2.6137  0.9413
 1266TIP3   OH225356   3.522   6.325   0.740 -0.1057  0.1468 -0.0994
 1266TIP3    H125357   3.516   6.396   0.675 -3.7935  1.5312  1.4586
 1266TIP3    H225358   3.451   6.266   0.717  0.4979 -1.0082  0.9082
 1267TIP3   OH225359   3.829   5.148   7.063 -0.2060 -0.4676  0.0949
 1267TIP3    H125360   3.870   5.062   7.075 -2.8517 -1.8249  0.1218
 1267TIP3    H225361   3.868   5.182   6.982  2.0035 -0.9455  0.8911
 1268TIP3   OH225362   3.758   4.878   0.576  0.1814 -0.2024  0.1887
 1268TIP3    H125363   3.664   4.873   0.556  0.1223 -0.3984  0.5106
 1268TIP3    H225364   3.762   4.882   0.671  0.4525  0.9576  0.1428
 1269TIP3   OH225365   5.456   1.984   1.512  0.3866  0.0110 -0.3869
 1269TIP3    H125366   5.515   1.995   1.437  0.8118 -2.3200 -0.4750
 1269TIP3    H225367   5.395   1.916   1.484 -1.7268  1.6263  0.1153
 1270TIP3   OH225368   1.311   5.161   1.261 -0.2574  0.2735  0.4881
 1270TIP3    H125369   1.226   5.180   1.300 -0.7951 -1.0892  0.0412
 1270TIP3    H225370   1.355   5.104   1.325  0.2040  0.7167  0.5759
 1271TIP3   OH225371   5.784   5.263   1.344  0.5592  0.2895  0.4788
 1271TIP3    H125372   5.732   5.325   1.291  0.9566 -0.8274 -1.3038
 1271TIP3    H225373   5.853   5.234   1.285  1.1811 -0.8330  1.7255
 1272TIP3   OH225374   6.322   1.946   2.053 -0.0376  0.1527  0.9672
 1272TIP3    H125375   6.367   1.862   2.040  1.0787  0.8059  0.4276
 1272TIP3    H225376   6.235   1.933   2.015 -0.3675 -1.1682  2.0895
 1273TIP3   OH225377   0.636   2.486   0.754 -0.1106  0.4739 -0.3082
 1273TIP3    H125378   0.681   2.490   0.838  0.6753 -2.0148 -0.5249
 1273TIP3    H225379   0.666   2.404   0.714 -1.4009  0.9657 -2.4828
 1274TIP3   OH225380   5.187   6.799   8.427 -0.3053 -0.7499 -0.0358
 1274TIP3    H125381   5.126   6.868   8.453 -0.2293 -0.5504 -0.3795
 1274TIP3    H225382   5.190   6.804   8.331  1.4481  0.2888  0.0255
 1275TIP3   OH225383   5.565   0.791   6.943  0.2857 -0.3102  0.0008
 1275TIP3    H125384   5.572   0.779   6.848  0.9576 -0.8925  0.1109
 1275TIP3    H225385   5.495   0.855   6.954 -1.4248 -1.9650 -0.7828
 1276TIP3   OH225386   3.078   3.845   1.450  0.5879 -0.7335  0.0219
 1276TIP3    H125387   2.998   3.898   1.452  2.8167  2.8986  1.4269
 1276TIP3    H225388   3.113   3.850   1.539  1.6878 -3.5771 -0.1299
 1277TIP3   OH225389   1.654   6.431   8.572  1.0724 -0.3061  0.0127
 1277TIP3    H125390   1.738   6.385   8.565  0.9952 -0.3675 -0.6364
 1277TIP3    H225391   1.588   6.364   8.555  0.8916 -0.2636  0.5582
 1278TIP3   OH225392   3.405   3.858   7.843  0.3925 -0.8691  0.3011
 1278TIP3    H125393   3.352   3.856   7.763 -0.3331 -0.5864  0.7679
 1278TIP3    H225394   3.493   3.881   7.813 -0.0321 -0.0262 -0.3325
 1279TIP3   OH225395   4.750   2.546   0.684 -0.3816  0.0114 -0.0085
 1279TIP3    H125396   4.752   2.465   0.735 -0.9290  0.0830  0.1245
 1279TIP3    H225397   4.662   2.550   0.648 -0.4390  0.6928  0.2119
 1280TIP3   OH225398   1.668   1.823   6.555  0.1596  0.1581  0.3787
 1280TIP3    H125399   1.708   1.857   6.475 -1.0560  1.4076  0.2533
 1280TIP3    H225400   1.681   1.728   6.550  2.5503  0.4341  0.0981
 1281TIP3   OH225401   3.842   2.051   7.216 -1.0185  0.0097 -0.0176
 1281TIP3    H125402   3.771   2.037   7.279 -0.6518  0.9982  0.6301
 1281TIP3    H225403   3.897   1.973   7.225 -0.7189  0.3335  1.2442
 1282TIP3   OH225404   2.993   0.350   6.993  0.3390 -0.0031 -0.2147
 1282TIP3    H125405   3.006   0.445   6.986 -0.3653  0.0324 -1.3315
 1282TIP3    H225406   3.021   0.316   6.908  0.1596 -0.7395  0.0170
 1283TIP3   OH225407   6.136   6.533   7.221  0.1366 -0.4501 -0.8149
 1283TIP3    H125408   6.041   6.532   7.209  0.0464 -2.7333 -0.3889
 1283TIP3    H225409   6.156   6.450   7.264  2.1540  0.7666  0.8049
 1284TIP3   OH225410   4.867   2.869   8.332  0.3020  0.0225  0.3962
 1284TIP3    H125411   4.799   2.807   8.307  1.1743  0.1686 -2.7377
 1284TIP3    H225412   4.845   2.950   8.285  0.5948  1.3378  2.3731
 1285TIP3   OH225413   6.472   5.965   0.506  0.1603 -0.3425  0.4636
 1285TIP3    H125414   6.554   6.014   0.507 -1.0263  1.8608 -1.0385
 1285TIP3    H225415   6.407   6.025   0.544 -1.6729  0.0727 -2.9073
 1286TIP3   OH225416   5.458   5.348   7.482 -0.5479  0.8699  0.3387
 1286TIP3    H125417   5.399   5.399   7.426  0.4876  1.6706 -0.0645
 1286TIP3    H225418   5.403   5.281   7.520 -1.5964  1.2240 -0.4980
 1287TIP3   OH225419   4.012   5.350   6.661 -0.0226  0.0326  0.9459
 1287TIP3    H125420   4.003   5.358   6.756 -0.2419  1.4547  0.8287
 1287TIP3    H225421   4.082   5.411   6.638 -0.4734  0.2629  0.1189
 1288TIP3   OH225422   5.238   1.863   1.415 -0.5543  0.1100 -0.1667
 1288TIP3    H125423   5.253   1.943   1.365 -1.6547  0.5062  0.1022
 1288TIP3    H225424   5.162   1.883   1.469 -0.4183 -0.8924  0.4110
 1289TIP3   OH225425   3.923   6.087   8.548  0.1195 -0.2617 -0.0530
 1289TIP3    H125426   3.989   6.137   8.499  1.0979  0.2051  1.6784
 1289TIP3    H225427   3.974   6.040   8.614 -1.1697 -0.9244  0.4923
 1290TIP3   OH225428   0.889   4.897   2.251  0.5163 -0.3064 -0.3522
 1290TIP3    H125429   0.836   4.819   2.258 -0.5926  0.5187  0.8818
 1290TIP3    H225430   0.966   4.879   2.305  0.2621 -0.5545 -0.0680
 1291TIP3   OH225431   3.365   3.388   1.041  0.5889 -0.3851  0.1464
 1291TIP3    H125432   3.274   3.411   1.059  1.2279  0.9737  1.9545
 1291TIP3    H225433   3.393   3.340   1.119  1.2744 -1.3037 -0.6451
 1292TIP3   OH225434   3.417   6.605   1.348 -0.3124  0.2044 -0.5211
 1292TIP3    H125435   3.436   6.574   1.437 -2.7722  0.7761  0.2956
 1292TIP3    H225436   3.469   6.685   1.339 -0.5410  0.5126  0.7065
 1293TIP3   OH225437   6.870   4.499   7.068  0.0732  0.2218 -0.2434
 1293TIP3    H125438   6.834   4.517   6.981 -0.7657 -0.9195 -0.1459
 1293TIP3    H225439   6.912   4.414   7.060 -1.5322 -0.7392  0.8774
 1294TIP3   OH225440   3.666   0.430   7.688 -0.6309 -0.1328 -0.9567
 1294TIP3    H125441   3.626   0.515   7.704  1.1093  0.6392 -0.4524
 1294TIP3    H225442   3.605   0.367   7.726 -0.9889  1.0310  0.4765
 1295TIP3   OH225443   3.271   2.697   6.651 -0.8458  0.4953  0.5729
 1295TIP3    H125444   3.284   2.630   6.718 -0.4310 -0.4891 -0.4580
 1295TIP3    H225445   3.187   2.675   6.611 -0.9944  0.9555  0.6266
 1296TIP3   OH225446   3.708   3.314   0.150 -0.7024  0.3995 -0.6896
 1296TIP3    H125447   3.673   3.363   0.224 -0.3812  0.3163 -0.4790
 1296TIP3    H225448   3.775   3.257   0.189  0.5777  1.4637 -1.2396
 1297TIP3   OH225449   3.183   2.862   1.460  0.0237  0.5455  0.9874
 1297TIP3    H125450   3.156   2.797   1.525  1.7730 -0.4117  0.8239
 1297TIP3    H225451   3.107   2.920   1.451 -1.0265 -0.5531  2.2883
 1298TIP3   OH225452   3.442   2.401   1.314 -0.5199 -0.2802  0.4723
 1298TIP3    H125453   3.454   2.360   1.228  0.8348 -0.6087  0.8039
 1298TIP3    H225454   3.440   2.327   1.375  1.6292  0.0717  1.0414
 1299TIP3   OH225455   5.140   5.104   2.310 -0.0024 -0.0068  0.0336
 1299TIP3    H125456   5.204   5.067   2.248  0.7945 -0.2329  0.9701
 1299TIP3    H225457   5.134   5.038   2.380 -1.5412 -0.1521 -0.2101
 1300TIP3   OH225458   2.971   6.064   1.592  0.1498 -0.4871  0.5052
 1300TIP3    H125459   3.042   6.128   1.591  2.0500 -2.5006  0.7053
 1300TIP3    H225460   2.974   6.023   1.505 -2.4593  1.0375 -0.4502
 1301TIP3   OH225461   6.261   1.639   6.786 -0.5330 -0.4275 -0.3042
 1301TIP3    H125462   6.184   1.675   6.742 -0.6033  0.7219  0.7250
 1301TIP3    H225463   6.334   1.670   6.733 -0.7092 -0.4619 -0.5710
 1302TIP3   OH225464   6.749   0.226   0.946 -0.4061  0.2055 -0.1113
 1302TIP3    H125465   6.743   0.174   1.027 -1.3081 -1.5617 -1.2305
 1302TIP3    H225466   6.765   0.161   0.877  0.1436  1.6379 -1.3953
 1303TIP3   OH225467   5.961   1.979   8.023 -0.8453  0.0689 -0.0247
 1303TIP3    H125468   6.013   2.000   7.945  0.5151 -0.2849  0.7413
 1303TIP3    H225469   6.003   2.028   8.094 -0.5897 -1.4086  0.8980
 1304TIP3   OH225470   5.625   3.132   8.504  0.0252  0.1203  0.1578
 1304TIP3    H125471   5.680   3.055   8.517  0.9219  0.6718 -0.2977
 1304TIP3    H225472   5.680   3.206   8.528 -0.4850  0.6917 -0.3934
 1305TIP3   OH225473   4.165   2.185   0.561 -0.1128  0.3078  0.0969
 1305TIP3    H125474   4.218   2.207   0.485 -2.5113  1.5466 -1.3521
 1305TIP3    H225475   4.077   2.215   0.538 -1.1892 -0.3970  2.8906
 1306TIP3   OH225476   6.887   3.488   7.543 -0.1688  0.0139 -0.2587
 1306TIP3    H125477   6.879   3.577   7.509  0.1201 -0.0677 -0.5434
 1306TIP3    H225478   6.879   3.432   7.466 -0.5593 -0.2184 -0.0549
 1307TIP3   OH225479   2.960   2.729   1.338  0.2935  0.2870 -0.5951
 1307TIP3    H125480   2.909   2.747   1.417  0.2143 -0.1839 -0.5400
 1307TIP3    H225481   2.897   2.689   1.278  0.0315  1.7843 -1.3708
 1308TIP3   OH225482   3.544   0.102   8.240  0.0335 -0.5028 -0.1627
 1308TIP3    H125483   3.558   0.196   8.249 -0.6096 -0.4937  0.8496
 1308TIP3    H225484   3.496   0.077   8.318 -0.3515 -1.5742 -0.7192
 1309TIP3   OH225485   4.628   6.401   1.852  0.5507  0.2562  1.1222
 1309TIP3    H125486   4.556   6.434   1.906  0.0645  0.7725  0.1858
 1309TIP3    H225487   4.695   6.374   1.914 -0.2282  0.2987  1.9941
 1310TIP3   OH225488   2.082   0.575   0.110  0.1861  0.2228 -0.3657
 1310TIP3    H125489   2.028   0.519   0.054  1.3508  0.7053 -2.0602
 1310TIP3    H225490   2.127   0.514   0.168 -2.2259 -0.1799  1.2249
 1311TIP3   OH225491   1.143   6.053   7.543 -0.5866  0.0050 -0.2475
 1311TIP3    H125492   1.143   6.135   7.493  3.2755  0.2074 -0.1475
 1311TIP3    H225493   1.167   5.986   7.479  3.0576  0.0738  0.8694
 1312TIP3   OH225494   5.729   3.549   7.573 -0.3345 -0.0902  0.2402
 1312TIP3    H125495   5.705   3.503   7.493 -0.8224  0.6098 -0.0282
 1312TIP3    H225496   5.772   3.629   7.543 -1.2229  0.5657  0.6423
 1313TIP3   OH225497   1.750   0.036   8.153  0.3300  0.9255  0.1576
 1313TIP3    H125498   1.722   0.113   8.103 -1.4531  0.1907 -0.0680
 1313TIP3    H225499   1.758  -0.033   8.088 -0.8218  0.2561  0.7039
 1314TIP3   OH225500   5.312   5.906   0.702  0.1181  0.4188 -0.1389
 1314TIP3    H125501   5.291   5.885   0.611 -1.7396 -1.9747  0.7397
 1314TIP3    H225502   5.367   5.834   0.731 -0.8531  0.1683  1.1482
 1315TIP3   OH225503   3.278   0.370   2.052 -0.0757  0.2100  0.0618
 1315TIP3    H125504   3.321   0.325   1.979 -0.5491  1.4843 -1.0412
 1315TIP3    H225505   3.351   0.404   2.105  0.2801 -1.4904  0.7238
 1316TIP3   OH225506   0.654   1.983   1.658 -0.6822  0.1523  0.1719
 1316TIP3    H125507   0.747   1.993   1.642 -0.9842  0.4540 -1.6062
 1316TIP3    H225508   0.623   2.070   1.682 -0.5672  0.1355  0.3755
 1317TIP3   OH225509   0.738   2.989   6.634  0.0126 -0.6057  0.0197
 1317TIP3    H125510   0.752   2.964   6.543  1.3365 -0.0002  0.0350
 1317TIP3    H225511   0.688   2.917   6.671  0.1942 -1.2626 -0.9712
 1318TIP3   OH225512   2.347   1.754   6.688 -0.0793  0.4659  0.3900
 1318TIP3    H125513   2.388   1.781   6.770 -1.9884  1.5833  1.0522
 1318TIP3    H225514   2.334   1.660   6.696 -0.3506  0.5831  1.4486
 1319TIP3   OH225515   4.397   5.033   8.365 -0.2296  0.4163 -0.3623
 1319TIP3    H125516   4.445   4.964   8.412  0.8423  0.8449 -0.7927
 1319TIP3    H225517   4.310   5.032   8.405  0.4865  0.4334  1.3101
 1320TIP3   OH225518   5.904   1.264   1.285 -0.2714  0.5707  0.4852
 1320TIP3    H125519   5.958   1.315   1.345 -0.4100 -0.2013  1.2920
 1320TIP3    H225520   5.873   1.190   1.338 -0.8355  0.1615 -0.3948
 1321TIP3   OH225521   4.721   2.235   7.333  0.6150  0.4579  0.2903
 1321TIP3    H125522   4.764   2.304   7.383 -0.0939  1.1343 -0.0141
 1321TIP3    H225523   4.635   2.271   7.310 -0.6141 -1.2564  1.8416
 1322TIP3   OH225524   0.608   6.862   0.517 -0.1030  0.1222 -0.3974
 1322TIP3    H125525   0.620   6.908   0.434 -0.9583  0.5908 -0.2701
 1322TIP3    H225526   0.607   6.931   0.583 -0.2302 -0.1757 -0.0858
 1323TIP3   OH225527   5.576   2.155   8.196 -0.4873  0.2720  0.0747
 1323TIP3    H125528   5.584   2.250   8.188 -1.1217  0.2776 -0.6451
 1323TIP3    H225529   5.509   2.131   8.132  2.0274 -1.0641 -2.2810
 1324TIP3   OH225530   0.130   5.449   0.740 -0.1477 -0.0872 -0.2187
 1324TIP3    H125531   0.103   5.508   0.669 -1.1413 -0.0226  0.1900
 1324TIP3    H225532   0.225   5.459   0.746 -0.2965  1.4519 -0.1723
 1325TIP3   OH225533   1.176   4.403   1.733 -0.3120  0.8653 -0.9422
 1325TIP3    H125534   1.129   4.425   1.813 -0.0473 -0.1988 -0.4801
 1325TIP3    H225535   1.261   4.371   1.763 -0.0698  0.7945 -1.6715
 1326TIP3   OH225536   1.862   2.655   0.412 -0.3093  0.4779  0.0335
 1326TIP3    H125537   1.943   2.699   0.385  0.7257 -1.7829 -0.8451
 1326TIP3    H225538   1.879   2.626   0.502  0.2176 -0.6564 -0.4056
 1327TIP3   OH225539   3.682   3.501   6.813 -0.1292  0.3029  0.1231
 1327TIP3    H125540   3.628   3.438   6.766 -1.1350  1.4230 -0.3026
 1327TIP3    H225541   3.680   3.471   6.904  2.3959 -2.2681 -0.5367
 1328TIP3   OH225542   5.980   0.941   6.017 -0.3377 -0.5626 -0.2224
 1328TIP3    H125543   6.074   0.933   6.031  0.3636  1.0766 -3.1432
 1328TIP3    H225544   5.955   0.860   5.973 -1.0016 -2.2600  2.9527
 1329TIP3   OH225545   5.722   2.660   0.638  0.1186  0.2932 -0.1469
 1329TIP3    H125546   5.665   2.734   0.654  0.4642  0.3262  1.0301
 1329TIP3    H225547   5.785   2.692   0.574 -1.2205  0.2170 -1.5497
 1330TIP3   OH225548   0.258   2.978   6.410  0.3767 -0.1197  0.4500
 1330TIP3    H125549   0.230   2.908   6.352  2.4898 -0.1742 -0.6049
 1330TIP3    H225550   0.177   3.021   6.437 -0.7715 -0.8953 -1.5323
 1331TIP3   OH225551   3.263   4.180   0.040 -0.9815  0.1840  0.1683
 1331TIP3    H125552   3.185   4.126   0.026 -0.6069  0.0883 -1.7980
 1331TIP3    H225553   3.249   4.258  -0.013  0.6912 -0.3188 -1.0841
 1332TIP3   OH225554   3.964   1.873   8.236 -0.1638 -0.7115  0.2836
 1332TIP3    H125555   3.904   1.842   8.168 -0.1348  1.5068 -0.8199
 1332TIP3    H225556   4.039   1.908   8.188  0.0773  0.4766  1.4735
 1333TIP3   OH225557   3.969   1.123   6.972 -0.1105 -0.7887  0.8413
 1333TIP3    H125558   4.049   1.151   7.016  0.0514  0.9350 -0.4102
 1333TIP3    H225559   3.987   1.137   6.879 -1.7225 -0.7573  0.5028
 1334TIP3   OH225560   0.530   2.503   1.067  0.0035 -0.3877  0.0324
 1334TIP3    H125561   0.616   2.470   1.044 -0.0445 -0.3762 -0.1604
 1334TIP3    H225562   0.478   2.493   0.988 -0.3387 -0.9461  0.3256
 1335TIP3   OH225563   5.533   2.678   8.128  0.0388  0.3976 -0.0446
 1335TIP3    H125564   5.471   2.610   8.156  1.3028 -0.2984  1.2382
 1335TIP3    H225565   5.518   2.750   8.190  0.1320  0.4418 -0.0733
 1336TIP3   OH225566   3.796   5.558   7.038 -0.4376 -0.0716 -0.3541
 1336TIP3    H125567   3.855   5.560   7.114 -1.5190 -0.5291  0.5261
 1336TIP3    H225568   3.716   5.600   7.069 -0.4900  0.7776 -1.6201
 1337TIP3   OH225569   4.098   6.016   7.296 -0.1045 -0.4143 -0.0117
 1337TIP3    H125570   4.045   6.072   7.239  0.3236  0.3224  0.3084
 1337TIP3    H225571   4.183   6.011   7.252 -0.1202 -0.7658 -0.0054
 1338TIP3   OH225572   3.707   4.727   7.667 -0.3566 -0.3562 -0.4243
 1338TIP3    H125573   3.791   4.685   7.652  1.5186  2.8998 -0.0125
 1338TIP3    H225574   3.701   4.733   7.763 -0.7621 -0.0219 -0.4712
 1339TIP3   OH225575   4.147   1.294   8.045 -0.3584  0.3927 -1.0280
 1339TIP3    H125576   4.053   1.287   8.062  0.2458 -3.5000  2.2090
 1339TIP3    H225577   4.182   1.335   8.124  0.8785 -0.7959 -0.9292
 1340TIP3   OH225578   6.543   3.500   5.965 -0.4447  0.2869  0.3071
 1340TIP3    H125579   6.553   3.410   5.995 -0.6800  0.0347 -0.3513
 1340TIP3    H225580   6.628   3.541   5.982 -0.2518 -0.1330  0.3537
 1341TIP3   OH225581   5.556   2.946   7.096 -0.1189  0.1969 -0.5650
 1341TIP3    H125582   5.481   3.005   7.102 -1.7998 -1.7100 -1.4032
 1341TIP3    H225583   5.584   2.932   7.186 -2.9627 -1.5972  0.1625
 1342TIP3   OH225584   3.216   0.582   6.847  0.4066 -0.1540 -0.1494
 1342TIP3    H125585   3.149   0.644   6.819 -0.9816 -1.6421 -0.2977
 1342TIP3    H225586   3.218   0.590   6.942 -2.6600 -2.5427  0.2780
 1343TIP3   OH225587   6.562   1.128   7.932  0.1795  0.0775  0.1398
 1343TIP3    H125588   6.573   1.065   7.860 -1.8603  1.4949 -1.5541
 1343TIP3    H225589   6.583   1.079   8.011  0.5104 -2.1592 -1.2503
 1344TIP3   OH225590   2.597   1.846   8.500  0.2221 -0.0767  0.0583
 1344TIP3    H125591   2.513   1.805   8.516 -0.0771  0.6814  0.4883
 1344TIP3    H225592   2.598   1.923   8.557  1.3949 -0.3268  0.4163
 1345TIP3   OH225593   5.937   4.179   6.164  0.3927  0.4750  0.0884
 1345TIP3    H125594   5.898   4.095   6.141  0.8138  0.4666 -0.6274
 1345TIP3    H225595   5.867   4.228   6.206  0.1837 -0.2920  0.6629
 1346TIP3   OH225596   3.652   3.927   7.776 -0.3005  0.4017 -0.1102
 1346TIP3    H125597   3.716   3.923   7.848  0.8763  0.4127 -1.1187
 1346TIP3    H225598   3.700   3.893   7.700 -2.0420 -1.2490 -0.5481
 1347TIP3   OH225599   3.728   0.244   6.773  0.0697 -0.4417  0.2754
 1347TIP3    H125600   3.803   0.246   6.714 -0.7094  0.8161 -0.7309
 1347TIP3    H225601   3.712   0.151   6.789 -0.1104 -0.8574 -2.0670
 1348TIP3   OH225602   5.812   0.720   1.769  0.8022 -0.3964  0.0579
 1348TIP3    H125603   5.892   0.767   1.746  2.5147 -3.8936 -1.9982
 1348TIP3    H225604   5.840   0.651   1.828 -1.2942 -0.0229  1.6235
 1349TIP3   OH225605   3.520   6.665   7.777  0.1335 -0.2733 -0.7629
 1349TIP3    H125606   3.507   6.721   7.700 -0.5315 -0.3244 -0.6913
 1349TIP3    H225607   3.586   6.602   7.749  1.6971  1.1803 -0.5167
 1350TIP3   OH225608   0.421   0.782   0.637  0.0431 -0.6339  0.4683
 1350TIP3    H125609   0.470   0.743   0.709  1.2708 -1.0104 -0.5389
 1350TIP3    H225610   0.365   0.711   0.605 -0.4775 -0.4764  0.9985
 1351TIP3   OH225611   0.406   6.492   1.154 -0.2499  0.5253 -0.3635
 1351TIP3    H125612   0.384   6.505   1.246 -0.1134 -0.0267 -0.2453
 1351TIP3    H225613   0.475   6.425   1.155 -0.4236  0.3291 -0.8761
 1352TIP3   OH225614   1.910   0.662   6.729 -0.2095 -0.1113 -0.1171
 1352TIP3    H125615   1.928   0.672   6.823  0.9264 -2.8055  0.0564
 1352TIP3    H225616   1.990   0.691   6.686 -0.7374  1.1408 -0.2793
 1353TIP3   OH225617   3.654   5.832   7.981 -0.7473  0.1135 -0.4193
 1353TIP3    H125618   3.664   5.788   8.066 -0.2363 -0.3803 -0.7321
 1353TIP3    H225619   3.662   5.925   8.002  1.4948 -0.0760 -0.1921
 1354TIP3   OH225620   5.916   2.765   1.170 -0.0579  0.2126 -0.4787
 1354TIP3    H125621   5.959   2.785   1.087 -0.3225  0.7613 -0.4923
 1354TIP3    H225622   5.822   2.765   1.149 -0.1689  1.1366 -0.0266
 1355TIP3   OH225623   1.728   3.459   0.872 -0.2364 -0.8036 -0.2847
 1355TIP3    H125624   1.680   3.503   0.942 -1.0842 -1.5510 -0.3772
 1355TIP3    H225625   1.737   3.369   0.902  0.2432 -0.9045 -0.7187
 1356TIP3   OH225626   0.387   6.890   7.397  0.0602 -0.6186  0.3567
 1356TIP3    H125627   0.449   6.954   7.361  1.1944 -2.7437 -1.7515
 1356TIP3    H225628   0.369   6.922   7.485  1.1838  2.1293 -0.2928
 1357TIP3   OH225629   5.357   5.152   8.153 -0.5786  0.3140 -0.1475
 1357TIP3    H125630   5.383   5.067   8.118 -1.5512 -0.5731  1.1828
 1357TIP3    H225631   5.379   5.214   8.084 -1.6379 -1.2462 -2.0087
 1358TIP3   OH225632   2.177   0.930   0.397  0.4295 -0.5172  0.0215
 1358TIP3    H125633   2.233   1.008   0.394  0.3403 -0.3958  1.0129
 1358TIP3    H225634   2.228   0.862   0.355  0.5871  0.0317 -0.6881
 1359TIP3   OH225635   2.774   5.206   8.233  0.0662  0.1710  0.0399
 1359TIP3    H125636   2.777   5.156   8.315  0.1262  0.8645  0.4748
 1359TIP3    H225637   2.702   5.168   8.184 -1.3397  1.0801  1.3227
 1360TIP3   OH225638   4.381   0.703   7.942 -1.0279  0.2416 -0.0730
 1360TIP3    H125639   4.368   0.613   7.971  0.4330  0.7635  2.4373
 1360TIP3    H225640   4.473   0.707   7.916 -0.8071  1.2264  0.8021
 1361TIP3   OH225641   0.538   2.579   0.055  0.2128 -0.5101  1.0212
 1361TIP3    H125642   0.611   2.562  -0.005 -0.0699  2.1645 -0.2427
 1361TIP3    H225643   0.464   2.532   0.018  0.3566  0.0530 -0.0043
 1362TIP3   OH225644   5.316   2.504   0.199 -0.0864  0.1018 -0.3691
 1362TIP3    H125645   5.304   2.477   0.108  1.0336 -0.9105 -0.2498
 1362TIP3    H225646   5.321   2.422   0.248 -2.6357  0.6311  0.9324
 1363TIP3   OH225647   4.288   1.727   1.954  0.2059  0.6906  0.2595
 1363TIP3    H125648   4.351   1.659   1.928 -0.6534 -0.2339  0.5745
 1363TIP3    H225649   4.311   1.748   2.044  1.1219  1.5823 -0.1529
 1364TIP3   OH225650   1.344   5.406   1.387  0.6840  0.2416  0.2402
 1364TIP3    H125651   1.376   5.322   1.355  1.1036 -0.3890  2.1925
 1364TIP3    H225652   1.352   5.401   1.482 -1.6384  1.5324  0.5990
 1365TIP3   OH225653   6.463   4.227   0.361  0.5035  0.1706  0.0232
 1365TIP3    H125654   6.511   4.225   0.444  1.2080 -0.4089 -0.3909
 1365TIP3    H225655   6.449   4.320   0.344 -1.2623  0.2847  1.6930
 1366TIP3   OH225656   3.740   6.334   8.340  0.3685  0.1318 -0.4634
 1366TIP3    H125657   3.713   6.411   8.290  0.7123  1.5413  1.4141
 1366TIP3    H225658   3.669   6.320   8.403  1.1502  0.0904  0.4362
 1367TIP3   OH225659   6.327   4.222   2.158  0.3297  0.6132 -0.0878
 1367TIP3    H125660   6.415   4.238   2.192 -0.2070  2.1237  0.7004
 1367TIP3    H225661   6.338   4.150   2.096  2.2799  1.3517 -0.6811
 1368TIP3   OH225662   2.200   5.972   0.775  0.1741  0.3477 -0.0598
 1368TIP3    H125663   2.245   5.900   0.731 -3.1860 -1.8982 -0.1643
 1368TIP3    H225664   2.158   6.021   0.704 -0.2932  0.3716  0.2256
 1369TIP3   OH225665   5.354   5.527   1.409  0.4220 -0.0698 -0.1277
 1369TIP3    H125666   5.381   5.435   1.415  0.3925 -0.1455 -1.0546
 1369TIP3    H225667   5.287   5.537   1.477  0.9654 -0.5317  0.4919
 1370TIP3   OH225668   4.060   3.911   1.687  0.1891 -0.6078 -0.1692
 1370TIP3    H125669   4.130   3.863   1.732  0.7126  1.6249  1.5484
 1370TIP3    H225670   4.039   3.983   1.746 -3.1297 -0.8017 -0.9622
 1371TIP3   OH225671   1.124   3.999   1.455 -0.5948  0.6487  0.5057
 1371TIP3    H125672   1.220   4.001   1.458 -0.5699 -0.5687  0.8436
 1371TIP3    H225673   1.100   4.078   1.406  0.6469  0.0721 -1.0886
 1372TIP3   OH225674   3.536   3.747   1.428 -0.5311  0.0982  0.3839
 1372TIP3    H125675   3.443   3.722   1.425 -0.5815  0.3098  0.2329
 1372TIP3    H225676   3.583   3.664   1.424 -0.7377 -0.1517  2.1187
 1373TIP3   OH225677   4.500   3.250   0.859 -0.6225  0.7590  0.0718
 1373TIP3    H125678   4.560   3.324   0.856  1.3074 -0.6757  0.9804
 1373TIP3    H225679   4.522   3.205   0.940 -0.0252 -2.1200 -1.5422
 1374TIP3   OH225680   3.719   2.202   1.197  0.1597 -0.0959 -0.2993
 1374TIP3    H125681   3.718   2.292   1.166  1.2555 -0.0008 -0.0989
 1374TIP3    H225682   3.708   2.210   1.292  0.5191 -0.1530 -0.2519
 1375TIP3   OH225683   6.497   2.011   6.771  0.4068 -0.1209 -0.6430
 1375TIP3    H125684   6.484   1.983   6.862 -0.2327  2.3893  0.1223
 1375TIP3    H225685   6.581   1.975   6.746  0.4847 -1.0689  0.8660
 1376TIP3   OH225686   2.848   2.037   0.348 -0.5504 -0.0728 -0.1487
 1376TIP3    H125687   2.846   1.944   0.371 -0.0026 -0.2416 -0.7345
 1376TIP3    H225688   2.923   2.045   0.288  0.9768  1.1918  1.8081
 1377TIP3   OH225689   5.363   4.196   1.906  0.0431  0.7701  0.2174
 1377TIP3    H125690   5.396   4.270   1.957  0.6284  1.2991 -0.8897
 1377TIP3    H225691   5.294   4.234   1.852 -0.5522  0.2210  0.5761
 1378TIP3   OH225692   5.827   0.680   6.472  0.0264  0.2138  0.2552
 1378TIP3    H125693   5.801   0.603   6.422  0.7231  1.2141 -1.7810
 1378TIP3    H225694   5.865   0.739   6.407  0.7809  1.7174  1.9589
 1379TIP3   OH225695   5.679   2.351   6.277 -0.6199  0.8808  0.5131
 1379TIP3    H125696   5.707   2.439   6.303  1.2051  0.1793  1.1046
 1379TIP3    H225697   5.760   2.309   6.246 -0.7445 -1.5647  3.0823
 1380TIP3   OH225698   1.919   1.787   0.236  0.1876 -0.1255 -0.4843
 1380TIP3    H125699   1.940   1.830   0.319  0.0784 -2.4039  0.7868
 1380TIP3    H225700   1.876   1.855   0.184  0.2361  1.3493  1.3217
 1381TIP3   OH225701   0.518   1.575   8.225 -0.0916  0.1551 -0.9236
 1381TIP3    H125702   0.471   1.658   8.230 -1.4141 -0.5268 -1.5663
 1381TIP3    H225703   0.460   1.517   8.176 -0.4730 -1.9705  1.7927
 1382TIP3   OH225704   0.263   1.285   6.564  0.1019 -0.1279  0.0727
 1382TIP3    H125705   0.214   1.205   6.543 -1.8928  0.7127  1.2214
 1382TIP3    H225706   0.337   1.254   6.617 -0.7343 -1.2142  0.6559
 1383TIP3   OH225707   0.561   4.311   6.706 -0.2839 -0.0915  0.0965
 1383TIP3    H125708   0.558   4.370   6.781 -1.2040 -0.1376  0.1012
 1383TIP3    H225709   0.642   4.336   6.660 -0.0768  0.4039  0.7143
 1384TIP3   OH225710   2.166   1.759   1.744 -0.1135  0.3725  0.6431
 1384TIP3    H125711   2.222   1.792   1.814  2.2275  0.2502 -1.0320
 1384TIP3    H225712   2.096   1.823   1.736  0.4843  1.2348  2.0007
 1385TIP3   OH225713   3.472   1.603   0.904  0.2382 -0.3034 -0.6164
 1385TIP3    H125714   3.558   1.563   0.916 -0.1005 -0.7513  0.4567
 1385TIP3    H225715   3.467   1.672   0.970  0.7723  1.5288 -2.3828
 1386TIP3   OH225716   6.830   6.265   8.079 -0.2330 -0.7553 -0.1584
 1386TIP3    H125717   6.829   6.280   8.173 -1.0323  0.9800 -0.4021
 1386TIP3    H225718   6.737   6.256   8.055 -0.0994 -0.3657 -0.8739
 1387TIP3   OH225719   1.226   4.688   0.645  0.4842 -0.2595  0.2505
 1387TIP3    H125720   1.185   4.749   0.582 -1.0871 -1.8215 -0.3237
 1387TIP3    H225721   1.213   4.602   0.606  0.8879 -1.1424  1.9876
 1388TIP3   OH225722   0.145   1.201   7.733 -0.4427 -0.4923  0.7557
 1388TIP3    H125723   0.139   1.187   7.828  2.9643 -0.2171  1.1078
 1388TIP3    H225724   0.120   1.293   7.721  0.8895  0.0099  1.6530
 1389TIP3   OH225725   5.533   3.849   7.178  0.5436 -0.2519 -0.7620
 1389TIP3    H125726   5.526   3.799   7.260  1.2244 -0.9605 -1.1217
 1389TIP3    H225727   5.614   3.899   7.187 -0.4441  1.3143 -0.1448
 1390TIP3   OH225728   4.303   5.984   6.720 -0.4333 -0.2882  0.2901
 1390TIP3    H125729   4.367   5.962   6.788 -1.4098 -1.3688  0.8980
 1390TIP3    H225730   4.298   6.080   6.722  0.6226 -0.2271  0.7183
 1391TIP3   OH225731   5.327   2.869   1.598 -0.3158  0.1580  0.1111
 1391TIP3    H125732   5.380   2.915   1.662 -1.0361 -0.2407  1.0237
 1391TIP3    H225733   5.354   2.778   1.605  2.3540  0.5598 -2.9194
 1392TIP3   OH225734   2.684   1.780   0.715  0.4546  0.4781  0.3806
 1392TIP3    H125735   2.620   1.824   0.660 -1.3913 -1.1909  1.0709
 1392TIP3    H225736   2.641   1.769   0.800  0.7850 -2.4448  0.2955
 1393TIP3   OH225737   3.397   5.410   7.979  0.4632  0.5875 -0.1460
 1393TIP3    H125738   3.487   5.421   8.011  0.3720  0.4568  0.1590
 1393TIP3    H225739   3.397   5.452   7.893  0.5085  1.6139  0.3394
 1394TIP3   OH225740   2.801   5.643   0.835  0.1173  0.3386 -0.2561
 1394TIP3    H125741   2.719   5.661   0.880  0.0822 -1.4848  0.4955
 1394TIP3    H225742   2.868   5.662   0.900  0.1908 -0.0749 -0.2120
 1395TIP3   OH225743   2.147   0.649   6.592 -0.3158  0.0366 -0.1713
 1395TIP3    H125744   2.091   0.631   6.517 -0.9191  0.0393  0.2767
 1395TIP3    H225745   2.236   0.652   6.555 -0.1350 -3.4500 -0.3835
 1396TIP3   OH225746   0.224   0.101   1.570 -0.1057  0.1894 -0.5145
 1396TIP3    H125747   0.291   0.131   1.632  0.5785 -1.5680 -0.3306
 1396TIP3    H225748   0.209   0.176   1.513  3.3725  0.1740 -1.7191
 1397TIP3   OH225749   5.985   1.064   2.221  0.5922  0.0600  0.0654
 1397TIP3    H125750   5.900   1.109   2.222 -0.3533 -1.3697 -2.7758
 1397TIP3    H225751   6.004   1.045   2.312 -0.4442  3.3932  1.1177
 1398TIP3   OH225752   5.386   4.443   1.756 -0.5308  0.2972 -0.7324
 1398TIP3    H125753   5.367   4.429   1.663 -0.2507  1.5125 -0.9914
 1398TIP3    H225754   5.397   4.538   1.764 -0.0602  0.1587  0.4511
 1399TIP3   OH225755   5.807   6.000   6.862  0.0826 -0.0725 -0.0543
 1399TIP3    H125756   5.887   5.950   6.882 -0.2115 -0.0717  1.1821
 1399TIP3    H225757   5.780   5.967   6.777  1.8736  0.5454 -0.9165
 1400TIP3   OH225758   4.352   4.535   8.281  0.3505  0.3456  0.2281
 1400TIP3    H125759   4.311   4.578   8.356 -1.1333 -0.3993 -0.1162
 1400TIP3    H225760   4.375   4.606   8.221 -1.4320  0.7370 -0.0374
 1401TIP3   OH225761   3.396   3.762   8.095 -0.0566  0.4665 -0.3018
 1401TIP3    H125762   3.399   3.778   8.001  0.1608 -1.9174 -0.7667
 1401TIP3    H225763   3.317   3.710   8.109 -0.4495  1.3448  0.9703
 1402TIP3   OH225764   6.428   2.840   1.544 -0.0852 -0.2574  0.4270
 1402TIP3    H125765   6.515   2.872   1.570  0.0534 -0.1182 -0.1914
 1402TIP3    H225766   6.404   2.778   1.613  0.9059 -0.9924  0.1354
 1403TIP3   OH225767   2.693   3.618   8.052  0.5144  0.1596 -0.5684
 1403TIP3    H125768   2.752   3.577   7.988  2.6215  1.4534  0.4266
 1403TIP3    H225769   2.752   3.654   8.118 -1.4681  1.1665  0.7234
 1404TIP3   OH225770   5.024   4.893   0.105  0.0552  0.2707 -0.0269
 1404TIP3    H125771   4.995   4.983   0.116 -0.4304  0.0338  0.7232
 1404TIP3    H225772   5.045   4.885   0.012 -1.9978  0.5507 -0.5509
 1405TIP3   OH225773   0.015   2.303   6.740 -0.1344  0.3611 -0.3265
 1405TIP3    H125774  -0.081   2.302   6.740 -0.2271  2.1303  1.5605
 1405TIP3    H225775   0.039   2.276   6.829  1.2053 -1.2281 -1.1036
 1406TIP3   OH225776   0.934   6.387   8.397  0.5347 -0.5508 -0.6152
 1406TIP3    H125777   0.905   6.461   8.344  1.4166  0.5186  0.3549
 1406TIP3    H225778   1.016   6.416   8.436  0.8498 -2.0104 -0.1242
 1407TIP3   OH225779   0.966   4.562   0.381  0.2080 -0.5927  0.5089
 1407TIP3    H125780   0.940   4.597   0.296 -2.6729 -0.2868  1.4221
 1407TIP3    H225781   1.059   4.544   0.372 -0.1451 -1.2441 -2.9207
 1408TIP3   OH225782   3.362   2.586   0.658 -0.0535 -0.4505 -0.6080
 1408TIP3    H125783   3.395   2.561   0.572 -1.8177  0.7779 -1.7209
 1408TIP3    H225784   3.267   2.582   0.649 -0.4652  3.5255 -0.0446
 1409TIP3   OH225785   4.425   6.642   6.405 -0.0732 -0.0556 -0.6576
 1409TIP3    H125786   4.353   6.602   6.357  0.2074  1.5525 -2.5338
 1409TIP3    H225787   4.423   6.734   6.380  1.1319  0.5319  1.1780
 1410TIP3   OH225788   1.757   5.985   7.672 -0.3485 -0.0289 -0.2168
 1410TIP3    H125789   1.806   5.945   7.744 -0.4721  0.0279 -0.1013
 1410TIP3    H225790   1.787   5.938   7.594 -1.1375 -0.9491  0.0202
 1411TIP3   OH225791   0.925   1.195   0.366  0.4552  0.1817  0.0466
 1411TIP3    H125792   0.928   1.169   0.458  1.3515 -1.0619 -0.3136
 1411TIP3    H225793   1.016   1.194   0.337  0.2018  0.7323 -0.8218
 1412TIP3   OH225794   3.194   6.018   6.680 -0.0869  0.2455  0.2556
 1412TIP3    H125795   3.106   6.039   6.647  0.0710  0.9348  0.2796
 1412TIP3    H225796   3.252   6.079   6.635  0.6598 -1.5003 -1.3088
 1413TIP3   OH225797   0.344   4.279   1.574 -0.2079  0.6614  0.1684
 1413TIP3    H125798   0.314   4.273   1.664  0.3948  0.6393  0.3679
 1413TIP3    H225799   0.436   4.252   1.576 -0.3718  0.0209 -0.5566
 1414TIP3   OH225800   4.443   4.123   6.230  0.3628 -0.4528 -0.3312
 1414TIP3    H125801   4.406   4.178   6.161  0.1290 -0.7332 -0.4320
 1414TIP3    H225802   4.430   4.034   6.198  0.0255 -0.5940  0.1949
 1415TIP3   OH225803   4.422   3.991   6.516 -0.4143  0.2619 -0.0095
 1415TIP3    H125804   4.432   4.046   6.439  2.1687  0.1172  0.1410
 1415TIP3    H225805   4.429   4.052   6.590 -0.3993  0.0855  0.1340
 1416TIP3   OH225806   3.039   3.389   7.679 -0.1916  0.3495 -0.1299
 1416TIP3    H125807   3.001   3.320   7.734  1.1190 -0.1856  0.1522
 1416TIP3    H225808   3.082   3.447   7.741  3.0180 -1.3177 -0.5891
 1417TIP3   OH225809   1.627   0.179   7.725 -0.0603 -0.6752  0.5529
 1417TIP3    H125810   1.674   0.106   7.684  1.7972  0.2630  0.8846
 1417TIP3    H225811   1.628   0.248   7.659 -1.6413 -0.8624  0.3087
 1418TIP3   OH225812   3.912   2.489   7.993 -0.3608 -0.3658  0.1204
 1418TIP3    H125813   3.992   2.525   7.955 -0.2781 -2.9254 -2.5313
 1418TIP3    H225814   3.943   2.428   8.060  0.1354 -2.1525 -1.6114
 1419TIP3   OH225815   3.870   4.506   7.726 -0.0511  0.1546  0.1964
 1419TIP3    H125816   3.916   4.463   7.798  0.9465 -0.5933 -0.8642
 1419TIP3    H225817   3.843   4.434   7.668  0.0170  0.8064 -0.6662
 1420TIP3   OH225818   5.550   2.408   1.743  0.2505 -0.1881  0.6971
 1420TIP3    H125819   5.614   2.346   1.708  0.5583 -0.4270  1.6497
 1420TIP3    H225820   5.468   2.358   1.747 -0.5973  0.7245 -2.5337
 1421TIP3   OH225821   3.580   1.539   1.532  0.2334  0.1503 -0.4106
 1421TIP3    H125822   3.659   1.586   1.558 -1.0106  1.1813  1.8080
 1421TIP3    H225823   3.566   1.475   1.602 -0.5879 -0.3686 -1.0336
 1422TIP3   OH225824   4.868   4.811   6.788 -0.5479 -0.0748 -0.4223
 1422TIP3    H125825   4.947   4.810   6.843 -0.9932  1.2488  0.2789
 1422TIP3    H225826   4.800   4.847   6.845 -0.9915  1.5155 -1.8893
 1423TIP3   OH225827   4.440   3.725   8.249  0.2008 -0.5389 -0.9378
 1423TIP3    H125828   4.423   3.639   8.287 -0.9836  0.6771  1.5696
 1423TIP3    H225829   4.374   3.782   8.289  3.6091  2.4383  1.0614
 1424TIP3   OH225830   5.246   3.613   6.950 -0.0324  0.2395  0.1283
 1424TIP3    H125831   5.204   3.685   6.903 -0.4392 -0.3256 -0.3852
 1424TIP3    H225832   5.340   3.632   6.942 -0.1303  0.6587 -0.0854
 1425TIP3   OH225833   6.049   6.033   8.234  0.1916  0.1549 -0.5402
 1425TIP3    H125834   6.020   5.947   8.263 -2.3647  1.6773  1.8800
 1425TIP3    H225835   6.022   6.038   8.142 -1.0436 -1.0743 -0.2786
 1426TIP3   OH225836   5.490   3.912   1.042  0.5991  0.1459 -0.1858
 1426TIP3    H125837   5.410   3.904   0.989 -0.8793  0.9998  1.7506
 1426TIP3    H225838   5.513   3.822   1.065  1.7488 -0.3095 -2.8353
 1427TIP3   OH225839   4.826   2.037   1.046  0.3448 -0.0565 -0.0751
 1427TIP3    H125840   4.806   2.126   1.075 -0.5854 -0.4443  0.5379
 1427TIP3    H225841   4.883   2.048   0.970  0.6557  1.0464  0.3063
 1428TIP3   OH225842   1.037   4.103   6.881  0.4675 -0.2296  0.5712
 1428TIP3    H125843   0.960   4.144   6.922  1.1434  0.5097  1.1225
 1428TIP3    H225844   1.016   4.010   6.878 -0.1792 -0.1169  1.3060
 1429TIP3   OH225845   2.545   3.201   2.021  0.1522  0.2431  0.3586
 1429TIP3    H125846   2.597   3.123   2.033  1.0229  0.6983 -0.3217
 1429TIP3    H225847   2.514   3.224   2.108  1.1830  0.0246  0.7916
 1430TIP3   OH225848   3.109   2.348   0.843  0.3765  0.0488 -0.1337
 1430TIP3    H125849   3.150   2.376   0.925  1.8841 -1.5550 -0.2687
 1430TIP3    H225850   3.173   2.288   0.804 -1.7822 -2.0301 -0.7354
 1431TIP3   OH225851   2.245   3.375   0.712  0.4565 -0.3987 -0.1640
 1431TIP3    H125852   2.217   3.441   0.776 -2.2969 -1.1781 -0.4195
 1431TIP3    H225853   2.217   3.411   0.627  0.0751 -1.2957 -0.4328
 1432TIP3   OH225854   4.236   3.910   0.440  0.4716  0.2329 -0.3809
 1432TIP3    H125855   4.266   3.842   0.380  0.6733  1.1416 -1.3530
 1432TIP3    H225856   4.141   3.902   0.440  0.4333  0.5880 -1.2880
 1433TIP3   OH225857   3.596   0.961   1.440 -0.3799 -0.0053  0.2104
 1433TIP3    H125858   3.631   1.016   1.511 -0.6620  0.1686  0.2164
 1433TIP3    H225859   3.552   1.023   1.382 -0.2827 -0.1671 -0.0400
 1434TIP3   OH225860   5.774   0.761   7.588  0.6580  0.1559 -0.2658
 1434TIP3    H125861   5.817   0.788   7.507  0.6426 -0.8394 -0.6271
 1434TIP3    H225862   5.707   0.698   7.560  0.3316  0.1602  0.4722
 1435TIP3   OH225863   2.873   6.108   0.880 -0.1348  0.1137  0.1480
 1435TIP3    H125864   2.868   6.070   0.967 -0.8647 -0.4604 -0.1348
 1435TIP3    H225865   2.959   6.082   0.847 -0.2426 -0.4810  0.3287
 1436TIP3   OH225866   5.128   1.305   0.439 -0.1345 -0.3068 -0.1877
 1436TIP3    H125867   5.054   1.250   0.464 -0.2316 -1.1140 -2.0889
 1436TIP3    H225868   5.095   1.394   0.447 -1.3279 -0.6523 -0.9639
 1437TIP3   OH225869   0.138   6.013   7.719  0.2874  0.4192 -0.3900
 1437TIP3    H125870   0.156   6.077   7.650 -0.4862  1.0406 -0.0288
 1437TIP3    H225871   0.121   6.067   7.797 -0.3277 -0.2304 -0.0695
 1438TIP3   OH225872   4.778   0.736   0.823 -0.6837 -0.1282  0.0286
 1438TIP3    H125873   4.698   0.688   0.847 -0.5664 -0.3614 -0.0468
 1438TIP3    H225874   4.747   0.814   0.777 -0.8529 -0.4213 -0.3573
 1439TIP3   OH225875   0.669   6.293   8.410 -0.1432 -0.0952  0.1190
 1439TIP3    H125876   0.755   6.315   8.445  0.2897  0.3982 -1.1908
 1439TIP3    H225877   0.637   6.374   8.370  0.2711 -1.0548 -2.3450
 1440TIP3   OH225878   0.039   5.863   7.146  0.3789 -0.1950  0.5103
 1440TIP3    H125879   0.108   5.816   7.193  0.7885 -2.1938 -1.8937
 1440TIP3    H225880   0.016   5.806   7.073 -1.5766  1.8691 -0.6207
 1441TIP3   OH225881   4.547   0.726   6.972 -0.3149  0.4177  0.0513
 1441TIP3    H125882   4.640   0.736   6.992 -0.3515  1.2456 -0.1212
 1441TIP3    H225883   4.545   0.708   6.878 -0.3769  2.0025 -0.2897
 1442TIP3   OH225884   0.918   1.625   6.579 -0.0513 -0.2123 -0.4897
 1442TIP3    H125885   0.930   1.720   6.581  0.2811 -0.2571 -0.3677
 1442TIP3    H225886   0.952   1.598   6.494 -1.6403 -0.0252 -1.2267
 1443TIP3   OH225887   1.320   3.378   6.629  0.1090  0.4180 -0.1089
 1443TIP3    H125888   1.337   3.289   6.597 -1.9415  0.3232 -1.0788
 1443TIP3    H225889   1.367   3.435   6.567  1.1578  0.0514  0.3239
 1444TIP3   OH225890   4.607   1.976   0.189 -0.0210 -0.0255 -0.2921
 1444TIP3    H125891   4.643   1.896   0.151  0.3877 -0.0451  0.1230
 1444TIP3    H225892   4.530   1.947   0.237  1.2346 -0.5178  1.5513
 1445TIP3   OH225893   0.960   4.670   6.214 -0.7112 -0.6082  0.1382
 1445TIP3    H125894   1.032   4.701   6.268 -2.3101 -0.0468  2.0757
 1445TIP3    H225895   1.000   4.609   6.152  1.8500  1.9474 -0.8819
 1446TIP3   OH225896   6.123   0.910   5.698  0.4633 -0.9076 -0.2057
 1446TIP3    H125897   6.080   0.849   5.758  1.1496 -0.2662  0.9798
 1446TIP3    H225898   6.216   0.892   5.708  0.5965 -0.6690 -0.9670
 1447TIP3   OH225899   2.096   4.153   8.143 -0.1165  0.2981  0.5471
 1447TIP3    H125900   2.083   4.069   8.099  2.0916  0.1588  0.0370
 1447TIP3    H225901   2.050   4.145   8.226 -1.1508 -0.8597 -0.1128
 1448TIP3   OH225902   4.885   1.495   7.876 -0.1391 -0.0605 -0.7406
 1448TIP3    H125903   4.826   1.484   7.951  1.3072  0.9525  0.6095
 1448TIP3    H225904   4.957   1.434   7.893 -0.4529 -0.8169 -2.0377
 1449TIP3   OH225905   5.914   5.211   1.983 -0.4821 -0.5225 -0.0688
 1449TIP3    H125906   5.847   5.263   2.026 -0.9092 -0.5977 -0.6307
 1449TIP3    H225907   5.989   5.271   1.975 -0.5175 -0.4066  0.4625
 1450TIP3   OH225908   2.728   3.167   8.448  0.0928  0.6009  0.6287
 1450TIP3    H125909   2.757   3.212   8.528  0.7603  0.6344  0.3762
 1450TIP3    H225910   2.802   3.175   8.389  0.2134 -0.8148  0.5716
 1451TIP3   OH225911   0.004   5.747   0.088  0.6193  0.6508 -0.5954
 1451TIP3    H125912  -0.090   5.758   0.098  0.4753 -1.0320  0.3686
 1451TIP3    H225913   0.043   5.815   0.144  0.0389  2.1659 -1.9659
 1452TIP3   OH225914   1.534   2.288   8.097 -0.1830 -0.3420 -0.3048
 1452TIP3    H125915   1.604   2.352   8.092 -1.3605  0.9301 -1.2427
 1452TIP3    H225916   1.461   2.334   8.137 -1.7883 -0.3018 -2.9790
 1453TIP3   OH225917   4.702   1.892   0.817 -0.1413 -0.2676 -0.2718
 1453TIP3    H125918   4.698   1.884   0.913 -0.7121 -0.1593 -0.2803
 1453TIP3    H225919   4.759   1.966   0.801  0.9742 -1.0549 -0.0513
 1454TIP3   OH225920   1.260   5.419   2.024  0.5626 -0.3550 -0.3485
 1454TIP3    H125921   1.296   5.369   1.951  1.1267  0.3949 -0.5918
 1454TIP3    H225922   1.277   5.510   2.002 -2.2384  0.1304 -0.8930
 1455TIP3   OH225923   3.798   1.891   6.620  0.0590 -0.4892 -0.4233
 1455TIP3    H125924   3.789   1.796   6.623  1.1995 -0.6235 -0.6994
 1455TIP3    H225925   3.837   1.909   6.534 -1.5207  0.3751 -1.0114
 1456TIP3   OH225926   2.299   6.535   1.818 -0.0216 -0.3800 -0.2753
 1456TIP3    H125927   2.274   6.614   1.866  0.0467  0.0280 -0.8975
 1456TIP3    H225928   2.225   6.476   1.829 -1.0732  0.5978 -1.6238
 1457TIP3   OH225929   0.774   5.163   2.298  0.2887 -0.1487 -0.0849
 1457TIP3    H125930   0.686   5.131   2.317  0.6434 -0.7872  0.5190
 1457TIP3    H225931   0.824   5.085   2.273  0.7251  0.1878 -0.2946
 1458TIP3   OH225932   3.478   2.627   7.399 -0.6767  0.0163 -0.1227
 1458TIP3    H125933   3.494   2.720   7.417 -0.7474  0.0183 -0.0704
 1458TIP3    H225934   3.529   2.609   7.320  1.2349 -0.4835  1.1840
 1459TIP3   OH225935   0.182   1.851   0.344  0.2240 -0.2610 -0.1688
 1459TIP3    H125936   0.103   1.813   0.305  0.5086  0.2018 -1.2161
 1459TIP3    H225937   0.238   1.872   0.270 -0.0003  2.4366  0.3168
 1460TIP3   OH225938   5.539   5.144   6.561  0.5486 -0.1455  0.7477
 1460TIP3    H125939   5.605   5.211   6.541  0.5436 -0.2770  0.2784
 1460TIP3    H225940   5.455   5.186   6.542  0.5835 -0.5515 -0.3591
 1461TIP3   OH225941   5.634   4.900   0.566  0.1597 -0.1808 -0.3890
 1461TIP3    H125942   5.620   4.963   0.496 -0.6885 -1.5876 -1.5593
 1461TIP3    H225943   5.549   4.894   0.610 -0.4140 -2.0252 -1.6532
 1462TIP3   OH225944   4.086   4.948   6.903 -0.4610 -0.4909 -0.0315
 1462TIP3    H125945   4.038   4.977   6.825  0.7921  0.0437 -0.6273
 1462TIP3    H225946   4.020   4.945   6.972 -1.3416  0.2740 -0.8157
 1463TIP3   OH225947   2.660   2.622   0.406 -0.6385  0.3329 -0.2678
 1463TIP3    H125948   2.705   2.551   0.359  1.6532  1.6181 -0.1432
 1463TIP3    H225949   2.673   2.601   0.498 -0.5187  0.5974 -0.2266
 1464TIP3   OH225950   2.430   4.430   1.179 -0.3730 -0.6519 -0.0406
 1464TIP3    H125951   2.434   4.351   1.232  0.6085 -1.2735 -1.0135
 1464TIP3    H225952   2.518   4.442   1.145 -0.8445  0.0349 -1.1003
 1465TIP3   OH225953   5.521   0.746   8.228 -0.0209 -0.1473  0.6601
 1465TIP3    H125954   5.505   0.838   8.209  0.9640 -0.0880  0.0394
 1465TIP3    H225955   5.437   0.713   8.262 -0.7525  0.6657 -0.3127
 1466TIP3   OH225956   4.502   6.090   8.151  0.6147 -0.4137 -0.3771
 1466TIP3    H125957   4.581   6.055   8.194  1.0852 -0.4689 -1.2640
 1466TIP3    H225958   4.468   6.016   8.101  0.9705  0.0662 -1.3571
 1467TIP3   OH225959   1.384   5.555   1.659 -0.1858 -0.6936 -0.7732
 1467TIP3    H125960   1.305   5.512   1.625 -2.2543  1.8253  0.5218
 1467TIP3    H225961   1.366   5.566   1.752  0.6412  2.0111 -0.8731
 1468TIP3   OH225962   3.986   6.073   7.604  0.2587  0.2889 -0.7362
 1468TIP3    H125963   3.957   6.115   7.523 -1.8994 -0.2475 -0.2850
 1468TIP3    H225964   3.907   6.035   7.642  1.6116 -1.5476  0.4212
 1469TIP3   OH225965   1.640   6.888   1.196 -0.1621 -0.4273 -0.5525
 1469TIP3    H125966   1.620   6.872   1.288  1.1634  0.3801 -0.0977
 1469TIP3    H225967   1.692   6.813   1.169 -0.5934 -0.6893 -0.6656
 1470TIP3   OH225968   6.114   4.055   1.512 -0.1644  0.0935  0.2327
 1470TIP3    H125969   6.086   3.968   1.541 -1.0345  0.1940 -0.2826
 1470TIP3    H225970   6.143   4.043   1.422  2.1992 -0.1440  0.9595
 1471TIP3   OH225971   4.970   2.024   5.851 -0.4881 -0.1855  0.4314
 1471TIP3    H125972   4.876   2.044   5.853 -0.5797 -0.2404 -1.5345
 1471TIP3    H225973   4.981   1.953   5.915 -2.0033 -1.0047 -0.1743
 1472TIP3   OH225974   6.290   3.864   0.626  0.5415 -0.4603 -0.4885
 1472TIP3    H125975   6.292   3.884   0.533  1.5706 -3.1288 -1.1462
 1472TIP3    H225976   6.197   3.868   0.650  0.2501  0.0844 -1.6503
 1473TIP3   OH225977   6.416   5.704   0.228  0.5767  0.1904 -0.2932
 1473TIP3    H125978   6.470   5.701   0.307 -1.2370 -2.5532  1.0011
 1473TIP3    H225979   6.436   5.788   0.188  3.8793  0.3688  1.4160
 1474TIP3   OH225980   0.535   1.664   0.258 -0.1297  0.1874 -0.2797
 1474TIP3    H125981   0.537   1.750   0.301  2.1021 -0.5541  1.3196
 1474TIP3    H225982   0.578   1.678   0.174 -0.1352  0.7381 -0.1944
 1475TIP3   OH225983   4.590   2.290   1.931 -0.1673  0.1584  0.5344
 1475TIP3    H125984   4.662   2.341   1.968 -0.7390  0.9145  0.6449
 1475TIP3    H225985   4.521   2.295   1.997  0.2037 -1.8547  1.1188
 1476TIP3   OH225986   3.019   6.595   0.942 -1.1192  0.1690  0.3218
 1476TIP3    H125987   2.933   6.637   0.955 -2.4446 -2.2608  0.0167
 1476TIP3    H225988   3.003   6.529   0.875  1.3340  0.4826 -0.6398
 1477TIP3   OH225989   2.090   4.382   0.632  0.6192 -0.1356 -0.5296
 1477TIP3    H125990   2.143   4.347   0.704  2.6634  1.2547 -1.2699
 1477TIP3    H225991   2.033   4.310   0.607 -0.4277 -0.5919  2.6620
 1478TIP3   OH225992   0.002   1.782   7.990 -0.3225  0.2824  0.4905
 1478TIP3    H125993   0.080   1.784   7.935 -0.4552  0.0254  0.2907
 1478TIP3    H225994  -0.023   1.874   8.000 -1.0282  0.2768 -0.9353
 1479TIP3   OH225995   4.311   1.967   2.631  0.7895 -0.6261  0.0125
 1479TIP3    H125996   4.290   1.876   2.654  1.1170 -0.9802 -1.0141
 1479TIP3    H225997   4.244   2.019   2.675  0.6667 -1.3579  0.7139
 1480TIP3   OH225998   6.603   0.011   7.946  0.6740 -0.1784  0.4557
 1480TIP3    H125999   6.629   0.019   8.038  0.2323 -2.7718  0.8992
 1480TIP3    H226000   6.513  -0.023   7.950  1.2536 -1.9876 -0.8727
 1481TIP3   OH226001   2.138   4.419   7.657 -0.4283 -0.8882 -0.1808
 1481TIP3    H126002   2.086   4.356   7.707 -2.5501 -0.2341 -1.4122
 1481TIP3    H226003   2.123   4.394   7.566  0.2003  0.2790 -0.6212
 1482TIP3   OH226004   2.621   5.671   1.046 -0.2984 -0.0622  0.1933
 1482TIP3    H126005   2.626   5.688   1.140 -2.5199 -0.8425  0.5259
 1482TIP3    H226006   2.625   5.757   1.005  2.5788  0.1939  0.8062
 1483TIP3   OH226007   5.121   3.565   7.181 -0.2924  0.2863 -0.0612
 1483TIP3    H126008   5.026   3.578   7.184 -0.1972  0.8898  0.7080
 1483TIP3    H226009   5.146   3.586   7.091 -0.7276  1.3327  0.0550
 1484TIP3   OH226010   3.901   2.899   0.992  0.2189 -0.3138 -0.0545
 1484TIP3    H126011   3.985   2.945   0.986 -0.5370  1.2349  0.7414
 1484TIP3    H226012   3.878   2.904   1.085 -1.5631  0.8260 -0.5071
 1485TIP3   OH226013   5.406   4.743   7.784  0.1948  0.1710 -0.2496
 1485TIP3    H126014   5.317   4.736   7.750 -0.0480 -1.7182  0.6524
 1485TIP3    H226015   5.439   4.826   7.748 -1.9072  0.9227 -0.5890
 1486TIP3   OH226016   1.887   1.881   7.422  0.0957  0.1802 -0.0334
 1486TIP3    H126017   1.934   1.846   7.346 -0.3120 -0.3875 -0.0358
 1486TIP3    H226018   1.950   1.939   7.465  0.2724  0.6353 -0.8950
 1487TIP3   OH226019   5.088   2.476   7.420  0.2003 -0.9894 -0.0131
 1487TIP3    H126020   5.011   2.523   7.451  0.9328  0.0523  0.2604
 1487TIP3    H226021   5.058   2.385   7.411 -0.9347 -0.6863  0.4931
 1488TIP3   OH226022   1.759   5.557   8.244 -0.2703 -0.6255  0.2920
 1488TIP3    H126023   1.690   5.605   8.290  0.4143  0.1234  0.5774
 1488TIP3    H226024   1.840   5.585   8.287  0.3662 -0.1114 -1.1633
 1489TIP3   OH226025   0.743   0.036   0.908  0.1045 -0.3215 -0.1243
 1489TIP3    H126026   0.692   0.039   0.989 -1.6206 -2.3142 -1.0379
 1489TIP3    H226027   0.711   0.109   0.857  1.1779  0.9296  0.9238
 1490TIP3   OH226028   3.076   6.010   0.116  0.2633 -0.2702 -0.4801
 1490TIP3    H126029   3.017   5.982   0.186  1.2231  1.0535  0.9247
 1490TIP3    H226030   3.127   5.932   0.095 -1.4602 -1.2519 -1.2439
 1491TIP3   OH226031   4.779   5.915   1.111 -0.1483 -0.2259 -0.1328
 1491TIP3    H126032   4.732   5.998   1.108 -0.4474 -0.4059 -1.0996
 1491TIP3    H226033   4.795   5.894   1.019  1.5643 -0.3341  0.1605
 1492TIP3   OH226034   0.531   3.061   0.236 -0.2532 -0.5258  0.1176
 1492TIP3    H126035   0.541   2.979   0.188 -0.2278  0.2989 -1.3671
 1492TIP3    H226036   0.538   3.129   0.168  0.4178  0.7321  1.3925
 1493TIP3   OH226037   6.306   3.478   6.204  0.1079  0.0875 -0.5277
 1493TIP3    H126038   6.400   3.460   6.207 -0.0125 -0.4137  0.4178
 1493TIP3    H226039   6.270   3.429   6.277 -0.6539  1.7221  0.2472
 1494TIP3   OH226040   3.892   2.203   7.013  0.5930 -0.1764  0.4594
 1494TIP3    H126041   3.870   2.156   6.933 -2.0232  1.3495  0.1708
 1494TIP3    H226042   3.876   2.140   7.084  1.1444 -0.9650 -0.1070
 1495TIP3   OH226043   3.115   3.752   0.461 -0.3399  0.2126 -0.0127
 1495TIP3    H126044   3.058   3.725   0.389 -0.7850 -0.9045  0.7269
 1495TIP3    H226045   3.070   3.720   0.540 -0.0518  1.7080  0.8015
 1496TIP3   OH226046   6.511   2.854   7.136  0.0968  0.4852 -0.5565
 1496TIP3    H126047   6.590   2.800   7.142 -0.5340 -0.4486 -0.3031
 1496TIP3    H226048   6.522   2.921   7.203  0.4273  0.0175 -0.1357
 1497TIP3   OH226049   1.757   6.543   6.772  0.0372 -0.0402  0.5846
 1497TIP3    H126050   1.752   6.557   6.867 -0.0550  2.2956  0.2817
 1497TIP3    H226051   1.848   6.564   6.750 -0.3186  0.9096 -0.0283
 1498TIP3   OH226052   5.887   6.517   0.453 -0.1416  0.4797  0.2162
 1498TIP3    H126053   5.845   6.431   0.458  1.2656 -0.1776  1.5464
 1498TIP3    H226054   5.817   6.579   0.475 -1.6908 -0.0680 -2.6858
 1499TIP3   OH226055   6.014   3.291   7.169 -0.3193 -0.2450 -0.3467
 1499TIP3    H126056   6.064   3.317   7.091 -2.9887 -0.9491 -2.4266
 1499TIP3    H226057   5.923   3.294   7.142 -1.3058 -1.8339  2.3802
 1500TIP3   OH226058   5.705   1.880   7.458  0.7577  0.1427 -0.3367
 1500TIP3    H126059   5.785   1.904   7.504 -0.0846  0.8714  0.7944
 1500TIP3    H226060   5.644   1.852   7.526  0.1964 -0.9145 -1.2216
 1501TIP3   OH226061   6.106   0.212   0.857  0.0457  0.0037  0.7552
 1501TIP3    H126062   6.177   0.170   0.809 -1.3224 -0.5739 -0.8640
 1501TIP3    H226063   6.053   0.140   0.891 -1.7658  0.3172 -1.1939
 1502TIP3   OH226064   3.919   2.626   6.395  0.6086 -0.4242 -0.2301
 1502TIP3    H126065   3.865   2.588   6.325 -0.9743 -3.1358  2.2587
 1502TIP3    H226066   3.857   2.651   6.463  2.1984  0.7807  0.8627
 1503TIP3   OH226067   1.096   2.404   6.622 -0.1535 -0.0822  0.1124
 1503TIP3    H126068   1.156   2.380   6.552  0.6537 -1.0179  1.1024
 1503TIP3    H226069   1.068   2.321   6.660 -0.8249  0.4030  0.7084
 1504TIP3   OH226070   1.322   2.157   8.465  0.2186 -0.4442 -0.2978
 1504TIP3    H126071   1.363   2.171   8.380 -1.2081 -2.5682 -1.4114
 1504TIP3    H226072   1.278   2.072   8.458 -2.3037  0.5465  1.5885
 1505TIP3   OH226073   0.563   4.466   1.438  0.6275  0.0523 -0.3945
 1505TIP3    H126074   0.576   4.401   1.369  0.5907 -1.0106  0.5586
 1505TIP3    H226075   0.476   4.502   1.422  0.0273 -1.2062 -0.1190
 1506TIP3   OH226076   6.601   5.759   0.401  1.0378  0.5004 -0.2264
 1506TIP3    H126077   6.623   5.707   0.478  0.1982  0.5889  0.0837
 1506TIP3    H226078   6.571   5.843   0.437  0.1274  0.3542 -0.6182
 1507TIP3   OH226079   1.052   0.807   7.630 -0.1675 -0.2975  0.7476
 1507TIP3    H126080   1.112   0.783   7.560  0.1739 -0.5262  1.1096
 1507TIP3    H226081   1.007   0.726   7.653  0.7252 -0.5396  1.7265
 1508TIP3   OH226082   4.563   0.522   8.037 -0.1754 -0.3720 -0.1306
 1508TIP3    H126083   4.632   0.499   8.099 -0.4224 -1.1192 -0.1171
 1508TIP3    H226084   4.495   0.456   8.052 -1.3991  1.0201  0.6577
 1509TIP3   OH226085   6.371   2.548   1.606 -0.2099  0.2610 -0.1794
 1509TIP3    H126086   6.328   2.463   1.611  0.2016  0.0281 -0.4910
 1509TIP3    H226087   6.375   2.578   1.696  0.0811 -0.2835 -0.0010
 1510TIP3   OH226088   1.678   4.188   7.544  0.0473  0.0603 -0.0103
 1510TIP3    H126089   1.614   4.184   7.474 -1.5909  0.8033  1.3623
 1510TIP3    H226090   1.699   4.096   7.564 -1.3524 -0.2312  0.1720
 1511TIP3   OH226091   4.886   3.151   1.679  0.3430  0.2786  0.0443
 1511TIP3    H126092   4.942   3.229   1.668  0.1365  0.7591  2.0627
 1511TIP3    H226093   4.802   3.177   1.643  1.1715 -0.2353 -2.4498
 1512TIP3   OH226094   2.703   5.827   0.378 -0.2909  0.3206  0.0127
 1512TIP3    H126095   2.705   5.767   0.453 -2.0636  1.5118  1.0916
 1512TIP3    H226096   2.719   5.771   0.302  1.4784 -0.9367  1.2347
 1513TIP3   OH226097   2.423   3.606   8.149  0.1169 -0.8193 -0.2869
 1513TIP3    H126098   2.503   3.658   8.139 -1.8161  2.5749  0.4861
 1513TIP3    H226099   2.434   3.559   8.232  0.9931  0.2167  0.1987
 1514TIP3   OH226100   4.596   6.587   8.273  0.0717 -0.0286  0.0725
 1514TIP3    H126101   4.521   6.530   8.259 -1.1994  1.3445  0.9480
 1514TIP3    H226102   4.634   6.559   8.356 -0.9183  0.7629  0.8058
 1515TIP3   OH226103   6.235   5.978   0.223  0.1873  0.4441 -0.4440
 1515TIP3    H126104   6.272   5.976   0.311  2.5451  1.0177 -1.3464
 1515TIP3    H226105   6.210   6.070   0.210 -0.3615  0.3167 -0.3072
 1516TIP3   OH226106   5.530   4.138   8.306 -0.3852 -0.2220  0.2945
 1516TIP3    H126107   5.625   4.131   8.292 -0.2377  0.8069  0.6953
 1516TIP3    H226108   5.493   4.073   8.246  0.5378 -0.2411 -0.2926
 1517TIP3   OH226109   1.646   2.539   0.621  0.6548 -0.4400 -0.0146
 1517TIP3    H126110   1.695   2.617   0.649  0.0169  0.2205 -0.7028
 1517TIP3    H226111   1.583   2.524   0.691  0.4694 -0.0592 -0.0995
 1518TIP3   OH226112   5.494   3.457   7.206  0.2403 -0.2771 -0.3702
 1518TIP3    H126113   5.579   3.444   7.164 -0.1521  0.6232 -1.4940
 1518TIP3    H226114   5.471   3.548   7.187 -1.3536 -0.7323 -0.7999
 1519TIP3   OH226115   6.308   6.875   2.153 -0.2486 -0.0360 -0.4815
 1519TIP3    H126116   6.368   6.820   2.203 -0.2549  0.8350  0.5180
 1519TIP3    H226117   6.341   6.873   2.064  1.0982  0.1976 -0.0020
 1520TIP3   OH226118   4.883   6.274   0.724  0.0285  0.1853 -0.3592
 1520TIP3    H126119   4.959   6.246   0.674  1.8908  0.6873  1.9493
 1520TIP3    H226120   4.919   6.332   0.792 -2.6444  1.8394 -0.1721
 1521TIP3   OH226121   5.817   4.544   7.564  0.1148  0.3674  0.1007
 1521TIP3    H126122   5.806   4.490   7.486  2.5902 -0.4194  0.2361
 1521TIP3    H226123   5.741   4.523   7.618 -0.5607 -0.6287 -1.1734
 1522TIP3   OH226124   1.169   6.153   6.156 -0.0275 -0.0540 -0.1173
 1522TIP3    H126125   1.117   6.078   6.128 -0.9862  1.1415 -1.6738
 1522TIP3    H226126   1.108   6.226   6.157  0.9885  0.8220  0.9168
 1523TIP3   OH226127   6.468   4.078   1.639  0.0214  0.0753  0.2910
 1523TIP3    H126128   6.562   4.096   1.645  0.1911 -0.5009 -0.3894
 1523TIP3    H226129   6.463   3.983   1.626 -0.6113  0.2002 -0.4715
 1524TIP3   OH226130   1.635   4.614   0.242  0.1436 -0.0546 -0.5556
 1524TIP3    H126131   1.541   4.609   0.258  0.1580  1.5802  0.1876
 1524TIP3    H226132   1.668   4.527   0.266 -0.8677  0.0740  1.5245
 1525TIP3   OH226133   6.204   3.256   0.819 -0.2821  0.1535  0.6178
 1525TIP3    H126134   6.269   3.323   0.798  1.0606 -1.5437 -1.0330
 1525TIP3    H226135   6.241   3.209   0.893  0.6190 -1.0196 -0.5254
 1526TIP3   OH226136   0.852   4.037   2.039  0.2781 -0.4435 -0.0080
 1526TIP3    H126137   0.854   4.126   2.003 -3.0030  0.0538  0.7497
 1526TIP3    H226138   0.917   4.039   2.109  0.2948  1.3754 -0.0263
 1527TIP3   OH226139   6.672   1.139   7.526 -0.3949 -0.0834  0.0061
 1527TIP3    H126140   6.719   1.203   7.472  1.2471 -2.5862 -1.7535
 1527TIP3    H226141   6.630   1.192   7.594 -0.0414  2.9490 -1.9067
 1528TIP3   OH226142   0.826   6.152   8.039 -0.0656  0.7800 -0.0458
 1528TIP3    H126143   0.904   6.135   8.092 -0.8493 -0.9902  0.6148
 1528TIP3    H226144   0.844   6.107   7.956 -1.0055 -1.0996  0.7059
 1529TIP3   OH226145   6.470   0.194   7.384  0.7461 -0.1908 -0.1449
 1529TIP3    H126146   6.529   0.213   7.456  0.3218 -1.2704  0.5120
 1529TIP3    H226147   6.451   0.101   7.392 -0.4382 -0.0337 -0.7831
 1530TIP3   OH226148   2.507   0.567   0.975 -0.1825 -0.0734 -0.7097
 1530TIP3    H126149   2.416   0.549   1.000 -0.1071 -0.6094 -0.8032
 1530TIP3    H226150   2.537   0.485   0.935  0.6188 -0.2157  0.1419
 1531TIP3   OH226151   2.266   3.972   0.508 -0.5603 -0.1914 -0.0297
 1531TIP3    H126152   2.175   3.950   0.488 -0.2922 -0.9713 -0.4697
 1531TIP3    H226153   2.281   3.935   0.596  0.0246 -2.3486 -0.9519
 1532TIP3   OH226154   1.169   5.475   6.879 -0.1437  0.4814 -0.1589
 1532TIP3    H126155   1.209   5.404   6.829  1.1216  1.0974 -0.0480
 1532TIP3    H226156   1.118   5.524   6.814 -2.4910 -1.4710  0.0581
 1533TIP3   OH226157   1.543   4.117   0.690  0.0734  0.5049 -0.1467
 1533TIP3    H126158   1.621   4.062   0.701  0.2940  1.1819  2.2137
 1533TIP3    H226159   1.498   4.113   0.775 -2.4712  0.1878 -1.4114
 1534TIP3   OH226160   5.785   1.996   1.000  0.1543  0.2842  0.6349
 1534TIP3    H126161   5.757   2.087   0.994  0.1242  0.4254  2.4503
 1534TIP3    H226162   5.875   2.000   1.032  0.4011 -0.3208  0.0528
 1535TIP3   OH226163   3.474   0.491   2.180  0.8794  0.1265 -0.2300
 1535TIP3    H126164   3.433   0.573   2.208  0.1070  0.3661 -1.9576
 1535TIP3    H226165   3.557   0.518   2.141  0.4242  0.1503 -1.2033
 1536TIP3   OH226166   6.571   6.141   6.137 -0.2542 -0.8665 -0.5332
 1536TIP3    H126167   6.487   6.152   6.181 -0.1541 -1.5341 -0.1550
 1536TIP3    H226168   6.586   6.046   6.139 -0.6551 -1.0191 -2.7727
 1537TIP3   OH226169   4.918   3.316   1.337 -0.0473  0.3358  0.1102
 1537TIP3    H126170   4.899   3.351   1.424  1.8122  1.0271  0.2658
 1537TIP3    H226171   4.874   3.231   1.336  0.6603 -0.1149  2.0831
 1538TIP3   OH226172   3.121   1.706   0.522 -0.1509  0.4769 -0.0004
 1538TIP3    H126173   3.183   1.756   0.575 -0.6832  1.1995 -0.0364
 1538TIP3    H226174   3.037   1.749   0.537 -0.6451 -0.4911  0.0519
 1539TIP3   OH226175   3.172   5.748   0.077 -0.5841  0.5845  0.4689
 1539TIP3    H126176   3.266   5.767   0.068 -0.4067  0.1155  1.3093
 1539TIP3    H226177   3.141   5.743  -0.014  0.4954 -0.6812  0.1333
 1540TIP3   OH226178   4.215   0.211   6.142  0.6483  0.0667 -0.4428
 1540TIP3    H126179   4.306   0.225   6.116  0.2097  1.3692 -1.3604
 1540TIP3    H226180   4.170   0.291   6.117 -0.5316 -0.0739  1.1182
 1541TIP3   OH226181   6.880   3.014   0.079  0.1790 -0.4540  0.5441
 1541TIP3    H126182   6.952   2.986   0.023 -0.3898  0.5805 -0.7534
 1541TIP3    H226183   6.868   2.942   0.141  0.0698 -2.2073 -1.4047
 1542TIP3   OH226184   2.423   0.495   1.528 -0.1304  0.0357 -0.4820
 1542TIP3    H126185   2.409   0.590   1.531  0.5772  0.1651 -1.0712
 1542TIP3    H226186   2.514   0.484   1.555 -0.2370 -0.4881 -0.3368
 1543TIP3   OH226187   1.708   5.551   0.917  0.1402 -0.1896  0.1936
 1543TIP3    H126188   1.696   5.457   0.901 -0.6859 -0.2396  1.0374
 1543TIP3    H226189   1.803   5.564   0.909  0.1399 -0.8684 -1.0797
 1544TIP3   OH226190   6.028   3.788   1.623  0.0514 -0.6993  0.6186
 1544TIP3    H126191   6.095   3.721   1.638  1.3408  0.4480  0.2690
 1544TIP3    H226192   5.951   3.739   1.594  1.3790 -1.9658 -1.0100
 1545TIP3   OH226193   0.469   2.533   0.533  0.4242  0.0384  0.3472
 1545TIP3    H126194   0.544   2.505   0.586  1.5287  1.6854 -0.2683
 1545TIP3    H226195   0.508   2.560   0.449 -1.1801 -1.7056 -1.0647
 1546TIP3   OH226196   5.845   5.755   7.871 -0.6193  0.2039  0.2527
 1546TIP3    H126197   5.879   5.757   7.781  0.4653 -1.3440  0.5984
 1546TIP3    H226198   5.782   5.684   7.872 -0.4024  0.0108  0.7880
 1547TIP3   OH226199   4.810   6.495   7.247 -0.3650 -0.0788  0.3847
 1547TIP3    H126200   4.795   6.588   7.264 -1.9997 -0.0122 -1.1640
 1547TIP3    H226201   4.873   6.493   7.175 -0.9636 -0.1326 -0.1469
 1548TIP3   OH226202   6.286   5.551   7.996 -0.2535 -0.1146  0.1795
 1548TIP3    H126203   6.238   5.526   8.075 -0.0840 -1.0116  0.0036
 1548TIP3    H226204   6.261   5.485   7.931 -1.2758  1.2315 -0.8713
 1549TIP3   OH226205   3.917   2.348   1.462 -0.1154  0.2095 -0.8332
 1549TIP3    H126206   3.997   2.351   1.409  0.6290  1.0319  0.2998
 1549TIP3    H226207   3.892   2.440   1.472  0.0715  0.1083  0.6873
 1550TIP3   OH226208   6.800   1.566   8.346 -0.3622  0.5554  0.5058
 1550TIP3    H126209   6.885   1.521   8.343 -0.4554  0.4304 -1.2668
 1550TIP3    H226210   6.813   1.638   8.407  1.7710  1.9428 -1.4234
 1551TIP3   OH226211   1.054   0.286   6.556 -0.3005 -0.1441 -0.0665
 1551TIP3    H126212   1.105   0.336   6.493 -0.6203  0.4469  0.1377
 1551TIP3    H226213   0.964   0.287   6.521 -0.0741 -1.7844 -0.8013
 1552TIP3   OH226214   1.771   4.452   6.739 -0.6263 -0.2374 -0.1553
 1552TIP3    H126215   1.792   4.389   6.808 -0.0607  0.6497  0.5192
 1552TIP3    H226216   1.680   4.475   6.754  0.1586  1.9195  2.0386
 1553TIP3   OH226217   6.175   2.690   6.853 -0.1300 -0.4395  0.0489
 1553TIP3    H126218   6.131   2.605   6.843 -1.3490  0.0811  0.8361
 1553TIP3    H226219   6.218   2.685   6.938  0.7299 -0.6513 -0.3786
 1554TIP3   OH226220   3.795   0.088   2.684 -0.0138  0.2532 -0.2082
 1554TIP3    H126221   3.704   0.070   2.659  0.1636 -1.4247  0.1768
 1554TIP3    H226222   3.833   0.131   2.608 -1.0980  0.8599 -0.4244
 1555TIP3   OH226223   5.044   5.446   0.286  0.0367 -0.1067 -0.0735
 1555TIP3    H126224   4.974   5.387   0.257 -0.0925  0.0170 -0.0153
 1555TIP3    H226225   5.121   5.390   0.294 -0.2308 -0.3889  0.5591
 1556TIP3   OH226226   6.048   1.701   0.237  0.6845  0.1066  0.1369
 1556TIP3    H126227   5.988   1.637   0.274  0.4899  0.7940  1.0531
 1556TIP3    H226228   5.997   1.748   0.172  1.0135 -1.0757 -1.0203
 1557TIP3   OH226229   3.154   1.559   8.549  0.0801 -0.5000  0.0068
 1557TIP3    H126230   3.094   1.586   8.619  1.0500  0.1564  0.6020
 1557TIP3    H226231   3.230   1.615   8.559  0.3134 -0.5002 -1.4982
 1558TIP3   OH226232   1.864   3.703   1.341 -0.0808  0.4538  0.0753
 1558TIP3    H126233   1.800   3.631   1.339 -0.6264  0.9133  0.4552
 1558TIP3    H226234   1.949   3.660   1.339 -0.3988 -0.1791 -0.3317
 1559TIP3   OH226235   0.345   5.014   1.194  0.4175 -0.1593  0.1053
 1559TIP3    H126236   0.325   5.020   1.287  1.7127  0.8798  0.3351
 1559TIP3    H226237   0.415   4.950   1.188 -0.4858 -1.1382 -0.3101
 1560TIP3   OH226238   6.322   6.441   7.734  0.2336 -0.1445  0.7310
 1560TIP3    H126239   6.260   6.515   7.737 -0.0238 -0.3834  1.5609
 1560TIP3    H226240   6.269   6.365   7.759  0.6963 -0.4790  0.6950
 1561TIP3   OH226241   6.101   3.412   8.381  0.3524  0.5277  0.0851
 1561TIP3    H126242   6.180   3.361   8.397 -0.8678 -1.1188  1.0286
 1561TIP3    H226243   6.108   3.487   8.440  1.8119  1.1250 -0.7970
 1562TIP3   OH226244   5.827   0.239   0.462 -0.5499  0.5298 -0.3724
 1562TIP3    H126245   5.842   0.333   0.460 -0.6061  0.5318 -1.6500
 1562TIP3    H226246   5.754   0.227   0.522 -0.1086  1.2331  0.3172
 1563TIP3   OH226247   1.007   5.092   2.057 -0.0303 -0.1862  0.0430
 1563TIP3    H126248   1.037   5.025   1.996 -1.2138  0.2041 -1.0146
 1563TIP3    H226249   0.957   5.044   2.123 -2.6496 -0.2502 -1.8275
 1564TIP3   OH226250   2.263   6.149   1.507  0.1158  0.3155 -0.1826
 1564TIP3    H126251   2.219   6.077   1.552  0.8883  0.4902  0.8950
 1564TIP3    H226252   2.282   6.213   1.576  1.0888  0.7128 -0.7966
 1565TIP3   OH226253   2.136   6.590   1.483  0.2848 -0.9450  0.5488
 1565TIP3    H126254   2.099   6.628   1.563 -1.1103 -1.0466 -0.0194
 1565TIP3    H226255   2.080   6.515   1.465  0.7851 -1.1080 -0.3563
 1566TIP3   OH226256   6.587   1.025   5.888  0.2010  0.5516  0.0849
 1566TIP3    H126257   6.618   0.953   5.832  0.0158 -0.5571  1.3413
 1566TIP3    H226258   6.607   0.995   5.977 -0.6353  1.7118  0.6757
 1567TIP3   OH226259   1.290   2.767   2.182 -0.1800  0.3443  0.1812
 1567TIP3    H126260   1.292   2.672   2.197  0.2000  0.2751 -0.2604
 1567TIP3    H226261   1.206   2.795   2.218  1.0453  0.3843  3.3110
 1568TIP3   OH226262   6.177   0.483   6.983 -0.2412  0.0163  0.0696
 1568TIP3    H126263   6.095   0.473   7.031 -0.6135  0.4175 -0.4616
 1568TIP3    H226264   6.182   0.406   6.926 -1.0359  0.7287 -1.0151
 1569TIP3   OH226265   0.939   4.504   7.654  0.1028  0.1856 -0.0012
 1569TIP3    H126266   1.007   4.442   7.627 -0.4912 -0.7632  0.6331
 1569TIP3    H226267   0.858   4.454   7.649 -0.5334  1.2511 -0.5488
 1570TIP3   OH226268   6.374   0.107   0.948 -0.5412  0.0965 -0.5470
 1570TIP3    H126269   6.301   0.088   1.007 -0.7021 -1.2505 -1.1423
 1570TIP3    H226270   6.437   0.037   0.965 -0.3068  0.0694 -1.5024
 1571TIP3   OH226271   0.916   1.382   0.946 -0.9322  0.1621  0.1744
 1571TIP3    H126272   0.843   1.402   1.005 -0.2051  1.2483  0.7267
 1571TIP3    H226273   0.876   1.384   0.859 -2.4032 -3.1919  0.6261
 1572TIP3   OH226274   4.251   4.945   1.584  0.3628  0.2428 -0.0517
 1572TIP3    H126275   4.337   4.950   1.540  0.5576 -2.9060 -0.2683
 1572TIP3    H226276   4.188   4.955   1.513  0.6305 -0.9756 -0.4805
 1573TIP3   OH226277   6.354   1.668   2.000 -0.8147  0.2265  0.5988
 1573TIP3    H126278   6.392   1.587   2.035  1.6458  1.0077 -0.0770
 1573TIP3    H226279   6.261   1.662   2.022 -0.1574 -1.2620  3.4557
 1574TIP3   OH226280   1.071   2.444   1.349 -0.1058  0.3183  0.0468
 1574TIP3    H126281   0.981   2.473   1.338 -0.5142 -0.5333  0.9598
 1574TIP3    H226282   1.069   2.386   1.424  1.3640  0.9157  0.5968
 1575TIP3   OH226283   2.613   3.202   0.877  0.5752  0.6157  0.2240
 1575TIP3    H126284   2.642   3.150   0.952  0.2267 -0.3050 -0.2706
 1575TIP3    H226285   2.582   3.138   0.813  2.6644  1.2418 -1.5375
 1576TIP3   OH226286   4.555   6.822   7.439 -0.3820  0.0520 -0.3404
 1576TIP3    H126287   4.497   6.888   7.402 -0.6861 -1.1312 -2.1205
 1576TIP3    H226288   4.542   6.827   7.533  0.1601  2.9949 -0.3479
 1577TIP3   OH226289   2.400   5.646   7.153 -0.3271 -0.5780 -0.2822
 1577TIP3    H126290   2.392   5.735   7.119 -0.3405 -1.2338 -2.1284
 1577TIP3    H226291   2.494   5.637   7.172 -0.0953 -0.5555 -1.3221
 1578TIP3   OH226292   2.915   0.864   1.983 -0.2409 -0.4179 -0.2996
 1578TIP3    H126293   2.940   0.955   2.000 -1.7393 -0.4339  2.6830
 1578TIP3    H226294   2.976   0.813   2.037 -2.5342 -0.7795  2.1442
 1579TIP3   OH226295   1.366   1.771   1.646  0.4319  0.1216 -0.5801
 1579TIP3    H126296   1.318   1.709   1.699 -2.0478  1.6822 -0.8429
 1579TIP3    H226297   1.320   1.854   1.658  3.5994  2.0100 -0.1747
 1580TIP3   OH226298   2.663   5.909   8.031 -0.1552 -0.2672  0.9018
 1580TIP3    H126299   2.727   5.888   8.099  1.0176  0.2107 -0.0191
 1580TIP3    H226300   2.715   5.921   7.951 -1.4475 -0.4075 -0.0093
 1581TIP3   OH226301   6.123   0.092   7.826  0.3215 -0.1786  0.1883
 1581TIP3    H126302   6.151   0.177   7.861  2.4336 -1.4659  1.9439
 1581TIP3    H226303   6.144   0.096   7.733 -0.9578  1.6885 -0.0619
 1582TIP3   OH226304   1.506   6.162   8.265  0.1343 -0.0963 -0.2961
 1582TIP3    H126305   1.571   6.210   8.215  1.2827  1.0501  2.1304
 1582TIP3    H226306   1.423   6.207   8.245  0.7508  1.0901 -0.3048
 1583TIP3   OH226307   3.394   1.090   8.047 -0.1007  0.4134  0.1324
 1583TIP3    H126308   3.319   1.036   8.070  0.4079 -0.0736  0.6957
 1583TIP3    H226309   3.365   1.142   7.973 -1.0380  0.3380  0.4418
 1584TIP3   OH226310   4.759   0.698   2.156 -0.1309  0.2226 -0.3949
 1584TIP3    H126311   4.739   0.737   2.071  0.4761 -0.7623 -1.0070
 1584TIP3    H226312   4.791   0.611   2.136 -0.9743 -0.4340  0.9104
 1585TIP3   OH226313   6.650   5.747   7.861  0.6100  0.1876  0.0868
 1585TIP3    H126314   6.642   5.715   7.772  0.3639  0.5905 -0.0370
 1585TIP3    H226315   6.697   5.677   7.908 -1.9956 -1.4575  0.4049
 1586TIP3   OH226316   4.967   4.880   1.210  0.7317 -0.8254 -0.0612
 1586TIP3    H126317   4.875   4.894   1.231  0.8964  1.4900 -0.5569
 1586TIP3    H226318   5.015   4.923   1.280  1.2887  3.3463 -2.6227
 1587TIP3   OH226319   5.469   0.996   8.485  0.1049  0.0477  0.1017
 1587TIP3    H126320   5.517   0.944   8.550  0.8178  1.4976  0.7947
 1587TIP3    H226321   5.416   1.056   8.537 -0.6221  0.0941 -0.6768
 1588TIP3   OH226322   4.908   3.309   7.307  0.7963 -0.6608  0.1653
 1588TIP3    H126323   4.990   3.266   7.285  0.4739 -1.7116  0.9192
 1588TIP3    H226324   4.840   3.251   7.272  0.3437  0.5100 -1.0234
 1589TIP3   OH226325   0.483   2.397   6.089  0.1362  0.4030  0.1678
 1589TIP3    H126326   0.405   2.344   6.078 -0.4770  0.8646  1.9739
 1589TIP3    H226327   0.452   2.488   6.086  0.4516  0.5809  1.6743
 1590TIP3   OH226328   6.173   0.950   0.217 -0.5505 -0.0309  0.1765
 1590TIP3    H126329   6.235   0.913   0.154 -0.8601 -2.3595  1.1371
 1590TIP3    H226330   6.155   1.038   0.184  0.0488 -0.7974 -2.4358
 1591TIP3   OH226331   5.487   3.525   6.751 -0.0006 -0.2965 -0.2280
 1591TIP3    H126332   5.459   3.552   6.663 -0.3942 -0.6025 -0.1968
 1591TIP3    H226333   5.472   3.603   6.805 -0.4930 -0.3540 -0.2770
 1592TIP3   OH226334   1.566   0.544   0.375  0.0112 -0.5622  0.3493
 1592TIP3    H126335   1.599   0.516   0.290  1.0885 -1.6522  1.0928
 1592TIP3    H226336   1.569   0.640   0.371  0.7356 -0.6078 -0.5919
 1593TIP3   OH226337   4.052   3.583   8.296  0.2748  0.1516 -0.1315
 1593TIP3    H126338   4.106   3.658   8.322 -0.2094  1.0402 -1.5754
 1593TIP3    H226339   4.029   3.540   8.378  0.6515  1.5233  0.7156
 1594TIP3   OH226340   3.153   2.468   6.854 -0.9525 -0.1916 -0.1700
 1594TIP3    H126341   3.086   2.427   6.908 -0.0525  0.0971  1.2003
 1594TIP3    H226342   3.124   2.452   6.764 -1.4143 -2.5252  0.3291
 1595TIP3   OH226343   5.502   3.737   7.442 -0.1209  0.6963 -0.3802
 1595TIP3    H126344   5.532   3.787   7.518 -1.0299  0.6220  0.0429
 1595TIP3    H226345   5.489   3.648   7.475  0.5190  0.4054 -0.8897
 1596TIP3   OH226346   5.379   3.351   2.353  0.4911  0.5478 -0.3584
 1596TIP3    H126347   5.284   3.347   2.343  0.5820  1.2242 -1.7150
 1596TIP3    H226348   5.396   3.440   2.385  0.5866 -0.0761  1.4828
 1597TIP3   OH226349   1.725   1.149   7.645  0.2434  0.4659  0.0586
 1597TIP3    H126350   1.786   1.217   7.617  1.4453  0.4261  2.3455
 1597TIP3    H226351   1.654   1.196   7.688 -1.3911  0.4990 -2.4505
 1598TIP3   OH226352   4.559   4.462   0.732 -0.1683  0.0991  0.2076
 1598TIP3    H126353   4.621   4.485   0.801  0.1086  0.2186 -0.0792
 1598TIP3    H226354   4.473   4.481   0.769  0.0192  0.8730  0.2558
 1599TIP3   OH226355   2.637   0.174   0.812 -0.3200 -0.2396 -0.5089
 1599TIP3    H126356   2.702   0.137   0.752  0.0457 -0.1123 -0.1951
 1599TIP3    H226357   2.597   0.098   0.854 -0.3008 -0.3145 -0.6251
 1600TIP3   OH226358   0.820   2.505   7.813 -0.1184  0.3259  0.1750
 1600TIP3    H126359   0.833   2.472   7.901 -1.8622  0.8048  0.6460
 1600TIP3    H226360   0.906   2.494   7.770  0.0230 -2.5457  1.0021
 1601TIP3   OH226361   3.039   3.538   6.035 -0.3822  0.2588 -0.0373
 1601TIP3    H126362   3.132   3.529   6.014 -0.5024 -1.2201 -0.0209
 1601TIP3    H226363   3.022   3.470   6.099 -1.9579 -1.0416 -1.7225
 1602TIP3   OH226364   1.855   0.553   8.006 -0.2986 -0.0985 -0.1852
 1602TIP3    H126365   1.811   0.561   8.090  0.8086  0.2583  0.3797
 1602TIP3    H226366   1.934   0.503   8.025 -0.4889 -0.8299 -1.1963
 1603TIP3   OH226367   2.383   1.540   7.467  0.1781  0.1820  0.0653
 1603TIP3    H126368   2.310   1.576   7.517  0.5803  0.4459  0.4727
 1603TIP3    H226369   2.449   1.609   7.467  0.2313  0.1475 -0.7467
 1604TIP3   OH226370   4.897   1.036   1.924 -0.7813  0.0608 -0.2397
 1604TIP3    H126371   4.908   1.121   1.882  1.8179  0.1318  0.4094
 1604TIP3    H226372   4.894   1.056   2.018 -0.3751 -0.5078 -0.0963
 1605TIP3   OH226373   0.987   5.281   6.874  0.4625 -0.1920 -0.6281
 1605TIP3    H126374   1.043   5.218   6.920  0.3411  1.0496  1.3115
 1605TIP3    H226375   1.027   5.366   6.891 -0.4411  0.4634 -1.6182
 1606TIP3   OH226376   6.306   2.226   2.485 -0.0140 -0.2748  0.2701
 1606TIP3    H126377   6.308   2.302   2.544  1.5630  0.3208 -0.4643
 1606TIP3    H226378   6.397   2.194   2.485  0.6609  1.1049 -3.4176
 1607TIP3   OH226379   5.404   4.087   7.087 -0.2883 -0.0135 -0.0494
 1607TIP3    H126380   5.334   4.107   7.149  0.6237 -0.4191  1.1605
 1607TIP3    H226381   5.430   3.998   7.110  1.3641  0.5309  0.2726
 1608TIP3   OH226382   3.487   6.167   6.067 -0.3745  0.3759 -0.5107
 1608TIP3    H126383   3.518   6.093   6.119 -0.5420 -0.1250 -1.1201
 1608TIP3    H226384   3.453   6.229   6.131  1.9579  1.0080  0.2353
 1609TIP3   OH226385   4.966   4.143   2.383  0.3706 -0.3126 -0.0615
 1609TIP3    H126386   5.010   4.199   2.447 -0.3395  0.7496 -0.4876
 1609TIP3    H226387   4.929   4.072   2.435  0.3732  0.1773  0.6289
 1610TIP3   OH226388   2.653   4.676   0.750  0.3674 -0.4176  0.4264
 1610TIP3    H126389   2.612   4.762   0.739 -0.3603 -0.6045  1.5339
 1610TIP3    H226390   2.740   4.686   0.710 -0.0335  0.5576 -0.2568
 1611TIP3   OH226391   3.477   0.700   2.409 -0.2903  0.6876 -0.0664
 1611TIP3    H126392   3.516   0.618   2.439  0.7311  0.2989 -2.3194
 1611TIP3    H226393   3.512   0.767   2.469 -0.2468 -0.3393  1.0878
 1612TIP3   OH226394   4.335   1.574   0.683  0.0926 -0.7007 -0.2245
 1612TIP3    H126395   4.263   1.526   0.723 -1.2360 -0.4235 -2.1097
 1612TIP3    H226396   4.327   1.663   0.718 -0.8549 -0.5379 -0.7972
 1613TIP3   OH226397   5.421   1.953   7.300 -0.0831  0.1411 -0.2665
 1613TIP3    H126398   5.368   2.014   7.351  1.0995  0.5384  0.5369
 1613TIP3    H226399   5.369   1.873   7.296 -1.0526  0.7547 -0.1414
 1614TIP3   OH226400   3.075   0.598   1.107  0.3667 -0.0969  0.3226
 1614TIP3    H126401   2.994   0.627   1.149  1.4024 -0.0714  2.4463
 1614TIP3    H226402   3.144   0.619   1.170  1.8509 -1.6535 -0.6799
 1615TIP3   OH226403   1.176   4.983   0.842 -0.1400  0.1209  0.0257
 1615TIP3    H126404   1.229   4.979   0.922  1.0389 -3.7757 -0.7388
 1615TIP3    H226405   1.239   4.976   0.771 -1.4261 -1.4267 -1.0349
 1616TIP3   OH226406   3.702   6.421   8.029  0.3083  0.5824  0.4994
 1616TIP3    H126407   3.753   6.492   7.991 -0.1658  0.5170 -0.2867
 1616TIP3    H226408   3.759   6.345   8.025  1.2095  1.1133  2.3010
 1617TIP3   OH226409   3.863   4.305   0.531 -0.3396 -1.2346  0.5793
 1617TIP3    H126410   3.843   4.273   0.443  1.6946 -0.3469 -0.2634
 1617TIP3    H226411   3.878   4.226   0.583 -0.0270 -1.7417 -0.2725
 1618TIP3   OH226412   0.159   3.685   1.726  0.2652 -0.6851  0.1473
 1618TIP3    H126413   0.094   3.738   1.679  1.4126  0.8257  0.1808
 1618TIP3    H226414   0.178   3.736   1.806  1.6209 -0.9860  0.0380
 1619TIP3   OH226415   2.393   3.150   0.680  0.3211 -0.3158 -0.2939
 1619TIP3    H126416   2.422   3.154   0.589  0.9230  0.2072 -0.0817
 1619TIP3    H226417   2.334   3.224   0.690  0.6247 -0.0971 -0.1287
 1620TIP3   OH226418   3.478   5.912   1.652 -1.2730 -0.1917  0.2697
 1620TIP3    H126419   3.496   5.967   1.728 -1.5511  0.3568 -0.0557
 1620TIP3    H226420   3.438   5.971   1.589 -0.2020 -0.4159 -0.6616
 1621TIP3   OH226421   4.965   4.325   7.888 -0.0355  0.5760  0.0665
 1621TIP3    H126422   5.051   4.330   7.928  0.9613  2.3783 -2.1187
 1621TIP3    H226423   4.972   4.253   7.825  0.8875  2.5020 -2.1545
 1622TIP3   OH226424   1.345   3.425   1.248 -0.1556 -0.0320 -0.1710
 1622TIP3    H126425   1.350   3.521   1.241 -2.4127  0.1942  0.4722
 1622TIP3    H226426   1.311   3.410   1.337 -0.9384 -1.3716 -0.6731
 1623TIP3   OH226427   1.196   4.999   7.819  0.1774  0.0313 -0.4827
 1623TIP3    H126428   1.230   5.002   7.730  2.5508 -1.4650  0.2659
 1623TIP3    H226429   1.178   4.906   7.835 -0.8621  0.3549  0.3995
 1624TIP3   OH226430   4.026   4.549   0.156  0.5101  0.2565 -0.9048
 1624TIP3    H126431   3.999   4.635   0.124 -0.6275  0.4150  0.4048
 1624TIP3    H226432   4.093   4.567   0.222  0.7318  0.0849 -1.0778
 1625TIP3   OH226433   1.342   5.002   1.046  0.3214  0.3045 -0.4166
 1625TIP3    H126434   1.331   5.070   1.112 -0.3203 -1.6527  1.6490
 1625TIP3    H226435   1.421   4.955   1.075  1.5609  0.9120 -2.5719
 1626TIP3   OH226436   5.868   5.942   7.149 -0.2409 -0.7185 -0.1294
 1626TIP3    H126437   5.934   5.937   7.219 -2.0940 -1.0075  1.6864
 1626TIP3    H226438   5.889   5.869   7.091  1.5496 -0.2640 -0.1335
 1627TIP3   OH226439   4.281   1.388   8.258 -0.2679  0.6361  0.0384
 1627TIP3    H126440   4.237   1.404   8.342 -0.0883  2.2466 -0.1580
 1627TIP3    H226441   4.313   1.473   8.230  0.7339 -0.0750 -1.1019
 1628TIP3   OH226442   6.287   2.952   2.134  0.4917  0.2515  0.7558
 1628TIP3    H126443   6.272   2.862   2.164  1.8842  0.5243  2.4339
 1628TIP3    H226444   6.205   2.998   2.154  0.3683 -0.2734  1.4941
 1629TIP3   OH226445   4.525   3.718   6.525  0.3045  0.0236  0.4582
 1629TIP3    H126446   4.467   3.784   6.564  0.3162  0.0005  0.5150
 1629TIP3    H226447   4.582   3.768   6.467 -1.7527 -0.2739 -2.0091
 1630TIP3   OH226448   6.668   0.629   7.580 -0.0459  0.0060 -0.3462
 1630TIP3    H126449   6.708   0.711   7.550  2.0052 -0.4108  1.0316
 1630TIP3    H226450   6.692   0.565   7.513  0.7711 -0.0183 -0.0484
 1631TIP3   OH226451   5.139   4.125   7.729 -0.4333 -0.1311  0.2681
 1631TIP3    H126452   5.145   4.075   7.648  1.1978 -0.2819  0.4556
 1631TIP3    H226453   5.147   4.217   7.702  0.6951 -0.2119  0.2938
 1632TIP3   OH226454   1.342   6.480   1.624 -0.3749  0.1693  0.4845
 1632TIP3    H126455   1.269   6.510   1.678  0.7066 -2.5743  3.8165
 1632TIP3    H226456   1.418   6.526   1.660  0.1355 -0.3425  0.0692
 1633TIP3   OH226457   1.423   1.251   1.022 -0.3440 -0.4445 -1.0713
 1633TIP3    H126458   1.328   1.247   1.010 -0.2689 -1.0466 -1.4939
 1633TIP3    H226459   1.438   1.204   1.105 -0.3509 -1.0211 -1.3879
 1634TIP3   OH226460   4.110   3.868   6.973  0.1757  0.3543  0.2337
 1634TIP3    H126461   4.065   3.939   6.927  2.3962  0.2972 -2.2681
 1634TIP3    H226462   4.137   3.907   7.056 -1.0671  1.5462  0.1092
 1635TIP3   OH226463   0.575   6.637   7.096 -0.2684 -0.0823 -0.4115
 1635TIP3    H126464   0.560   6.715   7.149  0.4647  0.5871 -1.1637
 1635TIP3    H226465   0.491   6.592   7.095 -1.1912  1.5725 -1.3480
 1636TIP3   OH226466   0.647   3.929   0.291  0.7699 -0.0020  0.5628
 1636TIP3    H126467   0.578   3.876   0.249  2.3192 -2.4793  0.9444
 1636TIP3    H226468   0.704   3.955   0.219  0.6946  0.0885  0.5348
 1637TIP3   OH226469   6.755   3.685   6.815 -0.2391 -0.0087  0.2146
 1637TIP3    H126470   6.813   3.688   6.739 -0.1440 -1.4750  0.1866
 1637TIP3    H226471   6.668   3.671   6.777 -0.0140 -2.2109  0.3625
 1638TIP3   OH226472   5.602   5.699   7.604 -0.2732 -0.5469 -0.2750
 1638TIP3    H126473   5.588   5.645   7.527 -0.8008  0.5656 -0.9818
 1638TIP3    H226474   5.608   5.789   7.570 -1.3257  0.0590  1.0235
 1639TIP3   OH226475   6.300   5.866   7.644 -0.3607 -0.0545 -0.0304
 1639TIP3    H126476   6.371   5.827   7.593 -0.5415  0.8365 -1.0072
 1639TIP3    H226477   6.320   5.843   7.734  1.7621  1.0236 -0.1527
 1640TIP3   OH226478   2.144   5.877   1.278 -0.2986 -0.3132 -0.3373
 1640TIP3    H126479   2.223   5.932   1.282 -0.3444 -0.3290  1.0935
 1640TIP3    H226480   2.176   5.788   1.295 -0.7321 -0.1989  1.1375
 1641TIP3   OH226481   5.119   6.184   7.454 -0.6175 -0.1990 -0.1260
 1641TIP3    H126482   5.042   6.205   7.401  0.5095  2.0376 -1.0195
 1641TIP3    H226483   5.190   6.178   7.391 -0.0115 -2.3753  0.6695
 1642TIP3   OH226484   3.660   5.084   7.473 -0.1293  0.1566  0.0538
 1642TIP3    H126485   3.662   5.121   7.562  0.3351 -1.6876  0.8619
 1642TIP3    H226486   3.586   5.127   7.431 -1.6176 -0.3293  2.0036
 1643TIP3   OH226487   5.897   1.101   0.752 -0.1990  0.7340 -0.2743
 1643TIP3    H126488   5.933   1.187   0.776 -0.5038  0.9987 -0.7574
 1643TIP3    H226489   5.962   1.065   0.692 -0.6590  1.1560 -1.0420
 1644TIP3   OH226490   3.295   6.000   0.347 -0.1874 -0.5801 -0.0521
 1644TIP3    H126491   3.360   5.952   0.295 -1.2337  0.2928 -2.3060
 1644TIP3    H226492   3.235   6.037   0.282 -2.1734 -0.2244  1.8656
 1645TIP3   OH226493   2.372   3.081   0.115  0.7244  0.4521 -0.3660
 1645TIP3    H126494   2.416   3.004   0.081  2.4320  0.4922  1.5539
 1645TIP3    H226495   2.438   3.151   0.108  0.2456  1.0222  0.5744
 1646TIP3   OH226496   5.592   6.385   7.721  0.0889  0.0250  0.4455
 1646TIP3    H126497   5.687   6.399   7.720  0.1831 -0.5556  0.9007
 1646TIP3    H226498   5.574   6.349   7.807 -0.3913 -0.9189 -0.0343
 1647TIP3   OH226499   3.584   1.153   0.934 -0.0414 -0.0078  0.4723
 1647TIP3    H126500   3.507   1.201   0.903  0.2679 -0.9990 -2.0605
 1647TIP3    H226501   3.647   1.220   0.958 -0.8240  0.8325  0.2215
 1648TIP3   OH226502   6.861   4.233   0.560 -0.0012 -0.3603 -0.4835
 1648TIP3    H126503   6.905   4.148   0.548  2.8283  1.1346 -1.6626
 1648TIP3    H226504   6.906   4.273   0.634 -0.0776  0.8205 -1.0565
 1649TIP3   OH226505   3.488   2.311   7.311 -0.5761  0.0031  0.4902
 1649TIP3    H126506   3.578   2.325   7.338 -0.6383 -0.0812  0.7432
 1649TIP3    H226507   3.472   2.378   7.245  0.0719 -0.7610 -0.4843
 1650TIP3   OH226508   4.837   3.931   2.521  0.5011  0.0078 -0.3645
 1650TIP3    H126509   4.794   3.849   2.498 -1.4708  0.7782  0.3164
 1650TIP3    H226510   4.882   3.913   2.604 -1.5143  0.0339  0.8127
 1651TIP3   OH226511   1.801   6.523   1.616  0.6672 -0.2530  0.0404
 1651TIP3    H126512   1.877   6.471   1.643  0.5260 -0.8270 -0.6392
 1651TIP3    H226513   1.747   6.462   1.565 -0.0616  0.2557  0.1824
 1652TIP3   OH226514   2.178   5.512   0.520 -0.0828 -0.2857  0.3846
 1652TIP3    H126515   2.203   5.599   0.552  2.0286 -0.9464  0.6875
 1652TIP3    H226516   2.140   5.528   0.434  0.7261  0.9078  0.2262
 1653TIP3   OH226517   1.497   6.210   6.991  0.5929  0.0200  0.7051
 1653TIP3    H126518   1.476   6.131   6.940  1.3661  0.2083  0.0694
 1653TIP3    H226519   1.450   6.199   7.073 -3.0975  1.0443 -1.0754
 1654TIP3   OH226520   3.573   2.027   1.038 -0.2707  0.1480 -0.6073
 1654TIP3    H126521   3.619   2.094   1.089 -3.8103  1.5223  1.1927
 1654TIP3    H226522   3.524   2.076   0.972 -1.7927 -0.7258 -0.2007
 1655TIP3   OH226523   1.946   5.648   8.397 -0.0553  0.4338  0.2194
 1655TIP3    H126524   1.953   5.683   8.487 -0.3964 -0.7804  0.7293
 1655TIP3    H226525   2.036   5.623   8.375 -0.0244  0.4223  0.3537
 1656TIP3   OH226526   5.358   2.273   7.633 -0.2254  0.2975  0.2996
 1656TIP3    H126527   5.343   2.190   7.678  0.8375 -0.7046 -1.0886
 1656TIP3    H226528   5.453   2.274   7.616 -0.4986  0.8520 -1.4275
 1657TIP3   OH226529   2.747   6.469   0.488 -0.1961  0.5459 -0.1510
 1657TIP3    H126530   2.764   6.516   0.570 -1.0456 -1.5554  1.2982
 1657TIP3    H226531   2.715   6.537   0.428 -2.0343  1.7415  2.0479
 1658TIP3   OH226532   2.741   4.417   7.620 -0.0984 -0.0667 -0.0881
 1658TIP3    H126533   2.762   4.325   7.637 -1.6589 -0.2799  0.9502
 1658TIP3    H226534   2.689   4.416   7.540  2.2232  0.2682 -1.6771
 1659TIP3   OH226535   1.511   4.017   0.947 -0.0361  0.7092  0.0812
 1659TIP3    H126536   1.545   3.949   1.004  0.1444 -0.5926 -1.4827
 1659TIP3    H226537   1.416   4.012   0.958  0.0435  1.5493  1.3873
 1660TIP3   OH226538   4.461   0.007   6.621 -0.1116  0.3475 -0.4598
 1660TIP3    H126539   4.554   0.031   6.620  0.1424 -0.5842 -0.0426
 1660TIP3    H226540   4.443  -0.020   6.531 -0.3081  1.6920 -0.8470
 1661TIP3   OH226541   6.879   2.447   8.384 -0.0893  0.1390 -0.0815
 1661TIP3    H126542   6.842   2.491   8.308  0.6709  0.0560 -0.5102
 1661TIP3    H226543   6.964   2.490   8.397  0.9178 -1.5418 -0.8314
 1662TIP3   OH226544   4.480   6.399   7.791  0.5366 -0.1059  0.1125
 1662TIP3    H126545   4.531   6.471   7.754 -0.3099  0.8117  0.6620
 1662TIP3    H226546   4.399   6.441   7.821  0.9726 -0.8547  2.5720
 1663TIP3   OH226547   6.536   1.161   7.120 -0.4113  0.2469  0.1511
 1663TIP3    H126548   6.609   1.192   7.174 -0.4480  1.1144 -0.2821
 1663TIP3    H226549   6.551   1.067   7.113 -0.8507 -0.0431  2.3343
 1664TIP3   OH226550   5.415   6.183   7.557 -0.0326  0.0862  0.4516
 1664TIP3    H126551   5.458   6.251   7.609 -0.4624 -0.5955  1.7481
 1664TIP3    H226552   5.330   6.170   7.599 -0.3739 -0.5245 -0.3979
 1665TIP3   OH226553   5.247   3.651   7.673 -0.4264 -0.1606  0.2440
 1665TIP3    H126554   5.221   3.695   7.592 -1.4469  0.0148  0.6575
 1665TIP3    H226555   5.297   3.574   7.644  3.0012  2.1030 -0.4898
 1666TIP3   OH226556   6.503   1.023   6.835  0.0624  0.1178 -0.6963
 1666TIP3    H126557   6.570   0.996   6.897 -0.7508  1.0963  0.6784
 1666TIP3    H226558   6.517   1.117   6.823 -1.2835  0.4237 -0.0589
 1667TIP3   OH226559   0.849   0.903   1.542 -0.0159 -0.0901  0.1931
 1667TIP3    H126560   0.766   0.892   1.588  0.8820  0.4065  2.0393
 1667TIP3    H226561   0.907   0.838   1.581  0.6153 -0.0857 -0.7036
 1668TIP3   OH226562   3.632   0.912   8.255  0.4654  0.5055  0.0838
 1668TIP3    H126563   3.595   0.942   8.338  0.4128 -1.4724  0.8236
 1668TIP3    H226564   3.725   0.933   8.260  0.7938 -1.0591  1.4016
 1669TIP3   OH226565   4.624   3.958   6.049 -0.2919  0.5043 -0.2795
 1669TIP3    H126566   4.611   4.007   5.968  0.0299  2.1978  0.6590
 1669TIP3    H226567   4.719   3.946   6.055 -0.4611 -2.0619 -1.4978
 1670TIP3   OH226568   4.053   6.687   8.277 -0.2694 -0.1500 -0.4263
 1670TIP3    H126569   3.986   6.685   8.209 -0.1371  0.5101 -0.5874
 1670TIP3    H226570   4.100   6.604   8.268 -1.3350 -0.8123 -0.0288
 1671TIP3   OH226571   5.545   1.368   1.936 -0.3434 -0.2410  0.3586
 1671TIP3    H126572   5.485   1.429   1.978 -0.0770  0.8491 -0.7777
 1671TIP3    H226573   5.512   1.359   1.847  0.6472 -0.3263 -0.0178
 1672TIP3   OH226574   1.489   4.128   7.347 -0.1305  0.2449 -0.1880
 1672TIP3    H126575   1.521   4.165   7.264  0.0583  1.6941  0.4943
 1672TIP3    H226576   1.439   4.051   7.321  0.1881  0.4829 -1.6284
 1673TIP3   OH226577   5.490   4.940   8.035 -0.5849  0.1639  0.0695
 1673TIP3    H126578   5.519   4.960   7.946 -1.6995  1.5878 -0.0098
 1673TIP3    H226579   5.417   4.879   8.023 -0.6048  0.1970  0.0210
 1674TIP3   OH226580   2.747   3.314   1.858  0.4650  0.0324  0.1340
 1674TIP3    H126581   2.674   3.269   1.900 -0.1515  0.3263 -0.5875
 1674TIP3    H226582   2.822   3.297   1.915 -0.0824 -0.5948  0.6876
 1675TIP3   OH226583   6.851   4.571   0.919  0.0798  0.4064  0.2732
 1675TIP3    H126584   6.807   4.493   0.953  1.7491 -0.0370  1.5442
 1675TIP3    H226585   6.920   4.590   0.982  0.8070  1.9142 -0.8935
 1676TIP3   OH226586   1.730   5.760   0.194  0.7454 -0.0349 -0.3594
 1676TIP3    H126587   1.794   5.724   0.255  1.4712 -0.0555 -1.1130
 1676TIP3    H226588   1.763   5.848   0.173 -0.9202  1.0804  1.3479
 1677TIP3   OH226589   6.245   6.024   1.333 -0.3801 -0.0960 -0.4876
 1677TIP3    H126590   6.300   6.005   1.409  0.3230 -0.2033 -1.0157
 1677TIP3    H226591   6.158   5.995   1.358 -0.4793  1.2454  0.8516
 1678TIP3   OH226592   3.104   4.908   0.570  0.7608  0.1851  0.1278
 1678TIP3    H126593   3.130   4.885   0.659  3.5631 -0.3569 -0.7219
 1678TIP3    H226594   3.068   4.996   0.576  1.1876  0.2677  1.7319
 1679TIP3   OH226595   1.755   2.082   1.114  0.1830 -0.0618  0.3754
 1679TIP3    H126596   1.822   2.037   1.166  1.5275  0.0075 -1.2175
 1679TIP3    H226597   1.761   2.042   1.027 -0.6022  1.2045 -0.2928
 1680TIP3   OH226598   5.101   3.069   1.900  0.1975 -0.2160  0.1424
 1680TIP3    H126599   5.045   3.146   1.889 -0.0950 -0.2866  1.0511
 1680TIP3    H226600   5.186   3.105   1.924 -0.4861 -0.1724  2.8774
 1681TIP3   OH226601   6.368   6.660   7.165 -0.1322  0.1313 -0.2162
 1681TIP3    H126602   6.400   6.632   7.080 -0.9616 -1.5872 -0.0106
 1681TIP3    H226603   6.286   6.611   7.177  0.0047  0.2702  1.5801
 1682TIP3   OH226604   3.626   5.956   1.281  0.4202  0.1574 -0.0973
 1682TIP3    H126605   3.583   5.873   1.305 -0.5151  0.7912  0.4933
 1682TIP3    H226606   3.559   6.003   1.230  0.3868  1.1850  0.8773
 1683TIP3   OH226607   3.780   6.198   7.397  0.2568  0.3449 -0.1514
 1683TIP3    H126608   3.722   6.266   7.363  0.2351 -0.0667 -0.9823
 1683TIP3    H226609   3.859   6.244   7.425  0.1955  0.7269 -0.5996
 1684TIP3   OH226610   4.819   5.683   7.746 -0.3437 -0.3664  0.0912
 1684TIP3    H126611   4.789   5.770   7.773 -1.3278 -1.2346  1.9871
 1684TIP3    H226612   4.907   5.676   7.783 -0.8326 -0.7139  1.2148
 1685TIP3   OH226613   1.822   3.627   7.105  0.3285 -0.1061 -0.1816
 1685TIP3    H126614   1.739   3.582   7.091 -0.1227  0.9446 -1.0173
 1685TIP3    H226615   1.885   3.575   7.054  0.0961 -0.6122  0.0358
 1686TIP3   OH226616   6.187   6.793   1.586  0.0535 -0.5367 -0.2544
 1686TIP3    H126617   6.106   6.796   1.637  0.0323 -0.2819 -0.3007
 1686TIP3    H226618   6.159   6.765   1.499  0.2429 -2.1114  0.1642
 1687TIP3   OH226619   0.159   1.990   7.332  0.6210 -0.3944 -0.3245
 1687TIP3    H126620   0.094   1.971   7.400  0.1545 -0.5739 -0.8064
 1687TIP3    H226621   0.209   2.064   7.366  0.3367 -0.4287  0.1775
 1688TIP3   OH226622   0.604   2.337   7.080  0.2345  0.5012  0.0421
 1688TIP3    H126623   0.549   2.355   7.004 -1.5628 -0.0373  1.1594
 1688TIP3    H226624   0.543   2.325   7.152  1.8095 -0.3883  1.3066
 1689TIP3   OH226625   1.877   4.300   1.578 -0.6810 -0.2606 -0.3893
 1689TIP3    H126626   1.939   4.301   1.651 -1.8732 -0.1017  0.6733
 1689TIP3    H226627   1.915   4.359   1.513  0.2585 -0.1401  0.2419
 1690TIP3   OH226628   0.509   5.774   0.241  0.9732  0.8959 -0.0155
 1690TIP3    H126629   0.521   5.747   0.150 -2.3779  0.8397 -0.5667
 1690TIP3    H226630   0.504   5.870   0.238 -2.9308  0.8439 -0.6739
 1691TIP3   OH226631   0.348   0.525   0.599  0.9434  0.3105 -0.1858
 1691TIP3    H126632   0.424   0.482   0.559 -0.4011 -2.0056 -0.4301
 1691TIP3    H226633   0.327   0.471   0.675 -1.1331  0.1890 -0.7774
 1692TIP3   OH226634   2.001   6.066   7.257  0.2150  0.3801 -0.5318
 1692TIP3    H126635   1.954   6.111   7.327 -0.2113 -1.4373  0.3952
 1692TIP3    H226636   2.093   6.076   7.279  0.0668 -0.9540  0.8281
 1693TIP3   OH226637   3.793   6.215   0.590  0.4010  0.3300  1.0958
 1693TIP3    H126638   3.730   6.143   0.593  0.9525 -0.1709  0.8340
 1693TIP3    H226639   3.799   6.246   0.680 -0.5458  0.6661  1.0486
 1694TIP3   OH226640   4.476   4.002   7.042  0.5180 -0.0439  0.5936
 1694TIP3    H126641   4.401   4.046   7.001  0.0777  0.7620  2.1814
 1694TIP3    H226642   4.479   3.916   7.001  0.6825  1.0123 -1.7834
 1695TIP3   OH226643   1.737   4.212   6.330 -0.6383  0.3895 -0.3674
 1695TIP3    H126644   1.817   4.246   6.290 -0.1461  0.3675  0.5684
 1695TIP3    H226645   1.667   4.265   6.293 -0.2555  0.0628 -1.6058
 1696TIP3   OH226646   1.522   3.163   0.170 -0.4703 -0.1355  0.4166
 1696TIP3    H126647   1.433   3.151   0.204 -0.8419  2.0379  0.3112
 1696TIP3    H226648   1.574   3.189   0.246 -0.6355  1.6959 -0.0608
 1697TIP3   OH226649   3.682   6.303   1.352  0.2216  0.0891  0.3090
 1697TIP3    H126650   3.595   6.286   1.317  0.7486 -1.0276 -0.5676
 1697TIP3    H226651   3.693   6.398   1.346 -0.1137  0.0629 -1.6851
 1698TIP3   OH226652   2.087   2.658   6.383 -0.2135  0.7305 -0.2104
 1698TIP3    H126653   2.157   2.699   6.333  0.0203 -0.0568 -0.5445
 1698TIP3    H226654   2.015   2.721   6.380  0.1104  1.0789 -0.7781
 1699TIP3   OH226655   4.220   1.195   1.646  0.5730 -0.0078 -0.3331
 1699TIP3    H126656   4.130   1.206   1.615 -0.0176  1.9091  1.8154
 1699TIP3    H226657   4.219   1.228   1.736  3.3046 -0.4950 -0.0389
 1700TIP3   OH226658   5.970   1.591   6.432  0.2110 -0.3322  0.4563
 1700TIP3    H126659   6.000   1.625   6.348 -0.2505 -0.8950  0.0535
 1700TIP3    H226660   6.045   1.544   6.467  0.9937  1.4197  1.2143
 1701TIP3   OH226661   5.929   3.031   1.732  0.0915  0.3438  0.1111
 1701TIP3    H126662   5.952   3.037   1.824  1.1463  0.3650 -0.1388
 1701TIP3    H226663   5.905   2.939   1.719 -1.3728  0.6314  0.6860
 1702TIP3   OH226664   2.100   5.704   7.656 -0.3910  0.2007  0.1314
 1702TIP3    H126665   2.138   5.729   7.741 -1.1361  2.5362 -0.1563
 1702TIP3    H226666   2.160   5.638   7.622  0.0402 -0.6665  2.3607
 1703TIP3   OH226667   4.776   0.163   8.031 -0.1582 -0.3801  0.0853
 1703TIP3    H126668   4.813   0.244   8.066 -0.4814 -0.6339  1.0382
 1703TIP3    H226669   4.778   0.101   8.104 -3.2712 -0.1427  0.5312
 1704TIP3   OH226670   1.325   4.004   7.887  0.2479  0.0367  0.1035
 1704TIP3    H126671   1.400   4.014   7.946 -0.0229  0.9657  0.3063
 1704TIP3    H226672   1.362   4.012   7.799  0.1543  2.3766  0.2314
 1705TIP3   OH226673   0.249   2.578   6.004  1.0452  0.4354 -0.1993
 1705TIP3    H126674   0.303   2.633   5.948  1.6823  0.2216  0.2068
 1705TIP3    H226675   0.220   2.635   6.075 -1.3564  1.2478 -1.7167
 1706TIP3   OH226676   5.924   0.737   7.347  0.0350  0.1877  0.6050
 1706TIP3    H126677   5.996   0.697   7.395  0.8316  0.6616 -0.1668
 1706TIP3    H226678   5.958   0.821   7.316 -1.1245  0.8094  0.9268
 1707TIP3   OH226679   0.518   5.513   0.004  0.3998  0.2460 -0.3719
 1707TIP3    H126680   0.451   5.530  -0.062  1.4729  1.2840 -1.2501
 1707TIP3    H226681   0.578   5.451  -0.038 -0.6556 -1.6678  0.8746
 1708TIP3   OH226682   2.584   5.354   8.460  0.1918 -0.7664 -0.2353
 1708TIP3    H126683   2.676   5.330   8.463  0.7602  1.3309  0.9396
 1708TIP3    H226684   2.571   5.410   8.537 -1.5378  0.6884 -1.5084
 1709TIP3   OH226685   5.529   2.199   0.526 -0.1004 -0.0973  0.3487
 1709TIP3    H126686   5.543   2.289   0.555  0.5787 -1.2727  4.3324
 1709TIP3    H226687   5.460   2.166   0.583 -1.2405 -1.8276 -1.8653
 1710TIP3   OH226688   3.963   6.151   1.324 -0.2426  0.3620 -0.1653
 1710TIP3    H126689   4.023   6.090   1.368  0.0783 -0.1592 -1.3065
 1710TIP3    H226690   3.893   6.166   1.388  0.0846 -0.5859  0.4282
 1711TIP3   OH226691   4.545   0.254   8.251  0.3029  0.1849 -1.5327
 1711TIP3    H126692   4.512   0.208   8.329 -1.3245  1.1837 -1.5887
 1711TIP3    H226693   4.640   0.258   8.264  0.2906 -1.5076 -0.6317
 1712TIP3   OH226694   2.010   2.903   0.120 -0.1488 -0.1577  0.6275
 1712TIP3    H126695   2.043   2.940   0.038  0.7438 -0.2250  0.9526
 1712TIP3    H226696   2.088   2.880   0.170 -0.6320 -2.8023  0.3148
 1713TIP3   OH226697   0.666   5.118   1.784 -0.4502  0.6020  0.2478
 1713TIP3    H126698   0.663   5.147   1.875 -2.1331 -2.2050  1.2148
 1713TIP3    H226699   0.756   5.089   1.771 -0.9194 -2.1749  2.2625
 1714TIP3   OH226700   4.911   3.991   7.822 -0.3951  0.6993  0.5840
 1714TIP3    H126701   4.864   4.033   7.750 -0.4318  0.4234  0.4427
 1714TIP3    H226702   5.004   4.009   7.805 -0.1880 -1.2808 -0.8359
 1715TIP3   OH226703   4.637   2.370   7.724  0.5233  0.6461  0.0105
 1715TIP3    H126704   4.618   2.283   7.689  0.6260 -0.1864  1.8628
 1715TIP3    H226705   4.551   2.408   7.743  0.4859  0.8440 -0.5503
 1716TIP3   OH226706   6.836   3.798   7.571  0.0150 -0.0637  0.4497
 1716TIP3    H126707   6.774   3.865   7.598  0.2297  0.8117 -1.1445
 1716TIP3    H226708   6.841   3.805   7.476  0.5594 -1.8989  0.2889
 1717TIP3   OH226709   4.829   4.825   1.552  0.4089 -0.0486 -0.4271
 1717TIP3    H126710   4.751   4.846   1.604 -0.0107  0.3183 -1.1854
 1717TIP3    H226711   4.865   4.910   1.527  0.9526 -0.2183 -0.2431
 1718TIP3   OH226712   3.843   4.423   1.115 -0.5148 -0.5298 -0.7321
 1718TIP3    H126713   3.794   4.362   1.171 -0.0058 -1.0100 -0.7946
 1718TIP3    H226714   3.915   4.370   1.081 -0.4296 -0.0532 -1.2977
 1719TIP3   OH226715   1.579   1.655   8.544 -0.0904 -0.6117 -0.3413
 1719TIP3    H126716   1.568   1.661   8.639 -1.1306 -1.3418 -0.3966
 1719TIP3    H226717   1.581   1.746   8.514  1.0865 -0.3507  0.4489
 1720TIP3   OH226718   6.118   1.197   0.089 -0.5978 -0.1545  0.5517
 1720TIP3    H126719   6.031   1.238   0.085 -0.3074  0.4330  0.0826
 1720TIP3    H226720   6.176   1.261   0.048 -0.3037 -1.5268 -1.3411
 1721TIP3   OH226721   5.172   4.445   2.224 -0.3285  0.1295  0.3516
 1721TIP3    H126722   5.080   4.416   2.225 -0.3477  0.1239 -0.7465
 1721TIP3    H226723   5.167   4.541   2.226 -0.3881  0.1514 -0.6341
 1722TIP3   OH226724   6.160   0.597   7.563 -0.1353  0.2768  0.1893
 1722TIP3    H126725   6.243   0.609   7.515  0.1679  2.4091  1.1021
 1722TIP3    H226726   6.167   0.510   7.602  0.7903 -0.3965 -1.3804
 1723TIP3   OH226727   0.316   6.476   7.576  0.5374  0.0590 -0.2249
 1723TIP3    H126728   0.382   6.536   7.542 -0.6235  0.7734 -1.2918
 1723TIP3    H226729   0.364   6.419   7.637  1.8764  1.3348 -0.0420
 1724TIP3   OH226730   6.089   1.432   0.367 -0.1574 -0.0675  0.1439
 1724TIP3    H126731   6.112   1.342   0.390 -0.6384 -0.4838 -0.9219
 1724TIP3    H226732   6.167   1.465   0.321 -1.0800 -1.0516 -2.3226
 1725TIP3   OH226733   3.963   0.363   2.172 -0.5259 -0.3002  0.1712
 1725TIP3    H126734   3.997   0.297   2.233  1.2741 -1.5022 -1.9857
 1725TIP3    H226735   3.918   0.312   2.105  0.8428  0.5965 -1.5052
 1726TIP3   OH226736   5.134   0.545   0.404  0.1824  0.5504  0.5908
 1726TIP3    H126737   5.066   0.482   0.425  0.8470 -1.3380 -2.3653
 1726TIP3    H226738   5.208   0.521   0.460 -0.2188 -0.0350  0.8740
 1727TIP3   OH226739   3.709   0.570   0.291 -0.0832  0.4036 -0.1227
 1727TIP3    H126740   3.646   0.578   0.362 -0.6265  1.4958 -0.6998
 1727TIP3    H226741   3.664   0.519   0.224 -0.6656  1.7922 -0.8323
 1728TIP3   OH226742   6.647   2.317   8.465  0.5764 -0.5889 -0.0173
 1728TIP3    H126743   6.673   2.226   8.453  0.2150 -0.9834  1.9235
 1728TIP3    H226744   6.726   2.367   8.443  1.6475 -1.5257  1.4820
 1729TIP3   OH226745   5.945   3.515   6.598  0.3171  0.1333 -0.1235
 1729TIP3    H126746   5.869   3.471   6.636 -0.9215 -0.5723 -3.1342
 1729TIP3    H226747   6.005   3.445   6.574  2.6965  0.7238  3.3317
 1730TIP3   OH226748   5.276   3.552   1.588  0.4284 -0.4575  0.1766
 1730TIP3    H126749   5.322   3.624   1.547 -0.9765 -0.6843 -1.9671
 1730TIP3    H226750   5.250   3.585   1.674  1.0733  1.0422 -0.1848
 1731TIP3   OH226751   3.172   5.569   8.169 -0.2169 -0.0575 -0.3021
 1731TIP3    H126752   3.215   5.619   8.100  0.9430 -0.9349 -0.2474
 1731TIP3    H226753   3.141   5.489   8.126 -0.6634 -0.0159 -0.0669
 1732TIP3   OH226754   2.722   4.396   1.069  0.1705 -0.2376 -0.6600
 1732TIP3    H126755   2.756   4.357   1.150  1.5197  1.1471 -0.5124
 1732TIP3    H226756   2.789   4.377   1.004  0.1628  0.5977 -0.9183
 1733TIP3   OH226757   2.684   6.569   1.909  0.0474  0.5203  0.3267
 1733TIP3    H126758   2.769   6.603   1.937  0.9178 -0.3848 -1.0780
 1733TIP3    H226759   2.626   6.645   1.910  1.1565  1.4004  0.1996
 1734TIP3   OH226760   4.251   5.784   8.293 -0.2785  0.5415 -0.5364
 1734TIP3    H126761   4.284   5.756   8.208  1.0526  1.2777 -0.2872
 1734TIP3    H226762   4.188   5.716   8.318 -0.2960  0.0395 -1.8538
 1735TIP3   OH226763   1.573   0.410   0.122 -0.0136  0.0786  0.1633
 1735TIP3    H126764   1.580   0.354   0.045  0.7435 -0.6851  0.7612
 1735TIP3    H226765   1.514   0.481   0.096 -0.8246 -0.8838 -0.6860
 1736TIP3   OH226766   2.277   1.471   1.128 -0.1800  0.4224  0.5919
 1736TIP3    H126767   2.266   1.416   1.206 -0.0558  0.6832  0.7953
 1736TIP3    H226768   2.369   1.496   1.130  0.2416 -0.9306 -0.5497
 1737TIP3   OH226769   5.254   0.752   7.665  0.2462  0.1564 -0.7499
 1737TIP3    H126770   5.190   0.741   7.735 -1.7786  2.5754 -2.0799
 1737TIP3    H226771   5.226   0.691   7.596  1.7040 -1.5517  0.0802
 1738TIP3   OH226772   1.577   0.961   6.503  0.0581 -0.0436  0.4992
 1738TIP3    H126773   1.598   1.035   6.446  0.9442 -1.9831 -1.8896
 1738TIP3    H226774   1.660   0.939   6.546 -0.5648  1.2913  2.5417
 1739TIP3   OH226775   2.243   2.693   0.064  0.1129 -0.5553 -0.0076
 1739TIP3    H126776   2.286   2.717  -0.018 -1.6018  1.9481 -0.2610
 1739TIP3    H226777   2.312   2.704   0.130  1.1467 -1.3222 -0.9112
 1740TIP3   OH226778   2.484   2.630   2.031 -0.2973 -0.0970 -0.2296
 1740TIP3    H126779   2.391   2.647   2.018 -0.1569 -0.4068 -1.8883
 1740TIP3    H226780   2.489   2.539   2.058 -0.4097 -0.4848 -1.4720
 1741TIP3   OH226781   4.282   4.208   0.907 -0.3165  0.0048 -0.0769
 1741TIP3    H126782   4.367   4.175   0.878 -0.3580  0.2146 -0.4353
 1741TIP3    H226783   4.225   4.197   0.831 -0.7149 -0.5159  0.2887
 1742TIP3   OH226784   6.641   2.816   0.109  0.3529  0.8545 -0.6095
 1742TIP3    H126785   6.731   2.787   0.121 -0.7872 -3.5356 -0.9376
 1742TIP3    H226786   6.604   2.817   0.197 -0.1446 -1.0457 -0.7552
 1743TIP3   OH226787   1.674   6.879   0.902  0.7907  0.0192  0.1601
 1743TIP3    H126788   1.751   6.867   0.959 -0.1495  0.4763  1.5873
 1743TIP3    H226789   1.662   6.973   0.898  0.9166  0.0005 -0.9408
 1744TIP3   OH226790   0.212   6.401   0.777  0.4747 -0.3367  0.0146
 1744TIP3    H126791   0.247   6.450   0.703  0.1574 -2.3984 -1.5937
 1744TIP3    H226792   0.118   6.418   0.775  0.4329 -0.6004 -0.2080
 1745TIP3   OH226793   5.155   3.869   6.826 -0.1872 -0.1085  0.0541
 1745TIP3    H126794   5.223   3.857   6.760 -0.1124 -1.8733  0.3959
 1745TIP3    H226795   5.139   3.964   6.828  2.4804  0.4246  0.1814
 1746TIP3   OH226796   0.576   3.660   0.135 -0.1274 -0.0470  0.0881
 1746TIP3    H126797   0.506   3.622   0.083  1.0679 -1.5781 -0.4715
 1746TIP3    H226798   0.649   3.599   0.126  0.7432  0.6220  2.0354
 1747TIP3   OH226799   2.563   1.310   0.739  0.2530  0.2556 -0.1924
 1747TIP3    H126800   2.658   1.318   0.746  0.0610  1.6167  1.5734
 1747TIP3    H226801   2.544   1.220   0.765  1.0910 -0.3367 -1.5127
 1748TIP3   OH226802   4.462   1.970   2.387  0.4204  0.4477 -1.0126
 1748TIP3    H126803   4.407   1.963   2.464  0.3677  0.7228 -1.0243
 1748TIP3    H226804   4.532   2.031   2.412  1.7090 -1.1919 -0.4250
 1749TIP3   OH226805   0.474   0.071   6.430  0.2165 -0.0964  0.4977
 1749TIP3    H126806   0.474   0.016   6.352  0.6664 -0.0393  0.4508
 1749TIP3    H226807   0.455   0.159   6.397 -1.4920 -0.3641  0.6940
 1750TIP3   OH226808   5.425   3.463   7.560 -0.2184  0.3678  0.3637
 1750TIP3    H126809   5.407   3.396   7.495  0.9788 -0.7119  1.1051
 1750TIP3    H226810   5.517   3.450   7.584 -1.0068 -0.3659  3.4452
 1751TIP3   OH226811   4.334   6.781   8.101  0.5877  0.1521  0.5426
 1751TIP3    H126812   4.368   6.803   8.187  2.2831 -0.7749  0.1428
 1751TIP3    H226813   4.261   6.842   8.088  2.5574  2.7921  1.1162
 1752TIP3   OH226814   1.740   4.045   8.315 -0.0151 -0.2409 -0.1833
 1752TIP3    H126815   1.691   3.963   8.304 -1.7938  0.8243 -0.6372
 1752TIP3    H226816   1.770   4.066   8.227  0.5405 -0.4451 -0.0473
 1753TIP3   OH226817   1.522   5.648   1.275 -0.3684 -1.0580  0.1008
 1753TIP3    H126818   1.467   5.573   1.298  1.0856 -2.0783  0.3724
 1753TIP3    H226819   1.488   5.677   1.190 -1.2071 -1.7589  0.1792
 1754TIP3   OH226820   1.330   6.542   0.523 -0.0221 -0.2582 -0.4790
 1754TIP3    H126821   1.281   6.460   0.518  0.2329 -0.6151  1.7428
 1754TIP3    H226822   1.411   6.524   0.475 -0.9911 -0.4693 -2.0890
 1755TIP3   OH226823   4.505   0.257   0.578 -0.4494 -0.3325 -0.5557
 1755TIP3    H126824   4.416   0.290   0.591 -0.7333 -1.3748  0.3335
 1755TIP3    H226825   4.507   0.229   0.486 -0.9259  0.0304 -0.6782
 1756TIP3   OH226826   1.990   3.434   6.972 -0.3175 -0.1200  0.3229
 1756TIP3    H126827   1.984   3.367   6.903  3.4667 -0.2874 -0.0663
 1756TIP3    H226828   2.058   3.493   6.942 -0.3345  1.2865  2.7900
 1757TIP3   OH226829   6.563   3.384   6.308  0.6569 -0.2036  0.0443
 1757TIP3    H126830   6.558   3.298   6.349  0.2161 -0.9243 -1.4667
 1757TIP3    H226831   6.648   3.384   6.264  0.6076  0.0998 -0.0537
 1758TIP3   OH226832   6.526   3.505   1.786 -0.7568  0.0257 -0.3478
 1758TIP3    H126833   6.462   3.437   1.806 -2.8364  1.8387 -0.4354
 1758TIP3    H226834   6.587   3.465   1.724 -1.7409 -1.8006 -0.1756
 1759TIP3   OH226835   1.297   0.190   0.502 -0.1765  0.1896 -0.1826
 1759TIP3    H126836   1.345   0.107   0.509 -0.6641 -0.2131 -1.3106
 1759TIP3    H226837   1.216   0.174   0.551 -1.2546 -0.8061 -2.1456
 1760TIP3   OH226838   2.149   4.844   7.888 -0.3103  0.1854 -0.1818
 1760TIP3    H126839   2.223   4.791   7.859 -0.1096 -0.5913  1.6396
 1760TIP3    H226840   2.182   4.896   7.961 -1.6351 -0.5601  1.0111
 1761TIP3   OH226841   2.196   6.536   7.734 -0.4305 -0.3259  0.4813
 1761TIP3    H126842   2.243   6.583   7.665  0.0461  0.3568  1.2557
 1761TIP3    H226843   2.183   6.448   7.699 -0.7567  0.1917 -0.7355
 1762TIP3   OH226844   5.636   2.499   2.261 -0.3029 -0.1147 -0.0623
 1762TIP3    H126845   5.661   2.591   2.255  2.1444 -0.7261 -0.0786
 1762TIP3    H226846   5.587   2.482   2.181  1.1159  0.6420 -1.1178
 1763TIP3   OH226847   1.745   0.953   8.048  0.0142  0.5803  0.1906
 1763TIP3    H126848   1.665   0.900   8.049  0.6526 -0.5324  3.0225
 1763TIP3    H226849   1.778   0.946   7.959 -2.3184 -0.0150 -0.7016
 1764TIP3   OH226850   6.822   6.323   8.356 -0.2092  0.0467  0.2046
 1764TIP3    H126851   6.762   6.397   8.357  0.8959  0.9921 -0.5554
 1764TIP3    H226852   6.878   6.336   8.432  0.0582  0.0604  0.0093
 1765TIP3   OH226853   0.659   2.340   0.347  0.0485 -0.4828 -0.4891
 1765TIP3    H126854   0.650   2.434   0.364  0.1358 -0.9621  2.8366
 1765TIP3    H226855   0.746   2.331   0.307 -0.1283  0.8464 -1.2421
 1766TIP3   OH226856   3.450   1.220   7.265 -0.5498  0.6416 -0.3741
 1766TIP3    H126857   3.490   1.270   7.337 -1.7619 -0.5017  1.1726
 1766TIP3    H226858   3.360   1.251   7.263 -1.3034 -1.3356  0.5661
 1767TIP3   OH226859   5.860   3.488   0.187  0.1702  0.2175 -0.1309
 1767TIP3    H126860   5.951   3.480   0.217  1.3468  1.1533 -3.0270
 1767TIP3    H226861   5.838   3.400   0.156 -0.1216 -0.1346  1.0503
 1768TIP3   OH226862   6.768   1.452   6.534  0.4604  0.1886  0.1446
 1768TIP3    H126863   6.687   1.414   6.568  0.1918  0.2401 -0.4078
 1768TIP3    H226864   6.747   1.472   6.442  0.6682  1.4224  0.3373
 1769TIP3   OH226865   1.669   0.319   6.623 -0.3792 -0.3536 -0.3128
 1769TIP3    H126866   1.597   0.289   6.566 -0.7431 -0.5563  0.2424
 1769TIP3    H226867   1.740   0.340   6.563 -1.6094  1.9576 -1.0856
 1770TIP3   OH226868   6.446   4.030   7.830 -0.9717  0.6765  0.0239
 1770TIP3    H126869   6.533   4.034   7.868 -1.2299  1.7484  0.5507
 1770TIP3    H226870   6.390   3.996   7.900 -1.1092  0.7537 -0.0471
 1771TIP3   OH226871   2.474   6.361   1.696  0.4600  0.2452  0.5887
 1771TIP3    H126872   2.566   6.383   1.683  0.7398 -1.2189 -0.0926
 1771TIP3    H226873   2.431   6.446   1.709  1.7897  1.0024  0.2660
 1772TIP3   OH226874   4.941   4.578   2.313  0.5819  0.0589  0.4056
 1772TIP3    H126875   4.910   4.531   2.391 -0.7217  0.3067  0.0684
 1772TIP3    H226876   4.870   4.568   2.250  1.8541 -0.5852 -0.9619
 1773TIP3   OH226877   0.346   2.536   1.608  0.0066  0.3957  0.1909
 1773TIP3    H126878   0.288   2.609   1.628 -1.8330 -0.4468 -1.6609
 1773TIP3    H226879   0.391   2.517   1.690 -1.4549  1.8560  1.3938
 1774TIP3   OH226880   4.152   4.686   2.036  0.5303 -0.1553  0.6849
 1774TIP3    H126881   4.098   4.737   2.096 -1.1750 -1.9406  0.7584
 1774TIP3    H226882   4.225   4.743   2.016 -0.8964  2.0149  1.3315
 1775TIP3   OH226883   5.729   6.439   2.217  0.2453  0.3101  0.6019
 1775TIP3    H126884   5.729   6.531   2.190 -1.1996  0.2976  0.4804
 1775TIP3    H226885   5.708   6.390   2.137 -0.8986  0.0405  1.0433
 1776TIP3   OH226886   5.856   4.103   1.055  0.3825 -0.0271  0.2718
 1776TIP3    H126887   5.930   4.131   1.109 -0.3567  0.7228  0.9258
 1776TIP3    H226888   5.864   4.156   0.975  1.8051 -1.5430 -0.6631
 1777TIP3   OH226889   2.860   4.291   0.175 -0.0921 -0.0433 -0.2626
 1777TIP3    H126890   2.839   4.384   0.168  0.2199  0.0028 -0.6351
 1777TIP3    H226891   2.828   4.254   0.092 -1.6423 -0.5518  0.5287
 1778TIP3   OH226892   6.381   6.636   0.998  0.6544 -0.1086  0.3021
 1778TIP3    H126893   6.433   6.707   0.961  0.1361  0.6409  0.9825
 1778TIP3    H226894   6.439   6.560   0.995  0.5511 -0.1761 -2.3110
 1779TIP3   OH226895   3.144   3.054   7.235 -0.2183  0.0909  0.4223
 1779TIP3    H126896   3.121   3.000   7.159  0.0684 -0.6311  0.8440
 1779TIP3    H226897   3.130   3.144   7.205 -0.7730 -0.2142 -0.2653
 1780TIP3   OH226898   0.042   6.197   1.002 -0.5680  0.3037  0.0448
 1780TIP3    H126899   0.027   6.266   1.067  0.7567 -0.1950  0.9276
 1780TIP3    H226900  -0.003   6.227   0.924 -1.0602  1.5801  0.7933
 1781TIP3   OH226901   4.997   0.682   7.739 -0.2197 -0.0041  0.3880
 1781TIP3    H126902   4.906   0.677   7.767 -0.2548 -0.4742  0.2161
 1781TIP3    H226903   4.993   0.676   7.643 -0.0372  0.4085  0.3549
 1782TIP3   OH226904   1.873   3.781   0.791  0.3681 -0.2607 -0.6205
 1782TIP3    H126905   1.910   3.745   0.872  0.5532 -0.6286 -0.8644
 1782TIP3    H226906   1.850   3.871   0.813  0.4376 -0.3516 -0.1638
 1783TIP3   OH226907   5.396   2.899   7.428 -0.0520 -0.3013  0.0390
 1783TIP3    H126908   5.482   2.870   7.456 -0.3558 -0.4380  0.8399
 1783TIP3    H226909   5.335   2.837   7.467 -0.7654  1.6803  2.3325
 1784TIP3   OH226910   5.908   1.753   1.545 -0.0767  0.5474  0.2167
 1784TIP3    H126911   5.945   1.764   1.633 -0.4133  0.8015  0.3319
 1784TIP3    H226912   5.983   1.733   1.489 -0.0946 -1.7944  0.9258
 1785TIP3   OH226913   4.434   6.352   8.222 -0.1178  0.1437  0.0811
 1785TIP3    H126914   4.429   6.273   8.167 -0.2695  0.8200 -0.8931
 1785TIP3    H226915   4.443   6.318   8.312 -0.3848 -0.9799 -0.3026
 1786TIP3   OH226916   3.236   6.043   1.154  0.2853 -0.3128 -0.7515
 1786TIP3    H126917   3.203   6.128   1.125  0.5713  0.2864  0.6028
 1786TIP3    H226918   3.307   6.023   1.094  2.5069  2.0511  0.8536
 1787TIP3   OH226919   1.558   1.709   0.265 -0.2010 -0.4928  0.0844
 1787TIP3    H126920   1.596   1.794   0.289 -0.3033 -0.0457 -1.2085
 1787TIP3    H226921   1.552   1.661   0.347 -1.0733  1.1140  1.0145
 1788TIP3   OH226922   0.186   2.947   0.381 -0.1943  0.0898  0.5398
 1788TIP3    H126923   0.174   2.914   0.292 -1.8873 -0.0264  0.7673
 1788TIP3    H226924   0.254   2.891   0.418  0.8978  0.4674 -0.8145
 1789TIP3   OH226925   4.019   4.307   7.895 -0.2267 -0.0356  0.2688
 1789TIP3    H126926   4.097   4.355   7.870 -0.8111  0.9667  0.3221
 1789TIP3    H226927   4.030   4.221   7.855  0.8517  0.1193  0.2042
 1790TIP3   OH226928   0.129   1.320   5.986  0.5758  0.3353  0.1660
 1790TIP3    H126929   0.046   1.297   6.029  0.9837 -1.5389  0.0562
 1790TIP3    H226930   0.115   1.301   5.894  0.2763  2.6731 -0.3271
 1791TIP3   OH226931   4.775   3.223   2.438  0.0684 -0.0971 -0.0463
 1791TIP3    H126932   4.805   3.300   2.388 -1.6648  0.9967  0.5137
 1791TIP3    H226933   4.847   3.204   2.498  1.1029  0.1954 -1.1516
 1792TIP3   OH226934   6.682   4.577   0.646  0.4342 -0.3050 -0.3637
 1792TIP3    H126935   6.732   4.584   0.727  0.4525 -1.5632 -0.2388
 1792TIP3    H226936   6.594   4.552   0.675 -0.0574  1.0488 -0.6321
 1793TIP3   OH226937   4.264   0.696   6.449  0.1844  0.6615 -0.7416
 1793TIP3    H126938   4.213   0.702   6.369  0.6674  0.4109 -1.0728
 1793TIP3    H226939   4.348   0.737   6.428  0.1738  0.9526 -0.2441
 1794TIP3   OH226940   3.847   2.716   2.094  0.0519  0.0334  0.2956
 1794TIP3    H126941   3.828   2.763   2.175 -0.2828 -0.4023  0.4783
 1794TIP3    H226942   3.792   2.637   2.099 -0.4939  0.3405 -0.6668
 1795TIP3   OH226943   3.333   5.674   1.668  0.3777  1.0024  0.2444
 1795TIP3    H126944   3.390   5.732   1.718  0.9148  0.9613 -0.2962
 1795TIP3    H226945   3.245   5.710   1.679  0.5975  1.4481  0.5701
 1796TIP3   OH226946   0.118   5.602   1.742  0.1456  0.1332  0.4627
 1796TIP3    H126947   0.211   5.616   1.761  1.2794 -1.2642 -3.2709
 1796TIP3    H226948   0.103   5.510   1.763  0.9785 -0.9498 -3.0021
 1797TIP3   OH226949   2.329   3.034   6.252  0.0140 -0.2760 -0.6556
 1797TIP3    H126950   2.264   3.096   6.219 -0.8367 -0.9621 -0.2996
 1797TIP3    H226951   2.393   3.089   6.298 -1.1692  0.2657  0.3799
 1798TIP3   OH226952   3.022   4.135   7.422 -0.4414 -0.3146  0.3594
 1798TIP3    H126953   3.027   4.109   7.330 -1.5445  0.4846  0.0506
 1798TIP3    H226954   3.052   4.226   7.423 -2.0458  0.2455  0.4947
 1799TIP3   OH226955   3.666   3.461   0.876  0.4171 -0.1373 -0.5797
 1799TIP3    H126956   3.678   3.483   0.783  0.3631  1.4031 -0.2415
 1799TIP3    H226957   3.585   3.506   0.901  0.6105 -0.2695  0.3118
 1800TIP3   OH226958   2.910   3.969   1.949  0.7633  0.2307 -0.1503
 1800TIP3    H126959   2.851   4.029   1.995  0.3415  0.0988 -0.5166
 1800TIP3    H226960   2.974   3.944   2.016 -0.3792 -0.6916  0.6655
 1801TIP3   OH226961   5.233   1.426   7.599  0.6067  0.3418  0.0784
 1801TIP3    H126962   5.275   1.507   7.571  1.5167 -0.8506 -2.3225
 1801TIP3    H226963   5.151   1.422   7.549 -0.4875  0.7261  1.7483
 1802TIP3   OH226964   5.361   1.201   7.687  0.3136 -0.2550 -0.1736
 1802TIP3    H126965   5.314   1.279   7.660  0.9013  0.2212  0.1682
 1802TIP3    H226966   5.314   1.169   7.764  0.0759 -0.2479 -0.3130
 1803TIP3   OH226967   3.047   4.675   7.098 -0.3453  0.0127  0.6205
 1803TIP3    H126968   3.133   4.641   7.119 -0.2875  0.3301  0.9067
 1803TIP3    H226969   3.042   4.670   7.002  0.4557  1.0736  0.5063
 1804TIP3   OH226970   0.680   2.571   1.674  0.5201 -0.2802  0.4698
 1804TIP3    H126971   0.650   2.647   1.723  0.4681 -0.4583  0.7186
 1804TIP3    H226972   0.773   2.587   1.658  0.6765 -0.4900  1.1396
 1805TIP3   OH226973   4.161   1.674   0.174  0.4094 -1.0022  0.0991
 1805TIP3    H126974   4.203   1.685   0.089  0.7719  2.7136  0.6200
 1805TIP3    H226975   4.071   1.705   0.161  1.1235  2.0439  1.4641
 1806TIP3   OH226976   2.370   3.415   7.959 -0.3092 -0.2458  0.0036
 1806TIP3    H126977   2.390   3.471   7.884  0.3380  0.2814  0.5588
 1806TIP3    H226978   2.372   3.473   8.035  0.1746 -0.9726  0.5688
 1807TIP3   OH226979   2.031   3.803   0.187 -0.3805 -0.1123 -0.0723
 1807TIP3    H126980   1.977   3.832   0.113 -1.1255  2.1553  1.2675
 1807TIP3    H226981   1.981   3.732   0.227 -1.6934  0.9486  0.2522
 1808TIP3   OH226982   3.474   4.452   8.496  0.1980  0.2018  0.3852
 1808TIP3    H126983   3.437   4.538   8.473 -0.3041  0.8486  3.2432
 1808TIP3    H226984   3.569   4.466   8.495  0.2896 -0.1829 -2.3792
 1809TIP3   OH226985   6.428   3.119   0.416  0.0610  0.0289 -0.5481
 1809TIP3    H126986   6.510   3.118   0.465 -0.1573 -1.0466 -0.1812
 1809TIP3    H226987   6.392   3.207   0.431  1.4260  0.7160 -1.2067
 1810TIP3   OH226988   2.731   3.114   6.742 -0.3605  0.1080  0.3790
 1810TIP3    H126989   2.724   3.204   6.712 -0.9874 -0.3771 -0.9795
 1810TIP3    H226990   2.824   3.093   6.732 -0.0897  0.7857  1.3088
 1811TIP3   OH226991   4.159   2.986   1.015  0.1693 -0.2311 -0.0686
 1811TIP3    H126992   4.164   2.955   1.106  0.2205  1.3553  0.5025
 1811TIP3    H226993   4.215   3.063   1.013 -1.1309  0.7237 -1.0369
 1812TIP3   OH226994   1.184   4.639   6.365 -0.1833 -0.0802 -0.1039
 1812TIP3    H126995   1.218   4.679   6.446 -1.3012 -1.7751  1.2653
 1812TIP3    H226996   1.243   4.566   6.348 -1.0941 -0.9443  0.3481
 1813TIP3   OH226997   3.542   6.605   0.597 -0.4831  0.9113 -0.1147
 1813TIP3    H126998   3.623   6.631   0.553  1.4128 -3.9270 -0.0695
 1813TIP3    H226999   3.551   6.639   0.686  1.6403  0.3006 -0.0495
 1814TIP3   OH227000   0.571   6.455   1.378 -0.0309  0.2307  0.4630
 1814TIP3    H127001   0.571   6.550   1.369  0.0232  0.0811 -1.4374
 1814TIP3    H227002   0.654   6.426   1.342 -0.2521 -0.5779  0.5678
 1815TIP3   OH227003   0.708   0.563   1.647  0.5000 -0.3311 -0.4077
 1815TIP3    H127004   0.729   0.472   1.626  1.3825 -0.2868  0.1930
 1815TIP3    H227005   0.794   0.606   1.652  0.0839  0.5559 -0.7906
 1816TIP3   OH227006   1.056   3.941   8.034 -0.1277 -0.0289 -0.7870
 1816TIP3    H127007   1.118   4.012   8.052  0.1990 -0.1531 -1.3937
 1816TIP3    H227008   1.103   3.862   8.059 -0.3827 -0.0604 -0.3936
 1817TIP3   OH227009   6.252   0.342   6.578 -0.7418 -0.0182 -0.5612
 1817TIP3    H127010   6.269   0.432   6.548  0.0740  0.5378  1.3804
 1817TIP3    H227011   6.329   0.292   6.549 -0.4445  0.2848 -0.3150
 1818TIP3   OH227012   1.454   6.747   1.053  0.0169 -0.0799 -0.5639
 1818TIP3    H127013   1.534   6.799   1.057 -0.4430  0.7037 -1.2229
 1818TIP3    H227014   1.483   6.656   1.061  0.8574  0.2579  0.3280
 1819TIP3   OH227015   0.051   1.463   0.902  0.8232  0.0995 -0.0276
 1819TIP3    H127016   0.022   1.531   0.962  0.2183  0.4456 -0.6908
 1819TIP3    H227017   0.136   1.436   0.935 -0.4203 -1.3064  2.3041
 1820TIP3   OH227018   5.708   0.627   7.146  0.3668  0.0111  0.1669
 1820TIP3    H127019   5.732   0.648   7.237 -0.8414  0.1552  0.4696
 1820TIP3    H227020   5.625   0.673   7.132  0.9812  0.7264 -1.3170
 1821TIP3   OH227021   0.996   6.420   8.091 -0.4730  0.2846 -0.9556
 1821TIP3    H127022   0.947   6.478   8.150  0.1240  1.4900 -1.5951
 1821TIP3    H227023   0.937   6.404   8.018 -0.0881  1.4064 -1.5340
 1822TIP3   OH227024   5.251   0.883   1.158 -0.2094 -0.0036 -0.1888
 1822TIP3    H127025   5.272   0.795   1.189  1.7054  0.9451  1.4761
 1822TIP3    H227026   5.324   0.937   1.189 -1.8532  2.3603 -0.1837
 1823TIP3   OH227027   5.996   3.248   8.174 -0.0077  0.1813 -0.1479
 1823TIP3    H127028   6.030   3.306   8.242 -1.7770 -0.5292  1.4252
 1823TIP3    H227029   6.017   3.159   8.205 -0.5719 -0.1447 -0.6738
 1824TIP3   OH227030   1.549   5.693   7.945  0.5217 -0.3467  0.3688
 1824TIP3    H127031   1.499   5.652   8.016  0.6647 -1.2254 -0.0138
 1824TIP3    H227032   1.516   5.651   7.866  0.3656  0.6272 -0.0925
 1825TIP3   OH227033   3.085   5.662   1.444  0.3300 -0.2166  0.1091
 1825TIP3    H127034   3.174   5.687   1.418  0.2448 -0.5543 -0.5237
 1825TIP3    H227035   3.097   5.587   1.502  0.4201 -0.9017 -0.7745
 1826TIP3   OH227036   6.676   1.851   6.510  0.7204  0.4495 -0.1454
 1826TIP3    H127037   6.767   1.836   6.487  0.5766  0.3980 -0.6958
 1826TIP3    H227038   6.627   1.826   6.432  0.3021  1.4648 -0.2208
 1827TIP3   OH227039   2.099   2.016   6.611  0.0239 -0.5529 -0.2525
 1827TIP3    H127040   2.066   1.969   6.535 -1.8067  2.7538 -1.6943
 1827TIP3    H227041   2.190   2.036   6.590 -0.2020 -0.4426 -1.1361
 1828TIP3   OH227042   2.327   3.354   1.886 -0.1659  0.1837  0.4907
 1828TIP3    H127043   2.246   3.337   1.935 -0.1159 -0.9919  0.1977
 1828TIP3    H227044   2.396   3.315   1.939 -0.0636 -0.7460 -0.2998
 1829TIP3   OH227045   1.053   3.278   7.514  0.1403  0.1358  0.4850
 1829TIP3    H127046   1.069   3.184   7.508  0.7633  0.1944  1.0375
 1829TIP3    H227047   1.100   3.305   7.594 -1.3161  0.6529  1.1937
 1830TIP3   OH227048   4.009   1.291   0.556 -0.4564  0.1609 -0.0977
 1830TIP3    H127049   4.048   1.290   0.469 -1.1256 -0.6447 -0.4010
 1830TIP3    H227050   3.932   1.234   0.549  0.2077 -0.9871  1.3560
 1831TIP3   OH227051   2.564   2.047   2.164  0.2880 -0.1650 -0.3771
 1831TIP3    H127052   2.644   1.994   2.160 -0.6813 -1.6499 -1.9163
 1831TIP3    H227053   2.575   2.111   2.094  1.0223  1.0613  0.8237
 1832TIP3   OH227054   0.601   1.459   8.487 -0.8389 -0.3318  0.9973
 1832TIP3    H127055   0.617   1.369   8.459 -1.3950 -0.8092  2.1322
 1832TIP3    H227056   0.546   1.497   8.419  1.3832 -0.0269 -0.7605
 1833TIP3   OH227057   5.414   2.614   7.777 -0.4921 -0.3499 -0.3112
 1833TIP3    H127058   5.481   2.571   7.831 -1.0862 -0.7633  0.1040
 1833TIP3    H227059   5.450   2.611   7.688  1.5148  2.2757  0.2722
 1834TIP3   OH227060   3.550   3.820   0.767 -0.0224 -0.1078  0.5369
 1834TIP3    H127061   3.508   3.900   0.799  0.2934  0.1989  0.1906
 1834TIP3    H227062   3.620   3.851   0.709 -0.7068 -0.6642 -0.6138
 1835TIP3   OH227063   2.030   4.914   1.066 -1.1357 -0.2217 -0.3911
 1835TIP3    H127064   2.007   4.870   1.148 -0.1680 -0.1001 -0.0422
 1835TIP3    H227065   2.068   4.845   1.011 -0.3390  0.0068 -0.1376
 1836TIP3   OH227066   5.954   3.392   1.797  0.5854 -0.4961 -0.8075
 1836TIP3    H127067   5.903   3.457   1.846  2.6761  1.5918 -1.2156
 1836TIP3    H227068   5.960   3.317   1.856 -2.5372 -0.7156 -0.5962
 1837TIP3   OH227069   6.828   5.993   8.238 -0.4359  0.2022  0.1255
 1837TIP3    H127070   6.835   6.006   8.143 -0.5493 -1.2613 -0.1040
 1837TIP3    H227071   6.748   5.942   8.249 -0.0399 -0.2583  0.9529
 1838TIP3   OH227072   1.784   2.567   1.030 -0.4246 -0.1414  0.0061
 1838TIP3    H127073   1.798   2.487   0.979  0.5418  1.7690 -2.9623
 1838TIP3    H227074   1.717   2.615   0.981  1.7538  2.5644 -0.5425
 1839TIP3   OH227075   5.314   3.271   1.923  0.7109  0.3253 -0.3375
 1839TIP3    H127076   5.274   3.344   1.969 -0.1008 -0.1821 -0.2120
 1839TIP3    H227077   5.341   3.211   1.993 -0.6627 -0.5195 -0.4940
 1840TIP3   OH227078   3.457   2.930   7.961 -0.6641 -0.0565  0.6948
 1840TIP3    H127079   3.487   2.914   7.872  1.6134  1.5801  1.0896
 1840TIP3    H227080   3.496   3.014   7.985  1.1133 -1.6427  4.1331
 1841TIP3   OH227081   3.628   3.626   7.576  0.4508 -0.0134  0.0576
 1841TIP3    H127082   3.569   3.574   7.521 -1.8106  0.4256  1.9558
 1841TIP3    H227083   3.715   3.601   7.546 -0.5871 -2.9795 -0.8233
 1842TIP3   OH227084   4.162   3.730   7.873  0.0457 -0.4952 -0.2649
 1842TIP3    H127085   4.220   3.695   7.805  1.0058 -0.3959  0.4688
 1842TIP3    H227086   4.163   3.663   7.942 -1.4340 -0.8903 -0.6094
 1843TIP3   OH227087   6.275   4.000   6.991 -0.5996 -0.0066  0.2548
 1843TIP3    H127088   6.287   3.978   7.084 -1.4168 -0.1892  0.3193
 1843TIP3    H227089   6.228   3.926   6.954  0.0329 -0.0953 -0.3991
 1844TIP3   OH227090   0.287   1.534   8.498  0.0292  0.2043  0.1558
 1844TIP3    H127091   0.251   1.528   8.409 -0.3385  2.0881  0.1489
 1844TIP3    H227092   0.325   1.621   8.503 -0.8378  0.5134  2.1681
 1845TIP3   OH227093   3.315   4.258   2.124 -0.2533  0.7939 -0.0800
 1845TIP3    H127094   3.406   4.283   2.108 -0.1448  0.7212  0.3867
 1845TIP3    H227095   3.322   4.174   2.171 -0.6056 -0.0440 -1.4693
 1846TIP3   OH227096   3.999   4.979   0.452 -0.5333  0.1447  1.2110
 1846TIP3    H127097   4.051   5.029   0.515 -0.2501 -0.1800  1.2357
 1846TIP3    H227098   3.926   4.945   0.504 -0.4445  0.0999  1.3080
 1847TIP3   OH227099   5.622   2.278   6.759 -0.6119  0.1464  0.1126
 1847TIP3    H127100   5.572   2.357   6.741 -0.6152  0.4268  1.2573
 1847TIP3    H227101   5.632   2.235   6.674 -0.7777  1.2742 -0.4853
 1848TIP3   OH227102   2.310   4.389   7.258 -0.0669  0.1190  0.2783
 1848TIP3    H127103   2.279   4.480   7.265 -1.1421 -0.2511  0.4564
 1848TIP3    H227104   2.303   4.369   7.165 -0.1956  0.0964  0.2923
 1849TIP3   OH227105   4.566   0.181   6.172 -0.0571  0.0746  0.1417
 1849TIP3    H127106   4.614   0.151   6.095  1.7721  3.2544 -0.1342
 1849TIP3    H227107   4.519   0.259   6.142  0.1931  1.0105  2.0199
 1850TIP3   OH227108   2.061   0.895   1.243 -0.5316  0.0920  0.1285
 1850TIP3    H127109   2.020   0.959   1.302 -1.5454 -0.2045 -0.2205
 1850TIP3    H227110   2.008   0.899   1.163 -0.0503 -0.5338 -0.2332
 1851TIP3   OH227111   6.698   2.403   7.351  0.1321 -0.1479 -0.3196
 1851TIP3    H127112   6.687   2.398   7.446  1.0813  0.1507 -0.1763
 1851TIP3    H227113   6.762   2.335   7.331  1.2010  0.8709 -0.4967
 1852TIP3   OH227114   2.028   2.434   8.183 -0.8429 -0.1655  0.0847
 1852TIP3    H127115   2.048   2.468   8.096 -0.1096  1.0082  0.6885
 1852TIP3    H227116   2.085   2.483   8.242 -4.0239  1.9464  1.7035
 1853TIP3   OH227117   5.010   2.948   1.075  0.6499 -0.0560  0.6037
 1853TIP3    H127118   4.979   2.977   0.989 -0.5465 -2.2312  0.2290
 1853TIP3    H227119   4.938   2.968   1.134  1.0924  0.5735  0.9409
 1854TIP3   OH227120   1.065   2.049   1.430 -0.0882 -0.0493  0.5094
 1854TIP3    H127121   1.115   2.053   1.349  0.5474  0.2192  0.9013
 1854TIP3    H227122   1.031   2.137   1.443 -1.2323 -0.3875 -0.0924
 1855TIP3   OH227123   4.367   3.818   7.374  0.0596 -0.2533  0.5839
 1855TIP3    H127124   4.339   3.873   7.447 -0.2074  0.1338  0.1967
 1855TIP3    H227125   4.431   3.870   7.326 -0.3115 -0.2123  0.1249
 1856TIP3   OH227126   1.928   6.829   0.978  0.2282 -0.5396 -0.2326
 1856TIP3    H127127   1.911   6.758   1.039 -0.1842  0.0187  0.3213
 1856TIP3    H227128   2.022   6.843   0.983  0.3276 -1.1174 -0.4313
 1857TIP3   OH227129   0.970   6.427   0.162  0.5064  0.1553  0.4749
 1857TIP3    H127130   0.908   6.355   0.166 -0.0925  0.6039 -0.3231
 1857TIP3    H227131   1.048   6.395   0.206 -0.4690 -0.2390  1.9962
 1858TIP3   OH227132   6.565   2.834   8.128  0.6081  0.9649 -0.4046
 1858TIP3    H127133   6.492   2.850   8.069 -0.7130 -0.0613  0.8644
 1858TIP3    H227134   6.557   2.902   8.195  0.2388  0.3188  0.2259
 1859TIP3   OH227135   0.862   5.295   1.047 -0.1045  0.3667  0.1311
 1859TIP3    H127136   0.878   5.202   1.031 -1.4393  0.1862 -0.3299
 1859TIP3    H227137   0.812   5.323   0.970  1.0759  1.7004 -0.1845
 1860TIP3   OH227138   1.061   5.745   1.526 -0.0520  0.8488  0.0979
 1860TIP3    H127139   0.970   5.739   1.496 -0.3515 -0.1121  1.1124
 1860TIP3    H227140   1.063   5.692   1.606  1.6123  0.0571 -0.4196
 1861TIP3   OH227141   3.000   1.523   8.348  0.1136  0.1900 -0.3386
 1861TIP3    H127142   3.068   1.534   8.415  1.1404  0.5279 -1.4049
 1861TIP3    H227143   2.927   1.577   8.379  0.1308 -0.5247  1.0484
 1862TIP3   OH227144   5.761   1.481   0.897 -0.2525  0.6380  0.7043
 1862TIP3    H127145   5.703   1.455   0.825  2.3904 -0.2219 -1.2637
 1862TIP3    H227146   5.757   1.577   0.897 -0.7356  0.6339 -0.2129
 1863TIP3   OH227147   1.487   2.448   0.838  0.1300  0.4485  0.6258
 1863TIP3    H127148   1.394   2.424   0.843 -0.3057  1.5905 -1.1819
 1863TIP3    H227149   1.531   2.386   0.897 -1.5063 -1.5601 -0.1552
 1864TIP3   OH227150   3.703   4.004   0.229 -0.4217  0.1123 -0.1204
 1864TIP3    H127151   3.747   3.954   0.298  0.3687  0.6164 -0.2396
 1864TIP3    H227152   3.747   4.089   0.229  1.4146 -0.6718 -2.8825
 1865TIP3   OH227153   5.656   1.755   8.326  0.0111  0.2484  0.3444
 1865TIP3    H127154   5.680   1.741   8.234 -0.0853 -0.0776  0.3671
 1865TIP3    H227155   5.569   1.716   8.334  0.4239 -0.6039  0.8078
 1866TIP3   OH227156   5.848   2.992   6.698  0.1015  0.3610  0.0059
 1866TIP3    H127157   5.844   3.051   6.622  2.0891 -1.4607 -1.6607
 1866TIP3    H227158   5.778   3.023   6.756 -0.2129  3.0961 -1.6247
 1867TIP3   OH227159   2.607   0.179   1.606 -0.2073 -0.2252 -0.3214
 1867TIP3    H127160   2.557   0.156   1.528 -1.4708  1.7518 -0.1727
 1867TIP3    H227161   2.542   0.208   1.669  1.0468  2.9449 -0.2923
 1868TIP3   OH227162   3.931   3.467   1.868  0.1850 -0.4319  0.6377
 1868TIP3    H127163   3.973   3.511   1.941  0.9610  0.9311 -0.5826
 1868TIP3    H227164   3.981   3.386   1.856  1.0511  0.1039  0.6096
 1869TIP3   OH227165   5.360   4.515   2.430  0.4693  0.2368  0.1219
 1869TIP3    H127166   5.354   4.585   2.365  0.7482  1.4683  1.3817
 1869TIP3    H227167   5.428   4.456   2.396 -0.8819 -0.3407 -1.7505
 1870TIP3   OH227168   1.710   1.835   8.011 -0.0956  0.2705  0.2339
 1870TIP3    H127169   1.778   1.780   8.049  0.1245 -0.2121 -0.8159
 1870TIP3    H227170   1.730   1.837   7.917 -1.2574  0.4934 -0.0302
 1871TIP3   OH227171   0.737   5.809   7.300 -0.5775  0.4906  0.1334
 1871TIP3    H127172   0.687   5.816   7.219 -2.2082  0.1525  1.0551
 1871TIP3    H227173   0.821   5.850   7.281 -1.1872  1.0397 -1.5062
 1872TIP3   OH227174   6.243   4.983   8.390 -0.2387 -0.2144 -0.2709
 1872TIP3    H127175   6.279   4.995   8.302  1.3555  0.2410  0.3991
 1872TIP3    H227176   6.229   5.072   8.422  0.6773 -0.3229  0.4832
 1873TIP3   OH227177   0.469   1.909   0.406 -0.2334  0.4655  0.0748
 1873TIP3    H127178   0.381   1.873   0.406 -0.0136 -0.1102 -0.9093
 1873TIP3    H227179   0.457   2.003   0.395 -0.6912  0.2855 -1.0280
 1874TIP3   OH227180   4.781   6.708   0.453  0.3754  0.0195  0.2456
 1874TIP3    H127181   4.760   6.740   0.540  0.6330 -0.6046  0.5481
 1874TIP3    H227182   4.697   6.678   0.417  0.0232  1.5733 -0.2898
 1875TIP3   OH227183   6.513   2.897   1.101 -0.3235 -0.8343 -0.4345
 1875TIP3    H127184   6.480   2.950   1.173  0.2856 -0.5118 -0.3898
 1875TIP3    H227185   6.499   2.806   1.129 -1.5260 -0.7128 -0.5840
 1876TIP3   OH227186   6.524   2.127   0.565 -0.3589  0.1045 -0.0733
 1876TIP3    H127187   6.455   2.068   0.533 -0.5897 -0.1105  0.8133
 1876TIP3    H227188   6.578   2.073   0.622  1.2523 -0.0371 -1.6326
 1877TIP3   OH227189   4.198   3.826   8.352 -0.3247  0.4914  0.0908
 1877TIP3    H127190   4.203   3.922   8.355  1.3064  0.4645 -0.4432
 1877TIP3    H227191   4.190   3.800   8.443 -2.4980  1.1717  0.1372
 1878TIP3   OH227192   3.284   5.685   6.795  0.6466  0.0134 -0.5371
 1878TIP3    H127193   3.331   5.715   6.717  1.3030 -0.1234 -0.1947
 1878TIP3    H227194   3.340   5.618   6.833  1.2011  1.3368  1.0662
 1879TIP3   OH227195   6.738   1.974   7.453 -0.0163 -0.3979  0.3823
 1879TIP3    H127196   6.656   1.956   7.499  0.5260 -1.6283  0.9105
 1879TIP3    H227197   6.722   1.945   7.363 -0.6135  0.7093  0.1092
 1880TIP3   OH227198   2.534   2.911   6.050 -0.8043 -0.2262 -0.1943
 1880TIP3    H127199   2.520   3.004   6.031 -0.4228  0.0153  0.6861
 1880TIP3    H227200   2.621   2.907   6.088 -1.8097 -0.5472  2.2594
 1881TIP3   OH227201   4.416   2.016   0.901 -0.1905  0.0343 -0.6488
 1881TIP3    H127202   4.500   1.995   0.860  0.7931  1.9858  0.2009
 1881TIP3    H227203   4.380   2.087   0.847 -1.4344 -0.9344 -1.1378
 1882TIP3   OH227204   1.157   2.678   6.656  0.3156 -0.5295  0.2317
 1882TIP3    H127205   1.083   2.729   6.691  0.1361  0.8455 -1.9558
 1882TIP3    H227206   1.117   2.599   6.621 -0.2665  0.3695 -1.2686
 1883TIP3   OH227207   5.808   0.388   0.134 -0.0536 -0.6204 -0.1886
 1883TIP3    H127208   5.902   0.404   0.132 -0.0021 -0.3777  1.9512
 1883TIP3    H227209   5.784   0.397   0.226 -2.2780 -0.1156 -0.7647
 1884TIP3   OH227210   3.547   6.839   1.294 -0.5713  0.1856 -0.4043
 1884TIP3    H127211   3.522   6.889   1.215 -0.8407  1.1186  0.2491
 1884TIP3    H227212   3.518   6.895   1.366  1.7957  0.4661  0.3934
 1885TIP3   OH227213   3.348   5.852   0.588  0.3419 -0.3717  0.0612
 1885TIP3    H127214   3.327   5.930   0.640 -1.0613 -0.6881  0.0224
 1885TIP3    H227215   3.313   5.872   0.501  1.0267 -0.5845 -0.2672
 1886TIP3   OH227216   1.142   1.399   7.630  0.3402 -0.4065 -0.2764
 1886TIP3    H127217   1.168   1.467   7.567 -1.0169 -0.2439 -0.6789
 1886TIP3    H227218   1.218   1.340   7.633  0.0942 -1.0067 -2.8553
 1887TIP3   OH227219   5.998   3.557   7.319 -0.1140  0.2311  0.0650
 1887TIP3    H127220   6.059   3.540   7.391  1.8205 -0.3747 -1.6267
 1887TIP3    H227221   5.988   3.472   7.276 -2.1283  0.3396  0.2345
 1888TIP3   OH227222   2.779   0.923   6.185 -0.2255  0.0296 -0.4197
 1888TIP3    H127223   2.870   0.951   6.187 -0.3358  0.3475  0.7703
 1888TIP3    H227224   2.729   1.002   6.166 -0.3209  0.0548 -0.0733
 1889TIP3   OH227225   4.910   2.271   2.176 -0.1344 -0.1610  0.3989
 1889TIP3    H127226   4.931   2.203   2.240  0.1970  0.7532  1.2968
 1889TIP3    H227227   4.898   2.350   2.229 -1.5950  0.2701 -0.4998
 1890TIP3   OH227228   6.580   5.842   6.178 -0.6598  0.2702  1.0575
 1890TIP3    H127229   6.609   5.791   6.253 -0.3644 -0.7175  0.2952
 1890TIP3    H227230   6.646   5.826   6.111 -2.5138 -1.4472 -0.4858
 1891TIP3   OH227231   5.066   2.345   7.736 -0.2589  0.2152 -0.4284
 1891TIP3    H127232   5.148   2.318   7.696 -0.4138 -0.5991 -0.2219
 1891TIP3    H227233   5.083   2.433   7.770  1.1019 -0.6235  1.2078
 1892TIP3   OH227234   0.479   0.594   8.164 -0.2095  0.2412  0.1852
 1892TIP3    H127235   0.556   0.582   8.107 -0.4531  0.7889 -0.2711
 1892TIP3    H227236   0.406   0.558   8.113 -0.2843 -0.1188  0.5460
 1893TIP3   OH227237   5.312   0.175   0.223  0.0777 -0.8006 -0.4285
 1893TIP3    H127238   5.358   0.142   0.300 -1.0177 -2.2038 -0.3213
 1893TIP3    H227239   5.220   0.150   0.238 -0.1259 -1.3126 -2.2877
 1894TIP3   OH227240   6.463   5.400   0.983  0.1335  0.4301 -0.3790
 1894TIP3    H127241   6.528   5.469   0.988 -1.5287  2.0520 -0.1776
 1894TIP3    H227242   6.486   5.341   1.055  2.2873  0.0518 -1.2881
 1895TIP3   OH227243   3.259   3.336   0.478  0.2409 -0.0182 -0.0235
 1895TIP3    H127244   3.197   3.327   0.550 -2.5000  1.9975 -1.9339
 1895TIP3    H227245   3.310   3.414   0.500  0.3842 -0.2167  0.3660
 1896TIP3   OH227246   4.315   5.886   1.973  0.2286  0.1942  0.1605
 1896TIP3    H127247   4.280   5.975   1.982 -1.1944 -0.1984 -1.0512
 1896TIP3    H227248   4.238   5.830   1.976  1.0806 -0.9911  0.5888
 1897TIP3   OH227249   4.489   1.652   7.129 -0.2612 -0.6100 -0.0047
 1897TIP3    H127250   4.514   1.573   7.177 -0.9315 -1.4993 -1.0892
 1897TIP3    H227251   4.525   1.640   7.041  0.2624  0.6426  0.0105
 1898TIP3   OH227252   0.338   4.960   6.756  0.1655 -0.3245 -0.0827
 1898TIP3    H127253   0.398   4.994   6.690 -1.1884 -0.4704 -1.4390
 1898TIP3    H227254   0.295   4.885   6.714 -2.0106  0.6506  0.2560
 1899TIP3   OH227255   4.901   4.997   7.342  0.0072  0.1038 -0.1032
 1899TIP3    H127256   4.937   4.933   7.280  1.6713  0.6993  0.1961
 1899TIP3    H227257   4.940   5.080   7.316 -0.2562  0.5752  0.9750
 1900TIP3   OH227258   0.469   2.459   6.841  0.1147  0.4838  0.2617
 1900TIP3    H127259   0.468   2.546   6.882  1.8974  0.4025  0.5633
 1900TIP3    H227260   0.480   2.478   6.748  0.1424  0.5883  0.2854
 1901TIP3   OH227261   5.609   0.543   1.811 -0.5371  0.6029 -0.5136
 1901TIP3    H127262   5.643   0.612   1.755 -1.6976  2.3861  0.8630
 1901TIP3    H227263   5.667   0.545   1.888 -0.6472  0.1082 -0.4159
 1902TIP3   OH227264   1.937   6.635   1.911 -0.4872 -0.7453  0.5879
 1902TIP3    H127265   1.881   6.692   1.965  1.8099 -0.1894  2.5470
 1902TIP3    H227266   1.974   6.573   1.973  0.8131 -1.2999 -0.7044
 1903TIP3   OH227267   4.155   4.653   7.257 -0.5680 -0.7455 -0.0492
 1903TIP3    H127268   4.235   4.646   7.309 -0.9217 -2.2263  0.3679
 1903TIP3    H227269   4.185   4.658   7.167  0.0167 -1.3534  0.0996
 1904TIP3   OH227270   3.295   0.316   8.283 -0.3254 -0.0089  0.2288
 1904TIP3    H127271   3.268   0.289   8.196 -0.1485 -2.9747  0.9801
 1904TIP3    H227272   3.226   0.283   8.341  0.7981 -0.3742  1.4103
 1905TIP3   OH227273   4.078   5.762   7.655 -0.5325 -0.0916  0.2093
 1905TIP3    H127274   4.059   5.845   7.610 -1.7544 -0.7415 -0.5285
 1905TIP3    H227275   4.141   5.786   7.723  0.1884  1.2050 -0.8417
 1906TIP3   OH227276   5.922   6.357   1.829  0.2983  0.3037  1.1029
 1906TIP3    H127277   5.964   6.435   1.796  1.2885 -0.9078 -0.6692
 1906TIP3    H227278   5.994   6.296   1.848 -0.4699 -0.4461  1.7309
 1907TIP3   OH227279   6.857   0.508   8.281 -0.1764 -0.6092 -0.4695
 1907TIP3    H127280   6.773   0.540   8.315 -0.0193  0.2750 -0.9065
 1907TIP3    H227281   6.894   0.457   8.354 -1.5271 -1.8573 -0.5932
 1908TIP3   OH227282   2.758   0.670   7.490  0.1881 -0.1167  0.3977
 1908TIP3    H127283   2.716   0.732   7.550 -0.1522  1.2708 -1.1659
 1908TIP3    H227284   2.697   0.663   7.417  1.4942 -0.0630 -0.7493
 1909TIP3   OH227285   4.499   0.737   8.384  0.1691 -0.2686  0.3672
 1909TIP3    H127286   4.516   0.676   8.312 -1.2728 -1.0312  0.6351
 1909TIP3    H227287   4.432   0.797   8.350 -1.5643 -1.4879  1.4644
 1910TIP3   OH227288   6.384   0.897   0.979  0.3076  0.4134 -0.3137
 1910TIP3    H127289   6.476   0.914   0.958  0.5750 -2.1454 -1.7349
 1910TIP3    H227290   6.371   0.935   1.065  4.0597 -2.8497  2.0778
 1911TIP3   OH227291   0.034   3.646   2.114 -0.1268 -0.3836  0.1546
 1911TIP3    H127292   0.100   3.681   2.055 -0.1755 -0.6482 -0.0557
 1911TIP3    H227293  -0.045   3.695   2.093 -0.1793 -0.5787 -0.0960
 1912TIP3   OH227294   5.014   1.373   7.378 -0.1317 -0.2240 -0.2929
 1912TIP3    H127295   4.977   1.458   7.403  0.8086 -0.0001  0.4000
 1912TIP3    H227296   4.952   1.338   7.314 -1.5953  0.0709  0.9057
 1913TIP3   OH227297   4.929   0.032   7.811 -0.2463  0.0321 -0.1040
 1913TIP3    H127298   4.903   0.023   7.903 -0.2957 -0.3176 -0.1510
 1913TIP3    H227299   4.876  -0.033   7.764 -1.8336  1.6868 -0.7084
 1914TIP3   OH227300   3.155   3.247   7.984  0.2846  0.4811 -0.0106
 1914TIP3    H127301   3.172   3.178   8.047  0.7015  0.7947  0.2234
 1914TIP3    H227302   3.198   3.217   7.904  1.7194  1.1252  0.4909
 1915TIP3   OH227303   6.514   2.543   8.005 -0.7770 -0.0566 -0.4708
 1915TIP3    H127304   6.502   2.581   7.918 -1.9950  1.1026  0.1789
 1915TIP3    H227305   6.561   2.610   8.055  0.5464 -0.9871 -0.3920
 1916TIP3   OH227306   4.244   2.883   1.267 -0.2460  0.3320 -0.4308
 1916TIP3    H127307   4.227   2.947   1.336 -1.1616  0.0611 -0.3938
 1916TIP3    H227308   4.285   2.810   1.312 -0.4159  0.3468 -0.2493
 1917TIP3   OH227309   0.763   1.804   7.285  0.2136  0.1876  0.9007
 1917TIP3    H127310   0.683   1.752   7.286  0.8210 -0.8304  2.7993
 1917TIP3    H227311   0.826   1.751   7.334  1.3029  2.0561  1.6192
 1918TIP3   OH227312   2.571   6.383   2.082 -0.2168  0.4621  0.4562
 1918TIP3    H127313   2.482   6.379   2.048  0.1951 -2.0080 -0.5504
 1918TIP3    H227314   2.612   6.455   2.033 -0.8179 -0.3525 -1.3110
 1919TIP3   OH227315   4.063   3.110   7.453 -0.2658 -0.4307  0.1887
 1919TIP3    H127316   3.993   3.083   7.512  0.7988 -0.5896  1.4483
 1919TIP3    H227317   4.098   3.028   7.417 -0.3658 -0.3885 -0.0058
 1920TIP3   OH227318   3.832   3.688   1.476 -0.6506  0.5319 -0.0512
 1920TIP3    H127319   3.798   3.739   1.549 -1.1681  0.7109 -0.4083
 1920TIP3    H227320   3.767   3.619   1.463  0.0281 -0.2094  0.4106
 1921TIP3   OH227321   6.741   4.917   6.750  0.1769  0.0305  0.2244
 1921TIP3    H127322   6.797   4.938   6.675  0.3594  1.8592  0.8162
 1921TIP3    H227323   6.703   5.001   6.776  0.3274 -0.4919  2.3488
 1922TIP3   OH227324   2.105   4.803   1.602 -0.3135  0.0073  0.2924
 1922TIP3    H127325   2.148   4.841   1.678  0.5139 -1.2240  0.4748
 1922TIP3    H227326   2.112   4.708   1.615 -0.5217 -0.2303 -1.0982
 1923TIP3   OH227327   1.113   3.676   0.164  0.1849  0.0170 -0.2219
 1923TIP3    H127328   1.053   3.670   0.090  0.7825 -0.4963 -0.6802
 1923TIP3    H227329   1.127   3.770   0.176  0.2918  0.1035 -0.9484
 1924TIP3   OH227330   3.166   6.171   1.889 -0.1245  0.6044  0.1371
 1924TIP3    H127331   3.099   6.190   1.823  1.7136  0.3566 -1.9444
 1924TIP3    H227332   3.165   6.076   1.898  0.0400  0.5821 -0.0514
 1925TIP3   OH227333   6.038   4.435   1.049 -0.2671  0.3127  0.2908
 1925TIP3    H127334   6.067   4.519   1.083 -0.8487  0.1760  1.1379
 1925TIP3    H227335   6.089   4.370   1.099  0.5832  0.1608 -0.7362
 1926TIP3   OH227336   5.240   4.398   6.793 -0.0526 -0.5332 -0.4744
 1926TIP3    H127337   5.221   4.367   6.705 -0.0669 -0.1918 -0.5913
 1926TIP3    H227338   5.157   4.387   6.841 -0.9997  2.1321 -1.3155
 1927TIP3   OH227339   0.296   6.524   6.961  0.3704 -0.0737  0.3196
 1927TIP3    H127340   0.207   6.490   6.956 -0.3028  1.7632 -1.3621
 1927TIP3    H227341   0.316   6.524   7.055 -1.8194  0.4706  0.8356
 1928TIP3   OH227342   3.022   0.008   2.262 -0.1521 -0.0554  0.9407
 1928TIP3    H127343   2.931   0.006   2.293  0.2022  0.1810  2.0133
 1928TIP3    H227344   3.044   0.100   2.257 -0.4172 -0.0427 -0.7406
 1929TIP3   OH227345   1.691   1.541   6.572  0.0680  0.4182  0.0109
 1929TIP3    H127346   1.648   1.480   6.512  0.0391 -0.1151  0.5671
 1929TIP3    H227347   1.643   1.531   6.655 -0.9315  2.3144 -0.2917
 1930TIP3   OH227348   1.910   1.234   7.331  0.3204 -0.0266 -0.1130
 1930TIP3    H127349   1.946   1.145   7.342  0.5340  0.2447  1.6205
 1930TIP3    H227350   1.970   1.290   7.380 -2.5745  0.3964  3.3927
 1931TIP3   OH227351   5.267   2.449   6.873 -0.4609  0.5118 -0.7871
 1931TIP3    H127352   5.337   2.495   6.827  0.1167  0.1479 -0.2843
 1931TIP3    H227353   5.311   2.406   6.947 -0.7014 -2.0002 -1.9959
 1932TIP3   OH227354   2.126   3.644   7.905 -0.4023  0.6117 -0.4173
 1932TIP3    H127355   2.188   3.703   7.863  0.7322 -0.1302  0.1870
 1932TIP3    H227356   2.072   3.610   7.833 -0.1355  1.2812 -0.9392
 1933TIP3   OH227357   4.555   0.351   1.806  0.1169  0.1084  0.3023
 1933TIP3    H127358   4.522   0.365   1.895 -0.6090 -0.1949  0.0922
 1933TIP3    H227359   4.520   0.425   1.756  0.4725  0.2448  0.2563
 1934TIP3   OH227360   3.980   2.703   6.787 -0.4315  0.0139  0.4811
 1934TIP3    H127361   3.893   2.663   6.783  0.6152 -2.4820  0.6112
 1934TIP3    H227362   4.025   2.671   6.709  0.7030  0.4248  0.9433
 1935TIP3   OH227363   5.885   4.893   7.235 -0.1992 -0.2571 -0.1815
 1935TIP3    H127364   5.869   4.864   7.324  1.8713  1.6648  0.9112
 1935TIP3    H227365   5.933   4.820   7.194 -0.3464 -0.7684  0.5450
 1936TIP3   OH227366   6.056   4.766   6.831  0.2150 -0.1170  0.2766
 1936TIP3    H127367   6.096   4.682   6.855  0.5000  0.1306  0.6966
 1936TIP3    H227368   5.965   4.745   6.814  0.2100 -0.4624  0.7014
 1937TIP3   OH227369   5.487   0.289   6.858  0.8035 -0.5090 -0.2542
 1937TIP3    H127370   5.452   0.298   6.947  0.2583  0.3112 -0.5362
 1937TIP3    H227371   5.410   0.273   6.804  0.6270  2.5354 -1.0626
 1938TIP3   OH227372   4.518   2.454   1.692 -0.4154  0.3070  0.1396
 1938TIP3    H127373   4.536   2.406   1.773 -0.6622 -0.8410 -0.4492
 1938TIP3    H227374   4.448   2.515   1.715  1.3526  1.9551  1.4395
 1939TIP3   OH227375   5.089   1.895   7.662 -0.3156  0.5690  0.0511
 1939TIP3    H127376   5.010   1.842   7.676 -0.3993  0.8006  0.4791
 1939TIP3    H227377   5.059   1.970   7.611 -0.1450  0.0784 -0.7921
 1940TIP3   OH227378   1.984   4.847   7.609  0.3063  0.3097  0.1413
 1940TIP3    H127379   2.014   4.915   7.669  2.2819 -0.8250  0.5404
 1940TIP3    H227380   2.058   4.788   7.601 -1.0971 -1.4386 -0.7386
 1941TIP3   OH227381   2.196   4.685   7.595 -0.0272  0.0505 -0.3110
 1941TIP3    H127382   2.274   4.670   7.542 -0.7493 -1.2571 -1.0542
 1941TIP3    H227383   2.170   4.598   7.625  0.1710  0.7207  1.9593
 1942TIP3   OH227384   0.647   0.660   0.825 -0.6849  0.0763  0.5325
 1942TIP3    H127385   0.702   0.584   0.844  1.7246  0.7315 -2.7468
 1942TIP3    H227386   0.640   0.706   0.908  3.8793 -0.1175  1.2903
 1943TIP3   OH227387   6.440   2.653   7.732 -0.7530 -0.1987 -0.1445
 1943TIP3    H127388   6.425   2.716   7.662  1.3553 -0.0990 -0.5753
 1943TIP3    H227389   6.513   2.600   7.701  0.3388 -0.0782  2.0144
 1944TIP3   OH227390   6.358   0.500   1.461  0.3874 -0.1736 -0.0634
 1944TIP3    H127391   6.391   0.444   1.391  0.9175  0.3652 -0.2524
 1944TIP3    H227392   6.342   0.441   1.534 -1.5284 -0.9965 -1.0501
 1945TIP3   OH227393   6.090   0.032   0.313 -0.0112 -0.0469 -0.3275
 1945TIP3    H127394   6.025  -0.003   0.375 -0.7142  1.2798 -0.2746
 1945TIP3    H227395   6.079   0.127   0.318  0.9856  0.1440 -1.3660
 1946TIP3   OH227396   5.657   5.045   1.485 -0.6702 -0.5511  0.2635
 1946TIP3    H127397   5.703   5.111   1.433 -0.3218 -0.8921  0.1362
 1946TIP3    H227398   5.567   5.079   1.492 -0.2763  0.4021  0.9915
 1947TIP3   OH227399   5.997   1.070   5.453 -0.5578 -0.5990  0.2813
 1947TIP3    H127400   5.989   0.981   5.489 -0.0452 -0.4406  0.7953
 1947TIP3    H227401   5.937   1.071   5.379 -1.5241 -0.9833  1.0364
 1948TIP3   OH227402   5.422   5.641   0.777  0.2616  0.3613 -0.1871
 1948TIP3    H127403   5.381   5.576   0.720 -0.9586  1.8735 -1.1222
 1948TIP3    H227404   5.506   5.602   0.801  0.3377 -0.8080 -2.1225
 1949TIP3   OH227405   5.507   3.935   1.317  0.0382  0.8516 -0.3189
 1949TIP3    H127406   5.491   3.961   1.226 -0.3415  0.4957 -0.3565
 1949TIP3    H227407   5.596   3.965   1.335  0.5107 -0.0018 -1.1457
 1950TIP3   OH227408   2.771   4.117   6.304 -0.2916  0.0839  0.3179
 1950TIP3    H127409   2.793   4.168   6.382  2.3622  1.0355 -0.9278
 1950TIP3    H227410   2.782   4.179   6.232 -1.6523 -1.0429 -0.9014
 1951TIP3   OH227411   0.778   2.483   0.997 -0.1875 -0.2801  0.3171
 1951TIP3    H127412   0.796   2.467   1.090  1.4387  0.2411  0.1254
 1951TIP3    H227413   0.824   2.412   0.952 -0.3138 -0.0815 -0.1296
 1952TIP3   OH227414   0.994   1.125   6.524  0.5367  0.4147  0.0160
 1952TIP3    H127415   1.048   1.046   6.524  1.2396  0.8698 -1.1091
 1952TIP3    H227416   1.050   1.192   6.565 -0.0909  0.3306  1.0540
 1953TIP3   OH227417   0.376   4.202   0.340 -0.1621  0.6855  0.3910
 1953TIP3    H127418   0.440   4.194   0.411 -1.4964 -0.0268  1.5690
 1953TIP3    H227419   0.373   4.295   0.321  1.4338  0.7059  0.0812
 1954TIP3   OH227420   1.545   5.365   7.918  0.5748 -0.5389 -0.1495
 1954TIP3    H127421   1.611   5.433   7.910  0.2663 -0.2142  0.0322
 1954TIP3    H227422   1.542   5.345   8.012 -0.7281  0.6105  0.0893
 1955TIP3   OH227423   0.057   3.606   0.286 -0.1805 -0.3930  0.9458
 1955TIP3    H127424   0.133   3.665   0.287 -0.6373  0.2956 -0.7073
 1955TIP3    H227425   0.090   3.524   0.250 -0.3796  0.2694 -0.9066
 1956TIP3   OH227426   2.632   6.102   6.813 -0.4340 -0.5321  0.3361
 1956TIP3    H127427   2.575   6.025   6.812 -1.1901  0.0156 -0.9436
 1956TIP3    H227428   2.641   6.127   6.721 -0.2665  0.9403  0.7213
 1957TIP3   OH227429   1.824   1.417   7.608 -0.2814 -0.5379  0.0605
 1957TIP3    H127430   1.914   1.427   7.576 -0.5155 -1.0261 -0.7789
 1957TIP3    H227431   1.831   1.431   7.703  0.2219  2.3945 -0.3001
 1958TIP3   OH227432   0.481   6.009   0.360 -0.1223  0.3118 -0.5691
 1958TIP3    H127433   0.443   5.965   0.436 -1.1144  0.9473 -0.6911
 1958TIP3    H227434   0.560   6.051   0.394 -0.3396  0.2544  0.0171
 1959TIP3   OH227435   2.682   5.147   6.113 -0.2185 -0.0394  0.1330
 1959TIP3    H127436   2.749   5.211   6.135 -0.0783 -0.3000  0.4820
 1959TIP3    H227437   2.632   5.187   6.042  0.7386 -0.1303 -0.6040
 1960TIP3   OH227438   4.488   1.902   6.952  0.3203 -0.1304 -0.1522
 1960TIP3    H127439   4.459   1.833   7.011 -0.1322  0.0537 -0.1560
 1960TIP3    H227440   4.428   1.896   6.877 -0.7122  1.2543  0.5248
 1961TIP3   OH227441   6.309   5.202   1.832  0.2417  0.1492  0.2571
 1961TIP3    H127442   6.262   5.278   1.864  0.4909  0.2074  0.4765
 1961TIP3    H227443   6.328   5.150   1.910 -0.3988 -0.4085  0.0621
 1962TIP3   OH227444   3.294   5.501   0.496  0.3347 -0.6171 -0.1367
 1962TIP3    H127445   3.274   5.408   0.502 -1.3542 -0.2109  2.3288
 1962TIP3    H227446   3.211   5.545   0.516  0.8142  1.4677 -2.3082
 1963TIP3   OH227447   4.370   2.321   6.436  0.4610  0.7137 -0.6223
 1963TIP3    H127448   4.419   2.374   6.374  0.3166  0.3588 -1.0429
 1963TIP3    H227449   4.293   2.291   6.387  0.4018  0.3403 -0.3081
 1964TIP3   OH227450   1.132   1.238   1.031  0.0944 -0.3104  0.5454
 1964TIP3    H127451   1.054   1.283   1.000 -0.5468 -2.4412 -1.2034
 1964TIP3    H227452   1.130   1.249   1.126 -0.2905  2.7260  0.2818
 1965TIP3   OH227453   3.165   3.233   8.356  0.3613  0.1974  0.1262
 1965TIP3    H127454   3.168   3.139   8.369  0.1665  0.2782  0.8032
 1965TIP3    H227455   3.240   3.267   8.406 -0.0850  0.4725  0.6193
 1966TIP3   OH227456   5.326   5.900   6.542  0.1231  0.2151 -0.1524
 1966TIP3    H127457   5.415   5.866   6.534  0.0041 -0.0404 -0.3789
 1966TIP3    H227458   5.337   5.981   6.593  0.5139  0.3107 -0.3766
 1967TIP3   OH227459   6.398   1.464   1.477  0.5963 -0.7442 -0.2885
 1967TIP3    H127460   6.389   1.559   1.466  0.8352 -0.7570 -0.5969
 1967TIP3    H227461   6.397   1.451   1.572 -0.7849 -0.5640 -0.2621
 1968TIP3   OH227462   4.218   4.195   0.511 -0.1407 -0.2864  0.7181
 1968TIP3    H127463   4.194   4.147   0.590 -0.6039 -2.1514 -0.4734
 1968TIP3    H227464   4.250   4.127   0.451  0.9145  1.1659 -0.4233
 1969TIP3   OH227465   1.576   3.499   7.692 -0.1092 -0.1121  0.4181
 1969TIP3    H127466   1.524   3.573   7.722 -0.8895 -0.5946  0.2661
 1969TIP3    H227467   1.554   3.427   7.751  0.2176 -0.3788  0.2229
 1970TIP3   OH227468   3.642   5.680   7.476  0.0197 -0.1891  0.6104
 1970TIP3    H127469   3.668   5.764   7.437  0.8029 -0.1998  1.0836
 1970TIP3    H227470   3.720   5.652   7.525  0.9802 -2.7500 -2.0840
 1971TIP3   OH227471   2.655   6.465   0.936  0.2346 -0.4821  0.1383
 1971TIP3    H127472   2.721   6.450   0.869 -0.3822  0.5518 -0.7359
 1971TIP3    H227473   2.623   6.554   0.920 -1.7496 -1.1272  0.1693
 1972TIP3   OH227474   1.005   2.172   8.385  0.2109 -0.7386 -0.1692
 1972TIP3    H127475   1.051   2.089   8.384 -0.5278 -1.1710  0.3580
 1972TIP3    H227476   0.956   2.171   8.467 -0.9297 -0.4095 -0.8231
 1973TIP3   OH227477   4.327   2.663   7.270  0.4904 -0.7122 -0.8115
 1973TIP3    H127478   4.358   2.602   7.203 -0.0314 -0.5295 -1.2192
 1973TIP3    H227479   4.404   2.716   7.291  0.5130 -0.3937 -1.6766
 1974TIP3   OH227480   1.518   2.247   6.713  0.4996 -0.4803 -0.6187
 1974TIP3    H127481   1.463   2.315   6.752  1.3178 -0.4900  0.6045
 1974TIP3    H227482   1.492   2.245   6.621  0.1068  1.1529 -0.5756
 1975TIP3   OH227483   3.135   6.092   0.811  0.4865 -0.0584  0.6040
 1975TIP3    H127484   3.168   6.004   0.832  0.9310 -0.1148 -0.2857
 1975TIP3    H227485   3.182   6.117   0.731 -0.8697  0.2882 -0.1190
 1976TIP3   OH227486   4.574   1.303   8.178 -0.2073  0.0384  0.0141
 1976TIP3    H127487   4.519   1.367   8.223  0.8536 -0.2497  1.8419
 1976TIP3    H227488   4.514   1.252   8.124 -1.2008  1.9250 -0.7151
 1977TIP3   OH227489   1.075   3.788   1.130 -0.5259 -0.1620 -0.5888
 1977TIP3    H127490   1.060   3.741   1.213  1.5013  0.4452  0.1843
 1977TIP3    H227491   1.071   3.719   1.063  0.6857 -1.2036  0.3460
 1978TIP3   OH227492   4.550   5.264   1.158  0.2976 -0.5875 -0.2343
 1978TIP3    H127493   4.570   5.354   1.183 -0.0976 -0.7989  0.8965
 1978TIP3    H227494   4.621   5.212   1.197 -1.0199 -1.0654  1.7040
 1979TIP3   OH227495   2.807   3.387   6.676  0.3134 -1.1558  0.1388
 1979TIP3    H127496   2.751   3.449   6.723  0.6811 -0.0572 -0.8203
 1979TIP3    H227497   2.894   3.425   6.681  0.4119 -1.1693 -1.1520
 1980TIP3   OH227498   3.294   5.228   7.128  0.5885  0.0070  0.1989
 1980TIP3    H127499   3.332   5.183   7.053  0.9353 -1.7545  1.3797
 1980TIP3    H227500   3.309   5.321   7.110  1.9721 -0.4503 -1.2097
 1981TIP3   OH227501   5.502   1.742   7.902  0.0551  0.0775  0.4084
 1981TIP3    H127502   5.553   1.734   7.821 -2.3992 -0.8218 -1.1702
 1981TIP3    H227503   5.539   1.818   7.947  1.4768  0.6441 -1.6043
 1982TIP3   OH227504   2.613   1.671   6.670  0.2587 -0.1489  0.1274
 1982TIP3    H127505   2.589   1.713   6.752 -0.7086  1.2769 -0.8471
 1982TIP3    H227506   2.546   1.699   6.607  0.5784 -1.7439 -1.0078
 1983TIP3   OH227507   2.300   0.900   1.092 -0.2750 -0.3057  0.0050
 1983TIP3    H127508   2.214   0.911   1.134  0.4735 -0.6663  1.7383
 1983TIP3    H227509   2.359   0.952   1.146  0.8636 -1.3530 -0.1876
 1984TIP3   OH227510   0.713   1.501   1.118 -0.9488  0.5432  0.2575
 1984TIP3    H127511   0.674   1.446   1.186  0.7172  1.0681  1.7156
 1984TIP3    H227512   0.772   1.559   1.165  1.3947 -0.0366 -1.7354
 1985TIP3   OH227513   4.422   5.303   0.676  0.3662  0.0020  0.7318
 1985TIP3    H127514   4.419   5.241   0.749 -0.4212 -0.9208 -0.0455
 1985TIP3    H227515   4.501   5.279   0.628  0.4733  0.1103  0.8514
 1986TIP3   OH227516   1.860   0.232   0.733 -0.0890  0.7484  0.6304
 1986TIP3    H127517   1.893   0.144   0.716  0.6862  1.0276  0.6575
 1986TIP3    H227518   1.918   0.289   0.682 -1.8521  1.1101 -1.0907
 1987TIP3   OH227519   4.658   5.676   2.187 -0.0005 -0.0936  0.0180
 1987TIP3    H127520   4.666   5.586   2.216  3.0268 -0.2335 -0.8348
 1987TIP3    H227521   4.673   5.728   2.266  2.1853 -0.4321 -0.1075
 1988TIP3   OH227522   2.831   6.244   6.927  0.4410 -0.5599 -0.0037
 1988TIP3    H127523   2.752   6.198   6.897  0.0157 -0.3576  0.7754
 1988TIP3    H227524   2.891   6.174   6.952  0.4481 -0.7134 -0.4328
 1989TIP3   OH227525   6.587   3.722   8.445  0.1911  0.1171  0.5334
 1989TIP3    H127526   6.552   3.755   8.528  2.4576 -0.2977  1.7205
 1989TIP3    H227527   6.643   3.793   8.414 -0.1750  0.0227 -0.3650
 1990TIP3   OH227528   1.579   1.040   0.572  0.2735 -0.6735 -0.1151
 1990TIP3    H127529   1.500   1.000   0.609  0.1972 -0.0538  0.4058
 1990TIP3    H227530   1.646   0.971   0.578 -0.4703 -1.5840 -1.5611
 1991TIP3   OH227531   1.162   5.853   1.157 -0.7698  0.2548  0.5040
 1991TIP3    H127532   1.120   5.772   1.187 -3.0551 -0.2246 -3.2525
 1991TIP3    H227533   1.246   5.824   1.121  0.0967  0.2295  2.4235
 1992TIP3   OH227534   3.785   4.900   0.842 -0.3431 -0.0570 -0.2395
 1992TIP3    H127535   3.758   4.925   0.930 -1.3065  2.1024 -1.0924
 1992TIP3    H227536   3.881   4.896   0.847 -0.1692  2.7908  0.2865
 1993TIP3   OH227537   2.025   3.022   0.475 -1.2149 -0.1945  0.0822
 1993TIP3    H127538   2.042   2.928   0.482  0.9310  0.2482  2.2035
 1993TIP3    H227539   2.027   3.053   0.566  0.4638  2.1989 -0.6717
 1994TIP3   OH227540   6.477   1.850   6.018  0.1962 -0.0354 -0.3847
 1994TIP3    H127541   6.413   1.810   5.960 -2.6128 -0.7301  2.8476
 1994TIP3    H227542   6.497   1.935   5.977 -1.7173 -0.4042 -2.2551
 1995TIP3   OH227543   3.647   0.900   0.523 -0.3701  0.3792 -0.5629
 1995TIP3    H127544   3.610   0.881   0.609  0.6060  2.6808  0.4562
 1995TIP3    H227545   3.742   0.893   0.536 -0.2276  0.4276 -1.5359
 1996TIP3   OH227546   2.014   6.144   2.472 -0.3604 -0.0614 -0.3461
 1996TIP3    H127547   2.019   6.120   2.380 -0.8718 -0.2839 -0.3199
 1996TIP3    H227548   2.031   6.062   2.519  0.2804  0.1275 -0.2328
 1997TIP3   OH227549   5.862   1.538   1.746 -0.0588  0.4959 -0.8915
 1997TIP3    H127550   5.913   1.614   1.772  0.5844  0.2427 -1.4125
 1997TIP3    H227551   5.831   1.557   1.658 -2.1098  1.2794 -0.0829
 1998TIP3   OH227552   5.654   1.024   6.642 -0.0509 -0.1679 -0.6104
 1998TIP3    H127553   5.559   1.032   6.650 -0.0053 -1.0711  1.2981
 1998TIP3    H227554   5.672   0.932   6.661  1.1264 -0.3235 -2.2276
 1999TIP3   OH227555   0.051   5.251   0.552  0.4248 -0.2092 -0.4956
 1999TIP3    H127556   0.099   5.185   0.602 -1.2257 -1.4599 -0.4790
 1999TIP3    H227557   0.067   5.333   0.599 -1.2633 -1.3549  2.3331
 2000TIP3   OH227558   5.984   3.677   8.287  0.1620  0.6496 -0.2671
 2000TIP3    H127559   6.019   3.657   8.374 -1.7124 -0.2661  0.3472
 2000TIP3    H227560   6.049   3.644   8.226  0.8687  0.0168  0.8003
 2001TIP3   OH227561   2.519   3.613   7.242  0.0702  0.2692  0.3834
 2001TIP3    H127562   2.610   3.588   7.230  0.0613 -0.2272  1.3084
 2001TIP3    H227563   2.487   3.628   7.153  1.0598  0.4998  0.0542
 2002TIP3   OH227564   1.529   3.373   0.481  0.5100 -0.0178  0.4676
 2002TIP3    H127565   1.537   3.308   0.550 -0.1584 -0.3828  0.2058
 2002TIP3    H227566   1.485   3.447   0.523 -1.2361 -0.7984  0.0871
 2003TIP3   OH227567   2.973   3.040   0.428 -0.0330  0.7556 -0.0186
 2003TIP3    H127568   3.049   3.029   0.485 -0.2279 -0.0467  0.0899
 2003TIP3    H227569   2.983   2.973   0.361 -1.2142 -0.1061  0.6268
 2004TIP3   OH227570   5.474   0.412   7.110 -0.3998  0.4185  0.1132
 2004TIP3    H127571   5.448   0.327   7.147 -0.7495 -0.2723 -1.6491
 2004TIP3    H227572   5.551   0.437   7.161  0.6116 -1.6669 -0.2733
 2005TIP3   OH227573   4.742   3.613   7.895  0.2027  0.0092 -0.0788
 2005TIP3    H127574   4.791   3.615   7.813  1.9791 -0.3435  0.9208
 2005TIP3    H227575   4.666   3.559   7.876  1.9703 -2.4308 -0.8259
 2006TIP3   OH227576   5.910   4.555   8.522 -0.3864  0.6830  0.0669
 2006TIP3    H127577   5.874   4.476   8.564  0.5520 -0.8327 -1.8013
 2006TIP3    H227578   5.930   4.613   8.595 -1.3419 -0.6917  1.5173
 2007TIP3   OH227579   3.193   1.292   0.464 -0.1489  0.1623  0.2695
 2007TIP3    H127580   3.254   1.364   0.448  2.4179 -1.6082  1.3832
 2007TIP3    H227581   3.207   1.232   0.390 -1.1115  0.0780  0.1525
 2008TIP3   OH227582   6.052   6.650   0.663  0.2174  0.1386  0.2341
 2008TIP3    H127583   6.133   6.601   0.674  0.1546 -0.2380 -0.8243
 2008TIP3    H227584   6.012   6.613   0.584  0.6716  2.5762 -1.2390
 2009TIP3   OH227585   1.735   5.576   7.681  0.4575 -0.3592 -0.3339
 2009TIP3    H127586   1.658   5.625   7.708  2.0272  1.5208  1.0637
 2009TIP3    H227587   1.774   5.629   7.611  2.3042  0.6796  1.3511
 2010TIP3   OH227588   5.926   2.720   0.447 -0.1568  0.4835 -0.1978
 2010TIP3    H127589   5.990   2.769   0.396  0.1726  1.9950  1.5678
 2010TIP3    H227590   5.974   2.643   0.478 -0.3117 -0.3561 -1.9211
 2011TIP3   OH227591   5.963   0.496   1.889 -0.1814 -0.1625  0.1367
 2011TIP3    H127592   5.953   0.404   1.863 -1.8080  0.1647 -0.5679
 2011TIP3    H227593   5.896   0.509   1.955  0.8968  0.2160  1.1798
 2012TIP3   OH227594   5.242   4.931   0.929 -0.1793 -0.5623  0.3524
 2012TIP3    H127595   5.229   4.836   0.939 -0.0348 -0.6830 -0.5624
 2012TIP3    H227596   5.298   4.940   0.852 -2.4711  0.3926 -1.2889
 2013TIP3   OH227597   3.386   0.788   1.466  0.5430  0.3320 -0.1045
 2013TIP3    H127598   3.373   0.821   1.555 -1.7952  1.1580 -0.6731
 2013TIP3    H227599   3.438   0.855   1.423  0.5833  0.5577  0.2883
 2014TIP3   OH227600   5.267   5.565   7.373 -0.3201 -0.2793 -0.6787
 2014TIP3    H127601   5.311   5.622   7.310  1.2243  0.7966  1.2355
 2014TIP3    H227602   5.174   5.570   7.350 -0.2227  2.8254 -0.7872
 2015TIP3   OH227603   5.927   0.473   7.110  0.2600  0.1302 -0.1357
 2015TIP3    H127604   5.857   0.537   7.107 -0.2437 -0.4052  0.0786
 2015TIP3    H227605   5.901   0.411   7.178  1.1075  0.1178  0.1929
 2016TIP3   OH227606   0.394   0.585   6.189 -0.1142 -0.5783 -0.1201
 2016TIP3    H127607   0.469   0.644   6.188 -0.6019  0.0805  0.6370
 2016TIP3    H227608   0.320   0.641   6.214 -0.7819 -1.3017 -0.4117
 2017TIP3   OH227609   1.262   5.563   7.134  0.2560  0.4560  0.4350
 2017TIP3    H127610   1.313   5.492   7.174 -1.4774 -0.4492  1.1683
 2017TIP3    H227611   1.239   5.530   7.047 -0.6100  0.0613  0.8029
 2018TIP3   OH227612   2.396   6.692   1.593 -0.3136 -0.1610  0.1284
 2018TIP3    H127613   2.317   6.651   1.627 -0.8154 -0.0629 -0.8755
 2018TIP3    H227614   2.434   6.627   1.534 -0.1247  0.1275 -0.0743
 2019TIP3   OH227615   5.848   6.566   7.036 -0.1884  0.0367  0.0107
 2019TIP3    H127616   5.862   6.643   7.090  0.4219 -0.4436  0.5512
 2019TIP3    H227617   5.771   6.523   7.074  1.6060 -1.5636  2.0167
 2020TIP3   OH227618   0.520   4.803   1.163 -0.5486 -0.4291  0.7263
 2020TIP3    H127619   0.586   4.763   1.219 -0.7876 -2.0480 -0.1040
 2020TIP3    H227620   0.437   4.764   1.192 -0.9626  0.4178  0.7192
 2021TIP3   OH227621   1.036   3.195   8.410  0.7717 -0.6726 -0.0879
 2021TIP3    H127622   1.130   3.195   8.426  0.6730 -2.3487  0.7310
 2021TIP3    H227623   0.997   3.217   8.494  0.4082 -0.4242 -0.3152
 2022TIP3   OH227624   6.410   0.678   7.477  0.5949  0.3386 -0.0202
 2022TIP3    H127625   6.481   0.638   7.527  1.2990 -1.1536 -2.0975
 2022TIP3    H227626   6.443   0.765   7.455  1.6024 -0.1547 -0.5402
 2023TIP3   OH227627   2.973   4.757   6.629 -0.5565  0.1709  0.1443
 2023TIP3    H127628   2.997   4.723   6.715 -0.8794  0.2747  0.2783
 2023TIP3    H227629   3.045   4.731   6.572 -1.7222 -2.5811 -0.2280
 2024TIP3   OH227630   3.777   4.591   7.006 -0.0333  0.6787 -0.7113
 2024TIP3    H127631   3.788   4.631   7.092 -1.5955  0.6329 -0.4612
 2024TIP3    H227632   3.683   4.585   6.993  0.1188 -1.6057 -1.3496
 2025TIP3   OH227633   3.680   6.574   1.065  0.1840 -0.4683 -0.0769
 2025TIP3    H127634   3.754   6.580   1.004 -0.2702 -1.3373 -0.7318
 2025TIP3    H227635   3.720   6.582   1.152  0.7020  2.1915 -0.4691
 2026TIP3   OH227636   1.152   4.202   7.214 -0.1480 -0.0481  0.8167
 2026TIP3    H127637   1.208   4.126   7.199 -0.6867 -0.1932 -0.6637
 2026TIP3    H227638   1.089   4.173   7.279  0.3978 -0.4591  1.1753
 2027TIP3   OH227639   1.818   5.864   1.021  0.3091 -0.0282 -0.0303
 2027TIP3    H127640   1.843   5.861   0.929 -0.9367  1.6921 -0.4699
 2027TIP3    H227641   1.862   5.788   1.060  0.9080 -0.7617 -2.0063
 2028TIP3   OH227642   0.926   1.372   8.278 -0.0587  0.3130 -0.2534
 2028TIP3    H127643   1.000   1.396   8.335 -0.0849 -0.4656  0.1204
 2028TIP3    H227644   0.866   1.325   8.335  0.7275 -2.0601 -1.2694
 2029TIP3   OH227645   3.229   2.614   1.334  0.2848  0.2479 -0.3643
 2029TIP3    H127646   3.229   2.543   1.398  1.7335  1.5503  1.1907
 2029TIP3    H227647   3.156   2.671   1.361 -0.5194 -0.3180 -1.2696
 2030TIP3   OH227648   2.483   6.786   1.857  0.3627 -0.6789 -0.1101
 2030TIP3    H127649   2.411   6.769   1.918 -0.1903  0.0162 -0.5527
 2030TIP3    H227650   2.451   6.755   1.772  0.4454 -0.0713 -0.3691
 2031TIP3   OH227651   1.764   5.526   1.178  0.5783 -0.0235 -0.3241
 2031TIP3    H127652   1.729   5.520   1.089  0.2492 -3.4070 -0.0720
 2031TIP3    H227653   1.700   5.580   1.225 -1.6261 -1.7443 -1.1514
 2032TIP3   OH227654   0.457   3.501   7.389  0.3904 -0.1811  0.4846
 2032TIP3    H127655   0.474   3.594   7.397 -0.6507  0.1197 -0.5504
 2032TIP3    H227656   0.367   3.495   7.357  0.3351 -1.5465  0.8234
 2033TIP3   OH227657   2.398   6.369   8.083  0.3972 -0.0546  0.1789
 2033TIP3    H127658   2.447   6.286   8.081  0.9203  0.1878  1.7007
 2033TIP3    H227659   2.306   6.343   8.072  0.5658 -0.8441  0.5534
 2034TIP3   OH227660   5.276   5.270   1.222  0.1734  0.6585  0.3740
 2034TIP3    H127661   5.234   5.223   1.150 -0.0231  2.9227 -1.1066
 2034TIP3    H227662   5.323   5.203   1.271  0.1849 -1.0197 -1.7804
 2035TIP3   OH227663   6.095   6.710   1.340  0.3300 -0.4614 -0.3008
 2035TIP3    H127664   6.105   6.715   1.244 -2.2623  2.8933 -0.5838
 2035TIP3    H227665   6.015   6.660   1.353  0.2403 -0.2262  0.0548
 2036TIP3   OH227666   1.317   2.318   1.573 -0.0702 -0.6245 -0.2547
 2036TIP3    H127667   1.360   2.385   1.520  0.7023 -0.4148  0.6225
 2036TIP3    H227668   1.229   2.352   1.589 -0.0770 -0.3736 -0.8067
 2037TIP3   OH227669   5.174   4.557   1.961 -0.1475 -0.0848 -0.0810
 2037TIP3    H127670   5.212   4.630   2.010 -2.4182  0.5875  0.7926
 2037TIP3    H227671   5.168   4.486   2.025 -0.6829 -0.0667 -0.1106
 2038TIP3   OH227672   2.793   1.914   6.937  0.3472 -0.2410 -0.2569
 2038TIP3    H127673   2.854   1.981   6.906 -1.4976  0.9413 -1.5226
 2038TIP3    H227674   2.831   1.883   7.019  2.1546  1.0999 -0.5348
 2039TIP3   OH227675   0.196   5.836   7.985  0.3611 -0.0587  0.3234
 2039TIP3    H127676   0.113   5.884   7.976  0.6359  0.3111 -0.3181
 2039TIP3    H227677   0.171   5.751   8.020 -0.3114 -0.0099 -0.0190
 2040TIP3   OH227678   4.836   5.651   8.493  0.3223 -0.2734 -0.0706
 2040TIP3    H127679   4.812   5.728   8.545 -1.8024 -0.7064 -0.3088
 2040TIP3    H227680   4.928   5.664   8.472  0.5775  1.1560  1.6751
 2041TIP3   OH227681   3.320   0.212   0.499  0.4459  0.8454 -0.6052
 2041TIP3    H127682   3.400   0.161   0.502 -0.5923 -0.8229  0.9303
 2041TIP3    H227683   3.303   0.236   0.590 -0.2884  2.0097 -1.0249
 2042TIP3   OH227684   4.753   2.372   6.551 -0.6080  0.2269  0.2777
 2042TIP3    H127685   4.754   2.297   6.611 -1.0047  1.1389  1.4542
 2042TIP3    H227686   4.670   2.415   6.568 -0.0138  1.4248  0.2193
 2043TIP3   OH227687   1.920   5.135   7.788 -0.6151  0.6272 -0.5120
 2043TIP3    H127688   2.011   5.122   7.812 -0.9898 -0.9676  0.1038
 2043TIP3    H227689   1.918   5.224   7.752  1.6733 -0.1551 -2.9060
 2044TIP3   OH227690   2.693   4.699   7.424  0.6171  0.0582 -0.4452
 2044TIP3    H127691   2.760   4.657   7.477 -0.2582  0.7494  1.2939
 2044TIP3    H227692   2.714   4.674   7.334  1.1961 -2.5476  0.3317
 2045TIP3   OH227693   1.658   0.280   0.520  0.4413 -0.2142  0.1377
 2045TIP3    H127694   1.596   0.351   0.503 -1.2995 -1.2558  1.8265
 2045TIP3    H227695   1.686   0.295   0.611  2.1097 -0.2270 -0.3372
 2046TIP3   OH227696   3.960   6.144   0.331  0.1705  0.2983  0.2357
 2046TIP3    H127697   3.896   6.121   0.264  0.8558 -0.6143 -0.1370
 2046TIP3    H227698   3.917   6.211   0.383 -0.6412  0.5359 -0.6996
 2047TIP3   OH227699   1.027   2.597   8.520  0.4432  0.5791 -0.3104
 2047TIP3    H127700   1.041   2.689   8.542 -0.7054  0.7233 -0.1257
 2047TIP3    H227701   0.988   2.598   8.433 -2.5510  0.4986  0.9278
 2048TIP3   OH227702   5.488   3.309   6.909 -0.7430  0.2140  0.6264
 2048TIP3    H127703   5.456   3.383   6.857 -1.2472  0.2686  1.0074
 2048TIP3    H227704   5.422   3.298   6.977 -0.0969  0.1316  1.2448
 2049TIP3   OH227705   2.118   2.956   6.434 -0.0162  0.4506 -0.2133
 2049TIP3    H127706   2.033   2.935   6.397 -0.3265  1.8100 -0.3188
 2049TIP3    H227707   2.168   2.992   6.361 -0.2966  2.2374  0.4436
 2050TIP3   OH227708   2.626   0.899   2.108 -0.4187 -0.1109 -0.7108
 2050TIP3    H127709   2.721   0.902   2.100 -0.5383  0.4556 -2.0809
 2050TIP3    H227710   2.599   0.991   2.110 -0.8630 -0.2424  0.9504
 2051TIP3   OH227711   0.776   6.056   6.328  0.1041 -0.6321 -0.0410
 2051TIP3    H127712   0.686   6.079   6.304  0.1454 -1.0427 -0.5899
 2051TIP3    H227713   0.799   6.119   6.396 -0.0664  0.4655 -0.9712
 2052TIP3   OH227714   6.781   0.385   0.493  0.1415 -0.1133 -0.3782
 2052TIP3    H127715   6.728   0.433   0.557 -0.2959  1.0800 -1.5807
 2052TIP3    H227716   6.816   0.453   0.434 -0.2671 -1.2267 -1.9855
 2053TIP3   OH227717   3.722   1.465   1.069  0.2224  0.0546  0.0685
 2053TIP3    H127718   3.778   1.503   1.136 -0.6824 -0.0755  0.9224
 2053TIP3    H227719   3.769   1.387   1.040  0.9479  0.4917  0.0471
 2054TIP3   OH227720   3.687   5.267   0.672 -0.5810  0.5553 -0.0698
 2054TIP3    H127721   3.768   5.224   0.703  0.4736  0.4372 -2.7244
 2054TIP3    H227722   3.617   5.226   0.723  0.9851  0.6260  2.2881
 2055TIP3   OH227723   5.239   3.336   7.025  0.2364 -0.2989 -0.0828
 2055TIP3    H127724   5.162   3.318   6.972  0.7265  2.3334 -1.8772
 2055TIP3    H227725   5.225   3.424   7.059  2.2665  0.0871 -0.1198
 2056TIP3   OH227726   5.726   0.165   0.976  0.7647  0.2031 -1.0537
 2056TIP3    H127727   5.737   0.172   0.881  1.5144 -0.5993 -1.0362
 2056TIP3    H227728   5.779   0.089   1.001 -2.0782 -1.7717 -0.4525
 2057TIP3   OH227729   3.152   1.402   0.922 -0.9977 -0.0022  0.5063
 2057TIP3    H127730   3.142   1.308   0.935 -1.3318 -0.0895 -0.2823
 2057TIP3    H227731   3.167   1.411   0.828  1.8299  0.5217  0.9417
 2058TIP3   OH227732   0.910   1.679   1.592  0.4869  0.0779  0.0808
 2058TIP3    H127733   0.903   1.625   1.670  0.5798  0.6552  0.4993
 2058TIP3    H227734   0.869   1.628   1.523 -0.5279 -0.0004  0.7336
 2059TIP3   OH227735   6.577   1.770   6.957  0.0546 -0.1724 -0.5634
 2059TIP3    H127736   6.578   1.730   6.870  1.1394 -0.0469 -0.6178
 2059TIP3    H227737   6.668   1.767   6.986 -0.1492  0.6076  0.1918
 2060TIP3   OH227738   4.270   6.199   0.767 -0.2966  0.3139 -0.2125
 2060TIP3    H127739   4.220   6.272   0.802 -0.0352  0.2343  0.3454
 2060TIP3    H227740   4.220   6.169   0.691 -0.0065  1.5602 -0.9154
 2061TIP3   OH227741   5.624   2.798   1.718 -0.4651 -0.0206  0.4628
 2061TIP3    H127742   5.654   2.792   1.627  1.8935 -0.6038  1.2011
 2061TIP3    H227743   5.582   2.884   1.724 -0.8975 -0.0795 -1.2169
 2062TIP3   OH227744   6.420   6.836   1.909 -0.2070  0.2276  0.4817
 2062TIP3    H127745   6.514   6.853   1.898  0.4762 -3.5600 -1.1483
 2062TIP3    H227746   6.388   6.823   1.820 -1.4969 -1.6794  1.1607
 2063TIP3   OH227747   0.530   3.742   7.496 -0.2801  0.6498  0.0137
 2063TIP3    H127748   0.437   3.738   7.518 -0.8836  0.1580 -2.3577
 2063TIP3    H227749   0.570   3.791   7.569 -2.3881  0.9450  1.0387
 2064TIP3   OH227750   0.665   1.453   7.952 -0.2840 -0.5669 -0.2525
 2064TIP3    H127751   0.755   1.447   7.919 -0.5979 -0.5998 -1.1265
 2064TIP3    H227752   0.658   1.382   8.015 -0.4695 -2.2452 -2.0620
 2065TIP3   OH227753   5.898   2.673   6.766 -0.1035  0.2736 -0.3427
 2065TIP3    H127754   5.935   2.592   6.730 -0.0700  0.1722 -0.0830
 2065TIP3    H227755   5.850   2.645   6.844  0.5032  0.5945  0.1531
 2066TIP3   OH227756   6.307   3.339   1.844 -0.4187  0.2916 -0.1580
 2066TIP3    H127757   6.346   3.297   1.921 -1.1920 -0.6490 -0.2463
 2066TIP3    H227758   6.276   3.265   1.791 -0.8934  0.9642 -0.8290
 2067TIP3   OH227759   5.495   0.157   7.741  0.0746 -0.1617 -0.4724
 2067TIP3    H127760   5.517   0.206   7.820  1.7804 -0.5763 -0.6677
 2067TIP3    H227761   5.471   0.070   7.773  0.2090 -0.1589 -0.3631
 2068TIP3   OH227762   5.099   5.734   7.816  0.0401  0.7080  0.4020
 2068TIP3    H127763   5.129   5.774   7.898 -0.7820  0.0784  1.0359
 2068TIP3    H227764   5.113   5.801   7.749  0.4197  1.3561  1.1188
 2069TIP3   OH227765   4.028   6.093   2.348 -0.3991  0.0140 -0.2092
 2069TIP3    H127766   4.089   6.162   2.374  0.0167  0.1039 -1.3646
 2069TIP3    H227767   3.962   6.092   2.417 -0.9268  2.1947 -0.5913
 2070TIP3   OH227768   0.940   1.960   1.669  0.2638  0.4658 -0.6808
 2070TIP3    H127769   0.967   1.989   1.582  2.0421 -0.5515 -0.5231
 2070TIP3    H227770   0.912   1.869   1.656 -0.4030  0.6122 -0.3320
 2071TIP3   OH227771   3.387   0.643   1.918  0.0272  0.1223 -0.3642
 2071TIP3    H127772   3.451   0.616   1.852 -2.3999 -0.4852 -2.6773
 2071TIP3    H227773   3.396   0.579   1.988  2.7212  0.8069  0.0071
 2072TIP3   OH227774   4.385   2.356   2.116  0.0977  0.5410  0.0246
 2072TIP3    H127775   4.448   2.343   2.187  1.7335 -0.8486 -1.5850
 2072TIP3    H227776   4.361   2.448   2.122  1.4911  0.8553  1.3507
 2073TIP3   OH227777   6.203   1.104   7.533  0.3420  0.0511 -0.4042
 2073TIP3    H127778   6.122   1.070   7.570 -0.8361 -0.0513 -2.8785
 2073TIP3    H227779   6.239   1.159   7.602 -1.7027 -0.0836  0.8702
 2074TIP3   OH227780   4.384   1.816   6.718 -0.6060  0.1174  0.2331
 2074TIP3    H127781   4.373   1.889   6.657 -1.6190  1.1975  1.6381
 2074TIP3    H227782   4.422   1.746   6.665 -0.7623  1.2485 -1.4517
 2075TIP3   OH227783   2.812   5.027   7.052  0.0630 -0.0040 -0.5285
 2075TIP3    H127784   2.848   5.008   7.138 -0.3457  1.4437 -0.0130
 2075TIP3    H227785   2.719   5.045   7.068 -0.1456 -0.2894 -1.3487
 2076TIP3   OH227786   4.289   0.008   0.676 -0.1970 -0.2201 -0.2173
 2076TIP3    H127787   4.383   0.007   0.656 -0.5295  0.5583 -2.0131
 2076TIP3    H227788   4.263   0.099   0.666 -1.5456 -0.7406 -1.9631
 2077TIP3   OH227789   2.962   5.222   6.430 -0.3411 -0.1476  0.3052
 2077TIP3    H127790   3.004   5.270   6.501 -0.1346 -0.4031  0.3584
 2077TIP3    H227791   3.000   5.134   6.434 -0.2818 -0.1476 -0.1558
 2078TIP3   OH227792   5.313   0.423   0.570 -0.0538 -0.4619  0.4149
 2078TIP3    H127793   5.382   0.474   0.613 -0.9848 -1.0561  2.7834
 2078TIP3    H227794   5.271   0.374   0.642 -3.4627  0.4710 -0.7241
 2079TIP3   OH227795   6.102   1.290   0.760 -0.3566  0.6520 -0.3955
 2079TIP3    H127796   6.177   1.298   0.700 -0.1768 -0.6310 -0.3715
 2079TIP3    H227797   6.045   1.363   0.735  0.2717  0.8608 -1.3227
 2080TIP3   OH227798   0.835   6.414   7.863  0.0410 -0.0328 -0.1581
 2080TIP3    H127799   0.764   6.354   7.883 -1.8932  1.3846 -2.2178
 2080TIP3    H227800   0.793   6.485   7.812  2.9362  0.7637 -1.6650
 2081TIP3   OH227801   5.662   2.415   0.744  0.1599  0.4280 -0.7810
 2081TIP3    H127802   5.715   2.360   0.686  1.5513  1.1637 -0.2522
 2081TIP3    H227803   5.684   2.505   0.719 -0.9170  0.7538 -0.5939
 2082TIP3   OH227804   3.487   5.016   6.429 -0.4668  0.2261  0.0097
 2082TIP3    H127805   3.538   5.078   6.481 -1.3874  0.8193  0.2240
 2082TIP3    H227806   3.500   5.044   6.339 -1.8493  1.5218  0.1725
 2083TIP3   OH227807   6.892   6.727   1.277 -0.2696 -0.0793 -0.2482
 2083TIP3    H127808   6.903   6.645   1.325  1.2631  0.9307  1.2567
 2083TIP3    H227809   6.947   6.718   1.200 -0.0277 -0.4322 -0.0351
 2084TIP3   OH227810   2.805   4.733   8.107 -0.4036 -0.6206 -0.0799
 2084TIP3    H127811   2.848   4.656   8.070  1.9218 -0.3310  1.7174
 2084TIP3    H227812   2.848   4.808   8.064  1.8552 -0.3014  2.4302
 2085TIP3   OH227813   5.468   0.985   1.282 -0.3730  0.3943 -0.1700
 2085TIP3    H127814   5.479   0.918   1.349  1.2864 -0.7080 -1.4638
 2085TIP3    H227815   5.485   1.068   1.327  0.2956 -0.2914  0.8645
 2086TIP3   OH227816   1.078   6.357   7.140  0.4066  0.1437 -0.4187
 2086TIP3    H127817   0.986   6.352   7.116  0.0284 -2.7445  1.2490
 2086TIP3    H227818   1.089   6.445   7.177 -1.8232  0.2994 -0.0167
 2087TIP3   OH227819   5.308   6.474   1.455 -0.0003 -0.5397 -0.3295
 2087TIP3    H127820   5.321   6.531   1.530 -0.3599 -0.6258 -0.1989
 2087TIP3    H227821   5.219   6.492   1.426  0.4337  0.1518 -1.2973
 2088TIP3   OH227822   5.995   5.217   2.311  0.0317 -0.3212  0.6119
 2088TIP3    H127823   5.931   5.185   2.373  0.4162 -1.6734  0.3490
 2088TIP3    H227824   5.983   5.312   2.310 -1.9271 -0.5263  0.5951
 2089TIP3   OH227825   2.100   3.949   0.747  0.6021 -0.0399 -0.0717
 2089TIP3    H127826   2.191   3.933   0.770  0.4923 -1.8285 -0.7276
 2089TIP3    H227827   2.052   3.874   0.782 -0.7196  1.0999  0.6808
 2090TIP3   OH227828   0.059   3.070   7.349 -0.7852 -0.2342  0.0682
 2090TIP3    H127829   0.049   2.992   7.404 -0.8162  0.0309  0.4411
 2090TIP3    H227830   0.068   3.035   7.260  1.2670 -0.7907  0.4319
 2091TIP3   OH227831   5.936   5.220   7.766  0.0794 -0.1315 -0.4461
 2091TIP3    H127832   5.893   5.181   7.690 -0.0006  2.1241 -1.6526
 2091TIP3    H227833   6.006   5.274   7.729 -0.2630  1.3994  1.0019
 2092TIP3   OH227834   6.010   3.604   1.053  0.0479  0.4466  0.2110
 2092TIP3    H127835   6.025   3.698   1.063 -0.7896  0.6265 -0.1485
 2092TIP3    H227836   5.915   3.594   1.064 -0.0126 -0.2127 -0.8112
 2093TIP3   OH227837   0.892   0.552   6.302  0.3915  0.9065 -0.1950
 2093TIP3    H127838   0.887   0.458   6.284 -0.7675  1.1214 -1.0958
 2093TIP3    H227839   0.844   0.563   6.384 -0.1387  0.8141 -0.4923
 2094TIP3   OH227840   4.978   6.167   1.096  0.3748  0.4646 -0.8054
 2094TIP3    H127841   4.963   6.251   1.052  0.6605  1.1271  0.3236
 2094TIP3    H227842   4.919   6.169   1.172  0.2202 -0.4623 -0.8865
 2095TIP3   OH227843   5.322   5.835   7.225  0.1019  0.3310 -0.1566
 2095TIP3    H127844   5.392   5.879   7.273  0.5299 -0.2895 -0.1958
 2095TIP3    H227845   5.241   5.876   7.257  0.2301 -1.1276  2.3451
 2096TIP3   OH227846   6.589   4.279   2.233 -0.0398  0.1588 -0.1157
 2096TIP3    H127847   6.573   4.333   2.310  0.2248 -1.1135  0.8623
 2096TIP3    H227848   6.624   4.339   2.168  1.6216  0.9188  1.4098
 2097TIP3   OH227849   3.332   4.280   0.281  0.2958 -0.1894  0.5070
 2097TIP3    H127850   3.300   4.204   0.330  2.7859 -0.3905  2.0059
 2097TIP3    H227851   3.324   4.255   0.189  0.1832 -1.8978  0.9505
 2098TIP3   OH227852   4.506   2.974   0.240 -0.0313 -0.4112  0.0143
 2098TIP3    H127853   4.420   2.965   0.200  0.4253  0.9471 -1.3672
 2098TIP3    H227854   4.563   3.002   0.169  2.1748 -3.7104  0.2430
 2099TIP3   OH227855   2.530   3.985   6.408  0.4985 -0.1938  0.3553
 2099TIP3    H127856   2.468   4.058   6.396  1.0074  0.1595 -0.1999
 2099TIP3    H227857   2.609   4.014   6.362  0.3247 -1.5739 -0.8738
 2100TIP3   OH227858   2.418   4.816   1.173  0.1794 -0.4866 -0.1581
 2100TIP3    H127859   2.475   4.758   1.122  0.6788  0.3681 -0.6077
 2100TIP3    H227860   2.378   4.759   1.238 -0.0126 -1.5024 -1.1274
 2101TIP3   OH227861   6.697   4.711   8.469  0.1565 -0.6172 -0.1038
 2101TIP3    H127862   6.730   4.686   8.555  0.6163 -2.6590 -0.8162
 2101TIP3    H227863   6.732   4.645   8.409 -1.7273 -0.3757 -1.5733
 2102TIP3   OH227864   4.514   2.158   7.638  0.5252  0.2873  0.0179
 2102TIP3    H127865   4.478   2.117   7.560  0.2671 -2.3608  1.4111
 2102TIP3    H227866   4.458   2.127   7.709  1.7923  1.1816  1.4615
 2103TIP3   OH227867   2.645   5.373   0.620 -0.6579 -0.4118 -0.0803
 2103TIP3    H127868   2.688   5.356   0.704  1.9461 -3.0252 -1.7496
 2103TIP3    H227869   2.581   5.303   0.610  1.3335 -2.1410 -1.5654
 2104TIP3   OH227870   5.249   4.007   1.375  0.1693 -0.0989  0.2416
 2104TIP3    H127871   5.318   3.951   1.339 -1.5553 -1.1394 -1.6980
 2104TIP3    H227872   5.172   3.950   1.381 -2.1669  2.1840 -3.3377
 2105TIP3   OH227873   3.092   3.493   1.057  0.1539  0.3595 -0.6967
 2105TIP3    H127874   3.105   3.578   1.098  0.4327 -0.4612  1.0064
 2105TIP3    H227875   3.056   3.513   0.971  1.5057  2.2443 -0.8750
 2106TIP3   OH227876   6.014   2.108   7.413  0.2059  0.5982  0.3612
 2106TIP3    H127877   6.001   2.035   7.474  1.5846 -1.1043 -1.2423
 2106TIP3    H227878   6.106   2.102   7.388  0.2063  2.5571 -0.2867
 2107TIP3   OH227879   6.068   2.444   6.799  0.1818  0.6259  0.1898
 2107TIP3    H127880   6.101   2.382   6.734  1.4204  1.0298  0.3992
 2107TIP3    H227881   6.011   2.392   6.855  1.9640 -0.5917  0.9558
 2108TIP3   OH227882   2.327   0.484   7.837  0.1813  0.5712  0.5593
 2108TIP3    H127883   2.331   0.528   7.922 -0.6341 -0.3074  1.0828
 2108TIP3    H227884   2.393   0.415   7.842 -0.7788 -0.3497  1.0299
 2109TIP3   OH227885   2.072   3.911   6.930  0.0335  0.3116  0.6077
 2109TIP3    H127886   2.091   3.853   6.856  0.7677  0.9316  0.3024
 2109TIP3    H227887   2.061   3.998   6.890 -1.9642  0.2616  0.9432
 2110TIP3   OH227888   4.241   6.488   1.290 -0.4340 -0.0591  0.0588
 2110TIP3    H127889   4.311   6.423   1.297  0.0055  0.4853  0.7885
 2110TIP3    H227890   4.282   6.564   1.248 -0.4991  0.3750  0.7623
 2111TIP3   OH227891   4.334   2.683   1.400  0.2214 -0.1960  0.1719
 2111TIP3    H127892   4.318   2.604   1.451 -0.7201 -1.2379 -1.6407
 2111TIP3    H227893   4.426   2.677   1.375  0.6343  0.2198  1.5074
 2112TIP3   OH227894   6.274   2.203   0.932  0.5197 -1.1030 -0.3926
 2112TIP3    H127895   6.363   2.239   0.935  0.3521 -0.6682 -0.6357
 2112TIP3    H227896   6.280   2.129   0.872  0.4302 -0.2724 -1.4433
 2113TIP3   OH227897   3.676   2.391   8.125  0.3389 -0.0079  0.0028
 2113TIP3    H127898   3.750   2.441   8.091  0.5079 -1.0828 -1.3017
 2113TIP3    H227899   3.711   2.304   8.141 -0.3896 -0.2372  0.4262
 2114TIP3   OH227900   6.658   6.735   7.166 -0.1853  0.0616  0.5488
 2114TIP3    H127901   6.705   6.657   7.137 -1.1005 -0.1009 -0.5783
 2114TIP3    H227902   6.566   6.715   7.148 -0.5819  0.7902  1.6969
 2115TIP3   OH227903   6.234   6.273   1.600 -0.0238 -0.1004 -0.4871
 2115TIP3    H127904   6.208   6.248   1.689 -0.2329 -0.1028 -0.5492
 2115TIP3    H227905   6.305   6.212   1.578  1.0685  0.8561  0.2534
 2116TIP3   OH227906   5.677   4.786   7.049 -0.3202  0.1014  0.1214
 2116TIP3    H127907   5.665   4.875   7.017  0.5098 -0.5155 -2.0960
 2116TIP3    H227908   5.707   4.796   7.139  1.3114  2.1187 -0.5852
 2117TIP3   OH227909   0.536   1.727   7.704  0.2263  0.0577  0.0237
 2117TIP3    H127910   0.506   1.647   7.662  0.2781 -0.1002  0.2814
 2117TIP3    H227911   0.608   1.699   7.761  0.2433  0.2866  0.1183
 2118TIP3   OH227912   2.573   0.653   7.887 -0.5012  0.0923 -0.3224
 2118TIP3    H127913   2.567   0.558   7.889  0.7750 -0.0106 -0.1563
 2118TIP3    H227914   2.566   0.676   7.794  0.8336 -0.3237 -0.5514
 2119TIP3   OH227915   2.206   5.740   7.356  0.6918 -0.0017  0.3012
 2119TIP3    H127916   2.246   5.811   7.406 -0.6698  1.9697 -1.2795
 2119TIP3    H227917   2.270   5.721   7.287  1.3342 -0.8304  1.0801
 2120TIP3   OH227918   5.297   6.665   1.177  0.8649  0.0995  0.0886
 2120TIP3    H127919   5.255   6.598   1.124  0.0315  1.3935 -0.9726
 2120TIP3    H227920   5.244   6.744   1.163  1.6544  0.9290  1.4755
 2121TIP3   OH227921   3.152   0.152   1.624 -0.5021 -0.2700 -0.2157
 2121TIP3    H127922   3.102   0.137   1.704  1.5749  1.0695  1.4405
 2121TIP3    H227923   3.220   0.085   1.626 -0.8637 -0.6990 -1.3024
 2122TIP3   OH227924   5.970   3.915   6.811  0.0801  0.3203  0.1026
 2122TIP3    H127925   5.914   3.992   6.800  0.4647  0.7767  1.2214
 2122TIP3    H227926   6.023   3.913   6.731 -0.1952  0.9948 -0.1073
 2123TIP3   OH227927   2.527   4.087   0.536  0.4950 -0.0649  0.5592
 2123TIP3    H127928   2.441   4.045   0.544  0.7315 -0.3286  1.9515
 2123TIP3    H227929   2.589   4.014   0.532  0.7487  0.1202  0.9671
 2124TIP3   OH227930   5.045   6.462   1.374  0.9404 -0.3516 -0.2939
 2124TIP3    H127931   5.052   6.367   1.359  0.6343 -0.2013 -1.4436
 2124TIP3    H227932   4.989   6.468   1.452 -0.1027 -1.1105 -0.9399
 2125TIP3   OH227933   1.943   3.715   8.093  0.0777 -0.1040 -0.0731
 2125TIP3    H127934   1.998   3.759   8.157 -0.6370  1.9362 -0.8076
 2125TIP3    H227935   1.999   3.707   8.015  0.2227 -0.5653  0.0751
 2126TIP3   OH227936   4.494   6.022   0.366  0.2438  0.7543  0.0216
 2126TIP3    H127937   4.521   6.007   0.457  0.8118 -1.5957 -0.4766
 2126TIP3    H227938   4.484   5.934   0.329 -1.9152  1.6128 -1.6594
 2127TIP3   OH227939   4.458   6.258   6.893 -0.0611 -0.3757  0.3688
 2127TIP3    H127940   4.526   6.216   6.841  0.1168  0.1611  0.1575
 2127TIP3    H227941   4.411   6.314   6.830 -0.1337 -0.0685  0.6904
 2128TIP3   OH227942   3.363   0.614   0.967  0.5431 -0.2288  0.3205
 2128TIP3    H127943   3.374   0.520   0.983 -1.1478 -0.7919 -1.3943
 2128TIP3    H227944   3.338   0.651   1.052  1.0552 -1.3448  0.9781
 2129TIP3   OH227945   6.643   6.150   6.821 -0.5370 -0.3535 -0.2991
 2129TIP3    H127946   6.572   6.214   6.815  0.1043  0.4012  0.0077
 2129TIP3    H227947   6.722   6.200   6.798 -0.1009 -1.1816 -0.6493
 2130TIP3   OH227948   4.761   3.052   6.227 -0.0594  0.2388 -0.0355
 2130TIP3    H127949   4.853   3.046   6.249 -0.2616  0.5135  0.9172
 2130TIP3    H227950   4.752   3.137   6.183  0.1906  0.0844 -0.3820
 2131TIP3   OH227951   3.376   1.520   7.744  0.2033  0.6363  0.0077
 2131TIP3    H127952   3.427   1.485   7.817 -0.2120 -0.2602 -0.1194
 2131TIP3    H227953   3.300   1.561   7.786  0.4412  0.9604  0.1277
 2132TIP3   OH227954   5.391   4.932   7.175  0.8965  0.2977 -0.3558
 2132TIP3    H127955   5.370   4.843   7.203  0.5984 -0.2118 -2.0622
 2132TIP3    H227956   5.478   4.950   7.212  0.4387 -0.1960  1.0401
 2133TIP3   OH227957   6.037   4.065   0.380  0.2821 -0.2573 -0.3812
 2133TIP3    H127958   6.038   4.072   0.475  0.1979  1.1199 -0.4665
 2133TIP3    H227959   6.090   4.138   0.350  1.8034 -1.7095 -1.3698
 2134TIP3   OH227960   3.311   6.397   8.280 -0.9764  0.0164  0.5773
 2134TIP3    H127961   3.236   6.400   8.221  0.6484  2.8497 -1.6049
 2134TIP3    H227962   3.373   6.338   8.238  0.2119  2.0928 -0.7555
 2135TIP3   OH227963   6.597   1.752   0.926 -0.2282  0.3239  0.0399
 2135TIP3    H127964   6.648   1.727   1.003 -0.7577  1.1873  0.6941
 2135TIP3    H227965   6.507   1.761   0.959 -0.7142 -0.6249 -0.9703
 2136TIP3   OH227966   5.477   4.086   7.641 -0.2195  0.3471 -0.1675
 2136TIP3    H127967   5.393   4.064   7.600  0.7510 -0.3186 -1.8752
 2136TIP3    H227968   5.525   4.004   7.642  0.9530  1.0137 -0.5257
 2137TIP3   OH227969   6.266   1.682   7.972  0.7331 -0.2371  0.2752
 2137TIP3    H127970   6.241   1.666   7.881 -0.4749 -1.1571  0.7474
 2137TIP3    H227971   6.195   1.645   8.023  1.4365  0.2014  1.6078
 2138TIP3   OH227972   3.209   3.756   6.549  0.0223  0.7021 -0.0392
 2138TIP3    H127973   3.171   3.737   6.464 -0.3556  0.9012  0.0841
 2138TIP3    H227974   3.249   3.842   6.539  3.9505 -1.0475 -1.3604
 2139TIP3   OH227975   5.038   5.129   8.199 -0.4861  0.2333  0.1724
 2139TIP3    H127976   5.113   5.187   8.183  1.9047 -1.9705  2.4175
 2139TIP3    H227977   5.001   5.113   8.112  1.3404  1.8216 -0.9791
 2140TIP3   OH227978   4.422   5.161   0.929 -0.0916  0.2794  0.8670
 2140TIP3    H127979   4.337   5.130   0.961  0.2717 -0.7413  0.8650
 2140TIP3    H227980   4.465   5.197   1.007 -0.2901  0.2795  0.9775
 2141TIP3   OH227981   4.085   1.464   8.481  0.2065  0.5394 -0.6148
 2141TIP3    H127982   4.024   1.426   8.543 -0.0030  1.0045 -0.5325
 2141TIP3    H227983   4.039   1.462   8.397  0.2384  0.5088 -0.6315
 2142TIP3   OH227984   2.367   1.470   0.220 -0.4770 -0.2915  0.0584
 2142TIP3    H127985   2.420   1.473   0.300  0.7401 -0.6912 -0.6999
 2142TIP3    H227986   2.282   1.505   0.246  1.0147  3.3416  0.6655
 2143TIP3   OH227987   3.518   4.907   8.488 -0.2807  0.8967 -0.1567
 2143TIP3    H127988   3.584   4.955   8.537 -1.0630  0.1725  1.6915
 2143TIP3    H227989   3.453   4.882   8.553 -1.3090 -0.2533 -1.5527
 2144TIP3   OH227990   2.938   2.964   0.925  0.2364  0.4270  0.0983
 2144TIP3    H127991   2.945   3.058   0.909 -0.1293  0.5917  0.8553
 2144TIP3    H227992   2.995   2.948   1.000 -0.1420  0.1517  0.3337
 2145TIP3   OH227993   0.248   0.534   1.151  0.1002 -0.0753  0.7954
 2145TIP3    H127994   0.234   0.600   1.083 -1.3034 -0.5448  0.5903
 2145TIP3    H227995   0.264   0.585   1.231  1.6364  0.4838  0.1834
 2146TIP3   OH227996   4.603   6.074   1.848  0.1816 -0.0808  0.3327
 2146TIP3    H127997   4.564   6.024   1.776  1.5381 -2.1202  0.9402
 2146TIP3    H227998   4.689   6.101   1.815 -0.3613  1.6156  0.1671
 2147TIP3   OH227999   4.599   3.754   0.021  0.5326 -0.2140  0.5691
 2147TIP3    H128000   4.601   3.726   0.112  0.8345 -5.2358 -0.6570
 2147TIP3    H228001   4.684   3.728  -0.014  0.3313  1.3162 -1.2570
 2148TIP3   OH228002   0.061   2.177   6.396 -0.4339 -0.3526  0.3416
 2148TIP3    H128003   0.002   2.163   6.471 -0.2514 -1.2708  0.3221
 2148TIP3    H228004   0.030   2.117   6.329  0.7734 -1.1607  0.4767
 2149TIP3   OH228005   5.123   3.772   1.449  0.2383 -0.1171 -0.1454
 2149TIP3    H128006   5.177   3.726   1.513 -0.1910  1.3703  1.3460
 2149TIP3    H228007   5.101   3.705   1.384  2.1544 -1.2503  0.2886
 2150TIP3   OH228008   3.289   1.364   8.268 -0.2202 -0.2626  0.4254
 2150TIP3    H128009   3.209   1.334   8.310  0.0828  0.2112  1.3646
 2150TIP3    H228010   3.259   1.422   8.197 -0.6871  0.6512  1.3544
 2151TIP3   OH228011   5.815   4.400   1.324  0.2990 -0.0365 -0.9611
 2151TIP3    H128012   5.742   4.428   1.378 -0.2203 -0.5611 -1.3764
 2151TIP3    H228013   5.831   4.475   1.266  0.5528  0.3449 -0.4021
 2152TIP3   OH228014   2.639   4.039   7.293 -0.0745 -0.1117 -0.1354
 2152TIP3    H128015   2.724   4.000   7.315  1.4593  2.3469 -1.2711
 2152TIP3    H228016   2.595   4.050   7.377  1.3283 -0.1844  0.6404
 2153TIP3   OH228017   4.980   2.287   5.969  0.3630 -0.0437 -0.2097
 2153TIP3    H128018   4.976   2.192   5.961  1.2691 -0.1393  0.2539
 2153TIP3    H228019   4.890   2.317   5.958  0.1976 -0.8812 -1.2496
 2154TIP3   OH228020   2.140   3.581   8.507  0.2853  0.0030  0.5695
 2154TIP3    H128021   2.226   3.539   8.519  0.6763  0.1761 -1.2502
 2154TIP3    H228022   2.083   3.509   8.481  0.6762  0.3410 -1.3818
 2155TIP3   OH228023   6.399   4.274   6.973 -0.1781  0.6002  0.7305
 2155TIP3    H128024   6.311   4.300   6.999 -0.5213  0.0621  0.1333
 2155TIP3    H228025   6.455   4.305   7.044 -0.9759 -0.0467  1.6617
 2156TIP3   OH228026   4.102   3.378   6.946  0.1633 -0.3616  0.8674
 2156TIP3    H128027   4.113   3.298   6.895  0.2357 -0.9452  1.7757
 2156TIP3    H228028   4.009   3.399   6.938  0.3210  0.0452 -0.1848
 2157TIP3   OH228029   5.903   4.956   6.334  0.4435 -0.9115  0.1342
 2157TIP3    H128030   5.945   5.015   6.272  0.6865  0.0771  1.1899
 2157TIP3    H228031   5.975   4.906   6.373  0.2344 -1.9561 -0.7851
 2158TIP3   OH228032   3.299   5.338   1.016  0.4617  0.1881 -0.1833
 2158TIP3    H128033   3.316   5.400   0.945  0.4487  0.9424  0.4611
 2158TIP3    H228034   3.249   5.267   0.974  0.4548  0.6144 -0.9207
 2159TIP3   OH228035   2.892   0.543   6.631  0.6525 -0.1270  0.2984
 2159TIP3    H128036   2.945   0.623   6.629 -0.0887  0.4189  1.3451
 2159TIP3    H228037   2.956   0.473   6.646  1.3230  0.2437 -0.7575
 2160TIP3   OH228038   4.273   5.273   1.178 -0.2988 -0.0251  0.3510
 2160TIP3    H128039   4.365   5.250   1.170  0.1115  1.0299  1.6561
 2160TIP3    H228040   4.262   5.346   1.118  0.1039  0.8113  1.2643
 2161TIP3   OH228041   5.390   4.424   7.065  0.5548 -0.0856 -0.4616
 2161TIP3    H128042   5.446   4.376   7.127 -0.4732 -0.0524  0.5269
 2161TIP3    H228043   5.359   4.499   7.115 -1.3472 -0.7535 -0.5611
 2162TIP3   OH228044   4.049   0.368   1.174  0.1966 -0.0181  0.2984
 2162TIP3    H128045   4.087   0.293   1.220 -0.4892 -0.6948 -0.2116
 2162TIP3    H228046   3.955   0.361   1.189 -0.1648 -0.8118 -1.9326
 2163TIP3   OH228047   6.454   3.198   2.028 -0.0178 -0.0951  0.0705
 2163TIP3    H128048   6.545   3.197   2.056  0.0465  0.2542 -0.1185
 2163TIP3    H228049   6.403   3.193   2.110  0.1682 -0.2535  0.1770
 2164TIP3   OH228050   1.256   2.947   6.215  0.1505  0.0959  0.1366
 2164TIP3    H128051   1.197   2.976   6.145 -1.1520  2.4007  2.0151
 2164TIP3    H228052   1.218   2.865   6.246  0.2553 -0.5033 -1.2442
 2165TIP3   OH228053   5.174   1.274   0.931 -0.3975  0.4258  0.1366
 2165TIP3    H128054   5.253   1.241   0.888 -0.1539  1.4376 -0.1974
 2165TIP3    H228055   5.185   1.250   1.023  0.0790  0.1522  0.0100
 2166TIP3   OH228056   4.359   2.833   6.151  0.2082 -0.0757 -0.3156
 2166TIP3    H128057   4.434   2.803   6.099 -0.4836  1.2959 -2.2341
 2166TIP3    H228058   4.290   2.769   6.132  0.5329 -0.7261  0.5968
 2167TIP3   OH228059   4.728   2.970   1.492  0.2364  0.1995  0.1598
 2167TIP3    H128060   4.697   2.923   1.569  0.6843 -0.3680 -0.0006
 2167TIP3    H228061   4.788   2.909   1.449  0.9881  0.9946  0.0569
 2168TIP3   OH228062   3.205   0.522   7.721  0.0954  0.7547 -0.4178
 2168TIP3    H128063   3.117   0.551   7.699  0.7188  1.9598 -1.4113
 2168TIP3    H228064   3.208   0.526   7.817 -1.4742 -1.0203 -0.2356
 2169TIP3   OH228065   4.557   3.348   0.324 -0.2678  0.0319  0.2300
 2169TIP3    H128066   4.471   3.317   0.352 -0.4927  0.1929 -0.2788
 2169TIP3    H228067   4.619   3.295   0.374 -0.6328 -1.5571 -0.9205
 2170TIP3   OH228068   4.773   4.978   8.449  0.2078  0.1908 -0.4222
 2170TIP3    H128069   4.788   5.069   8.425  0.8473  1.1054  2.9866
 2170TIP3    H228070   4.861   4.939   8.448  0.2834  0.3180  0.5761
 2171TIP3   OH228071   5.611   2.144   7.021  0.6476  0.0586 -0.4069
 2171TIP3    H128072   5.697   2.155   7.061  0.3989  0.2690  0.0755
 2171TIP3    H228073   5.614   2.201   6.944  0.5877  0.8600  0.1724
 2172TIP3   OH228074   2.671   5.433   1.157  0.2597  0.2907  0.1870
 2172TIP3    H128075   2.681   5.522   1.122  0.3031 -0.1480 -0.9310
 2172TIP3    H228076   2.607   5.442   1.227  0.0083  1.1441 -0.1446
 2173TIP3   OH228077   4.561   1.536   6.608 -0.2511 -0.7328 -0.2037
 2173TIP3    H128078   4.622   1.598   6.648  0.6979 -0.8861 -1.3666
 2173TIP3    H228079   4.562   1.460   6.665  1.4892 -1.1590 -0.7516
 2174TIP3   OH228080   6.485   6.099   0.834  0.5991  0.2151 -0.0979
 2174TIP3    H128081   6.514   6.097   0.925  0.6701 -0.8646 -0.1381
 2174TIP3    H228082   6.400   6.143   0.837  0.9980  0.9724  0.3660
 2175TIP3   OH228083   3.519   2.656   0.416 -0.2632 -0.1470 -0.0947
 2175TIP3    H128084   3.572   2.629   0.341 -2.9602  1.6531 -2.8739
 2175TIP3    H228085   3.565   2.733   0.450  0.7302 -0.6910 -0.1663
 2176TIP3   OH228086   5.769   2.261   1.939  0.0821 -0.2615 -0.1137
 2176TIP3    H128087   5.676   2.251   1.916  0.4814 -1.3908 -1.3280
 2176TIP3    H228088   5.801   2.329   1.880  0.5428 -1.4758 -1.3006
 2177TIP3   OH228089   4.770   2.000   0.424  0.7655  0.5855  0.2043
 2177TIP3    H128090   4.735   1.991   0.336  0.3224  0.1093  0.4244
 2177TIP3    H228091   4.693   1.990   0.481  1.0373  0.9450  0.6415
 2178TIP3   OH228092   5.606   6.363   1.511  0.1577  0.1452  1.0341
 2178TIP3    H128093   5.665   6.295   1.543 -1.1951 -0.3502  2.6448
 2178TIP3    H228094   5.624   6.439   1.566 -1.3652 -0.3385  2.2727
 2179TIP3   OH228095   3.011   3.199   0.083 -0.7074 -0.2983  0.4048
 2179TIP3    H128096   2.995   3.155  -0.000 -2.0004 -2.9130  1.9210
 2179TIP3    H228097   3.106   3.196   0.094 -0.1180  2.7528 -2.1952
 2180TIP3   OH228098   3.832   0.163   6.467 -0.3840 -0.0282 -0.4110
 2180TIP3    H128099   3.826   0.076   6.507  0.7278 -0.8483 -1.9009
 2180TIP3    H228100   3.760   0.166   6.404  0.0112 -0.1740 -0.8774
 2181TIP3   OH228101   1.633   1.694   7.123 -0.1351  0.1286 -0.3657
 2181TIP3    H128102   1.660   1.767   7.068 -2.5270  0.3929 -1.3236
 2181TIP3    H228103   1.543   1.716   7.150 -1.9387 -3.4252 -2.6726
 2182TIP3   OH228104   5.340   0.449   1.777 -0.4805  0.4089  0.1337
 2182TIP3    H128105   5.435   0.458   1.770 -0.2421 -1.2350  0.7816
 2182TIP3    H228106   5.322   0.455   1.871 -0.7699 -1.1775  0.2031
 2183TIP3   OH228107   5.943   3.334   1.514 -0.0499 -0.5924  0.1346
 2183TIP3    H128108   6.017   3.360   1.460 -0.9269  1.4567 -0.1851
 2183TIP3    H228109   5.973   3.347   1.604  0.1262 -0.1155  0.0115
 2184TIP3   OH228110   4.472   1.935   7.234 -0.5825 -0.3720 -0.0775
 2184TIP3    H128111   4.484   2.025   7.203  0.1573  0.0612  1.3599
 2184TIP3    H228112   4.529   1.883   7.178  0.0339  0.2504 -0.0440
 2185TIP3   OH228113   0.121   1.375   6.997  0.4550 -0.1418  0.0512
 2185TIP3    H128114   0.145   1.283   6.989  0.4496 -0.2133  0.7570
 2185TIP3    H228115   0.203   1.419   7.021  0.7679  0.2618 -1.6651
 2186TIP3   OH228116   3.551   6.185   8.487 -0.0699 -0.4477 -0.5842
 2186TIP3    H128117   3.469   6.169   8.534  0.1019 -1.1442 -0.5061
 2186TIP3    H228118   3.617   6.192   8.556 -0.4168  2.7869 -0.4466
 2187TIP3   OH228119   2.894   1.350   0.431 -0.1558 -0.1207  0.2264
 2187TIP3    H128120   2.986   1.324   0.423 -0.6218 -1.5163 -1.1154
 2187TIP3    H228121   2.846   1.267   0.436 -1.4107  0.5653 -0.0736
 2188TIP3   OH228122   4.272   6.167   0.404  0.5118 -0.7256 -0.6390
 2188TIP3    H128123   4.341   6.103   0.390  0.5411 -0.3984 -2.1755
 2188TIP3    H228124   4.224   6.135   0.481  0.6586 -2.4777 -1.2422
 2189TIP3   OH228125   6.653   1.994   0.767 -0.9963 -0.6729  0.4126
 2189TIP3    H128126   6.645   1.919   0.826 -0.9496  0.4117  1.8457
 2189TIP3    H228127   6.728   1.973   0.712 -0.0482 -1.0628  1.7885
 2190TIP3   OH228128   3.615   0.408   7.248 -0.1379  0.6524 -0.5966
 2190TIP3    H128129   3.683   0.340   7.253 -0.1955  0.6674  2.5680
 2190TIP3    H228130   3.645   0.467   7.179  2.6978  0.2369  0.1620
 2191TIP3   OH228131   6.733   5.509   0.162  0.2430  0.0330 -0.2452
 2191TIP3    H128132   6.820   5.503   0.202  0.7677  0.4577 -1.2942
 2191TIP3    H228133   6.677   5.456   0.219  1.4081 -1.1573 -0.1648
 2192TIP3   OH228134   1.602   2.368   7.694 -0.0283 -0.3550 -0.2144
 2192TIP3    H128135   1.670   2.436   7.696 -0.1439 -0.2242 -0.5474
 2192TIP3    H228136   1.560   2.380   7.609 -0.5243 -0.3802  0.0276
 2193TIP3   OH228137   0.372   0.782   7.960 -0.5375  0.2226  0.4017
 2193TIP3    H128138   0.436   0.836   7.913 -0.9974  0.0584 -0.4285
 2193TIP3    H228139   0.396   0.791   8.052  0.0427  0.9916  0.1821
 2194TIP3   OH228140   6.787   1.927   1.328 -0.2644  0.5822 -0.3313
 2194TIP3    H128141   6.857   1.954   1.388 -0.4099 -0.5401  0.3692
 2194TIP3    H228142   6.707   1.931   1.381 -0.4497 -0.0285 -0.5507
 2195TIP3   OH228143   3.190   3.648   2.000 -0.6397 -0.1766 -0.1652
 2195TIP3    H128144   3.212   3.561   2.033  0.7571  0.0580 -0.3821
 2195TIP3    H228145   3.129   3.633   1.928  0.1225 -1.0456 -0.6542
 2196TIP3   OH228146   1.635   2.900   8.212  0.0930  0.1808  0.4504
 2196TIP3    H128147   1.645   2.821   8.158 -1.5942  0.3722 -0.2042
 2196TIP3    H228148   1.710   2.955   8.188 -0.5353  0.2051 -1.6783
 2197TIP3   OH228149   0.924   3.492   8.046  0.9499 -0.2559  0.1714
 2197TIP3    H128150   0.988   3.563   8.037 -0.1412  0.9634  1.3916
 2197TIP3    H228151   0.891   3.502   8.135  0.2478 -1.8803  0.1187
 2198TIP3   OH228152   0.087   6.087   1.457 -0.3651 -0.7139 -0.3703
 2198TIP3    H128153   0.163   6.122   1.410 -0.4161 -3.0583 -2.3840
 2198TIP3    H228154   0.040   6.165   1.488  1.2616  0.8662 -1.6459
 2199TIP3   OH228155   4.171   3.169   6.773  0.6117  0.6262  0.2035
 2199TIP3    H128156   4.190   3.076   6.787  0.9098  1.0589  3.1266
 2199TIP3    H228157   4.233   3.195   6.704  1.1789 -1.1008  0.0081
 2200TIP3   OH228158   0.448   3.231   7.498 -0.2187  0.5772 -0.2442
 2200TIP3    H128159   0.466   3.311   7.448  1.3062 -0.5038 -1.5104
 2200TIP3    H228160   0.353   3.234   7.514 -0.1567  2.7879  0.0727
 2201TIP3   OH228161   5.411   3.309   1.656  0.1656 -0.1811  0.1906
 2201TIP3    H128162   5.358   3.370   1.604 -0.7432 -1.1842 -0.0844
 2201TIP3    H228163   5.364   3.301   1.739 -0.5705 -1.6868 -0.3438
 2202TIP3   OH228164   2.838   1.771   0.491  0.0055 -0.2269  0.3114
 2202TIP3    H128165   2.806   1.697   0.441 -1.6988  0.6179  0.0878
 2202TIP3    H228166   2.778   1.778   0.566 -0.1148  1.1349  0.1178
 2203TIP3   OH228167   3.990   2.324   6.647  0.2897  0.5991 -0.0044
 2203TIP3    H128168   3.920   2.302   6.585 -0.5503  2.1942  0.3287
 2203TIP3    H228169   3.997   2.419   6.642  1.3457  0.6015  1.1613
 2204TIP3   OH228170   3.242   6.504   0.787  0.0718 -0.5181  0.4995
 2204TIP3    H128171   3.209   6.542   0.868  1.5194  2.2535 -0.0940
 2204TIP3    H228172   3.165   6.496   0.731 -0.7457 -1.3735  1.7041
 2205TIP3   OH228173   0.951   3.356   1.331 -0.0297 -0.3460  0.2830
 2205TIP3    H128174   1.007   3.395   1.398  1.1024  1.3141 -1.5077
 2205TIP3    H228175   0.946   3.264   1.354  1.4534 -0.0822  1.8517
 2206TIP3   OH228176   2.952   0.177   0.864  0.7065 -0.2176 -0.4370
 2206TIP3    H128177   2.946   0.230   0.785 -0.9170  0.8961  0.4073
 2206TIP3    H228178   2.886   0.212   0.923  1.1184 -1.7413  1.0162
 2207TIP3   OH228179   4.737   4.235   0.692  0.4408 -0.5796  0.4328
 2207TIP3    H128180   4.793   4.312   0.684  1.1552 -1.1295 -0.0841
 2207TIP3    H228181   4.649   4.269   0.703  0.8069  0.3094  0.6806
 2208TIP3   OH228182   0.804   3.559   0.244  0.6866  0.2077 -0.2069
 2208TIP3    H128183   0.882   3.608   0.218 -0.9452  1.7508 -2.5772
 2208TIP3    H228184   0.762   3.613   0.310 -0.2121  1.2607 -1.5802
 2209TIP3   OH228185   0.384   5.800   8.502  0.1789  0.5529 -0.6457
 2209TIP3    H128186   0.301   5.755   8.518 -0.4394  2.3838  2.2367
 2209TIP3    H228187   0.383   5.821   8.409 -2.4735  0.2222 -0.7709
 2210TIP3   OH228188   3.802   3.333   6.994 -0.3029 -0.7005 -0.0764
 2210TIP3    H128189   3.816   3.265   6.928  0.1021 -1.9659  1.2621
 2210TIP3    H228190   3.862   3.311   7.064 -1.1776  0.2395  1.0019
 2211TIP3   OH228191   6.654   4.046   0.164 -0.6759 -0.8460 -0.4714
 2211TIP3    H128192   6.618   4.125   0.123 -0.1883 -0.4047 -0.0682
 2211TIP3    H228193   6.718   4.079   0.227 -1.2044 -1.5307  0.4409
 2212TIP3   OH228194   3.799   3.061   1.898  0.3957  0.1185 -0.0061
 2212TIP3    H128195   3.889   3.030   1.899  0.3845 -0.0338  2.1229
 2212TIP3    H228196   3.805   3.154   1.920  0.0185 -0.1069  1.1411
 2213TIP3   OH228197   0.877   5.884   6.930 -0.3461 -0.0953  0.0151
 2213TIP3    H128198   0.935   5.808   6.937 -0.9931 -0.8874 -2.2856
 2213TIP3    H228199   0.889   5.931   7.012  2.1285 -1.2267  0.3925
 2214TIP3   OH228200   4.680   5.681   6.776 -0.9146  0.6146  0.2466
 2214TIP3    H128201   4.593   5.643   6.759 -0.8317  0.6088 -0.1731
 2214TIP3    H228202   4.687   5.753   6.713 -0.2693  0.0753 -0.3119
 2215TIP3   OH228203   0.170   2.578   7.387 -0.0012  0.2493  0.3628
 2215TIP3    H128204   0.148   2.620   7.304  1.6913 -0.7424 -0.6418
 2215TIP3    H228205   0.257   2.612   7.409 -0.7885  1.1857  2.2391
 2216TIP3   OH228206   3.375   6.105   7.882  0.5279 -0.5514 -0.5607
 2216TIP3    H128207   3.362   6.099   7.976  0.8184  1.6307 -0.3173
 2216TIP3    H228208   3.298   6.064   7.843 -0.0867 -0.5574  0.6478
 2217TIP3   OH228209   4.993   1.212   7.597  0.0327  0.3356  0.0644
 2217TIP3    H128210   5.010   1.281   7.661  2.4147  1.0745 -1.2480
 2217TIP3    H228211   5.011   1.253   7.512  0.5436 -1.6331 -0.8287
 2218TIP3   OH228212   1.934   0.558   0.431  0.2626 -0.1562  0.2342
 2218TIP3    H128213   1.999   0.495   0.400  1.5521  1.3544 -0.2202
 2218TIP3    H228214   1.850   0.520   0.403  1.0199 -1.5001 -0.3221
 2219TIP3   OH228215   0.429   2.756   1.417 -0.0124  0.2448  0.3643
 2219TIP3    H128216   0.363   2.790   1.477 -0.4700 -0.7538  0.4551
 2219TIP3    H228217   0.450   2.669   1.451 -0.5619 -0.4985 -1.1134
 2220TIP3   OH228218   4.868   1.696   6.978 -0.3473 -0.1061 -0.1479
 2220TIP3    H128219   4.939   1.688   6.914 -0.5760 -1.0031 -0.2999
 2220TIP3    H228220   4.904   1.753   7.046 -0.0486  0.7450 -0.9879
 2221TIP3   OH228221   4.292   2.166   7.385 -0.0865  0.1444  0.2922
 2221TIP3    H128222   4.260   2.077   7.373 -1.8092  0.7584  0.0447
 2221TIP3    H228223   4.226   2.208   7.441  0.3993  1.4172 -0.0553
 2222TIP3   OH228224   6.627   0.928   7.751  0.7506 -0.2080  0.1995
 2222TIP3    H128225   6.650   0.893   7.666  1.4519 -0.6962  0.5838
 2222TIP3    H228226   6.669   0.870   7.814 -1.3621 -1.0333  0.9465
 2223TIP3   OH228227   3.507   5.826   0.206  0.7255  0.0469  0.0637
 2223TIP3    H128228   3.502   5.803   0.113  0.2042 -1.8583  0.5433
 2223TIP3    H228229   3.567   5.761   0.244  0.8323  0.7246  1.1007
 2224TIP3   OH228230   1.550   6.588   7.705  0.8038  0.3533  0.0880
 2224TIP3    H128231   1.503   6.578   7.788  1.1176 -1.5891  0.0862
 2224TIP3    H228232   1.534   6.679   7.679  0.1578  0.8157  1.9350
 2225TIP3   OH228233   6.379   3.158   7.330 -0.0726  0.5780  0.0482
 2225TIP3    H128234   6.469   3.125   7.328  0.2743  1.4989 -0.1020
 2225TIP3    H228235   6.380   3.226   7.397 -0.3227  1.4934 -0.8507
 2226TIP3   OH228236   4.537   2.231   0.135 -0.4542  0.3114  0.4836
 2226TIP3    H128237   4.556   2.138   0.147  0.0458  0.4784  1.0121
 2226TIP3    H228238   4.465   2.233   0.071  3.3750 -0.2901 -4.4711
 2227TIP3   OH228239   5.740   1.492   7.539 -0.2824 -0.1166 -0.1560
 2227TIP3    H128240   5.802   1.433   7.583 -0.1916 -0.3187 -0.5541
 2227TIP3    H228241   5.781   1.511   7.455 -1.2052 -1.0255 -0.8301
 2228TIP3   OH228242   3.855   1.096   8.314  0.0932  0.9839 -0.0296
 2228TIP3    H128243   3.941   1.066   8.342 -0.4087 -0.1020  0.4147
 2228TIP3    H228244   3.872   1.163   8.248  1.2751 -0.9513 -1.7822
 2229TIP3   OH228245   4.134   3.371   7.772 -0.6023 -0.1404 -0.0938
 2229TIP3    H128246   4.121   3.417   7.855  0.5711 -0.7677  0.4655
 2229TIP3    H228247   4.220   3.330   7.781 -0.4875 -0.2804 -1.6001
 2230TIP3   OH228248   5.411   0.086   0.471  0.1309 -0.5948  0.0080
 2230TIP3    H128249   5.364   0.061   0.550  0.4235  0.3588  0.4952
 2230TIP3    H228250   5.488   0.134   0.502 -0.4077  0.9183 -0.8830
 2231TIP3   OH228251   5.326   5.065   0.139 -0.1522  0.0212 -0.2248
 2231TIP3    H128252   5.289   5.095   0.056  1.5315 -0.4578 -1.2055
 2231TIP3    H228253   5.388   5.133   0.164  0.4283 -0.5290 -0.1392
 2232TIP3   OH228254   4.384   4.305   1.529  0.1470 -0.0404 -0.3538
 2232TIP3    H128255   4.381   4.360   1.451 -1.1487 -0.5496 -0.6950
 2232TIP3    H228256   4.364   4.366   1.601  2.8178  0.7318 -0.1795
 2233TIP3   OH228257   5.675   4.273   1.594  0.6802  0.1867 -0.5164
 2233TIP3    H128258   5.592   4.240   1.560  1.3630 -0.8152 -1.2485
 2233TIP3    H228259   5.673   4.367   1.574  0.0793  0.0218 -1.2575
 2234TIP3   OH228260   4.391   0.423   1.446  0.1885 -0.0859  0.0503
 2234TIP3    H128261   4.317   0.483   1.435  0.5364  0.5765  1.2001
 2234TIP3    H228262   4.466   0.479   1.465  1.1640 -0.6943 -1.6964
 2235TIP3   OH228263   0.384   3.008   6.661  0.2941 -0.0761 -0.5366
 2235TIP3    H128264   0.434   2.927   6.666 -0.8268 -0.7327  0.2872
 2235TIP3    H228265   0.353   3.011   6.570 -2.4093 -2.3154  0.1683
 2236TIP3   OH228266   2.128   2.683   0.696  0.3509 -0.2348  0.5187
 2236TIP3    H128267   2.191   2.613   0.678  0.4393  0.5800 -2.9471
 2236TIP3    H228268   2.177   2.764   0.681 -0.6661  0.5150  1.0828
 2237TIP3   OH228269   1.701   5.297   8.468 -0.1362 -0.1751 -0.7316
 2237TIP3    H128270   1.745   5.315   8.385  0.7113 -2.4216 -0.8260
 2237TIP3    H228271   1.769   5.261   8.524 -1.5813 -2.9394 -0.5963
 2238TIP3   OH228272   2.910   1.269   6.703 -0.2389  0.0469  0.0418
 2238TIP3    H128273   2.944   1.240   6.788 -1.9459 -1.5811  0.2200
 2238TIP3    H228274   2.926   1.195   6.645 -1.0802  0.2834 -0.4998
 2239TIP3   OH228275   0.036   6.713   8.393 -0.0386  0.0221  0.3500
 2239TIP3    H128276   0.079   6.743   8.313 -0.9741  1.1581  0.2414
 2239TIP3    H228277  -0.054   6.694   8.367  0.6018 -3.5692  0.3024
 2240TIP3   OH228278   1.255   1.457   8.177  0.5517 -0.4789  0.3356
 2240TIP3    H128279   1.339   1.424   8.208  0.6796  0.0196  0.5373
 2240TIP3    H228280   1.249   1.426   8.087  1.1719 -0.1313  0.1638
 2241TIP3   OH228281   2.618   0.851   7.666 -0.1514 -0.0968  0.0851
 2241TIP3    H128282   2.607   0.898   7.583 -0.1699 -0.4034 -0.0865
 2241TIP3    H228283   2.634   0.920   7.731 -1.6048  0.2686  0.0968
 2242TIP3   OH228284   2.895   0.596   6.344 -0.0015  0.1639 -0.3534
 2242TIP3    H128285   2.815   0.626   6.389  0.9449 -0.4134  1.8761
 2242TIP3    H228286   2.887   0.501   6.342  0.3938  0.1355 -0.5960
 2243TIP3   OH228287   3.652   0.424   0.738 -0.1350  0.4081 -0.5062
 2243TIP3    H128288   3.717   0.483   0.776 -0.8446  1.1616 -0.4281
 2243TIP3    H228289   3.571   0.475   0.739 -0.9277 -0.8181  0.2180
 2244TIP3   OH228290   0.147   1.871   8.312  0.4051  0.0455 -0.6660
 2244TIP3    H128291   0.176   1.956   8.278  1.8892  0.3164  1.0911
 2244TIP3    H228292   0.052   1.876   8.310  0.4575  1.8060 -0.5264
 2245TIP3   OH228293   2.629   2.893   0.649 -0.1487  0.3486 -0.7068
 2245TIP3    H128294   2.546   2.844   0.651 -0.3602  0.5822 -2.2530
 2245TIP3    H228295   2.653   2.894   0.556  1.9302 -0.2411 -0.2201
 2246TIP3   OH228296   0.274   5.389   2.207  0.4638 -0.3168 -0.1517
 2246TIP3    H128297   0.366   5.415   2.213  0.5342 -0.4952 -0.4316
 2246TIP3    H228298   0.269   5.336   2.127  0.0692 -0.1144 -0.2621
 2247TIP3   OH228299   5.275   6.493   7.789  0.9204 -0.8543 -0.1387
 2247TIP3    H128300   5.307   6.556   7.855 -2.4405  2.1801 -1.0655
 2247TIP3    H228301   5.231   6.426   7.841  0.4078  0.1833  0.8283
 2248TIP3   OH228302   3.838   0.249   7.242  0.4772 -0.3190 -0.0077
 2248TIP3    H128303   3.825   0.269   7.335  0.3665 -1.9179  0.3538
 2248TIP3    H228304   3.914   0.190   7.241 -1.4640 -2.9844 -0.5406
 2249TIP3   OH228305   2.472   0.740   0.564 -0.2057  0.7327  0.6411
 2249TIP3    H128306   2.538   0.681   0.601 -2.0646 -1.0362  1.3339
 2249TIP3    H228307   2.427   0.776   0.640 -0.9056  0.8860  0.1635
 2250TIP3   OH228308   3.464   1.808   1.104  0.8138  0.2043 -0.9016
 2250TIP3    H128309   3.478   1.893   1.061  0.9878 -0.7344 -2.7780
 2250TIP3    H228310   3.441   1.831   1.194  0.5592  2.2514 -1.4334
 2251TIP3   OH228311   1.830   1.379   6.839 -0.1817 -0.3248 -0.0864
 2251TIP3    H128312   1.798   1.311   6.780 -1.0366  0.7171 -0.8766
 2251TIP3    H228313   1.926   1.371   6.835 -0.2662 -1.2512 -0.4250
 2252TIP3   OH228314   0.418   4.930   0.163  0.0286 -0.6496 -0.1507
 2252TIP3    H128315   0.457   4.850   0.200  2.0178  0.1866 -0.3024
 2252TIP3    H228316   0.493   4.979   0.128 -1.4026  0.2382 -2.1202
 2253TIP3   OH228317   3.812   5.210   1.090 -0.0225 -0.1261  0.3489
 2253TIP3    H128318   3.721   5.186   1.106 -0.1129  0.8980  1.5056
 2253TIP3    H228319   3.825   5.289   1.142  0.8399  1.1474 -1.7135
 2254TIP3   OH228320   0.765   0.551   6.528  0.7438  0.2535  0.4492
 2254TIP3    H128321   0.732   0.584   6.611  0.8400  0.7123  0.3069
 2254TIP3    H228322   0.756   0.456   6.535  0.0030  0.3344  0.6698
 2255TIP3   OH228323   5.136   1.545   0.968  0.3549  0.2164 -0.2803
 2255TIP3    H128324   5.172   1.458   0.950 -0.6590 -0.2706 -0.0593
 2255TIP3    H228325   5.210   1.596   1.001  1.0965 -0.3848 -0.9610
 2256TIP3   OH228326   2.346   5.499   7.618  0.0666 -0.7187  0.1915
 2256TIP3    H128327   2.435   5.494   7.583  0.3687 -0.2320  0.8796
 2256TIP3    H228328   2.314   5.408   7.615  0.4949 -0.8595 -0.2730
 2257TIP3   OH228329   4.814   3.323   0.720 -0.0419  0.2409  0.3333
 2257TIP3    H128330   4.889   3.265   0.703 -0.0604 -0.0118  1.0914
 2257TIP3    H228331   4.740   3.279   0.677 -0.2891 -0.9048  1.8551
 2258TIP3   OH228332   2.755   0.156   7.916  0.0109  0.2896  0.1895
 2258TIP3    H128333   2.835   0.137   7.867  0.9133  2.2065  0.8427
 2258TIP3    H228334   2.786   0.189   8.000 -1.4788  1.0644  0.4602
 2259TIP3   OH228335   6.615   4.214   8.520 -0.1004  0.2775  0.1238
 2259TIP3    H128336   6.674   4.148   8.484  1.2971  1.8222 -0.5300
 2259TIP3    H228337   6.528   4.173   8.517  0.6021 -1.2198 -0.9902
 2260TIP3   OH228338   1.194   3.346   7.740 -0.0524 -0.3237 -0.0125
 2260TIP3    H128339   1.135   3.297   7.797 -1.2563  1.4146  0.3326
 2260TIP3    H228340   1.156   3.434   7.737  1.7738  0.4847 -0.9215
 2261TIP3   OH228341   3.463   0.263   7.776  0.0442 -0.2237 -0.1587
 2261TIP3    H128342   3.422   0.203   7.838 -0.6017  1.4938  1.1334
 2261TIP3    H228343   3.407   0.260   7.699 -1.2402  0.3397  0.7197
 2262TIP3   OH228344   6.021   6.552   1.611  0.5225 -0.0026 -0.4235
 2262TIP3    H128345   6.000   6.474   1.561 -1.1773  1.6400 -2.5160
 2262TIP3    H228346   5.947   6.611   1.595  1.0533  1.5547  2.1790
 2263TIP3   OH228347   5.190   2.552   1.017 -0.4281  0.5579 -0.1520
 2263TIP3    H128348   5.164   2.616   0.951  1.5789  1.4093 -0.1735
 2263TIP3    H228349   5.263   2.504   0.978 -1.0394 -0.8832  0.3848
 2264TIP3   OH228350   2.763   4.226   0.723 -0.3154 -0.0045 -0.4348
 2264TIP3    H128351   2.796   4.137   0.710 -0.8493  0.0612 -2.9346
 2264TIP3    H228352   2.811   4.259   0.798  0.4965 -2.1173  0.0622
 2265TIP3   OH228353   3.233   6.309   2.369 -0.3490 -0.0553 -0.1517
 2265TIP3    H128354   3.312   6.360   2.347 -0.1253 -0.2950  0.0959
 2265TIP3    H228355   3.255   6.219   2.344  0.1681 -0.4668  1.6828
 2266TIP3   OH228356   4.318   5.394   7.931  0.6210  0.3268  0.5320
 2266TIP3    H128357   4.404   5.386   7.891  0.8489  3.1210  0.2690
 2266TIP3    H228358   4.260   5.345   7.872  1.7113  0.1277 -0.4081
 2267TIP3   OH228359   6.787   0.183   7.532  0.7513 -0.2004 -0.4671
 2267TIP3    H128360   6.777   0.117   7.464 -0.2991 -0.4839 -0.0531
 2267TIP3    H228361   6.843   0.142   7.598 -0.1757 -0.8165 -0.0509
 2268TIP3   OH228362   3.450   2.425   1.585  0.5184 -0.3581 -0.1330
 2268TIP3    H128363   3.373   2.431   1.641  1.1924  0.0602  0.7803
 2268TIP3    H228364   3.421   2.460   1.501  0.4832  2.7154  1.0252
 2269TIP3   OH228365   6.006   4.214   1.278 -0.0429  0.1275 -0.2693
 2269TIP3    H128366   6.027   4.216   1.372  0.6630 -0.5419 -0.4017
 2269TIP3    H228367   5.958   4.296   1.262  1.4396  1.1469  0.3034
 2270TIP3   OH228368   5.188   0.296   1.178  0.7141  0.4343  0.2453
 2270TIP3    H128369   5.283   0.292   1.164  0.5707  0.5828 -0.8256
 2270TIP3    H228370   5.151   0.302   1.090 -0.3173 -0.1015  0.6276
 2271TIP3   OH228371   4.645   6.528   6.823  0.0316  0.6455  0.1025
 2271TIP3    H128372   4.731   6.570   6.824  0.8686 -0.8725 -2.0382
 2271TIP3    H228373   4.627   6.511   6.731 -1.2124 -1.7373  0.6978
 2272TIP3   OH228374   0.708   6.106   1.961 -0.3797  0.1784 -0.7033
 2272TIP3    H128375   0.701   6.201   1.960  2.3571  0.4568 -0.4069
 2272TIP3    H228376   0.737   6.085   2.050  1.5541 -0.6586 -1.4963
 2273TIP3   OH228377   5.290   6.082   8.447 -0.6678  0.1897  0.2915
 2273TIP3    H128378   5.371   6.097   8.497 -0.6481 -0.0338  0.3291
 2273TIP3    H228379   5.302   5.995   8.409 -0.5922  0.4453 -0.2792
 2274TIP3   OH228380   0.336   1.711   1.119 -0.8175 -0.3889 -1.2902
 2274TIP3    H128381   0.397   1.756   1.178 -0.2166 -0.4215 -1.8705
 2274TIP3    H228382   0.282   1.780   1.083 -3.7124 -0.6293  1.9681
 2275TIP3   OH228383   3.092   1.937   1.125  0.2562  0.6882 -0.3059
 2275TIP3    H128384   3.112   1.919   1.217  0.4282  0.6120 -0.3568
 2275TIP3    H228385   3.152   1.880   1.076 -1.7551 -1.4292 -0.4836
 2276TIP3   OH228386   3.806   1.614   7.201 -0.1376  0.1835  0.6789
 2276TIP3    H128387   3.720   1.572   7.203  0.4065 -1.0136  0.0431
 2276TIP3    H228388   3.815   1.645   7.110  1.4072 -2.6476 -0.2562
 2277TIP3   OH228389   4.471   3.233   2.157  0.0609  0.4235  0.9198
 2277TIP3    H128390   4.458   3.240   2.252  1.3599  1.0425  1.0788
 2277TIP3    H228391   4.464   3.139   2.139 -0.9991  0.3741  1.4847
 2278TIP3   OH228392   3.441   5.858   7.280  0.5470 -0.1628 -0.2413
 2278TIP3    H128393   3.431   5.841   7.374  0.5305  0.8124 -0.0460
 2278TIP3    H228394   3.431   5.953   7.273 -0.2110 -0.3033 -1.3284
 2279TIP3   OH228395   1.324   1.934   0.354 -0.0710  0.1154  0.1968
 2279TIP3    H128396   1.288   1.846   0.352 -0.2838  0.1022  2.1836
 2279TIP3    H228397   1.255   1.989   0.315 -2.3334  0.0535  3.6747
 2280TIP3   OH228398   1.320   6.795   6.724 -0.2686  0.3885  0.4468
 2280TIP3    H128399   1.241   6.761   6.768 -0.6361 -0.2299 -0.6582
 2280TIP3    H228400   1.357   6.718   6.680  0.0944  0.9887 -0.3102
 2281TIP3   OH228401   5.675   6.812   8.401 -0.3121  0.5398  0.0731
 2281TIP3    H128402   5.644   6.725   8.424  1.6408 -0.0369  0.7221
 2281TIP3    H228403   5.596   6.866   8.398 -1.5344 -1.1833 -0.1268
 2282TIP3   OH228404   0.226   3.435   7.263 -0.1094  0.2915 -0.1279
 2282TIP3    H128405   0.191   3.477   7.185  0.4622 -0.6951 -0.9370
 2282TIP3    H228406   0.155   3.377   7.293  0.4877 -1.1620 -1.3513
 2283TIP3   OH228407   6.434   1.652   8.477 -0.3219  0.0123 -0.3864
 2283TIP3    H128408   6.478   1.598   8.411  1.9205 -0.8218  1.6404
 2283TIP3    H228409   6.391   1.589   8.535 -0.6657  0.5973  0.0009
 2284TIP3   OH228410   5.101   1.575   8.424 -0.0282 -0.1229 -0.2978
 2284TIP3    H128411   5.064   1.547   8.508 -0.4859 -0.0262 -0.4690
 2284TIP3    H228412   5.089   1.670   8.423  0.4558 -0.0550 -0.2434
 2285TIP3   OH228413   6.756   5.959   0.313  0.1356  0.0631  0.1798
 2285TIP3    H128414   6.724   5.869   0.321 -1.0509  0.4171 -0.3685
 2285TIP3    H228415   6.795   5.978   0.399 -1.4002 -0.3058  1.0011
 2286TIP3   OH228416   5.817   5.134   0.762 -0.3704 -0.1032  0.6425
 2286TIP3    H128417   5.759   5.208   0.780 -2.0235 -1.0722 -0.5097
 2286TIP3    H228418   5.838   5.141   0.669 -1.3398 -1.5925  0.2776
 2287TIP3   OH228419   3.729   4.606   1.272  0.6836  0.3138 -0.4192
 2287TIP3    H128420   3.800   4.656   1.311  0.3774  0.0266  0.5259
 2287TIP3    H228421   3.773   4.542   1.217  1.2717 -0.9496  1.4203
 2288TIP3   OH228422   4.563   5.434   8.253 -0.3358 -0.1922  0.4175
 2288TIP3    H128423   4.556   5.345   8.287 -0.8705 -0.1910  0.3222
 2288TIP3    H228424   4.513   5.432   8.171  1.4461 -0.3698 -0.7182
 2289TIP3   OH228425   3.755   4.539   0.093 -0.6248 -0.4431 -0.9355
 2289TIP3    H128426   3.834   4.525   0.145 -1.0974  1.9446  0.5693
 2289TIP3    H228427   3.683   4.517   0.152 -1.1581  1.9830 -0.5611
 2290TIP3   OH228428   5.580   6.709   7.603 -0.2381 -0.4711  0.1199
 2290TIP3    H128429   5.646   6.664   7.656 -0.5620 -1.8106 -0.5661
 2290TIP3    H228430   5.497   6.694   7.650 -0.3301 -0.4523 -0.0373
 2291TIP3   OH228431   1.806   5.484   0.625 -0.4219  0.0589 -0.2591
 2291TIP3    H128432   1.862   5.445   0.692  1.1962  0.6512 -1.2059
 2291TIP3    H228433   1.748   5.413   0.598 -0.1949 -0.5523  0.8103
 2292TIP3   OH228434   2.925   6.689   1.641 -0.3622 -0.4004  0.1502
 2292TIP3    H128435   3.008   6.644   1.630  0.2101  1.0559 -2.3449
 2292TIP3    H228436   2.948   6.775   1.676 -0.7982 -0.0091 -0.4947
 2293TIP3   OH228437   1.846   2.115   7.828 -0.1971  0.0654 -1.0281
 2293TIP3    H128438   1.826   2.150   7.740 -0.1476 -1.2222 -1.5665
 2293TIP3    H228439   1.760   2.106   7.869 -0.4245 -1.4111 -1.7713
 2294TIP3   OH228440   2.148   2.111   6.876  0.4397 -0.2589 -0.1391
 2294TIP3    H128441   2.141   2.204   6.852 -0.3373 -0.6563 -1.5682
 2294TIP3    H228442   2.098   2.065   6.809  1.5418 -1.7941  0.0384
 2295TIP3   OH228443   2.076   0.445   6.968  0.3672  0.1436 -0.0544
 2295TIP3    H128444   2.160   0.439   7.013  1.1377  0.6713 -1.3922
 2295TIP3    H228445   2.060   0.539   6.957 -0.4632  0.0576  0.2687
 2296TIP3   OH228446   1.255   5.512   1.111 -0.2633  0.1320  0.9314
 2296TIP3    H128447   1.186   5.539   1.172 -1.2249  0.4990 -0.2830
 2296TIP3    H228448   1.305   5.447   1.160 -1.2816  0.0804  1.9620
 2297TIP3   OH228449   0.357   3.034   8.067 -0.3269 -0.3733 -0.3869
 2297TIP3    H128450   0.304   3.067   7.994  0.4402 -1.0465 -1.2752
 2297TIP3    H228451   0.436   2.999   8.025  1.3376  1.5278  0.9613
 2298TIP3   OH228452   4.758   5.045   0.795 -0.1592  0.0139  0.3140
 2298TIP3    H128453   4.774   5.010   0.883 -2.5513  0.0131  0.8313
 2298TIP3    H228454   4.703   4.978   0.753 -1.4530  1.2999 -0.1187
 2299TIP3   OH228455   1.817   4.346   7.735  0.0705  0.5022  0.0783
 2299TIP3    H128456   1.766   4.270   7.708 -0.6759  1.1929 -0.5107
 2299TIP3    H228457   1.779   4.419   7.687  1.2471  1.1393  0.0607
 2300TIP3   OH228458   4.411   1.230   1.091 -0.4432  0.0221 -0.1903
 2300TIP3    H128459   4.369   1.310   1.123  2.0050  0.7155  1.6404
 2300TIP3    H228460   4.395   1.165   1.159  0.2204 -0.1148 -0.1596
 2301TIP3   OH228461   1.046   4.941   1.250 -0.5032 -0.1511 -0.4157
 2301TIP3    H128462   1.056   5.033   1.229 -1.3751  0.0435 -0.0147
 2301TIP3    H228463   0.989   4.906   1.181 -1.2944 -0.0745  0.1866
 2302TIP3   OH228464   2.575   6.319   7.512 -0.2510 -0.0546 -0.2163
 2302TIP3    H128465   2.666   6.293   7.496  0.0341 -0.0750  1.2854
 2302TIP3    H228466   2.537   6.328   7.425  1.0959 -0.3775 -0.8653
 2303TIP3   OH228467   3.018   6.146   2.319 -0.4162 -0.0250 -0.3852
 2303TIP3    H128468   3.074   6.069   2.318 -0.1429  0.1700 -0.4957
 2303TIP3    H228469   3.079   6.220   2.320 -0.6462  0.2112 -1.6757
 2304TIP3   OH228470   4.940   2.932   5.930 -0.2339  0.3540  0.3960
 2304TIP3    H128471   4.989   3.011   5.951 -1.4865  0.9872  1.0447
 2304TIP3    H228472   4.849   2.961   5.922 -0.3890 -0.5649 -1.9803
 2305TIP3   OH228473   3.329   5.036   7.340 -0.5219 -0.1056 -0.1963
 2305TIP3    H128474   3.361   5.093   7.410 -0.0149 -1.0420  0.3575
 2305TIP3    H228475   3.306   5.095   7.269  0.1019  0.7749  0.3202
 2306TIP3   OH228476   3.420   3.177   6.308  0.6250 -0.1831 -0.0760
 2306TIP3    H128477   3.463   3.214   6.385  2.4958 -0.4259 -0.9751
 2306TIP3    H228478   3.449   3.231   6.235 -0.5525 -0.4060 -0.7320
 2307TIP3   OH228479   2.085   5.672   7.969  0.2885  0.3134  0.2542
 2307TIP3    H128480   2.067   5.653   8.061  1.1135 -1.0919  0.1593
 2307TIP3    H228481   2.013   5.631   7.921  1.5464 -1.8514  0.1106
 2308TIP3   OH228482   2.246   5.305   0.812  0.1860 -0.3370  0.1797
 2308TIP3    H128483   2.269   5.380   0.867  1.2001 -1.8633  1.9604
 2308TIP3    H228484   2.299   5.316   0.733  1.3998  0.1153  1.0280
 2309TIP3   OH228485   4.959   0.074   6.378  0.2521 -0.4850 -0.3251
 2309TIP3    H128486   4.870   0.042   6.362  0.2216 -0.8673  0.5353
 2309TIP3    H228487   4.947   0.156   6.427  0.3697 -0.4684 -0.3232
 2310TIP3   OH228488   4.686   4.625   6.459 -0.3412  0.1745 -0.3231
 2310TIP3    H128489   4.633   4.626   6.379 -0.0571  2.2864 -0.5421
 2310TIP3    H228490   4.624   4.604   6.528 -1.5655  2.4913 -0.5909
 2311TIP3   OH228491   6.096   1.328   5.527 -0.2903  0.2917 -0.1747
 2311TIP3    H128492   6.102   1.235   5.501  0.5631  0.6249 -1.2385
 2311TIP3    H228493   6.002   1.342   5.542 -0.3845 -0.8507  0.4492
 2312TIP3   OH228494   1.209   6.890   8.372  0.2375 -0.3764 -0.2458
 2312TIP3    H128495   1.187   6.906   8.464  1.0153  0.0893 -0.1348
 2312TIP3    H228496   1.134   6.924   8.323  0.2497  0.2707  0.1726
 2313TIP3   OH228497   4.130   5.337   0.830  0.5724 -0.1211 -0.3078
 2313TIP3    H128498   4.167   5.251   0.848  0.3388 -0.3394 -0.8295
 2313TIP3    H228499   4.130   5.343   0.734  1.7844  0.9818 -0.2738
 2314TIP3   OH228500   5.174   3.314   7.679  0.2964 -0.0356 -0.8849
 2314TIP3    H128501   5.199   3.342   7.767  0.0181  0.2734 -0.9049
 2314TIP3    H228502   5.247   3.259   7.650 -0.9960 -2.8313  0.7763
 2315TIP3   OH228503   4.204   2.717   2.382  0.0345 -0.2088 -0.2784
 2315TIP3    H128504   4.284   2.684   2.424 -1.0568 -0.0285  2.1385
 2315TIP3    H228505   4.224   2.808   2.360  1.1117 -0.7192 -1.5106
 2316TIP3   OH228506   0.824   5.548   0.009  0.2751  0.8871  0.2936
 2316TIP3    H128507   0.773   5.499  -0.056  0.8230  0.1252  0.4275
 2316TIP3    H228508   0.772   5.542   0.089  1.5480 -1.7941  1.0328
 2317TIP3   OH228509   4.189   5.186   1.718  0.0541  0.0196 -0.4371
 2317TIP3    H128510   4.161   5.158   1.805 -0.1444  0.0190 -0.5017
 2317TIP3    H228511   4.174   5.110   1.663  0.2307  0.0023 -0.4613
 2318TIP3   OH228512   5.229   5.095   0.672 -0.3532  0.2719 -0.4756
 2318TIP3    H128513   5.187   5.013   0.696  0.8952 -0.4504 -0.6471
 2318TIP3    H228514   5.219   5.101   0.577 -1.1241  0.7192 -0.3703
 2319TIP3   OH228515   1.624   3.957   2.089  0.3113  0.0537  0.1724
 2319TIP3    H128516   1.660   3.979   2.003 -3.6485 -0.0197 -1.7036
 2319TIP3    H228517   1.630   4.038   2.140 -1.0307  1.3662 -1.6656
 2320TIP3   OH228518   3.166   5.358   2.540 -0.2743  0.1289  0.0978
 2320TIP3    H128519   3.095   5.356   2.476  1.4417  0.1888 -1.9134
 2320TIP3    H228520   3.201   5.447   2.533  1.2815 -0.5038 -0.4680
 2321TIP3   OH228521   3.642   2.735   6.941  0.2788  0.4207  0.3948
 2321TIP3    H128522   3.693   2.807   6.903 -0.1621  0.7294  0.3726
 2321TIP3    H228523   3.676   2.656   6.898  1.6426  0.4647  1.3475
 2322TIP3   OH228524   0.229   2.676   7.725 -0.0901 -0.6029  0.2837
 2322TIP3    H128525   0.298   2.688   7.660  0.0537 -1.0345  0.3490
 2322TIP3    H228526   0.235   2.583   7.749 -0.3423 -0.5194  0.6830
 2323TIP3   OH228527   0.035   3.018   7.961 -0.2911  0.0391 -0.2444
 2323TIP3    H128528   0.064   2.927   7.963  2.3224  0.7991  0.2579
 2323TIP3    H228529  -0.044   3.017   7.907 -0.4902 -2.5342 -0.0154
 2324TIP3   OH228530   0.069   4.775   7.563  0.1518 -0.5481 -0.3177
 2324TIP3    H128531   0.027   4.808   7.484  0.2246  0.5544  0.0779
 2324TIP3    H228532   0.006   4.792   7.633  0.4443 -0.7067 -0.0083
 2325TIP3   OH228533   6.324   6.415   8.382 -0.6397  0.7154 -0.1924
 2325TIP3    H128534   6.365   6.489   8.337  1.1439  0.7611  1.3760
 2325TIP3    H228535   6.254   6.455   8.434 -1.3104  0.9470 -1.2592
 2326TIP3   OH228536   3.780   3.520   5.995  0.3805  0.8707 -0.0919
 2326TIP3    H128537   3.847   3.586   6.009  1.7683 -0.3281 -0.7899
 2326TIP3    H228538   3.728   3.554   5.922  0.5767  1.5538  0.0810
 2327TIP3   OH228539   2.764   2.326   7.982  0.2754 -0.2400  0.1417
 2327TIP3    H128540   2.787   2.418   7.965  0.0131 -0.4333 -1.3934
 2327TIP3    H228541   2.678   2.330   8.023  0.5961  0.2331  0.7801
 2328TIP3   OH228542   2.915   3.706   0.926 -0.3658  0.4538 -0.3472
 2328TIP3    H128543   2.822   3.686   0.914 -0.5763 -0.0669  1.8294
 2328TIP3    H228544   2.916   3.791   0.969  0.0753 -0.1231  0.8342
 2329TIP3   OH228545   1.724   6.228   1.120 -0.3464  0.6655  0.2655
 2329TIP3    H128546   1.686   6.251   1.204  1.8491 -0.0824  1.5639
 2329TIP3    H228547   1.801   6.175   1.142  0.7708  1.1058 -2.1738
 2330TIP3   OH228548   6.004   0.132   7.189  0.1617 -0.1823 -0.1114
 2330TIP3    H128549   6.051   0.204   7.230 -0.5447 -0.2067  0.7707
 2330TIP3    H228550   5.962   0.087   7.262 -0.8098 -0.4602 -0.8334
 2331TIP3   OH228551   3.484   5.390   0.259 -0.7589 -0.4062  1.0959
 2331TIP3    H128552   3.414   5.412   0.321 -1.8973 -1.3114  0.1653
 2331TIP3    H228553   3.443   5.396   0.173  0.9535  1.4383  0.3271
 2332TIP3   OH228554   1.497   6.458   0.293 -0.3602 -0.0528  0.2397
 2332TIP3    H128555   1.548   6.380   0.315 -0.5801 -0.0013  0.9526
 2332TIP3    H228556   1.559   6.515   0.249  0.0600 -0.2194  0.6095
 2333TIP3   OH228557   1.991   6.775   1.256  0.0289  0.4105  0.3565
 2333TIP3    H128558   2.080   6.793   1.286 -0.5244  2.0493  1.1437
 2333TIP3    H228559   1.940   6.766   1.336 -0.6904  0.4685 -0.0932
 2334TIP3   OH228560   3.533   3.283   7.091 -0.5365  0.1391  0.4915
 2334TIP3    H128561   3.610   3.301   7.036 -1.9585  0.5197 -1.4805
 2334TIP3    H228562   3.511   3.192   7.073  0.8824 -0.8262  3.0401
 2335TIP3   OH228563   1.344   3.571   0.498  0.3410 -0.0701  0.4854
 2335TIP3    H128564   1.354   3.661   0.529  0.2239  0.0814  0.0854
 2335TIP3    H228565   1.249   3.559   0.491  0.3002 -0.6227  1.6919
 2336TIP3   OH228566   3.165   3.171   6.681  0.2168 -0.0171 -0.4553
 2336TIP3    H128567   3.201   3.247   6.636  2.0883 -1.9518 -2.4706
 2336TIP3    H228568   3.112   3.126   6.615 -1.5225 -0.1062  0.9180
 2337TIP3   OH228569   6.884   1.301   0.481 -0.2413 -0.1434  0.2083
 2337TIP3    H128570   6.876   1.286   0.575 -0.2170 -0.3100  0.1843
 2337TIP3    H228571   6.957   1.363   0.473  1.0053 -1.5558  0.1928
 2338TIP3   OH228572   2.963   5.884   0.326 -0.9430  0.7044  0.1888
 2338TIP3    H128573   3.001   5.909   0.411 -1.1306  2.1697 -0.1236
 2338TIP3    H228574   2.875   5.854   0.348 -0.6376  0.0899  0.6112
 2339TIP3   OH228575   5.994   0.797   2.137 -0.4803 -0.6028  0.4049
 2339TIP3    H128576   6.065   0.756   2.087  0.4879  0.3132  0.9867
 2339TIP3    H228577   6.030   0.881   2.165 -2.2647  0.5093 -0.4311
 2340TIP3   OH228578   6.517   1.681   6.683  1.0746 -0.3484  0.5448
 2340TIP3    H128579   6.573   1.735   6.628 -1.3732 -0.4018 -2.2416
 2340TIP3    H228580   6.556   1.593   6.678  1.4679 -0.1356 -0.2255
 2341TIP3   OH228581   0.622   0.597   7.372 -0.1495 -0.1339 -0.1105
 2341TIP3    H128582   0.618   0.679   7.420 -1.0511 -0.4042  0.2819
 2341TIP3    H228583   0.550   0.544   7.406 -0.7641 -0.3674 -1.6771
 2342TIP3   OH228584   0.576   2.865   0.048  0.1150  0.1580 -0.5725
 2342TIP3    H128585   0.561   2.771   0.065  1.4347  0.0251 -0.0200
 2342TIP3    H228586   0.666   2.869   0.016 -0.1546  1.1786 -1.2137
 2343TIP3   OH228587   0.648   3.957   7.709  0.1696  0.5061 -0.0717
 2343TIP3    H128588   0.702   3.892   7.753 -0.3800  0.7604  1.0224
 2343TIP3    H228589   0.706   4.032   7.696  0.6799 -0.0249 -0.9353
 2344TIP3   OH228590   1.806   6.615   7.571  0.0181 -0.1932  0.3306
 2344TIP3    H128591   1.854   6.540   7.606 -0.6234 -0.9393 -0.3383
 2344TIP3    H228592   1.714   6.596   7.591 -0.6347 -1.5479 -3.1522
 2345TIP3   OH228593   1.502   4.390   0.058 -0.0489 -0.5701  0.2525
 2345TIP3    H128594   1.478   4.326   0.124  0.1849  0.1435  1.0534
 2345TIP3    H228595   1.561   4.344  -0.001 -0.1234 -1.1637  0.6397
 2346TIP3   OH228596   3.383   4.651   7.432  0.0112  0.1226 -0.2620
 2346TIP3    H128597   3.434   4.731   7.447 -1.3857  0.9114  0.4654
 2346TIP3    H228598   3.335   4.669   7.351  2.0393 -1.2699 -1.8961
 2347TIP3   OH228599   0.641   5.378   0.559 -0.1017 -0.1869 -0.1007
 2347TIP3    H128600   0.679   5.368   0.646 -0.5663  1.5960  0.3577
 2347TIP3    H228601   0.561   5.326   0.561 -0.3488  0.2108  0.7225
 2348TIP3   OH228602   0.791   6.770   8.044  0.1347  0.6220 -0.2727
 2348TIP3    H128603   0.786   6.862   8.018  1.9126  0.7154 -0.3755
 2348TIP3    H228604   0.819   6.724   7.965  0.4475  0.1628  0.1028
 2349TIP3   OH228605   5.024   1.826   0.100  0.4291  0.1609 -0.8536
 2349TIP3    H128606   5.054   1.881   0.173 -1.5283 -0.7318  0.7134
 2349TIP3    H228607   5.053   1.738   0.124 -2.2119 -0.5308  0.1210
 2350TIP3   OH228608   6.660   0.927   8.448 -0.0964  0.8657  0.1787
 2350TIP3    H128609   6.734   0.868   8.465 -0.8359 -0.6416 -1.4121
 2350TIP3    H228610   6.629   0.953   8.535  1.0726 -0.0702  0.9095
 2351TIP3   OH228611   5.112   1.164   6.896  1.5097 -0.7519 -0.2380
 2351TIP3    H128612   5.101   1.110   6.817  1.8154 -1.1897  0.0156
 2351TIP3    H228613   5.125   1.253   6.863 -1.6848 -0.3255 -0.6124
 2352TIP3   OH228614   2.005   0.020   7.886  0.5331 -0.6813  0.7636
 2352TIP3    H128615   2.068  -0.052   7.896  0.0713 -1.5389 -1.8139
 2352TIP3    H228616   2.058   0.095   7.860  0.6586 -1.0342 -0.0186
 2353TIP3   OH228617   1.065   3.849   7.024 -0.5189 -0.1590 -0.4555
 2353TIP3    H128618   1.149   3.888   7.047 -0.8565  1.5516 -1.8637
 2353TIP3    H228619   1.086   3.759   6.999  0.8181  0.0848 -0.2506
 2354TIP3   OH228620   0.614   1.258   1.327  0.2580 -0.0005 -0.0395
 2354TIP3    H128621   0.694   1.210   1.346  0.8911  0.6720 -0.9222
 2354TIP3    H228622   0.575   1.212   1.253  0.0300 -0.0936  0.1367
 2355TIP3   OH228623   1.695   4.747   2.312  0.1145  0.2872  0.0843
 2355TIP3    H128624   1.653   4.737   2.226 -0.1195 -1.2809  0.3675
 2355TIP3    H228625   1.643   4.814   2.356 -1.7429 -1.1525  0.1844
 2356TIP3   OH228626   3.895   2.279   0.510 -0.3426  0.5586  0.4137
 2356TIP3    H128627   3.901   2.373   0.491  1.2960  0.0101 -2.4182
 2356TIP3    H228628   3.824   2.248   0.454 -0.0824 -0.0586  0.4209
 2357TIP3   OH228629   3.793   5.651   1.885 -0.3118  0.1843  0.1311
 2357TIP3    H128630   3.711   5.655   1.934  0.3009  1.7267  1.1357
 2357TIP3    H228631   3.783   5.717   1.816 -0.0740  0.0947  0.0091
 2358TIP3   OH228632   3.829   2.757   7.791 -0.0790 -0.3835 -0.8058
 2358TIP3    H128633   3.912   2.751   7.743  0.0826  0.6274 -0.6783
 2358TIP3    H228634   3.852   2.798   7.874  0.0524 -4.1235  1.2287
 2359TIP3   OH228635   4.918   0.796   1.545 -0.2231 -0.4517 -0.0911
 2359TIP3    H128636   4.895   0.883   1.512 -0.9583  0.1672  1.9125
 2359TIP3    H228637   5.013   0.796   1.548 -0.2266  0.4788  0.3406
 2360TIP3   OH228638   3.864   4.692   7.244 -0.4177 -0.4518 -0.5076
 2360TIP3    H128639   3.844   4.758   7.310 -1.8206  1.0372 -2.3036
 2360TIP3    H228640   3.957   4.672   7.257 -0.1771  1.2140  0.6723
 2361TIP3   OH228641   1.627   6.857   8.560 -0.0113 -0.5436  0.0226
 2361TIP3    H128642   1.624   6.781   8.502  2.1157 -0.1563 -0.6833
 2361TIP3    H228643   1.575   6.924   8.515 -0.0829 -0.8971 -0.4299
 2362TIP3   OH228644   3.989   0.381   0.394  0.2312 -0.2145 -1.0663
 2362TIP3    H128645   3.946   0.450   0.343  0.0396  1.1523  0.8547
 2362TIP3    H228646   4.080   0.383   0.366  0.3878  1.3513 -0.4893
 2363TIP3   OH228647   4.062   4.933   7.679  0.2945 -0.2314 -0.4385
 2363TIP3    H128648   4.076   4.842   7.655 -0.6971  0.0902 -2.4809
 2363TIP3    H228649   4.070   4.935   7.774 -0.6318 -2.6256 -0.2558
 2364TIP3   OH228650   1.234   2.144   7.949  0.1045 -0.0656 -0.5470
 2364TIP3    H128651   1.297   2.133   7.877  0.0725  1.1883 -0.7974
 2364TIP3    H228652   1.227   2.057   7.988  1.7505 -0.3217 -0.7222
 2365TIP3   OH228653   4.751   5.931   6.579  0.4334  0.0035 -0.3920
 2365TIP3    H128654   4.808   5.962   6.509  0.7887 -0.7549 -0.4450
 2365TIP3    H228655   4.722   5.844   6.550  0.7658 -0.4177  0.5045
 2366TIP3   OH228656   1.039   3.725   6.496 -0.1186  0.0237  0.7105
 2366TIP3    H128657   0.986   3.662   6.447 -0.0154 -0.3916  1.1271
 2366TIP3    H228658   1.020   3.810   6.455 -0.4542 -0.2431  0.3120
 2367TIP3   OH228659   6.091   5.904   6.792  0.1507  0.2374  0.3642
 2367TIP3    H128660   6.137   5.833   6.836 -0.2382  0.9582  1.9888
 2367TIP3    H228661   6.119   5.897   6.700  2.2671 -0.3039  0.9990
 2368TIP3   OH228662   5.586   1.387   8.300 -0.2451 -0.1733  0.1255
 2368TIP3    H128663   5.672   1.429   8.301 -0.2737 -0.0858  1.5027
 2368TIP3    H228664   5.564   1.378   8.207  1.2885 -0.2961 -0.2514
 2369TIP3   OH228665   4.831   2.571   8.347  0.1129 -0.5016  0.0661
 2369TIP3    H128666   4.828   2.611   8.434 -0.9466 -0.2886 -0.0476
 2369TIP3    H228667   4.798   2.482   8.361 -0.5518 -0.3016 -0.1907
 2370TIP3   OH228668   4.809   2.257   0.534 -0.5756 -0.4771 -0.1163
 2370TIP3    H128669   4.720   2.253   0.570 -1.2762  0.3801 -1.6822
 2370TIP3    H228670   4.797   2.272   0.440  1.2328  0.3359 -0.2650
 2371TIP3   OH228671   1.734   1.241   6.467  0.3456 -0.4482  0.6660
 2371TIP3    H128672   1.735   1.219   6.560 -0.4650 -1.3383  0.4805
 2371TIP3    H228673   1.816   1.204   6.433  1.2702  0.9737  1.2312
 2372TIP3   OH228674   5.644   1.040   1.930  0.2784  0.0039  0.4708
 2372TIP3    H128675   5.693   1.101   1.985  0.9027 -1.2000  1.3024
 2372TIP3    H228676   5.659   0.955   1.970  1.6264 -1.1080 -2.1470
 2373TIP3   OH228677   1.197   0.211   7.842  0.4540  0.2099  0.2846
 2373TIP3    H128678   1.203   0.256   7.758  0.5320  0.2615  0.3179
 2373TIP3    H228679   1.260   0.140   7.836  0.4309  0.1898  0.2842
 2374TIP3   OH228680   5.943   6.217   0.728  0.3820  0.6537  0.9004
 2374TIP3    H128681   6.039   6.221   0.734  0.2763  1.5845  2.7581
 2374TIP3    H228682   5.915   6.189   0.815 -1.0745  1.5453  0.7529
 2375TIP3   OH228683   5.323   3.195   0.653  0.2587  0.1668 -0.0043
 2375TIP3    H128684   5.268   3.117   0.657 -0.7677  0.9123  1.0768
 2375TIP3    H228685   5.398   3.169   0.599 -1.3520 -0.7324 -1.9164
 2376TIP3   OH228686   2.760   6.795   1.449 -0.5059  0.9857  0.5725
 2376TIP3    H128687   2.727   6.713   1.413  0.6715  0.6314  0.2329
 2376TIP3    H228688   2.836   6.769   1.502  1.0375  1.9830 -1.0406
 2377TIP3   OH228689   6.013   2.455   1.069 -0.5580  0.4731  0.4363
 2377TIP3    H128690   5.990   2.486   1.157  0.1184  0.6535  0.5550
 2377TIP3    H228691   6.066   2.525   1.032 -1.8059  0.9117 -0.5727
 2378TIP3   OH228692   4.049   0.672   8.108 -0.4745  0.0855  0.4949
 2378TIP3    H128693   4.039   0.753   8.059  0.6879  0.9718  1.6450
 2378TIP3    H228694   3.987   0.611   8.068  0.1774  0.8533 -1.8084
 2379TIP3   OH228695   1.837   6.302   7.280  0.5541  0.0905 -0.1993
 2379TIP3    H128696   1.747   6.281   7.306  0.8325  0.3270  1.0291
 2379TIP3    H228697   1.846   6.265   7.192 -1.0784  1.0110 -0.7885
 2380TIP3   OH228698   6.127   1.192   8.263 -0.2959  0.0806 -0.4266
 2380TIP3    H128699   6.204   1.159   8.216 -0.6585 -1.5132  0.0501
 2380TIP3    H228700   6.133   1.288   8.254  1.7971  0.0060 -0.3004
 2381TIP3   OH228701   1.951   1.929   1.638 -0.3618  0.1874 -0.1155
 2381TIP3    H128702   1.862   1.899   1.622 -0.9249  1.5761  0.2083
 2381TIP3    H228703   1.957   2.012   1.591  0.9610 -0.1730 -0.6175
 2382TIP3   OH228704   0.342   4.419   0.627  0.2931  0.1799 -0.0608
 2382TIP3    H128705   0.410   4.425   0.560  0.7847  1.5404  0.5262
 2382TIP3    H228706   0.267   4.466   0.590  0.8611  1.7205  0.6477
 2383TIP3   OH228707   4.043   0.487   6.268 -0.1669 -0.2342  0.3161
 2383TIP3    H128708   3.964   0.457   6.314 -1.7210  1.6049 -0.9837
 2383TIP3    H228709   4.014   0.563   6.218  2.2969  0.0567 -0.8160
 2384TIP3   OH228710   5.946   3.851   0.184 -0.7053  0.3312  0.1436
 2384TIP3    H128711   6.040   3.865   0.188 -0.6948  0.6390 -1.0585
 2384TIP3    H228712   5.908   3.937   0.204 -0.7224  0.4506 -0.4098
 2385TIP3   OH228713   6.824   6.583   7.000 -0.3988  0.0146 -0.1053
 2385TIP3    H128714   6.851   6.492   7.006 -1.1573 -0.3667 -2.0763
 2385TIP3    H228715   6.905   6.631   6.983 -0.2115 -0.4704 -0.5869
 2386TIP3   OH228716   2.467   0.300   1.132  0.1362  0.2529  0.0158
 2386TIP3    H128717   2.427   0.368   1.186 -0.0402 -0.0443  0.2576
 2386TIP3    H228718   2.560   0.325   1.128  0.0485  0.5865 -0.0169
 2387TIP3   OH228719   0.179   3.933   7.344 -0.3824  0.1325 -0.2938
 2387TIP3    H128720   0.264   3.977   7.339  1.1200 -2.7057 -2.1576
 2387TIP3    H228721   0.128   3.972   7.273 -0.3852  1.2352  0.2794
 2388TIP3   OH228722   0.559   2.167   6.676 -0.0914 -0.2618 -0.1526
 2388TIP3    H128723   0.568   2.101   6.607  0.3298  0.3210 -0.6597
 2388TIP3    H228724   0.464   2.180   6.684 -0.1295  0.1703 -1.1185
 2389TIP3   OH228725   0.584   2.844   1.228 -0.1292 -0.0662 -0.1394
 2389TIP3    H128726   0.528   2.812   1.158 -1.7345  3.6242 -0.8031
 2389TIP3    H228727   0.526   2.853   1.303  0.8760 -1.1265  0.8002
 2390TIP3   OH228728   5.321   4.658   7.243  0.7027 -0.1385  0.0623
 2390TIP3    H128729   5.359   4.616   7.320 -0.4776 -2.4523 -0.5407
 2390TIP3    H228730   5.247   4.603   7.220  0.5810  0.9161 -2.2982
 2391TIP3   OH228731   3.536   1.688   0.514  0.2242  0.3535  0.3547
 2391TIP3    H128732   3.472   1.749   0.549 -1.6831 -0.4729 -1.4458
 2391TIP3    H228733   3.581   1.652   0.590 -0.3425  2.1195  1.5675
 2392TIP3   OH228734   5.389   5.784   7.763  0.0750  0.6111  0.3074
 2392TIP3    H128735   5.336   5.706   7.779 -0.6922  1.1965  0.7255
 2392TIP3    H228736   5.424   5.772   7.675  0.2069 -0.3308  0.4848
 2393TIP3   OH228737   1.484   3.702   1.486  0.0009  0.1257 -0.4918
 2393TIP3    H128738   1.410   3.657   1.525  0.1185 -0.1266 -0.5599
 2393TIP3    H228739   1.495   3.781   1.540 -0.4428  0.2694 -0.6106
 2394TIP3   OH228740   1.900   2.530   7.084  0.0876 -0.4742  0.0818
 2394TIP3    H128741   1.970   2.589   7.056 -0.2156  0.4194  1.1739
 2394TIP3    H228742   1.822   2.585   7.090 -0.3729 -1.1403  0.3788
 2395TIP3   OH228743   0.612   5.167   0.123 -0.1547 -0.7850 -0.1467
 2395TIP3    H128744   0.563   5.209   0.193 -1.3870  1.2676 -2.1220
 2395TIP3    H228745   0.701   5.159   0.158 -0.6830  0.3264  1.5722
 2396TIP3   OH228746   0.677   5.192   7.237 -0.6275  0.8990 -0.2062
 2396TIP3    H128747   0.677   5.177   7.331  0.1569 -1.2079 -0.4745
 2396TIP3    H228748   0.733   5.123   7.202  0.0900  2.3728 -2.1308
 2397TIP3   OH228749   4.241   3.768   1.864  0.6860 -0.0946  0.6842
 2397TIP3    H128750   4.197   3.814   1.935 -1.8422 -1.1361 -0.1078
 2397TIP3    H228751   4.330   3.753   1.896  0.0003  0.6155  3.0753
 2398TIP3   OH228752   4.707   3.728   7.230 -0.2201  0.1912  0.1496
 2398TIP3    H128753   4.765   3.731   7.155 -1.3335 -0.7530 -0.7946
 2398TIP3    H228754   4.726   3.808   7.279  1.5971  0.0643 -0.3025
 2399TIP3   OH228755   0.037   1.076   6.886  0.1224  0.2278  0.0372
 2399TIP3    H128756  -0.002   1.002   6.839 -1.2050  2.0661 -1.9454
 2399TIP3    H228757   0.131   1.063   6.876 -0.1075 -0.2686 -1.8772
 2400TIP3   OH228758   1.343   2.526   0.548  0.2179  0.5560 -0.6794
 2400TIP3    H128759   1.253   2.551   0.566  0.8982  0.9678  3.0062
 2400TIP3    H228760   1.357   2.446   0.599  2.3259  1.3984  0.2073
 2401TIP3   OH228761   2.582   5.211   7.133  0.4150 -0.1506  0.1567
 2401TIP3    H128762   2.491   5.240   7.122  0.4883  0.2663  0.5966
 2401TIP3    H228763   2.575   5.120   7.162  0.1812 -0.6460 -1.3928
 2402TIP3   OH228764   2.345   1.400   6.037  0.3230 -0.0299 -0.1316
 2402TIP3    H128765   2.364   1.487   6.002  1.2316 -0.5600 -0.9964
 2402TIP3    H228766   2.359   1.409   6.132  0.3089  0.7889 -0.2018
 2403TIP3   OH228767   1.588   2.192   8.353  0.1685  1.0866 -0.2794
 2403TIP3    H128768   1.569   2.209   8.261  1.5626  0.0165 -0.7956
 2403TIP3    H228769   1.649   2.261   8.379  2.1564 -0.3054 -1.0528
 2404TIP3   OH228770   3.331   4.794   0.099  0.2550  0.6974 -0.0691
 2404TIP3    H128771   3.383   4.745   0.162 -1.0010 -2.9762 -1.6361
 2404TIP3    H228772   3.285   4.859   0.152  2.4177  0.6500  2.0698
 2405TIP3   OH228773   6.291   5.978   7.307 -0.0893 -0.0316  0.1072
 2405TIP3    H128774   6.347   6.036   7.358  0.4940  0.4415 -1.0334
 2405TIP3    H228775   6.205   5.987   7.347  0.5192 -0.4039  1.5865
 2406TIP3   OH228776   1.518   5.954   7.317 -0.4192 -0.1069 -0.2612
 2406TIP3    H128777   1.540   5.929   7.406  1.6701 -1.2568 -1.0191
 2406TIP3    H228778   1.512   5.871   7.270  0.8741  0.5308 -1.6455
 2407TIP3   OH228779   3.475   6.050   2.452 -0.1257  0.2370 -0.2432
 2407TIP3    H128780   3.517   6.102   2.384  0.0780  0.2003 -0.1472
 2407TIP3    H228781   3.536   6.053   2.526 -0.0406 -0.2573 -0.2892
 2408TIP3   OH228782   3.261   3.165   0.157 -0.2404  0.4359  0.0969
 2408TIP3    H128783   3.349   3.161   0.119 -0.0563  5.1095 -0.5627
 2408TIP3    H228784   3.276   3.173   0.251  0.2369  2.7654 -0.1340
 2409TIP3   OH228785   5.969   4.852   8.351  0.2900 -0.3649  0.4166
 2409TIP3    H128786   5.927   4.936   8.373 -0.4315 -0.8085  0.7853
 2409TIP3    H228787   6.061   4.866   8.371  0.7698  1.3499 -2.4437
 2410TIP3   OH228788   0.092   4.666   1.777 -0.2416  0.5368  0.7614
 2410TIP3    H128789   0.105   4.625   1.691 -2.5823  3.5550 -1.2849
 2410TIP3    H228790   0.026   4.611   1.819 -0.3441 -0.0625 -0.1411
 2411TIP3   OH228791   5.259   6.463   6.818  0.1402  0.1148 -0.7476
 2411TIP3    H128792   5.196   6.405   6.776 -1.3751  1.0339  0.1842
 2411TIP3    H228793   5.310   6.500   6.746 -0.0345 -1.0121 -1.4731
 2412TIP3   OH228794   3.218   5.886   1.930 -0.1571 -0.0443 -0.3061
 2412TIP3    H128795   3.131   5.859   1.900 -0.6547  1.5910 -0.3975
 2412TIP3    H228796   3.245   5.817   1.991 -0.9937 -1.1754 -1.1701
 2413TIP3   OH228797   0.054   4.435   7.542  0.6702  0.1171  0.2036
 2413TIP3    H128798   0.136   4.481   7.525  0.8269 -0.4339 -0.5517
 2413TIP3    H228799   0.074   4.343   7.528  0.3715 -0.2235  1.7469
 2414TIP3   OH228800   6.233   2.817   1.762 -0.5247 -0.2225 -0.0391
 2414TIP3    H128801   6.179   2.836   1.839  0.2979 -2.4741  1.2129
 2414TIP3    H228802   6.291   2.746   1.791  0.5986 -0.3752 -2.4250
 2415TIP3   OH228803   1.776   1.345   1.059 -0.2843  0.6297  0.2401
 2415TIP3    H128804   1.832   1.296   1.120 -0.7401  0.3376  0.4257
 2415TIP3    H228805   1.807   1.436   1.066 -0.0976  0.5370  0.6389
 2416TIP3   OH228806   4.792   6.812   0.723 -0.5357  0.3815 -0.7702
 2416TIP3    H128807   4.728   6.875   0.756 -1.0627  0.2096 -1.4541
 2416TIP3    H228808   4.868   6.865   0.698 -1.3382  0.8751 -2.2525
 2417TIP3   OH228809   2.389   2.461   6.033 -0.1835 -0.4894  0.4003
 2417TIP3    H128810   2.430   2.384   5.994 -1.7731 -0.9179 -0.5211
 2417TIP3    H228811   2.434   2.535   5.993  0.2459 -0.9357  0.0372
 2418TIP3   OH228812   3.534   3.293   6.748  0.5793  0.3600  0.3831
 2418TIP3    H128813   3.511   3.261   6.660  0.5189  1.4099  0.0096
 2418TIP3    H228814   3.557   3.213   6.796 -0.0929 -0.3145 -0.3672
 2419TIP3   OH228815   0.324   3.177   7.069 -0.1132  0.0232  0.3941
 2419TIP3    H128816   0.391   3.170   7.138  0.8461  0.3457 -0.4709
 2419TIP3    H228817   0.365   3.232   7.002 -1.2783  0.2706 -0.1438
 2420TIP3   OH228818   3.981   5.585   2.310  0.4746 -0.2632 -0.4239
 2420TIP3    H128819   4.016   5.657   2.258 -0.1783  0.3369 -0.0389
 2420TIP3    H228820   3.888   5.604   2.320  0.5321 -0.5020  0.7413
 2421TIP3   OH228821   5.012   6.858   7.207 -0.2843 -0.1529 -0.0839
 2421TIP3    H128822   4.924   6.820   7.212 -1.3110  2.0814  0.4309
 2421TIP3    H228823   5.016   6.918   7.282  1.3865  0.4028 -0.5641
 2422TIP3   OH228824   3.168   3.562   7.865 -0.2982 -0.0917 -0.0430
 2422TIP3    H128825   3.246   3.506   7.869 -0.5063 -0.4508 -0.8778
 2422TIP3    H228826   3.182   3.627   7.933 -1.3523 -2.8342  3.0895
 2423TIP3   OH228827   3.137   1.260   7.841 -0.0668  0.4068 -0.0213
 2423TIP3    H128828   3.132   1.310   7.922 -1.6261 -0.1868  0.2919
 2423TIP3    H228829   3.046   1.238   7.820  0.2687  0.7533 -2.0809
 2424TIP3   OH228830   6.214   1.219   0.983 -0.2269  0.1883  0.0250
 2424TIP3    H128831   6.262   1.299   1.001  1.9158 -0.8947 -0.5466
 2424TIP3    H228832   6.178   1.232   0.895  0.0625  0.5307 -0.0446
 2425TIP3   OH228833   2.550   1.055   1.839 -0.0550 -0.3750  0.0347
 2425TIP3    H128834   2.470   1.024   1.881  0.7684 -1.4324  0.8676
 2425TIP3    H228835   2.596   1.105   1.907 -0.0326  0.3160 -0.4695
 2426TIP3   OH228836   1.274   4.984   2.382 -0.3600  0.2012 -0.1905
 2426TIP3    H128837   1.368   4.975   2.397 -0.1425  2.2554 -0.0439
 2426TIP3    H228838   1.261   4.956   2.291  0.2669 -0.6607 -0.0301
 2427TIP3   OH228839   0.565   4.451   8.241 -0.4679  0.2879  0.3719
 2427TIP3    H128840   0.571   4.498   8.158  1.3900  0.0529  0.3370
 2427TIP3    H228841   0.526   4.514   8.302  2.8146  2.3031  0.5790
 2428TIP3   OH228842   3.609   1.390   0.433 -0.0257 -0.0336 -0.7309
 2428TIP3    H128843   3.516   1.409   0.427  0.1537  0.6001 -1.7342
 2428TIP3    H228844   3.651   1.476   0.430  0.5626 -0.2387  0.7212
 2429TIP3   OH228845   0.772   2.631   6.729 -0.5903 -0.3675 -0.0830
 2429TIP3    H128846   0.765   2.550   6.781  0.5049 -0.4414 -0.0182
 2429TIP3    H228847   0.833   2.685   6.778 -0.2415 -0.0657 -0.8353
 2430TIP3   OH228848   2.311   5.097   0.971  0.2427 -0.0188 -0.3501
 2430TIP3    H128849   2.295   5.009   0.936  0.7305 -0.9162  1.5369
 2430TIP3    H228850   2.286   5.156   0.900 -1.3455 -1.6391 -1.2281
 2431TIP3   OH228851   6.649   5.839   0.853  0.4021  0.3787 -0.0201
 2431TIP3    H128852   6.738   5.850   0.887  0.7387 -0.5708 -0.5710
 2431TIP3    H228853   6.620   5.928   0.832  1.2728  0.6816  0.0303
 2432TIP3   OH228854   3.217   2.590   6.087 -0.1761  0.3213 -0.2890
 2432TIP3    H128855   3.189   2.506   6.051 -1.8905  1.1072 -0.9131
 2432TIP3    H228856   3.260   2.568   6.170  1.4925 -1.3237 -1.4944
 2433TIP3   OH228857   2.265   6.614   2.592 -0.2731 -0.1265 -0.2417
 2433TIP3    H128858   2.328   6.542   2.604  1.3279  1.2602  0.0463
 2433TIP3    H228859   2.180   6.573   2.606  0.5227 -2.1141 -0.7216
 2434TIP3   OH228860   3.970   5.352   2.057  0.2476 -0.2569  0.3768
 2434TIP3    H128861   3.916   5.345   2.135 -0.4119  0.7228  0.0266
 2434TIP3    H228862   4.024   5.430   2.072  1.3408 -1.0189  0.5690
 2435TIP3   OH228863   6.633   3.055   8.325  0.0456  0.0271 -0.3373
 2435TIP3    H128864   6.667   3.144   8.330  1.1457 -0.4183  0.5488
 2435TIP3    H228865   6.711   3.000   8.315 -0.4328 -0.9839  1.2059
 2436TIP3   OH228866   2.105   2.390   0.021  0.6288 -0.2266 -0.5718
 2436TIP3    H128867   2.187   2.441   0.024  0.1528  0.5262  0.7933
 2436TIP3    H228868   2.037   2.455   0.036 -0.0605 -1.1544  0.4412
 2437TIP3   OH228869   6.430   4.815   6.977 -0.2434 -0.1217 -0.3650
 2437TIP3    H128870   6.418   4.740   7.036 -0.6640 -0.2470 -0.6005
 2437TIP3    H228871   6.458   4.775   6.894 -1.1727 -0.0912 -0.7071
 2438TIP3   OH228872   3.824   6.258   6.421 -0.1020  0.4947 -0.0661
 2438TIP3    H128873   3.832   6.297   6.507  1.6767  0.6284 -0.2462
 2438TIP3    H228874   3.912   6.265   6.383 -0.9688  0.9926 -2.1338
 2439TIP3   OH228875   5.152   2.907   8.389 -0.2145 -0.0461 -0.1462
 2439TIP3    H128876   5.059   2.922   8.372  0.0682 -0.7737 -2.5864
 2439TIP3    H228877   5.185   2.994   8.415 -1.3278  0.4672 -0.3829
 2440TIP3   OH228878   3.167   4.680   7.785  0.2470 -0.5762 -0.0487
 2440TIP3    H128879   3.256   4.713   7.772  1.4798 -3.5723  0.0055
 2440TIP3    H228880   3.163   4.600   7.733 -2.4212 -0.6173  0.0444
 2441TIP3   OH228881   6.740   3.001   0.792 -0.4025  0.0611  0.2686
 2441TIP3    H128882   6.752   2.908   0.769  0.5916 -0.2391  1.8453
 2441TIP3    H228883   6.722   3.000   0.886  0.1170  1.4999  0.3994
 2442TIP3   OH228884   4.538   3.760   1.482 -0.0584  0.0498 -0.4960
 2442TIP3    H128885   4.537   3.666   1.500 -1.9639  0.6863  4.0047
 2442TIP3    H228886   4.446   3.786   1.485  0.5288  2.3029  0.2611
 2443TIP3   OH228887   5.802   3.226   0.187 -0.4614  0.0258 -0.3079
 2443TIP3    H128888   5.834   3.140   0.159 -1.2845  0.7206 -3.8454
 2443TIP3    H228889   5.707   3.214   0.196 -0.2798 -0.0475  2.0299
 2444TIP3   OH228890   2.867   6.555   8.571  0.1771  0.1870  0.1581
 2444TIP3    H128891   2.799   6.496   8.603 -0.3111  0.0203 -1.1386
 2444TIP3    H228892   2.833   6.589   8.489  2.0001 -0.5415 -0.9598
 2445TIP3   OH228893   5.040   3.365   1.644  0.2626 -0.4584  0.4504
 2445TIP3    H128894   5.124   3.397   1.611  0.4300 -0.6809  0.6562
 2445TIP3    H228895   4.977   3.433   1.619  0.3792 -0.6233 -0.3394
 2446TIP3   OH228896   3.579   2.804   0.067  0.4453 -0.2744  0.7585
 2446TIP3    H128897   3.579   2.781  -0.026 -0.1821 -1.1400  0.9683
 2446TIP3    H228898   3.493   2.841   0.083  1.3185  2.0792  0.4985
 2447TIP3   OH228899   1.202   0.994   6.081 -0.3358  0.3445  0.0010
 2447TIP3    H128900   1.129   1.021   6.026  0.5178  0.6277 -1.0409
 2447TIP3    H228901   1.225   0.906   6.049  1.1594  1.1194 -1.2301
 2448TIP3   OH228902   1.878   4.318   6.946  0.3601  0.4768 -0.3201
 2448TIP3    H128903   1.969   4.331   6.919  1.1120  0.1054  1.8393
 2448TIP3    H228904   1.862   4.388   7.009 -0.9509  0.6752 -0.8495
 2449TIP3   OH228905   0.699   2.199   7.442 -0.1742 -0.0997 -0.5793
 2449TIP3    H128906   0.641   2.148   7.385 -0.3271  0.6861 -1.1370
 2449TIP3    H228907   0.731   2.270   7.387  1.2893 -0.4902 -0.2635
 2450TIP3   OH228908   4.975   6.683   0.967 -0.3515 -0.1057  0.2825
 2450TIP3    H128909   4.984   6.702   0.873 -1.1060  0.4286  0.3124
 2450TIP3    H228910   4.992   6.766   1.010  2.3917 -0.8305  0.8000
 2451TIP3   OH228911   3.386   5.798   1.377  0.5156  0.4921  0.5167
 2451TIP3    H128912   3.411   5.771   1.465 -2.0509  1.7089  1.7384
 2451TIP3    H228913   3.394   5.894   1.378  1.6148  0.4472 -1.0057
 2452TIP3   OH228914   5.694   1.205   0.295  0.2860 -0.1819  0.8888
 2452TIP3    H128915   5.604   1.215   0.328  1.1721  0.9395  3.2198
 2452TIP3    H228916   5.719   1.294   0.269  1.3595 -0.0703  2.1908
 2453TIP3   OH228917   1.489   0.254   7.270  0.1154  0.8990  0.0798
 2453TIP3    H128918   1.418   0.307   7.233  0.3143  0.8014 -0.4492
 2453TIP3    H228919   1.556   0.318   7.294  1.4296  0.8054 -2.8316
 2454TIP3   OH228920   0.777   5.568   8.241 -0.7985 -0.0815  1.2874
 2454TIP3    H128921   0.764   5.545   8.149 -2.2984  0.5550  1.3110
 2454TIP3    H228922   0.755   5.661   8.246  0.9113  0.3109  1.9936
 2455TIP3   OH228923   0.962   0.894   7.872 -0.3222  0.6681  0.2610
 2455TIP3    H128924   1.002   0.858   7.793 -2.4058  0.0108 -0.5658
 2455TIP3    H228925   0.868   0.880   7.860 -0.8026  1.7458  2.2791
 2456TIP3   OH228926   4.091   0.265   8.181 -0.0633 -0.5810  0.5028
 2456TIP3    H128927   4.134   0.273   8.266 -2.0794  0.4506  1.5104
 2456TIP3    H228928   3.997   0.261   8.202 -0.6251 -0.3354 -1.6749
 2457TIP3   OH228929   3.227   5.951   2.274  0.1269 -0.0333  0.0437
 2457TIP3    H128930   3.235   5.979   2.183  0.8427  0.1475  0.1548
 2457TIP3    H228931   3.311   5.975   2.314  0.2640 -1.1359  0.4605
 2458TIP3   OH228932   6.451   0.349   0.899 -0.3592 -0.3737 -0.2310
 2458TIP3    H128933   6.507   0.380   0.970 -2.8529  0.4950  1.4590
 2458TIP3    H228934   6.441   0.255   0.916 -0.8573 -0.1919  0.5463
 2459TIP3   OH228935   5.038   5.967   0.777 -0.0523  0.3451 -0.0489
 2459TIP3    H128936   5.044   6.051   0.823  2.0309 -0.6893  1.7542
 2459TIP3    H228937   5.128   5.946   0.753 -0.2479 -2.1523  1.0804
 2460TIP3   OH228938   4.159   0.981   2.156 -0.7490  0.1027 -0.0913
 2460TIP3    H128939   4.227   1.005   2.093  0.0739  1.8585  1.3608
 2460TIP3    H228940   4.115   1.064   2.175 -2.1956 -0.7164  0.2869
 2461TIP3   OH228941   1.885   2.734   6.652 -0.6284  0.3138 -0.5101
 2461TIP3    H128942   1.894   2.787   6.573  0.7992  0.9421  0.0284
 2461TIP3    H228943   1.947   2.662   6.640 -1.1824 -0.1861 -0.4167
 2462TIP3   OH228944   6.042   2.182   1.845 -0.2563 -0.3662  0.1307
 2462TIP3    H128945   6.081   2.106   1.889 -0.0155 -0.5042 -0.3134
 2462TIP3    H228946   5.948   2.168   1.854 -0.2632  0.6152  2.3276
 2463TIP3   OH228947   4.188   4.846   8.232 -0.1655  0.2009 -0.1635
 2463TIP3    H128948   4.102   4.805   8.234  0.6847 -1.7239  2.5704
 2463TIP3    H228949   4.191   4.900   8.311  1.5075 -0.7577  0.4811
 2464TIP3   OH228950   1.874   2.336   7.338 -0.5534  0.0548  0.2565
 2464TIP3    H128951   1.851   2.330   7.245 -2.8463  0.5336  0.7331
 2464TIP3    H228952   1.891   2.429   7.352 -0.7443  0.0623  0.4352
 2465TIP3   OH228953   4.960   0.314   6.992  0.0328 -0.3068  0.2046
 2465TIP3    H128954   4.930   0.265   6.916 -2.4877  1.1662  0.1507
 2465TIP3    H228955   4.898   0.387   7.000  1.6970  1.0033  2.1995
 2466TIP3   OH228956   3.144   5.485   6.309 -0.4423  0.3838 -0.3159
 2466TIP3    H128957   3.180   5.397   6.319 -1.3238  0.0498 -0.0042
 2466TIP3    H228958   3.204   5.529   6.248  0.8992  0.0768  0.7179
 2467TIP3   OH228959   3.709   2.025   8.102  0.0505 -0.2988  0.1376
 2467TIP3    H128960   3.698   1.936   8.069 -1.1069  0.2145 -0.9912
 2467TIP3    H228961   3.779   2.062   8.048 -2.7071  0.9558 -2.8864
 2468TIP3   OH228962   3.088   3.834   6.775 -0.0247 -0.5386  0.5732
 2468TIP3    H128963   3.126   3.920   6.790  0.7198 -0.9638  1.1885
 2468TIP3    H228964   3.131   3.801   6.697 -1.1387  0.1010 -0.3428
 2469TIP3   OH228965   1.895   1.855   6.756 -0.1142  0.2848  0.5207
 2469TIP3    H128966   1.841   1.835   6.680  0.5963  0.6285 -0.0901
 2469TIP3    H228967   1.957   1.921   6.725 -0.6899  1.4652  1.7659
 2470TIP3   OH228968   4.201   0.583   1.087  0.4244 -0.4374  0.2627
 2470TIP3    H128969   4.267   0.546   1.028  1.6140 -0.9831  1.8739
 2470TIP3    H228970   4.132   0.517   1.089  1.6874 -1.7937  1.6637
 2471TIP3   OH228971   1.514   3.161   0.670  0.0278 -0.2252 -0.1753
 2471TIP3    H128972   1.528   3.210   0.751 -0.8439  0.3436 -0.3501
 2471TIP3    H228973   1.575   3.087   0.676  0.0873 -0.1117  0.9291
 2472TIP3   OH228974   0.888   2.457   0.137 -0.0796 -0.5442  0.1642
 2472TIP3    H128975   0.864   2.384   0.081  2.1653 -0.6739 -0.7454
 2472TIP3    H228976   0.922   2.524   0.078 -0.8603  0.7314  1.0949
 2473TIP3   OH228977   1.723   6.613   0.239  0.0429  0.2676  0.0496
 2473TIP3    H128978   1.714   6.589   0.147  1.8329 -0.3689 -0.0012
 2473TIP3    H228979   1.813   6.645   0.247 -0.4438  1.4164  1.3470
 2474TIP3   OH228980   2.829   1.819   6.638  0.4957  0.5362  0.5879
 2474TIP3    H128981   2.824   1.856   6.726  0.0513  1.6284  0.1246
 2474TIP3    H228982   2.740   1.790   6.619  0.6654 -0.0229  0.6250
 2475TIP3   OH228983   2.196   3.916   7.528  0.1424 -0.2748 -0.0251
 2475TIP3    H128984   2.224   3.920   7.619  0.5441 -0.9667 -0.1053
 2475TIP3    H228985   2.263   3.862   7.485  0.4671  0.7885 -0.9188
 2476TIP3   OH228986   5.369   1.086   6.671  0.4605  1.1818  0.0614
 2476TIP3    H128987   5.299   1.025   6.692  1.1282  0.7293  1.0776
 2476TIP3    H228988   5.356   1.158   6.733  1.3745  0.6959  0.8506
 2477TIP3   OH228989   0.062   3.943   6.827 -0.3192  0.8733 -0.1187
 2477TIP3    H128990   0.087   4.024   6.782 -0.5720  1.3768  0.6176
 2477TIP3    H228991   0.066   3.875   6.759  3.1155  0.8565 -0.0495
 2478TIP3   OH228992   1.247   4.609   8.162  0.1225  0.0412  0.3421
 2478TIP3    H128993   1.323   4.638   8.111 -0.9027  1.6558 -0.3305
 2478TIP3    H228994   1.266   4.638   8.251 -0.5225  2.2179 -0.1745
 2479TIP3   OH228995   0.452   4.335   6.405  0.1916 -0.1132  0.2077
 2479TIP3    H128996   0.539   4.339   6.444  0.7803 -3.1705 -0.5856
 2479TIP3    H228997   0.467   4.337   6.311 -0.5275 -1.2362  0.0560
 2480TIP3   OH228998   5.044   1.644   6.762 -0.3334 -0.1536 -0.2090
 2480TIP3    H128999   5.091   1.561   6.772 -1.0013 -0.3908  1.2437
 2480TIP3    H229000   5.068   1.675   6.675 -1.0585 -2.4824 -1.3007
 2481TIP3   OH229001   2.358   5.946   7.530 -0.3047 -0.5418  0.0142
 2481TIP3    H129002   2.449   5.965   7.555  0.3650 -3.7969  0.4944
 2481TIP3    H229003   2.307   5.968   7.608 -0.0413  1.4626 -0.3120
 2482TIP3   OH229004   5.378   3.752   8.274  0.0404  0.6039  0.3530
 2482TIP3    H129005   5.413   3.710   8.352  1.4355 -0.0658 -0.5973
 2482TIP3    H229006   5.350   3.680   8.217 -0.3275  1.0539 -0.0518
 2483TIP3   OH229007   0.211   3.203   0.437  0.3019  0.3715  0.3099
 2483TIP3    H129008   0.197   3.113   0.408  0.4976  0.4783 -0.1367
 2483TIP3    H229009   0.304   3.207   0.459  0.7797  0.9759 -1.6173
 2484TIP3   OH229010   2.266   1.663   0.933 -0.0022  0.4579 -0.3049
 2484TIP3    H129011   2.360   1.682   0.930  0.0753  0.1598 -3.3437
 2484TIP3    H229012   2.259   1.581   0.982  1.3902  0.2215 -0.4651
 2485TIP3   OH229013   1.927   1.081   6.364 -0.4632  0.6338  0.1245
 2485TIP3    H129014   2.008   1.106   6.409 -0.7594  0.0446  1.0048
 2485TIP3    H229015   1.926   0.985   6.370 -2.0100  0.7134  1.5016
 2486TIP3   OH229016   2.769   4.713   7.142 -0.0065  0.0642 -0.2633
 2486TIP3    H129017   2.759   4.683   7.051 -1.7193 -0.1423 -0.0443
 2486TIP3    H229018   2.863   4.705   7.160  0.5907  1.2861 -2.4011
 2487TIP3   OH229019   4.437   3.477   8.335 -0.0363 -0.0107 -0.1156
 2487TIP3    H129020   4.437   3.439   8.423 -0.0270  0.1013 -0.0681
 2487TIP3    H229021   4.516   3.442   8.294  0.7102  1.0399  0.3889
 2488TIP3   OH229022   5.386   1.643   1.033  0.0277  0.5273  0.7174
 2488TIP3    H129023   5.439   1.687   1.100 -1.3583 -0.6334  2.6614
 2488TIP3    H229024   5.394   1.549   1.054 -2.0175  0.2679  0.4913
 2489TIP3   OH229025   1.019   2.192   1.849 -0.0568 -0.2771 -0.6679
 2489TIP3    H129026   0.977   2.271   1.884  0.2242 -0.5863  0.3864
 2489TIP3    H229027   0.951   2.152   1.795 -0.5727  0.1053 -0.3152
 2490TIP3   OH229028   1.326   2.352   1.231 -0.1044  0.5466  0.2065
 2490TIP3    H129029   1.367   2.428   1.189 -0.0867 -0.0294 -0.8495
 2490TIP3    H229030   1.258   2.390   1.288  0.4476  1.3865  0.3296
 2491TIP3   OH229031   1.149   1.658   0.384  0.1013 -0.5997  0.2953
 2491TIP3    H129032   1.101   1.578   0.364 -2.6596  0.8496  0.6522
 2491TIP3    H229033   1.171   1.651   0.477  0.9948 -1.4451  0.0386
 2492TIP3   OH229034   2.334   6.138   1.261 -0.0857 -0.6898  0.9231
 2492TIP3    H129035   2.329   6.165   1.353  1.4737  0.8606  0.6144
 2492TIP3    H229036   2.368   6.215   1.215  1.9852 -2.3246 -0.4896
 2493TIP3   OH229037   1.059   4.858   2.519  0.3931 -0.4134  0.4831
 2493TIP3    H129038   1.023   4.937   2.560  0.6432  0.8203 -1.5374
 2493TIP3    H229039   1.144   4.886   2.485  1.0487 -1.9173  0.8167
 2494TIP3   OH229040   3.135   4.491   1.448 -0.3784  0.5712 -0.0183
 2494TIP3    H129041   3.175   4.565   1.403  0.6855 -1.1234 -2.0179
 2494TIP3    H229042   3.113   4.430   1.378 -1.2787 -0.9926  1.5626
 2495TIP3   OH229043   1.030   5.456   8.269 -0.8979 -0.0672 -0.1730
 2495TIP3    H129044   0.951   5.507   8.252 -0.7045  0.2558 -0.1058
 2495TIP3    H229045   1.084   5.467   8.191 -1.0882 -0.6092 -0.3831
 2496TIP3   OH229046   6.881   4.598   0.143  0.0599 -0.4977 -0.0861
 2496TIP3    H129047   6.819   4.541   0.187 -1.3229  1.4230  0.5919
 2496TIP3    H229048   6.893   4.672   0.203  2.0560 -0.2180 -0.7548
 2497TIP3   OH229049   4.057   1.995   6.500 -0.6340 -0.1660  0.3555
 2497TIP3    H129050   4.002   2.016   6.424  0.1768 -2.2930 -0.8960
 2497TIP3    H229051   4.104   1.916   6.475  0.2525 -0.5103  2.8066
 2498TIP3   OH229052   6.486   5.233   7.798 -0.0565  0.2861  0.3462
 2498TIP3    H129053   6.534   5.255   7.878 -0.4322  0.2700  0.5797
 2498TIP3    H229054   6.394   5.247   7.821 -0.1917 -0.0587  0.0253
 2499TIP3   OH229055   0.716   4.482   0.170 -0.6110 -0.5289  0.0732
 2499TIP3    H129056   0.739   4.563   0.125  2.5358 -2.0059 -1.3311
 2499TIP3    H229057   0.673   4.429   0.102 -0.4031 -0.9453  0.2670
 2500TIP3   OH229058   4.053   6.802   6.610  0.2270 -0.4976  0.2632
 2500TIP3    H129059   4.094   6.848   6.536  0.7312 -2.9525 -1.0786
 2500TIP3    H229060   3.959   6.811   6.594  0.3323 -1.1773 -0.8140
 2501TIP3   OH229061   1.516   4.834   6.262  0.0397 -0.4571 -0.1475
 2501TIP3    H129062   1.431   4.831   6.220  0.7529  3.0606 -2.2419
 2501TIP3    H229063   1.504   4.893   6.337  0.8365  1.1646 -1.2480
 2502TIP3   OH229064   5.340   4.863   1.531 -0.3056 -0.5237 -0.1695
 2502TIP3    H129065   5.356   4.832   1.620  0.6408 -0.9445 -0.4737
 2502TIP3    H229066   5.373   4.793   1.474 -0.7719 -0.2042 -0.8511
 2503TIP3   OH229067   1.035   4.850   1.527 -0.0897  0.4970 -0.4309
 2503TIP3    H129068   1.050   4.932   1.574 -1.9244  1.0721 -0.8023
 2503TIP3    H229069   1.023   4.875   1.436 -1.3183 -0.1103 -0.4501
 2504TIP3   OH229070   0.631   2.904   0.881 -0.0052  0.1661  0.2907
 2504TIP3    H129071   0.587   2.970   0.934 -1.4149  2.5609 -3.4960
 2504TIP3    H229072   0.561   2.862   0.831  1.4225  0.2322 -1.9129
 2505TIP3   OH229073   2.833   1.500   6.906 -0.2533 -0.0624  0.3070
 2505TIP3    H129074   2.890   1.506   6.983  0.6246  0.1071 -0.3324
 2505TIP3    H229075   2.894   1.493   6.832 -1.0676  0.3616 -0.4233
 2506TIP3   OH229076   2.573   4.116   8.335 -0.2098  0.4441 -0.9279
 2506TIP3    H129077   2.496   4.086   8.383  0.5289 -0.2792 -0.1811
 2506TIP3    H229078   2.542   4.124   8.244 -0.8129 -1.1927 -0.9027
 2507TIP3   OH229079   4.109   5.519   0.597  0.4947 -0.0066  0.0713
 2507TIP3    H129080   4.022   5.486   0.577  0.8677 -0.4844 -0.8370
 2507TIP3    H229081   4.095   5.608   0.627 -0.3492 -0.2727  0.5074
 2508TIP3   OH229082   3.998   0.931   7.460 -0.3179  0.0646  0.2823
 2508TIP3    H129083   3.949   0.981   7.525  3.0423  0.6703  2.6222
 2508TIP3    H229084   3.980   0.840   7.482 -0.7750  0.2631  0.7709
 2509TIP3   OH229085   1.822   1.911   8.559 -0.1034  0.3504  0.0001
 2509TIP3    H129086   1.729   1.889   8.551  0.0462  0.2053 -1.6364
 2509TIP3    H229087   1.824   2.007   8.555 -0.1983  0.3657  0.2925
 2510TIP3   OH229088   2.054   3.266   0.985 -0.0186  0.2205  0.5515
 2510TIP3    H129089   2.029   3.355   1.012 -0.4636  0.1597  0.3503
 2510TIP3    H229090   2.106   3.233   1.058 -0.5310  0.3536  0.9830
 2511TIP3   OH229091   0.773   4.333   6.541  0.4770  0.1561 -0.0633
 2511TIP3    H129092   0.781   4.254   6.488  0.8662 -0.4686  0.8914
 2511TIP3    H229093   0.853   4.382   6.524  0.1392  0.4669 -0.8207
 2512TIP3   OH229094   1.488   0.487   8.040  0.1554 -0.3010 -0.2559
 2512TIP3    H129095   1.431   0.413   8.061 -0.2364 -0.1603 -0.8093
 2512TIP3    H229096   1.498   0.484   7.945  0.5308  0.0732 -0.2325
 2513TIP3   OH229097   4.475   4.248   7.748  0.5299 -0.0983  0.0502
 2513TIP3    H129098   4.530   4.178   7.783  0.3336 -0.3483 -0.1321
 2513TIP3    H229099   4.485   4.320   7.810  0.4982 -0.3949  0.4032
 2514TIP3   OH229100   3.758   0.516   2.393  0.1186  0.5182  0.0637
 2514TIP3    H129101   3.806   0.595   2.369  0.5947  0.4349  0.7226
 2514TIP3    H229102   3.697   0.544   2.462  1.4716 -0.0041  1.5249
 2515TIP3   OH229103   3.208   5.734   7.187 -0.6125  0.3872 -0.2873
 2515TIP3    H129104   3.295   5.773   7.181 -0.3181 -0.3416 -0.8476
 2515TIP3    H229105   3.164   5.785   7.255  0.2413  0.7734 -0.0109
 2516TIP3   OH229106   5.396   4.290   2.223 -0.5299 -0.5012  0.0121
 2516TIP3    H129107   5.446   4.343   2.161 -0.1063  0.1826  0.9125
 2516TIP3    H229108   5.318   4.343   2.243 -1.2997 -1.2626 -0.8600
 2517TIP3   OH229109   1.842   0.581   7.267 -0.3145  0.2156 -0.2700
 2517TIP3    H129110   1.756   0.615   7.291 -0.1250  1.1970 -0.8892
 2517TIP3    H229111   1.899   0.606   7.340 -0.5060 -0.1882  0.0136
 2518TIP3   OH229112   2.917   1.436   1.120  0.2448  0.4521 -0.3233
 2518TIP3    H129113   2.964   1.449   1.203  0.9012  2.0638 -0.9002
 2518TIP3    H229114   2.930   1.518   1.072 -0.6250 -0.2182 -1.7838
 2519TIP3   OH229115   5.776   3.451   7.116  0.2548 -0.3779 -0.6290
 2519TIP3    H129116   5.822   3.528   7.149  0.6193  0.3056 -2.6244
 2519TIP3    H229117   5.788   3.453   7.021 -0.1698 -2.6180 -0.8061
 2520TIP3   OH229118   4.187   1.947   8.059  0.2178  0.0423 -0.1754
 2520TIP3    H129119   4.277   1.945   8.093  0.1171  0.1713  0.1060
 2520TIP3    H229120   4.181   1.871   8.001  0.1603 -0.6493  0.7134
 2521TIP3   OH229121   1.412   5.638   6.702 -0.0459  0.4345 -0.0326
 2521TIP3    H129122   1.318   5.622   6.701  0.2994 -2.3045 -2.4163
 2521TIP3    H229123   1.437   5.638   6.610  2.7264 -2.6911  0.5230
 2522TIP3   OH229124   3.476   0.868   6.723  0.2813  0.0829  0.0792
 2522TIP3    H129125   3.552   0.810   6.718 -0.0461 -0.3196 -0.3494
 2522TIP3    H229126   3.452   0.884   6.632  0.7724  1.4605  0.1666
 2523TIP3   OH229127   3.972   5.869   0.213 -0.3245 -0.2556  0.2774
 2523TIP3    H129128   4.002   5.934   0.276 -0.0857  0.5727 -0.6614
 2523TIP3    H229129   3.953   5.791   0.265 -1.6976  0.8971  1.6150
 2524TIP3   OH229130   2.642   5.480   7.497  0.2846  0.4435  0.2778
 2524TIP3    H129131   2.679   5.403   7.538  0.8504  0.0501 -0.9375
 2524TIP3    H229132   2.684   5.486   7.412 -0.2582  1.6988  0.0591
 2525TIP3   OH229133   6.571   4.675   6.785  0.0750  0.0591  0.0586
 2525TIP3    H129134   6.602   4.763   6.764 -0.2756 -0.1237 -1.3427
 2525TIP3    H229135   6.642   4.617   6.758 -0.2337 -0.1644 -0.2860
 2526TIP3   OH229136   5.468   0.902   7.752 -0.6657  0.3635  0.5901
 2526TIP3    H129137   5.394   0.849   7.722 -0.7404  0.7615  0.0615
 2526TIP3    H229138   5.505   0.939   7.672  1.2065 -1.2326  0.6431
 2527TIP3   OH229139   5.216   3.750   7.371  0.1772  0.9224  0.0466
 2527TIP3    H129140   5.191   3.696   7.296 -0.8971  0.3158  0.8143
 2527TIP3    H229141   5.311   3.739   7.378  0.5063  1.9816 -1.9594
 2528TIP3   OH229142   3.252   5.720   1.066  0.1150 -0.3847 -0.5427
 2528TIP3    H129143   3.316   5.651   1.051 -0.2052 -0.5840 -1.0236
 2528TIP3    H229144   3.263   5.744   1.158 -0.4920 -1.8317 -0.0591
 2529TIP3   OH229145   1.174   2.185   6.180 -0.2174  0.0421 -0.3668
 2529TIP3    H129146   1.177   2.228   6.265 -1.1239 -1.2546  0.3462
 2529TIP3    H229147   1.252   2.130   6.178 -0.2213  0.0365 -0.3641
 2530TIP3   OH229148   1.913   1.816   0.529 -1.0438  0.4282  0.1064
 2530TIP3    H129149   2.004   1.795   0.547 -1.1898  1.3730  2.2228
 2530TIP3    H229150   1.863   1.761   0.590 -1.9663 -0.6277 -1.5337
 2531TIP3   OH229151   3.185   3.938   8.218  0.3560 -0.2116 -0.7277
 2531TIP3    H129152   3.280   3.931   8.210  0.1780 -1.1814 -2.1593
 2531TIP3    H229153   3.161   3.868   8.278  0.4041 -0.9054 -1.5049
 2532TIP3   OH229154   3.054   2.486   8.475  0.3443  0.3530 -0.0113
 2532TIP3    H129155   3.036   2.535   8.555 -0.4062 -0.1813  0.1557
 2532TIP3    H229156   3.092   2.403   8.505  3.7667  1.6264 -0.3570
 2533TIP3   OH229157   3.399   0.796   6.969  0.0041 -0.0745 -0.2421
 2533TIP3    H129158   3.474   0.773   7.025 -0.1829  2.0118  0.9562
 2533TIP3    H229159   3.439   0.821   6.886  0.6820  0.9235  0.3537
 2534TIP3   OH229160   6.238   4.225   7.774  0.0322 -0.0683 -0.5477
 2534TIP3    H129161   6.198   4.147   7.735 -1.5928  0.7698 -0.6399
 2534TIP3    H229162   6.309   4.191   7.828 -0.6680 -1.6190 -0.5460
 2535TIP3   OH229163   3.090   5.771   6.582  0.1579 -0.5330 -0.3293
 2535TIP3    H129164   3.113   5.854   6.539 -0.8757 -0.4825 -0.8240
 2535TIP3    H229165   3.162   5.755   6.644  1.1338 -0.0433 -1.2952
 2536TIP3   OH229166   6.322   3.690   1.418  0.5425  0.2548 -0.4029
 2536TIP3    H129167   6.235   3.728   1.410  0.5124  0.1520 -0.5876
 2536TIP3    H229168   6.342   3.659   1.330  1.3306  1.4957 -0.6871
 2537TIP3   OH229169   4.182   3.081   8.560 -0.2966 -0.6219  0.4230
 2537TIP3    H129170   4.171   3.057   8.652  0.0480 -2.2505  0.0719
 2537TIP3    H229171   4.138   3.011   8.512 -0.9286  0.4882 -0.6447
 2538TIP3   OH229172   1.299   5.088   8.117 -0.7529  0.1256  0.7554
 2538TIP3    H129173   1.267   5.069   8.029 -0.7946 -0.5400  0.9037
 2538TIP3    H229174   1.370   5.026   8.131 -0.3994  0.5781  0.9969
 2539TIP3   OH229175   1.141   3.538   8.328 -0.0920 -0.2019  0.3500
 2539TIP3    H129176   1.080   3.561   8.397 -0.5916 -1.9433  0.5527
 2539TIP3    H229177   1.228   3.550   8.366 -0.3533  0.0165  0.8722
 2540TIP3   OH229178   0.279   5.055   1.466  0.4715  0.0027  0.1303
 2540TIP3    H129179   0.247   5.135   1.507  0.6546  1.3456 -2.1566
 2540TIP3    H229180   0.370   5.048   1.492 -0.0302 -0.5670  1.8717
 2541TIP3   OH229181   1.519   3.085   1.350 -0.0242 -0.2836  0.3500
 2541TIP3    H129182   1.424   3.071   1.346 -0.0660 -0.0376  0.4573
 2541TIP3    H229183   1.529   3.166   1.399  0.2899 -1.0484  1.6121
 2542TIP3   OH229184   6.211   6.239   0.196 -0.2897 -0.4936  1.1225
 2542TIP3    H129185   6.205   6.306   0.264 -1.1314  1.1083 -0.4394
 2542TIP3    H229186   6.292   6.259   0.150 -1.6764  1.0310 -0.8271
 2543TIP3   OH229187   2.088   4.446   8.165 -1.0635  0.0384  0.0814
 2543TIP3    H129188   2.130   4.422   8.083  0.3850 -0.1443  0.8400
 2543TIP3    H229189   2.047   4.365   8.196 -2.2767  0.2909 -0.8155
 2544TIP3   OH229190   0.155   0.186   0.199  0.2981 -0.1702  0.7220
 2544TIP3    H129191   0.208   0.181   0.279 -0.5335  0.5330  1.3394
 2544TIP3    H229192   0.181   0.269   0.158 -0.1087  0.0379  0.8784
 2545TIP3   OH229193   6.014   1.699   8.102 -0.4973  0.4834  0.2384
 2545TIP3    H129194   5.981   1.774   8.054  2.2166  1.3486 -0.4508
 2545TIP3    H229195   6.049   1.736   8.184  1.0907  0.0784 -0.2131
 2546TIP3   OH229196   0.767   2.357   6.751 -0.1794 -0.2633 -0.3629
 2546TIP3    H129197   0.831   2.295   6.786  1.3865  2.0370  1.1049
 2546TIP3    H229198   0.689   2.304   6.736  1.2342 -2.6867  0.2515
 2547TIP3   OH229199   2.392   2.405   0.769  0.4415  0.0106  0.4655
 2547TIP3    H129200   2.406   2.366   0.683 -0.1630 -1.4668  1.0012
 2547TIP3    H229201   2.450   2.481   0.771  1.6191 -0.8229 -0.6574
 2548TIP3   OH229202   4.488   3.833   1.204 -0.0472  0.0170  0.2487
 2548TIP3    H129203   4.395   3.842   1.184  0.0586 -0.9223 -0.7940
 2548TIP3    H229204   4.499   3.877   1.288 -1.1648  1.3318 -0.2507
 2549TIP3   OH229205   6.661   1.509   7.161  0.0208  0.4142 -0.0339
 2549TIP3    H129206   6.614   1.547   7.236 -0.7184 -0.2971 -0.1245
 2549TIP3    H229207   6.693   1.425   7.193  0.3668  0.4492 -0.2861
 2550TIP3   OH229208   2.951   5.308   6.165  0.5879  0.4105  0.4261
 2550TIP3    H129209   2.953   5.286   6.258  1.0518  1.8182  0.7737
 2550TIP3    H229210   2.970   5.402   6.162  0.3610  0.4342 -1.0771
 2551TIP3   OH229211   3.936   1.256   2.172  0.4081 -0.3567 -0.2846
 2551TIP3    H129212   3.879   1.216   2.107  1.0971 -0.7001 -0.6892
 2551TIP3    H229213   3.962   1.340   2.135 -2.4059  1.3664  1.2859
 2552TIP3   OH229214   2.120   0.254   7.834 -0.3536 -0.3637  0.0820
 2552TIP3    H129215   2.192   0.312   7.808  0.3659 -2.2417 -2.5279
 2552TIP3    H229216   2.042   0.295   7.798 -0.4221  0.7962  1.4454
 2553TIP3   OH229217   1.543   3.281   7.042  0.2797  0.5120 -0.0758
 2553TIP3    H129218   1.454   3.294   7.011  0.7148  2.2977 -0.7115
 2553TIP3    H229219   1.587   3.236   6.971 -0.4509 -1.8372  0.8636
 2554TIP3   OH229220   0.573   5.473   7.542  0.0516  0.6665  0.2118
 2554TIP3    H129221   0.616   5.499   7.461  3.3268 -1.4093  1.0784
 2554TIP3    H229222   0.610   5.530   7.609 -1.1770  1.0973  0.5499
 2555TIP3   OH229223   2.861   2.265   7.520  0.3576 -0.4408  0.3366
 2555TIP3    H129224   2.794   2.265   7.588  0.7113  0.2077  0.6991
 2555TIP3    H229225   2.894   2.355   7.519 -0.1550 -0.2420 -1.2047
 2556TIP3   OH229226   4.389   0.995   1.227  0.0565 -0.3187 -0.1643
 2556TIP3    H129227   4.443   0.937   1.174 -1.1425 -0.0071 -1.7940
 2556TIP3    H229228   4.392   0.957   1.315 -0.0862 -2.4227 -1.0214
 2557TIP3   OH229229   0.386   5.292   6.349  0.1661  0.0922 -0.0490
 2557TIP3    H129230   0.339   5.370   6.319 -1.1126 -0.8056 -0.4313
 2557TIP3    H229231   0.337   5.263   6.426  1.0333  0.0258  0.4962
 2558TIP3   OH229232   3.345   0.027   0.254  0.1304  0.6350 -0.1818
 2558TIP3    H129233   3.420   0.006   0.198  0.3284 -0.0664  0.3283
 2558TIP3    H229234   3.358  -0.028   0.331 -1.2310  0.0640 -0.3424
 2559TIP3   OH229235   5.980   6.789   7.958  0.3710  0.2650 -0.6304
 2559TIP3    H129236   6.036   6.845   7.904  0.4016  2.7717  1.7576
 2559TIP3    H229237   5.893   6.829   7.953 -0.0539 -0.6054 -0.3642
 2560TIP3   OH229238   4.423   0.935   7.097 -0.3925  0.1459 -0.4264
 2560TIP3    H129239   4.365   0.908   7.168  1.3657  0.1913  1.1145
 2560TIP3    H229240   4.467   0.854   7.069  0.2357  0.4024 -0.2023
 2561TIP3   OH229241   6.023   1.729   6.664 -0.2437 -0.6288  0.8159
 2561TIP3    H129242   5.955   1.751   6.601  0.1514  4.4975  1.7316
 2561TIP3    H229243   5.975   1.706   6.744 -0.7750 -1.6634  0.2189
 2562TIP3   OH229244   6.205   6.410   8.087  0.4144  0.0664  0.2370
 2562TIP3    H129245   6.213   6.475   8.016 -0.0023  0.1699  0.2822
 2562TIP3    H229246   6.176   6.331   8.042 -0.6436  0.3526  0.3942
 2563TIP3   OH229247   6.578   2.123   0.188  0.0637 -0.0839 -0.1183
 2563TIP3    H129248   6.508   2.059   0.192  0.6682 -0.8069 -0.6917
 2563TIP3    H229249   6.640   2.097   0.256 -0.1477  0.4778  0.3034
 2564TIP3   OH229250   3.306   4.779   7.179  0.0383  0.3374  0.5589
 2564TIP3    H129251   3.274   4.861   7.218 -2.8250 -0.6373  0.4222
 2564TIP3    H229252   3.336   4.804   7.092  1.2772  1.5761  1.2973
 2565TIP3   OH229253   1.252   0.657   8.339 -0.0040  0.4381  0.1923
 2565TIP3    H129254   1.253   0.753   8.337  1.0097  0.4249 -1.2067
 2565TIP3    H229255   1.194   0.632   8.266 -2.5227 -0.0559  2.2067
 2566TIP3   OH229256   4.563   2.781   1.283 -0.1235  0.3970  0.9808
 2566TIP3    H129257   4.568   2.874   1.260 -0.5154  0.3962  0.8741
 2566TIP3    H229258   4.550   2.736   1.200 -1.0812  0.3552  1.1341
 2567TIP3   OH229259   0.193   6.076   7.084  0.1804 -0.2859  0.3245
 2567TIP3    H129260   0.198   6.116   6.997  1.1147  0.3101  0.6314
 2567TIP3    H229261   0.121   6.013   7.077 -1.2341  1.3161 -0.2301
 2568TIP3   OH229262   4.101   2.296   7.207  0.0544 -0.1904 -0.2407
 2568TIP3    H129263   4.177   2.257   7.250  0.9296 -0.4833 -1.9307
 2568TIP3    H229264   4.063   2.224   7.156  0.2082  0.5467 -1.4499
 2569TIP3   OH229265   3.864   3.675   7.385  0.2536  0.0434  0.3675
 2569TIP3    H129266   3.860   3.698   7.293  1.4200 -1.8626 -0.2131
 2569TIP3    H229267   3.954   3.645   7.399  0.5383  1.5967  2.4966
 2570TIP3   OH229268   2.958   2.860   6.851  0.0801 -0.1356  0.4613
 2570TIP3    H129269   3.009   2.941   6.846  0.9386 -0.7449 -2.1363
 2570TIP3    H229270   3.012   2.800   6.902  1.0818 -0.1389 -0.5734
 2571TIP3   OH229271   6.788   5.740   5.977 -0.1390  0.4323  0.0890
 2571TIP3    H129272   6.825   5.700   6.056 -0.6163 -1.0437 -0.4092
 2571TIP3    H229273   6.844   5.816   5.961  1.0731 -0.2654  0.8274
 2572TIP3   OH229274   4.286   0.943   8.304 -0.8283 -0.1969 -0.6010
 2572TIP3    H129275   4.345   0.964   8.231  0.3070 -1.0447  0.0361
 2572TIP3    H229276   4.323   0.989   8.379 -1.1964 -0.4257 -0.2747
 2573TIP3   OH229277   4.976   2.147   7.581  0.3789 -0.4904 -0.8816
 2573TIP3    H129278   4.979   2.223   7.639  0.6698 -1.1482 -0.0137
 2573TIP3    H229279   4.895   2.157   7.531 -0.6587 -0.6793  0.7106
 2574TIP3   OH229280   3.900   0.807   0.252  0.0247 -0.3132  0.1677
 2574TIP3    H129281   3.822   0.760   0.282  0.8939 -1.6591  0.3731
 2574TIP3    H229282   3.908   0.784   0.159 -0.8015  1.2533 -0.3364
 2575TIP3   OH229283   5.673   6.674   0.500  0.7530 -0.3896 -0.0669
 2575TIP3    H129284   5.579   6.675   0.482 -0.5876  0.6699  5.0548
 2575TIP3    H229285   5.703   6.761   0.473 -0.4420  0.2763  0.6455
 2576TIP3   OH229286   1.082   6.897   0.031  0.5941  0.0066  0.5624
 2576TIP3    H129287   1.107   6.839   0.103 -1.1575 -0.5847  0.7506
 2576TIP3    H229288   0.990   6.876   0.014 -0.3384  3.1565  1.0366
 2577TIP3   OH229289   6.078   1.685   7.407 -0.2537  0.4327 -0.1371
 2577TIP3    H129290   5.990   1.674   7.371 -0.0537  0.2594 -0.5799
 2577TIP3    H229291   6.066   1.745   7.481 -1.5975 -3.3699  3.0826
 2578TIP3   OH229292   6.382   3.920   6.681  0.0563 -0.2378 -0.0816
 2578TIP3    H129293   6.415   3.833   6.704 -1.6276 -0.8074  0.3003
 2578TIP3    H229294   6.294   3.904   6.648  0.0598  1.2467 -0.8624
 2579TIP3   OH229295   3.950   4.771   8.079 -0.2537 -0.1126 -0.0268
 2579TIP3    H129296   3.919   4.824   8.152  0.7262 -0.8646  0.9783
 2579TIP3    H229297   3.910   4.685   8.093 -1.2433  0.1201 -1.2302
 2580TIP3   OH229298   0.868   6.748   1.237  0.8513  0.1828 -0.4241
 2580TIP3    H129299   0.808   6.721   1.169  1.0815  1.3056 -1.0974
 2580TIP3    H229300   0.871   6.844   1.231  2.5476  0.1747 -0.2981
 2581TIP3   OH229301   1.449   3.058   1.742  0.3935 -0.0605  0.4605
 2581TIP3    H129302   1.503   3.137   1.737  0.2969 -0.0256 -0.1954
 2581TIP3    H229303   1.414   3.048   1.653  2.1724 -2.0538 -0.1202
 2582TIP3   OH229304   2.225   6.333   8.561  0.4421 -0.4399  0.3669
 2582TIP3    H129305   2.132   6.315   8.569  0.2935 -0.3315 -0.9522
 2582TIP3    H229306   2.242   6.401   8.626 -0.5517  0.0532  0.1221
 2583TIP3   OH229307   0.099   3.630   8.540  0.6859 -0.3894  1.3525
 2583TIP3    H129308   0.074   3.616   8.631 -0.9532  0.6860  1.1097
 2583TIP3    H229309   0.051   3.563   8.491  0.3011  0.0367  1.1365
 2584TIP3   OH229310   3.081   6.130   0.518 -0.4146 -0.2418  0.5826
 2584TIP3    H129311   3.171   6.125   0.485 -0.2656  1.1925  0.7242
 2584TIP3    H229312   3.034   6.182   0.453 -1.0444 -0.6189  0.7257
 2585TIP3   OH229313   2.672   0.750   6.362  1.0734  0.3082 -0.0197
 2585TIP3    H129314   2.586   0.787   6.344  1.4971  0.3335 -2.1874
 2585TIP3    H229315   2.733   0.803   6.311  2.2784 -0.2639  0.7746
 2586TIP3   OH229316   2.121   2.832   6.028 -0.1682 -0.0389 -0.5670
 2586TIP3    H129317   2.113   2.760   5.965 -0.0639 -1.3447  0.8470
 2586TIP3    H229318   2.205   2.817   6.071 -1.1526 -0.4306  1.3127
 2587TIP3   OH229319   0.830   5.882   2.149  0.4609 -0.7274  0.1175
 2587TIP3    H129320   0.890   5.853   2.080 -0.4909  1.3833 -1.7207
 2587TIP3    H229321   0.790   5.802   2.182 -2.3416 -1.7602 -4.9167
 2588TIP3   OH229322   6.865   0.465   1.042 -0.4270 -0.2530 -0.1279
 2588TIP3    H129323   6.933   0.442   1.105  0.3993  0.1846 -0.8288
 2588TIP3    H229324   6.836   0.381   1.007  0.3478 -0.4142 -0.4132
 2589TIP3   OH229325   6.518   5.307   7.507  0.1300  0.4585 -0.6580
 2589TIP3    H129326   6.502   5.295   7.601  1.0897 -1.9561 -0.7223
 2589TIP3    H229327   6.601   5.354   7.503  1.2499 -1.3740 -0.2173
 2590TIP3   OH229328   1.249   3.243   0.608  0.2205  0.0706  0.0467
 2590TIP3    H129329   1.320   3.190   0.570  0.8226 -0.5170  1.8781
 2590TIP3    H229330   1.288   3.282   0.686 -0.5453  2.3840 -0.6644
 2591TIP3   OH229331   2.846   3.461   6.385 -0.0239 -1.0631 -0.0287
 2591TIP3    H129332   2.812   3.451   6.474  0.0578 -1.0845  0.0002
 2591TIP3    H229333   2.860   3.556   6.375 -0.4672 -1.0125 -0.1804
 2592TIP3   OH229334   5.487   0.949   0.355  0.5056  0.1245  0.3717
 2592TIP3    H129335   5.470   1.004   0.432 -0.8248  0.2631 -0.0001
 2592TIP3    H229336   5.485   1.010   0.281  0.4464 -0.2020  0.1000
 2593TIP3   OH229337   6.860   5.607   6.706  0.9183  0.5667 -0.2681
 2593TIP3    H129338   6.917   5.572   6.637  0.5699  1.0579 -0.8177
 2593TIP3    H229339   6.776   5.562   6.692  0.6939  1.0496 -0.4991
 2594TIP3   OH229340   1.678   0.807   1.191 -0.5028  0.0134  0.9979
 2594TIP3    H129341   1.650   0.732   1.242 -0.0574 -0.5184  0.4806
 2594TIP3    H229342   1.671   0.881   1.251 -1.6678 -0.3106  1.2939
 2595TIP3   OH229343   0.772   4.180   6.954  0.1945  0.1904  0.5930
 2595TIP3    H129344   0.756   4.274   6.943  1.3078  0.1963 -1.6062
 2595TIP3    H229345   0.684   4.142   6.960 -0.3004  1.2827  0.5786
 2596TIP3   OH229346   0.166   5.089   0.759 -0.5308 -0.7616 -0.5010
 2596TIP3    H129347   0.252   5.128   0.772 -0.9447 -0.0328  0.1480
 2596TIP3    H229348   0.157   5.027   0.832 -0.8368 -0.3234 -0.1637
 2597TIP3   OH229349   4.169   6.277   7.735 -0.5402  0.3454  0.1002
 2597TIP3    H129350   4.104   6.208   7.723  0.6338 -1.0131  1.2742
 2597TIP3    H229351   4.173   6.290   7.830  0.3031  0.9937 -0.0115
 2598TIP3   OH229352   2.100   4.127   1.811 -0.4522 -0.7504 -0.3647
 2598TIP3    H129353   2.138   4.147   1.896  0.4864  0.0484 -0.9536
 2598TIP3    H229354   2.101   4.210   1.764 -0.7184 -1.2341 -1.2519
 2599TIP3   OH229355   6.089   4.448   0.785 -0.0640 -0.9091 -0.2846
 2599TIP3    H129356   6.158   4.515   0.778  0.1180 -0.9110  1.0973
 2599TIP3    H229357   6.064   4.450   0.877 -0.1966 -2.6124 -0.2558
 2600TIP3   OH229358   6.374   2.335   7.537 -0.0308  0.1137  0.1688
 2600TIP3    H129359   6.431   2.375   7.602  1.1193 -0.1758 -0.6457
 2600TIP3    H229360   6.346   2.408   7.481  0.3935  0.0898 -0.0724
 2601TIP3   OH229361   1.468   0.297   1.320 -0.5372  0.2816 -0.0413
 2601TIP3    H129362   1.392   0.274   1.374 -1.4582  1.4939 -0.7743
 2601TIP3    H229363   1.543   0.285   1.378 -1.4181  0.5439  1.1987
 2602TIP3   OH229364   5.327   3.089   7.081 -0.0715 -0.1276 -0.3621
 2602TIP3    H129365   5.250   3.042   7.114 -0.0119 -1.2142 -1.6658
 2602TIP3    H229366   5.297   3.179   7.071 -0.4750 -0.0425  1.3147
 2603TIP3   OH229367   3.578   3.044   2.147  0.4774  0.2208  1.1305
 2603TIP3    H129368   3.620   3.130   2.148  0.7737  0.0713  1.3785
 2603TIP3    H229369   3.620   2.995   2.217  0.1629 -0.0599  1.1263
 2604TIP3   OH229370   3.879   3.233   1.259 -0.1029 -0.3890  0.0958
 2604TIP3    H129371   3.824   3.188   1.324 -0.2761  2.5429  2.1802
 2604TIP3    H229372   3.818   3.288   1.210  0.5798  1.0710  0.8107
 2605TIP3   OH229373   5.811   1.616   7.299  0.1684 -0.1911 -0.3783
 2605TIP3    H129374   5.738   1.672   7.323  0.1175 -0.9749  1.4524
 2605TIP3    H229375   5.782   1.570   7.220 -2.2867 -2.1369  1.4982
 2606TIP3   OH229376   4.309   5.103   8.095  0.4268  0.3907  0.1431
 2606TIP3    H129377   4.290   5.195   8.079 -0.7720 -0.1945 -2.3107
 2606TIP3    H229378   4.300   5.092   8.189  1.0152  2.8490  0.5430
 2607TIP3   OH229379   5.760   6.735   0.212 -0.1012 -0.2494  0.6224
 2607TIP3    H129380   5.737   6.821   0.246 -2.2961 -0.4118 -0.2963
 2607TIP3    H229381   5.830   6.752   0.149 -2.3157  1.3217 -1.5945
 2608TIP3   OH229382   0.720   6.472   0.034 -0.0028 -0.0789 -0.5177
 2608TIP3    H129383   0.691   6.395   0.082 -0.9553 -0.4497 -1.6367
 2608TIP3    H229384   0.815   6.475   0.049 -0.1931 -0.4986  0.8845
 2609TIP3   OH229385   3.706   1.582   0.720 -0.2396  0.0778  0.0096
 2609TIP3    H129386   3.789   1.546   0.751  0.1594  0.8315 -0.1643
 2609TIP3    H229387   3.691   1.660   0.773 -1.4811 -0.7347  0.8994
 2610TIP3   OH229388   4.941   2.253   6.413  0.2218  0.0838  0.3835
 2610TIP3    H129389   5.009   2.263   6.479  0.2375 -2.2419  0.7873
 2610TIP3    H229390   4.862   2.288   6.455  0.2638 -1.2157  1.6280
 2611TIP3   OH229391   1.697   5.872   8.102 -0.2848  0.0846  0.2710
 2611TIP3    H129392   1.652   5.807   8.047  0.4955 -0.3090  0.0892
 2611TIP3    H229393   1.634   5.892   8.172 -0.9472 -0.0606 -0.2697
 2612TIP3   OH229394   3.697   0.752   7.571 -0.4299  0.1676  0.1068
 2612TIP3    H129395   3.658   0.665   7.559 -1.0783  0.7529 -2.8149
 2612TIP3    H229396   3.624   0.807   7.600 -0.4294  0.1030  0.2317
 2613TIP3   OH229397   4.082   1.618   8.102  0.2393  0.2888 -0.4360
 2613TIP3    H129398   4.172   1.643   8.124  0.4157 -0.3294 -0.4317
 2613TIP3    H229399   4.074   1.636   8.009 -0.0101  1.4435 -0.2022
 2614TIP3   OH229400   1.644   0.923   6.190 -0.4582 -0.2799 -0.3988
 2614TIP3    H129401   1.681   0.880   6.112  1.3850  2.0808 -0.9468
 2614TIP3    H229402   1.657   1.016   6.174 -0.9206  0.3288  2.3474
 2615TIP3   OH229403   1.720   3.910   0.077  0.3679  0.0991  0.4999
 2615TIP3    H129404   1.757   3.823   0.063 -0.5598 -0.0110 -1.4993
 2615TIP3    H229405   1.626   3.895   0.089 -0.1888  0.9572 -2.2448
 2616TIP3   OH229406   4.919   2.377   0.249 -0.0832  0.2546  0.2588
 2616TIP3    H129407   4.823   2.383   0.244 -0.1333 -0.3325  0.4366
 2616TIP3    H229408   4.945   2.454   0.299 -0.2850  1.5458 -1.5209
 2617TIP3   OH229409   6.784   0.733   7.945  0.7784  0.2771 -0.0281
 2617TIP3    H129410   6.856   0.784   7.981  2.2871 -1.0588 -0.9898
 2617TIP3    H229411   6.808   0.642   7.962 -1.8835 -0.2300  1.7828
 2618TIP3   OH229412   5.782   4.346   0.083 -0.4218  1.0269 -0.2474
 2618TIP3    H129413   5.794   4.397   0.163  1.1590  1.1685 -0.5381
 2618TIP3    H229414   5.745   4.263   0.111 -1.5777  1.7538  0.4137
 2619TIP3   OH229415   5.632   0.237   0.640 -0.0385 -0.0097 -0.7920
 2619TIP3    H129416   5.712   0.255   0.689  0.8906 -0.8404 -1.9333
 2619TIP3    H229417   5.564   0.290   0.682  1.1660  0.8976  0.0441
 2620TIP3   OH229418   3.886   0.566   7.151  0.0455 -0.0738  0.1834
 2620TIP3    H129419   3.898   0.633   7.219  0.7443  0.4072 -0.3922
 2620TIP3    H229420   3.942   0.494   7.179  0.1574  0.0314  0.2316
 2621TIP3   OH229421   3.216   5.297   8.209 -0.1458 -0.3389 -0.0090
 2621TIP3    H129422   3.288   5.341   8.255  0.0187 -0.1243 -0.4700
 2621TIP3    H229423   3.141   5.306   8.268  0.5547 -1.9393  1.2279
 2622TIP3   OH229424   6.812   0.055   1.149  0.1477  0.1776 -0.2439
 2622TIP3    H129425   6.884   0.117   1.161  0.2917  0.3727 -1.8274
 2622TIP3    H229426   6.846  -0.028   1.182 -0.0363  0.8974  1.8669
 2623TIP3   OH229427   1.004   0.016   8.180  0.1025 -0.0402  0.4559
 2623TIP3    H129428   0.958  -0.045   8.123  0.3742 -1.0677  1.3182
 2623TIP3    H229429   0.997   0.100   8.135 -2.1348 -0.2583  0.2793
 2624TIP3   OH229430   2.593   2.153   7.152 -0.5779  0.4173  0.3077
 2624TIP3    H129431   2.610   2.151   7.058  0.6932 -4.0300  0.4028
 2624TIP3    H229432   2.498   2.140   7.160 -0.7506  1.2199 -0.3037
 2625TIP3   OH229433   6.888   2.456   0.134 -0.7516 -0.2226  0.0000
 2625TIP3    H129434   6.841   2.498   0.206  1.2577 -0.7076  1.6941
 2625TIP3    H229435   6.898   2.526   0.069 -1.4182  0.6284  0.7769
 2626TIP3   OH229436   6.383   2.412   8.232 -0.1558  0.1812  0.1260
 2626TIP3    H129437   6.378   2.502   8.199  2.8815  1.2736  2.2220
 2626TIP3    H229438   6.458   2.374   8.186 -0.4607 -0.7703  0.3973
 2627TIP3   OH229439   3.176   5.297   1.285  0.1561 -0.3159  0.3674
 2627TIP3    H129440   3.229   5.322   1.210  1.1407 -0.0473  1.1379
 2627TIP3    H229441   3.086   5.316   1.258  0.6091  1.0909 -0.2264
 2628TIP3   OH229442   6.697   2.912   1.571 -0.1552  0.0338  0.2161
 2628TIP3    H129443   6.661   2.999   1.590 -0.7746 -0.2819  0.5238
 2628TIP3    H229444   6.775   2.905   1.626  2.1840  1.8814 -2.5684
 2629TIP3   OH229445   6.529   5.929   0.099 -0.7523  0.0496  0.1088
 2629TIP3    H129446   6.588   5.965   0.165 -0.5538 -0.8196  0.4160
 2629TIP3    H229447   6.516   6.001   0.037  0.1177  0.4562  0.3802
 2630TIP3   OH229448   3.627   6.870   0.218 -0.8000  0.2315 -0.2059
 2630TIP3    H129449   3.636   6.956   0.178  0.3061  0.2725  0.0975
 2630TIP3    H229450   3.676   6.811   0.160  1.3293  0.3877  1.3257
 2631TIP3   OH229451   2.715   5.858   7.155 -0.6830  0.0560 -0.2208
 2631TIP3    H129452   2.668   5.834   7.075  0.8279  1.1635 -1.4914
 2631TIP3    H229453   2.759   5.777   7.181 -1.3944 -0.3812 -0.3416
 2632TIP3   OH229454   0.526   1.222   5.965  0.0457 -0.1702  0.5529
 2632TIP3    H129455   0.528   1.137   6.010  1.7642 -1.1661 -1.2263
 2632TIP3    H229456   0.462   1.210   5.895  0.1212  0.0841  0.4397
 2633TIP3   OH229457   0.264   2.077   1.257 -0.3445  0.1021  0.3027
 2633TIP3    H129458   0.184   2.082   1.309 -1.0047 -4.4184  0.1392
 2633TIP3    H229459   0.233   2.074   1.166  0.2307  0.4882  0.0837
 2634TIP3   OH229460   0.745   3.816   1.934 -0.0110 -0.6736 -0.2586
 2634TIP3    H129461   0.766   3.889   1.991  0.1371 -0.8817 -0.0445
 2634TIP3    H229462   0.694   3.855   1.863 -1.7295 -0.6919  0.9197
 2635TIP3   OH229463   0.255   2.008   0.132  0.2690  0.8804  0.6458
 2635TIP3    H129464   0.166   2.044   0.134 -1.2877 -2.5295  0.4727
 2635TIP3    H229465   0.310   2.082   0.108 -2.7774  2.7449 -1.3646
 2636TIP3   OH229466   4.121   4.145   1.363 -0.3986  0.2791  0.0717
 2636TIP3    H129467   4.145   4.160   1.454  0.5759 -0.0198 -0.1252
 2636TIP3    H229468   4.196   4.176   1.313 -0.5867 -0.3016 -0.5865
 2637TIP3   OH229469   0.211   2.437   0.575 -0.2076  0.2786 -0.3886
 2637TIP3    H129470   0.303   2.455   0.554  0.6518 -0.2028  2.5802
 2637TIP3    H229471   0.207   2.342   0.588 -0.7414  0.4650  0.9980
 2638TIP3   OH229472   2.145   0.148   0.340 -0.1677 -0.4432 -0.1279
 2638TIP3    H129473   2.126   0.161   0.433 -0.3904  0.4218 -0.2814
 2638TIP3    H229474   2.091   0.213   0.295  0.4467 -0.3947 -0.8212
 2639TIP3   OH229475   6.061   5.179   1.691 -0.0898  0.0402  0.1856
 2639TIP3    H129476   6.133   5.157   1.632  0.7167 -0.7965  1.4175
 2639TIP3    H229477   6.104   5.208   1.771 -0.9717 -2.8594  1.8812
 2640TIP3   OH229478   5.168   3.688   1.814 -0.0256  0.4471  0.3108
 2640TIP3    H129479   5.226   3.694   1.890 -0.5746 -0.8330  0.8461
 2640TIP3    H229480   5.103   3.757   1.828 -0.9629 -0.6940  1.7433
 2641TIP3   OH229481   4.048   6.087   0.601  0.5516  0.6490  0.1469
 2641TIP3    H129482   3.992   6.090   0.524  1.1158 -0.4397 -0.3298
 2641TIP3    H229483   4.024   6.006   0.645  0.9670  0.7427  0.5516
 2642TIP3   OH229484   2.787   4.545   0.121 -0.2178 -0.1437  0.2034
 2642TIP3    H129485   2.698   4.519   0.145 -0.1398 -0.1371  0.5017
 2642TIP3    H229486   2.775   4.599   0.043 -0.4656 -0.2373  0.1739
 2643TIP3   OH229487   4.839   6.268   6.895 -0.1654  0.6098  0.6199
 2643TIP3    H129488   4.762   6.212   6.904  0.5975 -0.5169  0.2975
 2643TIP3    H229489   4.823   6.318   6.814 -1.1942  1.4499  1.3154
 2644TIP3   OH229490   5.422   6.138   2.258 -0.0141 -0.3295 -0.2502
 2644TIP3    H129491   5.368   6.216   2.270 -1.7433 -1.7712  2.5257
 2644TIP3    H229492   5.509   6.164   2.286  0.0266  1.2122 -1.7035
 2645TIP3   OH229493   6.403   4.485   6.662 -0.1684  1.0057 -0.2552
 2645TIP3    H129494   6.343   4.420   6.700 -0.6884  1.2509 -0.6459
 2645TIP3    H229495   6.455   4.516   6.736 -1.9318  2.3189  0.5086
 2646TIP3   OH229496   1.328   5.816   1.605  0.3573 -0.3504  0.3846
 2646TIP3    H129497   1.352   5.724   1.615 -0.6764 -0.4791  1.9862
 2646TIP3    H229498   1.236   5.814   1.579  0.7303  0.2339 -1.1344
 2647TIP3   OH229499   0.689   4.466   1.667 -0.1667 -0.1533  0.5477
 2647TIP3    H129500   0.630   4.450   1.594 -0.0510 -1.8639  0.7920
 2647TIP3    H229501   0.744   4.387   1.672  0.5147  0.3609  1.8324
 2648TIP3   OH229502   0.850   1.467   1.830  0.5493  0.2960  0.0396
 2648TIP3    H129503   0.776   1.410   1.852  0.4345 -0.3066 -1.7455
 2648TIP3    H229504   0.830   1.550   1.872 -1.3503  0.2662 -0.7199
 2649TIP3   OH229505   0.205   5.710   7.333  0.3129 -0.1158  0.6174
 2649TIP3    H129506   0.273   5.733   7.397 -0.2547  1.1154  0.8035
 2649TIP3    H229507   0.251   5.655   7.269  1.3454  0.1830  1.0704
 2650TIP3   OH229508   1.992   3.799   8.427 -0.9647  0.5471  0.4520
 2650TIP3    H129509   1.906   3.764   8.450 -1.2677  1.4948  0.7832
 2650TIP3    H229510   2.051   3.724   8.435 -1.4861  0.2540  1.8035
 2651TIP3   OH229511   5.586   4.426   8.347  0.2754  0.1956  0.2590
 2651TIP3    H129512   5.567   4.336   8.323  0.6876  0.1164  0.2294
 2651TIP3    H229513   5.537   4.441   8.428 -0.5653  0.2472 -0.2449
 2652TIP3   OH229514   4.559   2.402   0.942  0.2805 -0.6032 -0.4804
 2652TIP3    H129515   4.558   2.399   1.037  2.5424 -0.3097 -0.3905
 2652TIP3    H229516   4.592   2.316   0.916  0.9151 -0.2273 -0.9313
 2653TIP3   OH229517   0.975   2.848   2.180 -0.1095  0.0667 -0.5929
 2653TIP3    H129518   0.928   2.928   2.203  0.3838 -0.1185  1.2488
 2653TIP3    H229519   1.018   2.868   2.097 -0.0527  1.6841 -0.1975
 2654TIP3   OH229520   6.060   5.809   1.193 -0.2885  0.4227 -0.1664
 2654TIP3    H129521   6.129   5.748   1.220 -1.6373 -0.8629  0.5584
 2654TIP3    H229522   6.090   5.844   1.110 -0.4864 -3.1115 -1.9198
 2655TIP3   OH229523   1.252   4.432   7.371  0.3847  0.4424 -0.0393
 2655TIP3    H129524   1.346   4.435   7.352  0.8578 -0.3847  1.8548
 2655TIP3    H229525   1.219   4.359   7.318  1.0601 -0.0170  0.1607
 2656TIP3   OH229526   5.498   6.365   8.453  0.5681  0.0324 -0.4819
 2656TIP3    H129527   5.588   6.337   8.473 -0.0589 -0.6724  1.6465
 2656TIP3    H229528   5.478   6.429   8.521 -0.3759  0.5476 -1.2389
 2657TIP3   OH229529   0.875   0.551   7.594 -0.1370  0.0602 -0.1339
 2657TIP3    H129530   0.831   0.476   7.554  1.3353 -0.1660 -1.3988
 2657TIP3    H229531   0.893   0.610   7.521 -0.4399  1.2378  0.7177
 2658TIP3   OH229532   2.960   3.317   6.933 -0.7422 -0.4208  0.3336
 2658TIP3    H129533   2.996   3.387   6.877 -1.0589 -0.1189  0.5002
 2658TIP3    H229534   2.876   3.352   6.963  1.4272  1.6328  5.0646
 2659TIP3   OH229535   0.786   5.211   7.783  0.2179  0.7275 -0.2935
 2659TIP3    H129536   0.747   5.250   7.861 -1.4908 -1.0705 -0.1587
 2659TIP3    H229537   0.878   5.198   7.805  0.0697  1.5281  0.8779
 2660TIP3   OH229538   6.397   5.812   1.526 -0.6299 -0.0796  0.2693
 2660TIP3    H129539   6.456   5.737   1.520 -1.6415 -0.8675 -0.1577
 2660TIP3    H229540   6.357   5.803   1.613 -1.1681 -0.3629 -0.0042
 2661TIP3   OH229541   6.820   1.345   8.557 -0.1168 -0.4431 -0.3457
 2661TIP3    H129542   6.879   1.335   8.482 -1.5377 -0.5820 -1.4884
 2661TIP3    H229543   6.875   1.382   8.626  1.1194  0.1693 -1.6053
 2662TIP3   OH229544   5.500   4.419   1.996 -0.2969  0.3563 -0.1248
 2662TIP3    H129545   5.587   4.459   2.002 -0.5965  1.0511 -0.3257
 2662TIP3    H229546   5.465   4.450   1.913 -0.7742  0.1509 -0.0032
 2663TIP3   OH229547   0.351   2.936   6.037 -0.4232 -0.3565 -0.3689
 2663TIP3    H129548   0.397   2.882   5.973  1.5368 -0.1968  0.8367
 2663TIP3    H229549   0.358   2.888   6.120  0.9936  1.4816  0.6401
 2664TIP3   OH229550   1.848   5.969   8.479 -0.2468  0.2628 -0.2070
 2664TIP3    H129551   1.942   5.976   8.500 -0.0785 -1.2512 -0.3709
 2664TIP3    H229552   1.843   5.896   8.417 -1.3370  1.4981 -1.6397
 2665TIP3   OH229553   4.604   2.822   1.713  0.2706 -0.1361 -0.1878
 2665TIP3    H129554   4.660   2.840   1.789  0.0974  3.1286 -0.6715
 2665TIP3    H229555   4.528   2.777   1.749  0.8048  0.1341  1.3547
 2666TIP3   OH229556   0.187   4.405   6.306  0.2102  0.1180 -0.1412
 2666TIP3    H129557   0.198   4.470   6.236  0.9781  1.8711  1.5131
 2666TIP3    H229558   0.276   4.381   6.331 -0.0557 -0.5695  0.1545
 2667TIP3   OH229559   6.077   1.712   1.044  0.0787 -0.3682  0.4076
 2667TIP3    H129560   6.083   1.697   0.949  1.5187 -1.3706  0.6243
 2667TIP3    H229561   6.085   1.625   1.082 -3.1785 -0.3521  1.4306
 2668TIP3   OH229562   1.968   0.577   8.331 -0.5653  0.7181  0.0393
 2668TIP3    H129563   1.983   0.504   8.271 -1.5542  0.5547 -0.0225
 2668TIP3    H229564   1.932   0.536   8.410 -0.0635  1.0238  0.4344
 2669TIP3   OH229565   6.094   2.094   1.369 -0.6139 -0.0765  0.3065
 2669TIP3    H129566   6.021   2.032   1.373 -0.4222 -0.3091  0.2354
 2669TIP3    H229567   6.094   2.126   1.279 -1.5674  1.0700  0.6936
 2670TIP3   OH229568   5.731   1.546   1.431  0.1808 -0.1906 -0.4355
 2670TIP3    H129569   5.792   1.615   1.460 -1.2633  0.9767 -0.0320
 2670TIP3    H229570   5.764   1.520   1.345  1.1767  0.5123 -0.2853
 2671TIP3   OH229571   1.941   5.425   7.750  0.0252 -0.8581 -0.3110
 2671TIP3    H129572   1.871   5.478   7.712  0.7221  0.0071 -0.4470
 2671TIP3    H229573   1.928   5.433   7.845  1.3368  1.3669 -0.2388
 2672TIP3   OH229574   0.377   5.426   1.410 -0.6829  0.4063  0.3676
 2672TIP3    H129575   0.344   5.371   1.339 -0.0101 -0.0464  0.4026
 2672TIP3    H229576   0.353   5.378   1.490 -0.4819  0.3789  0.4119
 2673TIP3   OH229577   0.379   5.917   8.227  0.0554 -0.4463  0.6215
 2673TIP3    H129578   0.313   5.910   8.158 -0.3987 -0.7541  1.0792
 2673TIP3    H229579   0.423   6.000   8.209  0.1587 -0.6672 -0.2189
 2674TIP3   OH229580   3.411   0.117   8.477 -0.4363  0.4633 -0.0227
 2674TIP3    H129581   3.355   0.193   8.491  0.5235  1.0811  0.5782
 2674TIP3    H229582   3.485   0.131   8.536  1.2825  0.6389 -2.1144
 2675TIP3   OH229583   3.519   6.343   1.010  0.1008  0.1302 -0.0830
 2675TIP3    H129584   3.524   6.339   0.915  2.3505 -2.2129  0.0076
 2675TIP3    H229585   3.602   6.383   1.037 -2.1148  4.6115  0.9300
 2676TIP3   OH229586   2.845   6.289   1.942 -0.4809  0.1699 -0.2728
 2676TIP3    H129587   2.764   6.289   1.891  0.1080 -0.4340 -1.2472
 2676TIP3    H229588   2.851   6.201   1.978  0.2140 -0.0919 -1.0029
 2677TIP3   OH229589   6.546   5.888   2.229  0.4909  0.0619 -0.0006
 2677TIP3    H129590   6.580   5.803   2.255  1.1140  0.5853  0.9507
 2677TIP3    H229591   6.453   5.873   2.212  0.0306 -0.3617  2.5013
 2678TIP3   OH229592   4.311   2.306   0.311 -0.0713 -0.2967  0.0403
 2678TIP3    H129593   4.394   2.258   0.307  0.1156 -0.0220  0.5036
 2678TIP3    H229594   4.330   2.389   0.267 -0.4079 -0.6525 -0.8056
 2679TIP3   OH229595   1.034   6.592   2.018 -0.7250  0.5432 -0.0313
 2679TIP3    H129596   1.129   6.597   2.026 -0.8032  0.4206  1.0433
 2679TIP3    H229597   1.009   6.515   2.067 -1.1743 -0.9572 -2.4313
 2680TIP3   OH229598   1.217   6.756   0.218  0.2211  0.1166 -0.5074
 2680TIP3    H129599   1.209   6.674   0.170 -1.4906  0.9843 -1.8445
 2680TIP3    H229600   1.311   6.776   0.217  0.5792 -1.4628 -0.7266
 2681TIP3   OH229601   5.357   1.559   6.818 -0.7997 -0.8833 -0.5587
 2681TIP3    H129602   5.410   1.525   6.890 -2.4486  2.1678  2.4139
 2681TIP3    H229603   5.417   1.613   6.767 -0.2224 -0.5261  0.4707
 2682TIP3   OH229604   2.373   2.394   1.136  0.3606  0.0302 -0.2404
 2682TIP3    H129605   2.463   2.364   1.119  0.2990 -0.9540  1.0463
 2682TIP3    H229606   2.356   2.369   1.227 -1.0877  0.5448 -0.3481
 2683TIP3   OH229607   4.298   2.195   1.473 -0.4748 -0.5679  0.2201
 2683TIP3    H129608   4.236   2.124   1.454 -0.9881  0.1339 -0.7612
 2683TIP3    H229609   4.322   2.230   1.388 -2.1117  2.0397  0.7274
 2684TIP3   OH229610   1.670   3.530   1.370 -0.8259  0.3454  0.3907
 2684TIP3    H129611   1.654   3.436   1.384  1.0059  0.1925  1.7914
 2684TIP3    H229612   1.597   3.573   1.415 -2.4741 -0.3655 -1.4658
 2685TIP3   OH229613   3.100   6.502   7.211 -0.5514 -0.4058 -0.1831
 2685TIP3    H129614   3.044   6.561   7.162  2.7276  1.6375 -1.8760
 2685TIP3    H229615   3.111   6.426   7.153  1.6998  1.1165 -1.9473
 2686TIP3   OH229616   4.757   1.745   0.145  0.1302 -0.9282  0.1705
 2686TIP3    H129617   4.736   1.654   0.126  0.6447 -1.0249  0.0582
 2686TIP3    H229618   4.845   1.743   0.180  0.1366 -0.4745  0.1930
 2687TIP3   OH229619   3.006   6.886   7.306  0.0948  0.0759 -0.2320
 2687TIP3    H129620   3.000   6.877   7.401  1.2146  0.0765 -0.1463
 2687TIP3    H229621   2.980   6.801   7.272 -0.4557  0.1200  0.0659
 2688TIP3   OH229622   6.441   5.353   6.922  0.6961 -0.0949 -0.1246
 2688TIP3    H129623   6.453   5.443   6.893  2.5708  0.5976  2.4467
 2688TIP3    H229624   6.530   5.317   6.926  0.2587 -1.0978  1.5988
 2689TIP3   OH229625   0.458   3.544   5.865  0.8228 -0.4962 -0.4433
 2689TIP3    H129626   0.523   3.499   5.811 -0.0702 -1.1765 -0.9710
 2689TIP3    H229627   0.386   3.482   5.873  0.8429 -0.3303  1.3783
 2690TIP3   OH229628   4.427   2.682   1.875 -0.2684 -0.2695  0.2977
 2690TIP3    H129629   4.510   2.695   1.920  0.2762 -0.0769 -0.7324
 2690TIP3    H229630   4.370   2.640   1.940  0.2730  0.6040  1.3683
 2691TIP3   OH229631   4.836   4.140   7.616 -0.0339  0.2784  0.1597
 2691TIP3    H129632   4.809   4.231   7.605 -0.3224  0.0739 -0.9990
 2691TIP3    H229633   4.791   4.094   7.545  0.4189 -0.6994  0.5007
 2692TIP3   OH229634   2.525   0.991   7.465 -0.1510 -0.7698  0.1496
 2692TIP3    H129635   2.524   0.978   7.370  0.2066 -0.2557  0.0738
 2692TIP3    H229636   2.441   1.032   7.484  0.5262  0.8320 -0.1982
 2693TIP3   OH229637   6.556   2.478   1.065  0.6998 -0.5342  0.0514
 2693TIP3    H129638   6.531   2.510   0.978 -1.6384  0.1718  0.9092
 2693TIP3    H229639   6.637   2.429   1.050  0.1007 -0.8769 -2.5961
 2694TIP3   OH229640   1.005   0.753   0.237  0.2274 -0.0481 -0.2660
 2694TIP3    H129641   1.043   0.785   0.319 -1.3678  0.2460  0.3913
 2694TIP3    H229642   0.925   0.804   0.226 -0.1990 -0.9189 -1.3916
 2695TIP3   OH229643   3.995   2.534   2.337 -0.3158 -0.4504  0.0369
 2695TIP3    H129644   4.059   2.595   2.374  1.2524 -0.9243 -1.7290
 2695TIP3    H229645   3.921   2.589   2.312  0.7239  0.6339 -0.7726
 2696TIP3   OH229646   6.275   2.295   1.670 -0.4826  0.2152 -0.1769
 2696TIP3    H129647   6.308   2.260   1.753  0.5430  2.2224  0.3276
 2696TIP3    H229648   6.334   2.258   1.604 -1.0580 -1.0771  0.0041
 2697TIP3   OH229649   0.616   3.500   0.584 -0.0296 -0.4029  0.3741
 2697TIP3    H129650   0.563   3.541   0.516  0.0440  0.3705  0.7715
 2697TIP3    H229651   0.571   3.523   0.666  1.8769  1.8737  0.8961
 2698TIP3   OH229652   0.455   0.852   1.032 -0.4965  0.0325  0.3913
 2698TIP3    H129653   0.498   0.906   0.966 -0.4077 -0.5907 -0.0692
 2698TIP3    H229654   0.459   0.904   1.112 -2.0827  1.5505 -0.4302
 2699TIP3   OH229655   6.870   0.861   7.239  0.0462 -0.2087  0.0989
 2699TIP3    H129656   6.924   0.900   7.308  0.1383 -1.5707  0.8506
 2699TIP3    H229657   6.788   0.910   7.242  0.8342  1.1704 -0.3208
 2700TIP3   OH229658   3.934   2.010   1.153  0.1338  0.2381  0.2583
 2700TIP3    H129659   3.923   1.986   1.245 -1.1353 -0.8980 -0.1544
 2700TIP3    H229660   3.849   2.046   1.127 -0.1680 -1.2035 -0.9372
 2701TIP3   OH229661   5.804   2.633   2.084 -0.5038  0.0867 -0.0153
 2701TIP3    H129662   5.888   2.594   2.105 -1.3710 -2.0496 -0.2796
 2701TIP3    H229663   5.796   2.707   2.145  1.8531  0.8503 -0.5414
 2702TIP3   OH229664   6.193   6.185   7.957  0.6008  0.2077  0.5452
 2702TIP3    H129665   6.257   6.167   7.888  0.4555  0.3898  0.3594
 2702TIP3    H229666   6.127   6.116   7.948  0.2898  0.5498  0.1374
 2703TIP3   OH229667   3.675   1.551   0.136 -0.0182 -0.1076  0.1105
 2703TIP3    H129668   3.725   1.479   0.098 -0.5490 -0.1370 -0.5514
 2703TIP3    H229669   3.740   1.618   0.157  0.3490 -0.3281 -0.3147
 2704TIP3   OH229670   6.693   6.116   0.620  0.6886  0.0064 -0.1268
 2704TIP3    H129671   6.637   6.094   0.694 -1.1609  0.3976 -1.3406
 2704TIP3    H229672   6.734   6.199   0.644 -0.5851  0.5792  0.0945
 2705TIP3   OH229673   2.106   5.098   7.058 -0.2642 -0.2919 -0.3454
 2705TIP3    H129674   2.014   5.117   7.039 -0.5703 -0.9551  0.4017
 2705TIP3    H229675   2.111   5.094   7.153 -0.3580 -4.1901 -0.3278
 2706TIP3   OH229676   2.052   2.116   7.211 -0.3008 -0.3156 -0.1616
 2706TIP3    H129677   1.973   2.164   7.186 -0.3956  0.6930  1.8736
 2706TIP3    H229678   2.037   2.027   7.180 -1.0128  0.4575 -2.2242
 2707TIP3   OH229679   2.980   3.949   6.383  0.2819  0.4258  0.2706
 2707TIP3    H129680   2.942   3.906   6.459 -0.1046  0.2305 -0.0304
 2707TIP3    H229681   2.909   4.002   6.347  0.5541  0.7640  0.2286
 2708TIP3   OH229682   2.481   5.797   0.578 -0.0823  0.3143  0.4700
 2708TIP3    H129683   2.564   5.834   0.607  0.3125 -1.1844  1.3608
 2708TIP3    H229684   2.450   5.857   0.510  1.8107  0.8013 -0.0125
 2709TIP3   OH229685   5.775   0.886   7.188 -0.0893 -0.0651  0.3061
 2709TIP3    H129686   5.724   0.856   7.113  1.8865 -0.9728 -0.7674
 2709TIP3    H229687   5.828   0.810   7.213  1.3771  1.0431  0.7485
 2710TIP3   OH229688   4.005   4.489   1.810 -0.1627 -0.6936 -0.1843
 2710TIP3    H129689   3.927   4.531   1.774  0.4373  0.2088 -0.4577
 2710TIP3    H229690   4.076   4.552   1.795  0.1862 -0.4046  2.3458
 2711TIP3   OH229691   0.496   3.939   0.707  0.4375  0.6145  0.2906
 2711TIP3    H129692   0.550   4.009   0.670  1.3692 -0.3658 -0.2616
 2711TIP3    H229693   0.508   3.946   0.802  2.2377 -0.0891  0.1549
 2712TIP3   OH229694   5.307   0.851   8.003 -0.1164  0.4422  0.0221
 2712TIP3    H129695   5.288   0.758   8.016 -0.0885  0.4690  0.2742
 2712TIP3    H229696   5.380   0.852   7.941 -0.5437  0.3197 -0.4892
 2713TIP3   OH229697   2.795   3.335   0.095  0.1859 -0.3970  0.3012
 2713TIP3    H129698   2.841   3.407   0.052  2.0681 -1.8473 -0.2173
 2713TIP3    H229699   2.863   3.271   0.115 -1.3977 -1.9743  0.8989
 2714TIP3   OH229700   1.568   4.085   7.022  0.4149 -0.1269  0.5095
 2714TIP3    H129701   1.644   4.126   7.063  2.4487 -0.0063 -2.9238
 2714TIP3    H229702   1.595   3.995   7.005  0.3186  0.1926 -1.6733
 2715TIP3   OH229703   1.871   6.401   7.726  0.0876  0.3320 -0.3229
 2715TIP3    H129704   1.925   6.324   7.713  1.0456  0.8135  0.6675
 2715TIP3    H229705   1.781   6.371   7.710  0.3202 -1.2725  1.0946
 2716TIP3   OH229706   2.625   4.957   0.691  0.0303  0.6488  0.4970
 2716TIP3    H129707   2.643   5.013   0.766  1.3861  0.3734  0.3911
 2716TIP3    H229708   2.533   4.976   0.668 -0.6654  0.1807  2.6856
 2717TIP3   OH229709   2.546   1.016   0.465  0.3153  0.6920  0.0243
 2717TIP3    H129710   2.524   0.943   0.523  1.2534  0.2832 -0.1150
 2717TIP3    H229711   2.468   1.071   0.464 -0.9865 -1.0772 -1.0778
 2718TIP3   OH229712   2.806   1.749   7.198 -0.0827  0.0612  0.3696
 2718TIP3    H129713   2.815   1.800   7.278 -0.5995 -1.4624  1.4287
 2718TIP3    H229714   2.896   1.731   7.171  0.1120  1.5420 -0.0614
 2719TIP3   OH229715   3.244   0.274   0.789 -0.5194 -0.0295  0.2098
 2719TIP3    H129716   3.253   0.230   0.873  0.8910  0.6691  0.4714
 2719TIP3    H229717   3.150   0.289   0.779 -0.7194 -0.2198  1.6109
 2720TIP3   OH229718   0.116   4.275   6.924  0.0937  0.7026 -0.1488
 2720TIP3    H129719   0.189   4.227   6.885  0.0817 -0.6198  1.3640
 2720TIP3    H229720   0.097   4.345   6.861  0.8796 -0.5610 -1.8598
 2721TIP3   OH229721   2.637   0.999   8.496 -0.1013 -0.0925  0.4957
 2721TIP3    H129722   2.577   0.980   8.424  0.0670 -2.4637  0.8920
 2721TIP3    H229723   2.701   1.060   8.460 -1.6358  0.9994 -0.4840
 2722TIP3   OH229724   6.170   1.422   6.484 -0.6478  0.3934  0.2111
 2722TIP3    H129725   6.244   1.405   6.427 -0.1048  0.4532  0.8826
 2722TIP3    H229726   6.194   1.381   6.567 -1.7787 -0.4249  0.1705
 2723TIP3   OH229727   2.809   2.898   6.098  0.4570 -0.4198  0.4063
 2723TIP3    H129728   2.856   2.842   6.160  0.1780 -0.3050  0.7269
 2723TIP3    H229729   2.850   2.984   6.107  2.0636 -0.9427 -1.3504
 2724TIP3   OH229730   5.724   0.822   8.408  0.1693 -0.0901 -0.2048
 2724TIP3    H129731   5.686   0.820   8.496 -0.2401  0.1488 -0.3705
 2724TIP3    H229732   5.656   0.785   8.351  0.6851 -0.8590 -0.3329
 2725TIP3   OH229733   4.315   4.041   2.288  0.5593 -0.0772 -0.0305
 2725TIP3    H129734   4.302   4.112   2.350  1.4958 -0.1376  0.2599
 2725TIP3    H229735   4.360   4.083   2.214 -1.2114  0.1504 -1.0211
 2726TIP3   OH229736   3.178   2.079   6.676 -0.2554  0.2796 -0.4777
 2726TIP3    H129737   3.104   2.105   6.730 -0.7271  1.4697 -1.6387
 2726TIP3    H229738   3.145   2.007   6.622  0.5509 -1.7202  1.5310
 2727TIP3   OH229739   5.294   3.800   0.003  0.4175  0.2186 -0.2471
 2727TIP3    H129740   5.238   3.810  -0.074  0.3692  0.3430 -0.1958
 2727TIP3    H229741   5.315   3.706   0.005 -0.3292  0.0464  0.1032
 2728TIP3   OH229742   1.727   3.360   0.289 -0.4074 -0.0586  0.1485
 2728TIP3    H129743   1.662   3.371   0.358  0.6407  1.2264  0.9662
 2728TIP3    H229744   1.753   3.268   0.295 -0.2817  0.0530  1.5165
 2729TIP3   OH229745   4.404   0.515   8.550 -0.0607  0.6202 -0.0238
 2729TIP3    H129746   4.416   0.594   8.498 -2.2294  1.4580  0.5979
 2729TIP3    H229747   4.409   0.546   8.641  1.5561 -0.4375  0.2779
 2730TIP3   OH229748   3.017   6.582   1.228 -0.5680 -0.1110 -0.4351
 2730TIP3    H129749   2.961   6.593   1.152  1.3499  0.6062 -1.8142
 2730TIP3    H229750   3.066   6.664   1.234  2.0156 -1.5231 -0.7618
 2731TIP3   OH229751   2.930   5.736   2.048  0.7056  0.1189 -0.1914
 2731TIP3    H129752   2.981   5.685   1.984  1.2136  1.9122 -1.2908
 2731TIP3    H229753   2.971   5.717   2.132  0.6303 -1.5607 -0.5050
 2732TIP3   OH229754   3.935   4.800   0.166 -0.7145 -0.1314  0.9288
 2732TIP3    H129755   3.937   4.780   0.260  1.3329  2.7260  1.6364
 2732TIP3    H229756   3.905   4.891   0.162 -0.8725 -0.2263 -1.2347
 2733TIP3   OH229757   0.742   1.955   0.441  0.2408 -0.2638  0.3208
 2733TIP3    H129758   0.789   1.890   0.493 -1.2739  0.0101  2.1392
 2733TIP3    H229759   0.651   1.924   0.440  0.0838  0.1471 -1.5796
 2734TIP3   OH229760   5.653   5.941   1.525  0.0150  0.0593  0.3171
 2734TIP3    H129761   5.613   5.880   1.588  0.5948 -1.8184 -1.0369
 2734TIP3    H229762   5.731   5.973   1.570  0.2307 -0.9707  0.7177
 2735TIP3   OH229763   6.668   0.928   7.029  0.3900  0.0436  0.5133
 2735TIP3    H129764   6.755   0.952   6.998  0.8781 -0.3001  1.5654
 2735TIP3    H229765   6.676   0.837   7.058 -0.2578  0.0755  0.8181
 2736TIP3   OH229766   4.072   5.604   8.381 -0.1868  0.0706 -0.4089
 2736TIP3    H129767   4.036   5.590   8.468  0.7125 -0.5257 -0.1241
 2736TIP3    H229768   4.027   5.541   8.325  0.2734 -0.5388 -0.0939
 2737TIP3   OH229769   1.388   6.832   0.560  0.2842 -0.0219 -0.0838
 2737TIP3    H129770   1.328   6.764   0.530 -0.7753  0.8279  0.0535
 2737TIP3    H229771   1.474   6.803   0.529 -0.0308 -1.7403  0.5208
 2738TIP3   OH229772   4.980   0.738   7.146 -0.3910 -0.3174  0.3349
 2738TIP3    H129773   4.893   0.732   7.184 -1.5073  0.2580 -1.9437
 2738TIP3    H229774   5.019   0.652   7.160 -1.4895 -0.7163  1.0257
 2739TIP3   OH229775   4.592   5.040   8.018 -0.0212 -0.1625 -0.2784
 2739TIP3    H129776   4.599   4.969   7.954  0.1865 -1.8628  1.5350
 2739TIP3    H229777   4.510   5.022   8.064 -0.0239  0.8584  0.1495
 2740TIP3   OH229778   4.870   4.432   8.350 -0.0872  0.6705  0.0783
 2740TIP3    H129779   4.862   4.341   8.322 -0.1787  0.1607  1.6810
 2740TIP3    H229780   4.935   4.430   8.420 -0.1130  1.8370  0.1561
 2741TIP3   OH229781   1.738   3.076   0.372 -0.2060 -0.5574 -0.1346
 2741TIP3    H129782   1.719   2.994   0.327 -3.3590 -1.6432  2.7404
 2741TIP3    H229783   1.712   3.060   0.463  4.6555  1.7312  2.0923
 2742TIP3   OH229784   6.374   6.123   7.741 -0.4991  0.1655 -1.0624
 2742TIP3    H129785   6.415   6.053   7.793  0.6343  0.8376 -1.0121
 2742TIP3    H229786   6.331   6.077   7.670 -1.4591 -0.7269  0.0512
 2743TIP3   OH229787   3.543   1.396   8.393 -0.1847  0.1518 -0.3968
 2743TIP3    H129788   3.461   1.372   8.350 -0.8960  1.6081  0.1177
 2743TIP3    H229789   3.519   1.412   8.484  0.5020  1.4214 -0.4201
 2744TIP3   OH229790   6.286   3.214   7.070  0.0153  0.0789  0.0967
 2744TIP3    H129791   6.323   3.194   7.155  1.0484  0.0381 -0.3528
 2744TIP3    H229792   6.293   3.309   7.062  0.6283  0.0095 -0.2525
 2745TIP3   OH229793   0.811   4.932   8.465 -0.0122  0.0696 -0.2002
 2745TIP3    H129794   0.817   5.019   8.504  0.7875  0.5920 -1.4319
 2745TIP3    H229795   0.900   4.913   8.436 -0.2215 -1.0937 -0.1078
 2746TIP3   OH229796   1.397   4.840   0.427  0.4103  0.5999  0.0963
 2746TIP3    H129797   1.315   4.890   0.434  0.6047  1.6927 -3.3792
 2746TIP3    H229798   1.371   4.756   0.390  0.7186  0.4122  0.3033
 2747TIP3   OH229799   4.950   4.709   8.310  0.5974 -0.3332 -0.3373
 2747TIP3    H129800   4.972   4.694   8.402 -1.3406  1.5892  0.5327
 2747TIP3    H229801   4.889   4.640   8.287 -0.3254  0.2108  0.4200
 2748TIP3   OH229802   1.567   2.407   7.424  0.3408  0.1701  0.1695
 2748TIP3    H129803   1.512   2.483   7.406  0.5427  0.8426  2.0868
 2748TIP3    H229804   1.655   2.443   7.435  0.3575 -0.2138  1.5698
 2749TIP3   OH229805   1.219   5.500   0.085 -0.3848  0.3953  0.4682
 2749TIP3    H129806   1.249   5.508   0.175  1.2413 -1.4602  0.1569
 2749TIP3    H229807   1.148   5.435   0.090 -0.1297  0.1104  0.3768
 2750TIP3   OH229808   3.801   3.330   7.428 -0.1803  0.4136  0.3076
 2750TIP3    H129809   3.843   3.397   7.481  0.2323 -0.3976  1.0363
 2750TIP3    H229810   3.793   3.254   7.487 -0.2975 -0.2961 -0.5952
 2751TIP3   OH229811   4.785   6.247   6.618 -0.0068  0.0402 -0.2084
 2751TIP3    H129812   4.821   6.196   6.545 -2.2838  0.2280 -1.5659
 2751TIP3    H229813   4.716   6.191   6.655  1.4412 -0.2727  2.2179
 2752TIP3   OH229814   4.295   1.288   0.819 -0.1176  0.0041  0.7544
 2752TIP3    H129815   4.238   1.299   0.894 -0.1100  0.9547  0.6279
 2752TIP3    H229816   4.383   1.279   0.857 -0.3071 -1.2703  0.9368
 2753TIP3   OH229817   1.355   2.726   0.960 -0.1212 -0.1697  0.5726
 2753TIP3    H129818   1.405   2.676   1.025  1.0526  1.0935  0.7077
 2753TIP3    H229819   1.283   2.669   0.935  2.0572 -2.5946 -0.5433
 2754TIP3   OH229820   2.577   2.425   7.658 -0.2014 -0.0220 -0.1023
 2754TIP3    H129821   2.564   2.517   7.681 -0.8144  0.0180 -0.5787
 2754TIP3    H229822   2.527   2.413   7.578 -1.4341 -1.1695  0.7905
 2755TIP3   OH229823   2.492   0.616   7.042 -0.3061 -0.2032 -0.2450
 2755TIP3    H129824   2.532   0.617   7.129  0.1033 -2.4371 -0.3543
 2755TIP3    H229825   2.565   0.608   6.981 -0.6521  0.3162 -0.7402
 2756TIP3   OH229826   4.512   0.803   6.377  0.3264  0.1391  0.5604
 2756TIP3    H129827   4.493   0.887   6.334 -0.2223  0.0170  0.5498
 2756TIP3    H229828   4.606   0.804   6.393  0.2418  0.9877  1.0443
 2757TIP3   OH229829   3.307   3.504   1.361 -0.1896  0.2788  0.2782
 2757TIP3    H129830   3.228   3.466   1.400 -0.9072 -0.8151 -2.0595
 2757TIP3    H229831   3.273   3.567   1.297  0.9123  1.4986  0.8515
 2758TIP3   OH229832   4.405   0.190   1.312  0.3230  0.2258  0.1089
 2758TIP3    H129833   4.415   0.123   1.380 -4.4222 -1.0707 -0.1147
 2758TIP3    H229834   4.394   0.272   1.359 -0.1349 -0.2139  0.7756
 2759TIP3   OH229835   2.121   5.216   0.501  0.0776  0.5314  0.1684
 2759TIP3    H129836   2.126   5.310   0.488  1.2486  0.4571 -0.0081
 2759TIP3    H229837   2.043   5.189   0.452 -0.2200  1.3855  0.1525
 2760TIP3   OH229838   5.048   4.189   7.085  0.0925 -0.3449 -0.2166
 2760TIP3    H129839   5.070   4.153   6.998 -0.0684 -0.4795 -0.2022
 2760TIP3    H229840   4.953   4.198   7.084  0.2502  1.5435 -0.7802
 2761TIP3   OH229841   0.334   4.625   6.128 -0.2284 -0.5863 -0.8164
 2761TIP3    H129842   0.238   4.623   6.122 -0.3089 -0.2343  0.1504
 2761TIP3    H229843   0.364   4.582   6.048 -1.1817 -0.1946 -1.3974
 2762TIP3   OH229844   5.737   5.225   1.073  0.2926  0.4881  0.2954
 2762TIP3    H129845   5.683   5.147   1.063  1.0319  0.1495 -1.2721
 2762TIP3    H229846   5.674   5.298   1.072 -0.2991 -0.0050  0.6470
 2763TIP3   OH229847   2.739   0.077   1.876  0.0622 -0.0772  0.0593
 2763TIP3    H129848   2.706   0.164   1.854 -3.1701  0.0519  4.3090
 2763TIP3    H229849   2.667   0.018   1.857  1.1535 -1.4340 -0.0183
 2764TIP3   OH229850   5.781   5.143   7.176 -0.3612 -0.0349 -0.8767
 2764TIP3    H129851   5.715   5.126   7.243  1.2657  1.4473  1.2571
 2764TIP3    H229852   5.825   5.059   7.162 -2.6760 -1.0859 -2.4634
 2765TIP3   OH229853   1.529   0.855   6.755 -0.4607  0.1111  0.0345
 2765TIP3    H129854   1.460   0.903   6.708 -1.3618 -0.4557  0.7510
 2765TIP3    H229855   1.560   0.791   6.691 -0.4634  0.4991 -0.3601
 2766TIP3   OH229856   3.593   6.210   7.743 -0.1194 -0.0982 -0.0922
 2766TIP3    H129857   3.522   6.182   7.800  0.2428 -1.0047 -0.0715
 2766TIP3    H229858   3.587   6.153   7.667  0.8607 -0.4957  0.1123
 2767TIP3   OH229859   0.933   1.073   8.227 -0.1761  0.3769 -0.1770
 2767TIP3    H129860   0.891   1.144   8.275 -1.1340  1.2250 -2.1240
 2767TIP3    H229861   0.862   1.035   8.174  0.7712 -0.5866 -0.7906
 2768TIP3   OH229862   6.158   0.343   7.681 -0.1012  0.6935  0.0156
 2768TIP3    H129863   6.241   0.297   7.673 -0.2086  0.6351 -0.8448
 2768TIP3    H229864   6.144   0.351   7.775  0.8358  0.6380  0.1695
 2769TIP3   OH229865   5.192   1.182   1.186  0.0525 -0.5581 -0.0607
 2769TIP3    H129866   5.197   1.088   1.207 -0.8618 -0.7499 -0.6437
 2769TIP3    H229867   5.203   1.226   1.270  1.2713 -1.1519  0.1185
 2770TIP3   OH229868   4.158   5.056   7.451  0.3049  0.2443 -0.4520
 2770TIP3    H129869   4.095   5.028   7.386 -1.8389  3.2429  0.0835
 2770TIP3    H229870   4.130   5.012   7.532 -0.9895  1.2630 -0.2999
 2771TIP3   OH229871   6.498   4.789   0.967 -0.4069 -0.0236  0.2787
 2771TIP3    H129872   6.579   4.838   0.951 -0.1894 -0.6017 -0.4813
 2771TIP3    H229873   6.525   4.717   1.024 -0.6401  0.4926  1.0458
 2772TIP3   OH229874   2.102   2.968   7.025  0.3399  0.5865 -0.2522
 2772TIP3    H129875   2.073   2.989   6.936 -0.3584  0.1860 -0.1182
 2772TIP3    H229876   2.141   3.050   7.056  1.1762  0.5608 -1.1457
 2773TIP3   OH229877   4.871   3.939   1.260  0.2783 -0.1960 -0.3232
 2773TIP3    H129878   4.878   3.894   1.176  1.1410  0.4481 -0.6090
 2773TIP3    H229879   4.777   3.955   1.271  0.1966  0.1688 -1.4175
 2774TIP3   OH229880   2.730   2.790   6.360  0.0547  0.0559  0.5143
 2774TIP3    H129881   2.741   2.877   6.321  3.2417 -0.2648  0.4177
 2774TIP3    H229882   2.810   2.743   6.336 -1.3280 -2.7588  1.0230
 2775TIP3   OH229883   3.831   0.293   7.520 -0.3852 -0.1341  0.2294
 2775TIP3    H129884   3.922   0.309   7.544  0.2595 -2.2352 -0.5684
 2775TIP3    H229885   3.781   0.359   7.569  1.6034  1.6415 -0.0086
 2776TIP3   OH229886   3.066   6.830   0.721  0.7035 -0.2952 -0.2353
 2776TIP3    H129887   3.027   6.868   0.799 -1.2413  0.3431 -1.4383
 2776TIP3    H229888   3.158   6.819   0.742  0.6370  1.8336  1.3844
 2777TIP3   OH229889   6.277   4.022   1.943 -0.4131 -0.1955  0.0651
 2777TIP3    H129890   6.291   3.928   1.955  1.0646  0.1310  1.2841
 2777TIP3    H229891   6.358   4.052   1.901 -1.1143  0.4585 -0.8540
 2778TIP3   OH229892   1.526   2.661   0.066 -0.2704  0.2095 -0.5380
 2778TIP3    H129893   1.526   2.565   0.065  0.7974  0.2026 -0.7214
 2778TIP3    H229894   1.520   2.684   0.158 -0.8025 -0.0270 -0.5103
 2779TIP3   OH229895   1.016   5.694   7.099 -0.2749  0.1522  0.8228
 2779TIP3    H129896   1.111   5.681   7.101 -0.2416 -0.0471 -0.9029
 2779TIP3    H229897   0.979   5.607   7.113 -0.1630 -0.1101 -0.4168
 2780TIP3   OH229898   4.926   2.266   1.897  0.0859  0.0755  0.3304
 2780TIP3    H129899   4.855   2.228   1.845  0.8085 -1.1132  0.1690
 2780TIP3    H229900   4.899   2.255   1.988 -0.5773  0.9476  0.2501
 2781TIP3   OH229901   5.041   4.616   7.905  0.1408  0.0660  0.2172
 2781TIP3    H129902   5.050   4.660   7.989  0.7058  1.3363 -0.4860
 2781TIP3    H229903   5.097   4.539   7.912  2.3334  1.5561  0.1188
 2782TIP3   OH229904   1.823   1.641   1.062 -0.0449 -0.1520 -0.3592
 2782TIP3    H129905   1.905   1.667   1.104 -1.2441  0.9754  1.4527
 2782TIP3    H229906   1.785   1.723   1.032 -0.3306 -0.7113 -1.5934
 2783TIP3   OH229907   0.293   0.289   8.391  0.4087 -0.3452 -0.1113
 2783TIP3    H129908   0.306   0.205   8.435  1.3168 -0.4301 -0.5169
 2783TIP3    H229909   0.305   0.270   8.298  2.6219  0.5761 -0.0689
 2784TIP3   OH229910   5.617   1.149   2.314 -0.4220 -0.4965 -0.0974
 2784TIP3    H129911   5.685   1.193   2.263 -2.2800  0.8840 -1.5070
 2784TIP3    H229912   5.651   1.061   2.328  1.6068  0.1254 -0.8159
 2785TIP3   OH229913   1.319   5.946   0.766  0.1371  0.2373  0.2526
 2785TIP3    H129914   1.315   5.869   0.824  1.3372  0.5521  0.7891
 2785TIP3    H229915   1.270   5.919   0.688  1.5506 -1.5692 -0.1008
 2786TIP3   OH229916   4.262   3.234   1.035  0.5578  0.0582  0.0983
 2786TIP3    H129917   4.240   3.312   1.087 -0.0414 -0.2857  0.3685
 2786TIP3    H229918   4.315   3.267   0.963 -1.4942  1.0426 -1.0436
 2787TIP3   OH229919   3.362   1.787   1.487 -0.1190  0.5068  0.4314
 2787TIP3    H129920   3.291   1.751   1.434  0.7886 -0.0698 -0.4388
 2787TIP3    H229921   3.414   1.710   1.512 -1.3727  0.5289  3.5584
 2788TIP3   OH229922   4.606   0.888   1.688  0.0369  0.4379  0.6115
 2788TIP3    H129923   4.656   0.925   1.616 -0.5711 -1.4887 -0.8826
 2788TIP3    H229924   4.520   0.929   1.681 -0.4765 -0.7642 -0.7278
 2789TIP3   OH229925   4.015   2.338   8.194 -1.1353 -0.7401 -0.0713
 2789TIP3    H129926   3.945   2.280   8.223 -0.3170 -1.1345  1.1911
 2789TIP3    H229927   4.094   2.284   8.197 -0.4276  0.2847  0.7172
 2790TIP3   OH229928   5.324   0.727   0.618  0.2409 -0.1445  0.1357
 2790TIP3    H129929   5.237   0.689   0.608  1.0475 -1.5653 -2.3986
 2790TIP3    H229930   5.316   0.815   0.582 -0.2460 -0.1332  0.2666
 2791TIP3   OH229931   1.026   0.274   0.159  0.2589  0.1407 -0.2969
 2791TIP3    H129932   1.012   0.179   0.156 -1.0187  0.3091 -0.2474
 2791TIP3    H229933   1.118   0.284   0.184  0.3850 -1.0838 -0.2050
 2792TIP3   OH229934   1.553   0.506   0.830  0.0130 -0.0562 -0.1089
 2792TIP3    H129935   1.473   0.479   0.786  0.3168  0.5129 -1.0297
 2792TIP3    H229936   1.551   0.602   0.828 -0.2223 -0.0046  1.5950
 2793TIP3   OH229937   6.813   1.503   7.829  0.0273  0.4363 -0.3739
 2793TIP3    H129938   6.835   1.452   7.907 -1.4790 -2.0715 -1.4363
 2793TIP3    H229939   6.763   1.578   7.862  0.6050  0.1827  1.1481
 2794TIP3   OH229940   2.538   6.093   2.010  0.6157  0.1286 -0.5706
 2794TIP3    H129941   2.475   6.068   2.078  2.4170 -3.1631  0.0826
 2794TIP3    H229942   2.583   6.169   2.047  1.0783 -1.1499  1.7158
 2795TIP3   OH229943   1.967   2.814   8.327 -0.2618  0.4774  0.5347
 2795TIP3    H129944   1.893   2.840   8.382 -1.0974  1.1361 -0.8384
 2795TIP3    H229945   1.926   2.783   8.246  0.9623  0.7978 -0.2264
 2796TIP3   OH229946   3.195   2.509   7.371 -0.0873 -0.1332 -0.0908
 2796TIP3    H129947   3.124   2.451   7.341 -0.6457  0.4447  0.0887
 2796TIP3    H229948   3.183   2.589   7.321  0.0043  0.2297  0.4579
 2797TIP3   OH229949   1.551   1.604   1.528 -0.3134 -0.2233  0.2894
 2797TIP3    H129950   1.500   1.674   1.569  0.8047  0.8191 -0.0348
 2797TIP3    H229951   1.580   1.550   1.602  0.5757  0.8915  0.8089
 2798TIP3   OH229952   4.511   3.048   1.240 -0.5339  0.3457 -0.4277
 2798TIP3    H129953   4.421   3.064   1.266  0.2372 -0.3621  3.1903
 2798TIP3    H229954   4.550   3.135   1.233 -0.6477  0.6145  1.7249
 2799TIP3   OH229955   0.277   0.340   1.892 -0.2207 -0.3304  0.2659
 2799TIP3    H129956   0.189   0.370   1.868 -0.0728  1.9144  2.0849
 2799TIP3    H229957   0.335   0.386   1.831 -0.1842  0.5640  0.9499
 2800TIP3   OH229958   6.676   0.427   7.780  0.6823  0.2850 -0.4233
 2800TIP3    H129959   6.725   0.434   7.862  1.8012 -0.8912 -0.9619
 2800TIP3    H229960   6.693   0.510   7.735  0.7125  0.6076  0.1657
 2801TIP3   OH229961   5.960   5.632   0.925  0.0239 -0.2819 -0.7876
 2801TIP3    H129962   6.017   5.705   0.948 -1.4578 -0.0600  2.8071
 2801TIP3    H229963   6.008   5.554   0.953  0.3953 -0.4919 -1.9563
 2802TIP3   OH229964   6.224   4.916   7.885 -0.4759  0.0772 -0.5542
 2802TIP3    H129965   6.136   4.893   7.914 -0.0293 -0.1641  0.6857
 2802TIP3    H229966   6.257   4.974   7.953  0.0772  0.7338 -1.3587
 2803TIP3   OH229967   1.014   6.741   6.763  0.0433 -0.1687 -0.4497
 2803TIP3    H129968   0.968   6.818   6.730  1.1079 -0.3667 -2.5959
 2803TIP3    H229969   1.030   6.688   6.686  1.1309 -1.5723  0.6880
 2804TIP3   OH229970   0.311   6.483   8.358 -0.0493 -0.4453 -0.4872
 2804TIP3    H129971   0.306   6.567   8.404  1.5379  0.5849 -2.0322
 2804TIP3    H229972   0.279   6.418   8.421  0.7988  1.0210  1.5595
 2805TIP3   OH229973   4.559   1.484   6.163  0.5698 -0.5832  0.0114
 2805TIP3    H129974   4.588   1.567   6.124  0.3275  0.2312  1.4747
 2805TIP3    H229975   4.606   1.479   6.246 -1.8694 -0.2272  1.5018
 2806TIP3   OH229976   5.316   6.590   6.540 -0.8583  0.1567 -0.3385
 2806TIP3    H129977   5.221   6.596   6.528 -0.9212  0.6499  0.3277
 2806TIP3    H229978   5.351   6.661   6.487 -0.9130  0.3769 -0.0845
 2807TIP3   OH229979   0.415   4.502   0.361  0.2424  0.1259  0.0638
 2807TIP3    H129980   0.395   4.567   0.294 -1.8265 -0.5960 -0.0783
 2807TIP3    H229981   0.495   4.460   0.329  0.3150  1.0128 -1.0148
 2808TIP3   OH229982   4.072   6.736   1.600  0.2612  0.0712 -0.4816
 2808TIP3    H129983   4.050   6.779   1.683 -0.9979 -2.6912  0.7479
 2808TIP3    H229984   4.167   6.746   1.592  0.1811  1.8695  0.3744
 2809TIP3   OH229985   5.570   5.804   6.809  0.3775 -0.3050 -0.1294
 2809TIP3    H129986   5.619   5.819   6.727  0.4215  1.1129  0.1361
 2809TIP3    H229987   5.505   5.738   6.786  0.8570 -0.4516 -1.1282
 2810TIP3   OH229988   4.218   5.983   1.189 -0.2259 -0.2696  0.5605
 2810TIP3    H129989   4.156   6.025   1.129 -0.4985 -1.1078  0.2314
 2810TIP3    H229990   4.300   5.979   1.141 -0.2596 -0.3065  0.5057
 2811TIP3   OH229991   6.141   6.263   7.358 -0.5834 -0.0870  0.4595
 2811TIP3    H129992   6.146   6.173   7.326 -1.7253 -0.0787  0.1865
 2811TIP3    H229993   6.067   6.262   7.420  0.9693  0.1155  2.3995
 2812TIP3   OH229994   3.309   6.767   0.476 -0.1685 -0.3103 -0.1755
 2812TIP3    H129995   3.323   6.821   0.554  1.4856 -0.4605 -0.3355
 2812TIP3    H229996   3.374   6.697   0.484 -0.5497 -0.8038 -1.2682
 2813TIP3   OH229997   0.535   4.859   0.864  0.3866 -0.4282 -0.6096
 2813TIP3    H129998   0.520   4.850   0.958  2.1812 -1.6686 -0.3897
 2813TIP3    H229999   0.450   4.841   0.825 -0.2312 -0.6015  0.7445
 2814TIP3   OH230000   6.208   0.083   0.585  0.6337 -0.3224 -0.3761
 2814TIP3    H130001   6.252   0.103   0.502  1.2880  0.2542  0.1011
 2814TIP3    H230002   6.115   0.076   0.562  0.6004  1.3814 -0.8952
 2815TIP3   OH230003   6.194   1.589   1.711  0.1245  0.9900  0.5191
 2815TIP3    H130004   6.268   1.648   1.695  0.1743  0.7157 -0.3107
 2815TIP3    H230005   6.125   1.646   1.745 -0.0932  1.6821 -1.0069
 2816TIP3   OH230006   0.107   1.367   8.330 -0.4023 -0.5878  0.3288
 2816TIP3    H130007   0.169   1.360   8.257 -0.8734 -0.0330 -0.1353
 2816TIP3    H230008   0.035   1.308   8.306 -0.1423 -1.0905  0.7771
 2817TIP3   OH230009   3.846   4.652   0.453  0.6075  0.4260 -0.1271
 2817TIP3    H130010   3.811   4.726   0.502  1.3251  1.4558 -1.1254
 2817TIP3    H230011   3.836   4.577   0.512  1.2270  1.5713  1.4912
 2818TIP3   OH230012   0.866   6.005   1.403 -0.5381 -0.4241 -0.4481
 2818TIP3    H130013   0.828   6.092   1.388  2.3799  0.8371 -1.1993
 2818TIP3    H230014   0.872   5.966   1.316 -0.4228 -0.7429 -0.2988
 2819TIP3   OH230015   0.791   2.162   8.216  0.0209 -0.5823  0.0557
 2819TIP3    H130016   0.756   2.073   8.214  1.2849 -1.1106  0.5531
 2819TIP3    H230017   0.866   2.157   8.275 -0.4589  1.0325  0.8616
 2820TIP3   OH230018   1.896   2.688   8.093 -0.5938 -0.1996  0.4611
 2820TIP3    H130019   1.828   2.700   8.027 -1.0850 -2.1239  0.5363
 2820TIP3    H230020   1.972   2.658   8.044 -0.5646 -0.3992  0.6249
 2821TIP3   OH230021   3.147   1.680   7.859  0.5089 -0.7323  0.0755
 2821TIP3    H130022   3.148   1.643   7.948  0.8688 -0.1363  0.3289
 2821TIP3    H230023   3.057   1.711   7.847  0.9038  0.8852  0.9726
 2822TIP3   OH230024   1.415   0.642   0.019  0.3733  0.0211  0.5331
 2822TIP3    H130025   1.339   0.646  -0.040  0.5908  0.8096  0.2996
 2822TIP3    H230026   1.421   0.730   0.055  2.9955  0.9091 -1.7335
 2823TIP3   OH230027   4.583   6.093   6.720 -0.1973  0.4449  0.3089
 2823TIP3    H130028   4.646   6.053   6.659  1.6238  1.0659  1.6847
 2823TIP3    H230029   4.554   6.021   6.776  0.9252  0.5019  0.9932
 2824TIP3   OH230030   6.255   3.497   1.144  0.4026  0.1675  0.3344
 2824TIP3    H130031   6.232   3.451   1.225  0.5751 -0.7801 -0.1379
 2824TIP3    H230032   6.174   3.543   1.120  0.0806 -0.2531  0.5853
 2825TIP3   OH230033   1.009   6.376   1.031 -0.1358  0.1855  0.1342
 2825TIP3    H130034   0.978   6.292   0.996 -0.8858  0.4264  0.2032
 2825TIP3    H230035   0.958   6.389   1.111 -0.5566  1.0503 -0.2635
 2826TIP3   OH230036   3.733   3.447   1.162 -0.2572  0.2883 -0.4150
 2826TIP3    H130037   3.657   3.434   1.218  1.4892 -1.6480  1.7350
 2826TIP3    H230038   3.748   3.541   1.162 -2.1933  0.6312 -0.3397
 2827TIP3   OH230039   2.440   1.924   7.447  0.3808  0.1581 -0.0654
 2827TIP3    H130040   2.367   1.953   7.500  0.5127 -1.0290  0.7998
 2827TIP3    H230041   2.421   1.957   7.359 -1.8569 -1.2470 -0.1579
 2828TIP3   OH230042   0.046   0.349   8.484  0.7882  0.3142 -0.0119
 2828TIP3    H130043   0.135   0.323   8.459  1.0711  0.5114  0.7511
 2828TIP3    H230044   0.058   0.399   8.565 -0.1280 -0.7969  0.8484
 2829TIP3   OH230045   4.375   1.888   1.710 -0.1613  0.2143 -0.0278
 2829TIP3    H130046   4.301   1.949   1.709 -0.6748 -0.3873 -1.1590
 2829TIP3    H230047   4.452   1.944   1.718 -0.5781  1.1100 -1.7454
 2830TIP3   OH230048   4.185   1.958   7.161  0.8428  0.1876 -0.0393
 2830TIP3    H130049   4.135   1.942   7.241  0.2982  0.2593 -0.3662
 2830TIP3    H230050   4.277   1.950   7.189  0.6710  0.7069  0.6964
 2831TIP3   OH230051   5.082   3.955   6.279 -0.5023 -0.5054 -0.0197
 2831TIP3    H130052   5.164   3.910   6.297 -0.3036  0.3161  1.2754
 2831TIP3    H230053   5.105   4.048   6.272 -1.3520 -0.2079  0.8044
 2832TIP3   OH230054   1.533   5.621   6.469  0.3900 -0.6098  0.2620
 2832TIP3    H130055   1.618   5.663   6.484  1.2013 -1.1815 -2.3184
 2832TIP3    H230056   1.551   5.554   6.403 -2.3347  0.2306 -1.4672
 2833TIP3   OH230057   1.275   1.476   1.117 -0.3573  0.0540  0.5006
 2833TIP3    H130058   1.342   1.449   1.053 -1.7731  1.0552 -1.5138
 2833TIP3    H230059   1.324   1.505   1.193  1.4243 -1.1318 -0.1434
 2834TIP3   OH230060   4.233   4.433   6.939  0.2369  0.2839 -0.2985
 2834TIP3    H130061   4.148   4.426   6.897  0.7943  0.7235 -1.5675
 2834TIP3    H230062   4.256   4.526   6.933  0.4739  0.3006  0.7142
 2835TIP3   OH230063   1.711   5.235   0.638  0.2660 -0.4242 -0.1723
 2835TIP3    H130064   1.678   5.154   0.600 -0.0841  0.8329 -2.7550
 2835TIP3    H230065   1.659   5.247   0.718 -3.4859 -0.1861 -2.3898
 2836TIP3   OH230066   2.687   0.749   0.279  0.2874  0.8671  0.5518
 2836TIP3    H130067   2.678   0.784   0.367 -0.2425 -1.6050  1.5829
 2836TIP3    H230068   2.766   0.791   0.244  0.2026  2.2980  1.9894
 2837TIP3   OH230069   6.625   5.367   6.578 -0.2268  0.1636  0.3404
 2837TIP3    H130070   6.585   5.294   6.532  0.1850  1.5170 -2.3982
 2837TIP3    H230071   6.567   5.441   6.561  0.3721  0.9047  1.3683
 2838TIP3   OH230072   2.944   3.066   1.438  0.9314  0.0284  0.0639
 2838TIP3    H130073   3.006   3.134   1.463  0.1004  0.5705  0.6886
 2838TIP3    H230074   2.858   3.110   1.439  0.4383 -0.9107  0.0475
 2839TIP3   OH230075   1.148   5.116   7.017  0.1557 -0.2493 -0.9920
 2839TIP3    H130076   1.232   5.084   6.985  0.5109 -0.5948  0.2381
 2839TIP3    H230077   1.097   5.037   7.032  0.6415 -0.2242  0.9943
 2840TIP3   OH230078   0.301   6.218   0.955  0.3339 -0.2903  0.5449
 2840TIP3    H130079   0.312   6.303   0.912  0.9420 -0.3054  0.6562
 2840TIP3    H230080   0.207   6.212   0.973 -0.1720 -0.8235 -1.8614
 2841TIP3   OH230081   5.748   4.453   7.975  0.2651  0.1071  0.4362
 2841TIP3    H130082   5.693   4.530   7.986 -1.3543 -0.8766 -0.3089
 2841TIP3    H230083   5.800   4.472   7.897 -1.1733 -0.0891 -0.6194
 2842TIP3   OH230084   3.689   3.919   1.291 -0.4885 -0.4247 -0.2725
 2842TIP3    H130085   3.764   3.949   1.342 -1.4011 -0.5053  1.1578
 2842TIP3    H230086   3.641   3.862   1.350 -1.4410 -0.7613 -1.3290
 2843TIP3   OH230087   0.046   4.910   6.944  0.4436 -0.2356  0.4010
 2843TIP3    H130088  -0.037   4.899   6.897 -1.1451  1.7910  2.4931
 2843TIP3    H230089   0.098   4.834   6.919 -1.3476 -0.6825 -2.3701
 2844TIP3   OH230090   1.961   2.149   1.465 -0.4059  0.1265 -0.4923
 2844TIP3    H130091   1.962   2.090   1.391 -0.9387 -1.2108  0.5303
 2844TIP3    H230092   2.050   2.182   1.471  0.0037 -0.8898 -0.8445
 2845TIP3   OH230093   3.531   5.521   7.746 -0.1694  0.0708  0.1750
 2845TIP3    H130094   3.574   5.594   7.791 -1.7840  1.4633 -0.4236
 2845TIP3    H230095   3.520   5.552   7.656  1.6562 -2.0726 -0.8945
 2846TIP3   OH230096   0.113   2.233   1.670 -0.3782 -0.0635 -0.3977
 2846TIP3    H130097   0.142   2.309   1.621 -0.0685 -1.1432 -1.9844
 2846TIP3    H230098   0.074   2.268   1.750 -0.0080  1.7133 -0.9656
 2847TIP3   OH230099   6.330   6.837   0.266  0.4281 -0.2826  0.5214
 2847TIP3    H130100   6.251   6.868   0.309  0.6824  0.5192  0.4421
 2847TIP3    H230101   6.304   6.758   0.220 -0.0873 -0.5733  1.3064
 2848TIP3   OH230102   2.428   0.398   6.796 -0.4023 -0.0414 -0.0231
 2848TIP3    H130103   2.412   0.371   6.706 -1.1880  1.0715 -0.2353
 2848TIP3    H230104   2.522   0.417   6.799 -0.4934  0.6034 -0.8137
 2849TIP3   OH230105   3.666   3.490   1.454  0.2228 -0.0031 -0.2368
 2849TIP3    H130106   3.662   3.405   1.409  3.9799  0.1333 -1.1499
 2849TIP3    H230107   3.655   3.468   1.546  0.9387 -1.5014 -0.4664
 2850TIP3   OH230108   1.713   5.370   7.434  0.4855  0.3253  0.4713
 2850TIP3    H130109   1.761   5.288   7.419 -0.4921  0.0215 -1.3294
 2850TIP3    H230110   1.760   5.413   7.505  1.4123 -1.4952  1.0322
 2851TIP3   OH230111   2.872   5.364   0.826 -0.3209  0.2731 -0.8234
 2851TIP3    H130112   2.889   5.457   0.810  0.1513  0.3470  0.0260
 2851TIP3    H230113   2.923   5.344   0.904 -0.5708 -0.6597 -0.8892
 2852TIP3   OH230114   4.654   2.989   2.501 -0.2093  0.1844 -0.2931
 2852TIP3    H130115   4.704   2.983   2.582  0.4685 -1.0778 -0.7848
 2852TIP3    H230116   4.687   3.069   2.459  0.1994  0.2678  0.1763
 2853TIP3   OH230117   4.508   4.853   7.081 -0.1250 -0.3916  0.0105
 2853TIP3    H130118   4.518   4.758   7.081 -0.0641 -0.5423  4.0344
 2853TIP3    H230119   4.421   4.868   7.119  0.2877  1.1679  0.4073
 2854TIP3   OH230120   1.836   5.864   7.182  0.8392  0.2134 -0.2882
 2854TIP3    H130121   1.885   5.943   7.204 -0.8522  1.5973 -1.2957
 2854TIP3    H230122   1.777   5.891   7.112 -0.9733 -1.5332  0.4781
 2855TIP3   OH230123   5.989   4.538   1.626  0.2292 -0.6857 -0.0769
 2855TIP3    H130124   6.009   4.445   1.618 -2.2197 -1.5657  2.5583
 2855TIP3    H230125   5.940   4.546   1.708  2.1653  3.2751  0.9719
 2856TIP3   OH230126   0.155   1.853   0.962 -0.3809  0.4607  0.1394
 2856TIP3    H130127   0.215   1.919   0.926 -1.2845  1.4635  0.4010
 2856TIP3    H230128   0.114   1.814   0.884 -0.1714  0.5338 -0.0085
 2857TIP3   OH230129   0.996   1.062   7.554  0.0870 -0.3153 -0.3312
 2857TIP3    H130130   1.049   1.112   7.616 -0.7466 -0.0674  0.1999
 2857TIP3    H230131   1.009   0.971   7.580  0.5171 -0.2782 -0.4192
 2858TIP3   OH230132   1.580   3.145   6.804 -0.1086 -0.4619  0.1526
 2858TIP3    H130133   1.510   3.134   6.740  0.2411  2.0770 -0.8102
 2858TIP3    H230134   1.658   3.160   6.751  0.6214 -0.4917  1.1930
 2859TIP3   OH230135   1.388   5.259   1.717 -0.7014 -0.9622  0.0780
 2859TIP3    H130136   1.402   5.332   1.777 -0.1890  1.6001 -2.9063
 2859TIP3    H230137   1.471   5.210   1.718  0.1251  0.3942 -0.1872
 2860TIP3   OH230138   1.448   3.957   7.623  0.2144  0.0884 -0.8459
 2860TIP3    H130139   1.518   3.894   7.607  1.0399  0.7042  0.1907
 2860TIP3    H230140   1.427   3.992   7.537 -0.0648 -1.3926 -1.3915
 2861TIP3   OH230141   5.249   5.796   0.447  0.0255 -0.0496 -0.0858
 2861TIP3    H130142   5.296   5.725   0.402  0.0224 -1.3831  1.8980
 2861TIP3    H230143   5.168   5.806   0.397 -0.0504 -1.5913 -0.3363
 2862TIP3   OH230144   0.508   6.682   1.605  0.1933  0.0402  0.2903
 2862TIP3    H130145   0.565   6.640   1.670  0.2168 -0.1035  0.1774
 2862TIP3    H230146   0.560   6.682   1.524  1.1596  2.4876  0.8477
 2863TIP3   OH230147   5.710   3.071   8.113  0.0088 -0.0122  0.2949
 2863TIP3    H130148   5.789   3.069   8.167 -0.2290  2.8531  0.9245
 2863TIP3    H230149   5.683   3.163   8.115 -2.5167 -0.6488 -1.1195
 2864TIP3   OH230150   1.800   0.798   5.973  0.3578 -0.6846 -0.2532
 2864TIP3    H130151   1.781   0.880   5.927 -0.2391 -1.4665 -1.4317
 2864TIP3    H230152   1.858   0.750   5.915 -0.0714 -1.5108 -0.0106
 2865TIP3   OH230153   1.169   6.122   1.100 -0.3255  0.8841  0.1910
 2865TIP3    H130154   1.148   6.038   1.141 -1.0628  1.2236  0.5218
 2865TIP3    H230155   1.263   6.132   1.114 -0.0104 -0.3782 -0.7889
 2866TIP3   OH230156   1.049   5.629   1.270 -0.5189 -0.1329  0.1398
 2866TIP3    H130157   1.081   5.673   1.349  0.6138 -0.6336 -0.0104
 2866TIP3    H230158   0.977   5.574   1.301  0.1068 -0.5550  0.8992
 2867TIP3   OH230159   2.601   5.612   1.710 -0.0902  0.4492  0.0814
 2867TIP3    H130160   2.617   5.706   1.718 -0.4684  0.8029 -2.5692
 2867TIP3    H230161   2.667   5.572   1.767 -0.1196  2.2994  1.4889
 2868TIP3   OH230162   5.502   3.717   6.944  0.7539  0.0442 -0.0189
 2868TIP3    H130163   5.504   3.777   7.020 -0.4883 -0.0632  0.1327
 2868TIP3    H230164   5.580   3.739   6.894  0.6293  1.4215  0.3315
 2869TIP3   OH230165   3.859   3.691   8.124 -0.6797  0.1951 -0.0516
 2869TIP3    H130166   3.923   3.648   8.182 -1.2409 -2.4552 -1.2288
 2869TIP3    H230167   3.780   3.699   8.177 -0.7495 -0.8776  0.0414
 2870TIP3   OH230168   2.346   0.730   0.304  0.2281  0.2923 -0.0963
 2870TIP3    H130169   2.379   0.735   0.394  1.6817 -0.6135 -0.5418
 2870TIP3    H230170   2.356   0.638   0.280 -2.3811  0.0079 -0.4158
 2871TIP3   OH230171   0.449   0.323   7.852 -0.3529 -0.3427 -0.2449
 2871TIP3    H130172   0.370   0.307   7.903 -0.9094  0.6818 -0.7580
 2871TIP3    H230173   0.442   0.414   7.824  0.3738 -0.6038 -1.3740
 2872TIP3   OH230174   5.735   2.571   6.962  0.4028 -0.1492 -0.0543
 2872TIP3    H130175   5.763   2.490   7.005  0.1391 -0.0110  0.3739
 2872TIP3    H230176   5.646   2.586   6.994  0.4036  0.2402 -0.2338
 2873TIP3   OH230177   1.482   6.802   0.229 -0.1573  0.2288  0.3631
 2873TIP3    H130178   1.526   6.877   0.269 -1.6868  0.8912  0.9001
 2873TIP3    H230179   1.540   6.773   0.159  0.6176  1.7080  0.3693
 2874TIP3   OH230180   1.495   5.852   1.858 -0.6374 -0.1678  0.0276
 2874TIP3    H130181   1.460   5.821   1.775 -1.6241 -1.4208  0.8562
 2874TIP3    H230182   1.417   5.881   1.906 -0.0516  0.7874  0.4088
 2875TIP3   OH230183   3.223   4.365   8.434  0.6532  0.4955 -0.1902
 2875TIP3    H130184   3.315   4.390   8.434  0.9492 -0.5417  0.3057
 2875TIP3    H230185   3.197   4.372   8.342  0.5164  3.1393 -0.0390
 2876TIP3   OH230186   6.199   4.900   7.101 -0.2822  0.1761 -0.0882
 2876TIP3    H130187   6.280   4.884   7.052 -0.6355  0.3429 -0.7339
 2876TIP3    H230188   6.131   4.857   7.050 -1.1282  2.9139 -1.4460
 2877TIP3   OH230189   6.878   6.205   7.224  0.0039  0.5428  0.3895
 2877TIP3    H130190   6.937   6.141   7.182 -0.6351 -0.1698  0.5631
 2877TIP3    H230191   6.794   6.160   7.229  0.0456  0.5993  2.4473
 2878TIP3   OH230192   4.306   6.376   7.087 -0.0789  0.6388 -0.1669
 2878TIP3    H130193   4.332   6.325   7.010  1.9295 -2.4519  2.3313
 2878TIP3    H230194   4.382   6.432   7.106  0.2829 -0.1276  0.7022
 2879TIP3   OH230195   4.593   5.125   7.550 -0.0456  0.5253 -0.1980
 2879TIP3    H130196   4.526   5.175   7.596 -0.7867 -0.3512 -0.2987
 2879TIP3    H230197   4.658   5.190   7.524 -1.3851  1.5682 -1.0549
 2880TIP3   OH230198   3.404   0.769   7.933  0.0494  0.7600 -0.4565
 2880TIP3    H130199   3.335   0.797   7.993 -0.8679 -0.1243 -1.0644
 2880TIP3    H230200   3.451   0.849   7.911 -2.2418  1.8354 -1.8480
 2881TIP3   OH230201   2.428   6.220   0.385 -0.1037  0.0218 -0.1470
 2881TIP3    H130202   2.433   6.227   0.480  0.4941 -1.6909 -0.0173
 2881TIP3    H230203   2.472   6.298   0.353  1.7544 -0.4943  1.0064
 2882TIP3   OH230204   6.322   3.985   0.380  0.2748  0.4783  0.0669
 2882TIP3    H130205   6.290   3.953   0.296  1.9486 -1.9182  0.2189
 2882TIP3    H230206   6.374   4.063   0.358  1.3315 -0.5553 -1.2637
 2883TIP3   OH230207   6.216   1.253   7.761  0.0253 -0.0607 -0.3593
 2883TIP3    H130208   6.239   1.224   7.850  0.1685 -1.2255 -0.7599
 2883TIP3    H230209   6.244   1.344   7.758  1.0009 -0.3151  0.4594
 2884TIP3   OH230210   2.234   0.829   7.191 -0.3755 -0.2166  0.1814
 2884TIP3    H130211   2.253   0.775   7.267 -0.2335  0.0222  0.3171
 2884TIP3    H230212   2.227   0.767   7.119 -0.5070 -0.4440  0.3865
 2885TIP3   OH230213   5.369   5.554   8.098  0.5715 -0.4888  0.1890
 2885TIP3    H130214   5.320   5.518   8.173 -0.9469 -1.5146 -1.2183
 2885TIP3    H230215   5.392   5.478   8.046  1.6932  0.2039 -0.3595
 2886TIP3   OH230216   6.828   2.513   8.105  0.2563 -0.3341  0.2018
 2886TIP3    H130217   6.788   2.428   8.089 -2.4037  1.0374 -1.1434
 2886TIP3    H230218   6.809   2.563   8.026  0.8689  1.8146  1.3485
 2887TIP3   OH230219   5.908   0.508   0.486  0.6542 -0.3800 -0.0257
 2887TIP3    H130220   5.958   0.488   0.566 -1.3651  0.1492  1.4555
 2887TIP3    H230221   5.939   0.594   0.459  1.0677 -0.3745  0.4514
 2888TIP3   OH230222   2.931   4.981   7.308  0.2724  0.1568  0.7384
 2888TIP3    H130223   2.865   5.017   7.367  1.4908  0.8472  1.7350
 2888TIP3    H230224   2.998   4.945   7.366  1.1275  0.1425 -0.2233
 2889TIP3   OH230225   4.966   4.004   0.057 -0.1693 -0.3310  0.3834
 2889TIP3    H130226   4.946   3.918   0.019 -3.4622  0.4588  0.0338
 2889TIP3    H230227   4.924   4.002   0.143 -0.7676  1.0560  0.1550
 2890TIP3   OH230228   5.473   2.601   7.045  0.1137 -0.3571  0.4711
 2890TIP3    H130229   5.416   2.660   6.995 -1.2197  0.0709  2.3549
 2890TIP3    H230230   5.492   2.649   7.125  2.7494 -0.7334  0.1692
 2891TIP3   OH230231   0.291   4.433   7.420  0.1498 -0.2149  0.3481
 2891TIP3    H130232   0.244   4.379   7.357  0.3989 -0.0412  0.0136
 2891TIP3    H230233   0.345   4.371   7.469 -0.1573 -0.3686  0.4945
 2892TIP3   OH230234   4.212   0.523   2.368 -0.3104  0.4914  0.5714
 2892TIP3    H130235   4.118   0.508   2.378 -0.3335  1.0672  1.2620
 2892TIP3    H230236   4.231   0.598   2.425  0.8389 -0.5741  1.6564
 2893TIP3   OH230237   2.199   6.770   1.957  0.5949  0.5292  0.3931
 2893TIP3    H130238   2.248   6.760   2.039 -1.0482 -2.1499  1.1960
 2893TIP3    H230239   2.124   6.824   1.980 -0.2578 -0.8283  0.9113
 2894TIP3   OH230240   6.497   3.674   6.718 -0.3557  0.0467  0.0741
 2894TIP3    H130241   6.456   3.606   6.772  0.9164 -0.8749 -0.0713
 2894TIP3    H230242   6.476   3.648   6.628 -0.2860  0.1164  0.0377
 2895TIP3   OH230243   6.151   4.892   6.402  0.0957  0.6711  0.3481
 2895TIP3    H130244   6.182   4.981   6.385  1.1033  0.2201 -0.2438
 2895TIP3    H230245   6.220   4.853   6.456 -0.0855  0.0715  0.1468
 2896TIP3   OH230246   4.261   2.617   0.416  0.4291 -0.1109  0.0272
 2896TIP3    H130247   4.175   2.652   0.390  1.6954  2.4094 -1.1867
 2896TIP3    H230248   4.269   2.641   0.508  0.6567  1.6722 -0.4095
 2897TIP3   OH230249   4.173   6.021   8.021 -0.6365  0.0784  0.3104
 2897TIP3    H130250   4.187   6.101   7.971  0.0802 -0.6973 -0.7932
 2897TIP3    H230251   4.103   6.042   8.082 -1.1439  1.2539 -0.6399
 2898TIP3   OH230252   3.368   0.335   1.028 -0.3020  0.0772 -0.0155
 2898TIP3    H130253   3.362   0.240   1.032  0.3062  0.0511  0.6558
 2898TIP3    H230254   3.455   0.355   1.063  0.7663  0.7253 -2.7678
 2899TIP3   OH230255   5.605   5.186   8.506  0.4180 -0.0350  0.3758
 2899TIP3    H130256   5.672   5.129   8.469 -0.9464 -0.3906 -1.7001
 2899TIP3    H230257   5.636   5.275   8.486  0.5133 -0.1814 -0.1531
 2900TIP3   OH230258   2.179   0.328   0.880  0.0360  0.4113 -0.3160
 2900TIP3    H130259   2.146   0.366   0.798 -0.3077  2.0939  0.5699
 2900TIP3    H230260   2.223   0.400   0.924 -1.1621 -0.0292  1.7202
 2901TIP3   OH230261   3.613   5.219   7.710  0.0021 -0.1624 -0.5150
 2901TIP3    H130262   3.706   5.236   7.697  0.0402 -0.4296 -0.6066
 2901TIP3    H230263   3.583   5.290   7.767  0.1043  0.3283 -1.0652
 2902TIP3   OH230264   1.720   3.420   7.449  0.1709 -0.3019 -0.0738
 2902TIP3    H130265   1.806   3.459   7.436  0.7711 -0.7495  2.0774
 2902TIP3    H230266   1.677   3.476   7.514 -1.2189 -0.0547 -1.1462
 2903TIP3   OH230267   4.131   5.458   0.172  0.3148  0.4332 -0.6510
 2903TIP3    H130268   4.189   5.455   0.248  0.0721 -0.3375 -0.4810
 2903TIP3    H230269   4.186   5.488   0.100  0.9767 -0.4220 -0.5204
 2904TIP3   OH230270   0.148   4.652   6.869 -0.6780  0.3822 -0.2285
 2904TIP3    H130271   0.067   4.611   6.836 -0.0929 -1.7295  0.7555
 2904TIP3    H230272   0.218   4.599   6.831  0.2352  1.7175 -0.4493
 2905TIP3   OH230273   3.940   1.232   1.658  0.4124 -0.6324  0.1137
 2905TIP3    H130274   3.902   1.243   1.571 -0.5508  0.6044  0.6373
 2905TIP3    H230275   3.883   1.286   1.715  3.6094  2.3914  0.7983
 2906TIP3   OH230276   4.314   6.539   2.499  0.2237 -0.2261  0.3174
 2906TIP3    H130277   4.294   6.632   2.513 -1.0981 -0.6082  1.1742
 2906TIP3    H230278   4.319   6.530   2.404  0.3401  0.7106  0.2186
 2907TIP3   OH230279   5.672   6.370   1.964  0.0727  0.2319  0.5982
 2907TIP3    H130280   5.650   6.457   1.929  0.4599 -0.3383 -1.1961
 2907TIP3    H230281   5.748   6.343   1.913 -0.0127 -1.1573  1.1620
 2908TIP3   OH230282   0.931   0.534   1.258  0.1973  0.1179 -0.7626
 2908TIP3    H130283   0.987   0.473   1.306 -2.1721 -0.5341  1.3588
 2908TIP3    H230284   0.866   0.479   1.215 -0.8551  1.0133 -0.3660
 2909TIP3   OH230285   6.690   3.111   7.832  0.8434 -0.0434  0.0662
 2909TIP3    H130286   6.645   3.137   7.912 -0.1676 -2.5396  0.3935
 2909TIP3    H230287   6.664   3.177   7.767 -2.7746 -0.9113  0.4157
 2910TIP3   OH230288   0.092   1.587   1.183 -0.3167 -0.1110  0.2746
 2910TIP3    H130289   0.175   1.632   1.166 -0.2036  0.4780  2.1966
 2910TIP3    H230290   0.118   1.503   1.222 -0.6207 -0.2477  0.1853
 2911TIP3   OH230291   6.654   6.618   7.845 -0.2016  0.1080  0.0144
 2911TIP3    H130292   6.664   6.600   7.938 -1.4502 -0.7473 -0.0004
 2911TIP3    H230293   6.714   6.691   7.829 -1.4342  1.6587  1.9238
 2912TIP3   OH230294   5.961   4.342   2.030 -0.2292  0.6348 -0.1813
 2912TIP3    H130295   5.955   4.432   2.000 -0.9444  0.4689 -0.5497
 2912TIP3    H230296   5.891   4.296   1.983 -1.3541  0.3559  1.6595
 2913TIP3   OH230297   1.044   2.929   0.612 -0.0901 -0.0349  0.7348
 2913TIP3    H130298   0.953   2.905   0.630  0.5511 -1.8509  1.8181
 2913TIP3    H230299   1.079   2.958   0.696  0.4788  0.1572  0.4396
 2914TIP3   OH230300   5.519   1.462   7.071 -0.2236  0.0865  0.4008
 2914TIP3    H130301   5.444   1.484   7.127 -0.3533 -1.9086  1.1124
 2914TIP3    H230302   5.493   1.380   7.029  0.5898  0.6479 -1.2562
 2915TIP3   OH230303   4.253   0.635   2.038 -0.0324 -0.0630  0.0799
 2915TIP3    H130304   4.293   0.716   2.071 -1.5806  0.1508  1.5603
 2915TIP3    H230305   4.239   0.582   2.116 -1.5517 -0.6031 -0.5285
 2916TIP3   OH230306   6.726   4.500   7.654 -0.2073 -0.3702  0.1713
 2916TIP3    H130307   6.806   4.463   7.618 -0.3508 -1.0987  0.5776
 2916TIP3    H230308   6.731   4.594   7.634 -0.0425 -0.6678 -1.2486
 2917TIP3   OH230309   1.849   6.366   0.485 -0.0109  0.1017 -0.4408
 2917TIP3    H130310   1.800   6.423   0.544  0.3379  0.2237 -0.2624
 2917TIP3    H230311   1.783   6.308   0.447 -0.2221 -0.0772  0.1781
 2918TIP3   OH230312   1.323   2.445   6.809  0.3397 -0.1726 -0.0173
 2918TIP3    H130313   1.239   2.461   6.768 -0.0644 -0.8873  0.5146
 2918TIP3    H230314   1.321   2.496   6.890  0.0105 -0.9659  0.4869
 2919TIP3   OH230315   1.953   4.014   7.944 -0.3904  0.2251  0.2068
 2919TIP3    H130316   1.872   4.061   7.966 -1.5963 -2.1172  1.0653
 2919TIP3    H230317   1.928   3.955   7.873  1.2346  1.1591 -1.2282
 2920TIP3   OH230318   2.633   4.620   7.816  0.0577  0.1993 -0.3697
 2920TIP3    H130319   2.652   4.557   7.746 -0.7519 -0.4088 -0.0497
 2920TIP3    H230320   2.681   4.587   7.892  0.3838  0.4865 -0.4476
 2921TIP3   OH230321   6.030   5.885   1.713  0.6875 -0.0552 -0.0845
 2921TIP3    H130322   5.994   5.830   1.782  1.0857  0.4945  0.5694
 2921TIP3    H230323   6.125   5.876   1.720  0.7748  0.9169  0.2214
 2922TIP3   OH230324   2.611   5.917   7.664  0.0151 -0.6049  0.5141
 2922TIP3    H130325   2.653   5.840   7.625 -1.7863 -1.3921  0.0142
 2922TIP3    H230326   2.680   5.958   7.716  1.3670 -1.8503 -0.2046
 2923TIP3   OH230327   0.092   4.363   0.756 -0.4008  0.0220 -0.5004
 2923TIP3    H130328   0.172   4.416   0.751  0.1582 -0.6361  1.0973
 2923TIP3    H230329   0.027   4.422   0.795  0.8321 -0.9988  3.5298
 2924TIP3   OH230330   3.017   1.176   1.000 -0.5421  0.4298  0.5580
 2924TIP3    H130331   3.001   1.166   1.094 -3.0096 -1.6475  0.0565
 2924TIP3    H230332   2.956   1.245   0.973 -0.8665  0.0398  0.2831
 2925TIP3   OH230333   5.788   1.727   1.168  0.2845 -0.2000 -0.7141
 2925TIP3    H130334   5.849   1.677   1.113  0.8153  0.8803 -1.1392
 2925TIP3    H230335   5.759   1.799   1.112  0.7789  0.8912  0.3730
 2926TIP3   OH230336   5.037   0.843   0.555  0.2121  0.2657  0.0876
 2926TIP3    H130337   5.051   0.904   0.482  0.3696  0.2383  0.0956
 2926TIP3    H230338   5.077   0.887   0.630  1.4809 -0.4182 -0.1605
 2927TIP3   OH230339   1.321   5.839   7.078 -0.1155 -0.0049 -0.1227
 2927TIP3    H130340   1.312   5.744   7.092  2.1265  0.0047  2.0948
 2927TIP3    H230341   1.415   5.855   7.079 -0.4028  2.6441  3.3832
 2928TIP3   OH230342   5.777   3.609   0.873 -0.3151  0.8665  0.1770
 2928TIP3    H130343   5.806   3.519   0.858 -0.5141  1.1664 -2.6335
 2928TIP3    H230344   5.700   3.618   0.817  1.0842  3.4449 -1.5327
 2929TIP3   OH230345   1.332   4.138   6.888  0.6309 -0.1891 -0.6384
 2929TIP3    H130346   1.264   4.077   6.917 -1.4108  2.4717  0.5947
 2929TIP3    H230347   1.398   4.136   6.957 -1.0053  1.2420  1.0813
 2930TIP3   OH230348   5.065   3.278   0.539  0.0325 -0.0215 -0.3176
 2930TIP3    H130349   5.154   3.260   0.570  0.0713 -0.4979 -0.6917
 2930TIP3    H230350   5.065   3.248   0.448 -0.9438 -1.4760  0.1277
 2931TIP3   OH230351   3.725   2.584   0.743 -0.1259  0.0593 -0.1955
 2931TIP3    H130352   3.787   2.526   0.787  0.6870  0.6556 -0.5324
 2931TIP3    H230353   3.681   2.529   0.678 -2.2312 -1.1563  2.0975
 2932TIP3   OH230354   6.436   1.014   6.233  0.3285 -0.1859 -0.9448
 2932TIP3    H130355   6.405   0.938   6.282  0.2455 -0.0424 -0.7772
 2932TIP3    H230356   6.509   0.980   6.181  2.8557  0.3880  1.9462
 2933TIP3   OH230357   3.931   6.672   7.340 -0.5548  0.5090  0.1059
 2933TIP3    H130358   3.960   6.692   7.429  1.2804  0.4453 -0.4499
 2933TIP3    H230359   3.845   6.632   7.352  0.8481 -2.2448  2.1029
 2934TIP3   OH230360   0.430   2.709   0.759  0.0697  0.5748  0.1260
 2934TIP3    H130361   0.495   2.643   0.735 -1.0838 -0.0302 -1.5038
 2934TIP3    H230362   0.367   2.661   0.813  0.3757  0.8866  0.7646
 2935TIP3   OH230363   6.456   0.966   7.407 -0.1380 -0.1079  0.6232
 2935TIP3    H130364   6.536   1.003   7.444 -1.0583  1.2336  1.3583
 2935TIP3    H230365   6.386   1.026   7.436 -1.2765 -0.6747 -0.8278
 2936TIP3   OH230366   2.216   6.322   2.583  0.0756  0.3629 -0.3896
 2936TIP3    H130367   2.151   6.282   2.526 -0.5435  0.9091 -0.0831
 2936TIP3    H230368   2.225   6.261   2.657  0.1824  0.1152 -0.6062
 2937TIP3   OH230369   3.715   5.690   8.205 -0.4702  0.4378  0.2812
 2937TIP3    H130370   3.708   5.608   8.253 -0.3606  0.5035  0.4101
 2937TIP3    H230371   3.772   5.745   8.258  0.7340  0.0388 -0.5725
 2938TIP3   OH230372   6.182   1.023   6.740 -0.1103 -0.5714 -0.3116
 2938TIP3    H130373   6.189   1.033   6.645  4.0116 -1.3697 -0.3063
 2938TIP3    H230374   6.249   0.958   6.761 -0.2158  0.2968  3.2519
 2939TIP3   OH230375   5.654   0.463   1.141 -0.2582 -0.8163 -0.3150
 2939TIP3    H130376   5.702   0.506   1.070 -0.8409 -0.5011 -0.5247
 2939TIP3    H230377   5.593   0.530   1.173  1.4437 -0.2213  1.9395
 2940TIP3   OH230378   0.681   0.539   7.110  0.5763 -0.3852 -0.3510
 2940TIP3    H130379   0.678   0.544   7.205 -0.1798 -0.1316 -0.3828
 2940TIP3    H230380   0.608   0.481   7.087  1.0721 -0.8602 -0.7456
 2941TIP3   OH230381   0.099   2.132   8.214 -0.1134 -0.1966  0.1562
 2941TIP3    H130382   0.042   2.113   8.139 -0.1801  0.8310 -0.0736
 2941TIP3    H230383   0.044   2.182   8.274  0.5108  0.7752 -0.0483
 2942TIP3   OH230384   4.137   6.336   2.423 -0.1623  0.0290 -0.5491
 2942TIP3    H130385   4.086   6.417   2.428 -1.0560 -0.5359 -0.2518
 2942TIP3    H230386   4.215   6.354   2.475 -1.0673  0.2071  0.8152
 2943TIP3   OH230387   5.297   2.045   7.753  0.2764  0.1876 -0.0606
 2943TIP3    H130388   5.291   2.055   7.848 -0.3209 -0.2259 -0.0471
 2943TIP3    H230389   5.218   1.997   7.729  0.0083  1.0194 -0.8794
 2944TIP3   OH230390   4.223   6.627   7.415 -0.7306 -0.2030  0.2766
 2944TIP3    H130391   4.261   6.552   7.462 -0.9769 -1.2115 -1.0884
 2944TIP3    H230392   4.141   6.594   7.378  0.5731 -0.2336 -2.8942
 2945TIP3   OH230393   2.445   6.827   6.622 -0.0989 -0.3306 -0.0199
 2945TIP3    H130394   2.383   6.757   6.602  0.3965 -0.7329 -0.1742
 2945TIP3    H230395   2.527   6.799   6.580  0.7310 -0.7634  1.8260
 2946TIP3   OH230396   6.538   5.620   6.512  0.0808  0.9186  0.1313
 2946TIP3    H130397   6.447   5.592   6.526  0.4844 -0.9036 -0.6519
 2946TIP3    H230398   6.541   5.709   6.548 -1.7710  0.6787  1.0068
 2947TIP3   OH230399   5.217   4.370   7.571 -0.0681 -0.0837 -0.4712
 2947TIP3    H130400   5.210   4.456   7.612  0.2802 -0.2993  0.0503
 2947TIP3    H230401   5.145   4.368   7.507  0.1488  0.7274 -0.7472
 2948TIP3   OH230402   1.397   1.240   0.074  0.2467 -0.1946  0.2951
 2948TIP3    H130403   1.375   1.298   0.147  1.1780  0.1028  0.3555
 2948TIP3    H230404   1.412   1.155   0.115 -1.0654 -0.4932  0.2142
 2949TIP3   OH230405   6.699   2.668   7.230 -0.6477 -0.5522 -0.3174
 2949TIP3    H130406   6.685   2.586   7.278 -0.5534 -0.3441  0.0695
 2949TIP3    H230407   6.761   2.645   7.161 -1.0794 -0.9402 -0.5825
 2950TIP3   OH230408   4.727   5.446   1.560 -0.2864  0.2413  0.3770
 2950TIP3    H130409   4.643   5.401   1.574 -0.2076  0.0345  0.1731
 2950TIP3    H230410   4.780   5.420   1.636 -0.1155 -0.2973  0.0755
 2951TIP3   OH230411   0.986   3.618   1.311 -0.2779  0.4872 -0.1536
 2951TIP3    H130412   0.970   3.537   1.262 -1.3809 -0.1919  1.2517
 2951TIP3    H230413   1.031   3.589   1.390  1.9274  1.6255 -0.9133
 2952TIP3   OH230414   5.317   0.099   7.514 -0.2012  0.3513 -0.7405
 2952TIP3    H130415   5.316   0.007   7.541 -1.1943  0.5342 -0.0902
 2952TIP3    H230416   5.383   0.139   7.571  0.5335 -0.0172 -1.3044
 2953TIP3   OH230417   6.741   3.169   6.584  0.5915  0.2310 -0.1986
 2953TIP3    H130418   6.654   3.134   6.566  0.8310 -0.0082 -0.8985
 2953TIP3    H230419   6.789   3.159   6.502  2.4017 -2.8999  1.0539
 2954TIP3   OH230420   4.144   4.680   7.633  0.5717 -0.4111  0.0228
 2954TIP3    H130421   4.207   4.661   7.564  2.6072  0.3506  1.5773
 2954TIP3    H230422   4.148   4.604   7.692  2.4869  0.9597  1.7961
 2955TIP3   OH230423   6.481   1.626   7.343  0.0013  0.5769 -0.1918
 2955TIP3    H130424   6.484   1.628   7.438  0.1505  3.7853 -0.1367
 2955TIP3    H230425   6.392   1.600   7.322  0.6774 -2.8462  0.6608
 2956TIP3   OH230426   3.525   1.730   6.998 -0.1833 -0.6200  0.2600
 2956TIP3    H130427   3.446   1.708   6.948 -0.8616  1.6649  0.2479
 2956TIP3    H230428   3.571   1.794   6.944 -0.2024  0.8379  1.9088
 2957TIP3   OH230429   0.573   4.221   0.746  0.2564  0.1410 -0.2213
 2957TIP3    H130430   0.491   4.210   0.794 -0.2201  0.2699 -0.9926
 2957TIP3    H230431   0.547   4.226   0.654  1.3623 -2.7352 -0.7760
 2958TIP3   OH230432   1.169   0.090   6.912  0.0584 -0.3447  0.0074
 2958TIP3    H130433   1.170   0.042   6.829  0.8570  0.6022 -0.5581
 2958TIP3    H230434   1.088   0.142   6.909  0.4582  0.2759 -0.5569
 2959TIP3   OH230435   4.842   0.117   0.538  0.4473 -0.0546 -0.6905
 2959TIP3    H130436   4.910   0.087   0.477  1.5497  0.4347  0.2369
 2959TIP3    H230437   4.763   0.071   0.512  1.3245 -1.2526 -1.3357
 2960TIP3   OH230438   2.998   4.152   8.320  0.3585 -0.3406  0.0184
 2960TIP3    H130439   3.059   4.079   8.316  1.8897  0.8084  1.0802
 2960TIP3    H230440   3.013   4.201   8.239  0.8968 -0.0226  0.3105
 2961TIP3   OH230441   1.456   0.459   5.828  0.5153  0.8085 -0.5568
 2961TIP3    H130442   1.508   0.534   5.857 -1.1200  1.6266  0.4238
 2961TIP3    H230443   1.404   0.435   5.905 -0.7487  0.2177 -1.5721
 2962TIP3   OH230444   0.197   6.651   6.427  0.0932  0.2300 -0.4429
 2962TIP3    H130445   0.222   6.666   6.518  0.0020  2.2897 -0.7212
 2962TIP3    H230446   0.145   6.571   6.430 -0.7994  0.8208  1.4903
 2963TIP3   OH230447   1.267   2.551   0.091  0.2801 -0.9349  0.0586
 2963TIP3    H130448   1.179   2.573   0.060  1.1214  0.0312 -1.8092
 2963TIP3    H230449   1.284   2.613   0.162  0.0162 -0.1019 -0.5877
 2964TIP3   OH230450   6.896   0.934   0.796  0.0180 -0.0368 -0.2555
 2964TIP3    H130451   6.849   0.854   0.774 -0.1194 -0.2260  0.7005
 2964TIP3    H230452   6.830   0.992   0.834  0.3138  0.1436 -0.0059
 2965TIP3   OH230453   3.480   6.141   7.280 -0.1144  0.2369 -0.0499
 2965TIP3    H130454   3.464   6.182   7.195  0.6911  1.7594  0.4819
 2965TIP3    H230455   3.516   6.212   7.334  1.9943 -1.3120  0.7381
 2966TIP3   OH230456   5.204   6.619   0.692 -0.4702 -0.2401  0.3835
 2966TIP3    H130457   5.126   6.589   0.645  0.3197 -1.7991 -0.0008
 2966TIP3    H230458   5.225   6.548   0.752  0.6630  0.1485  0.4673
 2967TIP3   OH230459   4.189   0.776   0.330  0.5238  0.1798 -0.3655
 2967TIP3    H130460   4.194   0.798   0.423  1.3393  1.1188 -0.6075
 2967TIP3    H230461   4.102   0.804   0.303  0.3865  0.1616  0.0504
 2968TIP3   OH230462   0.014   6.759   0.523  0.5183 -0.9006 -0.2877
 2968TIP3    H130463   0.106   6.780   0.506 -0.0962  1.7873 -0.7487
 2968TIP3    H230464  -0.026   6.755   0.437 -0.3329  1.0261 -0.0383
 2969TIP3   OH230465   2.242   5.718   0.708 -0.4599 -0.1116  0.8276
 2969TIP3    H130466   2.274   5.682   0.790 -0.6781  1.1059  1.4781
 2969TIP3    H230467   2.320   5.736   0.657 -0.2629  0.1045  1.2017
 2970TIP3   OH230468   5.620   0.336   6.529 -0.1031 -0.1958 -0.0927
 2970TIP3    H130469   5.559   0.387   6.582 -1.9069 -1.1187 -1.1756
 2970TIP3    H230470   5.682   0.298   6.592 -0.2804  1.2116  0.9783
 2971TIP3   OH230471   6.125   2.057   7.820  0.5306  0.2074  0.9950
 2971TIP3    H130472   6.097   2.144   7.792 -0.3220  0.1602  1.6649
 2971TIP3    H230473   6.084   1.997   7.757 -0.0726  0.2002  1.3948
 2972TIP3   OH230474   5.070   2.827   1.393  0.3210 -0.2364  0.3323
 2972TIP3    H130475   5.026   2.893   1.339 -1.1923 -0.9243  0.6655
 2972TIP3    H230476   5.084   2.870   1.477 -1.8200 -0.6513  0.9823
 2973TIP3   OH230477   1.333   4.802   7.371  0.1618  0.3179 -0.1778
 2973TIP3    H130478   1.289   4.745   7.433  0.9658 -0.0412  0.0724
 2973TIP3    H230479   1.274   4.806   7.296 -0.2776 -0.1787  0.1381
 2974TIP3   OH230480   4.638   2.403   0.328  0.6847  0.7806  0.1029
 2974TIP3    H130481   4.583   2.354   0.268  0.4818  0.9305  0.1673
 2974TIP3    H230482   4.632   2.494   0.298  1.9634  0.6208 -0.7258
 2975TIP3   OH230483   1.555   5.636   2.055  0.0592  0.0819 -0.3326
 2975TIP3    H130484   1.470   5.674   2.032 -0.7050 -1.4237 -0.0900
 2975TIP3    H230485   1.608   5.711   2.081 -1.1771  1.0614 -0.5448
 2976TIP3   OH230486   5.211   0.822   7.305  0.3875 -0.6243  0.1615
 2976TIP3    H130487   5.163   0.886   7.357  1.5280  0.3556  0.0501
 2976TIP3    H230488   5.149   0.795   7.237 -0.6332 -0.8464  1.1407
 2977TIP3   OH230489   1.456   2.366   0.047 -0.5974 -0.1492 -0.1647
 2977TIP3    H130490   1.386   2.425   0.076  0.1200  0.5774  0.1203
 2977TIP3    H230491   1.420   2.323  -0.030 -0.9629  1.0151 -0.6604
 2978TIP3   OH230492   1.591   1.618   6.825  0.4217  0.0671 -0.4865
 2978TIP3    H130493   1.609   1.711   6.834 -0.7347  0.3565 -0.9753
 2978TIP3    H230494   1.506   1.614   6.782 -0.1245 -1.2139  0.6416
 2979TIP3   OH230495   4.678   5.840   1.389 -0.1503 -0.3391  0.3177
 2979TIP3    H130496   4.739   5.872   1.323  1.6373 -1.2712  1.4503
 2979TIP3    H230497   4.626   5.774   1.344  0.6246 -0.5286 -0.3116
 2980TIP3   OH230498   5.558   3.182   0.257  0.3955  0.7133 -0.0616
 2980TIP3    H130499   5.511   3.111   0.213  0.2213  1.4295 -1.0679
 2980TIP3    H230500   5.548   3.163   0.350  1.5921 -1.3944 -0.2980
 2981TIP3   OH230501   3.861   0.154   1.408 -0.0096  0.1298  0.2798
 2981TIP3    H130502   3.943   0.145   1.360 -0.7197  1.1824 -1.2264
 2981TIP3    H230503   3.844   0.067   1.444  1.3374 -0.3097 -0.0826
 2982TIP3   OH230504   1.424   1.985   7.451  1.1884 -0.5861 -0.0445
 2982TIP3    H130505   1.359   2.055   7.449  0.6280 -1.0990 -0.3126
 2982TIP3    H230506   1.488   2.008   7.384 -0.4248 -1.6477 -2.0863
 2983TIP3   OH230507   1.876   2.435   6.117 -0.1675  0.0801 -0.7386
 2983TIP3    H130508   1.845   2.515   6.159  2.3522 -0.2874  2.1422
 2983TIP3    H230509   1.800   2.402   6.069 -1.4137  3.9022 -1.7109
 2984TIP3   OH230510   2.795   0.064   0.626  0.2601 -0.3848  0.1220
 2984TIP3    H130511   2.887   0.071   0.652  0.1087  0.6843  0.4566
 2984TIP3    H230512   2.794  -0.001   0.556  1.0638 -1.4099  1.0444
 2985TIP3   OH230513   6.642   1.727   7.896 -0.3779 -0.2831  0.6420
 2985TIP3    H130514   6.720   1.737   7.950 -0.9854  2.5764  1.1563
 2985TIP3    H230515   6.574   1.776   7.942 -1.2497  1.2432 -2.0525
 2986TIP3   OH230516   1.165   2.067   6.463  0.1570 -0.7845 -0.3415
 2986TIP3    H130517   1.219   2.145   6.449 -0.3182 -0.5973 -1.1708
 2986TIP3    H230518   1.214   2.016   6.527  0.1171  0.5473  0.8053
 2987TIP3   OH230519   2.540   4.386   7.429  0.1613 -0.5786 -0.0955
 2987TIP3    H130520   2.524   4.310   7.484  0.4585 -0.1797  0.5650
 2987TIP3    H230521   2.506   4.362   7.343  0.3855 -1.5064  0.0652
 2988TIP3   OH230522   0.813   2.504   1.276  0.1807 -0.1877 -0.0430
 2988TIP3    H130523   0.753   2.458   1.335 -1.6263 -1.8710 -2.9617
 2988TIP3    H230524   0.807   2.596   1.302  0.2790 -0.9036  2.9543
 2989TIP3   OH230525   5.160   2.738   0.141  0.5205 -0.7078  0.1576
 2989TIP3    H130526   5.209   2.665   0.178  1.2653 -0.3926 -0.1865
 2989TIP3    H230527   5.207   2.761   0.061  0.6139  0.4847  0.5228
 2990TIP3   OH230528   4.365   4.180   1.242  0.4607 -0.1778  0.1925
 2990TIP3    H130529   4.368   4.207   1.151  0.5181 -1.8166 -0.3277
 2990TIP3    H230530   4.448   4.211   1.280  0.7875 -0.1749 -0.5178
 2991TIP3   OH230531   3.526   1.898   1.756 -0.1990  0.3198  0.9411
 2991TIP3    H130532   3.560   1.957   1.823 -2.7627  1.8264  1.0577
 2991TIP3    H230533   3.474   1.954   1.699  1.9095 -0.8655 -2.4692
 2992TIP3   OH230534   6.792   0.598   0.153 -0.0562 -0.0072 -0.1877
 2992TIP3    H130535   6.730   0.660   0.191  1.0159  0.7118  0.4499
 2992TIP3    H230536   6.845   0.569   0.228  1.6925  0.9503 -1.0030
 2993TIP3   OH230537   0.424   0.427   6.955  0.2106 -0.0678  0.5455
 2993TIP3    H130538   0.361   0.356   6.942 -1.6223  1.8307 -1.9949
 2993TIP3    H230539   0.375   0.495   7.000  1.6629  0.0346  2.0824
 2994TIP3   OH230540   1.375   0.443   0.559  0.2571  0.2164  0.0760
 2994TIP3    H130541   1.352   0.354   0.532  1.2642 -0.1291  0.3043
 2994TIP3    H230542   1.425   0.479   0.486  3.5680 -0.9543  1.5244
 2995TIP3   OH230543   0.989   1.838   0.835  0.2167 -0.1039 -0.1077
 2995TIP3    H130544   0.911   1.878   0.874 -0.1941 -0.9490 -0.0528
 2995TIP3    H230545   1.004   1.759   0.887  1.7318  0.5787  0.5582
 2996TIP3   OH230546   1.209   6.095   7.896  0.1422  0.0963 -0.0194
 2996TIP3    H130547   1.219   6.186   7.867 -0.1091 -0.3378 -1.5578
 2996TIP3    H230548   1.296   6.057   7.885  0.2053  0.0948  0.4592
 2997TIP3   OH230549   3.081   0.534   7.977  0.0295  0.2083 -0.0223
 2997TIP3    H130550   3.087   0.593   8.052 -0.1776 -0.8465  0.8580
 2997TIP3    H230551   2.997   0.554   7.937 -0.0951  0.4274  0.3403
 2998TIP3   OH230552   2.316   0.229   6.969 -0.3444  0.7715  0.3023
 2998TIP3    H130553   2.336   0.297   6.903  0.0759  0.6823  0.3324
 2998TIP3    H230554   2.388   0.167   6.961 -1.1608 -0.1201 -0.3015
 2999TIP3   OH230555   2.406   5.201   7.335 -0.5712 -0.6511 -0.1339
 2999TIP3    H130556   2.370   5.241   7.256  0.0713  0.2057 -0.0068
 2999TIP3    H230557   2.353   5.122   7.348 -2.3053  0.4856 -0.0268
 3000TIP3   OH230558   4.409   6.267   1.377 -0.0173  0.2640 -0.3617
 3000TIP3    H130559   4.349   6.193   1.387 -1.3337  1.4312  0.6805
 3000TIP3    H230560   4.481   6.247   1.437  0.1740 -0.6700 -0.8855
 3001TIP3   OH230561   5.974   1.935   8.546 -0.5876 -0.2947 -0.7446
 3001TIP3    H130562   5.917   2.000   8.505  0.5279  1.0663 -0.2197
 3001TIP3    H230563   6.053   1.984   8.569 -0.9794 -1.0629  2.6391
 3002TIP3   OH230564   6.426   6.558   8.170  0.6184 -0.4369 -0.4947
 3002TIP3    H130565   6.418   6.635   8.113 -0.4998  0.5931  0.9771
 3002TIP3    H230566   6.374   6.490   8.127 -2.6988  1.1799  0.6133
 3003TIP3   OH230567   1.821   0.120   0.097 -0.6007 -0.0038 -0.3617
 3003TIP3    H130568   1.756   0.065   0.054  0.3255 -1.5160  0.0953
 3003TIP3    H230569   1.875   0.059   0.147  1.4887  1.1126 -1.1221
 3004TIP3   OH230570   4.421   6.535   0.570 -0.0147  0.4345 -0.5375
 3004TIP3    H130571   4.482   6.560   0.501 -0.6016  0.5420 -1.0261
 3004TIP3    H230572   4.357   6.479   0.526  0.0713 -0.1774  0.0970
 3005TIP3   OH230573   0.925   6.415   7.601 -0.0181 -0.0738  0.1659
 3005TIP3    H130574   0.944   6.386   7.690  1.6168 -1.9547 -0.7010
 3005TIP3    H230575   0.836   6.383   7.584 -0.8681  1.4585  1.5117
 3006TIP3   OH230576   0.547   3.901   1.750 -0.1372 -0.2283  0.2179
 3006TIP3    H130577   0.479   3.932   1.810 -0.8199  0.6170 -0.9505
 3006TIP3    H230578   0.559   3.973   1.688  0.2787 -1.2181 -0.8932
 3007TIP3   OH230579   4.743   6.350   0.468  0.1495 -0.0191 -0.3329
 3007TIP3    H130580   4.817   6.409   0.452  0.1884  0.0248  0.0141
 3007TIP3    H230581   4.745   6.333   0.562 -0.2727 -0.0321 -0.3247
 3008TIP3   OH230582   5.582   2.722   7.272  0.0218 -0.3283  0.1052
 3008TIP3    H130583   5.525   2.691   7.343 -0.9236  0.0806 -0.4503
 3008TIP3    H230584   5.657   2.663   7.274 -1.4201 -2.3363 -0.5254
 3009TIP3   OH230585   3.447   2.922   1.447  0.1011  0.1752  0.0460
 3009TIP3    H130586   3.352   2.914   1.440  0.0585 -1.2827  1.5668
 3009TIP3    H230587   3.480   2.837   1.417  0.8324  0.2372  0.6389
 3010TIP3   OH230588   0.905   2.060   7.270 -0.4025 -0.0743 -0.1904
 3010TIP3    H130589   0.859   1.976   7.263 -1.9286  0.1990  3.7627
 3010TIP3    H230590   0.848   2.114   7.325  2.3818  2.0945  0.8227
 3011TIP3   OH230591   0.782   0.930   0.778  0.5580  0.7674 -0.5057
 3011TIP3    H130592   0.845   0.947   0.847  1.4559  0.0152 -1.1157
 3011TIP3    H230593   0.791   0.836   0.760 -0.6048  0.6865 -0.7295
 3012TIP3   OH230594   2.563   3.685   0.483 -0.1747 -0.0496 -0.7855
 3012TIP3    H130595   2.595   3.618   0.543 -2.8280 -1.5134 -0.8800
 3012TIP3    H230596   2.639   3.742   0.468  2.0238 -2.6319 -0.2094
 3013TIP3   OH230597   1.394   3.618   8.032 -0.8752  0.0854 -0.0711
 3013TIP3    H130598   1.461   3.558   8.067 -1.2765  0.5068  1.5148
 3013TIP3    H230599   1.412   3.623   7.939  1.0654 -0.1291  0.2556
 3014TIP3   OH230600   2.100   5.366   6.246 -0.0313 -0.2421  0.0311
 3014TIP3    H130601   2.146   5.435   6.295 -1.5810  2.2581 -1.7925
 3014TIP3    H230602   2.151   5.287   6.263  1.2714  1.0781  3.1135
 3015TIP3   OH230603   4.947   2.480   8.093 -0.8515 -0.4422  0.3610
 3015TIP3    H130604   5.028   2.431   8.108  0.1457  0.5721 -1.4072
 3015TIP3    H230605   4.937   2.534   8.172  1.0850  0.5737 -0.0215
 3016TIP3   OH230606   0.869   5.125   1.549  0.7503  0.1515  0.0298
 3016TIP3    H130607   0.919   5.087   1.622  0.8127  0.0425 -0.0689
 3016TIP3    H230608   0.828   5.049   1.507  1.4975  0.1028 -0.6379
 3017TIP3   OH230609   5.574   5.627   7.920  0.2722  0.5014 -0.5745
 3017TIP3    H130610   5.491   5.623   7.968  0.7617  0.3481  0.2861
 3017TIP3    H230611   5.550   5.656   7.832 -0.7930 -0.2995 -0.5701
 3018TIP3   OH230612   0.446   6.063   6.892  0.0071 -0.4298  0.3732
 3018TIP3    H130613   0.434   5.977   6.932  0.3471  0.3757  2.2923
 3018TIP3    H230614   0.478   6.043   6.803  0.0799 -2.2745  0.7654
 3019TIP3   OH230615   4.629   0.756   0.427 -0.5080 -0.4607  0.5134
 3019TIP3    H130616   4.718   0.742   0.396 -0.8481  1.3231 -1.5267
 3019TIP3    H230617   4.640   0.801   0.511  0.5975  1.1452 -0.4226
 3020TIP3   OH230618   0.504   5.553   6.683  0.1799  0.1766  0.1476
 3020TIP3    H130619   0.587   5.507   6.668 -0.0680 -1.1447  2.3987
 3020TIP3    H230620   0.520   5.607   6.760 -0.7582  0.7187 -0.0250
 3021TIP3   OH230621   4.748   5.982   8.202 -0.0629 -0.3225 -0.2918
 3021TIP3    H130622   4.784   5.990   8.290  0.8572  0.1652 -0.6938
 3021TIP3    H230623   4.728   5.889   8.192  1.0768 -0.6142 -0.0297
 3022TIP3   OH230624   2.334   3.640   0.336 -0.1431 -0.2485 -0.5100
 3022TIP3    H130625   2.342   3.695   0.257 -0.3573 -0.7095 -0.8545
 3022TIP3    H230626   2.405   3.671   0.392 -0.1726  0.2918 -0.7546
 3023TIP3   OH230627   2.319   6.522   0.749  0.5735 -0.0468 -0.4074
 3023TIP3    H130628   2.230   6.493   0.727  1.1297 -1.3003 -1.0789
 3023TIP3    H230629   2.313   6.549   0.840 -0.7981  1.1504 -0.8016
 3024TIP3   OH230630   3.572   1.661   8.136 -0.2887 -0.2087  0.0715
 3024TIP3    H130631   3.654   1.698   8.169 -0.5553  2.0329 -1.4884
 3024TIP3    H230632   3.517   1.648   8.214  0.5876  0.8466  0.8884
 3025TIP3   OH230633   3.751   3.961   8.527 -0.1170  0.3416  0.2799
 3025TIP3    H130634   3.705   4.018   8.466 -0.2409 -0.5631 -0.4991
 3025TIP3    H230635   3.720   3.987   8.614 -2.3827 -0.4591 -0.2242
 3026TIP3   OH230636   3.056   5.618   0.560  0.1845  0.0647 -0.1746
 3026TIP3    H130637   2.997   5.620   0.485 -0.0689 -1.5232 -0.0418
 3026TIP3    H230638   3.031   5.695   0.612 -2.2034 -0.8452  0.1781
 3027TIP3   OH230639   3.995   5.357   0.403  0.0797 -0.3075  0.0933
 3027TIP3    H130640   3.906   5.335   0.376 -0.5686  1.1922  0.9030
 3027TIP3    H230641   4.036   5.391   0.323  0.1267 -1.5040 -0.4138
 3028TIP3   OH230642   1.369   4.142   6.204  0.3616  0.5948  0.3551
 3028TIP3    H130643   1.318   4.065   6.178  1.1280 -0.6950  2.4181
 3028TIP3    H230644   1.424   4.160   6.127  1.9760 -2.5507  0.5919
 3029TIP3   OH230645   3.543   2.271   0.509  0.2515  0.2208  0.0825
 3029TIP3    H130646   3.461   2.286   0.555  1.0500  2.8819  0.8034
 3029TIP3    H230647   3.538   2.324   0.430  1.2325  0.4082  0.1234
 3030TIP3   OH230648   0.307   5.698   5.921  0.2613  0.1301  0.0881
 3030TIP3    H130649   0.248   5.624   5.936  2.2688 -1.8802 -1.0960
 3030TIP3    H230650   0.251   5.775   5.925 -2.0798 -1.4829  0.7681
 3031TIP3   OH230651   2.595   1.207   1.402 -0.5562  0.2185  0.3896
 3031TIP3    H130652   2.541   1.152   1.459  1.9260 -2.7161  0.1557
 3031TIP3    H230653   2.639   1.268   1.462  1.2090 -2.1178  1.6247
 3032TIP3   OH230654   0.696   5.816   1.675  0.6335 -0.1708 -0.1062
 3032TIP3    H130655   0.790   5.798   1.677  0.4271 -1.1685  1.4723
 3032TIP3    H230656   0.667   5.807   1.765 -0.9626  0.3377 -0.5275
 3033TIP3   OH230657   4.136   4.935   7.940 -0.3858  0.2953 -0.3678
 3033TIP3    H130658   4.199   4.973   8.001 -3.2219  2.6100  1.3897
 3033TIP3    H230659   4.094   4.865   7.990  0.1609 -0.6750 -1.2315
 3034TIP3   OH230660   3.596   4.750   8.256 -0.1253  0.1595  0.6852
 3034TIP3    H130661   3.592   4.794   8.341 -1.6170 -1.6344  1.5967
 3034TIP3    H230662   3.505   4.744   8.227  0.0730 -1.7466  0.3247
 3035TIP3   OH230663   3.083   0.714   1.489  0.1190  0.3519  0.4450
 3035TIP3    H130664   3.175   0.721   1.464  0.0311 -0.5298 -0.1872
 3035TIP3    H230665   3.035   0.732   1.408 -0.2922  1.5228  0.9353
 3036TIP3   OH230666   6.575   4.621   7.409 -0.2084  0.0930 -0.0255
 3036TIP3    H130667   6.621   4.544   7.376 -0.0887  0.6898 -1.2916
 3036TIP3    H230668   6.594   4.621   7.503  0.5829 -0.8698 -0.1670
 3037TIP3   OH230669   2.328   1.911   2.150  0.2703  0.2529  0.0809
 3037TIP3    H130670   2.396   1.978   2.161  0.1427  0.3168  0.5315
 3037TIP3    H230671   2.300   1.919   2.059 -0.0820  1.1341  0.2581
 3038TIP3   OH230672   2.259   1.375   7.761 -0.2068  0.6379 -0.8849
 3038TIP3    H130673   2.309   1.414   7.833  0.8975  0.9914 -1.8190
 3038TIP3    H230674   2.255   1.281   7.782  0.3441  0.6969 -0.5116
 3039TIP3   OH230675   1.771   2.395   8.427  0.3846 -0.4066 -0.0107
 3039TIP3    H130676   1.826   2.445   8.488 -0.0164 -0.7743  0.6691
 3039TIP3    H230677   1.772   2.446   8.346  0.6687  0.2586  0.4033
 3040TIP3   OH230678   0.566   4.395   8.524 -0.2814 -0.0796  0.1836
 3040TIP3    H130679   0.636   4.442   8.479  1.1891 -1.7116  0.6375
 3040TIP3    H230680   0.521   4.347   8.455 -0.2729  0.1361  0.0268
 3041TIP3   OH230681   6.375   1.276   5.622 -1.2201 -0.5382  0.8486
 3041TIP3    H130682   6.426   1.354   5.602  1.1355 -1.8764  1.2736
 3041TIP3    H230683   6.284   1.305   5.616 -0.5017  1.6069 -1.4635
 3042TIP3   OH230684   4.761   2.106   6.621 -0.1448  0.4198  0.0874
 3042TIP3    H130685   4.817   2.054   6.564 -2.6120 -1.8275 -0.4974
 3042TIP3    H230686   4.767   2.063   6.706  0.3605  1.2656  0.4935
 3043TIP3   OH230687   1.293   6.361   7.803 -0.2750  0.5968 -0.1456
 3043TIP3    H130688   1.245   6.406   7.734 -0.6652 -0.9161 -0.9123
 3043TIP3    H230689   1.310   6.428   7.869 -2.5742  1.3978 -0.2919
 3044TIP3   OH230690   1.029   2.434   0.363 -0.1546 -0.0151 -0.7664
 3044TIP3    H130691   1.104   2.377   0.346 -0.7155 -1.4809  1.1871
 3044TIP3    H230692   0.974   2.427   0.285  0.4724 -1.0602 -1.1279
 3045TIP3   OH230693   4.950   5.279   1.202  0.1694  0.1381  0.1452
 3045TIP3    H130694   4.987   5.368   1.207  1.0053 -0.2288  0.7697
 3045TIP3    H230695   5.008   5.233   1.141 -0.0733 -0.0670  0.0676
 3046TIP3   OH230696   2.081   2.017   7.620  0.0959  0.0608  0.1084
 3046TIP3    H130697   2.013   2.066   7.575 -1.3292 -1.0419  0.9637
 3046TIP3    H230698   2.104   2.071   7.696 -0.5546 -0.0121  0.3604
 3047TIP3   OH230699   4.681   4.994   6.920  0.2929 -0.6358 -0.5647
 3047TIP3    H130700   4.645   4.950   6.997  2.6989 -3.9491 -1.0789
 3047TIP3    H230701   4.624   4.967   6.848  1.8348 -3.4367 -0.9045
 3048TIP3   OH230702   1.595   0.720   7.373 -0.0090 -0.1818 -0.2649
 3048TIP3    H130703   1.595   0.779   7.448  2.3270 -0.0243 -0.3029
 3048TIP3    H230704   1.541   0.765   7.308 -0.2249  0.7594  0.5393
 3049TIP3   OH230705   4.377   5.565   0.703  0.3859 -0.1393  0.5756
 3049TIP3    H130706   4.410   5.476   0.706  0.8501 -0.1675 -2.2709
 3049TIP3    H230707   4.294   5.558   0.656 -0.0114  0.8376  1.0970
 3050TIP3   OH230708   0.952   5.479   7.224  0.7439 -0.1915 -0.0604
 3050TIP3    H130709   1.012   5.407   7.201 -1.2252 -1.9038 -0.2082
 3050TIP3    H230710   0.926   5.461   7.314 -1.4584 -1.0378 -0.7846
 3051TIP3   OH230711   6.573   5.380   1.770  0.1738  0.5323 -0.0840
 3051TIP3    H130712   6.644   5.377   1.835  1.3061  0.5805 -1.2841
 3051TIP3    H230713   6.496   5.406   1.821  0.3689 -2.1462  1.7884
 3052TIP3   OH230714   5.306   6.707   1.581  0.0270 -0.1605 -0.1261
 3052TIP3    H130715   5.286   6.743   1.667 -0.9558 -0.3899 -0.2398
 3052TIP3    H230716   5.265   6.768   1.520  0.7473  0.0206 -0.4404
 3053TIP3   OH230717   1.946   2.755   6.941  0.9018 -0.1091  0.2688
 3053TIP3    H130718   1.978   2.841   6.970 -1.2395  0.5061  1.0073
 3053TIP3    H230719   1.919   2.770   6.850 -1.5429  0.7114  1.0327
 3054TIP3   OH230720   2.474   6.481   1.420 -0.0188 -0.1113  0.0014
 3054TIP3    H130721   2.562   6.453   1.393  0.6329 -0.3283  2.1757
 3054TIP3    H230722   2.437   6.404   1.462 -2.3500 -0.8762 -3.0639
 3055TIP3   OH230723   4.981   1.188   2.134  0.3281 -0.1427  0.2385
 3055TIP3    H130724   4.988   1.166   2.226  0.1643  1.4817  0.6721
 3055TIP3    H230725   4.930   1.269   2.132  2.3620  1.2335 -1.0486
 3056TIP3   OH230726   4.413   3.066   7.406  0.7080  0.0611  0.6352
 3056TIP3    H130727   4.467   3.007   7.457  1.0486  1.8257  2.4360
 3056TIP3    H230728   4.454   3.152   7.415  0.8776  0.5135 -2.7923
 3057TIP3   OH230729   4.844   0.431   8.067 -0.1676 -0.1804 -0.1892
 3057TIP3    H130730   4.804   0.465   7.986 -0.0232 -0.7190 -0.4887
 3057TIP3    H230731   4.936   0.456   8.060 -0.1539 -0.2327 -0.1970
 3058TIP3   OH230732   2.151   5.225   7.850 -0.1268  0.1024  0.0610
 3058TIP3    H130733   2.122   5.316   7.856 -1.1507 -0.1954 -0.0223
 3058TIP3    H230734   2.211   5.214   7.924  0.2572  0.9264 -0.1189
 3059TIP3   OH230735   6.731   1.482   6.854 -0.5142 -0.8355 -0.1707
 3059TIP3    H130736   6.804   1.539   6.830 -1.6842  0.1400 -1.5803
 3059TIP3    H230737   6.710   1.506   6.944  1.4887 -1.8291  0.6196
 3060TIP3   OH230738   6.448   6.596   0.419 -0.0176  0.4603 -0.1351
 3060TIP3    H130739   6.404   6.651   0.483 -1.7685 -1.3424  0.2831
 3060TIP3    H230740   6.523   6.559   0.466 -0.6445  0.0332  0.5285
 3061TIP3   OH230741   5.996   3.006   1.397  0.1156 -0.9399 -0.4084
 3061TIP3    H130742   5.918   3.037   1.350  0.2187 -0.2983 -0.1692
 3061TIP3    H230743   5.983   3.036   1.487  1.2354  0.3225 -0.6334
 3062TIP3   OH230744   6.644   1.128   6.488 -0.1971  0.3321 -0.4837
 3062TIP3    H130745   6.670   1.159   6.575  0.2583  0.2398 -0.5854
 3062TIP3    H230746   6.553   1.156   6.480 -0.8471 -1.2392  0.7630
 3063TIP3   OH230747   6.228   0.623   7.958  0.2086 -0.7214 -0.3739
 3063TIP3    H130748   6.255   0.666   7.877  1.3245 -0.5612  0.0659
 3063TIP3    H230749   6.178   0.690   8.005  1.7625  0.0956  0.2159
 3064TIP3   OH230750   1.572   6.701   7.277  0.3136 -0.1523  0.9025
 3064TIP3    H130751   1.565   6.745   7.192 -0.7559 -0.6673  0.7003
 3064TIP3    H230752   1.664   6.677   7.284  0.2454 -1.0056 -0.5968
 3065TIP3   OH230753   6.342   2.829   0.371  0.0694 -0.4337 -0.6631
 3065TIP3    H130754   6.254   2.797   0.353 -0.9792  0.4913  2.3010
 3065TIP3    H230755   6.334   2.924   0.370  0.7873 -0.3404  0.5527
 3066TIP3   OH230756   3.312   0.967   1.172  0.0459 -0.3638  0.1996
 3066TIP3    H130757   3.306   0.994   1.081  1.7504 -0.4731  0.0221
 3066TIP3    H230758   3.374   1.028   1.211  0.4845 -1.2407  0.9057
 3067TIP3   OH230759   0.340   0.695   7.511 -0.2594  0.4979 -0.4349
 3067TIP3    H130760   0.292   0.698   7.428  0.5711 -0.4820 -0.9805
 3067TIP3    H230761   0.367   0.603   7.519  2.4695  1.1800 -0.7224
 3068TIP3   OH230762   3.864   6.802   8.049 -0.1839 -0.0726 -0.1488
 3068TIP3    H130763   3.876   6.727   7.991  1.0922 -0.5422  0.6741
 3068TIP3    H230764   3.783   6.844   8.018 -0.0350 -0.8337 -1.6493
 3069TIP3   OH230765   5.736   0.168   8.007 -0.2001 -0.3201 -0.4418
 3069TIP3    H130766   5.676   0.098   8.032 -0.7825 -0.0734 -1.1171
 3069TIP3    H230767   5.763   0.145   7.918 -0.7360  0.5328 -0.8329
 3070TIP3   OH230768   4.701   3.229   7.735  0.7258  0.1817 -0.4530
 3070TIP3    H130769   4.764   3.247   7.665 -0.2543  0.0524 -1.4012
 3070TIP3    H230770   4.671   3.139   7.719  2.1268 -0.7037  1.4835
 3071TIP3   OH230771   6.700   6.558   8.269  0.1911 -0.2514 -0.0936
 3071TIP3    H130772   6.621   6.526   8.225  0.2230  0.9046 -1.0666
 3071TIP3    H230773   6.668   6.595   8.351 -0.4997  1.2474 -0.9813
 3072TIP3   OH230774   6.198   3.451   1.447  0.7352  0.7261  0.6255
 3072TIP3    H130775   6.244   3.388   1.502 -0.4271  0.0838  0.9008
 3072TIP3    H230776   6.235   3.536   1.471  2.8144  0.1076 -0.2536
 3073TIP3   OH230777   5.767   2.241   1.615 -0.2248 -0.7966 -0.3886
 3073TIP3    H130778   5.859   2.256   1.594 -0.1336 -0.7871  0.0067
 3073TIP3    H230779   5.721   2.254   1.532 -0.1764  1.8052 -0.1033
 3074TIP3   OH230780   2.973   5.581   7.246  0.0916 -0.1860  0.1541
 3074TIP3    H130781   3.050   5.633   7.224 -0.6757  1.2919  0.8249
 3074TIP3    H230782   2.924   5.574   7.164  0.5830 -0.5334 -0.1135
 3075TIP3   OH230783   3.995   5.392   6.916  0.1292  0.3652 -0.2800
 3075TIP3    H130784   4.075   5.416   6.963 -0.3573 -0.9090  1.2923
 3075TIP3    H230785   3.924   5.428   6.970 -0.4129  0.3643 -0.9782
 3076TIP3   OH230786   2.175   0.433   2.101  0.3641 -0.8024 -0.2944
 3076TIP3    H130787   2.190   0.524   2.126 -0.4237 -1.3483  2.6194
 3076TIP3    H230788   2.260   0.391   2.112  0.4485 -0.6618 -0.4105
 3077TIP3   OH230789   3.905   0.290   0.643 -0.0462  0.2910 -0.0673
 3077TIP3    H130790   3.909   0.316   0.551 -2.0631  0.8529 -0.0333
 3077TIP3    H230791   3.825   0.331   0.677  1.3935  1.3401  2.3449
 3078TIP3   OH230792   6.167   5.174   7.127 -0.0781  0.1665  0.1193
 3078TIP3    H130793   6.123   5.209   7.204 -0.8492  1.7360 -0.9818
 3078TIP3    H230794   6.155   5.079   7.133 -1.3778  0.3730  1.1874
 3079TIP3   OH230795   6.653   0.022   1.613 -0.1359 -0.6221 -0.0223
 3079TIP3    H130796   6.731   0.008   1.559 -0.7257 -0.6651 -0.8870
 3079TIP3    H230797   6.580   0.012   1.552 -0.9067 -2.2415  1.1050
 3080TIP3   OH230798   4.734   5.175   1.331 -0.0894 -0.4261 -0.3503
 3080TIP3    H130799   4.810   5.194   1.276 -0.5774 -1.2049 -1.3347
 3080TIP3    H230800   4.713   5.084   1.311 -1.1798 -0.2689  0.0243
 3081TIP3   OH230801   4.344   2.465   6.691 -0.6754  0.0434  0.6899
 3081TIP3    H130802   4.280   2.536   6.695 -0.5489  0.2495 -0.6088
 3081TIP3    H230803   4.324   2.419   6.610 -0.4066 -1.0885  1.2457
 3082TIP3   OH230804   5.115   4.635   1.249 -0.8784 -0.2854 -0.3788
 3082TIP3    H130805   5.095   4.572   1.180 -1.3298 -0.0858 -0.4352
 3082TIP3    H230806   5.070   4.715   1.222 -0.6745 -0.0682 -0.0843
 3083TIP3   OH230807   4.075   6.431   1.539 -0.3313 -0.1188  0.1335
 3083TIP3    H130808   4.076   6.508   1.597 -2.2521 -0.4020  0.6196
 3083TIP3    H230809   4.078   6.468   1.450 -2.7657  0.6944  0.3028
 3084TIP3   OH230810   2.568   3.150   6.438  0.0774  1.0243 -0.6876
 3084TIP3    H130811   2.662   3.145   6.420  0.4544  1.1370  1.1298
 3084TIP3    H230812   2.556   3.236   6.478 -0.1978 -0.2676  2.1891
 3085TIP3   OH230813   5.850   3.110   6.432 -0.0304  0.0657  0.2860
 3085TIP3    H130814   5.781   3.095   6.367 -0.3868  2.1728  0.1052
 3085TIP3    H230815   5.918   3.046   6.410 -0.9909 -0.5982 -0.9006
 3086TIP3   OH230816   3.396   2.820   6.873  0.2064  0.2550 -0.0295
 3086TIP3    H130817   3.476   2.775   6.900  1.1152  2.1314  0.5512
 3086TIP3    H230818   3.413   2.848   6.783  2.0935  4.3770  1.3633
 3087TIP3   OH230819   2.831   0.327   7.514  0.8689  0.3983  0.6144
 3087TIP3    H130820   2.844   0.311   7.421  1.2290 -0.0930  0.7474
 3087TIP3    H230821   2.737   0.311   7.528  0.3244  2.6348 -0.0753
 3088TIP3   OH230822   3.370   5.963   6.385 -0.6596 -0.5317 -0.7057
 3088TIP3    H130823   3.464   5.962   6.369 -0.5849  1.0743 -0.4463
 3088TIP3    H230824   3.344   6.055   6.378 -1.9657 -0.7491  0.6735
 3089TIP3   OH230825   6.130   6.574   7.865 -0.0283  0.5975 -0.2557
 3089TIP3    H130826   6.078   6.646   7.902 -1.0921 -1.1016  1.7576
 3089TIP3    H230827   6.065   6.512   7.833  0.8342 -0.4635  0.0224
 3090TIP3   OH230828   6.004   4.185   6.959  0.4956  0.1801 -0.1403
 3090TIP3    H130829   6.071   4.200   6.893 -0.1486  0.4757 -0.7432
 3090TIP3    H230830   5.924   4.168   6.909  0.3236 -1.2067  0.5507
 3091TIP3   OH230831   4.723   1.075   7.705 -0.3046 -0.7333  0.0825
 3091TIP3    H130832   4.687   1.046   7.789 -0.8019  0.6082  0.3508
 3091TIP3    H230833   4.812   1.104   7.725 -0.9210  1.0043  0.4725
 3092TIP3   OH230834   0.887   4.170   0.598  0.3021  0.1622 -0.3178
 3092TIP3    H130835   0.840   4.217   0.666  0.5722 -0.0065 -0.0156
 3092TIP3    H230836   0.921   4.240   0.541 -0.5708  0.2775 -0.7221
 3093TIP3   OH230837   0.128   3.562   8.144  0.1464  0.4366  0.3994
 3093TIP3    H130838   0.218   3.581   8.118  0.0644  0.0269 -0.1953
 3093TIP3    H230839   0.074   3.597   8.073 -0.3008  2.4449  1.6416
 3094TIP3   OH230840   0.951   3.856   7.390 -0.5546 -0.2887 -0.4369
 3094TIP3    H130841   0.911   3.901   7.316 -2.0909  0.1710  0.6187
 3094TIP3    H230842   0.937   3.763   7.372  0.9329 -0.3105 -1.6916
 3095TIP3   OH230843   4.041   4.826   0.831 -0.1500 -0.1905  0.1820
 3095TIP3    H130844   4.028   4.746   0.882 -1.0357 -0.1090  0.1034
 3095TIP3    H230845   4.083   4.797   0.750 -0.4090 -0.5671  0.1797
 3096TIP3   OH230846   0.216   4.742   0.334 -0.0094  0.0470  0.2387
 3096TIP3    H130847   0.221   4.698   0.249  1.1658  0.6149 -0.0082
 3096TIP3    H230848   0.178   4.828   0.314 -2.1020 -0.7145  0.6883
 3097TIP3   OH230849   0.012   0.606   6.964 -0.5715 -0.7768 -0.3209
 3097TIP3    H130850  -0.079   0.599   6.992 -0.3256  0.4955  0.9214
 3097TIP3    H230851   0.008   0.610   6.869 -1.9179  0.4490 -0.2425
 3098TIP3   OH230852   2.250   0.912   6.924 -0.1144  0.0229  0.2123
 3098TIP3    H130853   2.226   0.947   7.010  0.1393 -0.2111  0.3792
 3098TIP3    H230854   2.221   0.821   6.926 -0.9377  0.2605 -0.2874
 3099TIP3   OH230855   1.139   5.448   1.590 -0.7958  0.0942  0.4508
 3099TIP3    H130856   1.137   5.380   1.523 -0.7610  0.3675  0.1726
 3099TIP3    H230857   1.049   5.450   1.624 -1.5626  1.7783 -1.4342
 3100TIP3   OH230858   4.317   5.808   6.355  0.3738 -0.7213  0.0292
 3100TIP3    H130859   4.337   5.899   6.374 -1.1979 -0.2380 -0.5228
 3100TIP3    H230860   4.280   5.808   6.267  1.4435 -2.0753 -0.4743
 3101TIP3   OH230861   6.262   3.669   0.829  0.6262 -0.2667  0.0641
 3101TIP3    H130862   6.294   3.743   0.777 -2.6070  1.1330 -0.1301
 3101TIP3    H230863   6.314   3.673   0.910  1.9273  0.9272 -0.7791
 3102TIP3   OH230864   6.068   6.021   7.476  0.5690 -0.7481  0.0914
 3102TIP3    H130865   6.082   5.927   7.487  0.3147 -0.5998  2.1327
 3102TIP3    H230866   5.989   6.040   7.527 -0.6628  0.2600 -2.0565
 3103TIP3   OH230867   6.409   0.178   0.352  0.4259 -0.0192 -0.6385
 3103TIP3    H130868   6.494   0.216   0.331 -0.3572  1.1928 -1.7873
 3103TIP3    H230869   6.403   0.099   0.299  1.5104 -1.0714  0.7408
 3104TIP3   OH230870   4.211   3.907   6.004 -0.0503  0.2020 -0.7913
 3104TIP3    H130871   4.164   3.892   6.086  1.3532 -0.9357 -0.1528
 3104TIP3    H230872   4.226   3.820   5.969  0.3959  0.6224 -1.6698
 3105TIP3   OH230873   5.997   4.761   2.149 -0.3202  0.0380  0.5541
 3105TIP3    H130874   5.930   4.761   2.081 -0.1264  2.0788  0.3100
 3105TIP3    H230875   6.026   4.852   2.155  0.7455 -0.3613  2.3189
 3106TIP3   OH230876   4.519   4.318   0.231  0.4928  0.6760  0.0971
 3106TIP3    H130877   4.490   4.368   0.307 -0.7001 -1.6744  1.2793
 3106TIP3    H230878   4.450   4.253   0.217  1.1096  0.4841 -2.4858
 3107TIP3   OH230879   2.233   2.296   6.609  0.2829 -0.1923  0.0101
 3107TIP3    H130880   2.277   2.346   6.678  0.3365  0.4608 -0.4828
 3107TIP3    H230881   2.305   2.253   6.562  0.2866 -0.2428  0.0627
 3108TIP3   OH230882   0.038   5.085   8.181  0.2494  0.4097  0.2185
 3108TIP3    H130883   0.015   5.129   8.263 -0.1651 -0.6563  0.6983
 3108TIP3    H230884   0.068   4.998   8.208  1.4136  0.5150 -0.6767
 3109TIP3   OH230885   1.219   1.657   0.681 -0.6301 -0.1047  0.1451
 3109TIP3    H130886   1.190   1.648   0.772 -0.2775 -2.0530  0.0877
 3109TIP3    H230887   1.302   1.703   0.687 -0.2352 -0.8849  0.8877
 3110TIP3   OH230888   2.322   2.793   6.531 -0.2082 -0.5866 -0.3462
 3110TIP3    H130889   2.237   2.837   6.531 -0.8870 -1.8264 -0.1379
 3110TIP3    H230890   2.383   2.857   6.567 -1.1588  0.1519 -0.0103
 3111TIP3   OH230891   0.796   6.264   1.418 -0.4604  0.2326  0.0441
 3111TIP3    H130892   0.821   6.335   1.359 -2.0857  0.2941 -0.6382
 3111TIP3    H230893   0.809   6.301   1.506  2.7562 -0.1502 -0.1717
 3112TIP3   OH230894   1.007   2.577   8.198  0.2209  0.6311 -0.4732
 3112TIP3    H130895   1.033   2.485   8.189  1.2496  1.0049 -1.4956
 3112TIP3    H230896   0.911   2.574   8.200  0.2295 -0.5942  1.2544
 3113TIP3   OH230897   0.794   0.616   6.867  0.3571 -0.2442  0.2666
 3113TIP3    H130898   0.750   0.579   6.943 -0.6062  1.7949  0.7717
 3113TIP3    H230899   0.882   0.637   6.897  0.2498 -0.2165  0.5597
 3114TIP3   OH230900   0.363   3.709   6.097  0.2434  0.1605  0.1237
 3114TIP3    H130901   0.392   3.678   6.011  0.3678 -2.1869  0.9191
 3114TIP3    H230902   0.408   3.792   6.110  2.1594 -0.6210 -1.0877
 3115TIP3   OH230903   4.528   5.307   0.288 -0.5833  0.6001  0.0821
 3115TIP3    H130904   4.591   5.361   0.337  0.4343 -0.2622 -0.2505
 3115TIP3    H230905   4.499   5.363   0.216  2.1429  0.0249 -1.5820
 3116TIP3   OH230906   4.907   2.922   6.507  0.0235  0.3670  0.0206
 3116TIP3    H130907   4.931   2.961   6.423  2.4205  0.5659  0.7353
 3116TIP3    H230908   4.895   2.829   6.487  1.3993  0.2614 -0.4335
 3117TIP3   OH230909   0.821   3.903   0.042 -0.2722  0.2520  0.3076
 3117TIP3    H130910   0.796   3.881  -0.048 -0.0192  0.3035  0.2221
 3117TIP3    H230911   0.903   3.952   0.032  0.3804 -0.7216  0.6184
 3118TIP3   OH230912   6.897   2.045   1.098  0.2386 -0.0234  0.0128
 3118TIP3    H130913   6.855   2.009   1.176 -1.8909  0.6238 -0.7897
 3118TIP3    H230914   6.937   1.969   1.055 -0.4028 -0.7208  0.6246
 3119TIP3   OH230915   2.743   4.345   8.170  0.3225 -0.5262 -0.3297
 3119TIP3    H130916   2.711   4.343   8.260 -0.9298 -0.3311 -0.7542
 3119TIP3    H230917   2.667   4.372   8.118  1.3097  0.4311 -1.3189
 3120TIP3   OH230918   2.302   3.858   0.109 -0.5361  0.2063 -0.0657
 3120TIP3    H130919   2.211   3.836   0.124 -0.4011 -0.7882 -0.6454
 3120TIP3    H230920   2.307   3.882   0.016 -0.1583 -0.0202 -0.1081
 3121TIP3   OH230921   5.546   6.602   0.107  0.4751 -0.0844 -0.0559
 3121TIP3    H130922   5.487   6.629   0.178  0.2817 -0.2349 -0.1616
 3121TIP3    H230923   5.620   6.663   0.114  0.8072 -0.5699  0.7472
 3122TIP3   OH230924   1.725   2.817   8.498 -0.1684 -0.7553 -0.1869
 3122TIP3    H130925   1.673   2.785   8.571 -0.6471  1.6361  0.6046
 3122TIP3    H230926   1.665   2.873   8.448  0.4922 -1.3630 -1.7381
 3123TIP3   OH230927   4.815   5.678   8.087 -0.0161  0.3691 -0.0778
 3123TIP3    H130928   4.766   5.676   8.169 -0.7772 -0.0436 -0.5290
 3123TIP3    H230929   4.794   5.594   8.045  0.8207  0.3302 -0.4312
 3124TIP3   OH230930   3.808   0.379   1.283  0.1748 -0.2435  0.3758
 3124TIP3    H130931   3.832   0.313   1.348 -0.6800  0.1303  1.0921
 3124TIP3    H230932   3.712   0.374   1.278  0.1751  0.2813 -0.2626
 3125TIP3   OH230933   0.192   4.261   7.221  0.4326  0.2497  0.3146
 3125TIP3    H130934   0.142   4.233   7.145 -0.3292 -0.7293  1.1540
 3125TIP3    H230935   0.283   4.259   7.192  0.2059 -0.8760 -0.3406
 3126TIP3   OH230936   2.183   4.735   6.494  0.3933  0.4463  0.4356
 3126TIP3    H130937   2.131   4.753   6.415 -1.5057  1.8248  1.9039
 3126TIP3    H230938   2.168   4.641   6.511 -1.3033  0.6961  0.5363
 3127TIP3   OH230939   4.350   5.778   7.108  0.2997  0.5734  0.0268
 3127TIP3    H130940   4.382   5.710   7.169  0.4349  1.8043  1.3790
 3127TIP3    H230941   4.306   5.729   7.039  1.5431 -0.9716  0.2656
 3128TIP3   OH230942   3.530   2.988   8.280  0.2804  0.2373 -0.2953
 3128TIP3    H130943   3.437   2.967   8.280 -0.0645  1.4133 -2.6374
 3128TIP3    H230944   3.572   2.908   8.312 -1.4000 -1.2202 -1.5191
 3129TIP3   OH230945   0.583   3.637   7.896 -0.3161 -0.1886 -0.2524
 3129TIP3    H130946   0.673   3.669   7.891 -0.6013  0.5682 -0.6010
 3129TIP3    H230947   0.569   3.593   7.812 -0.9693  1.5975 -1.1367
 3130TIP3   OH230948   5.450   5.212   1.704 -0.0777 -0.1250  0.4513
 3130TIP3    H130949   5.359   5.185   1.713  0.0920 -1.2367 -0.8809
 3130TIP3    H230950   5.470   5.256   1.787 -1.9617  0.6236  0.5691
 3131TIP3   OH230951   1.874   4.402   6.227 -0.1493 -1.0307 -0.0722
 3131TIP3    H130952   1.916   4.387   6.142 -2.0764 -0.8059 -1.1351
 3131TIP3    H230953   1.906   4.487   6.256 -1.2050  0.0117 -1.7642
 3132TIP3   OH230954   3.874   0.058   0.770  0.3635 -0.4507  0.3399
 3132TIP3    H130955   3.901   0.137   0.722  3.2814  0.0651  2.5264
 3132TIP3    H230956   3.784   0.076   0.797  0.2111  1.1688 -1.0721
 3133TIP3   OH230957   2.090   5.990   0.014 -0.4384  0.5651 -0.1798
 3133TIP3    H130958   2.178   5.994  -0.022  0.2694  0.5423  1.4543
 3133TIP3    H230959   2.103   5.975   0.108 -2.1721  1.1008  0.1837
 3134TIP3   OH230960   5.025   5.723   0.295  0.2610  0.3426  0.0112
 3134TIP3    H130961   5.036   5.767   0.210 -0.6158 -0.4959 -0.5712
 3134TIP3    H230962   5.050   5.633   0.278  1.2225  0.4210  0.9679
 3135TIP3   OH230963   5.624   4.788   1.421 -0.0467  0.5772  0.3224
 3135TIP3    H130964   5.628   4.876   1.458 -2.0468  0.0052  2.1115
 3135TIP3    H230965   5.565   4.796   1.346 -0.0054  0.8147  0.3144
 3136TIP3   OH230966   5.051   4.129   8.315  0.6854 -0.1323 -0.6010
 3136TIP3    H130967   4.974   4.156   8.265  1.3089  0.0430 -1.4950
 3136TIP3    H230968   5.124   4.140   8.254  1.1911 -2.1850 -0.4492
 3137TIP3   OH230969   3.985   1.620   7.562 -0.4524  0.5645  0.0678
 3137TIP3    H130970   4.002   1.647   7.652  0.5987 -0.2059  0.1155
 3137TIP3    H230971   3.915   1.678   7.532 -0.8516  0.7873  1.3922
 3138TIP3   OH230972   2.002   1.364   1.578  0.0975 -0.5409  0.7222
 3138TIP3    H130973   2.043   1.343   1.662 -0.1913 -1.9534  0.5451
 3138TIP3    H230974   2.007   1.282   1.528 -0.3630  0.0753 -0.3801
 3139TIP3   OH230975   1.002   1.082   8.508 -0.5336  0.4722  0.9865
 3139TIP3    H130976   0.943   1.042   8.571  0.2772 -2.5206  0.0142
 3139TIP3    H230977   0.944   1.124   8.444 -1.6672 -1.7303  0.4635
 3140TIP3   OH230978   6.772   6.869   6.941 -0.4541 -0.3578 -0.4901
 3140TIP3    H130979   6.730   6.803   6.996  1.0659  0.2248  1.5098
 3140TIP3    H230980   6.866   6.849   6.948 -0.1772 -0.2896 -2.9864
 3141TIP3   OH230981   6.671   3.757   1.792  0.0653  0.6703  0.1965
 3141TIP3    H130982   6.651   3.664   1.787  2.6343  0.0991 -1.1097
 3141TIP3    H230983   6.708   3.769   1.880 -0.7289  0.6068  0.5520
 3142TIP3   OH230984   1.787   4.847   0.091  0.5545  0.8631 -0.3088
 3142TIP3    H130985   1.815   4.777   0.149  0.5853  0.8018 -0.3979
 3142TIP3    H230986   1.741   4.803   0.020 -1.1519  1.0581  0.6095
 3143TIP3   OH230987   4.013   6.757   7.582 -0.2158 -0.0857  0.0142
 3143TIP3    H130988   3.938   6.789   7.632 -0.3954  0.4528 -0.5823
 3143TIP3    H230989   4.084   6.752   7.646 -0.4775  0.4590  0.3552
 3144TIP3   OH230990   5.075   4.869   0.611 -0.0931  0.0677  0.2565
 3144TIP3    H130991   5.022   4.938   0.572 -0.4951  0.4564  1.4528
 3144TIP3    H230992   5.080   4.801   0.543 -0.5869  0.8026 -0.5376
 3145TIP3   OH230993   5.784   2.013   8.326  0.0783  0.5021  0.3290
 3145TIP3    H130994   5.751   1.928   8.296  0.3059  0.5325 -0.0154
 3145TIP3    H230995   5.712   2.074   8.309 -0.1285  0.3577  0.6850
 3146TIP3   OH230996   1.537   2.496   1.568  0.3372  0.3362 -0.2924
 3146TIP3    H130997   1.556   2.586   1.591 -0.6171  0.1146  1.5783
 3146TIP3    H230998   1.615   2.447   1.593 -0.4342  0.1970  2.1609
 3147TIP3   OH230999   0.156   4.641   0.575  0.6074 -0.2163  0.1295
 3147TIP3    H131000   0.181   4.674   0.488  0.7897  0.2429  0.3532
 3147TIP3    H231001   0.064   4.665   0.584  0.1520 -1.6216 -0.5618
 3148TIP3   OH231002   5.240   4.182   7.288  0.5432  0.4031  0.2026
 3148TIP3    H131003   5.236   4.272   7.318  2.0615 -0.3234  2.9345
 3148TIP3    H231004   5.171   4.175   7.223 -0.1265  3.3037  0.4796
 3149TIP3   OH231005   5.213   0.357   0.839  0.1879  0.0079  0.2613
 3149TIP3    H131006   5.122   0.357   0.870 -0.1493 -0.1946 -0.6862
 3149TIP3    H231007   5.237   0.264   0.836  0.0315 -0.0070 -0.5954
 3150TIP3   OH231008   5.325   6.038   7.838  0.2301 -0.3278 -0.4935
 3150TIP3    H131009   5.231   6.028   7.824  0.0104  0.5948  0.2134
 3150TIP3    H231010   5.363   5.956   7.805 -0.8182 -0.7337 -0.7394
 3151TIP3   OH231011   4.692   2.886   6.841  0.1168  0.2092  0.2607
 3151TIP3    H131012   4.660   2.820   6.780 -2.4707 -0.3180  2.0175
 3151TIP3    H231013   4.715   2.837   6.920  4.2181  0.7588 -0.3657
 3152TIP3   OH231014   1.885   0.423   8.554  0.1004 -0.3313  0.0286
 3152TIP3    H131015   1.864   0.441   8.646  0.7344 -1.9761  0.5332
 3152TIP3    H231016   1.810   0.373   8.522  0.4011 -0.7872  0.0183
 3153TIP3   OH231017   4.240   3.343   7.484 -0.0268  0.1035  0.3695
 3153TIP3    H131018   4.226   3.350   7.579  0.5022  0.4664  0.4255
 3153TIP3    H231019   4.177   3.277   7.456 -1.4115  1.2136  0.7061
 3154TIP3   OH231020   1.456   5.201   0.001 -0.2250  0.2411  0.2376
 3154TIP3    H131021   1.387   5.197  -0.066 -0.8530  0.3641  0.8613
 3154TIP3    H231022   1.532   5.236  -0.045 -0.2326 -0.9351 -0.7357
 3155TIP3   OH231023   0.790   1.286   6.503  0.1619  0.0859 -0.3620
 3155TIP3    H131024   0.827   1.359   6.552  0.2021 -1.0758  1.4209
 3155TIP3    H231025   0.856   1.217   6.506 -1.0895 -1.1489  0.7835
 3156TIP3   OH231026   4.195   2.615   7.950  0.4214 -0.7406 -0.1000
 3156TIP3    H131027   4.222   2.559   8.022 -1.3451 -1.7364 -0.1593
 3156TIP3    H231028   4.166   2.696   7.992 -0.9593 -1.4538  0.3977
 3157TIP3   OH231029   5.352   2.463   8.201  0.7150  0.0987  0.4372
 3157TIP3    H131030   5.308   2.386   8.165  0.2194  0.5140  0.1421
 3157TIP3    H231031   5.283   2.510   8.249  0.7289  0.9567 -0.3547
 3158TIP3   OH231032   5.667   0.752   6.704  0.0863  0.1552 -0.0349
 3158TIP3    H131033   5.727   0.741   6.631  2.0747  0.6928  1.4452
 3158TIP3    H231034   5.699   0.691   6.771  1.0797  2.7042  2.0057
 3159TIP3   OH231035   0.253   3.501   0.512 -0.2248 -0.4168 -0.2374
 3159TIP3    H131036   0.288   3.412   0.511 -0.5322 -0.5463 -1.4307
 3159TIP3    H231037   0.322   3.554   0.471 -0.8382 -0.4578 -1.3738
 3160TIP3   OH231038   0.079   2.768   8.076  0.2535 -0.5916 -0.3197
 3160TIP3    H131039   0.004   2.737   8.126  0.5152 -2.3033 -0.9397
 3160TIP3    H231040   0.094   2.701   8.010  1.5069  0.3741 -1.0694
 3161TIP3   OH231041   0.457   0.418   7.521  0.0904  0.6244  0.1155
 3161TIP3    H131042   0.482   0.428   7.613  0.4354 -2.8931  0.5586
 3161TIP3    H231043   0.362   0.404   7.524  0.2923 -0.8888  0.1496
 3162TIP3   OH231044   6.415   1.430   1.761  0.1756  0.0116  0.6194
 3162TIP3    H131045   6.350   1.499   1.754  0.5462  0.5595  2.2129
 3162TIP3    H231046   6.393   1.384   1.842 -0.6105 -2.3663 -0.8382
 3163TIP3   OH231047   3.288   5.218   6.339 -0.2231  0.1187 -0.4700
 3163TIP3    H131048   3.347   5.215   6.263  0.7484  0.5232  0.2478
 3163TIP3    H231049   3.346   5.232   6.414 -1.0713 -1.1699  0.4727
 3164TIP3   OH231050   3.598   2.986   2.447 -0.1659 -0.1617  0.0455
 3164TIP3    H131051   3.535   3.049   2.412  0.4849 -0.4366 -1.7194
 3164TIP3    H231052   3.649   3.036   2.510 -1.3520  0.3725  0.6071
 3165TIP3   OH231053   5.693   4.942   1.126 -0.7035  0.1175  0.8100
 3165TIP3    H131054   5.697   4.930   1.031 -0.5310 -2.3126  1.0669
 3165TIP3    H231055   5.784   4.934   1.155 -1.0037 -1.8024  1.3826
 3166TIP3   OH231056   2.150   3.483   8.206  0.3912 -0.0025  0.0831
 3166TIP3    H131057   2.135   3.446   8.119 -0.5473 -0.0358  0.2513
 3166TIP3    H231058   2.232   3.533   8.197  0.1194  0.2867 -0.9075
 3167TIP3   OH231059   6.403   4.738   8.210  0.3855 -0.5190 -0.7561
 3167TIP3    H131060   6.405   4.831   8.187  0.6086 -0.4345 -0.4050
 3167TIP3    H231061   6.462   4.731   8.285 -0.5725 -0.7430 -0.0132
 3168TIP3   OH231062   6.341   2.062   7.423 -0.0248  0.5542 -0.0113
 3168TIP3    H131063   6.364   2.141   7.472  1.2488  0.4056 -0.3214
 3168TIP3    H231064   6.395   1.993   7.461 -2.2501 -0.5683  1.3082
 3169TIP3   OH231065   6.239   5.305   7.868  0.1964 -0.3496 -0.5988
 3169TIP3    H131066   6.180   5.343   7.803 -0.8407 -2.7675 -1.1877
 3169TIP3    H231067   6.182   5.280   7.941  0.9369 -0.1710  0.0586
 3170TIP3   OH231068   0.303   0.070   8.532  0.0663  0.4360  0.4404
 3170TIP3    H131069   0.212   0.049   8.555  0.5430 -0.3828  1.6229
 3170TIP3    H231070   0.344   0.093   8.615  1.7796 -2.4233  0.5106
 3171TIP3   OH231071   3.463   6.111   1.863 -0.4430 -0.3039 -0.5313
 3171TIP3    H131072   3.372   6.140   1.875 -0.4143  0.7730 -2.4387
 3171TIP3    H231073   3.474   6.040   1.926 -1.5495  1.6719  2.0781
 3172TIP3   OH231074   3.636   4.435   0.581 -0.4990  0.8962  0.2721
 3172TIP3    H131075   3.719   4.388   0.581 -0.0503  1.6360 -0.8425
 3172TIP3    H231076   3.647   4.503   0.647 -1.1912 -0.5646  1.9702
 3173TIP3   OH231077   6.719   0.998   1.321 -0.4373  0.0558 -0.1227
 3173TIP3    H131078   6.783   1.064   1.347  0.0933 -0.3962 -0.2494
 3173TIP3    H231079   6.699   1.020   1.230  0.3777 -0.4365 -0.4400
 3174TIP3   OH231080   3.506   2.685   1.309  0.0432 -0.3545 -0.8755
 3174TIP3    H131081   3.507   2.604   1.258 -1.1594 -1.3898  0.6600
 3174TIP3    H231082   3.416   2.693   1.340  0.6715  0.3237  0.9163
 3175TIP3   OH231083   6.405   3.450   0.779  0.9351  0.2934  0.5172
 3175TIP3    H131084   6.364   3.535   0.763  0.8952  0.1765  0.0029
 3175TIP3    H231085   6.438   3.422   0.694  2.1398  0.4062  0.9291
 3176TIP3   OH231086   4.343   0.812   2.629  0.2015 -0.1380 -0.0126
 3176TIP3    H131087   4.254   0.785   2.608  0.2010  0.1153 -0.3526
 3176TIP3    H231088   4.394   0.731   2.631  0.2655 -0.1498 -1.3183
 3177TIP3   OH231089   4.203   5.487   7.118  0.4587 -0.0257 -0.0514
 3177TIP3    H131090   4.243   5.459   7.036  0.6032 -1.9039  0.5922
 3177TIP3    H231091   4.258   5.448   7.186 -0.5802  0.1009  0.9037
 3178TIP3   OH231092   0.086   4.833   8.306  0.3973 -0.3395  0.3564
 3178TIP3    H131093   0.138   4.877   8.373  0.3456  0.7043 -0.2614
 3178TIP3    H231094   0.034   4.769   8.354  2.4810 -1.6841  0.9633
 3179TIP3   OH231095   3.157   2.072   7.841  0.3129 -0.1291  0.1321
 3179TIP3    H131096   3.215   2.057   7.916  1.3100 -0.1925 -0.6345
 3179TIP3    H231097   3.070   2.074   7.879  0.8867  1.0429  1.4751
 3180TIP3   OH231098   5.283   3.417   0.136  0.4625  0.2171  0.2133
 3180TIP3    H131099   5.269   3.457   0.222 -3.7854  1.1785 -0.7109
 3180TIP3    H231100   5.248   3.329   0.145  1.3892 -0.1978 -0.1634
 3181TIP3   OH231101   3.993   0.119   8.464  0.3548 -0.1652  0.0876
 3181TIP3    H131102   4.020   0.065   8.538 -0.1400 -1.2168 -0.4812
 3181TIP3    H231103   4.060   0.104   8.397  0.3836  0.1789  0.0358
 3182TIP3   OH231104   4.087   2.203   0.171 -0.0355  0.0591  0.6346
 3182TIP3    H131105   4.129   2.274   0.218 -1.5616  1.1687  0.3901
 3182TIP3    H231106   4.072   2.136   0.237  0.6952  0.2728  1.0337
 3183TIP3   OH231107   1.131   4.285   6.687  0.5750  0.2194  0.4372
 3183TIP3    H131108   1.096   4.218   6.747  0.0291  0.8491  0.8377
 3183TIP3    H231109   1.135   4.241   6.602  0.9992 -0.5688  0.8557
 3184TIP3   OH231110   2.063   1.299   0.462 -0.2375  0.4291  0.2755
 3184TIP3    H131111   2.095   1.253   0.383 -1.6791 -0.6064  0.2595
 3184TIP3    H231112   1.997   1.240   0.498 -1.1138  1.8718  1.0867
 3185TIP3   OH231113   6.607   1.011   0.140  0.1224  0.2513 -0.1296
 3185TIP3    H131114   6.689   1.056   0.159  0.8680 -0.4922 -1.4603
 3185TIP3    H231115   6.539   1.069   0.175  1.1720  1.1443  0.4881
 3186TIP3   OH231116   0.119   4.013   7.896  0.2856 -0.2714 -0.5451
 3186TIP3    H131117   0.154   4.007   7.807 -0.1787 -0.3392 -0.7252
 3186TIP3    H231118   0.113   4.107   7.913  1.4940 -0.2565 -0.1362
 3187TIP3   OH231119   4.539   4.592   7.012 -0.4895  0.6836  0.3964
 3187TIP3    H131120   4.493   4.522   7.059 -1.3542  1.1031  0.1928
 3187TIP3    H231121   4.478   4.621   6.945 -0.0146  1.4164  0.2610
 3188TIP3   OH231122   5.774   0.246   1.377 -0.3871 -0.0241 -0.2965
 3188TIP3    H131123   5.751   0.301   1.303  0.8609 -0.1191 -0.7841
 3188TIP3    H231124   5.836   0.299   1.428 -1.9020  0.4084  1.2107
 3189TIP3   OH231125   2.997   2.269   7.272 -0.6794 -0.3646  0.1839
 3189TIP3    H131126   2.923   2.255   7.331 -1.7527 -2.4160 -1.5013
 3189TIP3    H231127   3.055   2.195   7.289 -0.1082  0.0133 -0.0830
 3190TIP3   OH231128   2.785   0.225   6.716 -0.5140  0.0893 -0.4140
 3190TIP3    H131129   2.880   0.234   6.717 -0.2893 -1.2699  2.8395
 3190TIP3    H231130   2.765   0.191   6.629  2.1940 -1.4531 -0.5475
 3191TIP3   OH231131   1.617   3.236   6.430 -0.6860  0.0156 -0.0365
 3191TIP3    H131132   1.677   3.239   6.505  0.4292 -0.7996 -0.8639
 3191TIP3    H231133   1.544   3.183   6.461  0.1571 -1.0338  0.2335
 3192TIP3   OH231134   3.531   4.013   0.520  0.0588 -0.4543 -0.0336
 3192TIP3    H131135   3.622   4.021   0.551 -0.1401  0.7882  0.3059
 3192TIP3    H231136   3.492   4.098   0.540 -1.0349 -0.7874 -0.6724
 3193TIP3   OH231137   3.464   4.772   0.965  0.4999  0.2668  0.3425
 3193TIP3    H131138   3.481   4.775   1.059  0.9594  0.2627  0.2633
 3193TIP3    H231139   3.485   4.682   0.939  0.9141  0.4155  0.1437
 3194TIP3   OH231140   6.355   1.988   1.231  1.0923  0.3079 -0.1694
 3194TIP3    H131141   6.277   2.038   1.255  0.0393  0.1533 -2.9754
 3194TIP3    H231142   6.427   2.051   1.242  0.7602  0.3522  2.7820
 3195TIP3   OH231143   2.603   1.422   8.251 -0.5145  0.1598 -0.0337
 3195TIP3    H131144   2.581   1.329   8.245 -1.8706  0.4993 -0.7729
 3195TIP3    H231145   2.626   1.436   8.343 -2.5902 -0.4521  0.6356
 3196TIP3   OH231146   5.379   5.747   1.680 -0.3196 -0.8121  0.7279
 3196TIP3    H131147   5.362   5.800   1.603 -0.7185 -0.3116  1.1520
 3196TIP3    H231148   5.297   5.700   1.696 -0.4236 -0.4885  1.1693
 3197TIP3   OH231149   5.435   0.223   1.087  0.3594 -0.6375  0.1353
 3197TIP3    H131150   5.471   0.202   1.001 -0.0104 -0.1278 -0.1542
 3197TIP3    H231151   5.511   0.247   1.140  0.3783  1.9724 -0.9059
 3198TIP3   OH231152   4.023   2.735   7.571  0.0453  0.0698  0.5874
 3198TIP3    H131153   4.068   2.792   7.509 -0.5471  0.7340  0.7620
 3198TIP3    H231154   4.008   2.654   7.522  2.1869 -0.5123  0.7839
 3199TIP3   OH231155   4.805   3.208   0.320  0.2760 -0.6512  0.4822
 3199TIP3    H131156   4.830   3.147   0.250  2.1752  0.8460 -0.2364
 3199TIP3    H231157   4.828   3.294   0.286 -0.4591  0.3086  2.2693
 3200TIP3   OH231158   2.901   3.231   8.241  0.2913 -0.2482 -0.4097
 3200TIP3    H131159   2.883   3.311   8.192 -1.6045  0.8876  1.9397
 3200TIP3    H231160   2.991   3.239   8.269  0.7280  0.0943 -1.8023
 3201TIP3   OH231161   4.911   2.510   0.999  0.3549 -0.5585 -0.3991
 3201TIP3    H131162   4.890   2.586   0.946 -1.2966  1.6396  3.0613
 3201TIP3    H231163   5.002   2.522   1.024 -0.1417  0.8283  0.8395
 3202TIP3   OH231164   5.085   1.572   0.476 -0.2801 -0.2435  0.5623
 3202TIP3    H131165   5.034   1.635   0.526  1.0762  3.1704 -1.9660
 3202TIP3    H231166   5.174   1.581   0.509  0.1509  0.1592 -0.6430
 3203TIP3   OH231167   3.278   2.215   7.077  0.1903  0.3979  0.4376
 3203TIP3    H131168   3.185   2.234   7.062  0.3053 -0.5999 -2.0416
 3203TIP3    H231169   3.278   2.150   7.147 -1.0138  0.1317  0.2105
 3204TIP3   OH231170   0.403   4.702   8.406 -0.6231  0.5429  0.0894
 3204TIP3    H131171   0.315   4.663   8.407  0.9057 -3.3724  0.9151
 3204TIP3    H231172   0.425   4.710   8.313 -1.0690 -0.5232 -0.1187
 3205TIP3   OH231173   1.291   3.232   8.535 -0.0948  1.0455 -0.5898
 3205TIP3    H131174   1.312   3.266   8.448 -0.3853 -0.1951 -1.1685
 3205TIP3    H231175   1.374   3.200   8.570 -0.2473  0.0428 -1.1090
 3206TIP3   OH231176   1.829   0.929   7.788  0.1852 -0.2163 -0.0168
 3206TIP3    H131177   1.925   0.927   7.793  0.2784  0.3171 -1.1720
 3206TIP3    H231178   1.809   1.008   7.737 -0.9405  0.4057  1.3335
 3207TIP3   OH231179   3.376   0.006   7.871 -0.6299  0.0733  0.3671
 3207TIP3    H131180   3.306   0.012   7.937  0.7251 -0.4468  1.9189
 3207TIP3    H231181   3.376  -0.086   7.844 -0.0931 -0.0865  0.8984
 3208TIP3   OH231182   4.900   2.068   0.706  0.0829 -0.6950 -0.2752
 3208TIP3    H131183   4.911   2.013   0.628 -1.2826 -0.1956 -0.8479
 3208TIP3    H231184   4.885   2.155   0.671 -0.8717 -0.5258  0.5463
 3209TIP3   OH231185   6.287   2.674   7.110  0.4668  0.0790  0.1238
 3209TIP3    H131186   6.329   2.593   7.139  0.6797  0.5586  1.2536
 3209TIP3    H231187   6.358   2.738   7.110  0.1186  0.4689  0.1775
 3210TIP3   OH231188   5.646   2.765   6.696  0.0385 -0.1025  0.4096
 3210TIP3    H131189   5.727   2.716   6.686  0.3272  0.4318  0.0804
 3210TIP3    H231190   5.616   2.780   6.606 -0.2214  0.0347  0.5190
 3211TIP3   OH231191   0.996   5.348   8.520  0.1608  0.2313  0.5461
 3211TIP3    H131192   0.944   5.416   8.563  2.2749  1.6171  1.0477
 3211TIP3    H231193   1.035   5.392   8.445  1.9374 -0.2520  1.1374
 3212TIP3   OH231194   0.906   6.754   1.644  0.1378  0.4691  0.1652
 3212TIP3    H131195   0.880   6.826   1.587  2.5750  3.7700  2.8374
 3212TIP3    H231196   0.851   6.764   1.722 -0.0307 -1.1343  0.2918
 3213TIP3   OH231197   3.157   5.968   7.749 -0.1713  0.0883  0.4044
 3213TIP3    H131198   3.128   6.037   7.689  2.6034  0.6478 -0.4573
 3213TIP3    H231199   3.146   5.887   7.698 -0.7333  0.1952  0.3419
 3214TIP3   OH231200   1.839   1.032   5.870 -0.1368  0.5457  0.4956
 3214TIP3    H131201   1.810   1.056   5.782  1.2430  0.6048  0.0264
 3214TIP3    H231202   1.856   1.116   5.913  0.1524  0.4959  0.4774
 3215TIP3   OH231203   4.020   3.413   0.775  0.0872 -0.3231  0.1398
 3215TIP3    H131204   4.087   3.453   0.720  2.0089 -2.2779  0.9200
 3215TIP3    H231205   4.011   3.474   0.849  0.9792 -0.0048 -0.0021
 3216TIP3   OH231206   6.518   4.383   0.787 -0.4162  0.5015 -0.1196
 3216TIP3    H131207   6.428   4.398   0.757 -0.5728 -0.2608 -0.0618
 3216TIP3    H231208   6.549   4.309   0.735 -0.2440 -0.0143  0.6912
 3217TIP3   OH231209   0.780   5.166   0.718  0.1896  0.0163  0.1693
 3217TIP3    H131210   0.837   5.115   0.777 -2.6034  0.4056  3.5517
 3217TIP3    H231211   0.831   5.245   0.700  1.3088 -0.2187  1.9532
 3218TIP3   OH231212   1.239   2.057   1.880  0.3342  0.4115  0.1723
 3218TIP3    H131213   1.300   2.073   1.808  0.1127  0.0345 -0.1031
 3218TIP3    H231214   1.160   2.104   1.855 -0.3723 -1.1712 -0.7127
 3219TIP3   OH231215   4.342   1.039   1.974  0.1043 -0.3807  0.3135
 3219TIP3    H131216   4.304   1.124   1.950 -2.5118 -1.6881 -0.5168
 3219TIP3    H231217   4.436   1.054   1.973 -0.2544  3.0628  2.3150
 3220TIP3   OH231218   2.242   1.869   7.008 -0.3128  0.0132  0.2772
 3220TIP3    H131219   2.211   1.948   6.966  1.4375 -0.3507 -1.8899
 3220TIP3    H231220   2.334   1.862   6.981 -0.6482 -3.2228 -0.4839
 3221TIP3   OH231221   5.732   1.019   7.416  0.4759  0.4524 -0.5220
 3221TIP3    H131222   5.739   0.978   7.330  1.4269 -0.9494  0.1981
 3221TIP3    H231223   5.653   0.980   7.455  0.6292  0.3004 -0.3602
 3222TIP3   OH231224   4.482   0.981   6.619 -0.0462  0.0002 -0.3721
 3222TIP3    H131225   4.482   0.973   6.524 -0.7531  1.2316 -0.4956
 3222TIP3    H231226   4.397   1.020   6.640  0.1302 -0.1773  0.7640
 3223TIP3   OH231227   4.280   3.823   1.510  0.9961 -0.0437  0.4449
 3223TIP3    H131228   4.267   3.737   1.549  3.0879  0.0464  1.5074
 3223TIP3    H231229   4.192   3.861   1.504  0.2287 -1.5288  1.6495
 3224TIP3   OH231230   6.831   4.163   8.133 -0.0800 -0.4087 -0.1053
 3224TIP3    H131231   6.844   4.105   8.207 -0.5251  1.8804  1.8804
 3224TIP3    H231232   6.907   4.221   8.133  0.9204 -1.5489 -2.7132
 3225TIP3   OH231233   0.955   2.252   1.547  0.1359  0.0709 -0.7316
 3225TIP3    H131234   0.865   2.272   1.572  0.4843  0.4794  0.2600
 3225TIP3    H231235   1.007   2.319   1.592  0.8081  0.9115 -2.6629
 3226TIP3   OH231236   0.285   0.982   6.939 -0.1345  0.5067 -0.1198
 3226TIP3    H131237   0.344   0.908   6.925  1.6171  1.6584  0.7725
 3226TIP3    H231238   0.315   1.021   7.021  0.9472  3.8741 -1.9188
 3227TIP3   OH231239   5.557   3.391   1.180  0.4861  0.2245  0.1713
 3227TIP3    H131240   5.461   3.391   1.175  0.2814 -0.4683  2.5886
 3227TIP3    H231241   5.575   3.414   1.271  2.7101  2.3735 -0.6922
 3228TIP3   OH231242   3.377   3.755   6.058 -0.7054 -0.4287 -0.0681
 3228TIP3    H131243   3.333   3.686   6.108 -0.1638  0.9060  2.4136
 3228TIP3    H231244   3.311   3.823   6.048  0.1465  0.7838  2.0099
 3229TIP3   OH231245   5.103   2.948   0.331  0.4132 -0.4519 -0.4437
 3229TIP3    H131246   5.039   2.945   0.401  1.3969  2.0563  0.7097
 3229TIP3    H231247   5.086   2.870   0.278 -2.6805 -0.5621  0.5293
 3230TIP3   OH231248   1.743   6.506   0.681  0.2980 -0.0301 -0.0805
 3230TIP3    H131249   1.750   6.455   0.762 -1.4321 -0.7001 -0.3057
 3230TIP3    H231250   1.693   6.584   0.706  0.1049 -0.0448 -0.4182
 3231TIP3   OH231251   6.442   3.720   6.068 -0.1172  0.3555 -0.1611
 3231TIP3    H131252   6.469   3.639   6.024 -2.0306  1.1672 -3.1715
 3231TIP3    H231253   6.400   3.691   6.149  1.2049 -1.4666 -0.0670
 3232TIP3   OH231254   2.798   4.314   7.165  0.9251 -0.4654 -0.0456
 3232TIP3    H131255   2.819   4.288   7.075 -0.8223 -0.1469 -0.5688
 3232TIP3    H231256   2.722   4.261   7.188  1.1447 -0.2921  1.1402
 3233TIP3   OH231257   2.212   1.334   7.357 -0.2941 -0.1744 -0.2561
 3233TIP3    H131258   2.297   1.350   7.316  0.3977  1.5775  1.6769
 3233TIP3    H231259   2.196   1.412   7.410 -4.3483  0.7303 -2.4376
 3234TIP3   OH231260   0.883   1.370   7.675  0.4441  0.1600 -0.3180
 3234TIP3    H131261   0.976   1.345   7.682  0.5155 -0.8272 -3.3291
 3234TIP3    H231262   0.836   1.298   7.719  1.0307  1.3780  2.5482
 3235TIP3   OH231263   5.772   3.063   7.836  0.0365 -0.3978 -0.1217
 3235TIP3    H131264   5.732   2.985   7.798  0.8834 -1.2497  0.6993
 3235TIP3    H231265   5.755   3.056   7.930 -0.1367  0.5623 -0.0714
 3236TIP3   OH231266   4.554   2.674   6.054  1.1146 -0.0924  0.5100
 3236TIP3    H131267   4.629   2.653   5.998  0.4277 -0.6250 -0.2327
 3236TIP3    H231268   4.592   2.721   6.128  2.2446 -0.7465  0.3763
 3237TIP3   OH231269   3.978   4.928   1.689 -0.4251  0.2267 -0.1873
 3237TIP3    H131270   4.073   4.923   1.698 -0.2198  0.8539 -1.7445
 3237TIP3    H231271   3.945   4.862   1.751  1.0027  0.0231  0.3992
 3238TIP3   OH231272   3.788   4.792   2.089  0.4377 -0.2284  0.1896
 3238TIP3    H131273   3.741   4.714   2.058  0.0971 -0.3961  1.1007
 3238TIP3    H231274   3.731   4.865   2.066 -0.5537 -0.4724  1.7744
 3239TIP3   OH231275   4.751   4.661   7.898 -0.6956 -0.0721 -0.9711
 3239TIP3    H131276   4.780   4.720   7.968 -0.6383 -0.7655 -0.3929
 3239TIP3    H231277   4.831   4.634   7.855 -0.5409 -1.1604 -0.0484
 3240TIP3   OH231278   2.455   4.733   6.357  0.0362  0.2163  0.3990
 3240TIP3    H131279   2.399   4.723   6.280 -1.4477  1.1958  1.2954
 3240TIP3    H231280   2.514   4.805   6.335 -0.4614  0.5735  0.2398
 3241TIP3   OH231281   3.524   2.305   7.635  0.1397 -0.4742 -0.2120
 3241TIP3    H131282   3.512   2.244   7.708  1.0269 -0.8860 -0.4039
 3241TIP3    H231283   3.541   2.389   7.676 -1.7025 -0.1841  0.0667
 3242TIP3   OH231284   0.801   3.287   1.973  0.4190 -0.0300 -0.0427
 3242TIP3    H131285   0.811   3.196   2.001 -0.2790  0.7758  3.2899
 3242TIP3    H231286   0.889   3.314   1.948  1.6976 -0.4312  3.4208
 3243TIP3   OH231287   4.880   6.805   6.676  0.1932  0.1974 -0.2620
 3243TIP3    H131288   4.859   6.733   6.617  1.5270  0.0597 -0.5957
 3243TIP3    H231289   4.840   6.882   6.634  0.5684 -0.0091 -1.0144
 3244TIP3   OH231290   0.240   2.534   8.387  0.2759 -0.3185  0.6551
 3244TIP3    H131291   0.269   2.468   8.450 -0.3853 -1.4085 -0.1442
 3244TIP3    H231292   0.316   2.589   8.372  0.7471 -0.6969  1.5902
 3245TIP3   OH231293   4.626   5.319   6.829  0.5401 -0.2711  0.1497
 3245TIP3    H131294   4.709   5.350   6.792 -0.1270 -0.0440 -1.2037
 3245TIP3    H231295   4.576   5.288   6.754 -0.9516  0.4060  0.8175
 3246TIP3   OH231296   3.277   6.159   8.572 -0.3561 -0.0694 -0.0801
 3246TIP3    H131297   3.201   6.103   8.587 -1.2055  0.9141 -0.5755
 3246TIP3    H231298   3.240   6.246   8.558  0.9894  0.9222  2.0217
 3247TIP3   OH231299   0.465   0.138   1.704 -0.1273  0.3702 -0.0714
 3247TIP3    H131300   0.446   0.232   1.711 -1.2679  0.1608 -0.2199
 3247TIP3    H231301   0.532   0.122   1.772 -1.6597  0.8395  1.6232
 3248TIP3   OH231302   2.529   3.745   6.546 -0.4283  0.3929  0.1657
 3248TIP3    H131303   2.473   3.695   6.487 -1.9828  2.2400 -0.0288
 3248TIP3    H231304   2.531   3.833   6.509  1.5272  0.7104  0.9297
 3249TIP3   OH231305   0.142   0.963   7.530  0.0510 -0.6439  0.3969
 3249TIP3    H131306   0.233   0.935   7.541  0.2172 -0.3713 -0.2247
 3249TIP3    H231307   0.140   1.053   7.564  0.9341  0.7981 -2.9570
 3250TIP3   OH231308   3.755   5.499   8.373 -0.2125 -0.6702  0.0737
 3250TIP3    H131309   3.818   5.481   8.443 -0.2638 -2.3422 -0.2560
 3250TIP3    H231310   3.675   5.456   8.402 -0.4793 -0.6565 -0.6301
 3251TIP3   OH231311   4.816   2.309   1.180 -0.4362  0.5317 -0.1116
 3251TIP3    H131312   4.733   2.342   1.213 -0.6547 -0.4036  0.2776
 3251TIP3    H231313   4.854   2.384   1.134 -0.7845  1.4205  1.0012
 3252TIP3   OH231314   3.035   3.496   6.747  0.2280  0.0832 -0.3285
 3252TIP3    H131315   3.120   3.480   6.705 -0.5755  0.4826 -2.2447
 3252TIP3    H231316   3.056   3.552   6.821  2.0201 -2.5918  1.3660
 3253TIP3   OH231317   4.821   1.059   1.050  0.0232  0.5125 -0.2989
 3253TIP3    H131318   4.851   1.057   0.959  1.0244 -1.7916  0.0025
 3253TIP3    H231319   4.895   1.022   1.100 -1.4867 -0.7954  1.0912
 3254TIP3   OH231320   2.813   3.512   7.260 -0.7470 -0.4002 -0.3418
 3254TIP3    H131321   2.788   3.465   7.181 -1.4575 -1.4864  0.4880
 3254TIP3    H231322   2.852   3.445   7.316 -0.0078  0.4051  0.1218
 3255TIP3   OH231323   1.811   0.227   7.366  0.4063 -0.2904 -0.4462
 3255TIP3    H131324   1.834   0.149   7.417  1.3307 -0.1820 -0.6684
 3255TIP3    H231325   1.751   0.275   7.422  1.1740 -0.3169  0.4316
 3256TIP3   OH231326   0.879   3.435   5.947  0.1930  0.3037  0.1115
 3256TIP3    H131327   0.829   3.464   6.023 -2.1311  0.8471 -1.5280
 3256TIP3    H231328   0.898   3.516   5.898  0.3633 -0.1805 -0.6387
 3257TIP3   OH231329   1.359   2.000   6.164  0.2904 -0.0406  0.1524
 3257TIP3    H131330   1.351   1.905   6.172  1.9626 -0.4253 -1.9117
 3257TIP3    H231331   1.421   2.013   6.092  0.6067  2.6171  0.7985
 3258TIP3   OH231332   6.281   4.682   7.517 -0.3329  0.1812 -0.5766
 3258TIP3    H131333   6.342   4.672   7.591  1.1856  1.1197 -1.6594
 3258TIP3    H231334   6.241   4.595   7.508  1.8088 -0.8687 -0.6207
 3259TIP3   OH231335   2.020   6.083   6.647  0.1547  0.3121 -0.2584
 3259TIP3    H131336   2.015   5.988   6.637  0.1304  0.3237 -0.3492
 3259TIP3    H231337   1.929   6.112   6.652  0.1616  0.1756  1.1462
 3260TIP3   OH231338   6.521   4.161   1.930  0.0890 -0.0511 -0.6870
 3260TIP3    H131339   6.576   4.238   1.940  0.2810 -0.2959  0.2226
 3260TIP3    H231340   6.581   4.091   1.907  0.2705 -0.4437  0.8631
 3261TIP3   OH231341   4.311   3.782   2.241 -0.0315  0.7272  0.2045
 3261TIP3    H131342   4.344   3.867   2.271 -0.8420  1.0925  0.0764
 3261TIP3    H231343   4.224   3.800   2.206 -1.0143 -0.4644  1.8956
 3262TIP3   OH231344   0.794   3.559   6.618  0.5412  0.3903 -0.0040
 3262TIP3    H131345   0.780   3.574   6.525  0.2738 -0.7054 -0.1433
 3262TIP3    H231346   0.882   3.522   6.624 -0.1642 -1.3786 -0.0351
 3263TIP3   OH231347   1.036   5.221   7.895 -0.1479 -0.1168  0.2361
 3263TIP3    H131348   1.090   5.292   7.930 -0.3333 -0.3118  0.9401
 3263TIP3    H231349   1.093   5.144   7.898 -0.2762 -0.2050  0.4452
 3264TIP3   OH231350   4.695   2.790   6.243  0.3212  0.0329 -0.4237
 3264TIP3    H131351   4.746   2.766   6.320 -1.9658  1.9493  1.8472
 3264TIP3    H231352   4.727   2.877   6.220  0.9935 -0.5261 -1.7317
 3265TIP3   OH231353   1.279   0.615   6.809 -0.6537 -0.3616  0.0994
 3265TIP3    H131354   1.307   0.550   6.743  0.1615 -0.0042  0.0804
 3265TIP3    H231355   1.356   0.627   6.865 -0.5614  1.0737 -0.2918
 3266TIP3   OH231356   1.917   4.697   8.387 -0.1934 -0.0978 -0.6109
 3266TIP3    H131357   1.970   4.637   8.335  0.4893  0.4290 -0.5346
 3266TIP3    H231358   1.977   4.732   8.453 -0.6752  0.3655 -0.4072
 3267TIP3   OH231359   5.963   0.750   0.083 -0.1523  0.8246 -0.4003
 3267TIP3    H131360   5.940   0.843   0.094  0.1766  1.1244 -2.0101
 3267TIP3    H231361   5.894   0.714   0.028  0.6722  0.5554 -1.2731
 3268TIP3   OH231362   5.826   5.603   6.649  0.3835 -0.1888  0.9445
 3268TIP3    H131363   5.807   5.697   6.648  0.7378 -0.1113  0.2480
 3268TIP3    H231364   5.902   5.594   6.590 -0.1452 -1.0065  0.3657
 3269TIP3   OH231365   4.810   5.095   1.570  0.2151  0.3440 -0.2368
 3269TIP3    H131366   4.782   5.143   1.492 -1.6928 -0.3861 -0.0676
 3269TIP3    H231367   4.832   5.162   1.634 -1.1347  1.0097 -0.4356
 3270TIP3   OH231368   3.860   5.917   0.722 -0.1161 -0.1518  0.3762
 3270TIP3    H131369   3.786   5.873   0.680  0.7424  0.2553 -1.7080
 3270TIP3    H231370   3.819   5.981   0.781 -1.3695 -1.7274  1.2771
 3271TIP3   OH231371   2.345   5.919   7.102 -0.3218 -0.3209 -0.0136
 3271TIP3    H131372   2.308   5.979   7.168  0.6779 -0.4450  0.6727
 3271TIP3    H231373   2.413   5.970   7.059 -0.0027 -0.7160  0.0274
 3272TIP3   OH231374   2.786   5.685   8.410  0.6753  0.2934  0.2361
 3272TIP3    H131375   2.869   5.730   8.426  0.3656  0.2220  2.2685
 3272TIP3    H231376   2.782   5.676   8.314  1.8276  2.5197 -0.1002
 3273TIP3   OH231377   4.272   3.844   0.851  0.1796 -0.5674 -0.3306
 3273TIP3    H131378   4.274   3.884   0.938 -1.3602  0.5829 -0.7707
 3273TIP3    H231379   4.362   3.819   0.833  0.6573 -0.0667  1.2457
 3274TIP3   OH231380   6.834   4.458   1.533  0.2483  0.2923 -0.3461
 3274TIP3    H131381   6.926   4.482   1.544 -0.2293  1.6727  1.0345
 3274TIP3    H231382   6.807   4.427   1.620 -0.3810 -0.9669 -0.9559
 3275TIP3   OH231383   2.414   5.939   6.718 -0.4739 -0.3189 -0.1519
 3275TIP3    H131384   2.353   6.011   6.701 -1.1477 -1.2592 -1.9405
 3275TIP3    H231385   2.448   5.914   6.632  0.6664 -1.3549  0.5632
 3276TIP3   OH231386   0.899   0.446   7.859  0.5553  0.1557  0.4347
 3276TIP3    H131387   0.881   0.516   7.921 -0.2554  0.8921 -0.6113
 3276TIP3    H231388   0.886   0.485   7.773 -3.2884 -2.0712 -0.1997
 3277TIP3   OH231389   1.566   1.394   7.782 -0.1743 -0.2682  0.1914
 3277TIP3    H131390   1.493   1.439   7.826 -0.1988 -0.8825  0.7954
 3277TIP3    H231391   1.642   1.411   7.838 -0.3297 -1.5814  0.8549
 3278TIP3   OH231392   5.766   4.008   0.343  0.0975  0.2194  0.4601
 3278TIP3    H131393   5.857   4.030   0.360  0.4985 -0.4591 -0.7037
 3278TIP3    H231394   5.717   4.083   0.376  1.2115  1.4914 -0.6927
 3279TIP3   OH231395   0.262   4.778   6.584 -0.2434 -0.5824 -0.0405
 3279TIP3    H131396   0.259   4.697   6.634  1.8038  0.1314  1.3606
 3279TIP3    H231397   0.294   4.752   6.498  1.1792 -1.1799  0.6487
 3280TIP3   OH231398   3.094   4.572   0.022 -0.4767 -0.2346 -0.3873
 3280TIP3    H131399   3.091   4.540   0.112 -1.0141 -0.1286 -0.3634
 3280TIP3    H231400   3.132   4.501  -0.028  1.0922  0.1926  0.1291
 3281TIP3   OH231401   1.798   4.421   8.120 -0.3244  0.2589 -0.5089
 3281TIP3    H131402   1.886   4.458   8.124 -0.4021  0.4711 -0.7354
 3281TIP3    H231403   1.744   4.492   8.088 -0.5884  0.1406 -0.3245
 3282TIP3   OH231404   4.383   4.408   7.521 -0.4093  0.7948 -0.6630
 3282TIP3    H131405   4.385   4.382   7.613 -1.5383 -0.8340 -1.0543
 3282TIP3    H231406   4.453   4.358   7.480 -1.5811 -0.5105 -1.1361
 3283TIP3   OH231407   6.394   2.374   0.459  0.0364  0.4124 -0.0631
 3283TIP3    H131408   6.341   2.371   0.379  0.6532  0.4038 -0.4798
 3283TIP3    H231409   6.433   2.287   0.465 -0.5321  0.1961  0.6189
 3284TIP3   OH231410   0.193   0.186   2.118 -0.2864 -0.3800 -0.1568
 3284TIP3    H131411   0.202   0.249   2.047  1.2097  0.7794  1.0103
 3284TIP3    H231412   0.282   0.157   2.136 -0.9389 -3.4370 -1.0922
 3285TIP3   OH231413   0.976   2.764   7.418 -0.3841  0.7163  0.1773
 3285TIP3    H131414   1.035   2.794   7.348 -0.9116  0.7602 -0.2589
 3285TIP3    H231415   0.899   2.820   7.409 -0.2098  1.1365  1.1974
 3286TIP3   OH231416   6.361   6.550   1.342 -0.3436 -0.2953  0.3914
 3286TIP3    H131417   6.283   6.602   1.362 -0.7167  0.0780 -1.7774
 3286TIP3    H231418   6.327   6.465   1.314  0.0552 -0.2855 -0.1372
 3287TIP3   OH231419   4.368   0.951   0.951 -0.3993 -0.5073  0.1172
 3287TIP3    H131420   4.334   0.931   1.038  2.2223 -1.8136  0.9407
 3287TIP3    H231421   4.392   1.044   0.955  0.3569 -0.7331  1.0602
 3288TIP3   OH231422   5.774   4.698   6.702 -0.5485 -0.0107  0.6096
 3288TIP3    H131423   5.697   4.694   6.759 -0.7516 -0.7207  0.2945
 3288TIP3    H231424   5.770   4.617   6.650  0.3210  0.0268  0.4750
 3289TIP3   OH231425   0.680   5.220   7.538 -0.0874 -0.3278  0.4271
 3289TIP3    H131426   0.616   5.292   7.543 -0.5597 -0.8365  2.6616
 3289TIP3    H231427   0.715   5.213   7.627  1.1756 -1.7945 -0.1471
 3290TIP3   OH231428   6.819   3.898   0.429 -0.0840  0.1664  0.3084
 3290TIP3    H131429   6.901   3.946   0.439  0.6149  0.2127 -3.9330
 3290TIP3    H231430   6.832   3.817   0.477  1.1247  1.5236  2.3880
 3291TIP3   OH231431   0.869   6.797   1.931 -0.6974 -0.1171  0.3958
 3291TIP3    H131432   0.949   6.842   1.905 -0.8799  1.3296  2.1382
 3291TIP3    H231433   0.899   6.718   1.975 -0.1263  0.8275  1.7987
 3292TIP3   OH231434   5.762   3.548   8.316 -0.0403 -0.3197  0.1064
 3292TIP3    H131435   5.744   3.591   8.399 -0.0522  0.7110 -0.4150
 3292TIP3    H231436   5.823   3.606   8.271 -0.7029 -0.4180 -0.9649
 3293TIP3   OH231437   0.931   0.725   0.685 -0.2488 -0.3745 -0.3111
 3293TIP3    H131438   0.871   0.651   0.682  0.2724 -0.7751 -1.8004
 3293TIP3    H231439   1.018   0.685   0.684  0.0596  0.2216  0.9145
 3294TIP3   OH231440   3.712   3.100   0.646 -0.1718  0.0550  0.5503
 3294TIP3    H131441   3.737   3.103   0.553 -1.8094 -2.6507 -0.1088
 3294TIP3    H231442   3.794   3.102   0.693  0.9386 -1.7468 -1.1540
 3295TIP3   OH231443   1.780   4.392   8.401  0.0193 -0.2055  0.4948
 3295TIP3    H131444   1.723   4.317   8.419 -0.5331  0.1376  0.2077
 3295TIP3    H231445   1.802   4.383   8.308 -1.1874  0.7338  0.0903
 3296TIP3   OH231446   0.923   1.434   0.152  0.5221 -0.2017  0.3701
 3296TIP3    H131447   0.829   1.419   0.159  0.5944 -0.3811  1.1431
 3296TIP3    H231448   0.951   1.380   0.079  0.2487 -1.3192  1.0630
 3297TIP3   OH231449   2.823   6.319   1.120 -0.3052  0.2369 -0.0129
 3297TIP3    H131450   2.759   6.341   1.051 -0.9720 -0.2822  0.4363
 3297TIP3    H231451   2.908   6.334   1.078 -0.7096  0.9360 -0.6219
 3298TIP3   OH231452   5.640   5.833   2.087 -0.0190  0.2225 -0.1916
 3298TIP3    H131453   5.690   5.851   2.167 -0.2868  2.3847 -0.4631
 3298TIP3    H231454   5.656   5.908   2.031 -0.8590 -0.6636 -1.6849
 3299TIP3   OH231455   3.682   0.229   1.084  0.7478  0.1230 -0.5477
 3299TIP3    H131456   3.714   0.318   1.074  1.3180 -0.2634 -2.5904
 3299TIP3    H231457   3.616   0.235   1.153  0.4022  2.2045 -0.9949
 3300TIP3   OH231458   6.834   6.667   0.834  0.2607  0.0433  0.0016
 3300TIP3    H131459   6.870   6.693   0.749  1.0506  1.6104  0.7684
 3300TIP3    H231460   6.814   6.574   0.824 -1.2144  0.5271 -2.4137
 3301TIP3   OH231461   3.770   4.643   1.848 -0.2468 -0.1018  0.0429
 3301TIP3    H131462   3.841   4.673   1.905  0.0113 -1.1839  0.3154
 3301TIP3    H231463   3.714   4.590   1.905 -2.3327  2.1859  0.3102
 3302TIP3   OH231464   1.104   6.128   1.467  0.0335 -0.5688  0.6357
 3302TIP3    H131465   1.017   6.088   1.468 -0.0400 -0.4146  0.4080
 3302TIP3    H231466   1.147   6.090   1.391  0.1749 -0.6617  0.7610
 3303TIP3   OH231467   6.675   5.598   0.643  0.6309 -0.0105  0.1636
 3303TIP3    H131468   6.651   5.509   0.617 -0.7375  0.4567 -0.2951
 3303TIP3    H231469   6.600   5.629   0.695  0.0718  1.6075 -1.4792
 3304TIP3   OH231470   0.804   6.204   6.566  0.4912 -0.3129  0.2869
 3304TIP3    H131471   0.844   6.170   6.647 -0.2886  0.0984  0.8525
 3304TIP3    H231472   0.711   6.208   6.585  0.4698  1.4192 -0.0259
 3305TIP3   OH231473   4.561   3.624   0.273  0.3230 -0.6594  0.2738
 3305TIP3    H131474   4.626   3.650   0.339  2.2588 -1.8784 -1.0200
 3305TIP3    H231475   4.542   3.532   0.294  0.1385 -0.7338 -0.2154
 3306TIP3   OH231476   1.265   3.364   0.305 -0.4396 -0.3032  0.1032
 3306TIP3    H131477   1.313   3.368   0.388 -1.0636  0.8118  0.4235
 3306TIP3    H231478   1.190   3.421   0.318 -1.8672 -1.9904 -0.4040
 3307TIP3   OH231479   5.094   2.991   0.684  0.3827 -0.4042  0.4160
 3307TIP3    H131480   5.006   3.021   0.708  0.3578 -0.3682  0.2848
 3307TIP3    H231481   5.079   2.933   0.609  0.6080  0.8242 -0.6117
 3308TIP3   OH231482   3.171   2.386   1.177 -0.0189 -0.3584 -0.2299
 3308TIP3    H131483   3.126   2.342   1.249 -3.5045 -0.1405 -2.0355
 3308TIP3    H231484   3.212   2.463   1.217 -1.2229 -0.6132  1.6162
 3309TIP3   OH231485   6.684   2.371   1.595 -0.5403 -0.2269 -0.2240
 3309TIP3    H131486   6.679   2.320   1.676 -0.7561  0.2475  0.0621
 3309TIP3    H231487   6.614   2.436   1.602 -0.3695  0.0101 -0.6568
 3310TIP3   OH231488   3.715   0.711   0.992 -0.0607 -0.0589  0.2665
 3310TIP3    H131489   3.783   0.671   0.940  1.7515  1.1249  1.5958
 3310TIP3    H231490   3.664   0.763   0.930  2.4409  1.8608 -0.3527
 3311TIP3   OH231491   5.163   5.068   7.192 -0.1770 -0.3415  0.0165
 3311TIP3    H131492   5.156   5.147   7.140  1.9153  2.1096  3.0623
 3311TIP3    H231493   5.256   5.044   7.187 -0.2946 -1.1082  1.0948
 3312TIP3   OH231494   3.128   0.046   8.111 -0.2678  0.1932  0.1782
 3312TIP3    H131495   3.102  -0.002   8.189  0.2916  0.1830  0.3623
 3312TIP3    H231496   3.109  -0.014   8.039  1.3909 -0.7501  0.4740
 3313TIP3   OH231497   6.697   0.942   6.128  0.2523  0.1421 -0.1360
 3313TIP3    H131498   6.736   0.856   6.143 -1.9745 -0.5702  2.3171
 3313TIP3    H231499   6.761   1.004   6.163  0.5263 -0.7709  1.0461
 3314TIP3   OH231500   2.825   2.998   1.714  0.0013  0.5534  0.2558
 3314TIP3    H131501   2.919   2.981   1.722 -0.0796  0.0323  0.1600
 3314TIP3    H231502   2.819   3.069   1.650  0.3223  0.5010  0.1645
 3315TIP3   OH231503   0.634   2.616   0.315  0.0859  0.1068 -0.2575
 3315TIP3    H131504   0.638   2.589   0.224 -3.4035  1.6555 -1.0271
 3315TIP3    H231505   0.716   2.663   0.330  0.7305 -0.1545 -2.6003
 3316TIP3   OH231506   3.413   3.130   1.142  0.3845 -0.4506  0.8463
 3316TIP3    H131507   3.384   3.169   1.059  0.2170  0.5784  1.3846
 3316TIP3    H231508   3.456   3.048   1.115  2.4016  0.9367 -0.5009
 3317TIP3   OH231509   6.144   6.137   8.449 -0.2735 -0.0500 -0.4430
 3317TIP3    H131510   6.224   6.186   8.432 -0.6520  0.9719  0.5712
 3317TIP3    H231511   6.113   6.111   8.362  0.1662  1.1734 -0.9892
 3318TIP3   OH231512   0.259   1.654   1.909  0.5199 -0.1718 -0.5008
 3318TIP3    H131513   0.282   1.740   1.875 -2.5900 -0.1895 -3.1471
 3318TIP3    H231514   0.331   1.597   1.881  0.0152  0.6103 -3.7242
 3319TIP3   OH231515   0.100   2.797   2.409 -0.0128 -0.0469 -0.2754
 3319TIP3    H131516   0.049   2.799   2.490  0.6164 -1.3262  0.1874
 3319TIP3    H231517   0.042   2.835   2.343 -0.4087  1.3319  0.8226
 3320TIP3   OH231518   4.584   6.518   0.363 -0.3051 -0.1165  0.2953
 3320TIP3    H131519   4.628   6.441   0.397 -0.1997 -0.4286 -0.5335
 3320TIP3    H231520   4.617   6.528   0.274  0.0496  1.1631  0.5501
 3321TIP3   OH231521   3.184   6.541   7.492 -0.0367 -0.6345 -0.1298
 3321TIP3    H131522   3.156   6.541   7.400 -0.5155  2.3216 -0.0587
 3321TIP3    H231523   3.279   6.531   7.488 -0.1588 -1.7223 -0.8571
 3322TIP3   OH231524   2.582   0.611   8.510 -0.5987 -0.0439  0.5583
 3322TIP3    H131525   2.520   0.683   8.512 -0.0073  0.5342 -0.5248
 3322TIP3    H231526   2.668   0.653   8.503 -0.3035 -0.8293 -1.0816
 3323TIP3   OH231527   1.020   5.004   0.270 -0.3970 -0.2998 -0.4478
 3323TIP3    H131528   0.932   4.970   0.256 -1.3241  0.2811  3.1322
 3323TIP3    H231529   1.007   5.093   0.303  1.7169  0.8303 -2.3425
 3324TIP3   OH231530   6.404   1.757   1.742 -0.5608 -0.0813 -0.4622
 3324TIP3    H131531   6.392   1.851   1.732  0.8801  0.1497 -0.0946
 3324TIP3    H231532   6.402   1.742   1.836 -1.9679 -0.6134 -0.5405
 3325TIP3   OH231533   4.206   3.589   0.663 -0.8128 -0.7792 -0.3114
 3325TIP3    H131534   4.214   3.668   0.718 -0.6558 -1.5867  0.8605
 3325TIP3    H231535   4.295   3.573   0.632 -0.6510 -1.0573  0.2770
 3326TIP3   OH231536   2.339   1.182   1.064  0.0505 -0.1129  0.1985
 3326TIP3    H131537   2.249   1.181   1.032  0.1646  1.8723 -0.3519
 3326TIP3    H231538   2.340   1.249   1.133  0.7790 -1.2122  1.2837
 3327TIP3   OH231539   0.445   2.597   6.527  0.7755 -0.5486  0.2418
 3327TIP3    H131540   0.502   2.649   6.471 -0.0140 -1.0025 -1.0484
 3327TIP3    H231541   0.432   2.650   6.605  2.4334 -0.1711  0.2997
 3328TIP3   OH231542   0.474   0.829   7.253  0.4913 -0.4998 -0.3228
 3328TIP3    H131543   0.537   0.899   7.235  1.2431 -0.7929  1.0756
 3328TIP3    H231544   0.469   0.825   7.348  0.2664 -2.1885 -0.3807
 3329TIP3   OH231545   3.293   6.739   7.073  0.2742  0.4888 -0.4254
 3329TIP3    H131546   3.231   6.737   7.000 -0.0899  2.9035 -0.2825
 3329TIP3    H231547   3.263   6.671   7.132 -1.2203  0.4766 -1.1574
 3330TIP3   OH231548   1.989   6.116   1.194  0.3315 -0.2636  0.4582
 3330TIP3    H131549   2.048   6.180   1.234 -0.1660 -0.4954  1.6140
 3330TIP3    H231550   2.010   6.034   1.238 -1.3407 -0.2073  1.4828
 3331TIP3   OH231551   6.089   4.783   1.489  0.5293  0.0883  0.2792
 3331TIP3    H131552   6.026   4.836   1.538 -0.6412  1.0765 -2.1400
 3331TIP3    H231553   6.049   4.696   1.487 -0.0747  0.3664 -0.0392
 3332TIP3   OH231554   3.953   4.415   6.866 -0.7254 -0.5783 -0.3161
 3332TIP3    H131555   3.931   4.403   6.773 -0.7836 -2.0429 -0.1425
 3332TIP3    H231556   3.883   4.470   6.900 -0.0838  0.9714 -1.3680
 3333TIP3   OH231557   3.153   1.764   0.898  0.2796 -0.7613  0.4422
 3333TIP3    H131558   3.199   1.694   0.943  1.4552  0.9912  2.1368
 3333TIP3    H231559   3.060   1.743   0.909  0.5684 -2.9405 -0.6923
 3334TIP3   OH231560   3.478   5.983   1.001  0.3244 -0.9062  0.5873
 3334TIP3    H131561   3.573   5.986   1.004  0.3018  0.5639  0.8987
 3334TIP3    H231562   3.456   5.892   0.983  1.8224 -1.0578 -0.6787
 3335TIP3   OH231563   0.501   5.739   1.094  0.2632 -0.5660 -0.2960
 3335TIP3    H131564   0.562   5.667   1.114  0.1674 -0.0340  2.3508
 3335TIP3    H231565   0.558   5.815   1.079  0.3960  0.0014  2.4702
 3336TIP3   OH231566   4.214   3.815   6.417  0.2823  0.3162 -0.3107
 3336TIP3    H131567   4.181   3.838   6.330 -0.3369  3.4679  0.6148
 3336TIP3    H231568   4.283   3.880   6.433 -1.0919  1.2744  2.3362
 3337TIP3   OH231569   1.829   6.634   7.294  0.1789  0.6988  0.2728
 3337TIP3    H131570   1.817   6.644   7.389 -0.3121 -0.7684  0.3904
 3337TIP3    H231571   1.852   6.541   7.283 -0.0215  0.7943 -1.0688
 3338TIP3   OH231572   5.800   1.075   8.487 -0.3407  0.0355 -0.3835
 3338TIP3    H131573   5.726   1.020   8.463 -0.2457 -0.3413  0.1723
 3338TIP3    H231574   5.844   1.027   8.558  0.2769  0.3810 -0.5248
 3339TIP3   OH231575   6.092   1.265   7.072  0.2053  0.0770 -0.2193
 3339TIP3    H131576   6.088   1.359   7.056  2.1336  0.2211 -0.0641
 3339TIP3    H231577   6.041   1.252   7.152  2.8085  1.5747  1.8365
 3340TIP3   OH231578   0.129   4.574   7.795 -0.1285 -0.4021  0.2096
 3340TIP3    H131579   0.110   4.625   7.716  2.2253  1.1936  0.5802
 3340TIP3    H231580   0.224   4.565   7.795 -0.2235 -2.0550  1.8952
 3341TIP3   OH231581   6.799   6.347   6.671  0.0006 -1.0021  0.2817
 3341TIP3    H131582   6.849   6.368   6.592  0.6788 -0.9944  0.7100
 3341TIP3    H231583   6.714   6.319   6.638 -0.1978  0.3355 -0.3980
 3342TIP3   OH231584   5.184   0.549   1.554 -0.1627 -0.3846  0.6458
 3342TIP3    H131585   5.275   0.525   1.575  0.6795 -0.3169 -2.4406
 3342TIP3    H231586   5.175   0.638   1.587  2.2517  1.0730 -2.2063
 3343TIP3   OH231587   4.737   4.586   2.139 -0.5236  0.3052  0.0210
 3343TIP3    H131588   4.687   4.524   2.086 -1.8305  2.6266 -1.6592
 3343TIP3    H231589   4.708   4.672   2.110  1.5738  1.7745  1.8525
 3344TIP3   OH231590   1.600   5.549   8.564 -0.4317  0.2651  0.5612
 3344TIP3    H131591   1.659   5.483   8.527 -2.0120 -1.1540  0.4823
 3344TIP3    H231592   1.640   5.571   8.648  1.6199  1.3544 -0.6056
 3345TIP3   OH231593   5.639   2.488   7.886  0.3212 -0.6115 -0.2151
 3345TIP3    H131594   5.732   2.465   7.883  0.2956 -0.6765 -0.5668
 3345TIP3    H231595   5.611   2.465   7.975  0.7546 -0.1498  0.0500
 3346TIP3   OH231596   0.204   4.016   7.621  0.0140  0.3569 -0.3117
 3346TIP3    H131597   0.228   3.964   7.544  2.0265  0.2833  0.3216
 3346TIP3    H231598   0.143   4.082   7.587  0.6670  0.1858 -1.9230
 3347TIP3   OH231599   5.314   0.184   6.679 -0.1547 -0.5373  0.1806
 3347TIP3    H131600   5.240   0.123   6.677 -1.0879  0.5253 -1.9654
 3347TIP3    H231601   5.350   0.180   6.590  1.3242  0.2155  0.7172
 3348TIP3   OH231602   1.438   4.196   0.250  0.1096  0.5018 -0.3405
 3348TIP3    H131603   1.511   4.147   0.288 -0.5415 -0.0231  0.2578
 3348TIP3    H231604   1.380   4.214   0.324 -0.9244 -0.0790 -0.9761
 3349TIP3   OH231605   6.476   6.318   0.043 -0.5608 -0.2547 -0.0581
 3349TIP3    H131606   6.437   6.352  -0.037 -0.1534  0.7183  0.1488
 3349TIP3    H231607   6.542   6.256   0.013 -0.3416  0.1776 -0.4773
 3350TIP3   OH231608   6.593   0.143   2.129 -0.0303 -0.1184  0.1665
 3350TIP3    H131609   6.592   0.086   2.052  0.2671  1.0120 -0.7081
 3350TIP3    H231610   6.668   0.113   2.180 -0.3506 -1.0140  0.1312
 3351TIP3   OH231611   6.587   2.753   1.353 -0.1510  0.8130  0.4636
 3351TIP3    H131612   6.514   2.792   1.400 -0.3946 -0.4424  1.1911
 3351TIP3    H231613   6.665   2.781   1.402 -0.2203  1.2870  0.3090
 3352TIP3   OH231614   5.692   5.732   8.345  0.6913  0.3524 -0.0858
 3352TIP3    H131615   5.658   5.763   8.261  0.7318 -0.6724 -0.4864
 3352TIP3    H231616   5.689   5.809   8.402 -2.6184  0.2634  0.0322
 3353TIP3   OH231617   5.170   2.651   8.323 -0.2411  0.0693  0.6281
 3353TIP3    H131618   5.160   2.668   8.229 -2.0979  0.3516  0.8218
 3353TIP3    H231619   5.157   2.736   8.364  0.0194 -0.1493  1.1692
 3354TIP3   OH231620   1.287   4.360   6.369 -0.2363 -0.2819 -0.2383
 3354TIP3    H131621   1.351   4.306   6.322 -0.8511 -0.9417 -0.3323
 3354TIP3    H231622   1.217   4.299   6.391  0.2830 -0.1490  2.0510
 3355TIP3   OH231623   5.837   6.577   1.370 -0.0063  0.2520  0.8261
 3355TIP3    H131624   5.753   6.615   1.396 -0.7265 -0.2301 -0.6660
 3355TIP3    H231625   5.813   6.497   1.323  1.2118  0.7977 -0.8221
 3356TIP3   OH231626   2.599   5.068   8.084  0.0983  0.1316  0.1712
 3356TIP3    H131627   2.647   5.094   8.005  0.0362  1.4778  0.5654
 3356TIP3    H231628   2.593   4.973   8.077 -0.4640  0.2558 -1.7798
 3357TIP3   OH231629   3.899   3.932   7.887  0.3259  0.0564  0.1866
 3357TIP3    H131630   3.892   3.837   7.896 -0.9730  0.1174 -0.0465
 3357TIP3    H231631   3.987   3.946   7.850  1.3092 -0.9104  2.0082
 3358TIP3   OH231632   5.026   1.034   0.834  0.0742 -0.2254  0.3828
 3358TIP3    H131633   5.038   0.949   0.876  1.6690 -0.9716 -1.4245
 3358TIP3    H231634   5.085   1.092   0.882 -0.7326 -0.1973  1.3775
 3359TIP3   OH231635   6.476   4.837   7.838 -0.7926  0.0418 -0.5200
 3359TIP3    H131636   6.389   4.837   7.878 -0.8203  2.3685 -0.4134
 3359TIP3    H231637   6.496   4.745   7.822 -3.5890 -0.5201 -1.2763
 3360TIP3   OH231638   3.997   1.444   1.966  0.5122 -0.3032  0.2142
 3360TIP3    H131639   4.004   1.530   2.008 -3.0035  0.3710 -0.2097
 3360TIP3    H231640   3.936   1.458   1.894  1.1512 -2.8513 -0.9239
 3361TIP3   OH231641   2.173   2.586   8.344 -0.7727  0.0028 -0.5856
 3361TIP3    H131642   2.110   2.657   8.335  0.0342  0.7602 -0.3826
 3361TIP3    H231643   2.141   2.535   8.418 -0.5945  0.9775  0.1803
 3362TIP3   OH231644   6.155   2.544   7.943 -0.1633 -0.2017 -0.3119
 3362TIP3    H131645   6.238   2.580   7.912 -1.3334  3.0901  0.0549
 3362TIP3    H231646   6.109   2.618   7.982 -2.5212 -2.3095  1.2230
 3363TIP3   OH231647   5.874   1.258   8.323  0.0738  0.8703  0.4371
 3363TIP3    H131648   5.950   1.218   8.281 -1.0667  0.7133 -1.6076
 3363TIP3    H231649   5.842   1.192   8.384 -0.5244 -0.5763 -1.3444
 3364TIP3   OH231650   1.355   0.899   6.955 -0.1009 -0.2724  0.0447
 3364TIP3    H131651   1.295   0.964   6.918 -1.7953 -1.0796  1.2398
 3364TIP3    H231652   1.423   0.890   6.889 -0.7712  1.3961 -0.9474
 3365TIP3   OH231653   5.740   6.412   0.175 -0.2826  0.1509 -0.7262
 3365TIP3    H131654   5.689   6.484   0.136 -0.9278 -0.2096 -0.5567
 3365TIP3    H231655   5.796   6.455   0.239  1.0307  0.8044 -2.2430
 3366TIP3   OH231656   4.848   1.761   1.211 -0.0633  0.1952 -0.1663
 3366TIP3    H131657   4.879   1.686   1.160  0.0778 -0.3845  0.7545
 3366TIP3    H231658   4.898   1.835   1.176 -0.3700 -0.0784 -1.2447
 3367TIP3   OH231659   5.390   1.626   8.485  0.5845 -0.7957  0.0397
 3367TIP3    H131660   5.396   1.569   8.561 -0.4937 -0.3386  0.4927
 3367TIP3    H231661   5.313   1.594   8.437 -0.0039  0.2007  0.2674
 3368TIP3   OH231662   6.236   0.938   6.069 -0.4743  0.2132 -0.3954
 3368TIP3    H131663   6.310   0.979   6.113  0.1643  1.1189 -2.1889
 3368TIP3    H231664   6.276   0.880   6.004 -1.3510 -0.4473 -0.3642
 3369TIP3   OH231665   0.733   3.376   1.160 -0.0965 -0.5684  0.0790
 3369TIP3    H131666   0.718   3.284   1.180 -0.0471 -0.2757  1.5756
 3369TIP3    H231667   0.817   3.396   1.202  0.8086 -0.2724 -1.7651
 3370TIP3   OH231668   3.215   0.109   7.134 -0.3032 -0.0264 -0.8710
 3370TIP3    H131669   3.273   0.171   7.091 -1.8231  0.2610 -2.6335
 3370TIP3    H231670   3.239   0.024   7.098  1.9001 -0.6082  1.6750
 3371TIP3   OH231671   6.860   5.902   0.559  0.4006 -0.1642 -0.4204
 3371TIP3    H131672   6.816   5.976   0.600  1.1851 -0.1949  0.5159
 3371TIP3    H231673   6.908   5.860   0.631 -0.2520 -1.7523 -0.8618
 3372TIP3   OH231674   3.505   6.717   0.897 -0.1961  0.1322  0.2802
 3372TIP3    H131675   3.438   6.673   0.951 -0.9728  0.9040 -0.0211
 3372TIP3    H231676   3.587   6.703   0.944 -0.3050 -2.1140 -0.1012
 3373TIP3   OH231677   6.716   4.922   8.045 -0.4161  0.5000  0.2349
 3373TIP3    H131678   6.680   4.921   8.134  0.4649 -0.8958  0.6069
 3373TIP3    H231679   6.690   4.838   8.008 -0.8517  1.1068 -0.8846
 3374TIP3   OH231680   1.761   4.024   1.563  0.2999 -0.0676  0.8737
 3374TIP3    H131681   1.766   3.984   1.476 -2.6794  0.9434  0.1253
 3374TIP3    H231682   1.797   4.112   1.551 -0.5376  0.2356  0.5167
 3375TIP3   OH231683   5.702   0.166   0.016  0.5460  0.6462  0.8087
 3375TIP3    H131684   5.758   0.234   0.053  3.0484  0.0438 -1.5579
 3375TIP3    H231685   5.658   0.208  -0.057 -0.5399  0.5424  1.3742
 3376TIP3   OH231686   5.752   6.087   1.955 -0.0616  0.5228  0.5496
 3376TIP3    H131687   5.839   6.094   1.993  0.6147  0.9952 -1.0019
 3376TIP3    H231688   5.708   6.167   1.981  0.9912  1.6806 -1.0061
 3377TIP3   OH231689   4.167   4.773   0.599 -0.5522 -1.0397  0.3632
 3377TIP3    H131690   4.174   4.683   0.567  0.7665  0.0716 -2.7981
 3377TIP3    H231691   4.098   4.812   0.545  2.0375  1.0406 -1.7039
 3378TIP3   OH231692   3.288   1.488   1.510  0.2522  0.1781  0.3701
 3378TIP3    H131693   3.375   1.454   1.491 -0.0474  0.0241 -0.8012
 3378TIP3    H231694   3.291   1.512   1.602  1.2194 -0.7764  0.6082
 3379TIP3   OH231695   4.795   1.021   6.676  0.2986 -0.6483  0.0781
 3379TIP3    H131696   4.716   0.980   6.710  0.0136 -0.8353 -0.8146
 3379TIP3    H231697   4.863   0.955   6.686  0.1891 -0.7481  0.1617
 3380TIP3   OH231698   0.724   3.107   1.216 -0.3938  0.5325 -0.0024
 3380TIP3    H131699   0.797   3.079   1.272 -0.1896  0.7523 -0.1535
 3380TIP3    H231700   0.666   3.031   1.211  0.0069  0.2368 -0.1764
 3381TIP3   OH231701   1.558   6.186   1.853 -0.4876  0.1508  0.2983
 3381TIP3    H131702   1.599   6.269   1.878  0.1223  0.1650 -0.6738
 3381TIP3    H231703   1.563   6.185   1.757  1.4143 -1.9318  0.3399
 3382TIP3   OH231704   1.069   1.804   7.003  0.4761 -0.0837 -0.0544
 3382TIP3    H131705   0.973   1.809   6.995  0.3039 -1.8638  0.4861
 3382TIP3    H231706   1.098   1.895   6.998 -1.3438  0.6076  0.8870
 3383TIP3   OH231707   4.461   0.547   0.503  0.1847 -0.2980  0.0258
 3383TIP3    H131708   4.542   0.496   0.497 -0.3119 -1.2255  0.8331
 3383TIP3    H231709   4.487   0.636   0.480  1.6021 -0.4215  1.0079
 3384TIP3   OH231710   1.615   2.403   1.320 -0.0499 -0.1561 -0.0002
 3384TIP3    H131711   1.598   2.311   1.337 -1.0501  0.3246  1.9483
 3384TIP3    H231712   1.583   2.448   1.398  0.1934  1.8654 -0.9914
 3385TIP3   OH231713   2.410   0.687   6.516 -0.8688 -0.4345  0.7299
 3385TIP3    H131714   2.435   0.759   6.459 -1.2814  0.7693  2.0039
 3385TIP3    H231715   2.467   0.614   6.490  0.9527  0.9316  0.7096
 3386TIP3   OH231716   0.427   5.851   2.177 -0.1405  0.3412 -0.2666
 3386TIP3    H131717   0.506   5.801   2.197  0.2745  0.3472 -1.7718
 3386TIP3    H231718   0.456   5.942   2.179 -0.4298  0.4269  0.4611
 3387TIP3   OH231719   2.972   6.098   8.045 -0.3484  0.4083 -0.3502
 3387TIP3    H131720   3.038   6.060   7.986  0.7074  0.7256  0.5969
 3387TIP3    H231721   3.019   6.166   8.093 -1.7032  1.5375 -0.5612
 3388TIP3   OH231722   4.584   2.982   8.404 -0.3365 -0.3701 -0.6640
 3388TIP3    H131723   4.654   3.010   8.344  0.2813 -2.0221 -0.7652
 3388TIP3    H231724   4.625   2.979   8.490 -0.7084  0.1635 -0.4666
 3389TIP3   OH231725   2.206   5.547   8.378  0.5061  0.3191  0.4583
 3389TIP3    H131726   2.168   5.478   8.324 -1.2212  1.1610  0.5207
 3389TIP3    H231727   2.301   5.531   8.375  0.1890 -1.7933  0.1757
 3390TIP3   OH231728   6.709   0.826   5.736  0.3624 -0.0196 -0.0945
 3390TIP3    H131729   6.773   0.758   5.756  1.6769  1.5099  1.1541
 3390TIP3    H231730   6.688   0.813   5.644 -1.2945 -3.5867  0.6102
 3391TIP3   OH231731   3.625   5.019   1.479  0.2697 -0.0463  0.6159
 3391TIP3    H131732   3.698   5.082   1.474 -0.5360  0.8754  0.1776
 3391TIP3    H231733   3.654   4.956   1.545  1.8554 -0.2265 -0.1866
 3392TIP3   OH231734   4.548   4.745   0.269 -0.5100 -0.0475 -0.1616
 3392TIP3    H131735   4.500   4.826   0.249  0.3902  0.4856 -0.2165
 3392TIP3    H231736   4.543   4.737   0.364 -0.1612  0.3637 -0.1034
 3393TIP3   OH231737   5.509   0.519   1.464 -0.0804  0.3473 -0.5533
 3393TIP3    H131738   5.468   0.433   1.461 -2.3856  1.2405  2.0872
 3393TIP3    H231739   5.603   0.500   1.471 -0.6476 -2.0455  2.0009
 3394TIP3   OH231740   1.021   3.196   7.222  0.3841 -0.9270  0.0928
 3394TIP3    H131741   0.994   3.232   7.306  0.9332 -1.4832  0.5144
 3394TIP3    H231742   1.116   3.185   7.229  0.8304  1.2320 -1.4603
 3395TIP3   OH231743   3.389   0.749   6.488  0.4915 -0.0719  0.1462
 3395TIP3    H131744   3.458   0.767   6.425  0.6463  0.6092  0.5001
 3395TIP3    H231745   3.317   0.807   6.462 -1.0528 -2.6915 -1.9034
 3396TIP3   OH231746   5.238   2.453   8.498 -0.2965 -0.3207 -0.5493
 3396TIP3    H131747   5.143   2.441   8.494 -0.6223  0.6684  1.9394
 3396TIP3    H231748   5.255   2.531   8.445 -1.0567  0.1717 -0.0825
 3397TIP3   OH231749   3.582   5.182   6.658 -0.4195 -0.2929 -0.3521
 3397TIP3    H131750   3.509   5.184   6.720 -2.2152 -0.4812 -2.3178
 3397TIP3    H231751   3.551   5.232   6.583  1.8263  0.2904 -0.9714
 3398TIP3   OH231752   1.115   1.363   8.470  0.3477  0.3512  0.0041
 3398TIP3    H131753   1.200   1.394   8.437  0.8936 -1.5461 -0.5121
 3398TIP3    H231754   1.127   1.268   8.480 -1.5319  0.1405  0.5305
 3399TIP3   OH231755   2.870   6.260   0.380 -0.4747  0.4871  0.0322
 3399TIP3    H131756   2.802   6.205   0.342  0.2212  0.1514 -0.7536
 3399TIP3    H231757   2.823   6.323   0.435 -1.2775 -1.0998  1.2419
 3400TIP3   OH231758   3.035   6.704   0.494 -0.3993 -0.9309  0.8320
 3400TIP3    H131759   3.037   6.743   0.582  0.0079 -1.1005  0.8993
 3400TIP3    H231760   3.119   6.730   0.455 -0.3331 -1.3396  0.7044
 3401TIP3   OH231761   6.074   2.042   1.058  0.2660  0.1205 -0.6618
 3401TIP3    H131762   6.097   1.967   1.003  1.4917  0.4124 -0.5780
 3401TIP3    H231763   6.116   2.117   1.016  0.7306  0.4403  0.3348
 3402TIP3   OH231764   0.045   4.596   6.158 -0.0969  0.0204  0.2379
 3402TIP3    H131765   0.006   4.683   6.155 -0.8775 -0.3285 -0.1112
 3402TIP3    H231766  -0.030   4.537   6.168  0.2229 -0.7457 -1.5354
 3403TIP3   OH231767   2.559   1.307   6.475 -0.5497  0.3668 -0.2850
 3403TIP3    H131768   2.511   1.383   6.441 -1.9762 -0.7122 -0.7953
 3403TIP3    H231769   2.506   1.232   6.449  0.9671 -0.8394 -0.0359
 3404TIP3   OH231770   4.118   2.104   6.734  0.1816  0.7667  0.0554
 3404TIP3    H131771   4.076   2.184   6.703  1.3888  1.5070  0.2402
 3404TIP3    H231772   4.129   2.051   6.655 -2.8726 -0.3788  0.2729
 3405TIP3   OH231773   4.560   4.978   6.692  0.2438 -0.0781 -0.6488
 3405TIP3    H131774   4.574   5.024   6.609 -0.4174 -0.2659 -0.8682
 3405TIP3    H231775   4.492   4.914   6.673  0.0217 -0.0609  0.0633
 3406TIP3   OH231776   1.860   6.773   1.489 -0.4520  0.6708  0.7634
 3406TIP3    H131777   1.834   6.688   1.524  0.6513  0.1246  0.3008
 3406TIP3    H231778   1.929   6.803   1.548  0.1542  0.5770  0.1092
 3407TIP3   OH231779   6.853   3.325   7.307 -0.1659  0.7534 -0.8698
 3407TIP3    H131780   6.890   3.239   7.327  1.0282  1.5501  0.5339
 3407TIP3    H231781   6.794   3.309   7.233  0.5166 -1.1443 -1.0624
 3408TIP3   OH231782   4.422   3.972   8.550  0.1844  0.1477 -0.0463
 3408TIP3    H131783   4.343   3.919   8.545  0.4345 -0.1656 -0.7745
 3408TIP3    H231784   4.494   3.909   8.557  0.4078  0.4163  0.1518
 3409TIP3   OH231785   5.038   1.670   8.085  0.2089  0.6498  0.1296
 3409TIP3    H131786   5.111   1.635   8.135  0.4407  0.9143 -0.0191
 3409TIP3    H231787   5.008   1.596   8.032 -0.9341 -0.0219  1.6580
 3410TIP3   OH231788   2.843   6.036   1.139  0.2783 -0.1510 -0.3291
 3410TIP3    H131789   2.872   5.999   1.222 -1.7805 -0.4141  0.3252
 3410TIP3    H231790   2.829   6.129   1.157 -0.6047 -0.2951 -0.2454
 3411TIP3   OH231791   5.070   0.484   7.196 -0.3897  0.6766 -0.4965
 3411TIP3    H131792   5.038   0.411   7.143 -1.5568 -0.4403  1.6234
 3411TIP3    H231793   5.138   0.446   7.252 -1.7305  0.8936  1.3674
 3412TIP3   OH231794   4.629   3.641   5.844 -0.1595 -0.1742  0.7167
 3412TIP3    H131795   4.593   3.612   5.928 -1.1292 -1.8082 -0.2017
 3412TIP3    H231796   4.694   3.707   5.867 -2.9107  2.1158  2.5641
 3413TIP3   OH231797   2.026   5.567   2.460  0.2093 -0.0873 -0.0100
 3413TIP3    H131798   2.116   5.600   2.463  0.3584 -0.2167 -1.9581
 3413TIP3    H231799   2.024   5.508   2.385 -1.4367 -0.3203  0.1730
 3414TIP3   OH231800   1.679   4.651   8.500 -0.0889 -0.0359 -0.7605
 3414TIP3    H131801   1.680   4.564   8.542  1.4515  0.2508 -0.1525
 3414TIP3    H231802   1.764   4.658   8.458  0.2926  1.6636  0.2259
 3415TIP3   OH231803   3.512   5.093   8.049  0.6175  0.0007  0.6682
 3415TIP3    H131804   3.606   5.086   8.061  0.6550 -0.5863  0.0850
 3415TIP3    H231805   3.493   5.037   7.974 -0.0399  1.0035  0.0540
 3416TIP3   OH231806   1.092   2.519   7.065 -0.3399 -0.4846  0.0332
 3416TIP3    H131807   1.004   2.557   7.071 -0.5057 -0.7913 -0.3528
 3416TIP3    H231808   1.079   2.426   7.087 -0.5985 -1.1355 -2.5074
 3417TIP3   OH231809   5.672   0.613   2.374  0.6653  0.8491 -0.2614
 3417TIP3    H131810   5.624   0.567   2.305  1.8321  1.4796 -1.5501
 3417TIP3    H231811   5.623   0.595   2.454  0.2363 -1.3965 -0.9503
 3418TIP3   OH231812   4.051   5.746   0.996  0.0507 -0.6021 -0.2350
 3418TIP3    H131813   4.086   5.740   1.085  1.0462  1.3716 -0.4327
 3418TIP3    H231814   3.996   5.824   0.997  2.0270  0.9722 -1.8755
 3419TIP3   OH231815   4.181   6.438   8.265 -0.1494 -0.1600 -0.3101
 3419TIP3    H131816   4.270   6.429   8.232 -0.1961 -0.4235 -0.3679
 3419TIP3    H231817   4.127   6.395   8.198 -0.2702 -0.4575 -0.0237
 3420TIP3   OH231818   4.242   3.591   1.647  0.3506 -0.2544 -0.0989
 3420TIP3    H131819   4.192   3.638   1.714 -0.6806 -2.0610  0.4811
 3420TIP3    H231820   4.307   3.541   1.696  1.8928  1.0353 -0.7550
 3421TIP3   OH231821   1.375   5.554   7.767  0.2409 -0.6799  0.7920
 3421TIP3    H131822   1.360   5.466   7.802  1.9564 -1.5600 -0.5585
 3421TIP3    H231823   1.358   5.546   7.673  0.5352  0.4045  0.6282
 3422TIP3   OH231824   0.826   3.232   6.714  0.2723  0.5486 -0.4402
 3422TIP3    H131825   0.744   3.272   6.685 -0.3315  0.2523  0.7680
 3422TIP3    H231826   0.826   3.145   6.674  0.3741  0.8262 -1.0527
 3423TIP3   OH231827   3.045   0.106   7.596  0.2592  0.0982  0.2695
 3423TIP3    H131828   3.018   0.021   7.632 -0.5058 -0.2361 -1.0260
 3423TIP3    H231829   2.964   0.142   7.559  1.1765 -0.0883 -2.0804
 3424TIP3   OH231830   6.288   1.295   6.706 -0.4777 -0.0465 -0.2253
 3424TIP3    H131831   6.206   1.249   6.728 -0.2568 -0.8330 -0.9698
 3424TIP3    H231832   6.322   1.325   6.790 -0.6494 -1.2442  0.2988
 3425TIP3   OH231833   5.668   0.007   7.398  0.7003  0.7035 -0.1852
 3425TIP3    H131834   5.758   0.034   7.412  0.3812  1.0227  1.4327
 3425TIP3    H231835   5.655  -0.066   7.459 -0.0145  0.3771 -0.7078
 3426TIP3   OH231836   5.742   5.332   7.934  0.2199  0.3517 -0.0342
 3426TIP3    H131837   5.818   5.297   7.886 -0.9004 -1.3523 -0.6677
 3426TIP3    H231838   5.686   5.370   7.866 -0.5363 -0.4542  0.1168
 3427TIP3   OH231839   3.479   5.130   0.844  0.1525  0.2978 -0.8468
 3427TIP3    H131840   3.541   5.126   0.917 -1.1077 -0.3705  0.2228
 3427TIP3    H231841   3.403   5.177   0.878 -0.6507 -0.4279 -1.5614
 3428TIP3   OH231842   6.721   0.805   0.537  0.2481  0.4631  0.5471
 3428TIP3    H131843   6.672   0.816   0.455  2.6947 -1.3508 -1.3182
 3428TIP3    H231844   6.750   0.893   0.559 -2.4835  1.3692  0.9317
 3429TIP3   OH231845   6.618   0.185   6.811  0.0102 -0.0653  0.5654
 3429TIP3    H131846   6.695   0.131   6.831 -2.9060 -4.9718  0.3874
 3429TIP3    H231847   6.624   0.201   6.717  0.6443 -0.7297  0.4821
 3430TIP3   OH231848   4.397   1.754   7.921  0.1050  0.6982 -0.2745
 3430TIP3    H131849   4.458   1.681   7.933  1.0767  1.5189 -0.1150
 3430TIP3    H231850   4.314   1.712   7.898  0.6813 -0.4476 -0.3322
 3431TIP3   OH231851   2.030   3.148   7.774  0.0160  0.3212 -0.5467
 3431TIP3    H131852   1.949   3.120   7.815  1.2392  0.6623  2.3358
 3431TIP3    H231853   2.081   3.067   7.764  0.2018  0.3879 -0.1768
 3432TIP3   OH231854   1.154   4.003   7.464 -0.4913  0.0254 -0.0055
 3432TIP3    H131855   1.188   3.953   7.538  2.6233  0.0402 -1.2390
 3432TIP3    H231856   1.100   3.941   7.416  0.4594 -1.1434  0.3794
 3433TIP3   OH231857   0.691   2.355   1.486  0.5329  0.0680  0.0912
 3433TIP3    H131858   0.604   2.315   1.476  0.3356  0.6313 -0.4875
 3433TIP3    H231859   0.675   2.437   1.532  0.4242  1.3227 -2.0368
 3434TIP3   OH231860   5.810   2.957   0.091  0.0618 -0.1692  0.4887
 3434TIP3    H131861   5.796   2.944   0.184  0.1788 -1.7515  0.3153
 3434TIP3    H231862   5.786   2.873   0.051  1.1248  0.0939 -0.7825
 3435TIP3   OH231863   6.005   3.683   0.720  0.2517  0.2811  0.1007
 3435TIP3    H131864   6.089   3.683   0.765  0.0201  0.5501  0.5398
 3435TIP3    H231865   5.944   3.644   0.783  0.3228 -1.2648 -0.7470
 3436TIP3   OH231866   3.796   4.778   2.372 -0.1258  0.7376  0.1403
 3436TIP3    H131867   3.787   4.691   2.409  0.3009  0.4018 -0.5183
 3436TIP3    H231868   3.760   4.771   2.284  2.2718  0.5002 -0.9070
 3437TIP3   OH231869   1.945   6.864   7.391  0.1175  0.4651 -0.6356
 3437TIP3    H131870   1.963   6.858   7.485  0.7597  1.2833 -0.6940
 3437TIP3    H231871   2.004   6.801   7.351 -0.6770 -0.4250 -0.4483
 3438TIP3   OH231872   2.704   2.659   1.170  0.1361 -0.0872 -0.1562
 3438TIP3    H131873   2.644   2.598   1.211  0.1972  0.2203  0.4072
 3438TIP3    H231874   2.683   2.744   1.209  1.1504 -0.0312  0.3036
 3439TIP3   OH231875   5.080   3.266   6.456 -0.0818  0.5675  0.1320
 3439TIP3    H131876   5.016   3.335   6.442  2.2346  2.5774 -1.3701
 3439TIP3    H231877   5.053   3.196   6.397 -1.3604  0.9918  0.1910
 3440TIP3   OH231878   0.786   1.156   7.845  0.2647 -0.0157 -0.1803
 3440TIP3    H131879   0.736   1.084   7.806 -0.8631  1.3315 -1.3483
 3440TIP3    H231880   0.821   1.120   7.926 -1.0242 -1.5950 -0.2724
 3441TIP3   OH231881   5.642   6.216   7.271  0.0082 -0.0052 -0.1385
 3441TIP3    H131882   5.649   6.310   7.283  0.4355  0.1425 -1.3319
 3441TIP3    H231883   5.551   6.195   7.291 -0.0646  0.6523  0.2051
 3442TIP3   OH231884   2.654   2.301   1.179 -0.0129  0.0272  0.2299
 3442TIP3    H131885   2.617   2.220   1.215  0.0084 -0.6884 -1.3127
 3442TIP3    H231886   2.742   2.276   1.149  0.2176  0.7751  0.2508
 3443TIP3   OH231887   3.546   3.857   6.731 -0.1424  0.9897 -0.5025
 3443TIP3    H131888   3.467   3.860   6.678 -1.2369 -1.2387  0.8489
 3443TIP3    H231889   3.516   3.868   6.821  0.9392 -0.6547  0.1137
 3444TIP3   OH231890   3.473   4.049   1.335  0.6421 -0.4097  0.5259
 3444TIP3    H131891   3.529   3.991   1.284 -0.6972 -2.2309  1.0060
 3444TIP3    H231892   3.494   4.030   1.426  1.1290  0.8799  0.7108
 3445TIP3   OH231893   1.493   2.104   5.965 -0.6284 -0.1484 -0.8187
 3445TIP3    H131894   1.542   2.050   5.902  0.0165 -0.1899 -0.2897
 3445TIP3    H231895   1.538   2.188   5.963  0.5698 -0.7028  0.9445
 3446TIP3   OH231896   4.622   0.879   1.129  0.3254  0.2956 -0.3780
 3446TIP3    H131897   4.602   0.808   1.069  1.1237 -0.9391  0.7584
 3446TIP3    H231898   4.672   0.942   1.078 -2.0229  1.0431 -1.9294
 3447TIP3   OH231899   3.354   5.065   1.419  0.4622 -0.0609 -0.4965
 3447TIP3    H131900   3.300   4.987   1.426  0.3350  0.1177  0.5892
 3447TIP3    H231901   3.436   5.042   1.464 -0.3310  1.0767  1.6427
 3448TIP3   OH231902   0.250   2.471   8.125  0.6200 -0.2173 -0.2191
 3448TIP3    H131903   0.168   2.511   8.154  1.1837  0.5630  0.3038
 3448TIP3    H231904   0.301   2.459   8.205  1.0435 -0.6426 -0.5500
 3449TIP3   OH231905   2.350   4.771   8.374 -0.1616 -0.7140  0.0263
 3449TIP3    H131906   2.422   4.798   8.317  0.4955 -1.1502  0.6283
 3449TIP3    H231907   2.277   4.755   8.314  0.0777  0.2417 -0.5446
 3450TIP3   OH231908   1.631   0.478   1.154 -0.1406  0.5238 -0.1463
 3450TIP3    H131909   1.675   0.490   1.069 -0.4353  0.1204 -0.3544
 3450TIP3    H231910   1.572   0.405   1.140 -0.9003  1.0804  0.1344
 3451TIP3   OH231911   6.140   2.315   7.668  0.0478  0.0626 -0.5333
 3451TIP3    H131912   6.156   2.369   7.745 -0.5417  0.5954 -0.7735
 3451TIP3    H231913   6.225   2.310   7.624  0.9514 -2.1172  1.2903
 3452TIP3   OH231914   2.775   2.197   8.433  0.1678  0.4707 -0.2747
 3452TIP3    H131915   2.694   2.193   8.484  0.2989 -1.9731 -0.1226
 3452TIP3    H231916   2.769   2.123   8.373  3.5217 -1.6962  1.7472
 3453TIP3   OH231917   3.537   4.484   0.865 -0.1183 -0.7407 -1.0254
 3453TIP3    H131918   3.625   4.449   0.849  2.2668  3.5385  1.0246
 3453TIP3    H231919   3.512   4.446   0.950  1.2808  0.3298 -0.0712
 3454TIP3   OH231920   6.406   0.574   8.362 -0.7955  0.1168  0.1147
 3454TIP3    H131921   6.487   0.568   8.412 -0.6231  0.4654 -0.1188
 3454TIP3    H231922   6.349   0.507   8.400 -1.0305  1.0334  1.4724
 3455TIP3   OH231923   1.109   3.060   6.026  0.3642 -0.2013  0.2302
 3455TIP3    H131924   1.102   3.148   6.063 -0.4037  0.7409 -1.9939
 3455TIP3    H231925   1.018   3.028   6.024  0.3644 -0.1514 -0.9563
 3456TIP3   OH231926   6.116   4.649   8.154  0.3895  0.2889 -0.1704
 3456TIP3    H131927   6.070   4.720   8.109 -0.4069  1.7513  2.6959
 3456TIP3    H231928   6.209   4.673   8.149  0.3797  0.1390 -1.3912
 3457TIP3   OH231929   5.238   5.169   7.662  0.3205  0.4070 -0.3890
 3457TIP3    H131930   5.153   5.180   7.620  1.0015 -0.2277 -2.0022
 3457TIP3    H231931   5.216   5.140   7.751 -1.1549 -0.8381 -1.0983
 3458TIP3   OH231932   4.338   4.462   1.747 -0.2989 -0.1883  0.5864
 3458TIP3    H131933   4.280   4.530   1.714  2.1332  2.0677  0.6496
 3458TIP3    H231934   4.317   4.456   1.840 -1.5037 -0.6070  0.3054
 3459TIP3   OH231935   2.418   1.280   6.862 -0.4341 -0.0916 -0.2700
 3459TIP3    H131936   2.351   1.252   6.925 -0.2111 -2.2306 -0.8853
 3459TIP3    H231937   2.472   1.341   6.911 -0.3236 -1.5986  1.6407
 3460TIP3   OH231938   5.285   1.491   7.263 -0.1708  0.1083 -0.0747
 3460TIP3    H131939   5.221   1.420   7.264  1.1957 -1.2127  1.7532
 3460TIP3    H231940   5.358   1.457   7.315  1.5891  1.9350 -1.2328
 3461TIP3   OH231941   5.854   2.082   6.496 -0.1477 -0.2764 -0.9079
 3461TIP3    H131942   5.875   2.020   6.426 -1.3392 -1.6300 -0.1086
 3461TIP3    H231943   5.773   2.124   6.468  0.6362  0.9579 -1.4311
 3462TIP3   OH231944   2.128   3.842   1.273 -0.5601  0.0699 -0.4070
 3462TIP3    H131945   2.124   3.856   1.178 -0.9488  2.0031 -0.1537
 3462TIP3    H231946   2.206   3.789   1.286  0.2790  0.9209 -1.7101
 3463TIP3   OH231947   1.296   2.913   0.475 -0.2960  0.5359 -0.3407
 3463TIP3    H131948   1.219   2.938   0.527  0.3520 -0.0333  0.9231
 3463TIP3    H231949   1.365   2.901   0.539  0.6343  0.1689 -1.3887
 3464TIP3   OH231950   6.301   3.601   0.168  0.9996  0.2261 -0.1365
 3464TIP3    H131951   6.354   3.681   0.161  3.7453 -1.4872 -0.3542
 3464TIP3    H231952   6.343   3.551   0.238  0.1333 -1.5767 -0.8639
 3465TIP3   OH231953   1.961   2.625   0.014 -0.3710  0.2632 -0.3032
 3465TIP3    H131954   2.049   2.655   0.038 -0.4152  0.2515 -0.1218
 3465TIP3    H231955   1.911   2.705  -0.002 -0.7117  0.3339  0.9705
 3466TIP3   OH231956   4.623   6.218   6.289  0.2844 -0.0687 -0.1654
 3466TIP3    H131957   4.656   6.306   6.304 -0.3739 -0.1491  2.3109
 3466TIP3    H231958   4.699   6.161   6.304  0.0359 -0.0331  1.4920
 3467TIP3   OH231959   0.865   4.542   7.931 -0.5665 -0.1509  0.4719
 3467TIP3    H131960   0.780   4.584   7.933  0.6685  2.5500  0.6636
 3467TIP3    H231961   0.880   4.522   7.839  0.2281  3.2576 -0.2916
 3468TIP3   OH231962   0.159   0.662   7.272 -0.3032 -0.8152 -0.2441
 3468TIP3    H131963   0.113   0.609   7.337  0.0995 -0.0711  0.6631
 3468TIP3    H231964   0.093   0.723   7.239  0.2941  1.1768  2.0494
 3469TIP3   OH231965   6.810   3.387   6.756  0.1039  0.5316 -0.0508
 3469TIP3    H131966   6.835   3.470   6.714 -0.1230  0.5237 -0.2095
 3469TIP3    H231967   6.793   3.328   6.683 -1.0130  0.7333  0.0263
 3470TIP3   OH231968   2.504   3.337   6.820  0.0211  0.0952  0.2341
 3470TIP3    H131969   2.475   3.372   6.736 -1.8840  1.6659  1.4393
 3470TIP3    H231970   2.485   3.244   6.816  0.6427  0.0153 -1.3286
 3471TIP3   OH231971   3.649   4.865   1.735  0.4457  0.3785 -0.2892
 3471TIP3    H131972   3.618   4.891   1.822  0.0691 -0.8676 -0.0354
 3471TIP3    H231973   3.678   4.774   1.745 -1.6681 -0.5674 -1.9393
 3472TIP3   OH231974   2.167   0.001   7.635 -0.4164  0.2417  0.2276
 3472TIP3    H131975   2.232  -0.059   7.599  1.3104  1.0195  1.8655
 3472TIP3    H231976   2.145  -0.037   7.721 -2.2224 -0.0431 -0.3241
 3473TIP3   OH231977   4.920   0.288   0.192  1.0503 -0.1487 -0.1560
 3473TIP3    H131978   4.950   0.218   0.250  2.2920  0.8430  0.4441
 3473TIP3    H231979   4.884   0.355   0.250 -1.7607 -0.9604 -0.8141
 3474TIP3   OH231980   2.876   4.874   6.406  0.8198 -0.2077  0.1259
 3474TIP3    H131981   2.930   4.947   6.377  0.3484  0.4780  0.9465
 3474TIP3    H231982   2.911   4.849   6.491 -0.5912  0.7522  1.0317
 3475TIP3   OH231983   1.200   0.308   8.091 -0.4809  0.2183 -0.4265
 3475TIP3    H131984   1.182   0.253   8.014 -1.4957 -0.9969  0.6512
 3475TIP3    H231985   1.285   0.277   8.122  1.2911  2.5170 -2.5300
 3476TIP3   OH231986   5.298   5.258   0.386 -0.1461  0.1080  0.3001
 3476TIP3    H131987   5.375   5.297   0.344  1.4115 -0.4399  2.4622
 3476TIP3    H231988   5.311   5.164   0.377 -1.1578  0.0047 -0.2484
 3477TIP3   OH231989   3.891   6.610   2.663 -0.3454  0.3211 -0.1122
 3477TIP3    H131990   3.915   6.685   2.717 -0.2757 -0.5452  1.1075
 3477TIP3    H231991   3.955   6.608   2.592 -0.0995  1.1543  0.0872
 3478TIP3   OH231992   4.469   6.090   7.772  0.2728 -0.0640  0.0614
 3478TIP3    H131993   4.454   6.184   7.782  0.9738 -0.0622  1.2600
 3478TIP3    H231994   4.412   6.064   7.699  0.4953  1.3852 -0.6634
 3479TIP3   OH231995   4.097   6.695   7.105 -0.1102  0.2290 -0.0774
 3479TIP3    H131996   4.027   6.681   7.169  0.1944 -1.9398 -0.1616
 3479TIP3    H231997   4.162   6.748   7.152 -0.9551  0.7211  0.5849
 3480TIP3   OH231998   2.327   6.193   6.575  0.1354 -0.3261 -0.3249
 3480TIP3    H131999   2.247   6.193   6.522  0.2830  0.4281 -0.5693
 3480TIP3    H232000   2.360   6.283   6.567  0.6455 -0.4514  0.3193
 3481TIP3   OH232001   4.548   5.307   6.546 -0.0509  0.4500 -0.6420
 3481TIP3    H132002   4.546   5.215   6.519  0.7541 -0.0364  0.8504
 3481TIP3    H232003   4.582   5.354   6.469  2.7819 -0.9639 -0.3511
 3482TIP3   OH232004   0.344   2.732   6.211 -0.1635 -0.0152 -0.5076
 3482TIP3    H132005   0.287   2.697   6.280  0.8530 -3.1972 -1.1198
 3482TIP3    H232006   0.430   2.739   6.253  0.0242  0.0391 -0.8979
 3483TIP3   OH232007   1.744   4.169   7.197 -0.9263  0.2421 -0.0750
 3483TIP3    H132008   1.796   4.089   7.204 -2.3949 -0.7205  0.3923
 3483TIP3    H232009   1.791   4.224   7.134  0.5372 -0.6477  0.2202
 3484TIP3   OH232010   3.526   5.646   0.474 -0.0220  0.0153 -0.0597
 3484TIP3    H132011   3.439   5.613   0.451  0.0903 -0.3065 -0.0193
 3484TIP3    H232012   3.520   5.666   0.568  0.0946 -0.4621  0.0479
 3485TIP3   OH232013   1.457   0.903   0.099  0.0515 -0.1224 -0.2091
 3485TIP3    H132014   1.490   0.963   0.166  1.2904  1.0642 -1.8048
 3485TIP3    H232015   1.362   0.915   0.101  0.2718  2.0229 -0.5504
 3486TIP3   OH232016   6.357   4.801   8.541 -0.4779 -0.3538  0.1881
 3486TIP3    H132017   6.346   4.885   8.496 -2.0817 -0.7391 -0.2096
 3486TIP3    H232018   6.327   4.818   8.631  0.1197 -0.2764  0.3805
 3487TIP3   OH232019   5.973   5.791   8.312 -0.3273  0.1797 -0.4139
 3487TIP3    H132020   6.025   5.783   8.392 -0.1152 -0.3898 -0.5969
 3487TIP3    H232021   5.890   5.749   8.333 -0.0955 -0.4107 -0.6296
 3488TIP3   OH232022   3.889   4.372   6.622  0.6241 -0.1602  0.0144
 3488TIP3    H132023   3.910   4.291   6.575 -1.0955 -2.2369  2.4977
 3488TIP3    H232024   3.824   4.415   6.566  0.0750 -1.5458 -0.4848
 3489TIP3   OH232025   4.965   2.718   7.698 -0.6124 -0.1536 -0.0341
 3489TIP3    H132026   4.922   2.797   7.664 -1.4947 -0.0755  1.1992
 3489TIP3    H232027   4.893   2.659   7.720  0.0405 -1.5948 -1.4919
 3490TIP3   OH232028   3.553   4.539   1.487  0.2334 -0.0932  0.0183
 3490TIP3    H132029   3.549   4.630   1.460  0.2378 -0.8413 -2.7381
 3490TIP3    H232030   3.596   4.494   1.415 -1.0273 -2.5065  0.6695
 3491TIP3   OH232031   0.045   1.741   6.764  0.5980  0.9050 -0.0623
 3491TIP3    H132032   0.111   1.750   6.833  1.7887  1.3123 -1.2036
 3491TIP3    H232033   0.082   1.677   6.704 -0.4096  0.5748 -0.3412
 3492TIP3   OH232034   0.973   5.118   8.257 -0.0559 -0.2409 -0.4039
 3492TIP3    H132035   0.975   5.212   8.241  1.2953 -0.1374  0.1710
 3492TIP3    H232036   0.890   5.088   8.220 -0.9106  1.3113  0.1676
 3493TIP3   OH232037   4.153   4.453   0.610  0.0171 -0.0774 -0.3383
 3493TIP3    H132038   4.057   4.453   0.618  0.1129  1.2532  1.4711
 3493TIP3    H232039   4.173   4.373   0.562 -1.8745 -1.4305  0.9610
 3494TIP3   OH232040   3.747   6.751   2.402  0.0924 -0.2337 -0.1525
 3494TIP3    H132041   3.680   6.774   2.467 -1.2974  1.8192 -2.1790
 3494TIP3    H232042   3.718   6.666   2.368 -1.5284  0.6058 -0.9659
 3495TIP3   OH232043   4.517   6.248   0.230 -0.8944 -1.1767 -0.0959
 3495TIP3    H132044   4.522   6.162   0.272  1.3393 -0.7119  0.7376
 3495TIP3    H232045   4.459   6.299   0.288  2.3586 -0.4566  2.8977
 3496TIP3   OH232046   1.262   4.286   1.414 -0.1720 -0.2860 -0.1502
 3496TIP3    H132047   1.310   4.346   1.471 -1.6325  0.4909  0.3101
 3496TIP3    H232048   1.256   4.205   1.464  0.0018 -0.1412  0.1055
 3497TIP3   OH232049   1.803   1.598   7.385 -0.1597  0.5601  0.9108
 3497TIP3    H132050   1.773   1.546   7.460 -0.8038 -0.5872 -0.1138
 3497TIP3    H232051   1.792   1.689   7.414 -0.5685  0.1450  2.1402
 3498TIP3   OH232052   6.094   2.809   0.248  0.5638  0.0803  0.2604
 3498TIP3    H132053   6.107   2.899   0.216 -1.6137  0.7609  1.1541
 3498TIP3    H232054   6.090   2.756   0.168  0.8814  0.9157 -0.3283
 3499TIP3   OH232055   2.694   3.367   7.051  0.6007  0.2043  0.0016
 3499TIP3    H132056   2.621   3.401   6.999  0.6653  0.1810 -0.1037
 3499TIP3    H232057   2.685   3.272   7.046 -0.6656  0.1856  1.8048
 3500TIP3   OH232058   4.292   4.148   5.947 -0.1542 -0.2899 -0.2275
 3500TIP3    H132059   4.257   4.062   5.967  0.6344 -1.0178 -1.8570
 3500TIP3    H232060   4.372   4.131   5.898 -1.0028  1.3468 -2.3299
 3501TIP3   OH232061   2.211   2.482   6.838  0.3722 -0.1172  0.2829
 3501TIP3    H132062   2.227   2.565   6.883 -1.7192  1.9026 -2.3453
 3501TIP3    H232063   2.166   2.507   6.757 -1.6751 -3.9496  0.0140
 3502TIP3   OH232064   5.686   4.191   8.011 -0.1985 -0.4014  0.4554
 3502TIP3    H132065   5.719   4.272   7.972 -1.2400 -1.0546 -2.0502
 3502TIP3    H232066   5.747   4.172   8.082  2.1625  0.7563 -1.0917
 3503TIP3   OH232067   2.141   3.057   1.490  0.0628 -0.5010  0.3222
 3503TIP3    H132068   2.223   3.105   1.500  0.4855 -1.0562 -0.3558
 3503TIP3    H232069   2.136   3.002   1.568  0.9030 -1.2741 -0.1499
 3504TIP3   OH232070   2.670   6.320   0.079  0.0076  0.0244  0.6174
 3504TIP3    H132071   2.605   6.384   0.108 -2.8965 -1.5251 -1.8473
 3504TIP3    H232072   2.636   6.236   0.109  0.6751 -0.8750 -1.0157
 3505TIP3   OH232073   1.755   4.902   8.302  0.1967 -0.2754 -0.1932
 3505TIP3    H132074   1.809   4.824   8.304 -0.1218 -0.7112 -3.2389
 3505TIP3    H232075   1.814   4.972   8.272 -0.4160 -0.3711 -1.7663
 3506TIP3   OH232076   4.630   5.796   7.408 -0.2842  0.0986 -0.5859
 3506TIP3    H132077   4.561   5.743   7.370 -0.7070  0.9591 -1.0471
 3506TIP3    H232078   4.628   5.775   7.501 -2.3800  1.3809 -0.2583
 3507TIP3   OH232079   4.399   4.755   8.104  0.1973 -0.0908 -0.5452
 3507TIP3    H132080   4.323   4.792   8.148 -0.4205 -1.6818 -0.2143
 3507TIP3    H232081   4.474   4.781   8.158 -0.3689 -0.5144  0.4610
 3508TIP3   OH232082   2.224   1.789   8.324 -0.6417  0.5273  0.0220
 3508TIP3    H132083   2.141   1.834   8.341 -0.1149  2.4192 -1.9451
 3508TIP3    H232084   2.200   1.711   8.275 -1.2822  1.1542 -0.6827
 3509TIP3   OH232085   3.625   3.237   8.337  0.1078 -0.2079 -0.3232
 3509TIP3    H132086   3.597   3.146   8.324  0.0230 -0.9039  3.4073
 3509TIP3    H232087   3.706   3.230   8.388 -0.1438  1.8044  0.4524
 3510TIP3   OH232088   0.136   6.065   8.434 -0.6087  0.0543 -0.2313
 3510TIP3    H132089   0.176   5.993   8.385 -1.4478  0.7092 -1.9449
 3510TIP3    H232090   0.046   6.071   8.399 -1.8487 -0.5300  2.5743
 3511TIP3   OH232091   0.602   5.975   6.677 -0.0330  0.3082 -0.0619
 3511TIP3    H132092   0.575   6.066   6.666 -2.3894 -0.1285  1.5888
 3511TIP3    H232093   0.598   5.939   6.588 -2.7677  0.8946 -0.2549
 3512TIP3   OH232094   1.763   4.066   1.853  0.0337  0.0752 -0.0524
 3512TIP3    H132095   1.773   4.161   1.855  0.9362  0.0212 -1.0355
 3512TIP3    H232096   1.782   4.042   1.762 -0.3433 -1.0291  0.1463
 3513TIP3   OH232097   4.499   1.592   7.524 -0.2167  0.0398 -0.1937
 3513TIP3    H132098   4.560   1.571   7.595 -0.4115 -0.1115 -0.0663
 3513TIP3    H232099   4.474   1.506   7.489  0.0215  0.1233 -0.5688
 3514TIP3   OH232100   3.892   5.225   2.488  0.4795  0.4740  0.4202
 3514TIP3    H132101   3.929   5.257   2.570 -0.1571  1.6777  0.2561
 3514TIP3    H232102   3.934   5.140   2.475 -0.3813 -0.3720  2.6539
 3515TIP3   OH232103   3.813   4.511   2.513 -0.8495  0.2703  0.0172
 3515TIP3    H132104   3.733   4.490   2.561 -0.3323 -1.2622  0.2831
 3515TIP3    H232105   3.871   4.437   2.530  0.1505  0.7209 -1.2360
 3516TIP3   OH232106   1.343   2.232   0.657 -0.5878  0.1699  0.9872
 3516TIP3    H132107   1.433   2.210   0.683 -0.1984 -1.4693 -1.4123
 3516TIP3    H232108   1.291   2.158   0.687 -1.1415  0.9743  2.0953
 3517TIP3   OH232109   1.213   3.273   8.119 -0.6175 -0.0996  0.1079
 3517TIP3    H132110   1.273   3.286   8.192 -0.8269  0.1966  0.2264
 3517TIP3    H232111   1.148   3.342   8.128  1.9044  3.0773 -3.0055
 3518TIP3   OH232112   0.584   6.710   0.151  0.1167 -0.5153 -0.0409
 3518TIP3    H132113   0.508   6.658   0.178  0.1967 -1.2155 -1.1013
 3518TIP3    H232114   0.637   6.649   0.100  0.5939  0.4060 -0.6689
 3519TIP3   OH232115   1.854   3.185   0.098  0.2083 -0.2155 -0.5592
 3519TIP3    H132116   1.766   3.188   0.061  0.2992  0.3221 -0.7344
 3519TIP3    H232117   1.904   3.132   0.035 -0.3558 -1.9004  0.3427
 3520TIP3   OH232118   4.008   3.517   1.357 -0.0517 -0.4973  0.3213
 3520TIP3    H132119   3.955   3.578   1.409 -0.6366 -0.5602 -0.1747
 3520TIP3    H232120   3.950   3.442   1.343 -0.0682 -0.3006 -0.7648
 3521TIP3   OH232121   1.454   0.137   8.392  0.0232 -0.1890  0.1143
 3521TIP3    H132122   1.415   0.217   8.427  0.0814 -0.3480  0.5374
 3521TIP3    H232123   1.380   0.079   8.375 -0.2156  0.6024 -1.9092
 3522TIP3   OH232124   0.045   0.934   1.628 -0.0730  0.1000  0.2598
 3522TIP3    H132125   0.113   1.000   1.617  1.1239 -1.0776  0.3570
 3522TIP3    H232126   0.015   0.945   1.718 -0.0510  0.6534  0.2009
 3523TIP3   OH232127   4.821   5.978   0.460 -0.3046  0.2872 -0.1368
 3523TIP3    H132128   4.828   5.885   0.480  0.1656  0.3696  0.0966
 3523TIP3    H232129   4.773   6.016   0.534 -0.4045  0.2468 -0.1813
 3524TIP3   OH232130   0.743   2.990   8.215 -0.3641 -0.1388  0.9997
 3524TIP3    H132131   0.658   3.003   8.257 -1.1780 -1.9365  0.0608
 3524TIP3    H232132   0.749   3.060   8.150 -1.7826 -0.7710  0.1444
 3525TIP3   OH232133   0.680   0.052   0.261  0.0379 -0.1963  0.0506
 3525TIP3    H132134   0.646  -0.029   0.224  0.3016  0.4694 -1.7252
 3525TIP3    H232135   0.769   0.030   0.289  0.5492 -0.2531 -1.5271
 3526TIP3   OH232136   2.822   3.102   6.327  0.1424  0.3274  0.0226
 3526TIP3    H132137   2.871   3.059   6.397  0.5599  0.5598 -0.1259
 3526TIP3    H232138   2.886   3.155   6.281 -0.0174 -0.2295 -0.8696
 3527TIP3   OH232139   4.461   3.221   1.698 -0.1402  0.0682  0.0929
 3527TIP3    H132140   4.504   3.280   1.760  0.0990 -0.0382  0.0322
 3527TIP3    H232141   4.386   3.185   1.746  0.1275 -0.1243  0.3706
 3528TIP3   OH232142   4.648   3.297   6.746 -0.3504 -0.5436 -0.1944
 3528TIP3    H132143   4.593   3.228   6.783 -0.9034 -0.8322 -1.5340
 3528TIP3    H232144   4.719   3.250   6.702  0.2529 -0.1988  0.3865
 3529TIP3   OH232145   6.122   6.708   1.069 -0.3423 -0.5412  0.0681
 3529TIP3    H132146   6.209   6.678   1.042 -0.5423  0.8961 -2.4894
 3529TIP3    H232147   6.062   6.650   1.023 -0.7350 -0.4381  0.4506
 3530TIP3   OH232148   0.708   2.148   5.754 -0.0192 -0.1115 -0.1432
 3530TIP3    H132149   0.637   2.118   5.810  0.1974  0.8771  0.6896
 3530TIP3    H232150   0.738   2.229   5.794  1.7787 -0.6446 -0.2953
 3531TIP3   OH232151   4.764   1.699   6.350  0.3572 -0.1298 -0.4229
 3531TIP3    H132152   4.797   1.756   6.420  2.5169  0.4388 -1.8246
 3531TIP3    H232153   4.738   1.760   6.281 -0.3788 -0.7401 -0.6912
 3532TIP3   OH232154   5.100   6.691   5.757 -0.1037 -0.1388 -0.1341
 3532TIP3    H132155   5.114   6.598   5.739  0.8482 -0.2336  0.9602
 3532TIP3    H232156   5.023   6.692   5.815 -1.8224  0.0078 -2.2735
 3533TIP3   OH232157   1.968   1.691   6.976 -0.0906 -0.0390  0.1124
 3533TIP3    H132158   1.942   1.744   6.900  2.9085  1.4058 -0.0415
 3533TIP3    H232159   2.034   1.631   6.942 -1.6269 -2.2226  0.8280
 3534TIP3   OH232160   2.344   5.340   7.107  0.2135 -0.5861  0.4064
 3534TIP3    H132161   2.347   5.433   7.130  1.9121 -0.6251  0.4622
 3534TIP3    H232162   2.288   5.336   7.030  0.9216  0.6181 -0.1937
 3535TIP3   OH232163   0.653   5.527   0.908  0.3840  0.6528 -0.3439
 3535TIP3    H132164   0.738   5.571   0.901 -0.2391  2.1265  0.8329
 3535TIP3    H232165   0.654   5.488   0.995 -0.3157  1.0796 -0.1408
 3536TIP3   OH232166   2.784   5.141   1.310 -0.5212  0.0266 -0.0304
 3536TIP3    H132167   2.692   5.116   1.301 -0.7238  0.3981  0.8878
 3536TIP3    H232168   2.826   5.103   1.233 -1.2515 -1.0313  0.0645
 3537TIP3   OH232169   0.331   2.999   7.326  0.3579  0.2588  0.9393
 3537TIP3    H132170   0.399   2.994   7.393 -1.0660  1.4234  2.5329
 3537TIP3    H232171   0.283   3.080   7.345 -1.3889 -0.4368 -0.2188
 3538TIP3   OH232172   1.372   0.320   6.962 -0.1049 -0.2302 -0.4020
 3538TIP3    H132173   1.338   0.308   6.873 -0.5100  0.6898 -0.3866
 3538TIP3    H232174   1.465   0.342   6.950 -0.0856 -0.4087 -0.5793
 3539TIP3   OH232175   1.838   3.464   8.074  0.3673 -0.1726  0.7471
 3539TIP3    H132176   1.907   3.406   8.041  0.5643  0.7030 -0.4492
 3539TIP3    H232177   1.874   3.552   8.064 -0.6121  0.2527  0.8753
 3540TIP3   OH232178   6.662   4.812   7.115 -0.0786  0.2562 -0.4362
 3540TIP3    H132179   6.600   4.837   7.047  0.3512 -0.2655 -1.0385
 3540TIP3    H232180   6.634   4.725   7.143  0.2568  0.0967 -0.5796
 3541TIP3   OH232181   5.944   4.734   0.992  0.9283  0.4595 -0.3750
 3541TIP3    H132182   5.974   4.775   1.073  0.2954  1.8249 -0.8048
 3541TIP3    H232183   5.870   4.787   0.964 -1.5067 -2.2888  0.2434
 3542TIP3   OH232184   5.744   4.080   1.367 -0.2462  0.1244 -0.0367
 3542TIP3    H132185   5.768   4.124   1.285 -0.2736  0.0122 -0.1051
 3542TIP3    H232186   5.783   4.134   1.436 -0.6696  0.5176 -0.0979
 3543TIP3   OH232187   3.981   5.055   6.644  0.2692 -0.2326  0.3495
 3543TIP3    H132188   3.988   5.137   6.692  0.9083 -0.3692  0.5074
 3543TIP3    H232189   4.013   5.077   6.556 -3.3121  0.6699 -0.8905
 3544TIP3   OH232190   0.694   5.591   7.788  0.2621  0.0700  0.1492
 3544TIP3    H132191   0.648   5.674   7.774 -0.2190  0.0002  1.2610
 3544TIP3    H232192   0.652   5.552   7.864 -0.1167 -1.6333 -0.8732
 3545TIP3   OH232193   2.804   2.057   7.331  0.0494  0.3192 -0.1395
 3545TIP3    H132194   2.793   2.122   7.401  0.5525  1.6129 -1.2361
 3545TIP3    H232195   2.730   2.073   7.272 -0.4243 -0.8312  0.1206
 3546TIP3   OH232196   3.226   4.077   0.408 -0.0561  0.0578 -0.0464
 3546TIP3    H132197   3.212   4.004   0.468 -1.8349  0.5732  0.2156
 3546TIP3    H232198   3.295   4.047   0.349  1.9123 -0.3876  2.3380
 3547TIP3   OH232199   5.173   2.552   1.575  0.2396  0.0154 -0.1604
 3547TIP3    H132200   5.264   2.570   1.551 -0.0175  0.8209 -0.5658
 3547TIP3    H232201   5.178   2.512   1.662  0.9754  0.1875 -0.1203
 3548TIP3   OH232202   3.830   0.251   7.954  0.4865  0.4577 -0.1937
 3548TIP3    H132203   3.818   0.269   8.047 -0.0897 -1.3641  0.1212
 3548TIP3    H232204   3.755   0.196   7.930  1.1266  0.1066 -1.5095
 3549TIP3   OH232205   2.994   2.318   7.025 -0.4922  0.0110 -0.4176
 3549TIP3    H132206   2.903   2.344   7.012  0.9204  5.3781 -1.7927
 3549TIP3    H232207   2.999   2.296   7.118 -2.7138  2.1712  0.3294
 3550TIP3   OH232208   1.247   4.010   1.005 -0.0147  0.2724  0.1287
 3550TIP3    H132209   1.209   3.932   1.044  0.3006 -0.5136 -1.0707
 3550TIP3    H232210   1.175   4.049   0.955 -0.2146  0.8499  0.8533
 3551TIP3   OH232211   2.555   2.193   0.557 -0.2184  0.5181  0.1427
 3551TIP3    H132212   2.554   2.100   0.531 -1.9311  0.2193  1.1332
 3551TIP3    H232213   2.639   2.205   0.600 -0.2645 -0.7761  0.6372
 3552TIP3   OH232214   0.997   2.866   1.203  0.1855 -0.0752 -0.1431
 3552TIP3    H132215   0.965   2.862   1.113 -0.3572 -1.1611  0.0864
 3552TIP3    H232216   0.928   2.826   1.255  1.1873 -0.9474  0.5539
 3553TIP3   OH232217   2.406   6.091   0.925 -0.0292  0.0811 -0.6931
 3553TIP3    H132218   2.463   6.015   0.935 -0.1569  0.1583  0.8347
 3553TIP3    H232219   2.328   6.058   0.880  0.9488 -0.1413 -2.2958
 3554TIP3   OH232220   5.656   2.207   2.200 -0.5001 -0.3350 -0.5700
 3554TIP3    H132221   5.736   2.201   2.148  0.7694 -0.2705  1.2829
 3554TIP3    H232222   5.633   2.300   2.199  0.3804 -0.1029  0.2100
 3555TIP3   OH232223   5.732   0.520   8.245 -0.1033  0.6545  0.2752
 3555TIP3    H132224   5.794   0.575   8.293  1.5067  0.5479 -1.5858
 3555TIP3    H232225   5.653   0.575   8.237  0.4403  1.5643  0.9555
 3556TIP3   OH232226   1.740   3.185   0.944 -0.0387 -0.4420  0.0942
 3556TIP3    H132227   1.656   3.150   0.976 -0.1368  0.8749  1.3712
 3556TIP3    H232228   1.806   3.138   0.994 -0.1468  0.6563  1.3096
 3557TIP3   OH232229   6.397   2.022   7.815  0.5529  0.1448  0.3819
 3557TIP3    H132230   6.302   2.030   7.816  0.0691 -3.4183 -1.3107
 3557TIP3    H232231   6.418   1.973   7.895  0.7482 -0.5215 -0.0716
 3558TIP3   OH232232   3.423   1.907   0.302  0.3600 -0.0277  0.4650
 3558TIP3    H132233   3.416   1.988   0.252  0.3150 -0.3453 -0.0447
 3558TIP3    H232234   3.515   1.882   0.295  0.1996 -0.4859 -0.1216
 3559TIP3   OH232235   4.435   6.263   8.475 -0.0404 -0.3212 -0.0751
 3559TIP3    H132236   4.447   6.249   8.569  1.4537 -2.8808 -0.5572
 3559TIP3    H232237   4.411   6.177   8.441  0.8422  0.2268 -2.2191
 3560TIP3   OH232238   5.741   5.371   2.117 -0.9222  0.2328 -0.1776
 3560TIP3    H132239   5.782   5.409   2.195  0.4407 -1.0105 -0.2500
 3560TIP3    H232240   5.715   5.447   2.065  2.1498  1.1908 -0.5436
 3561TIP3   OH232241   2.800   3.129   0.668  0.3645 -0.0010  0.1950
 3561TIP3    H132242   2.711   3.165   0.661 -0.2966 -1.7381 -0.8944
 3561TIP3    H232243   2.830   3.121   0.578  1.1515 -0.5778  0.4943
 3562TIP3   OH232244   5.019   5.244   7.504 -0.3670  0.6236 -0.0188
 3562TIP3    H132245   5.037   5.335   7.525 -0.6738  0.5968  0.3652
 3562TIP3    H232246   4.965   5.248   7.424 -1.7617  0.8601  0.8953
 3563TIP3   OH232247   2.206   4.733   0.416 -0.3662 -0.4113  0.1051
 3563TIP3    H132248   2.154   4.770   0.344  1.0284 -0.4297 -0.9704
 3563TIP3    H232249   2.148   4.669   0.457 -1.2507 -0.3275 -0.9575
 3564TIP3   OH232250   5.423   2.231   1.063  1.2045 -0.3730  0.3509
 3564TIP3    H132251   5.408   2.325   1.069  1.8424 -0.1770 -0.8250
 3564TIP3    H232252   5.360   2.201   0.996 -0.1054 -1.0730  1.8389
 3565TIP3   OH232253   5.303   1.562   8.140 -0.0654  0.5889  0.0652
 3565TIP3    H132254   5.343   1.527   8.060 -1.6523  0.2958 -0.6522
 3565TIP3    H232255   5.319   1.495   8.206 -1.0430 -0.4520 -0.7089
 3566TIP3   OH232256   5.313   1.297   8.275 -0.1871  0.2722 -0.3077
 3566TIP3    H132257   5.403   1.317   8.302  0.2252 -0.7468 -0.8320
 3566TIP3    H232258   5.321   1.213   8.229 -1.7172 -0.8809  1.4047
 3567TIP3   OH232259   4.578   3.826   7.598  0.1972 -0.2321  0.2170
 3567TIP3    H132260   4.650   3.838   7.660  0.1657 -0.1151  0.2318
 3567TIP3    H232261   4.606   3.872   7.519  0.4400 -0.7803 -0.0174
 3568TIP3   OH232262   3.635   0.056   7.983 -0.3412 -0.2732  0.4365
 3568TIP3    H132263   3.628   0.069   8.077  1.5530 -1.3404  0.7726
 3568TIP3    H232264   3.559   0.002   7.961 -0.6865 -0.1992  1.3945
 3569TIP3   OH232265   1.339   6.213   0.765 -0.6221 -0.4286  0.6010
 3569TIP3    H132266   1.391   6.147   0.720  0.0805  0.6457 -0.2011
 3569TIP3    H232267   1.345   6.190   0.857  1.1840 -0.4107  0.5126
 3570TIP3   OH232268   5.661   4.104   0.080 -0.3392  0.1872 -0.0866
 3570TIP3    H132269   5.598   4.045   0.038  0.4722 -0.8845  0.1532
 3570TIP3    H232270   5.638   4.099   0.173 -1.9450  2.3289 -0.2848
 3571TIP3   OH232271   5.392   5.912   2.079  0.2934 -0.1933 -0.1479
 3571TIP3    H132272   5.451   5.839   2.096  0.4240  0.0517  0.5212
 3571TIP3    H232273   5.423   5.981   2.139 -0.7592 -0.1174  0.3281
 3572TIP3   OH232274   3.043   4.579   6.817 -0.1302  0.1694  0.0298
 3572TIP3    H132275   3.061   4.531   6.737 -1.1091 -1.5690  0.7925
 3572TIP3    H232276   2.958   4.546   6.847  1.1632 -0.9205  2.9169
 3573TIP3   OH232277   4.325   3.111   8.321 -0.1247  0.6191  0.4824
 3573TIP3    H132278   4.376   3.035   8.350 -2.3927 -0.6054  1.4697
 3573TIP3    H232279   4.285   3.145   8.400 -0.5922  1.7616 -0.2237
 3574TIP3   OH232280   4.430   3.538   1.095 -0.3495  0.1450 -0.2300
 3574TIP3    H132281   4.340   3.510   1.109  0.5398 -2.0389  1.8689
 3574TIP3    H232282   4.465   3.553   1.182  1.0982  1.8411 -1.0437
 3575TIP3   OH232283   5.397   5.602   6.743  0.4009 -0.2652  0.5760
 3575TIP3    H132284   5.323   5.596   6.683  1.4661 -0.6063 -0.7583
 3575TIP3    H232285   5.398   5.518   6.790  0.2855 -0.4832  0.1866
 3576TIP3   OH232286   2.895   4.509   7.985 -0.1566  0.4037  0.0078
 3576TIP3    H132287   2.834   4.454   8.034 -2.1000  1.8016 -0.6878
 3576TIP3    H232288   2.958   4.448   7.946 -0.4602 -1.0037  1.6100
 3577TIP3   OH232289   2.247   4.480   7.930  0.4060  0.6866 -0.2912
 3577TIP3    H132290   2.274   4.539   7.860  1.6052 -0.0382 -0.4596
 3577TIP3    H232291   2.171   4.433   7.893  0.2450  1.2062 -0.6284
 3578TIP3   OH232292   4.589   2.055   1.322 -0.2492  0.4744 -0.3692
 3578TIP3    H132293   4.528   1.998   1.369 -0.4626  2.2990  1.7187
 3578TIP3    H232294   4.535   2.128   1.292  0.6304  1.4723  0.3895
 3579TIP3   OH232295   5.007   5.828   1.223 -0.3089  0.5422 -0.8220
 3579TIP3    H132296   5.075   5.893   1.241  0.9879 -0.8527 -0.4099
 3579TIP3    H232297   4.944   5.874   1.167  0.2324  2.3056 -0.0557
 3580TIP3   OH232298   2.836   5.859   2.425 -0.2389 -0.1080 -0.6237
 3580TIP3    H132299   2.841   5.795   2.496 -0.3233 -0.0818 -0.5948
 3580TIP3    H232300   2.891   5.822   2.355  4.0655  2.0974  1.1870
 3581TIP3   OH232301   1.391   2.949   8.349  0.2429 -0.9959  0.3596
 3581TIP3    H132302   1.333   2.877   8.327  0.0105 -1.0382  1.0798
 3581TIP3    H232303   1.455   2.952   8.278  0.1779 -1.8351  0.2626
 3582TIP3   OH232304   5.747   0.816   1.085 -0.3668  0.3042 -0.0440
 3582TIP3    H132305   5.798   0.815   1.166  1.2655  1.0944 -1.0143
 3582TIP3    H232306   5.661   0.781   1.110  0.9274 -2.0430  1.4694
 3583TIP3   OH232307   3.169   4.086   1.112 -0.1234  0.3445 -0.1674
 3583TIP3    H132308   3.136   4.042   1.033  0.0061  2.1211 -1.2623
 3583TIP3    H232309   3.254   4.045   1.128 -1.9299 -3.1085  1.7021
 3584TIP3   OH232310   4.422   3.403   6.912 -0.3877  0.1329  0.1955
 3584TIP3    H132311   4.448   3.435   6.825  1.6540  0.9321  1.0492
 3584TIP3    H232312   4.425   3.308   6.905  0.0449  0.1917 -0.5199
 3585TIP3   OH232313   4.681   0.768   2.425  0.5805  0.5862  0.3984
 3585TIP3    H132314   4.653   0.859   2.428 -1.2152  0.1284 -0.5819
 3585TIP3    H232315   4.715   0.756   2.336  2.1425  0.6340  0.9693
 3586TIP3   OH232316   0.331   1.245   0.306  0.0385  0.5784  0.2561
 3586TIP3    H132317   0.301   1.156   0.290 -0.8857  0.8726  0.2884
 3586TIP3    H232318   0.422   1.236   0.333 -0.1259 -0.3691  0.4961
 3587TIP3   OH232319   3.227   4.932   0.326  0.5373  0.2827  0.3821
 3587TIP3    H132320   3.207   4.925   0.419  1.1207  0.1940  0.5076
 3587TIP3    H232321   3.192   5.017   0.300 -0.4674 -0.1011  0.4615
 3588TIP3   OH232322   3.881   6.582   0.872 -0.1881  0.2389 -0.3486
 3588TIP3    H132323   3.899   6.661   0.821 -2.0779  1.0495  0.1340
 3588TIP3    H232324   3.931   6.513   0.829 -0.7869  1.1142 -2.5673
 3589TIP3   OH232325   6.467   6.574   0.126 -0.3518 -0.5020  0.3719
 3589TIP3    H132326   6.464   6.479   0.113  0.4656 -0.7952  2.0548
 3589TIP3    H232327   6.449   6.586   0.219  2.2198  0.7716  0.7915
 3590TIP3   OH232328   0.657   3.121   0.496  0.1520  0.0204 -0.3452
 3590TIP3    H132329   0.608   3.074   0.428 -0.4802 -0.2305  0.2706
 3590TIP3    H232330   0.690   3.198   0.451 -0.1816 -0.1831 -0.9677
 3591TIP3   OH232331   0.762   0.465   0.561  0.3523  0.1210  0.1898
 3591TIP3    H132332   0.688   0.520   0.538 -0.8528 -1.0255  1.1691
 3591TIP3    H232333   0.786   0.421   0.480 -1.4753 -1.1367  0.2765
 3592TIP3   OH232334   4.825   3.465   1.054 -0.3006 -0.2027 -0.1034
 3592TIP3    H132335   4.806   3.524   1.128 -0.5337 -0.3640 -0.0339
 3592TIP3    H232336   4.912   3.493   1.024 -1.7487  2.4894 -2.2422
 3593TIP3   OH232337   1.194   2.297   7.198 -0.6967 -0.1562 -0.9418
 3593TIP3    H132338   1.236   2.253   7.125 -0.1656 -0.8789 -0.2131
 3593TIP3    H232339   1.219   2.246   7.275 -2.0402  0.0126 -0.3629
 3594TIP3   OH232340   6.802   5.595   8.327 -0.5296  0.1385 -0.1807
 3594TIP3    H132341   6.726   5.569   8.275 -1.4152  2.2765 -0.0913
 3594TIP3    H232342   6.767   5.613   8.414  0.6872 -1.9631  0.8108
 3595TIP3   OH232343   5.013   4.570   0.018 -0.3743  0.5108 -0.2616
 3595TIP3    H132344   4.944   4.585   0.083 -1.4707 -1.0195 -0.9934
 3595TIP3    H232345   5.036   4.478   0.030  1.0976  0.8274 -0.4916
 3596TIP3   OH232346   6.304   4.724   6.574 -0.4974 -0.4551 -0.4568
 3596TIP3    H132347   6.214   4.702   6.598 -0.1905  1.5550  3.4056
 3596TIP3    H232348   6.354   4.645   6.595 -0.8287 -0.0398  2.3273
 3597TIP3   OH232349   0.814   2.935   8.498 -0.1563 -0.2900  0.6521
 3597TIP3    H132350   0.827   2.927   8.403 -1.3686  1.8526  0.2609
 3597TIP3    H232351   0.883   2.880   8.535  0.7955 -0.6331 -1.4525
 3598TIP3   OH232352   1.360   0.187   0.818 -0.4727 -0.0267  0.4069
 3598TIP3    H132353   1.411   0.134   0.756 -0.0816 -2.0398  2.3553
 3598TIP3    H232354   1.408   0.181   0.900 -1.9852  1.0079  1.4155
 3599TIP3   OH232355   5.726   5.458   8.180 -0.2864 -0.6543  0.2707
 3599TIP3    H132356   5.653   5.517   8.163 -0.0705  0.0885  1.8063
 3599TIP3    H232357   5.751   5.426   8.093 -0.2250  1.7226 -0.6573
 3600TIP3   OH232358   0.576   3.001   7.476 -0.8124 -0.1969  0.0652
 3600TIP3    H132359   0.659   2.997   7.522  0.6047  0.2410 -2.2808
 3600TIP3    H232360   0.545   3.091   7.489 -0.6543 -0.2046  0.5033
 3601TIP3   OH232361   5.937   2.390   7.134  0.0261  0.1922 -0.4834
 3601TIP3    H132362   5.945   2.340   7.052  1.0957 -1.3949  0.5339
 3601TIP3    H232363   6.025   2.388   7.172 -0.4819  0.7691  0.7855
 3602TIP3   OH232364   3.533   3.472   8.259  0.4369  0.0284 -0.1767
 3602TIP3    H132365   3.557   3.380   8.270  2.7092  0.7764  1.9417
 3602TIP3    H232366   3.447   3.479   8.301  0.2160 -1.1186 -0.4048
 3603TIP3   OH232367   6.046   0.435   1.518 -0.3129  0.2713 -0.4972
 3603TIP3    H132368   6.139   0.451   1.502  0.1732 -2.2993 -0.7292
 3603TIP3    H232369   6.042   0.343   1.546 -2.8872  0.0127 -1.4399
 3604TIP3   OH232370   5.032   2.530   0.695  0.1156 -0.6515 -0.5254
 3604TIP3    H132371   5.037   2.605   0.754  0.3735  0.1439 -1.5195
 3604TIP3    H232372   4.941   2.528   0.667  0.2768 -0.1938 -1.1167
 3605TIP3   OH232373   3.683   2.907   7.206  0.4843 -0.0824  0.3452
 3605TIP3    H132374   3.622   2.901   7.133  1.8090 -0.5510 -0.7770
 3605TIP3    H232375   3.737   2.828   7.199  1.3982  0.4508  1.0989
 3606TIP3   OH232376   4.783   1.639   0.785  0.1564 -0.1474  0.0816
 3606TIP3    H132377   4.723   1.713   0.780 -0.4396 -0.6437 -0.3131
 3606TIP3    H232378   4.732   1.569   0.825  1.1851  0.0883  1.9561
 3607TIP3   OH232379   3.209   3.721   1.240 -0.3221  0.1932 -0.3222
 3607TIP3    H132380   3.225   3.774   1.162 -2.8866 -0.4273 -1.3874
 3607TIP3    H232381   3.179   3.784   1.306 -2.0344  0.3100 -1.1543
 3608TIP3   OH232382   3.751   5.572   7.894 -0.1947  0.2885 -0.3412
 3608TIP3    H132383   3.826   5.613   7.938  0.4721  0.3310 -1.4808
 3608TIP3    H232384   3.709   5.520   7.963 -0.3872  1.9522  0.8530
 3609TIP3   OH232385   0.178   0.237   6.020  0.7346 -0.2790  0.0430
 3609TIP3    H132386   0.210   0.182   6.091  1.5430  1.3603  1.0214
 3609TIP3    H232387   0.255   0.284   5.989  0.0899  0.2695 -0.7929
 3610TIP3   OH232388   4.883   6.700   6.945 -0.4378  0.1338 -0.2172
 3610TIP3    H132389   4.845   6.775   6.991  1.6004  1.5478 -0.6920
 3610TIP3    H232390   4.896   6.732   6.855 -0.2082 -1.0403 -0.6136
 3611TIP3   OH232391   4.021   1.989   7.643 -0.2701  0.1614  0.5153
 3611TIP3    H132392   4.023   1.916   7.705 -0.5728 -0.4709 -0.2084
 3611TIP3    H232393   3.928   2.006   7.628 -0.2145  1.0374  1.0499
 3612TIP3   OH232394   1.341   4.655   8.411 -0.4823 -0.1858 -0.0910
 3612TIP3    H132395   1.360   4.748   8.425  0.0710 -0.2203 -0.5775
 3612TIP3    H232396   1.425   4.611   8.427 -0.3581 -0.4446 -1.3283
 3613TIP3   OH232397   2.816   1.171   1.245 -0.2124 -0.6201  0.4403
 3613TIP3    H132398   2.771   1.219   1.176 -0.2821 -0.2889  0.7100
 3613TIP3    H232399   2.752   1.165   1.316  1.2077  3.1056  2.3300
 3614TIP3   OH232400   4.958   4.180   1.344  0.4434 -0.1423  0.1577
 3614TIP3    H132401   4.938   4.092   1.312 -0.2222  0.2505 -0.5286
 3614TIP3    H232402   5.000   4.224   1.270  0.8285  0.1089  0.5164
 3615TIP3   OH232403   0.360   1.275   8.424  0.4152 -0.1335 -0.5453
 3615TIP3    H132404   0.388   1.362   8.453 -0.5332 -0.1924  0.6417
 3615TIP3    H232405   0.274   1.289   8.385 -0.2561 -0.6668  0.6806
 3616TIP3   OH232406   4.130   0.725   8.372 -0.0963  0.6063  0.1756
 3616TIP3    H132407   4.087   0.684   8.297 -0.9859  0.8013  0.5771
 3616TIP3    H232408   4.150   0.814   8.343 -1.0145  0.8879  0.3713
 3617TIP3   OH232409   6.788   5.512   7.955 -0.1105 -0.0298  0.0304
 3617TIP3    H132410   6.700   5.520   7.993 -0.2190  2.2627 -0.5292
 3617TIP3    H232411   6.790   5.424   7.917 -1.4418 -0.8572  1.7637
 3618TIP3   OH232412   3.897   1.645   1.570 -0.6637 -0.1469  0.5169
 3618TIP3    H132413   3.871   1.674   1.658 -3.3704 -1.6049  0.3047
 3618TIP3    H232414   3.983   1.607   1.582  0.6940  2.9453  1.7730
 3619TIP3   OH232415   6.320   2.054   0.262  0.6199  0.6911  0.3073
 3619TIP3    H132416   6.267   2.086   0.335  0.7260 -1.4568  1.4206
 3619TIP3    H232417   6.279   2.092   0.184 -1.3271  0.7010  1.2693
 3620TIP3   OH232418   0.046   3.123   8.224  0.6943  0.4409  0.2718
 3620TIP3    H132419   0.112   3.061   8.257  0.2186  0.0301  0.4540
 3620TIP3    H232420   0.032   3.097   8.133  0.3631  0.1705  0.4012
 3621TIP3   OH232421   1.243   6.593   0.932 -0.5211 -0.4839  0.0977
 3621TIP3    H132422   1.331   6.628   0.915 -0.2011 -1.2958  0.0086
 3621TIP3    H232423   1.256   6.530   1.003 -1.1047 -0.3341  0.3446
 3622TIP3   OH232424   4.841   1.254   6.924  0.8612  0.2152 -0.0649
 3622TIP3    H132425   4.811   1.252   7.015  2.3311 -0.4154  0.4306
 3622TIP3    H232426   4.924   1.208   6.925  1.8683  1.8742 -1.3711
 3623TIP3   OH232427   1.650   5.194   1.125  0.0340  0.3464  0.9667
 3623TIP3    H132428   1.737   5.182   1.086  1.4853  0.8782  3.7568
 3623TIP3    H232429   1.608   5.259   1.069  1.5871  0.3856 -0.2405
 3624TIP3   OH232430   4.184   1.753   6.457 -0.2651  0.8809 -0.1573
 3624TIP3    H132431   4.143   1.677   6.416 -0.8204  0.7360  0.6496
 3624TIP3    H232432   4.277   1.744   6.436 -0.4724  0.5653 -0.9825
 3625TIP3   OH232433   2.511   6.568   6.839 -0.4513 -0.0878 -0.2300
 3625TIP3    H132434   2.580   6.592   6.902 -0.0833 -2.7453  0.5248
 3625TIP3    H232435   2.559   6.540   6.761 -0.5523 -2.3625  0.4494
 3626TIP3   OH232436   3.534   5.146   1.131 -0.8797 -0.4824  0.1962
 3626TIP3    H132437   3.439   5.153   1.131 -1.1098 -2.6171 -1.1742
 3626TIP3    H232438   3.555   5.094   1.208 -0.9796 -1.2345 -0.2736
 3627TIP3   OH232439   5.532   1.454   2.281 -0.8807  0.3106  0.0562
 3627TIP3    H132440   5.459   1.471   2.340  0.8236  0.6250  2.2010
 3627TIP3    H232441   5.549   1.360   2.291 -0.4119  0.4192  0.2610
 3628TIP3   OH232442   0.937   6.123   0.957 -0.5065 -0.0452  0.3422
 3628TIP3    H132443   0.883   6.059   1.004  0.2217 -0.5585  0.4820
 3628TIP3    H232444   1.027   6.096   0.973 -0.2050  0.6353 -0.1417
 3629TIP3   OH232445   4.587   5.548   0.444  0.7277  0.0553 -0.0314
 3629TIP3    H132446   4.623   5.488   0.509  0.1500 -0.8472 -0.5286
 3629TIP3    H232447   4.652   5.618   0.437  0.6800  0.2976  1.6798
 3630TIP3   OH232448   0.555   5.952   0.859  0.3752  0.5859 -0.6797
 3630TIP3    H132449   0.597   5.952   0.945  0.1063  1.3550 -0.5372
 3630TIP3    H232450   0.475   5.902   0.872 -0.0347  1.3200 -0.2774
 3631TIP3   OH232451   2.071   2.190   8.287 -0.2123  0.2822  0.1047
 3631TIP3    H132452   2.013   2.147   8.224  0.3136  0.6672 -0.6586
 3631TIP3    H232453   2.069   2.282   8.263  0.2279  0.3903  0.4682
 3632TIP3   OH232454   5.489   3.053   1.752  0.2747 -0.2146 -0.2329
 3632TIP3    H132455   5.500   3.139   1.711 -0.3901  0.7026  1.3994
 3632TIP3    H232456   5.472   3.073   1.844 -0.9294 -2.0545 -0.0141
 3633TIP3   OH232457   3.404   3.598   0.777 -0.0819 -0.0208 -0.1034
 3633TIP3    H132458   3.463   3.672   0.769 -0.5816  0.2397 -1.8204
 3633TIP3    H232459   3.384   3.573   0.687 -1.5007 -0.9793  0.4350
 3634TIP3   OH232460   6.116   4.451   7.519  0.1769  0.6335 -0.1339
 3634TIP3    H132461   6.079   4.366   7.496  0.4747  0.3429  0.4449
 3634TIP3    H232462   6.045   4.496   7.565  0.2384  0.4408  0.1490
 3635TIP3   OH232463   0.650   5.849   8.551  0.2935  0.6612  0.1352
 3635TIP3    H132464   0.695   5.842   8.466  0.8363  0.3120  0.4494
 3635TIP3    H232465   0.558   5.832   8.530  0.7227 -1.7489 -0.0430
 3636TIP3   OH232466   0.634   5.824   1.943  0.1543  0.1799 -0.5806
 3636TIP3    H132467   0.661   5.916   1.950  2.1464 -0.2542 -1.8677
 3636TIP3    H232468   0.643   5.790   2.031  0.9894  0.8187 -0.4072
 3637TIP3   OH232469   1.322   6.253   6.386  0.4266  0.6386 -0.4157
 3637TIP3    H132470   1.278   6.246   6.302  0.5923 -0.4935 -0.4202
 3637TIP3    H232471   1.270   6.317   6.435 -0.7912 -0.1151 -0.6851
 3638TIP3   OH232472   2.439   2.869   8.429  0.1880  0.2596 -0.0046
 3638TIP3    H132473   2.352   2.891   8.397  0.3622  0.6942 -0.1838
 3638TIP3    H232474   2.497   2.885   8.355  0.6977  2.0516  0.7365
 3639TIP3   OH232475   5.594   5.566   7.382  0.0662  0.1327  0.1652
 3639TIP3    H132476   5.605   5.554   7.288 -1.1143  0.5813 -0.0514
 3639TIP3    H232477   5.553   5.485   7.413  0.0155  0.1743  0.2078
 3640TIP3   OH232478   5.159   5.763   8.116  0.0724 -0.4931 -0.2542
 3640TIP3    H132479   5.141   5.743   8.208  1.7335  1.8607  0.6786
 3640TIP3    H232480   5.228   5.702   8.091  0.8775  0.0291  0.6469
 3641TIP3   OH232481   6.034   6.604   0.241 -0.4791  0.0505 -0.1383
 3641TIP3    H132482   6.000   6.554   0.316  0.1041 -0.5864 -0.2870
 3641TIP3    H232483   5.983   6.685   0.242  1.4372  1.3949  2.7154
 3642TIP3   OH232484   5.279   2.952   1.196  0.0349  0.4660 -0.3199
 3642TIP3    H132485   5.209   2.972   1.135 -0.9763 -3.8908 -0.8962
 3642TIP3    H232486   5.352   2.922   1.142  2.2334  3.9615  0.3349
 3643TIP3   OH232487   5.650   3.893   1.617  0.3731  0.7402 -0.0338
 3643TIP3    H132488   5.706   3.919   1.690  1.2748  2.1579 -1.1851
 3643TIP3    H232489   5.600   3.971   1.596 -0.4074  0.1287 -0.4760
 3644TIP3   OH232490   5.574   6.515   7.134 -0.0888  0.1580 -0.4468
 3644TIP3    H132491   5.534   6.598   7.106  0.8699  1.3254  1.4369
 3644TIP3    H232492   5.531   6.495   7.217 -0.6062 -1.5094 -1.0750
 3645TIP3   OH232493   6.470   1.569   6.404  0.6187  0.0180  0.2981
 3645TIP3    H132494   6.558   1.564   6.367  1.3357 -0.4756  1.9846
 3645TIP3    H232495   6.464   1.494   6.463 -1.1082 -0.2244 -0.1250
 3646TIP3   OH232496   5.202   4.568   0.650 -0.0301  0.1041  0.0118
 3646TIP3    H132497   5.224   4.487   0.603  0.4826  0.5640 -0.5517
 3646TIP3    H232498   5.274   4.628   0.631 -1.6295  1.5901 -1.7276
 3647TIP3   OH232499   1.222   6.152   6.653  0.2539  0.0122 -0.2169
 3647TIP3    H132500   1.195   6.206   6.579  1.4815  0.5825 -0.2686
 3647TIP3    H232501   1.184   6.194   6.730  0.8203  0.7004 -0.3046
 3648TIP3   OH232502   2.734   6.394   1.654 -0.3507 -0.3205  0.3128
 3648TIP3    H132503   2.772   6.438   1.730 -1.0075 -0.9234  1.0160
 3648TIP3    H232504   2.769   6.441   1.579  0.5451  0.1115  0.9763
 3649TIP3   OH232505   2.280   3.854   7.809 -0.2402  0.7124 -0.0161
 3649TIP3    H132506   2.254   3.946   7.808  0.0754  0.8028 -0.1213
 3649TIP3    H232507   2.376   3.856   7.807 -0.1764  0.4105  1.5761
 3650TIP3   OH232508   5.372   1.128   6.407 -0.3534  0.1068  0.1264
 3650TIP3    H132509   5.350   1.114   6.499  0.1674 -0.9830  0.0991
 3650TIP3    H232510   5.288   1.130   6.362 -0.6040  0.5248  0.6106
 3651TIP3   OH232511   4.586   1.136   2.001 -0.2767  0.5076 -0.3838
 3651TIP3    H132512   4.579   1.226   2.034 -1.3053  0.2758  0.0676
 3651TIP3    H232513   4.649   1.094   2.059 -0.1860  0.7916 -0.2755
 3652TIP3   OH232514   3.075   5.045   8.406  0.0983 -0.0840  0.3961
 3652TIP3    H132515   3.040   5.130   8.431  0.3861 -0.2528  1.3954
 3652TIP3    H232516   3.006   4.983   8.426 -0.9040  0.0779 -2.1681
 3653TIP3   OH232517   1.572   1.767   7.605 -0.5134 -0.5294  0.1730
 3653TIP3    H132518   1.526   1.709   7.544 -0.4783  0.1415 -0.5017
 3653TIP3    H232519   1.561   1.854   7.568  3.6766 -0.5226 -1.6170
 3654TIP3   OH232520   5.803   6.797   0.742 -0.0602  0.0038 -0.5828
 3654TIP3    H132521   5.846   6.810   0.827  0.4125 -1.8869 -0.4828
 3654TIP3    H232522   5.710   6.788   0.763  0.1505 -1.3943 -0.1000
 3655TIP3   OH232523   3.533   2.161   7.882 -0.1923 -0.3652 -0.2251
 3655TIP3    H132524   3.512   2.096   7.948 -2.5546 -0.5298 -1.0505
 3655TIP3    H232525   3.535   2.244   7.930  0.5077 -0.7404  0.4220
 3656TIP3   OH232526   1.830   6.062   0.167 -0.2467 -0.5056 -0.3504
 3656TIP3    H132527   1.903   6.124   0.165  1.5959 -2.5695 -1.5852
 3656TIP3    H232528   1.823   6.029   0.077 -0.3980 -2.8597  0.4562
 3657TIP3   OH232529   6.158   3.086   5.970 -0.5296  0.4161  0.1650
 3657TIP3    H132530   6.121   3.042   5.894 -1.2649  0.7264  0.3349
 3657TIP3    H232531   6.176   3.175   5.941  1.4220 -0.0813 -0.3237
 3658TIP3   OH232532   0.494   6.638   7.444  0.0775  0.1180 -0.3838
 3658TIP3    H132533   0.588   6.643   7.459  0.3171  1.3565 -1.9173
 3658TIP3    H232534   0.471   6.725   7.409 -1.5653 -0.2760 -0.3813
 3659TIP3   OH232535   0.277   1.589   1.477 -0.4908  0.3942 -0.2915
 3659TIP3    H132536   0.330   1.642   1.416  0.1829 -0.6120 -0.6095
 3659TIP3    H232537   0.271   1.504   1.434 -1.3236  0.1234  0.3494
 3660TIP3   OH232538   5.468   1.335   5.945 -0.6122 -0.5140  0.2351
 3660TIP3    H132539   5.423   1.258   5.979 -0.6440 -0.8540 -0.5572
 3660TIP3    H232540   5.406   1.407   5.955 -1.4148 -1.0141 -1.0306
 3661TIP3   OH232541   5.051   3.882   2.167 -0.2024  0.2218 -0.0306
 3661TIP3    H132542   4.973   3.914   2.123  0.3508  1.7903  0.0589
 3661TIP3    H232543   5.029   3.793   2.194 -2.0870  0.7599  0.3527
 3662TIP3   OH232544   3.772   1.108   1.233  0.3502  0.3202  0.0702
 3662TIP3    H132545   3.807   1.022   1.256  0.5039  0.5969  0.9090
 3662TIP3    H232546   3.822   1.134   1.155 -0.7033 -0.9575 -1.0750
 3663TIP3   OH232547   1.088   2.656   0.843  0.4197 -0.0802 -0.0807
 3663TIP3    H132548   1.093   2.660   0.747  0.4473  0.4692 -0.0629
 3663TIP3    H232549   1.008   2.704   0.864  0.7151  0.2957  0.1981
 3664TIP3   OH232550   4.647   1.328   7.759 -0.4723  0.2596 -0.5856
 3664TIP3    H132551   4.592   1.261   7.719 -0.7817 -1.4290  2.3813
 3664TIP3    H232552   4.718   1.280   7.800 -0.1926  1.8342  0.8761
 3665TIP3   OH232553   6.689   4.329   0.991 -0.1194 -0.2991 -0.2418
 3665TIP3    H132554   6.635   4.348   0.914 -0.6726  0.1791  0.2541
 3665TIP3    H232555   6.715   4.238   0.980 -1.4072 -0.6822 -0.2656
 3666TIP3   OH232556   1.651   4.838   6.596  0.0931 -0.3883 -0.2888
 3666TIP3    H132557   1.717   4.904   6.616  0.5504 -0.4275 -1.5984
 3666TIP3    H232558   1.573   4.888   6.572 -0.2962 -0.3429  1.0006
 3667TIP3   OH232559   3.360   6.564   1.068  0.6267 -0.2446 -0.3689
 3667TIP3    H132560   3.394   6.479   1.038 -1.1966 -1.2475  0.2328
 3667TIP3    H232561   3.398   6.575   1.155  0.7397 -0.5394 -0.3786
 3668TIP3   OH232562   4.916   2.644   0.319  0.4498 -0.0710 -0.8515
 3668TIP3    H132563   4.826   2.657   0.348  0.2534 -0.5376 -1.2236
 3668TIP3    H232564   4.923   2.696   0.239  0.8169  0.7588 -0.2921
 3669TIP3   OH232565   1.259   1.405   0.560 -0.6589 -0.8695  0.0082
 3669TIP3    H132566   1.222   1.484   0.599  0.8918  0.2900 -0.7071
 3669TIP3    H232567   1.347   1.399   0.598  0.2358 -0.6978 -1.9093
 3670TIP3   OH232568   4.391   2.951   2.343 -0.1642  0.3777 -0.2103
 3670TIP3    H132569   4.396   2.944   2.248 -1.7719 -4.6234 -0.2111
 3670TIP3    H232570   4.480   2.931   2.373  0.2214  1.4528 -0.5730
 3671TIP3   OH232571   2.808   5.313   1.537  0.2927 -0.8156 -0.3173
 3671TIP3    H132572   2.747   5.279   1.603  0.5486  0.6523  0.7308
 3671TIP3    H232573   2.782   5.270   1.456 -2.2363 -0.1636  0.0611
 3672TIP3   OH232574   2.290   1.282   1.310  0.3714  0.0896 -0.2592
 3672TIP3    H132575   2.361   1.298   1.372 -0.8241 -1.7118  1.7660
 3672TIP3    H232576   2.242   1.208   1.349 -0.9576 -0.5834 -2.9725
 3673TIP3   OH232577   3.763   3.905   7.504 -0.2741  0.6171 -0.1318
 3673TIP3    H132578   3.803   3.819   7.493 -0.8105  0.4729 -1.0467
 3673TIP3    H232579   3.836   3.967   7.503  0.3737  0.0604  2.7744
 3674TIP3   OH232580   4.755   0.149   7.434  0.2237 -0.5106 -0.5484
 3674TIP3    H132581   4.834   0.096   7.417  0.0525 -0.7990 -0.4454
 3674TIP3    H232582   4.687   0.085   7.454  0.2680 -0.2005  0.6209
 3675TIP3   OH232583   1.898   2.188   8.562 -0.0810 -0.0805 -0.1866
 3675TIP3    H132584   1.989   2.209   8.541 -0.2026  0.5265 -0.1373
 3675TIP3    H232585   1.847   2.233   8.495 -0.2681 -2.4016 -1.7183
 3676TIP3   OH232586   2.158   2.146   7.868  0.3330  0.1227  0.7468
 3676TIP3    H132587   2.076   2.120   7.910 -0.1662  1.1098  0.4277
 3676TIP3    H232588   2.220   2.077   7.890 -1.2311 -2.0059 -1.1011
 3677TIP3   OH232589   6.007   6.428   1.158  0.0527 -1.1593 -0.3170
 3677TIP3    H132590   6.037   6.468   1.076 -1.0341  1.3443  0.4260
 3677TIP3    H232591   5.912   6.433   1.154 -0.0066  0.5172  1.7359
 3678TIP3   OH232592   0.769   1.281   7.056 -0.6884  0.0370  0.2335
 3678TIP3    H132593   0.792   1.370   7.031  0.5992  0.4226  2.5134
 3678TIP3    H232594   0.840   1.227   7.020 -1.7853 -0.2310 -1.6842
 3679TIP3   OH232595   4.145   2.656   6.579 -0.5766 -0.0348 -0.5077
 3679TIP3    H132596   4.204   2.729   6.559 -1.8928  1.4926  0.9086
 3679TIP3    H232597   4.117   2.624   6.493  0.7715  0.4740 -1.1655
 3680TIP3   OH232598   6.474   3.850   1.090  0.4579  0.0803 -0.1210
 3680TIP3    H132599   6.491   3.910   1.163  0.9592 -0.6879  0.4163
 3680TIP3    H232600   6.448   3.906   1.018  3.9970  1.3144 -0.6456
 3681TIP3   OH232601   3.329   4.597   0.749  0.2397 -0.0912  0.2628
 3681TIP3    H132602   3.248   4.581   0.797  0.8184  1.4816  1.8594
 3681TIP3    H232603   3.396   4.548   0.796  0.5909  0.4169  0.3055
 3682TIP3   OH232604   3.135   3.743   7.649 -0.2649  0.6431  0.6207
 3682TIP3    H132605   3.130   3.708   7.738  1.4293  1.3906  1.0618
 3682TIP3    H232606   3.096   3.676   7.594 -1.0037 -0.0021  1.8822
 3683TIP3   OH232607   5.599   5.627   6.347  0.6379 -0.4299  0.3964
 3683TIP3    H132608   5.690   5.598   6.334  0.9168 -0.2235  1.7847
 3683TIP3    H232609   5.600   5.720   6.324  0.5792 -0.6293 -0.4288
 3684TIP3   OH232610   3.185   0.920   7.073 -0.0355 -0.0665  0.3568
 3684TIP3    H132611   3.154   0.937   6.984 -1.7677 -2.2479  0.4671
 3684TIP3    H232612   3.268   0.874   7.061 -1.4128 -2.5830 -0.3221
 3685TIP3   OH232613   6.261   4.353   0.592 -0.2976  0.0352 -0.4904
 3685TIP3    H132614   6.183   4.376   0.642 -0.2325  1.9698 -1.2056
 3685TIP3    H232615   6.226   4.306   0.516 -0.6779 -0.0313 -0.2796
 3686TIP3   OH232616   4.870   3.680   1.760 -0.2755  0.1225 -0.4192
 3686TIP3    H132617   4.841   3.760   1.715  0.0873  0.5530  0.1049
 3686TIP3    H232618   4.825   3.683   1.845  0.3959  0.2113 -0.0596
 3687TIP3   OH232619   0.472   3.568   0.801  0.0902  0.2968  0.0668
 3687TIP3    H132620   0.430   3.489   0.835 -1.7096  0.7966 -0.8493
 3687TIP3    H232621   0.475   3.627   0.876 -2.1181  0.7031 -0.0801
 3688TIP3   OH232622   0.663   5.778   6.442  0.1587 -0.4688  0.4163
 3688TIP3    H132623   0.681   5.831   6.364  0.3945 -1.3822 -0.1609
 3688TIP3    H232624   0.632   5.694   6.408 -1.4898 -0.2786  1.3389
 3689TIP3   OH232625   5.345   4.686   8.162  0.1051 -0.3899 -0.0074
 3689TIP3    H132626   5.265   4.723   8.124 -1.7672 -2.4879  1.6508
 3689TIP3    H232627   5.351   4.724   8.249 -0.3246 -1.8183  0.6809
 3690TIP3   OH232628   1.752   2.989   7.133 -0.1752  0.2402  0.0840
 3690TIP3    H132629   1.669   2.975   7.086  0.2375 -1.5368 -0.1754
 3690TIP3    H232630   1.818   2.990   7.064  0.3238 -1.3574  0.5107
 3691TIP3   OH232631   0.432   1.513   7.557  0.4207  0.4809 -0.3454
 3691TIP3    H132632   0.346   1.551   7.541  1.0506  0.9522 -3.0641
 3691TIP3    H232633   0.428   1.426   7.516  1.0130  0.1941  0.1871
 3692TIP3   OH232634   4.688   4.401   7.458 -0.9630  0.8508 -0.2190
 3692TIP3    H132635   4.711   4.432   7.545 -0.9897 -0.6877  0.3695
 3692TIP3    H232636   4.705   4.476   7.400 -0.5654  1.7625  1.0419
 3693TIP3   OH232637   5.878   2.354   7.468  0.0423  0.3481 -0.7311
 3693TIP3    H132638   5.934   2.283   7.436  1.2650  1.0487 -0.2159
 3693TIP3    H232639   5.915   2.377   7.553  0.3391  2.2890 -1.3355
 3694TIP3   OH232640   5.819   4.675   1.261 -0.1576  0.0386  0.0852
 3694TIP3    H132641   5.754   4.688   1.330  0.1287  2.4564  0.0016
 3694TIP3    H232642   5.856   4.762   1.247 -0.0833 -0.3748 -2.9803
 3695TIP3   OH232643   5.246   6.461   7.139  0.4577 -0.5001 -0.4017
 3695TIP3    H132644   5.243   6.456   7.043 -0.1985 -0.9415 -0.3644
 3695TIP3    H232645   5.159   6.432   7.167  0.1931  0.8630  0.2814
 3696TIP3   OH232646   1.712   4.323   0.374 -0.2618  0.1172 -0.2834
 3696TIP3    H132647   1.688   4.231   0.363  1.9879 -0.4368 -1.1485
 3696TIP3    H232648   1.683   4.345   0.462 -1.9208 -1.0437 -0.4918
 3697TIP3   OH232649   2.150   6.298   8.058  0.4217 -0.2123 -0.2831
 3697TIP3    H132650   2.124   6.228   7.999  0.3930  0.7504 -1.4382
 3697TIP3    H232651   2.086   6.368   8.043  1.2166  0.5768 -0.1228
 3698TIP3   OH232652   0.438   2.476   1.848 -0.0298  0.3821  0.5148
 3698TIP3    H132653   0.500   2.547   1.867 -0.5485  0.8239  0.5870
 3698TIP3    H232654   0.376   2.478   1.921 -0.1692 -0.0117  0.4089
 3699TIP3   OH232655   2.137   5.355   1.093  0.3231  0.5423 -0.8482
 3699TIP3    H132656   2.116   5.262   1.108 -1.7120  0.9561 -0.9447
 3699TIP3    H232657   2.233   5.358   1.100  0.3585 -1.3184  0.5658
 3700TIP3   OH232658   4.866   2.960   0.482 -0.2523  0.2707  0.1154
 3700TIP3    H132659   4.830   3.045   0.457 -1.0867 -0.5285 -1.5299
 3700TIP3    H232660   4.790   2.901   0.482  0.3515 -0.5424  0.9665
 3701TIP3   OH232661   4.688   0.045   6.978  0.0630  0.1853  0.2237
 3701TIP3    H132662   4.600   0.057   6.944  0.9108  0.2835 -2.1301
 3701TIP3    H232663   4.742   0.107   6.928  1.1536  1.9505  3.3187
 3702TIP3   OH232664   2.069   5.167   7.323  0.1268 -0.0640 -0.4063
 3702TIP3    H132665   2.064   5.218   7.404  2.5327  2.1694 -1.5140
 3702TIP3    H232666   2.137   5.101   7.341 -1.7356 -1.8642  0.4281
 3703TIP3   OH232667   2.868   6.083   2.681  0.2779 -0.4110 -0.3724
 3703TIP3    H132668   2.887   6.027   2.606 -1.1566 -1.8400  0.2687
 3703TIP3    H232669   2.815   6.028   2.740  0.3129  1.0534  1.1191
 3704TIP3   OH232670   0.159   0.406   7.089 -0.1154 -0.0254  0.4369
 3704TIP3    H132671   0.182   0.447   7.172  3.3800 -0.4891 -0.1558
 3704TIP3    H232672   0.131   0.478   7.033  0.8272  0.7950  1.0024
 3705TIP3   OH232673   2.778   0.654   1.149 -0.4750 -0.0570 -0.3041
 3705TIP3    H132674   2.705   0.593   1.137  0.0351 -1.5319  2.9460
 3705TIP3    H232675   2.753   0.707   1.225  1.0822  0.6208 -0.2205
 3706TIP3   OH232676   0.881   3.947   8.245  0.0433  0.2349 -0.0744
 3706TIP3    H132677   0.937   3.977   8.174  0.2691  0.1073  0.0512
 3706TIP3    H232678   0.889   3.851   8.243 -1.2028  0.1228 -0.9200
 3707TIP3   OH232679   0.697   0.214   0.668 -0.0349  0.5665 -0.0445
 3707TIP3    H132680   0.784   0.183   0.645 -0.5744 -1.9873  0.9781
 3707TIP3    H232681   0.695   0.305   0.640  3.4522  1.1529  1.2180
 3708TIP3   OH232682   1.232   0.698   0.627 -0.3988 -0.3877  0.2622
 3708TIP3    H132683   1.281   0.755   0.567 -1.2002 -0.0047 -0.0430
 3708TIP3    H232684   1.240   0.611   0.588  0.2653 -0.3802  0.3668
 3709TIP3   OH232685   3.808   4.045   7.056 -0.1991 -0.0708 -0.0919
 3709TIP3    H132686   3.867   4.098   7.109 -0.0315 -0.4739  0.1279
 3709TIP3    H232687   3.832   4.066   6.965 -1.3876  1.6368 -0.0575
 3710TIP3   OH232688   2.370   6.496   8.333  0.2863  0.1304 -0.0078
 3710TIP3    H132689   2.365   6.439   8.257  2.9419 -1.4848  0.8898
 3710TIP3    H232690   2.336   6.443   8.405  1.6644  0.0438  0.6181
 3711TIP3   OH232691   6.500   3.815   1.595  0.0376  0.5881  0.0521
 3711TIP3    H132692   6.549   3.783   1.671 -0.7478  1.2987  0.8801
 3711TIP3    H232693   6.444   3.741   1.570 -0.6643  0.7858  1.0051
 3712TIP3   OH232694   2.669   0.380   1.319  0.4414 -0.5630  0.0180
 3712TIP3    H132695   2.718   0.447   1.366  2.3429 -1.6999 -0.2677
 3712TIP3    H232696   2.726   0.354   1.247 -1.6383 -0.1650 -1.8892
 3713TIP3   OH232697   3.110   0.609   7.132  0.7106  0.2898  0.9565
 3713TIP3    H132698   3.054   0.565   7.196 -0.5730 -1.8165 -1.4214
 3713TIP3    H232699   3.200   0.589   7.160  0.1781 -0.7094  2.0211
 3714TIP3   OH232700   4.077   3.597   2.083 -0.3191  0.3129  0.2889
 3714TIP3    H132701   4.089   3.570   2.175 -0.6560  0.8485  0.4919
 3714TIP3    H232702   4.141   3.666   2.070 -1.1822  1.1685  0.5213
 3715TIP3   OH232703   2.394   4.781   7.013 -0.4477 -0.6579  0.4578
 3715TIP3    H132704   2.453   4.748   6.945 -2.2213  0.7540 -1.9248
 3715TIP3    H232705   2.364   4.702   7.059 -0.6996 -1.9116 -1.7387
 3716TIP3   OH232706   3.106   2.353   7.963  0.0327  0.1525  0.3507
 3716TIP3    H132707   3.020   2.322   7.935  0.5375 -0.0381 -1.1258
 3716TIP3    H232708   3.161   2.274   7.964  0.3532  0.3756  0.5856
 3717TIP3   OH232709   3.642   2.831   1.911  0.5812  0.3655  0.0073
 3717TIP3    H132710   3.681   2.918   1.905  0.8214  0.2146 -0.6779
 3717TIP3    H232711   3.707   2.779   1.958  0.5822  0.4703  0.1235
 3718TIP3   OH232712   1.192   4.703   0.204  0.5052 -0.3082 -0.2095
 3718TIP3    H132713   1.109   4.734   0.169  0.2284  0.1859  0.8424
 3718TIP3    H232714   1.257   4.766   0.170  0.2480  0.1447  0.1246
 3719TIP3   OH232715   1.549   0.866   7.598  0.5113  0.2179 -0.2556
 3719TIP3    H132716   1.484   0.877   7.667 -0.0009  1.9870 -0.9455
 3719TIP3    H232717   1.594   0.951   7.593 -0.1882  0.5440 -2.7338
 3720TIP3   OH232718   6.274   3.044   1.302  0.0472 -0.0977 -0.2991
 3720TIP3    H132719   6.280   2.953   1.329 -0.5791 -0.3086 -0.8468
 3720TIP3    H232720   6.200   3.079   1.352  0.5839  0.2534  0.2737
 3721TIP3   OH232721   2.231   3.547   6.873  0.2646 -0.0239 -0.6101
 3721TIP3    H132722   2.220   3.571   6.781  0.4525 -2.2743 -1.2673
 3721TIP3    H232723   2.314   3.500   6.877 -0.4837 -1.3442  0.3780
 3722TIP3   OH232724   5.503   0.441   2.224 -0.1445  0.0221  0.2773
 3722TIP3    H132725   5.433   0.495   2.185  0.0750  0.5190  0.5615
 3722TIP3    H232726   5.476   0.351   2.206  0.1213  0.2303 -1.3315
 3723TIP3   OH232727   1.875   1.156   1.256  0.0213 -0.0519 -0.1004
 3723TIP3    H132728   1.790   1.113   1.264  0.4834 -0.7438  1.4408
 3723TIP3    H232729   1.906   1.164   1.346  2.3470 -1.3942 -0.7106
 3724TIP3   OH232730   1.167   3.633   6.219  0.9125  0.2236  0.0838
 3724TIP3    H132731   1.218   3.561   6.255  0.0097 -1.0180 -1.0358
 3724TIP3    H232732   1.080   3.623   6.257  0.8112  0.7951  0.0130
 3725TIP3   OH232733   4.134   2.851   7.363 -0.3545  0.6371 -0.3106
 3725TIP3    H132734   4.142   2.774   7.307  1.2208 -0.2558  1.0658
 3725TIP3    H232735   4.224   2.874   7.386 -0.8946  1.6858  0.9024
 3726TIP3   OH232736   5.208   4.663   0.909  0.3014  0.1181  0.2980
 3726TIP3    H132737   5.295   4.664   0.948  1.2018  1.4905 -1.5482
 3726TIP3    H232738   5.221   4.619   0.825 -1.0942 -0.8360  0.5541
 3727TIP3   OH232739   1.761   4.150   8.039 -0.1648  0.0487  0.1941
 3727TIP3    H132740   1.667   4.133   8.044 -0.6835  2.5661  0.1977
 3727TIP3    H232741   1.768   4.245   8.026  2.3886 -0.0064  0.6179
 3728TIP3   OH232742   6.835   2.607   1.557 -0.1676 -0.3442  0.0577
 3728TIP3    H132743   6.882   2.634   1.636  0.1317 -0.5376 -0.0521
 3728TIP3    H232744   6.807   2.517   1.575 -0.4925 -0.2309  0.1207
 3729TIP3   OH232745   1.015   4.308   0.882  0.0705  0.8003 -0.0007
 3729TIP3    H132746   1.057   4.223   0.867  0.2817  0.9513 -0.2669
 3729TIP3    H232747   0.924   4.286   0.904  0.7602  0.3322  2.7310
 3730TIP3   OH232748   6.674   3.349   7.699 -0.0215  0.1048  0.5118
 3730TIP3    H132749   6.732   3.386   7.633 -0.6812 -1.6349 -1.1670
 3730TIP3    H232750   6.674   3.412   7.770  1.0790  1.8671 -0.9685
 3731TIP3   OH232751   1.118   6.602   1.720 -0.1542 -0.5076 -0.0788
 3731TIP3    H132752   1.051   6.670   1.717  0.0892 -0.2368  0.4620
 3731TIP3    H232753   1.115   6.570   1.810 -0.5101 -1.4677 -0.4181
 3732TIP3   OH232754   5.101   4.881   6.949 -0.2120  0.1287 -1.2719
 3732TIP3    H132755   5.180   4.858   6.899  0.7943  1.0576 -0.1710
 3732TIP3    H232756   5.132   4.941   7.016 -1.5627 -0.9214  0.3695
 3733TIP3   OH232757   4.099   6.303   1.131 -0.2915 -0.0068  0.5710
 3733TIP3    H132758   4.059   6.233   1.182  1.7366 -1.8908 -0.2796
 3733TIP3    H232759   4.153   6.351   1.194  0.0023 -0.5779  0.7635
 3734TIP3   OH232760   1.265   5.276   6.738 -0.1176  0.0132 -0.7958
 3734TIP3    H132761   1.258   5.251   6.646 -0.3326 -0.6937 -0.5916
 3734TIP3    H232762   1.338   5.225   6.772  0.3916  0.7686 -0.7314
 3735TIP3   OH232763   1.511   2.606   1.145 -0.2105 -0.5159 -0.3782
 3735TIP3    H132764   1.564   2.685   1.151 -0.8960  0.1393 -2.3167
 3735TIP3    H232765   1.557   2.542   1.200 -0.1944  1.4571  2.0484
 3736TIP3   OH232766   0.129   2.191   7.788  0.0886 -0.4129 -0.0144
 3736TIP3    H132767   0.203   2.142   7.825  1.3018  0.0599 -1.7001
 3736TIP3    H232768   0.157   2.282   7.789 -1.6214  0.1736  1.8372
 3737TIP3   OH232769   3.542   5.753   0.854 -0.0568  0.6647 -0.2469
 3737TIP3    H132770   3.601   5.784   0.785  1.3457 -0.8523  0.1974
 3737TIP3    H232771   3.599   5.705   0.914 -1.1190  2.3682  2.2911
 3738TIP3   OH232772   4.380   3.481   6.376  0.3005  0.1617 -0.6082
 3738TIP3    H132773   4.353   3.572   6.389  1.1871  0.4036 -0.3974
 3738TIP3    H232774   4.475   3.483   6.384  0.3223 -0.8022 -0.5426
 3739TIP3   OH232775   6.373   6.768   8.004  0.4745  0.0927 -0.0699
 3739TIP3    H132776   6.367   6.722   7.920  0.9367  0.3115 -0.2220
 3739TIP3    H232777   6.282   6.792   8.024 -0.2113 -3.1100  1.2777
 3740TIP3   OH232778   4.019   2.863   8.463  0.4240  0.3349  0.1614
 3740TIP3    H132779   3.997   2.776   8.497 -0.6915  0.1035 -1.0404
 3740TIP3    H232780   3.948   2.919   8.495  0.6070  0.5866  0.1208
 3741TIP3   OH232781   1.360   4.700   6.554 -0.2306  0.8923 -0.6967
 3741TIP3    H132782   1.398   4.787   6.539  0.4070  0.5120 -1.3397
 3741TIP3    H232783   1.435   4.644   6.571 -0.6130  0.3846 -0.6627
 3742TIP3   OH232784   5.984   6.417   8.258  0.0570 -0.3275 -0.2160
 3742TIP3    H132785   6.010   6.480   8.325  1.1652 -0.6887 -0.2841
 3742TIP3    H232786   6.059   6.414   8.198  0.6695 -2.7570  0.5747
 3743TIP3   OH232787   0.071   0.164   6.805  0.1175  0.3222 -0.5672
 3743TIP3    H132788   0.165   0.146   6.810  0.4107  1.5150 -1.4903
 3743TIP3    H232789   0.044   0.133   6.719 -0.2196  0.4994 -0.5298
 3744TIP3   OH232790   5.384   6.133   0.850 -0.2694 -0.8703  0.7644
 3744TIP3    H132791   5.399   6.107   0.941 -3.3139  1.7307  2.2303
 3744TIP3    H232792   5.361   6.052   0.805 -2.8984 -1.8334  3.4662
 3745TIP3   OH232793   3.633   1.042   7.394  0.3600  0.3107 -0.1611
 3745TIP3    H132794   3.573   1.111   7.367 -0.7808 -0.5810  0.0300
 3745TIP3    H232795   3.706   1.048   7.333 -0.3613  0.8038 -0.9969
 3746TIP3   OH232796   4.096   2.980   0.510  0.2802  0.2932  0.0781
 3746TIP3    H132797   4.045   3.028   0.577  0.3565  0.5694 -0.0599
 3746TIP3    H232798   4.078   3.027   0.429 -0.1857 -0.3237 -0.1855
 3747TIP3   OH232799   4.366   6.670   1.845  0.0914 -0.1489 -0.2819
 3747TIP3    H132800   4.378   6.596   1.905  0.1548  1.3882  1.6970
 3747TIP3    H232801   4.274   6.695   1.856  0.3149  0.6643 -0.2012
 3748TIP3   OH232802   2.743   6.121   2.342  0.0150 -0.0843 -0.4962
 3748TIP3    H132803   2.828   6.158   2.318  0.2102  0.6554  1.1950
 3748TIP3    H232804   2.763   6.034   2.375 -0.1098 -0.5881 -1.6844
 3749TIP3   OH232805   3.864   6.278   1.660 -0.5717 -0.2343  0.5490
 3749TIP3    H132806   3.906   6.340   1.599  0.3510 -1.2587  0.1113
 3749TIP3    H232807   3.834   6.207   1.604  0.5376 -1.3249  1.2999
 3750TIP3   OH232808   0.361   2.223   6.364  0.0366 -0.3862  0.2283
 3750TIP3    H132809   0.321   2.227   6.451 -0.8176  0.3126 -0.1777
 3750TIP3    H232810   0.325   2.142   6.325 -0.8032  0.0977 -0.0319
 3751TIP3   OH232811   2.328   5.184   1.419 -0.1290  0.3020 -0.3877
 3751TIP3    H132812   2.276   5.232   1.484  0.3808  3.3366 -2.0459
 3751TIP3    H232813   2.262   5.144   1.361 -0.5772 -2.0494  1.5838
 3752TIP3   OH232814   0.538   3.207   5.836  0.4853  0.2122 -0.5212
 3752TIP3    H132815   0.601   3.274   5.808  1.2202 -0.8887 -1.5625
 3752TIP3    H232816   0.452   3.248   5.821  0.9234  1.0803 -0.7480
 3753TIP3   OH232817   4.739   5.289   7.974 -0.7021 -0.1299  0.4138
 3753TIP3    H132818   4.725   5.336   7.892  2.0087 -1.2353 -0.8063
 3753TIP3    H232819   4.699   5.203   7.960  2.1148 -1.3345 -0.9607
 3754TIP3   OH232820   4.890   5.578   7.287 -0.4331 -0.0307  0.2407
 3754TIP3    H132821   4.916   5.660   7.329  2.0643 -0.0803 -1.0143
 3754TIP3    H232822   4.891   5.598   7.193  0.1877 -1.4494 -0.0905
 3755TIP3   OH232823   3.316   2.142   0.761  0.0944 -0.1919 -0.3780
 3755TIP3    H132824   3.403   2.179   0.744 -0.4695  1.2491 -0.2535
 3755TIP3    H232825   3.314   2.126   0.855  0.3630 -0.5924 -0.4405
 3756TIP3   OH232826   6.723   2.053   8.423 -0.1089  0.2429  0.1570
 3756TIP3    H132827   6.641   2.005   8.413 -0.5048  1.0175 -0.3789
 3756TIP3    H232828   6.786   1.987   8.454 -0.8466 -0.4242  0.2499
 3757TIP3   OH232829   3.915   6.150   8.241  0.4684  0.0541 -0.1904
 3757TIP3    H132830   3.972   6.190   8.174  0.2340  0.4562 -0.1510
 3757TIP3    H232831   3.874   6.224   8.285 -0.4579 -0.2431 -0.5386
 3758TIP3   OH232832   5.430   6.398   0.505  0.0358 -0.2796  0.0639
 3758TIP3    H132833   5.483   6.448   0.568 -0.2115 -0.0740  0.1077
 3758TIP3    H232834   5.494   6.344   0.459  0.2105 -0.4883  0.5406
 3759TIP3   OH232835   0.116   2.932   1.704  0.0166  0.3480  0.2158
 3759TIP3    H132836   0.060   2.927   1.781 -0.3191 -0.5409 -0.0681
 3759TIP3    H232837   0.191   2.875   1.725 -0.7609 -1.0490 -0.6418
 3760TIP3   OH232838   6.426   4.549   8.008  0.0022 -0.0586  0.3264
 3760TIP3    H132839   6.435   4.612   8.081  1.8895  0.3118 -0.1713
 3760TIP3    H232840   6.473   4.472   8.038  0.0740 -0.2075 -0.1689
 3761TIP3   OH232841   1.503   5.424   0.496  0.8135 -0.3812  0.5178
 3761TIP3    H132842   1.550   5.488   0.442  1.1124 -0.0269  1.1947
 3761TIP3    H232843   1.506   5.343   0.444 -0.4372  0.3752 -0.7999
 3762TIP3   OH232844   6.353   6.763   6.740  0.5231 -0.6588  0.2266
 3762TIP3    H132845   6.395   6.792   6.820  1.9456  1.1367 -1.0779
 3762TIP3    H232846   6.380   6.672   6.729  1.5722 -0.4468  0.9942
 3763TIP3   OH232847   2.479   3.149   0.415  0.4725 -0.6483 -0.1795
 3763TIP3    H132848   2.565   3.107   0.406  0.6439 -0.4912  0.6396
 3763TIP3    H232849   2.494   3.240   0.387  1.0388 -0.1190  1.7309
 3764TIP3   OH232850   6.080   2.716   6.554 -0.5100  0.5268 -0.0899
 3764TIP3    H132851   6.067   2.772   6.477 -1.4377 -0.0866 -0.3930
 3764TIP3    H232852   6.053   2.629   6.526  1.6546 -0.2948  0.1367
 3765TIP3   OH232853   1.069   4.926   7.341 -0.2976 -0.3082  0.4664
 3765TIP3    H132854   1.003   4.927   7.271 -1.5897 -0.1033  1.6356
 3765TIP3    H232855   1.035   4.862   7.404  0.7046 -0.2917  1.0428
 3766TIP3   OH232856   1.143   4.910   0.507  0.4281  0.5607 -0.0774
 3766TIP3    H132857   1.083   4.926   0.580 -0.2377 -0.7165 -0.3197
 3766TIP3    H232858   1.093   4.935   0.429  0.1225 -0.6429 -0.2915
 3767TIP3   OH232859   6.899   1.917   0.596 -1.4470  0.3816  0.2226
 3767TIP3    H132860   6.935   1.830   0.614 -1.2519  0.5185  0.4963
 3767TIP3    H232861   6.908   1.928   0.501 -1.5933  0.0515  0.1690
 3768TIP3   OH232862   6.089   0.353   0.132 -0.3715  0.6461  0.1491
 3768TIP3    H132863   6.104   0.265   0.098  1.4005  1.1356 -0.4031
 3768TIP3    H232864   6.109   0.346   0.226  0.8117  0.6844 -0.0896
 3769TIP3   OH232865   5.181   4.625   7.663 -0.0644 -0.3928 -0.5230
 3769TIP3    H132866   5.137   4.677   7.596  1.2368  1.0257 -0.3532
 3769TIP3    H232867   5.120   4.624   7.737 -1.6861 -2.3172 -1.7861
 3770TIP3   OH232868   2.226   6.590   0.180 -0.2800  0.4572 -0.0245
 3770TIP3    H132869   2.177   6.590   0.263  0.0485 -0.1136  0.1722
 3770TIP3    H232870   2.212   6.678   0.144  0.0306  0.8997  0.9087
 3771TIP3   OH232871   4.350   3.214   6.549 -0.1884  0.0076  0.1794
 3771TIP3    H132872   4.384   3.303   6.562 -0.5870  0.0349  1.1100
 3771TIP3    H232873   4.405   3.178   6.479 -0.2034  1.0741 -0.4076
 3772TIP3   OH232874   1.321   3.428   6.299  0.4023  0.2277 -0.2575
 3772TIP3    H132875   1.407   3.450   6.262  0.5350  1.3155  0.6433
 3772TIP3    H232876   1.323   3.333   6.310  2.1168  0.3654  1.1516
 3773TIP3   OH232877   3.474   2.418   8.289  0.4035  0.6347 -0.6858
 3773TIP3    H132878   3.403   2.371   8.244  0.5569 -0.0844 -0.1980
 3773TIP3    H232879   3.543   2.426   8.224  0.7274 -0.6289 -0.5241
 3774TIP3   OH232880   0.259   0.771   8.385 -0.2682  0.5811  0.0104
 3774TIP3    H132881   0.301   0.837   8.440  1.3920 -0.5523  0.1779
 3774TIP3    H232882   0.305   0.690   8.406 -1.7740 -0.5038 -0.7131
 3775TIP3   OH232883   0.974   5.295   0.345  0.1119  0.3871  0.0032
 3775TIP3    H132884   0.914   5.369   0.331 -0.6969  0.2692  2.4173
 3775TIP3    H232885   1.052   5.335   0.382 -0.0103  0.1334  0.5433
 3776TIP3   OH232886   1.171   6.322   6.871  0.1890 -0.2754 -0.7554
 3776TIP3    H132887   1.264   6.303   6.886  0.6431 -0.1284 -3.0535
 3776TIP3    H232888   1.137   6.342   6.958  1.9989 -1.6018  0.3421
 3777TIP3   OH232889   6.516   1.408   0.422  0.0657  0.7785 -0.4141
 3777TIP3    H132890   6.473   1.472   0.366 -1.7151  0.2927  0.3264
 3777TIP3    H232891   6.572   1.461   0.480  0.0373  1.4874 -1.0169
 3778TIP3   OH232892   6.158   5.851   8.526 -0.2819 -0.0381 -0.0274
 3778TIP3    H132893   6.148   5.940   8.492  2.1306  0.0843 -0.5854
 3778TIP3    H232894   6.200   5.862   8.611  0.0413 -0.6337 -0.1031
 3779TIP3   OH232895   2.028   0.367   8.088 -0.0886 -0.2494  0.0036
 3779TIP3    H132896   2.099   0.347   8.027  0.1757  0.0550  0.2102
 3779TIP3    H232897   1.999   0.282   8.121  0.7422 -0.3207  0.5612
 3780TIP3   OH232898   6.214   4.126   6.032 -0.6682 -0.5844 -0.2002
 3780TIP3    H132899   6.147   4.058   6.022  0.0365 -1.1477 -1.2120
 3780TIP3    H232900   6.288   4.094   5.982  0.3226  0.1102  0.7858
 3781TIP3   OH232901   3.684   3.476   1.702  0.1080 -0.0550  0.1978
 3781TIP3    H132902   3.766   3.462   1.750 -0.4739 -1.6359  0.8101
 3781TIP3    H232903   3.641   3.547   1.749  0.0945 -0.7723  1.3103
 3782TIP3   OH232904   6.324   3.470   7.044 -0.2398  0.1148 -0.1856
 3782TIP3    H132905   6.407   3.472   6.996  0.8033 -1.2545  1.4549
 3782TIP3    H232906   6.257   3.473   6.975  1.1221 -4.7053 -2.1647
 3783TIP3   OH232907   4.859   3.284   2.049  0.0638 -0.4034 -0.1127
 3783TIP3    H132908   4.842   3.322   2.136  0.1980  0.3983 -0.4324
 3783TIP3    H232909   4.942   3.323   2.022 -0.5578  0.2665 -1.1034
 3784TIP3   OH232910   2.490   5.876   1.245 -0.2083 -0.7439 -0.2659
 3784TIP3    H132911   2.465   5.947   1.187 -1.4680 -1.7465 -0.9991
 3784TIP3    H232912   2.502   5.917   1.330 -2.4297  0.1300 -0.3230
 3785TIP3   OH232913   0.490   1.571   1.796  0.7308  0.2698 -0.6797
 3785TIP3    H132914   0.496   1.604   1.706  0.7072  1.4414 -0.2735
 3785TIP3    H232915   0.557   1.620   1.844  1.0948 -0.7096 -0.1532
 3786TIP3   OH232916   3.215   2.960   8.072  0.1517  0.2875 -0.0481
 3786TIP3    H132917   3.301   2.955   8.031  0.9016 -1.6110  1.5874
 3786TIP3    H232918   3.153   2.948   8.001  1.2841 -0.0158 -1.0145
 3787TIP3   OH232919   4.685   4.898   1.276  0.1470  0.0979 -0.3955
 3787TIP3    H132920   4.609   4.891   1.219  0.6513  0.4333 -1.1210
 3787TIP3    H232921   4.662   4.847   1.354 -0.5654 -0.3171 -0.8748
 3788TIP3   OH232922   0.833   6.424   1.637  0.1789  1.0680  0.4201
 3788TIP3    H132923   0.764   6.434   1.702  0.2041  2.5561  0.2592
 3788TIP3    H232924   0.876   6.510   1.634  3.0632 -0.1811  1.6474
 3789TIP3   OH232925   5.681   2.276   0.012 -0.2841 -0.6278 -0.2112
 3789TIP3    H132926   5.597   2.264   0.056 -0.6118 -0.0184 -0.6662
 3789TIP3    H232927   5.660   2.275  -0.082  0.6299 -3.8112 -0.4979
 3790TIP3   OH232928   5.911   0.447   7.378  0.9300  0.3096  0.3106
 3790TIP3    H132929   5.919   0.534   7.339 -0.0361 -0.1532 -0.9893
 3790TIP3    H232930   5.988   0.439   7.435  1.7973  1.4558 -0.6479
 3791TIP3   OH232931   5.381   6.136   6.705 -0.3431  0.0170 -0.3654
 3791TIP3    H132932   5.302   6.184   6.729 -1.0640 -0.4973 -1.6210
 3791TIP3    H232933   5.447   6.204   6.689 -0.3416  0.4317  1.2100
 3792TIP3   OH232934   2.603   4.509   1.433  0.2632  0.7012 -0.2846
 3792TIP3    H132935   2.637   4.445   1.496 -1.0070  0.3433  0.0822
 3792TIP3    H232936   2.677   4.528   1.375  1.3015  0.5869  0.9487
 3793TIP3   OH232937   4.528   0.264   7.154 -0.6478  0.2214  0.4226
 3793TIP3    H132938   4.618   0.231   7.147  0.3633  2.0250  3.1510
 3793TIP3    H232939   4.494   0.222   7.233 -1.9910  0.0771 -0.2193
 3794TIP3   OH232940   3.868   6.740   0.286  0.1637  0.6893 -0.6605
 3794TIP3    H132941   3.932   6.723   0.217  0.7255 -0.0908  0.0202
 3794TIP3    H232942   3.877   6.833   0.306  0.2514  0.8365 -1.3832
 3795TIP3   OH232943   5.506   3.725   0.769 -0.1451 -0.1449  0.6215
 3795TIP3    H132944   5.435   3.788   0.782  1.3923  1.5686  1.1737
 3795TIP3    H232945   5.490   3.658   0.836 -1.7829 -0.3593  0.0659
 3796TIP3   OH232946   3.206   2.692   6.986  0.0360 -0.2989  0.5062
 3796TIP3    H132947   3.277   2.746   6.952  0.0236 -0.1752  0.6723
 3796TIP3    H232948   3.206   2.614   6.931  0.1109 -0.1685  0.3196
 3797TIP3   OH232949   4.598   1.616   6.888 -0.1728 -0.2517 -0.2021
 3797TIP3    H132950   4.644   1.538   6.857 -1.9796 -1.4118 -0.0967
 3797TIP3    H232951   4.663   1.687   6.880  1.2623 -1.5973 -1.0384
 3798TIP3   OH232952   3.567   3.305   6.083  0.1924 -0.6378  0.2880
 3798TIP3    H132953   3.633   3.242   6.113  1.5318  0.0205 -1.0974
 3798TIP3    H232954   3.619   3.375   6.043 -1.2352  1.3511  1.7158
 3799TIP3   OH232955   2.396   4.133   7.415  0.1453  0.2709 -0.0877
 3799TIP3    H132956   2.340   4.204   7.380 -2.0912 -0.2879  2.0747
 3799TIP3    H232957   2.363   4.054   7.371  0.1683  0.1180  0.1718
 3800TIP3   OH232958   4.835   6.507   6.597  0.1140 -0.3025  0.3325
 3800TIP3    H132959   4.813   6.422   6.634  0.9484 -1.0885 -0.8617
 3800TIP3    H232960   4.777   6.517   6.522  0.2193  0.0475  0.2930
 3801TIP3   OH232961   0.068   5.343   1.828  0.7246  0.3295  0.0312
 3801TIP3    H132962   0.122   5.297   1.893 -0.6176  0.0615  1.0000
 3801TIP3    H232963  -0.015   5.359   1.873 -1.3826 -2.4078 -2.4461
 3802TIP3   OH232964   5.576   4.163   1.052  0.5525 -0.0316  0.4322
 3802TIP3    H132965   5.536   4.076   1.048 -0.0444  0.2369 -3.4216
 3802TIP3    H232966   5.670   4.147   1.051  0.5205 -0.5656  2.0739
 3803TIP3   OH232967   5.141   0.452   8.074 -0.3794 -0.5448  0.2057
 3803TIP3    H132968   5.150   0.375   8.129  0.8109  0.2249  1.1423
 3803TIP3    H232969   5.220   0.453   8.020 -0.9217 -0.5860 -0.6067
 3804TIP3   OH232970   4.889   6.170   7.669 -0.0750  0.2341 -0.1534
 3804TIP3    H132971   4.916   6.227   7.596 -0.8595  1.4783  0.4927
 3804TIP3    H232972   4.848   6.229   7.731 -1.9270 -1.2064  0.0621
 3805TIP3   OH232973   0.943   4.195   8.536 -0.3160  0.1610 -0.8100
 3805TIP3    H132974   0.899   4.237   8.462  0.2287  2.8075  0.2465
 3805TIP3    H232975   1.032   4.232   8.534 -0.1671 -0.0523  0.8672
 3806TIP3   OH232976   6.457   6.325   0.609 -0.5979 -0.5523 -0.3226
 3806TIP3    H132977   6.505   6.319   0.527  0.5111 -0.6829  0.3160
 3806TIP3    H232978   6.524   6.315   0.677 -1.3800  0.3378  0.6126
 3807TIP3   OH232979   6.146   4.392   8.075  0.0839  0.3299  0.3702
 3807TIP3    H132980   6.165   4.480   8.107  1.1600 -0.0134  0.7231
 3807TIP3    H232981   6.100   4.405   7.992 -0.2442  1.2199  0.6850
 3808TIP3   OH232982   4.233   3.651   6.893 -0.1734  0.3924  0.6564
 3808TIP3    H132983   4.182   3.730   6.911 -1.9418 -0.3933 -0.6757
 3808TIP3    H232984   4.195   3.615   6.813  0.2975 -2.0551  1.4514
 3809TIP3   OH232985   4.618   0.093   1.479  0.1361 -0.4600 -0.0704
 3809TIP3    H132986   4.647   0.183   1.496  0.1224 -0.2254 -1.2012
 3809TIP3    H232987   4.598   0.058   1.566 -1.7373  1.2740  0.2896
 3810TIP3   OH232988   5.601   1.759   2.521 -0.5854  0.1879  0.5476
 3810TIP3    H132989   5.606   1.826   2.452  1.5068 -1.0850 -0.6219
 3810TIP3    H232990   5.507   1.749   2.537 -1.1260  0.7950 -1.8657
 3811TIP3   OH232991   0.447   2.279   1.377  0.4015  0.6060 -0.4572
 3811TIP3    H132992   0.394   2.212   1.333 -0.8176  0.3929  1.2489
 3811TIP3    H232993   0.418   2.361   1.339  0.1014  0.3580 -0.7764
 3812TIP3   OH232994   0.336   4.083   6.296 -0.2269  0.3666 -0.6683
 3812TIP3    H132995   0.242   4.069   6.284 -0.1710 -0.3406 -0.3644
 3812TIP3    H232996   0.344   4.173   6.325 -1.1155 -0.4629  2.5223
 3813TIP3   OH232997   4.584   2.220   0.720  0.0066 -0.2407  0.0410
 3813TIP3    H132998   4.496   2.252   0.739 -0.4871  0.1315 -2.4483
 3813TIP3    H232999   4.570   2.144   0.663  1.3000 -0.3253 -0.1931
 3814TIP3   OH233000   2.289   2.906   0.607 -0.4441 -0.4073  0.8665
 3814TIP3    H133001   2.313   2.990   0.644 -0.9425 -0.7905  2.1024
 3814TIP3    H233002   2.289   2.920   0.512 -1.7428  1.3219  1.0835
 3815TIP3   OH233003   0.255   3.800   0.317  0.9173 -0.2160  0.7666
 3815TIP3    H133004   0.281   3.827   0.229 -0.7031 -0.7223  0.0876
 3815TIP3    H233005   0.235   3.882   0.362 -0.9858 -0.0586 -0.2812
 3816TIP3   OH233006   0.242   0.692   0.930  0.5237  0.0602  0.6331
 3816TIP3    H133007   0.312   0.657   0.876  0.6838  1.7073 -0.3029
 3816TIP3    H233008   0.281   0.768   0.974 -0.5580  0.8525  0.2845
 3817TIP3   OH233009   5.463   4.305   0.731  0.1858 -0.0113  0.3115
 3817TIP3    H133010   5.450   4.225   0.680  0.5991  0.3053 -0.3018
 3817TIP3    H233011   5.507   4.365   0.671  1.6534  0.0112  1.3602
 3818TIP3   OH233012   0.910   4.707   7.467  0.3683 -0.5129 -0.3092
 3818TIP3    H133013   0.920   4.645   7.540  0.4698  0.0777  0.1887
 3818TIP3    H233014   0.870   4.784   7.507  2.9515  0.9159 -0.2648
 3819TIP3   OH233015   2.243   0.643   6.859  0.1869 -0.1242  0.0613
 3819TIP3    H133016   2.325   0.594   6.866  0.8177  0.8147 -0.5916
 3819TIP3    H233017   2.221   0.639   6.766 -0.0211  0.4123  0.0844
 3820TIP3   OH233018   4.611   4.615   8.491 -0.3266  0.0146  0.3933
 3820TIP3    H133019   4.631   4.523   8.509 -1.6083 -0.1228  1.2149
 3820TIP3    H233020   4.679   4.663   8.539  1.0187 -0.4899 -0.9339
 3821TIP3   OH233021   6.407   3.401   8.027  0.2223 -0.5212  0.3066
 3821TIP3    H133022   6.405   3.476   7.968 -1.1687 -1.4181 -0.8882
 3821TIP3    H233023   6.317   3.391   8.057  0.8106 -0.3831  2.2580
 3822TIP3   OH233024   5.870   2.288   0.913 -0.3415 -0.4237  0.0715
 3822TIP3    H133025   5.914   2.327   0.989 -0.9098 -0.0598  0.2214
 3822TIP3    H233026   5.804   2.352   0.888  0.3998 -0.1502 -1.2730
 3823TIP3   OH233027   3.596   6.364   0.426 -0.4725  0.1346 -0.6817
 3823TIP3    H133028   3.670   6.330   0.477 -2.2189 -0.9891  1.2734
 3823TIP3    H233029   3.636   6.412   0.354  2.1403 -1.1924 -0.2143
 3824TIP3   OH233030   4.704   3.775   6.338 -0.0171  0.0201 -0.5744
 3824TIP3    H133031   4.647   3.807   6.268 -2.0614 -0.7199  0.6749
 3824TIP3    H233032   4.709   3.680   6.325 -1.5128 -0.3117  0.9971
 3825TIP3   OH233033   0.209   5.289   1.602  0.7021  0.4949  0.1430
 3825TIP3    H133034   0.278   5.245   1.653  1.6298  1.7719  0.0284
 3825TIP3    H233035   0.156   5.334   1.668  0.7441  0.5534  0.1371
 3826TIP3   OH233036   4.316   2.020   1.977 -0.6937 -1.1239  0.6479
 3826TIP3    H133037   4.323   1.965   2.056  1.6981 -2.1713 -0.2080
 3826TIP3    H233038   4.288   1.960   1.909 -1.9174 -0.3910  0.4686
 3827TIP3   OH233039   0.829   1.557   7.129  0.0199 -0.6822  0.0780
 3827TIP3    H133040   0.813   1.645   7.095 -1.4850 -0.4646  1.1984
 3827TIP3    H233041   0.762   1.546   7.197  2.5668 -1.2284  2.6570
 3828TIP3   OH233042   5.067   3.866   0.338 -0.0184  0.1858  0.5841
 3828TIP3    H133043   4.978   3.901   0.340 -1.0739 -2.1499 -1.0783
 3828TIP3    H233044   5.115   3.923   0.278 -0.4390  1.3219  1.3081
 3829TIP3   OH233045   4.228   0.898   7.793  0.2900  0.2020  1.0897
 3829TIP3    H133046   4.151   0.939   7.833  0.1914 -1.1998  2.3974
 3829TIP3    H233047   4.287   0.880   7.866  1.2902  0.0367  0.2591
 3830TIP3   OH233048   0.316   3.928   8.110 -0.1710 -0.0048 -0.3451
 3830TIP3    H133049   0.257   3.960   8.042  0.6112  0.0120 -1.0292
 3830TIP3    H233050   0.396   3.980   8.100 -0.2228  0.3394  0.9156
 3831TIP3   OH233051   3.345   1.747   0.060  0.0213  0.0912  0.3892
 3831TIP3    H133052   3.423   1.728   0.007  0.0284 -0.6649  0.6602
 3831TIP3    H233053   3.380   1.772   0.145 -0.0207  0.4239  0.3124
 3832TIP3   OH233054   0.611   0.600   1.158  0.0108 -0.1471 -0.0085
 3832TIP3    H133055   0.671   0.673   1.174 -1.1593  0.8928 -0.1624
 3832TIP3    H233056   0.591   0.566   1.245  1.1020 -0.7569  0.0175
 3833TIP3   OH233057   2.445   1.965   1.084  0.4354 -0.7024  0.6861
 3833TIP3    H133058   2.448   2.006   1.170 -2.2297  0.0278  0.5132
 3833TIP3    H233059   2.460   2.038   1.023 -0.6378 -0.6281  0.4877
 3834TIP3   OH233060   3.214   5.924   6.916 -0.1098  0.1599  0.0229
 3834TIP3    H133061   3.231   5.955   6.827 -0.5440 -0.9648 -0.4716
 3834TIP3    H233062   3.228   5.829   6.911 -1.0971 -0.0487  0.9170
 3835TIP3   OH233063   2.931   3.648   0.310 -0.3109  0.4335 -0.0093
 3835TIP3    H133064   2.892   3.659   0.223  0.9075  2.1795 -0.3812
 3835TIP3    H233065   2.976   3.563   0.305 -1.7185 -0.3119 -0.4707
 3836TIP3   OH233066   2.622   2.898   2.015 -0.0122 -0.4181  0.1646
 3836TIP3    H133067   2.647   2.886   2.107  0.3052 -0.7604  0.0384
 3836TIP3    H233068   2.598   2.810   1.986 -0.0916 -0.3131 -0.0882
 3837TIP3   OH233069   4.260   5.285   8.491 -0.2121 -0.4813  0.2501
 3837TIP3    H133070   4.270   5.320   8.403 -1.5316 -0.0548  0.2569
 3837TIP3    H233071   4.345   5.303   8.533  0.5830 -1.1022 -1.0484
 3838TIP3   OH233072   1.416   5.250   7.690  0.1983  0.2898  0.1005
 3838TIP3    H133073   1.460   5.255   7.774 -0.0789  1.4794  0.1882
 3838TIP3    H233074   1.485   5.265   7.625  0.7013 -2.0503 -0.0065
 3839TIP3   OH233075   6.439   5.862   7.007 -0.2237 -0.2875 -0.5569
 3839TIP3    H133076   6.486   5.787   7.042  1.5696  1.5450  1.1930
 3839TIP3    H233077   6.506   5.928   6.991 -1.6231  0.6866 -2.9111
 3840TIP3   OH233078   3.894   0.791   8.546 -0.0611  0.0480  0.3400
 3840TIP3    H133079   3.856   0.728   8.485 -1.3266  0.4690  0.6591
 3840TIP3    H233080   3.976   0.818   8.505 -0.3599 -0.4940 -0.6382
 3841TIP3   OH233081   0.564   1.824   0.887  0.4156  0.1999 -0.1671
 3841TIP3    H133082   0.616   1.837   0.808  1.1021  1.1944  0.4135
 3841TIP3    H233083   0.590   1.737   0.918  1.1732  0.3604 -0.3122
 3842TIP3   OH233084   1.647   4.993   0.784 -0.3542 -0.7012  0.2417
 3842TIP3    H133085   1.652   4.956   0.872 -3.6522 -2.7587 -0.2402
 3842TIP3    H233086   1.687   4.927   0.727  0.4942 -0.0205  0.0226
 3843TIP3   OH233087   0.416   2.007   7.757 -0.0281 -0.4032  0.0848
 3843TIP3    H133088   0.445   2.087   7.713  1.5985  0.3140  2.2884
 3843TIP3    H233089   0.477   1.940   7.727  1.1539  0.1097  1.2497
 3844TIP3   OH233090   2.445   3.349   7.272 -0.1016 -0.1674 -0.1678
 3844TIP3    H133091   2.474   3.437   7.247  0.1316 -0.6445 -1.6680
 3844TIP3    H233092   2.510   3.320   7.336  1.4443 -0.3071 -1.7361
 3845TIP3   OH233093   4.974   6.463   7.047 -0.2354 -0.5329 -0.0328
 3845TIP3    H133094   4.961   6.388   6.989 -1.5435  0.3814 -0.9631
 3845TIP3    H233095   4.964   6.539   6.990  0.2630  0.3735  1.0604
 3846TIP3   OH233096   1.699   1.582   6.152 -0.0642  0.3767 -0.1278
 3846TIP3    H133097   1.783   1.620   6.126  0.2766 -0.3363 -0.0882
 3846TIP3    H233098   1.688   1.506   6.094  0.2665 -0.6923  1.1813
 3847TIP3   OH233099   5.966   1.434   7.977 -0.4018  0.0388  0.0921
 3847TIP3    H133100   5.999   1.509   7.928  1.6251  0.3469  1.7689
 3847TIP3    H233101   5.889   1.467   8.024 -0.5721  0.5510 -0.5405
 3848TIP3   OH233102   0.318   5.471   7.646  0.2074  0.1171 -0.4555
 3848TIP3    H133103   0.405   5.465   7.606  1.3429  0.4820  1.7676
 3848TIP3    H233104   0.305   5.565   7.662  0.3131 -0.0832  0.9723
 3849TIP3   OH233105   1.117   2.851   7.183  0.8165  0.2640  0.0725
 3849TIP3    H133106   1.150   2.939   7.198 -0.2674  0.7338 -0.1831
 3849TIP3    H233107   1.119   2.839   7.088  1.5682 -0.2447  0.1413
 3850TIP3   OH233108   5.190   4.110   8.020 -0.8944  0.2793 -0.5721
 3850TIP3    H133109   5.233   4.195   8.020 -1.0806  0.3733 -0.4681
 3850TIP3    H233110   5.202   4.077   7.931  2.2751 -1.1547  0.2610
 3851TIP3   OH233111   4.850   6.115   8.435 -0.6004 -0.3109  0.7975
 3851TIP3    H133112   4.925   6.164   8.468 -1.1125  0.2853  1.0805
 3851TIP3    H233113   4.831   6.051   8.504 -0.7090 -0.0842  0.9780
 3852TIP3   OH233114   5.910   2.496   8.415 -0.3712  0.2639 -0.5901
 3852TIP3    H133115   5.815   2.488   8.406 -0.4958 -0.3710  0.9141
 3852TIP3    H233116   5.946   2.448   8.341 -1.2162  0.8824 -1.4230
 3853TIP3   OH233117   3.334   1.834   0.679 -0.2954 -0.1664  0.2276
 3853TIP3    H133118   3.337   1.929   0.673 -1.7899 -0.1100 -0.1755
 3853TIP3    H233119   3.292   1.816   0.764 -2.2149 -0.3700 -0.7071
 3854TIP3   OH233120   1.183   4.370   6.953  0.0137  0.3097  0.7721
 3854TIP3    H133121   1.132   4.296   6.985 -0.5435  1.1322  1.8418
 3854TIP3    H233122   1.204   4.347   6.863 -1.3579 -0.5175  0.6308
 3855TIP3   OH233123   2.830   6.326   7.392  0.5800 -0.0426 -0.5028
 3855TIP3    H133124   2.875   6.298   7.472 -0.2308  0.8840  0.2993
 3855TIP3    H233125   2.813   6.244   7.345  0.9372 -0.6161  0.3297
 3856TIP3   OH233126   5.796   4.192   0.615 -0.1777 -0.5903 -0.2450
 3856TIP3    H133127   5.812   4.234   0.699  2.7392 -1.2099 -0.3708
 3856TIP3    H233128   5.739   4.118   0.636 -2.5001  1.2790  0.5123
 3857TIP3   OH233129   1.093   6.283   7.417 -0.4074  0.2325  0.0754
 3857TIP3    H133130   1.180   6.307   7.449  0.0888 -2.0935  0.6181
 3857TIP3    H233131   1.069   6.354   7.357  1.4489  1.3804  0.6175
 3858TIP3   OH233132   3.118   3.918   2.135 -0.2545  0.3939  0.1158
 3858TIP3    H133133   3.181   3.896   2.066  1.8527  0.1516  2.0027
 3858TIP3    H233134   3.119   3.841   2.192 -1.2220  0.9787  0.9401
 3859TIP3   OH233135   4.551   6.790   6.103 -0.0399 -0.1004  0.3506
 3859TIP3    H133136   4.594   6.786   6.188  2.0846 -2.8616 -0.6720
 3859TIP3    H233137   4.600   6.728   6.049 -2.9923 -0.5271 -2.1178
 3860TIP3   OH233138   6.835   1.120   6.303 -0.0011 -0.2855  0.1236
 3860TIP3    H133139   6.764   1.117   6.366 -0.9599 -0.0470 -0.9058
 3860TIP3    H233140   6.826   1.205   6.259  1.0760 -0.1398  0.1444
 3861TIP3   OH233141   6.766   2.866   7.790  0.3840  0.9050  0.0544
 3861TIP3    H133142   6.720   2.945   7.819 -0.1373  0.8125 -0.4885
 3861TIP3    H233143   6.769   2.874   7.694 -2.4118 -1.1620 -0.3361
 3862TIP3   OH233144   4.509   0.753   7.594  0.1675  0.3408  0.5971
 3862TIP3    H133145   4.563   0.755   7.673  0.9505  2.7415  0.0741
 3862TIP3    H233146   4.434   0.699   7.618  2.3026 -2.4350  1.6332
 3863TIP3   OH233147   2.901   4.638   0.362 -0.1630 -0.4505 -0.2665
 3863TIP3    H133148   2.938   4.550   0.365  0.4189 -0.2260 -0.8635
 3863TIP3    H233149   2.851   4.641   0.281 -0.1669 -0.2201 -0.2569
 3864TIP3   OH233150   6.229   4.085   8.053 -0.1515 -0.9812  0.2021
 3864TIP3    H133151   6.317   4.079   8.091  0.4422 -2.0131 -1.2723
 3864TIP3    H233152   6.209   4.179   8.052  0.9986 -0.7239  0.3893
 3865TIP3   OH233153   5.263   4.275   1.316  0.0495 -0.2465 -0.1382
 3865TIP3    H133154   5.299   4.194   1.352  0.8491 -0.0832 -0.5384
 3865TIP3    H233155   5.259   4.335   1.390 -2.3802 -1.2094  0.6093
 3866TIP3   OH233156   4.792   1.728   6.631  0.1531 -0.6679  0.1655
 3866TIP3    H133157   4.829   1.816   6.634 -0.6058 -0.3674  0.9247
 3866TIP3    H233158   4.862   1.672   6.668 -0.3583 -0.0045  2.2913
 3867TIP3   OH233159   1.944   0.370   7.618  0.0039  0.0865 -0.2286
 3867TIP3    H133160   1.896   0.393   7.539  0.3862  2.0174  0.0611
 3867TIP3    H233161   1.919   0.436   7.682  0.4051 -0.9041  1.0028
 3868TIP3   OH233162   5.614   2.080   1.249 -0.0311 -0.5107  0.1091
 3868TIP3    H133163   5.588   2.167   1.281  0.6519 -0.3847  0.3388
 3868TIP3    H233164   5.694   2.060   1.297 -1.1650 -2.0915  1.4663
 3869TIP3   OH233165   1.564   3.799   7.244  0.1386 -0.1050  0.0712
 3869TIP3    H133166   1.607   3.725   7.201  0.7121  0.3297 -0.1102
 3869TIP3    H233167   1.470   3.781   7.233  0.2648  0.1084 -1.5890
 3870TIP3   OH233168   4.233   2.269   7.915 -0.2969  0.0688  0.2841
 3870TIP3    H133169   4.195   2.299   7.832 -0.4692 -1.2996 -0.1586
 3870TIP3    H233170   4.281   2.190   7.891 -1.6596 -1.2688  1.7331
 3871TIP3   OH233171   5.096   5.751   8.512  0.2536 -0.2403  0.1833
 3871TIP3    H133172   5.188   5.727   8.518 -0.2516 -2.1945  0.9803
 3871TIP3    H233173   5.092   5.839   8.550  1.7544 -0.1949  0.3014
 3872TIP3   OH233174   2.390   1.779   1.328 -0.1666  0.6281 -0.3759
 3872TIP3    H133175   2.447   1.720   1.279  0.6376  1.7759 -0.8559
 3872TIP3    H233176   2.386   1.859   1.275 -0.1389  1.5033  0.8964
 3873TIP3   OH233177   3.177   0.725   0.149  0.0001  0.7360 -0.2241
 3873TIP3    H133178   3.127   0.679   0.216 -1.1512  0.3975 -1.2864
 3873TIP3    H233179   3.261   0.680   0.147 -0.7476 -0.6891 -0.5458
 3874TIP3   OH233180   2.455   2.716   0.240  0.4278  0.4320 -0.7269
 3874TIP3    H133181   2.534   2.723   0.187  1.1699  0.5890  0.3535
 3874TIP3    H233182   2.486   2.681   0.324 -0.7011  0.1988 -0.3896
 3875TIP3   OH233183   4.386   2.676   6.406  0.3503  0.2238  0.4345
 3875TIP3    H133184   4.375   2.751   6.347 -0.7224  0.3244  0.7497
 3875TIP3    H233185   4.402   2.602   6.348 -0.1914  0.4103  0.0437
 3876TIP3   OH233186   4.380   6.774   1.554  0.6258 -0.6202 -0.3317
 3876TIP3    H133187   4.447   6.763   1.621  1.1946  0.5573 -0.6747
 3876TIP3    H233188   4.409   6.719   1.481  2.1590  1.1392 -1.1297
 3877TIP3   OH233189   6.766   4.883   0.931  0.3591  0.3130  0.3097
 3877TIP3    H133190   6.820   4.816   0.973 -0.9983  0.3559  2.2497
 3877TIP3    H233191   6.726   4.930   1.004  0.5268  2.6444 -1.0203
 3878TIP3   OH233192   2.661   5.267   7.857 -0.1226  0.0929  0.3866
 3878TIP3    H133193   2.706   5.351   7.866 -1.5949  1.0139 -0.4170
 3878TIP3    H233194   2.690   5.233   7.772 -0.4783  0.3977  0.1415
 3879TIP3   OH233195   5.887   2.643   8.101 -0.1730 -0.3238 -0.3807
 3879TIP3    H133196   5.816   2.683   8.151 -0.9398  0.2482 -1.8752
 3879TIP3    H233197   5.959   2.706   8.106 -0.4090 -0.0531 -0.3935
 3880TIP3   OH233198   2.900   3.960   0.737 -0.2177  0.0734  0.2454
 3880TIP3    H133199   2.819   3.927   0.775 -0.1408 -1.1938 -0.6267
 3880TIP3    H233200   2.905   3.917   0.651  1.1001  0.5540  0.0635
 3881TIP3   OH233201   5.070   2.169   8.257  0.0897 -0.5292  0.2077
 3881TIP3    H133202   5.006   2.110   8.218 -1.2720  1.5497 -0.8938
 3881TIP3    H233203   5.124   2.198   8.184 -0.6906  1.2635  0.2966
 3882TIP3   OH233204   5.446   4.280   7.830  0.0386  0.8001 -0.1989
 3882TIP3    H133205   5.522   4.246   7.878 -1.0669  1.1043  1.8889
 3882TIP3    H233206   5.440   4.224   7.752  0.9602 -0.8124  0.8227
 3883TIP3   OH233207   1.605   4.475   1.235  0.1982  0.0964 -0.5652
 3883TIP3    H133208   1.675   4.540   1.244  0.2187  0.0447 -0.3625
 3883TIP3    H233209   1.611   4.447   1.143 -0.5370  1.2148 -0.9691
 3884TIP3   OH233210   4.351   3.242   7.876  0.4475 -0.0099  0.1759
 3884TIP3    H133211   4.361   3.284   7.961  0.9909 -0.7970  0.5047
 3884TIP3    H233212   4.361   3.149   7.893 -0.5954 -0.2871 -0.5728
 3885TIP3   OH233213   6.503   2.691   7.459 -0.4894 -0.0805  0.0201
 3885TIP3    H133214   6.408   2.692   7.457 -0.4874  1.5922 -0.4460
 3885TIP3    H233215   6.530   2.672   7.370 -0.4133  1.2682 -0.2681
 3886TIP3   OH233216   5.844   6.146   0.408  0.7561 -0.5190  0.0455
 3886TIP3    H133217   5.865   6.157   0.315  0.7082 -0.4906  0.0378
 3886TIP3    H233218   5.925   6.116   0.448  0.9721  0.1736  0.1242
 3887TIP3   OH233219   3.951   4.077   1.160  0.1131 -0.5444 -0.2221
 3887TIP3    H133220   4.002   4.112   1.233 -0.4667 -0.6076  0.2095
 3887TIP3    H233221   3.919   3.993   1.191 -1.3732  0.0820  0.0039
 3888TIP3   OH233222   5.578   2.007   2.350  0.0758 -0.0330  0.3700
 3888TIP3    H133223   5.606   2.079   2.294  0.7738 -1.2695 -0.9678
 3888TIP3    H233224   5.648   1.998   2.414  0.2414  0.1429  0.2159
 3889TIP3   OH233225   5.185   2.254   8.036  0.0077 -0.0080  0.1103
 3889TIP3    H133226   5.179   2.163   8.004  0.2509  0.2206 -0.6011
 3889TIP3    H233227   5.125   2.303   7.980 -0.5777  0.1748  0.8823
 3890TIP3   OH233228   1.173   4.796   2.197 -0.1004  0.2491 -0.1646
 3890TIP3    H133229   1.142   4.779   2.108 -1.5162 -1.5489  0.6108
 3890TIP3    H233230   1.198   4.709   2.230 -1.4376  0.5607  1.8188
 3891TIP3   OH233231   4.152   3.453   1.142  0.6207 -0.1129 -0.1575
 3891TIP3    H133232   4.076   3.474   1.088  1.2923  0.5870 -0.8605
 3891TIP3    H233233   4.119   3.456   1.232 -0.4055 -0.8127 -0.4933
 3892TIP3   OH233234   5.054   1.845   8.404 -0.3071  0.5884  0.4162
 3892TIP3    H133235   4.973   1.874   8.361 -0.2878 -0.2686 -0.2172
 3892TIP3    H233236   5.031   1.842   8.497 -0.4742  2.0488  0.4498
 3893TIP3   OH233237   6.152   3.074   0.283 -0.7602 -0.1258 -0.4397
 3893TIP3    H133238   6.100   3.154   0.278 -0.6874 -0.1158 -1.0215
 3893TIP3    H233239   6.236   3.096   0.244  0.3163  0.3359  1.9769
 3894TIP3   OH233240   3.859   5.951   7.835 -0.6394  0.3629 -0.4309
 3894TIP3    H133241   3.794   5.887   7.865 -0.2783 -0.3040 -1.0427
 3894TIP3    H233242   3.931   5.898   7.801  0.9601  1.0467  1.6612
 3895TIP3   OH233243   2.253   0.457   6.320  0.2895 -0.1801 -0.2619
 3895TIP3    H133244   2.301   0.530   6.282  0.8206 -0.6748 -0.5760
 3895TIP3    H233245   2.161   0.474   6.301  0.3023  0.9467  0.6161
 3896TIP3   OH233246   1.296   3.164   6.378  0.4529 -0.0257 -0.1360
 3896TIP3    H133247   1.345   3.122   6.449 -1.5941 -0.2808  1.1922
 3896TIP3    H233248   1.279   3.094   6.315 -2.1355 -1.1114  1.6246
 3897TIP3   OH233249   1.676   4.165   8.551  0.1445  0.0617  0.6374
 3897TIP3    H133250   1.666   4.127   8.463 -0.4971  1.6578 -0.0109
 3897TIP3    H233251   1.705   4.091   8.605 -1.4445 -1.4654 -0.4729
 3898TIP3   OH233252   6.192   4.886   0.204 -0.0788  0.7329 -0.5717
 3898TIP3    H133253   6.200   4.978   0.228 -1.2655  0.7414 -0.1423
 3898TIP3    H233254   6.098   4.873   0.191  0.0273 -0.5281 -0.1783
 3899TIP3   OH233255   3.901   5.197   0.827  0.4171 -0.1053 -0.3920
 3899TIP3    H133256   3.874   5.208   0.918  1.2870 -0.5708 -0.0675
 3899TIP3    H233257   3.973   5.259   0.815  0.9949 -0.7720 -0.4495
 3900TIP3   OH233258   3.513   4.622   7.024  0.2063  0.1164  0.4225
 3900TIP3    H133259   3.456   4.630   7.101  1.8381 -0.5467  1.7630
 3900TIP3    H233260   3.481   4.544   6.978 -1.3043  0.9816 -0.0846
 3901TIP3   OH233261   1.161   3.652   7.565 -0.0728  0.4471  0.1210
 3901TIP3    H133262   1.068   3.643   7.542 -0.1344  1.6219 -0.1549
 3901TIP3    H233263   1.162   3.715   7.636  0.5433  0.6480 -0.0636
 3902TIP3   OH233264   1.716   5.253   1.958 -0.3062 -0.6170 -0.1015
 3902TIP3    H133265   1.740   5.276   1.868 -1.3853  0.7301 -0.0637
 3902TIP3    H233266   1.786   5.291   2.012 -0.6641  0.2512 -0.2407
 3903TIP3   OH233267   3.237   3.653   7.063  0.2583 -0.0255 -0.0794
 3903TIP3    H133268   3.147   3.666   7.034 -0.4849 -0.7263  1.7681
 3903TIP3    H233269   3.275   3.593   6.998 -0.0686  1.5306 -1.7680
 3904TIP3   OH233270   2.115   5.825   0.989  0.4069  0.1989 -0.0495
 3904TIP3    H133271   2.135   5.895   0.927  0.8253 -0.2528 -0.4301
 3904TIP3    H233272   2.118   5.867   1.075 -0.5521  0.9195 -0.3437
 3905TIP3   OH233273   4.744   6.789   7.244 -0.1354  0.2237 -0.1753
 3905TIP3    H133274   4.679   6.793   7.314  0.7986  0.9453  0.6776
 3905TIP3    H233275   4.701   6.828   7.168  0.1863  3.4264  1.1258
 3906TIP3   OH233276   0.452   6.726   6.297  0.1700 -0.4035 -0.2488
 3906TIP3    H133277   0.378   6.699   6.352  0.8560 -1.8989 -0.0132
 3906TIP3    H233278   0.428   6.698   6.209  1.3942 -3.1273  0.1657
 3907TIP3   OH233279   3.213   6.842   1.370  0.1754  0.3376  0.3522
 3907TIP3    H133280   3.160   6.917   1.397 -1.2493 -0.6728  0.4353
 3907TIP3    H233281   3.207   6.842   1.275 -1.5772 -0.8627  0.4239
 3908TIP3   OH233282   3.624   5.885   0.588 -0.0835  0.0141  0.0096
 3908TIP3    H133283   3.530   5.889   0.573 -0.1103  1.3893  0.3736
 3908TIP3    H233284   3.663   5.908   0.504 -0.0431 -1.0921 -0.2903
 3909TIP3   OH233285   2.412   6.777   2.437  0.3670 -0.2677 -0.3816
 3909TIP3    H133286   2.372   6.864   2.435  1.3899  0.3244  1.8860
 3909TIP3    H233287   2.355   6.725   2.493  0.1133 -0.8902 -1.1970
 3910TIP3   OH233288   4.052   0.443   7.329 -0.1896 -0.2251 -0.5313
 3910TIP3    H133289   4.036   0.525   7.375 -0.1805  0.2725 -1.3867
 3910TIP3    H233290   4.076   0.381   7.398  1.9593  1.0328 -0.0447
 3911TIP3   OH233291   5.069   4.294   8.556  0.1122 -0.6479  0.7291
 3911TIP3    H133292   5.020   4.235   8.615  0.3148 -0.3884  1.1594
 3911TIP3    H233293   5.105   4.236   8.490 -0.3847 -0.9061  0.6764
 3912TIP3   OH233294   5.628   4.523   1.518  0.4153 -0.0965  0.0162
 3912TIP3    H133295   5.640   4.554   1.608 -0.1186  0.0688  0.0355
 3912TIP3    H233296   5.625   4.603   1.466 -0.9332 -0.0899  0.0609
 3913TIP3   OH233297   4.133   1.211   7.169 -0.0583 -0.1481 -0.7333
 3913TIP3    H133298   4.205   1.258   7.211 -0.2096 -1.4035  1.0161
 3913TIP3    H233299   4.058   1.223   7.228 -0.1168 -2.4786 -0.2520
 3914TIP3   OH233300   0.012   2.182   0.121  0.4826 -0.2996 -0.3965
 3914TIP3    H133301  -0.073   2.139   0.110  0.7351 -0.8667 -0.1273
 3914TIP3    H233302  -0.009   2.276   0.120 -0.0063 -0.4122 -1.4607
 3915TIP3   OH233303   4.165   3.607   6.602  0.5068  0.1641 -0.1708
 3915TIP3    H133304   4.072   3.605   6.623  0.6690  0.7209  0.6400
 3915TIP3    H233305   4.177   3.691   6.556  0.4378 -0.3579 -1.1849
 3916TIP3   OH233306   5.849   1.342   5.635  0.0664 -0.3550  0.1276
 3916TIP3    H133307   5.850   1.258   5.681  2.2013  0.5887  2.0219
 3916TIP3    H233308   5.761   1.376   5.648 -0.5368 -1.8617  0.1291
 3917TIP3   OH233309   5.686   6.708   7.879 -0.7215  0.1436  0.2295
 3917TIP3    H133310   5.737   6.643   7.927 -0.6420 -0.1085 -0.1918
 3917TIP3    H233311   5.624   6.743   7.944 -0.6817 -0.2617  0.4867
 3918TIP3   OH233312   4.738   3.660   1.233  0.2060  0.2685  0.0157
 3918TIP3    H133313   4.693   3.619   1.307  0.2723 -2.3152 -1.2650
 3918TIP3    H233314   4.669   3.710   1.188 -1.1218 -2.2206 -0.9302
 3919TIP3   OH233315   3.278   0.687   0.429 -0.5150  0.5332 -0.0647
 3919TIP3    H133316   3.323   0.714   0.349  1.8439  1.3581  1.4500
 3919TIP3    H233317   3.310   0.747   0.496 -5.5234  2.6842  0.8746
 3920TIP3   OH233318   4.209   0.145   1.595  0.4572  0.0836 -0.0833
 3920TIP3    H133319   4.123   0.180   1.619  0.9307  0.8467  0.5334
 3920TIP3    H233320   4.190   0.080   1.527 -0.7302 -0.7423  0.9881
 3921TIP3   OH233321   2.389   4.764   7.870 -1.0012 -0.2094 -0.1985
 3921TIP3    H133322   2.457   4.697   7.868  0.5251  1.1329  2.2765
 3921TIP3    H233323   2.402   4.812   7.788 -0.1543 -1.0662 -0.5961
 3922TIP3   OH233324   2.505   3.105   8.110 -0.0272  0.3366 -0.3335
 3922TIP3    H133325   2.536   3.018   8.136 -0.2786 -0.4938 -2.6117
 3922TIP3    H233326   2.579   3.164   8.129  0.2097 -0.3684  1.0630
 3923TIP3   OH233327   5.418   1.355   1.105 -0.0562 -0.6608  0.5537
 3923TIP3    H133328   5.507   1.334   1.135  0.0776  0.3970  0.9488
 3923TIP3    H233329   5.361   1.298   1.157  0.4058 -1.6093  0.0389
 3924TIP3   OH233330   1.253   6.010   0.420  0.1774 -0.5681  0.3179
 3924TIP3    H133331   1.300   5.995   0.338  0.2807 -2.1517  0.6339
 3924TIP3    H233332   1.278   5.936   0.476  0.5913  0.7845  2.0172
 3925TIP3   OH233333   0.455   4.302   7.633  0.2937  0.4502 -0.1321
 3925TIP3    H133334   0.469   4.229   7.693 -2.7301 -0.0579  0.1240
 3925TIP3    H233335   0.416   4.371   7.686 -0.0748  0.9655 -1.0350
 3926TIP3   OH233336   2.029   6.410   7.448 -0.6015  0.3797 -0.0612
 3926TIP3    H133337   2.039   6.337   7.510  2.6011 -0.4615 -1.3422
 3926TIP3    H233338   1.953   6.388   7.396 -1.0360 -0.8719  1.0507
 3927TIP3   OH233339   0.134   1.512   6.617  0.0392 -0.3549 -0.6608
 3927TIP3    H133340   0.042   1.485   6.609 -0.3044  0.5711 -0.0204
 3927TIP3    H233341   0.184   1.431   6.606 -0.9316 -1.1863  0.7753
 3928TIP3   OH233342   1.136   0.543   0.348  0.6399 -0.0588 -0.2306
 3928TIP3    H133343   1.196   0.491   0.295  1.3353  0.5310 -0.0490
 3928TIP3    H233344   1.070   0.575   0.287 -1.4264 -3.3351  0.0714
 3929TIP3   OH233345   5.854   4.550   0.693 -0.6185 -0.1339 -0.0519
 3929TIP3    H133346   5.917   4.502   0.748 -0.9374  0.3514  0.7628
 3929TIP3    H233347   5.908   4.597   0.630 -0.1997 -0.2718  0.1995
 3930TIP3   OH233348   6.612   5.249   1.537 -0.7268  0.2615 -0.0887
 3930TIP3    H133349   6.645   5.312   1.473 -0.7391 -0.6628 -1.0448
 3930TIP3    H233350   6.595   5.300   1.616  0.7267  1.1768 -0.3337
 3931TIP3   OH233351   6.180   3.241   6.772 -0.3109 -0.2209 -0.0912
 3931TIP3    H133352   6.170   3.150   6.743 -0.4523 -0.0494 -0.5882
 3931TIP3    H233353   6.264   3.269   6.735  0.1143 -0.3854  0.7109
 3932TIP3   OH233354   4.984   6.721   0.222 -0.2391 -0.2077 -0.4450
 3932TIP3    H133355   4.948   6.649   0.171  0.9151 -1.0965 -0.0503
 3932TIP3    H233356   4.924   6.731   0.296  1.5024 -3.4083  1.6594
 3933TIP3   OH233357   0.017   3.237   1.181 -0.1017  0.0752 -0.0671
 3933TIP3    H133358  -0.012   3.249   1.271 -0.4483 -0.6134 -0.0823
 3933TIP3    H233359   0.107   3.270   1.179 -1.0871  3.0439 -0.1901
 3934TIP3   OH233360   4.104   0.498   1.551  0.4084  0.2690 -0.0906
 3934TIP3    H133361   4.181   0.489   1.607  0.1920  2.7214  0.6992
 3934TIP3    H233362   4.046   0.426   1.577  1.9541 -1.0132 -0.0084
 3935TIP3   OH233363   5.171   1.383   6.695 -0.2945  0.0419  0.4762
 3935TIP3    H133364   5.238   1.443   6.726 -2.8517  2.6841  1.4276
 3935TIP3    H233365   5.175   1.388   6.600 -0.2752  1.6395  0.5309
 3936TIP3   OH233366   3.159   5.475   8.479 -0.1629  0.6773  0.0372
 3936TIP3    H133367   3.091   5.418   8.445 -0.6550  0.9397  0.5528
 3936TIP3    H233368   3.178   5.440   8.566  0.6192  0.3915 -0.2438
 3937TIP3   OH233369   3.014   1.469   0.678 -0.4391 -0.7045  0.4278
 3937TIP3    H133370   3.075   1.539   0.701 -1.2495 -0.6223  2.5503
 3937TIP3    H233371   3.015   1.467   0.582  0.1528  1.7312  0.3069
 3938TIP3   OH233372   3.390   2.589   6.428  0.1914 -0.3455 -0.1038
 3938TIP3    H133373   3.441   2.664   6.396  1.8096 -0.7975  1.2661
 3938TIP3    H233374   3.357   2.616   6.513 -3.2119  0.4611 -1.5365
 3939TIP3   OH233375   0.162   0.183   1.222 -0.2034  0.3574 -0.3415
 3939TIP3    H133376   0.169   0.216   1.311  4.7766  0.3598 -0.4874
 3939TIP3    H233377   0.205   0.097   1.225  0.5025  0.5501 -2.7883
 3940TIP3   OH233378   4.055   1.163   8.510 -0.1809 -0.9358 -0.0925
 3940TIP3    H133379   4.142   1.167   8.469  0.4768  0.7598  1.3129
 3940TIP3    H233380   4.074   1.152   8.603 -1.5300 -1.5236  0.1264
 3941TIP3   OH233381   3.486   5.771   8.489  0.0953  0.4775  0.2917
 3941TIP3    H133382   3.523   5.827   8.420  0.0990 -0.4507 -0.4776
 3941TIP3    H233383   3.468   5.688   8.445  0.2820 -0.1992  1.4570
 3942TIP3   OH233384   0.505   2.532   8.329  0.0634  0.5716  0.0088
 3942TIP3    H133385   0.568   2.572   8.268 -0.1804  0.4770 -0.3116
 3942TIP3    H233386   0.541   2.446   8.348 -0.1292  0.3874 -0.4364
 3943TIP3   OH233387   2.580   5.886   1.534 -0.6718  0.0308 -0.1977
 3943TIP3    H133388   2.657   5.831   1.526 -1.3846 -0.8684 -1.0199
 3943TIP3    H233389   2.613   5.968   1.571  0.3381 -1.0904  1.5384
 3944TIP3   OH233390   3.304   3.534   7.310  0.0158 -0.3468  0.2319
 3944TIP3    H133391   3.276   3.569   7.225 -0.2541  2.3134  1.3103
 3944TIP3    H233392   3.378   3.477   7.289 -0.4276 -0.2405 -1.8351
 3945TIP3   OH233393   0.489   3.482   1.113  0.5898 -0.5256 -0.2410
 3945TIP3    H133394   0.471   3.573   1.092 -0.0735 -1.0483 -2.2280
 3945TIP3    H233395   0.583   3.471   1.097  1.2102  0.3319  2.3940
 3946TIP3   OH233396   0.138   1.316   7.413 -0.5698  0.0450  0.1922
 3946TIP3    H133397   0.228   1.285   7.419 -1.2204 -2.3673 -0.9165
 3946TIP3    H233398   0.124   1.368   7.492  1.8625  0.7712  0.2132
 3947TIP3   OH233399   4.529   5.949   1.608  0.2869 -0.4724  0.0240
 3947TIP3    H133400   4.442   5.965   1.569  0.3917  2.5474  0.8320
 3947TIP3    H233401   4.583   5.921   1.534 -0.6588  0.5382 -1.0924
 3948TIP3   OH233402   1.597   1.643   0.533 -0.0725 -0.0506 -0.4205
 3948TIP3    H133403   1.578   1.553   0.559 -0.4854 -0.4976 -2.1587
 3948TIP3    H233404   1.535   1.696   0.583 -0.6008 -0.8393 -0.2161
 3949TIP3   OH233405   2.516   3.664   0.992  0.3282 -0.5831  0.0949
 3949TIP3    H133406   2.582   3.629   1.052 -0.4100 -0.5022  0.9736
 3949TIP3    H233407   2.448   3.597   0.989 -0.1446 -0.1180  0.1939
 3950TIP3   OH233408   3.280   5.548   7.516 -0.4603  0.1136  0.2697
 3950TIP3    H133409   3.202   5.509   7.475 -0.3523 -0.9496  1.0276
 3950TIP3    H233410   3.353   5.514   7.465 -0.2366 -2.1628  1.9430
 3951TIP3   OH233411   3.728   4.279   0.844  0.5661 -0.3164 -0.1075
 3951TIP3    H133412   3.800   4.277   0.908  0.8259  0.0862 -0.3833
 3951TIP3    H233413   3.745   4.204   0.787 -0.3713 -1.4483  1.0422
 3952TIP3   OH233414   2.879   6.307   2.530  0.2661 -0.2383 -0.1044
 3952TIP3    H133415   2.942   6.260   2.476  0.5459 -0.7459  0.6439
 3952TIP3    H233416   2.859   6.247   2.602 -0.0495  0.4445  0.3924
 3953TIP3   OH233417   5.633   2.865   7.597 -0.0413 -0.5430 -0.1685
 3953TIP3    H133418   5.620   2.831   7.686  1.6893 -0.9531 -0.0359
 3953TIP3    H233419   5.711   2.820   7.566  0.0799  0.5084 -1.4486
 3954TIP3   OH233420   1.299   1.291   7.331 -0.7957  0.1581 -0.0501
 3954TIP3    H133421   1.282   1.197   7.328 -0.3543 -0.0501  2.2962
 3954TIP3    H233422   1.362   1.302   7.401 -0.4409  2.1755 -0.6198
 3955TIP3   OH233423   0.504   0.864   8.234 -0.3546  0.2165 -0.1180
 3955TIP3    H133424   0.501   0.770   8.247 -2.2076  0.0887 -1.1612
 3955TIP3    H233425   0.495   0.901   8.322  0.5651 -0.5362  0.3182
 3956TIP3   OH233426   5.100   3.770   8.096  0.4705  0.4404 -0.1077
 3956TIP3    H133427   5.116   3.724   8.014  0.4902  1.2058 -0.5463
 3956TIP3    H233428   5.064   3.855   8.070  2.0073  1.3509  0.5775
 3957TIP3   OH233429   1.434   4.513   1.506  0.1550  0.3691  0.4344
 3957TIP3    H133430   1.450   4.538   1.415  0.4135 -2.1517 -0.3073
 3957TIP3    H233431   1.507   4.456   1.529 -1.3125 -1.3108  1.2182
 3958TIP3   OH233432   1.884   2.941   0.999  0.1317  0.1437 -0.4874
 3958TIP3    H133433   1.833   2.869   0.963 -0.4031  0.6857 -0.8341
 3958TIP3    H233434   1.975   2.917   0.981 -0.0413 -0.4473 -0.5869
 3959TIP3   OH233435   3.549   4.178   6.965  0.0835 -0.0421 -0.0089
 3959TIP3    H133436   3.600   4.164   7.045 -0.2381  0.1799  0.2376
 3959TIP3    H233437   3.604   4.144   6.895  0.7176  0.5133  0.2143
 3960TIP3   OH233438   5.986   1.494   0.610 -0.0956 -0.2678 -0.1087
 3960TIP3    H133439   5.918   1.432   0.583 -0.6719 -0.3380  1.4269
 3960TIP3    H233440   6.022   1.527   0.527  0.1924 -2.5851 -0.9921
 3961TIP3   OH233441   6.238   6.224   0.820  0.5523 -0.5074 -0.2218
 3961TIP3    H133442   6.254   6.313   0.789 -0.9477 -0.0679  0.2078
 3961TIP3    H233443   6.195   6.235   0.905 -1.2838 -1.5745 -0.9427
 3962TIP3   OH233444   3.061   2.972   7.820  0.2498 -0.6699 -0.0088
 3962TIP3    H133445   3.030   3.062   7.816 -0.4728 -0.9526 -1.0693
 3962TIP3    H233446   3.148   2.974   7.780  0.1563 -0.4751 -0.2039
 3963TIP3   OH233447   0.096   4.020   8.319  0.0707 -0.0273 -0.5964
 3963TIP3    H133448   0.145   4.077   8.379 -0.9292 -2.2840  2.6352
 3963TIP3    H233449   0.164   3.976   8.267  1.4231 -0.9615  1.7747
 3964TIP3   OH233450   2.585   0.315   7.076  0.4265 -0.3932 -0.6916
 3964TIP3    H133451   2.515   0.346   7.018 -0.4488 -1.8947 -0.4933
 3964TIP3    H233452   2.664   0.359   7.044 -0.6159  1.4936 -0.7933
 3965TIP3   OH233453   3.761   5.529   0.553  0.2445 -0.1337  0.5379
 3965TIP3    H133454   3.679   5.562   0.517  1.7728  0.3952 -2.9152
 3965TIP3    H233455   3.742   5.440   0.581 -1.5231  0.0127 -0.1126
 3966TIP3   OH233456   1.565   5.667   7.259  0.4820  0.5602  0.3046
 3966TIP3    H133457   1.512   5.615   7.197 -0.5441  0.7969  0.9549
 3966TIP3    H233458   1.653   5.629   7.253  0.2643  0.1842 -0.8446
 3967TIP3   OH233459   2.180   1.126   6.478 -0.1551 -0.1364  0.7289
 3967TIP3    H133460   2.185   1.116   6.573  1.0832 -0.6306  0.6251
 3967TIP3    H233461   2.270   1.116   6.448 -0.7384 -1.5944 -0.6513
 3968TIP3   OH233462   2.009   4.204   0.308 -0.4381  0.3325  0.0630
 3968TIP3    H133463   2.090   4.254   0.304 -1.8343  2.6921 -1.1016
 3968TIP3    H233464   1.953   4.253   0.369 -1.6212 -0.1854 -0.5608
 3969TIP3   OH233465   1.474   0.045   6.922 -0.4684  0.3530 -0.3020
 3969TIP3    H133466   1.417   0.115   6.956 -2.5196 -0.9981 -0.7752
 3969TIP3    H233467   1.418  -0.004   6.862  1.1931 -1.1647 -0.6851
 3970TIP3   OH233468   0.083   2.760   6.396 -0.8174  0.1118 -0.6292
 3970TIP3    H133469   0.128   2.768   6.480 -0.4210  1.1734 -0.9270
 3970TIP3    H233470   0.075   2.665   6.382 -0.1865 -0.0785  0.2286
 3971TIP3   OH233471   1.197   5.594   7.434 -0.4394 -0.3625  0.0667
 3971TIP3    H133472   1.212   5.541   7.356 -0.0465  0.5946 -0.5291
 3971TIP3    H233473   1.170   5.531   7.501  1.3141 -1.4922 -0.2399
 3972TIP3   OH233474   3.421   2.714   8.327  0.1090 -0.0517 -0.0532
 3972TIP3    H133475   3.403   2.620   8.320 -2.5360  0.4671 -1.5547
 3972TIP3    H233476   3.512   2.723   8.299  0.0168 -2.0215 -1.1615
 3973TIP3   OH233477   3.783   2.444   7.041 -0.2776 -0.1813 -0.1453
 3973TIP3    H133478   3.818   2.355   7.031  0.9027  0.2597 -0.1837
 3973TIP3    H233479   3.781   2.479   6.952 -0.0200  0.0761 -0.0535
 3974TIP3   OH233480   2.825   3.935   1.505 -0.1839 -0.2600  0.0732
 3974TIP3    H133481   2.834   3.850   1.550 -1.1152 -0.9012 -0.9149
 3974TIP3    H233482   2.771   3.988   1.564  0.2829 -0.4001  0.6302
 3975TIP3   OH233483   6.393   5.443   1.377 -0.0136  0.4972  0.7029
 3975TIP3    H133484   6.334   5.500   1.329 -0.0843 -0.8567 -0.9260
 3975TIP3    H233485   6.357   5.355   1.363  0.5764 -0.0488  2.3903
 3976TIP3   OH233486   3.921   2.231   1.709 -0.0337 -0.1125 -0.1072
 3976TIP3    H133487   3.931   2.308   1.765 -0.4638 -0.8818  1.0556
 3976TIP3    H233488   3.935   2.265   1.620  1.4363  0.9883  0.4961
 3977TIP3   OH233489   3.874   3.176   8.481 -0.4107  0.5966  0.0605
 3977TIP3    H133490   3.930   3.230   8.537 -0.0954  1.7453 -1.3045
 3977TIP3    H233491   3.843   3.106   8.538  0.4476  1.3326  1.4773
 3978TIP3   OH233492   4.408   1.316   7.150  0.2837 -0.5560 -0.0194
 3978TIP3    H133493   4.469   1.278   7.213  0.8588  0.2459 -0.0829
 3978TIP3    H233494   4.449   1.302   7.065  0.3005 -0.1653 -0.0765
 3979TIP3   OH233495   2.146   1.045   0.742 -0.1490  0.1822  0.1501
 3979TIP3    H133496   2.180   1.026   0.830  2.6618 -0.8165 -1.0183
 3979TIP3    H233497   2.109   0.962   0.713  0.5084  0.0120 -0.2230
 3980TIP3   OH233498   4.972   5.539   0.681 -0.0371  0.1550  0.0724
 3980TIP3    H133499   5.064   5.528   0.657 -0.4646  0.3934 -1.8894
 3980TIP3    H233500   4.946   5.454   0.716  0.5124 -0.4892 -1.0035
 3981TIP3   OH233501   3.620   2.007   7.398  0.5466  0.0778  0.6584
 3981TIP3    H133502   3.546   2.051   7.440  1.3478  1.1976  0.9458
 3981TIP3    H233503   3.682   1.992   7.470  1.5948  1.2933  0.0426
 3982TIP3   OH233504   4.791   2.456   7.502 -0.6772 -0.1672  0.2051
 3982TIP3    H133505   4.734   2.426   7.573 -0.6149 -2.0205 -0.4983
 3982TIP3    H233506   4.747   2.535   7.469 -2.9599 -1.5894 -0.3910
 3983TIP3   OH233507   2.296   3.990   8.430  0.4511 -0.0187  0.0013
 3983TIP3    H133508   2.224   4.051   8.416  0.4377  0.1199  0.6467
 3983TIP3    H233509   2.278   3.917   8.370 -1.2880 -0.9087  1.4902
 3984TIP3   OH233510   1.777   5.325   6.084 -0.2883 -0.1085 -0.4658
 3984TIP3    H133511   1.820   5.410   6.094 -1.3922  0.3263  0.8377
 3984TIP3    H233512   1.693   5.344   6.044 -0.1153 -0.7193 -1.1398
 3985TIP3   OH233513   0.864   6.349   0.491  0.3922 -0.1380  0.7817
 3985TIP3    H133514   0.845   6.255   0.483  1.0385 -0.3415  1.5427
 3985TIP3    H233515   0.779   6.391   0.482 -0.0968 -0.8814  1.6857
 3986TIP3   OH233516   1.732   4.778   0.636 -0.0497  0.1356  0.4564
 3986TIP3    H133517   1.647   4.738   0.657 -0.5049  0.9562  0.2338
 3986TIP3    H233518   1.712   4.838   0.564  0.6193  0.7659  0.7914
 3987TIP3   OH233519   5.595   4.285   7.174  0.1176  0.1127 -0.2332
 3987TIP3    H133520   5.666   4.274   7.111  1.4572 -1.4569  1.4428
 3987TIP3    H233521   5.539   4.208   7.160  0.8305 -0.6510  0.9237
 3988TIP3   OH233522   3.202   0.985   0.091 -0.0868  0.4065  0.0236
 3988TIP3    H133523   3.261   1.009   0.020  1.2580 -0.2774  0.8666
 3988TIP3    H233524   3.211   0.890   0.098 -1.1913  0.3087  0.2661
 3989TIP3   OH233525   4.407   2.725   6.811  0.4903 -0.6546 -0.0246
 3989TIP3    H133526   4.380   2.816   6.796 -1.3591 -1.0838  0.4394
 3989TIP3    H233527   4.476   2.710   6.747  2.2047  1.6366  1.1242
 3990TIP3   OH233528   4.867   0.813   7.991 -0.0335 -0.1313 -0.0713
 3990TIP3    H133529   4.935   0.745   7.987  0.5586  0.2452  2.1512
 3990TIP3    H233530   4.884   0.859   8.074 -0.2178  2.9429 -1.5982
 3991TIP3   OH233531   6.651   1.140   0.557 -0.0241 -0.0919 -0.0707
 3991TIP3    H133532   6.698   1.178   0.631  0.9962 -1.0620 -0.1833
 3991TIP3    H233533   6.637   1.212   0.497 -2.7310  1.2131  1.9109
 3992TIP3   OH233534   0.307   2.227   6.969 -0.1939 -0.0760 -0.0300
 3992TIP3    H133535   0.350   2.307   6.939  1.7519 -1.4091 -1.0138
 3992TIP3    H233536   0.268   2.190   6.890 -0.7290 -0.3248  0.3460
 3993TIP3   OH233537   2.112   3.334   2.080  0.5009  0.6224  0.4116
 3993TIP3    H133538   2.054   3.260   2.100  0.4431  0.3067 -0.8612
 3993TIP3    H233539   2.092   3.398   2.148 -0.7341  0.1767  0.5044
 3994TIP3   OH233540   4.070   1.813   8.470 -0.1269  0.3607 -0.1010
 3994TIP3    H133541   4.035   1.805   8.381  0.9836 -1.8932 -0.4156
 3994TIP3    H233542   4.162   1.836   8.458 -0.2065  1.0240  0.5155
 3995TIP3   OH233543   3.552   1.423   7.941 -0.1290 -0.8269  0.0100
 3995TIP3    H133544   3.577   1.507   7.980  2.8700 -1.6590  0.1815
 3995TIP3    H233545   3.564   1.360   8.012 -3.3656 -1.3869  0.2012
 3996TIP3   OH233546   6.573   6.809   0.933 -0.2166  0.3019 -0.1576
 3996TIP3    H133547   6.613   6.802   0.846 -0.8863  0.9288 -0.5229
 3996TIP3    H233548   6.647   6.802   0.993  0.3180  0.3416 -0.7917
 3997TIP3   OH233549   3.579   0.497   1.117  1.0173  0.7525  0.2706
 3997TIP3    H133550   3.493   0.520   1.151  0.1304  0.8852 -1.8698
 3997TIP3    H233551   3.602   0.570   1.059  1.2146 -0.5768 -1.4206
 3998TIP3   OH233552   0.767   3.159   7.188  0.7014  0.1244 -0.2295
 3998TIP3    H133553   0.861   3.159   7.202  1.0090 -0.0249 -2.0618
 3998TIP3    H233554   0.740   3.250   7.202  1.4684  0.5975 -1.6158
 3999TIP3   OH233555   6.112   2.460   1.867  0.1736 -0.3302 -0.1478
 3999TIP3    H133556   6.187   2.518   1.879  0.0985 -0.2684  0.0272
 3999TIP3    H233557   6.150   2.372   1.864  0.0604 -0.5784  2.6811
 4000TIP3   OH233558   2.093   0.958   7.857 -0.2580 -0.1477  0.1602
 4000TIP3    H133559   2.172   1.008   7.838 -0.2827 -0.7987 -1.9732
 4000TIP3    H233560   2.079   0.969   7.951  0.5576  2.5791  0.0466
 4001TIP3   OH233561   3.042   2.923   8.505  0.0111 -0.0344 -0.3520
 4001TIP3    H133562   3.121   2.925   8.451  0.7164 -0.1590  0.6529
 4001TIP3    H233563   2.985   2.859   8.462 -0.7409  2.0321 -2.6657
 4002TIP3   OH233564   1.589   0.995   0.957 -0.5125 -0.2184 -0.1762
 4002TIP3    H133565   1.615   1.025   1.044 -0.0461 -2.0305  0.3355
 4002TIP3    H233566   1.639   1.051   0.897  0.4444 -0.0743  0.7347
 4003TIP3   OH233567   6.736   4.611   8.031 -0.9777  0.2036 -0.0989
 4003TIP3    H133568   6.733   4.597   8.126 -3.4128  0.4054 -0.0882
 4003TIP3    H233569   6.718   4.525   7.993  1.4803 -0.2115 -0.4766
 4004TIP3   OH233570   1.970   6.121   0.648 -0.3852 -0.6450  0.1207
 4004TIP3    H133571   1.980   6.111   0.743  0.3029  0.9950  0.2539
 4004TIP3    H233572   1.876   6.134   0.635 -0.4806 -0.8526  0.5775
 4005TIP3   OH233573   5.764   4.885   0.853 -0.1769  0.8787  0.4122
 4005TIP3    H133574   5.742   4.856   0.764 -0.1236  1.5850  0.1577
 4005TIP3    H233575   5.796   4.975   0.841  1.2674  0.4736  0.9530
 4006TIP3   OH233576   1.198   2.786   8.209  0.4139  0.3665  0.4370
 4006TIP3    H133577   1.134   2.714   8.208  0.9079 -0.0740  0.3422
 4006TIP3    H233578   1.144   2.865   8.211 -0.1396  0.0016  0.2988
 4007TIP3   OH233579   4.141   3.659   7.197  0.0268  0.0712 -0.1764
 4007TIP3    H133580   4.148   3.710   7.277 -1.3753  0.0959 -0.0545
 4007TIP3    H233581   4.049   3.665   7.172  0.2299 -0.7981 -1.2187
 4008TIP3   OH233582   0.522   1.731   1.567  0.4740  0.6590  0.9147
 4008TIP3    H133583   0.552   1.822   1.566  1.1133  0.4649  1.5245
 4008TIP3    H233584   0.593   1.682   1.525 -1.0628  0.7470 -2.0475
 4009TIP3   OH233585   5.667   3.347   7.823 -0.4775 -0.1093  0.2498
 4009TIP3    H133586   5.727   3.396   7.878  0.4819 -0.6341 -0.3095
 4009TIP3    H233587   5.687   3.255   7.841  0.2594 -0.3059 -1.3614
 4010TIP3   OH233588   2.120   0.715   0.864 -0.7349  0.5370 -0.5861
 4010TIP3    H133589   2.044   0.766   0.891 -1.7995 -1.0314 -0.5100
 4010TIP3    H233590   2.107   0.699   0.771 -0.6497 -0.0024 -0.5044
 4011TIP3   OH233591   5.372   5.319   6.857  0.1578  0.6806  0.3605
 4011TIP3    H133592   5.309   5.248   6.870 -2.1581  2.0137 -2.4966
 4011TIP3    H233593   5.457   5.279   6.876 -1.2403 -2.0570  1.4601
 4012TIP3   OH233594   5.944   1.056   7.581 -0.2942 -0.4283 -0.1017
 4012TIP3    H133595   5.861   1.047   7.533 -1.6057  2.3039  1.4141
 4012TIP3    H233596   5.935   0.998   7.657 -0.6698 -0.4274 -0.1453
 4013TIP3   OH233597   0.669   4.232   1.292 -0.6318  0.1618 -0.2831
 4013TIP3    H133598   0.735   4.281   1.242 -0.6920  0.2885 -0.2397
 4013TIP3    H233599   0.612   4.194   1.226 -0.7327  0.3589 -0.3116
 4014TIP3   OH233600   5.447   6.517   2.113 -0.1435 -0.0763  0.0915
 4014TIP3    H133601   5.489   6.449   2.167  0.2936 -0.4025 -0.6488
 4014TIP3    H233602   5.367   6.539   2.162 -0.0583 -0.7905  0.5821
 4015TIP3   OH233603   0.400   3.556   1.670  0.1748 -0.0439  0.5626
 4015TIP3    H133604   0.310   3.570   1.698 -0.4105 -1.9972 -0.1541
 4015TIP3    H233605   0.453   3.574   1.748 -0.7950  1.3349  0.9238
 4016TIP3   OH233606   6.092   0.990   0.586 -0.1886  0.0514 -0.2191
 4016TIP3    H133607   6.173   0.956   0.624  0.4516  0.1056 -1.4704
 4016TIP3    H233608   6.049   0.913   0.549 -0.9059 -0.0339  0.7468
 4017TIP3   OH233609   6.570   6.142   1.106  0.4206 -0.2229 -0.0418
 4017TIP3    H133610   6.509   6.099   1.166 -1.7959  2.8787  0.2106
 4017TIP3    H233611   6.657   6.118   1.138 -0.6721 -1.6737  2.0819
 4018TIP3   OH233612   4.850   0.364   2.213  0.0910 -0.5849  0.5477
 4018TIP3    H133613   4.814   0.293   2.160 -0.8001  0.4658 -0.2883
 4018TIP3    H233614   4.919   0.402   2.158  1.0998 -1.2585  1.3019
 4019TIP3   OH233615   5.440   0.794   1.480 -0.3072 -0.1348 -0.4578
 4019TIP3    H133616   5.500   0.838   1.539 -0.4834  1.5181 -1.4626
 4019TIP3    H233617   5.468   0.702   1.481 -1.1074 -0.4973  3.1737
 4020TIP3   OH233618   3.050   0.171   0.397  0.6471  0.1090  0.3044
 4020TIP3    H133619   3.037   0.216   0.480  1.5542 -0.0296  0.5349
 4020TIP3    H233620   3.122   0.109   0.414 -0.8545 -1.7755  0.1345
 4021TIP3   OH233621   0.756   1.440   7.435 -0.0739 -0.2529  0.5339
 4021TIP3    H133622   0.801   1.439   7.519  2.4827  3.3233 -0.5849
 4021TIP3    H233623   0.810   1.387   7.377  0.1355  0.2055  0.3059
 4022TIP3   OH233624   3.778   5.035   0.186  0.3378  0.6184 -0.3559
 4022TIP3    H133625   3.807   5.108   0.241 -1.7945  1.2248  0.0757
 4022TIP3    H233626   3.713   4.990   0.240  1.9014 -1.9035 -0.4556
 4023TIP3   OH233627   5.611   2.505   5.841 -0.2671  0.5361 -0.4747
 4023TIP3    H133628   5.662   2.450   5.781  0.4705  0.3257  0.3331
 4023TIP3    H233629   5.569   2.442   5.901  1.0917  0.8557  0.8590
 4024TIP3   OH233630   6.007   4.176   7.499 -0.2886  0.4506 -0.3626
 4024TIP3    H133631   5.923   4.133   7.513 -0.2388  0.3984 -0.2294
 4024TIP3    H233632   6.072   4.114   7.530 -0.0887 -0.2448 -2.0371
 4025TIP3   OH233633   5.020   1.635   2.468  0.3856 -0.1443  0.2481
 4025TIP3    H133634   5.055   1.716   2.504  2.8193 -0.1843 -1.7569
 4025TIP3    H233635   5.063   1.626   2.383 -2.6954 -1.6084 -1.3261
 4026TIP3   OH233636   3.437   1.451   0.052  0.3865  0.4983  0.5739
 4026TIP3    H133637   3.502   1.501   0.102  0.8231  0.5379 -0.0249
 4026TIP3    H233638   3.371   1.427   0.117  1.3513 -0.1577  1.3446
 4027TIP3   OH233639   1.556   3.573   7.100  0.0478  0.4545  0.4019
 4027TIP3    H133640   1.558   3.561   7.005  2.5081  1.0895  0.2988
 4027TIP3    H233641   1.512   3.494   7.133  0.5853 -0.5702 -1.1877
 4028TIP3   OH233642   1.405   6.264   1.364 -0.2392  0.2443  0.3422
 4028TIP3    H133643   1.334   6.289   1.423 -1.7991 -0.7384 -1.0086
 4028TIP3    H233644   1.401   6.168   1.362  1.8920  0.0878  1.0809
 4029TIP3   OH233645   0.304   1.715   6.925  0.8861 -0.3083  0.1878
 4029TIP3    H133646   0.314   1.805   6.957  0.2862 -0.5687  1.1424
 4029TIP3    H233647   0.355   1.662   6.986  0.0348 -0.7730  0.5139
 4030TIP3   OH233648   4.598   1.798   8.462  0.2424  0.1118  0.0331
 4030TIP3    H133649   4.618   1.718   8.510  0.6700 -0.1513 -0.5732
 4030TIP3    H233650   4.643   1.788   8.378  4.0567  2.8059  1.4614
 4031TIP3   OH233651   1.425   5.384   2.254 -0.2100 -0.7848  0.0318
 4031TIP3    H133652   1.353   5.398   2.193 -0.3063 -1.2458  0.0342
 4031TIP3    H233653   1.382   5.368   2.338 -0.0856 -0.3945  0.1713
 4032TIP3   OH233654   0.926   3.579   1.886  1.1342 -0.1630 -0.0446
 4032TIP3    H133655   0.899   3.532   1.808  1.8635  0.8424 -0.9367
 4032TIP3    H233656   0.844   3.607   1.928  0.7406  0.7633 -1.3860
 4033TIP3   OH233657   6.785   2.312   0.504  0.4906  0.2736  0.6129
 4033TIP3    H133658   6.702   2.315   0.552  0.7817  3.3088  1.1376
 4033TIP3    H233659   6.780   2.386   0.443  2.0204 -0.7274 -0.8026
 4034TIP3   OH233660   4.192   5.555   6.540  0.0234  0.1352 -0.2220
 4034TIP3    H133661   4.168   5.587   6.453 -1.9603 -1.7402 -0.4585
 4034TIP3    H233662   4.286   5.569   6.546 -0.0705  1.9246 -1.9462
 4035TIP3   OH233663   5.180   5.995   1.079 -0.3565  0.2167 -0.2737
 4035TIP3    H133664   5.260   6.045   1.095  0.2575 -1.7276  4.2687
 4035TIP3    H233665   5.110   6.058   1.096  0.3683  0.5560  1.8072
 4036TIP3   OH233666   5.211   4.403   7.942 -0.2824 -0.2128  0.1964
 4036TIP3    H133667   5.238   4.392   8.033 -1.0019 -1.5103  0.2812
 4036TIP3    H233668   5.281   4.362   7.891 -0.7316 -1.1384  0.2855
 4037TIP3   OH233669   6.100   6.612   6.872 -0.3546 -0.4554 -0.3816
 4037TIP3    H133670   6.033   6.604   6.940 -0.7469 -1.4070 -0.8670
 4037TIP3    H233671   6.159   6.539   6.889  0.4384  0.2289 -0.1114
 4038TIP3   OH233672   4.072   1.012   0.179 -0.5065 -0.2159  0.6016
 4038TIP3    H133673   4.118   0.946   0.127 -0.8118  0.2092 -0.2275
 4038TIP3    H233674   4.002   0.963   0.223 -0.5082 -0.5148  0.2725
 4039TIP3   OH233675   0.444   0.593   1.398  0.4594  0.0520 -0.0753
 4039TIP3    H133676   0.378   0.579   1.466  0.9442  0.9499  0.6091
 4039TIP3    H233677   0.443   0.688   1.384 -1.0784 -0.2837 -2.8290
 4040TIP3   OH233678   5.507   5.382   1.060 -0.1413  0.3054  0.3046
 4040TIP3    H133679   5.431   5.325   1.072 -0.2631  0.8012  2.2219
 4040TIP3    H233680   5.470   5.470   1.052  0.1312  0.3118 -1.2121
 4041TIP3   OH233681   1.791   3.787   6.695  0.1588  0.1186 -0.3655
 4041TIP3    H133682   1.877   3.819   6.669  0.0187 -1.2680 -2.7916
 4041TIP3    H233683   1.774   3.712   6.638 -1.7945 -0.9415  1.4530
 4042TIP3   OH233684   5.108   6.267   6.662 -0.2773 -0.1799 -0.3563
 4042TIP3    H133685   5.092   6.175   6.679  0.0493 -0.1565  0.0982
 4042TIP3    H233686   5.091   6.278   6.568  0.3775 -0.8464 -0.5634
 4043TIP3   OH233687   0.451   3.078   1.000  0.3900 -0.2767 -0.0405
 4043TIP3    H133688   0.415   3.150   0.948  0.1649 -0.9828 -0.8935
 4043TIP3    H233689   0.411   3.088   1.086 -0.8991 -0.3082 -0.6149
 4044TIP3   OH233690   4.081   0.718   0.825  0.5082  0.5063  0.1754
 4044TIP3    H133691   4.159   0.670   0.797 -0.1585 -0.9951  0.8193
 4044TIP3    H233692   4.111   0.771   0.899  0.8515 -0.3154  0.6347
 4045TIP3   OH233693   4.233   5.371   8.201  0.0827  0.2654 -0.0604
 4045TIP3    H133694   4.138   5.371   8.204  0.0132 -0.2965 -1.5666
 4045TIP3    H233695   4.255   5.390   8.110  1.3472 -2.1579 -0.3554
 4046TIP3   OH233696   3.212   1.340   7.233  0.4255 -0.1024 -0.6180
 4046TIP3    H133697   3.173   1.253   7.227  0.1362  0.0104 -0.3857
 4046TIP3    H233698   3.158   1.394   7.175  0.3868  0.0016 -0.4848
 4047TIP3   OH233699   0.085   5.749   1.143  0.3015  0.1754 -0.0039
 4047TIP3    H133700   0.134   5.734   1.063  1.9874  3.2852  0.2586
 4047TIP3    H233701   0.151   5.750   1.212 -0.3458  2.2682  0.6843
 4048TIP3   OH233702   4.670   3.248   1.529 -0.3898 -0.4348 -0.1802
 4048TIP3    H133703   4.689   3.157   1.506 -0.7001 -0.6273  0.2804
 4048TIP3    H233704   4.584   3.243   1.571 -0.4565  0.0892 -0.2562
 4049TIP3   OH233705   6.378   4.088   8.503 -0.4241  0.6404 -0.0854
 4049TIP3    H133706   6.415   4.034   8.433 -0.2917  0.3990  0.1674
 4049TIP3    H233707   6.302   4.131   8.464 -1.5671 -1.0463  0.1829
 4050TIP3   OH233708   1.018   0.181   0.942 -0.0292  0.5580  0.2216
 4050TIP3    H133709   1.098   0.129   0.945  0.0091  0.5748 -0.2854
 4050TIP3    H233710   0.981   0.175   1.030  1.1444  1.5264  0.8100
 4051TIP3   OH233711   1.437   3.234   7.613  0.4422  0.6761  0.1706
 4051TIP3    H133712   1.361   3.290   7.633 -0.4159 -0.0630 -0.8697
 4051TIP3    H233713   1.466   3.265   7.527 -0.2161 -0.6079 -0.5489
 4052TIP3   OH233714   0.560   3.176   8.569 -0.4216  0.0211 -0.0426
 4052TIP3    H133715   0.504   3.188   8.492  1.2939  1.8763 -1.1100
 4052TIP3    H233716   0.611   3.097   8.549 -1.4335 -0.7152  0.1872
 4053TIP3   OH233717   1.037   2.835   0.058 -0.4734 -0.0081  0.0235
 4053TIP3    H133718   1.129   2.858   0.067 -0.1518 -1.0031 -0.5019
 4053TIP3    H233719   0.994   2.877   0.132  0.1632  1.6015 -0.4736
 4054TIP3   OH233720   3.717   2.891   6.748 -0.0380 -0.0667  0.3328
 4054TIP3    H133721   3.770   2.826   6.700  0.7501  0.9850 -0.2662
 4054TIP3    H233722   3.637   2.900   6.695  0.1449 -0.0631  0.0541
 4055TIP3   OH233723   0.947   5.983   6.127 -0.7356 -0.0451  0.7607
 4055TIP3    H133724   0.897   5.908   6.096  0.2319  0.0438 -1.1566
 4055TIP3    H233725   0.892   6.023   6.194 -2.9238 -0.3536 -0.7567
 4056TIP3   OH233726   3.827   1.072   7.597 -0.0274  0.0744 -0.1427
 4056TIP3    H133727   3.779   1.132   7.654  1.3362  1.8043 -0.7076
 4056TIP3    H233728   3.761   1.037   7.538 -1.2453 -0.8043  1.6750
 4057TIP3   OH233729   1.118   2.632   7.909 -0.0652  0.0578  0.2048
 4057TIP3    H133730   1.077   2.606   7.991  1.9880 -0.0089  1.2675
 4057TIP3    H233731   1.101   2.726   7.903  0.3958  0.2163  1.1213
 4058TIP3   OH233732   1.666   0.999   1.586 -0.1554 -0.1866 -0.5593
 4058TIP3    H133733   1.745   0.996   1.640 -1.0210 -1.4646  0.7141
 4058TIP3    H233734   1.599   0.957   1.640 -1.3526 -0.4582 -2.1863
 4059TIP3   OH233735   6.384   5.051   6.092 -0.2330  0.5424 -0.2240
 4059TIP3    H133736   6.433   4.969   6.086 -1.4573 -0.3180  0.8952
 4059TIP3    H233737   6.441   5.110   6.142 -1.4994 -1.5120  4.1062
 4060TIP3   OH233738   6.458   1.928   8.471 -0.0143 -0.0948 -0.1156
 4060TIP3    H133739   6.386   1.988   8.491  1.9367  1.9017  1.3980
 4060TIP3    H233740   6.427   1.842   8.500 -1.6263  0.7788  0.8836
 4061TIP3   OH233741   2.295   6.434   2.339 -0.2536  0.4395 -0.1578
 4061TIP3    H133742   2.258   6.394   2.417 -0.6090  3.5297  1.4339
 4061TIP3    H233743   2.390   6.418   2.346 -0.2917  0.6040  0.8808
 4062TIP3   OH233744   6.220   3.935   0.113  0.3505  0.7984 -0.3878
 4062TIP3    H133745   6.278   3.868   0.077 -1.7196  0.0142 -2.5150
 4062TIP3    H233746   6.202   3.994   0.039 -0.0850  2.1154  0.7131
 4063TIP3   OH233747   1.067   5.253   1.361 -0.6502  0.2499 -0.0912
 4063TIP3    H133748   1.010   5.210   1.425 -1.7547 -1.0532 -1.8293
 4063TIP3    H233749   1.011   5.318   1.319 -0.0194  0.9018  0.0597
 4064TIP3   OH233750   2.959   4.335   0.883 -0.3386 -0.6879  0.2409
 4064TIP3    H133751   2.999   4.421   0.896 -0.6297 -0.7352  1.5816
 4064TIP3    H233752   3.032   4.274   0.884 -0.2872 -0.6210  1.1065
 4065TIP3   OH233753   4.126   0.484   6.703 -0.5253 -0.0085 -0.0286
 4065TIP3    H133754   4.033   0.486   6.678 -1.1312  0.9531  2.0379
 4065TIP3    H233755   4.153   0.393   6.689 -1.9190 -0.4130 -0.2244
 4066TIP3   OH233756   3.918   0.121   0.286 -0.0756 -0.4005  0.4423
 4066TIP3    H133757   3.890   0.188   0.224 -0.8251 -0.8836  0.2514
 4066TIP3    H233758   3.911   0.162   0.372 -1.1931 -0.4457  0.3821
 4067TIP3   OH233759   3.018   4.542   8.257  0.3555 -0.2116  0.4311
 4067TIP3    H133760   3.001   4.634   8.276  0.6165 -0.3180  1.2284
 4067TIP3    H233761   2.934   4.508   8.225  0.4133  0.4354 -0.4489
 4068TIP3   OH233762   6.891   4.304   8.538 -0.0442  0.2345  0.5924
 4068TIP3    H133763   6.940   4.251   8.600  0.2386  0.0626  0.2294
 4068TIP3    H233764   6.799   4.294   8.564  0.0981  0.3817  1.1417
 4069TIP3   OH233765   5.585   6.880   8.124  0.8961 -0.0307 -0.1430
 4069TIP3    H133766   5.618   6.805   8.173 -0.9511 -2.1032 -1.8696
 4069TIP3    H233767   5.538   6.932   8.189 -1.4860 -2.6807  0.4866
 4070TIP3   OH233768   1.485   0.768   0.828  0.0052 -0.0201  0.7610
 4070TIP3    H133769   1.474   0.808   0.742 -0.6405 -0.5910  0.5713
 4070TIP3    H233770   1.499   0.841   0.888 -0.7545  0.4551  0.3611
 4071TIP3   OH233771   0.387   5.836   0.575 -0.0361  0.0604 -0.0202
 4071TIP3    H133772   0.305   5.792   0.554 -0.1816  0.2080  0.2328
 4071TIP3    H233773   0.451   5.764   0.582 -0.5159 -0.2629  1.5827
 4072TIP3   OH233774   3.427   1.875   7.257 -0.3136 -0.9187 -0.8988
 4072TIP3    H133775   3.510   1.914   7.286 -1.3985  1.2292 -0.4715
 4072TIP3    H233776   3.453   1.793   7.214  1.7700 -1.8383  1.8395
 4073TIP3   OH233777   3.128   1.440   6.963 -0.0101 -0.3971  0.0915
 4073TIP3    H133778   3.084   1.355   6.955  0.1332 -0.4153 -0.6297
 4073TIP3    H233779   3.170   1.453   6.878 -0.7987  0.8277 -0.1427
 4074TIP3   OH233780   2.574   5.800   6.949 -0.4233 -0.5011  0.0394
 4074TIP3    H133781   2.508   5.819   6.882  1.1005  0.1878 -1.3569
 4074TIP3    H233782   2.636   5.741   6.905  0.5913 -0.0686  0.8461
 4075TIP3   OH233783   6.679   5.011   8.567  0.2525 -0.2812  0.5865
 4075TIP3    H133784   6.691   4.931   8.619 -0.5986 -0.7552  0.0849
 4075TIP3    H233785   6.638   5.073   8.627 -1.5174 -1.1055  0.2831
 4076TIP3   OH233786   2.996   4.864   7.918  0.1509 -0.8778 -0.7389
 4076TIP3    H133787   3.053   4.909   7.981  0.3510 -1.3473 -0.5786
 4076TIP3    H233788   3.055   4.805   7.871 -0.0150 -0.5882 -1.3117
 4077TIP3   OH233789   0.972   4.446   1.570 -0.1189 -0.1143  0.5696
 4077TIP3    H133790   1.049   4.418   1.621 -0.7466 -2.7209  0.2359
 4077TIP3    H233791   1.009   4.487   1.492  0.8625  2.9506  2.4528
 4078TIP3   OH233792   2.748   4.605   6.882 -0.2395 -0.4485 -0.5065
 4078TIP3    H133793   2.660   4.628   6.851  0.3436  1.2363 -1.0304
 4078TIP3    H233794   2.743   4.512   6.902 -1.9766 -0.5197 -1.1139
 4079TIP3   OH233795   4.707   0.451   7.800  0.6422 -0.3588  0.5526
 4079TIP3    H133796   4.728   0.442   7.707 -1.5487 -0.7367  0.0418
 4079TIP3    H233797   4.671   0.366   7.824 -0.3250  0.2481  1.3104
 4080TIP3   OH233798   4.405   2.066   6.576  0.8587  0.0240  0.5337
 4080TIP3    H133799   4.461   2.032   6.507  0.5254  1.6939 -0.6293
 4080TIP3    H233800   4.403   2.161   6.560 -0.6377  0.2391  1.7842
 4081TIP3   OH233801   4.840   1.164   8.501 -0.5507 -0.2398  0.5975
 4081TIP3    H133802   4.929   1.129   8.493 -0.4012 -0.0407  1.2779
 4081TIP3    H233803   4.783   1.093   8.474 -0.1442  0.1693 -1.4853
 4082TIP3   OH233804   4.008   0.979   7.957 -0.4361  0.6266 -0.1817
 4082TIP3    H133805   3.987   1.070   7.934 -1.0793 -0.0519 -2.5346
 4082TIP3    H233806   3.924   0.937   7.972 -0.1199  0.4982  1.3443
 4083TIP3   OH233807   4.122   0.026   0.133 -0.1833  0.0869 -0.4258
 4083TIP3    H133808   4.049   0.057   0.186 -0.5125  0.8785 -1.2970
 4083TIP3    H233809   4.108  -0.068   0.125 -1.4460  0.2982 -1.0424
 4084TIP3   OH233810   5.231   4.015   7.498 -0.0464  0.1727  0.1993
 4084TIP3    H133811   5.214   4.078   7.428 -1.0164 -1.2202 -0.8583
 4084TIP3    H233812   5.225   3.929   7.457  2.4097 -0.6758  1.3396
 4085TIP3   OH233813   1.250   4.634   1.952 -0.8548 -0.3760 -0.7641
 4085TIP3    H133814   1.171   4.587   1.979  0.2839 -2.1037 -0.2606
 4085TIP3    H233815   1.314   4.566   1.933  1.2092  0.9245  0.9209
 4086TIP3   OH233816   5.242   1.741   7.308  0.4347 -0.3014 -0.2417
 4086TIP3    H133817   5.259   1.655   7.270 -1.7625 -0.0990 -1.8558
 4086TIP3    H233818   5.153   1.736   7.342  1.4463  0.3389  2.7693
 4087TIP3   OH233819   5.283   6.397   0.242  0.1271  0.0302  0.0040
 4087TIP3    H133820   5.333   6.400   0.323 -0.1346  1.4204  0.1360
 4087TIP3    H233821   5.293   6.484   0.204 -1.7627  0.1983 -0.2152
 4088TIP3   OH233822   0.379   5.010   7.089  0.1186  0.0745 -0.0426
 4088TIP3    H133823   0.329   4.953   7.029  0.8479 -0.0313 -0.5590
 4088TIP3    H233824   0.440   5.057   7.032 -0.8272  1.7949  0.3001
 4089TIP3   OH233825   4.873   4.005   0.629  0.1852  0.0509 -0.2401
 4089TIP3    H133826   4.815   4.077   0.652 -0.4595 -0.7743  0.8436
 4089TIP3    H233827   4.960   4.044   0.621 -0.1192  0.9065  0.5376
 4090TIP3   OH233828   3.326   0.470   1.603  0.2816  0.4546 -0.4120
 4090TIP3    H133829   3.345   0.384   1.639  2.0104  0.4346 -1.2257
 4090TIP3    H233830   3.366   0.531   1.665 -0.2475  0.6352 -0.2439
 4091TIP3   OH233831   0.549   1.123   7.183 -0.4760  0.3426  0.0893
 4091TIP3    H133832   0.589   1.084   7.105  1.0438 -1.5280  1.7081
 4091TIP3    H233833   0.623   1.163   7.230 -1.4113  1.7009  0.4649
 4092TIP3   OH233834   4.908   3.624   7.641 -0.3439 -0.0213 -0.3260
 4092TIP3    H133835   4.986   3.576   7.612 -0.3803  0.6429 -1.5975
 4092TIP3    H233836   4.894   3.690   7.573 -1.7028  0.2192  0.1597
 4093TIP3   OH233837   3.258   4.243   8.100 -0.5422  0.3366 -0.7846
 4093TIP3    H133838   3.316   4.237   8.024 -1.4100  1.7137 -1.6112
 4093TIP3    H233839   3.266   4.158   8.144  0.2567 -0.3633 -2.2111
 4094TIP3   OH233840   5.786   2.107   7.757 -0.6859 -0.2243  0.4574
 4094TIP3    H133841   5.716   2.063   7.709 -1.0103  1.4883 -0.7535
 4094TIP3    H233842   5.866   2.064   7.727 -0.9205  0.4835 -1.3422
 4095TIP3   OH233843   2.629   2.193   7.769  0.3165  0.0440 -0.0621
 4095TIP3    H133844   2.700   2.219   7.828  0.2197 -0.2815  0.2031
 4095TIP3    H233845   2.589   2.275   7.741 -0.5815  0.1752  1.4883
 4096TIP3   OH233846   5.880   1.985   7.210  0.7700  0.5072  0.7441
 4096TIP3    H133847   5.931   2.017   7.284  0.4799  2.1840  0.2565
 4096TIP3    H233848   5.944   1.946   7.151  1.4099  1.9372  0.4685
 4097TIP3   OH233849   1.954   6.266   1.640  0.4818 -0.0858  0.1361
 4097TIP3    H133850   1.881   6.207   1.620  0.5364 -0.1222  0.0454
 4097TIP3    H233851   1.974   6.249   1.732  0.0802  0.2454  0.2893
 4098TIP3   OH233852   1.132   3.777   0.673 -0.7593 -0.1901 -0.5156
 4098TIP3    H133853   1.222   3.808   0.680 -0.9757 -0.0018  2.2530
 4098TIP3    H233854   1.093   3.832   0.605  0.8642  0.5483 -0.8983
 4099TIP3   OH233855   2.623   2.866   8.227 -0.1551 -0.1812 -0.3982
 4099TIP3    H133856   2.625   2.773   8.205 -1.6638 -0.2126 -0.5095
 4099TIP3    H233857   2.712   2.898   8.207  0.4187 -1.6084 -0.2156
 4100TIP3   OH233858   5.402   2.758   6.838 -0.0736 -0.1855  0.3368
 4100TIP3    H133859   5.493   2.762   6.808 -0.0247 -1.1300  0.3354
 4100TIP3    H233860   5.367   2.845   6.819 -0.0305 -0.6952 -2.3723
 4101TIP3   OH233861   2.425   6.331   7.261  0.5549  0.5930 -0.6297
 4101TIP3    H133862   2.452   6.346   7.170 -1.0350  0.2219 -1.1926
 4101TIP3    H233863   2.372   6.407   7.283 -1.3529 -0.5731 -0.9818
 4102TIP3   OH233864   4.110   1.360   1.016 -0.5203  0.9499  0.4638
 4102TIP3    H133865   4.101   1.451   0.989 -0.6409  0.8302  0.0943
 4102TIP3    H233866   4.117   1.363   1.112  1.7999  1.5503  0.3523
 4103TIP3   OH233867   1.058   6.323   6.500  0.2921  0.8261 -0.6255
 4103TIP3    H133868   1.038   6.414   6.525  0.3123  1.1837 -1.8288
 4103TIP3    H233869   0.972   6.285   6.480  0.1792  0.2576  0.8305
 4104TIP3   OH233870   6.638   1.731   2.065  0.3263  0.4757 -0.2523
 4104TIP3    H133871   6.715   1.674   2.063 -0.4738 -0.6275 -0.9489
 4104TIP3    H233872   6.566   1.673   2.089 -0.3061  1.4900  0.3794
 4105TIP3   OH233873   5.120   5.575   1.549  1.0890  0.0574 -0.7424
 4105TIP3    H133874   5.115   5.567   1.644  0.4867 -1.0068 -0.8503
 4105TIP3    H233875   5.055   5.642   1.528 -0.2337 -1.1030 -0.5478
 4106TIP3   OH233876   4.796   0.080   1.020  0.5237 -0.4333 -0.0244
 4106TIP3    H133877   4.753  -0.006   1.024  0.8817 -0.6154 -0.0286
 4106TIP3    H233878   4.875   0.065   0.968  1.2745 -0.3973  1.0767
 4107TIP3   OH233879   5.848   1.425   8.551 -0.1312  0.2340 -0.7578
 4107TIP3    H133880   5.867   1.518   8.542  1.1233 -0.0117 -0.8961
 4107TIP3    H233881   5.885   1.385   8.472  0.5027 -0.5210 -0.0990
 4108TIP3   OH233882   5.087   2.398   7.113  0.1064  0.0979 -0.2541
 4108TIP3    H133883   5.014   2.400   7.051 -0.4323  0.5192  0.3671
 4108TIP3    H233884   5.070   2.473   7.171  1.2017  0.3773 -0.2862
 4109TIP3   OH233885   5.580   2.176   6.503 -0.7214 -0.3750  0.0452
 4109TIP3    H133886   5.582   2.088   6.465 -2.1942 -0.4367  0.0372
 4109TIP3    H233887   5.590   2.235   6.428 -1.3019 -0.5268 -0.1567
 4110TIP3   OH233888   6.032   3.976   0.673  0.4136  0.2114  0.2409
 4110TIP3    H133889   5.948   3.938   0.700  0.4943  0.7698  1.2901
 4110TIP3    H233890   6.044   4.053   0.728  0.0114  2.1387 -2.1806
 4111TIP3   OH233891   1.856   2.934   7.385  0.2388  0.1868 -0.6039
 4111TIP3    H133892   1.827   3.000   7.448  0.0349  0.0841 -0.5887
 4111TIP3    H233893   1.800   2.946   7.309 -0.6508 -0.7735 -0.1301
 4112TIP3   OH233894   3.285   1.822   6.851  0.1644  0.1028  0.1222
 4112TIP3    H133895   3.263   1.906   6.810  1.7530  0.0475 -0.9149
 4112TIP3    H233896   3.328   1.772   6.781  0.3958 -1.0981  1.0920
 4113TIP3   OH233897   0.735   1.509   6.776 -0.0872 -1.0763  0.4943
 4113TIP3    H133898   0.756   1.582   6.834  1.7872 -1.6541  0.6269
 4113TIP3    H233899   0.755   1.541   6.688 -0.9490 -0.8818  0.3569
 4114TIP3   OH233900   3.486   1.389   0.718  0.5379 -0.1055  0.3973
 4114TIP3    H133901   3.567   1.413   0.672  0.5938  1.0347  1.0386
 4114TIP3    H233902   3.459   1.470   0.761  0.6598 -1.1682  2.6282
 4115TIP3   OH233903   3.094   4.754   1.994  0.2489 -0.3665 -0.0014
 4115TIP3    H133904   3.004   4.721   1.989  0.0815 -0.0091  0.4994
 4115TIP3    H233905   3.146   4.678   2.021 -0.1448 -0.2223  1.2472
 4116TIP3   OH233906   4.436   4.522   1.335  0.3788 -0.0267  0.3805
 4116TIP3    H133907   4.371   4.574   1.288 -0.6195 -2.7503 -1.5270
 4116TIP3    H233908   4.480   4.584   1.392 -1.4299  2.6374 -0.9209
 4117TIP3   OH233909   0.450   4.907   6.104 -0.0878 -0.7169  0.0050
 4117TIP3    H133910   0.460   4.819   6.068  0.2057 -0.8117  0.3088
 4117TIP3    H233911   0.373   4.902   6.161 -1.0238 -0.3694 -1.1839
 4118TIP3   OH233912   1.371   2.479   8.241 -0.4286 -0.2181  0.1042
 4118TIP3    H133913   1.379   2.555   8.299  0.8922 -0.8822  0.8511
 4118TIP3    H233914   1.295   2.431   8.274 -0.0931 -0.2357  0.8690
 4119TIP3   OH233915   2.982   3.650   6.966  0.1661  0.0881 -0.0517
 4119TIP3    H133916   2.995   3.740   6.938  1.1885  0.7153  2.2159
 4119TIP3    H233917   2.892   3.647   6.999 -0.5910 -0.3193 -2.0389
 4120TIP3   OH233918   3.487   5.996   7.552 -0.0650  0.2011  0.4726
 4120TIP3    H133919   3.560   5.946   7.586  1.1971  1.1766 -0.6748
 4120TIP3    H233920   3.415   5.934   7.547  1.1293 -1.2082  0.1208
 4121TIP3   OH233921   4.592   2.008   6.351 -0.1792  0.2829  0.9119
 4121TIP3    H133922   4.674   2.023   6.398 -0.3882 -0.2593  1.4600
 4121TIP3    H233923   4.596   2.067   6.276  1.1354 -0.3990  0.4081
 4122TIP3   OH233924   0.881   2.431   0.602  0.1726  0.2142  0.3778
 4122TIP3    H133925   0.873   2.527   0.603 -2.1676  0.1447 -1.7369
 4122TIP3    H233926   0.952   2.413   0.541  1.8838  0.5304  2.1457
 4123TIP3   OH233927   6.195   5.268   1.256  0.2974 -0.3003 -0.4777
 4123TIP3    H133928   6.143   5.236   1.183  0.8076 -0.4058 -0.8002
 4123TIP3    H233929   6.223   5.188   1.302 -0.4137 -0.2162  0.1092
 4124TIP3   OH233930   3.365   3.005   1.912  0.2568  0.4865  0.0603
 4124TIP3    H133931   3.298   3.040   1.972  1.1104  1.5431  0.4260
 4124TIP3    H233932   3.448   3.020   1.958  0.7118 -1.5850 -0.0025
 4125TIP3   OH233933   6.175   0.292   0.389  0.2105 -0.3356 -0.1469
 4125TIP3    H133934   6.151   0.346   0.465 -0.2960 -1.7454  0.7197
 4125TIP3    H233935   6.270   0.287   0.393  0.4896  2.2212 -1.4802
 4126TIP3   OH233936   3.594   6.384   7.293  0.4695  0.0986  0.1482
 4126TIP3    H133937   3.536   6.382   7.217 -0.1740 -0.1081  0.6378
 4126TIP3    H233938   3.573   6.466   7.337  1.1153  0.4063 -0.0928
 4127TIP3   OH233939   0.791   0.053   1.484 -0.3416 -0.0419 -0.2871
 4127TIP3    H133940   0.703   0.087   1.498 -0.5612 -0.2425 -1.1181
 4127TIP3    H233941   0.849   0.119   1.521 -0.8003  0.7061 -0.8773
 4128TIP3   OH233942   5.935   5.550   0.641  0.3974  0.4627  0.0931
 4128TIP3    H133943   5.931   5.458   0.664 -1.8422  0.2294 -0.8959
 4128TIP3    H233944   5.931   5.597   0.725  0.1020 -0.3479  0.5390
 4129TIP3   OH233945   6.246   0.904   8.149  0.2651 -0.6029 -0.1406
 4129TIP3    H133946   6.178   0.893   8.217  0.1860  0.7393  0.0294
 4129TIP3    H233947   6.319   0.850   8.179  0.7589  1.0115  1.7872
 4130TIP3   OH233948   1.653   1.973   1.633 -0.3089  0.4514  0.2562
 4130TIP3    H133949   1.576   1.918   1.620  0.0456 -0.0502  0.2546
 4130TIP3    H233950   1.623   2.042   1.692 -0.1767 -1.0450  2.1982
 4131TIP3   OH233951   1.706   6.404   1.860 -0.3140 -0.1177 -0.8076
 4131TIP3    H133952   1.728   6.429   1.950  0.3370 -1.7783 -0.4719
 4131TIP3    H233953   1.717   6.484   1.810  0.1781  0.6375  0.4485
 4132TIP3   OH233954   6.144   6.478   0.008  0.2781 -0.2867  0.1341
 4132TIP3    H133955   6.077   6.411   0.025  0.6608 -0.6270  0.3444
 4132TIP3    H233956   6.113   6.555   0.055  0.0367 -0.4453  0.2384
 4133TIP3   OH233957   1.565   3.401   8.061 -0.1381  0.4832 -0.3810
 4133TIP3    H133958   1.653   3.436   8.072  0.9231 -1.6867 -1.3519
 4133TIP3    H233959   1.573   3.335   7.991 -1.9361 -1.7063  1.2998
 4134TIP3   OH233960   2.216   6.066   0.293  0.5863  0.2119 -0.3703
 4134TIP3    H133961   2.168   6.145   0.319  1.1959  0.3770  0.2992
 4134TIP3    H233962   2.309   6.091   0.300  0.7905 -0.5681 -0.1129
 4135TIP3   OH233963   5.187   6.603   2.242 -0.3242  0.1899  0.6222
 4135TIP3    H133964   5.147   6.617   2.327 -1.0552 -1.6682  0.6466
 4135TIP3    H233965   5.140   6.662   2.183 -1.5802 -0.3455  1.0635
 4136TIP3   OH233966   0.524   4.955   8.436 -0.2590  0.7581 -0.1445
 4136TIP3    H133967   0.616   4.962   8.458  0.2184  1.6285 -2.1437
 4136TIP3    H233968   0.503   4.862   8.448  0.8232  0.5809  0.4666
 4137TIP3   OH233969   3.812   6.546   6.918 -0.1743  0.0066  0.0321
 4137TIP3    H133970   3.885   6.487   6.899 -1.6945 -1.5086 -1.5401
 4137TIP3    H233971   3.777   6.569   6.832 -2.1752 -0.1863  0.7261
 4138TIP3   OH233972   3.704   2.884   1.234  0.1765 -0.2419 -0.3066
 4138TIP3    H133973   3.722   2.946   1.304 -1.9250  0.4729 -0.3349
 4138TIP3    H233974   3.655   2.813   1.277  1.1573 -1.1207 -0.5864
 4139TIP3   OH233975   4.490   5.922   6.910  0.3858 -0.3992  0.4907
 4139TIP3    H133976   4.466   5.847   6.965  0.9029  0.7602  2.3808
 4139TIP3    H233977   4.560   5.965   6.958  0.1111  1.2969 -0.5648
 4140TIP3   OH233978   1.194   6.285   8.227 -0.0647  0.4703 -0.0432
 4140TIP3    H133979   1.122   6.309   8.169 -0.3708  0.4224  0.3167
 4140TIP3    H233980   1.195   6.352   8.294 -0.1459  0.1504  0.2814
 4141TIP3   OH233981   3.157   3.520   8.250 -0.0204 -0.9210 -0.5270
 4141TIP3    H133982   3.114   3.506   8.166  1.7246 -0.5467 -1.5375
 4141TIP3    H233983   3.160   3.434   8.291  1.2054 -1.5945 -1.9365
 4142TIP3   OH233984   3.402   3.209   0.853  0.3255 -0.2851 -0.0148
 4142TIP3    H133985   3.330   3.225   0.793  0.1379 -2.0444 -0.3174
 4142TIP3    H233986   3.403   3.285   0.911  0.7496  1.6701 -2.4379
 4143TIP3   OH233987   5.342   1.509   7.846 -0.1872 -0.6947 -0.1349
 4143TIP3    H133988   5.373   1.599   7.843 -1.4733 -0.0742  2.3302
 4143TIP3    H233989   5.332   1.483   7.754  1.0276  1.3548 -0.8944
 4144TIP3   OH233990   3.267   5.824   7.529  0.2346  0.1125 -0.4918
 4144TIP3    H133991   3.269   5.728   7.533  0.0436  0.1332  0.2829
 4144TIP3    H233992   3.190   5.844   7.477  0.1848 -0.1514 -0.5226
 4145TIP3   OH233993   4.687   2.723   8.053 -0.2583 -0.1281  0.4987
 4145TIP3    H133994   4.756   2.667   8.017  0.4119 -0.0683  1.6492
 4145TIP3    H233995   4.607   2.689   8.013  0.1013 -2.0405  1.2528
 4146TIP3   OH233996   4.087   0.294   0.907  0.1222 -0.2807  0.2190
 4146TIP3    H133997   4.063   0.321   0.996 -2.4179 -1.1707 -0.1103
 4146TIP3    H233998   4.117   0.203   0.918 -0.1429 -0.3737  0.1839
 4147TIP3   OH233999   0.937   5.984   7.234  0.0460 -0.0076 -0.7804
 4147TIP3    H134000   0.968   6.057   7.179 -0.5205  0.7880 -0.0654
 4147TIP3    H234001   1.017   5.936   7.257  0.4777  0.6210 -0.9397
 4148TIP3   OH234002   5.084   1.017   8.427  0.2029 -0.1835  0.5266
 4148TIP3    H134003   5.120   0.931   8.449 -1.2952 -0.7975  0.7512
 4148TIP3    H234004   5.133   1.045   8.350 -0.4440 -2.0781 -0.6531
 4149TIP3   OH234005   0.095   2.040   1.474 -0.3002  0.3302  0.2729
 4149TIP3    H134006   0.126   1.957   1.511 -2.1471 -0.4069  0.2899
 4149TIP3    H234007   0.099   2.102   1.547  0.4848  0.0979  0.4351
 4150TIP3   OH234008   3.940   1.568   0.900 -0.2907 -0.1025 -0.9991
 4150TIP3    H134009   3.857   1.553   0.945  0.6675 -1.7781  0.2982
 4150TIP3    H234010   3.971   1.652   0.933  0.0964 -1.0129  1.1072
 4151TIP3   OH234011   3.778   5.317   7.295  0.9043  0.1189  0.7860
 4151TIP3    H134012   3.838   5.389   7.273 -1.3489  1.9073  0.1120
 4151TIP3    H234013   3.771   5.266   7.215  1.2201  0.1369  0.7453
 4152TIP3   OH234014   2.972   3.310   6.204  0.0596  0.0784  0.3164
 4152TIP3    H134015   2.919   3.284   6.129  1.1788 -0.1653 -0.4168
 4152TIP3    H234016   2.913   3.362   6.258 -0.4551  1.3127 -1.3375
 4153TIP3   OH234017   6.559   6.229   8.013 -0.2118 -0.8717 -0.0004
 4153TIP3    H134018   6.473   6.213   8.052 -0.2987  1.5630  1.0305
 4153TIP3    H234019   6.541   6.277   7.932  0.0429  2.8031  1.8598
 4154TIP3   OH234020   3.260   0.312   7.571  0.4210  0.5596  0.1833
 4154TIP3    H134021   3.240   0.364   7.649  1.2751 -1.1563  1.6216
 4154TIP3    H234022   3.206   0.233   7.580 -0.4554  0.9167 -1.6622
 4155TIP3   OH234023   2.994   3.241   1.160 -0.1802  0.1907 -1.1410
 4155TIP3    H134024   2.988   3.213   1.069  0.7009 -0.3772 -1.0320
 4155TIP3    H234025   3.044   3.322   1.157 -1.3166  0.9025 -1.2895
 4156TIP3   OH234026   2.165   0.255   7.477 -0.1288  0.2762  0.7476
 4156TIP3    H134027   2.086   0.293   7.515 -2.3612 -2.2022 -1.0274
 4156TIP3    H234028   2.173   0.170   7.519 -0.0445 -0.6273 -0.9858
 4157TIP3   OH234029   6.140   2.868   8.480 -0.2048  0.0522 -0.4732
 4157TIP3    H134030   6.088   2.948   8.489  0.1362  0.3232 -0.8639
 4157TIP3    H234031   6.230   2.899   8.477  0.1587 -0.5362  2.1073
 4158TIP3   OH234032   6.312   3.271   8.447 -0.0900  0.2455 -0.2927
 4158TIP3    H134033   6.405   3.279   8.424 -0.5228 -0.0603 -2.3701
 4158TIP3    H234034   6.300   3.178   8.463 -0.1802  0.1680 -0.7875
 4159TIP3   OH234035   3.343   4.080   7.205  0.2915  1.1384 -0.7251
 4159TIP3    H134036   3.319   4.165   7.167  0.8747  1.8183  0.3778
 4159TIP3    H234037   3.437   4.087   7.222  0.6140 -0.2081 -1.7623
 4160TIP3   OH234038   1.677   2.228   0.178  1.0182  0.4409  0.4008
 4160TIP3    H134039   1.730   2.213   0.100  0.8589 -3.7069  0.8672
 4160TIP3    H234040   1.608   2.288   0.149  2.2025  0.7533 -1.9958
 4161TIP3   OH234041   1.863   5.218   8.261 -0.0010 -0.3254 -0.2541
 4161TIP3    H134042   1.893   5.166   8.186  0.6930 -0.0002 -0.2073
 4161TIP3    H234043   1.923   5.195   8.331 -1.9936 -2.3988  0.9406
 4162TIP3   OH234044   0.216   5.268   6.563  0.4977 -0.0131  0.8092
 4162TIP3    H134045   0.239   5.268   6.656  0.2560 -0.3401  0.8689
 4162TIP3    H234046   0.170   5.185   6.549  0.4982  0.0516  0.4064
 4163TIP3   OH234047   1.227   1.412   7.904  0.5988 -0.1440 -0.2667
 4163TIP3    H134048   1.270   1.495   7.882  3.7800 -1.7254 -0.4499
 4163TIP3    H234049   1.185   1.385   7.823 -1.4421  1.6861  0.0569
 4164TIP3   OH234050   3.242   2.044   2.330  0.4293  0.3802  0.2023
 4164TIP3    H134051   3.241   2.140   2.329 -1.2196  0.4561  2.3356
 4164TIP3    H234052   3.333   2.021   2.310  1.4159  2.4762  1.8550
 4165TIP3   OH234053   1.658   2.703   6.805 -0.6456 -0.3247 -0.6908
 4165TIP3    H134054   1.667   2.645   6.880 -0.3275 -0.5541 -0.9084
 4165TIP3    H234055   1.747   2.717   6.773 -0.8040 -0.4676 -1.2090
 4166TIP3   OH234056   2.996   0.052   6.977 -0.0684  0.4427  0.1200
 4166TIP3    H134057   3.070   0.039   6.918  0.2376  1.2733  0.2940
 4166TIP3    H234058   2.919   0.030   6.925  0.1502  1.7278 -0.8137
 4167TIP3   OH234059   2.390   6.746   2.156  0.2044 -0.1307 -0.2268
 4167TIP3    H134060   2.480   6.777   2.162 -0.7591  2.7196  2.0254
 4167TIP3    H234061   2.371   6.710   2.243 -0.6184 -1.4911 -0.9258
 4168TIP3   OH234062   5.834   2.844   7.066  0.0442  0.4649  0.2162
 4168TIP3    H134063   5.809   2.762   7.109 -0.1719 -1.8843 -3.8862
 4168TIP3    H234064   5.758   2.868   7.014  1.4147  1.0293 -1.6424
 4169TIP3   OH234065   0.270   3.857   1.150 -1.0141  0.1832  0.3577
 4169TIP3    H134066   0.264   3.884   1.242 -0.9230  0.4712  0.2792
 4169TIP3    H234067   0.195   3.898   1.108 -2.2163 -1.5463  0.6834
 4170TIP3   OH234068   4.641   5.161   8.273 -0.0811  0.3466 -1.0687
 4170TIP3    H134069   4.552   5.138   8.300 -0.1766 -0.5625 -2.0631
 4170TIP3    H234070   4.644   5.139   8.180  0.8588  1.3976 -1.3044
 4171TIP3   OH234071   3.981   6.463   7.666 -0.4501 -0.2870  0.2331
 4171TIP3    H134072   4.020   6.526   7.605 -1.2328  0.7630  0.7882
 4171TIP3    H234073   4.035   6.384   7.656  0.1774  0.2563 -0.9227
 4172TIP3   OH234074   3.367   6.238   7.504  0.0397  0.0639 -0.0694
 4172TIP3    H134075   3.413   6.263   7.584  0.4327 -0.0165 -0.2661
 4172TIP3    H234076   3.411   6.158   7.475  2.1375  1.8275 -2.1578
 4173TIP3   OH234077   0.228   2.484   6.388 -0.0252  0.2875  0.3324
 4173TIP3    H134078   0.312   2.494   6.433  0.2614  1.2405 -0.3678
 4173TIP3    H234079   0.240   2.408   6.332  0.6541  0.8613 -0.3301
 4174TIP3   OH234080   5.034   4.745   7.182  0.2561 -0.4384 -0.1224
 4174TIP3    H134081   5.068   4.660   7.154  1.7655  0.3388 -0.7474
 4174TIP3    H234082   5.065   4.806   7.115 -0.8408  0.6144  0.2950
 4175TIP3   OH234083   3.811   0.433   6.390 -0.5344 -0.0946 -0.4680
 4175TIP3    H134084   3.821   0.482   6.471 -0.4529  0.0807 -0.5830
 4175TIP3    H234085   3.823   0.342   6.415  0.0994  0.0063 -0.3899
 4176TIP3   OH234086   1.366   3.861   2.153 -0.3316 -0.0079  0.6267
 4176TIP3    H134087   1.362   3.768   2.134 -0.0755  0.1399 -0.1691
 4176TIP3    H234088   1.457   3.885   2.140 -0.6804  0.6701 -0.7574
 4177TIP3   OH234089   1.491   5.131   7.301 -0.0268 -0.1271  0.4493
 4177TIP3    H134090   1.567   5.104   7.352 -0.4673 -0.8191  0.7561
 4177TIP3    H234091   1.457   5.050   7.263 -2.0542 -0.2702  2.3288
 4178TIP3   OH234092   2.566   2.431   1.724  0.2910  0.3168  0.4381
 4178TIP3    H134093   2.548   2.520   1.692 -0.7088 -0.4704 -1.3757
 4178TIP3    H234094   2.511   2.375   1.669  1.1411 -1.4583  1.3313
 4179TIP3   OH234095   2.953   1.027   7.486  0.0029  0.5930  0.2602
 4179TIP3    H134096   2.965   0.941   7.448 -1.1641  1.1072 -1.3608
 4179TIP3    H234097   3.034   1.074   7.465 -0.3770  0.6734 -1.0956
 4180TIP3   OH234098   0.378   1.498   7.082 -0.7813 -0.6011  0.5670
 4180TIP3    H134099   0.443   1.534   7.143 -0.8944 -0.3262  0.5264
 4180TIP3    H234100   0.424   1.427   7.038 -0.4241 -0.2463  0.3587
 4181TIP3   OH234101   5.420   3.003   7.715  0.0629  0.1400 -0.0230
 4181TIP3    H134102   5.373   3.054   7.649  0.2983  1.1267  0.5481
 4181TIP3    H234103   5.500   2.974   7.670  1.1773  2.4448  0.3362
 4182TIP3   OH234104   2.393   3.272   8.319  0.2840 -0.1885 -0.2392
 4182TIP3    H134105   2.462   3.337   8.309  0.0427  0.0368 -0.4567
 4182TIP3    H234106   2.418   3.201   8.261  1.0492 -0.7196  0.7237
 4183TIP3   OH234107   6.536   5.705   7.525 -0.0505  0.0015  0.9590
 4183TIP3    H134108   6.595   5.638   7.559 -1.2268 -1.0981  0.9309
 4183TIP3    H234109   6.592   5.780   7.507  1.3913 -1.1184  0.5763
 4184TIP3   OH234110   3.804   4.978   7.888  0.0889  0.2080  0.1944
 4184TIP3    H134111   3.744   4.907   7.909 -1.9915  1.5820 -0.7705
 4184TIP3    H234112   3.871   4.937   7.833  0.7218 -1.5836  2.1735
 4185TIP3   OH234113   2.882   2.108   1.164  0.4419  0.4100 -0.1726
 4185TIP3    H134114   2.867   2.155   1.082 -0.1525  0.8424  0.1744
 4185TIP3    H234115   2.944   2.039   1.142  0.5987  0.7807 -0.8952
 4186TIP3   OH234116   4.109   4.379   7.353  0.0566  0.4030 -0.3396
 4186TIP3    H134117   4.187   4.364   7.408  0.2561  0.0631 -0.7092
 4186TIP3    H234118   4.121   4.467   7.318 -0.7409  1.1904  1.2363
 4187TIP3   OH234119   0.305   6.553   0.373 -0.0804 -0.2621 -0.5657
 4187TIP3    H134120   0.345   6.477   0.414 -0.2676 -0.0949 -0.0575
 4187TIP3    H234121   0.315   6.623   0.438 -0.7785 -0.1059 -0.6183
 4188TIP3   OH234122   3.666   3.697   8.562 -0.3146 -0.3071 -0.8658
 4188TIP3    H134123   3.647   3.701   8.468 -3.8883  1.0287 -0.2374
 4188TIP3    H234124   3.719   3.775   8.579 -0.7975  0.2031 -1.6113
 4189TIP3   OH234125   5.781   2.991   0.907  0.1672  0.3198 -0.2774
 4189TIP3    H134126   5.823   3.023   0.986  1.9015  2.4052 -1.9126
 4189TIP3    H234127   5.716   3.058   0.885 -0.4347 -0.3293 -0.5447
 4190TIP3   OH234128   6.778   3.991   8.472 -0.7595 -0.0772 -0.2748
 4190TIP3    H134129   6.815   3.961   8.555 -1.4278  0.6477  0.2971
 4190TIP3    H234130   6.852   3.990   8.411 -0.1933 -0.3036  0.4082
 4191TIP3   OH234131   2.876   2.844   0.170 -0.3707 -0.1005 -0.2848
 4191TIP3    H134132   2.952   2.828   0.114 -0.4665  0.1352 -0.4819
 4191TIP3    H234133   2.806   2.867   0.109 -1.0006 -1.7494 -0.2369
 4192TIP3   OH234134   1.845   5.658   0.427  0.3786 -0.3386  0.4921
 4192TIP3    H134135   1.802   5.616   0.501  2.0912 -0.5310  1.4428
 4192TIP3    H234136   1.878   5.741   0.462  1.4161 -0.5385  0.0432
 4193TIP3   OH234137   6.028   3.969   1.816  0.0091  0.3546  0.3482
 4193TIP3    H134138   6.120   3.974   1.843 -0.0789 -2.5807  1.7064
 4193TIP3    H234139   6.026   3.901   1.749 -0.9611  1.8478 -1.2267
 4194TIP3   OH234140   2.385   3.903   7.241 -0.3312  0.0163  0.2294
 4194TIP3    H134141   2.346   3.844   7.176 -1.8590  0.4424  0.7041
 4194TIP3    H234142   2.477   3.908   7.217 -0.9586  0.7264 -2.3609
 4195TIP3   OH234143   1.299   0.990   6.566  0.0509 -0.1289 -0.1714
 4195TIP3    H134144   1.246   0.919   6.530 -2.5005  1.4093  0.3489
 4195TIP3    H234145   1.387   0.974   6.530 -0.5704 -3.1080 -0.6035
 4196TIP3   OH234146   4.636   2.829   0.546 -0.4317  0.0771 -0.3130
 4196TIP3    H134147   4.590   2.746   0.557 -1.8147  0.4936 -2.2794
 4196TIP3    H234148   4.565   2.893   0.531  0.4905  1.8796  2.3293
 4197TIP3   OH234149   1.399   1.076   8.046 -0.3593  0.2640 -0.2652
 4197TIP3    H134150   1.450   1.123   8.112  0.0193  0.4063 -0.6587
 4197TIP3    H234151   1.308   1.095   8.068 -0.3639 -1.6219  1.6905
 4198TIP3   OH234152   6.348   5.040   8.121  0.7774 -0.3874  0.4078
 4198TIP3    H134153   6.444   5.045   8.119  0.9569 -2.4160 -2.6909
 4198TIP3    H234154   6.320   5.131   8.131  2.9035  0.1180  3.3564
 4199TIP3   OH234155   3.000   0.828   8.505  0.4112 -0.8816  0.3199
 4199TIP3    H134156   3.063   0.782   8.560  0.2548 -0.5714  0.7614
 4199TIP3    H234157   2.925   0.844   8.562 -0.6818 -2.4950 -0.5492
 4200TIP3   OH234158   3.351   6.643   6.627  0.1372  0.8319 -0.2468
 4200TIP3    H134159   3.437   6.680   6.606  0.6748  0.3957  1.0955
 4200TIP3    H234160   3.343   6.567   6.568 -0.0396  1.7787 -1.4873
 4201TIP3   OH234161   2.333   2.318   0.480  0.1315  0.1146 -0.0854
 4201TIP3    H134162   2.418   2.282   0.456 -0.8137 -1.3254 -1.4266
 4201TIP3    H234163   2.274   2.243   0.483 -1.6804  1.3431 -1.8524
 4202TIP3   OH234164   5.487   2.925   0.948  0.0560 -0.1267  0.8198
 4202TIP3    H134165   5.517   3.013   0.926  0.9915 -0.5582  0.2952
 4202TIP3    H234166   5.513   2.913   1.039 -2.5358  1.1300  1.8229
 4203TIP3   OH234167   6.633   2.323   6.768 -0.0556 -0.2474 -0.2314
 4203TIP3    H134168   6.585   2.293   6.845  0.9181 -2.1029 -0.2732
 4203TIP3    H234169   6.621   2.252   6.704  2.1929 -0.5106 -0.4451
 4204TIP3   OH234170   4.801   4.054   7.051 -0.7633  0.1072  0.0808
 4204TIP3    H134171   4.735   4.060   6.982 -0.5350 -0.8659 -0.2429
 4204TIP3    H234172   4.751   4.065   7.133 -0.9541  1.7886 -0.2459
 4205TIP3   OH234173   0.782   0.307   1.676  0.6452  0.5925  0.0132
 4205TIP3    H134174   0.748   0.232   1.724  1.3527 -0.1277 -0.5703
 4205TIP3    H234175   0.871   0.280   1.651  0.6676  1.3668 -0.7608
 4206TIP3   OH234176   3.935   2.031   0.755 -0.3268  0.0120 -0.3313
 4206TIP3    H134177   3.852   2.077   0.751  0.0338  0.6004 -1.4145
 4206TIP3    H234178   3.985   2.077   0.823 -1.5365 -1.5333  1.7302
 4207TIP3   OH234179   3.886   3.898   0.950 -0.3660  0.1853 -0.8483
 4207TIP3    H134180   3.925   3.966   1.005 -1.9230 -0.3955  1.1057
 4207TIP3    H234181   3.884   3.935   0.862  1.9289  1.2900 -0.4998
 4208TIP3   OH234182   5.157   0.787   8.530  0.3353  0.0783  0.1776
 4208TIP3    H134183   5.207   0.732   8.470 -0.4752 -0.5556  0.0572
 4208TIP3    H234184   5.194   0.769   8.616  0.5546 -0.0996  0.0483
 4209TIP3   OH234185   1.124   4.439   1.108  0.1422 -0.1820  0.6834
 4209TIP3    H134186   1.096   4.413   1.020  1.5036  2.2567 -0.5789
 4209TIP3    H234187   1.189   4.373   1.133  0.9233 -0.0354 -0.8641
 4210TIP3   OH234188   4.681   4.464   1.238  0.0440  0.2996 -0.1285
 4210TIP3    H134189   4.590   4.470   1.266  0.6606 -1.6645  2.8173
 4210TIP3    H234190   4.732   4.492   1.314  1.9258  0.3260 -1.3261
 4211TIP3   OH234191   5.793   3.824   0.623 -0.1224  0.1214 -0.1419
 4211TIP3    H134192   5.870   3.770   0.640  0.9400  0.6618 -2.8246
 4211TIP3    H234193   5.780   3.820   0.529 -1.2748  2.8421 -0.2008
 4212TIP3   OH234194   6.110   3.603   8.044 -0.7055  0.0433 -0.1892
 4212TIP3    H134195   6.189   3.630   7.999 -0.8299  0.8953  0.0785
 4212TIP3    H234196   6.075   3.531   7.992  0.7465 -1.0003  0.2097
 4213TIP3   OH234197   3.902   2.588   8.434 -0.5040 -0.0403  0.2206
 4213TIP3    H134198   3.964   2.533   8.483  1.0145 -0.7263 -2.2762
 4213TIP3    H234199   3.834   2.527   8.406  1.0916 -0.8039 -2.4018
 4214TIP3   OH234200   4.871   2.012   6.244 -0.4862 -0.0366  0.4397
 4214TIP3    H134201   4.959   1.981   6.265 -0.5914 -0.4220  0.3114
 4214TIP3    H234202   4.873   2.105   6.267  0.3771  0.2842 -0.7863
 4215TIP3   OH234203   3.522   3.215   7.954  0.7031  0.2120 -0.1977
 4215TIP3    H134204   3.610   3.250   7.968  0.4028  1.9086 -2.0973
 4215TIP3    H234205   3.463   3.285   7.984 -0.0200 -0.8424  0.9204
 4216TIP3   OH234206   3.848   1.753   0.187  0.5742  0.1742  0.0636
 4216TIP3    H134207   3.792   1.828   0.168  0.2243 -0.3314 -0.9599
 4216TIP3    H234208   3.853   1.751   0.283 -0.4767  0.7236  0.1451
 4217TIP3   OH234209   0.237   1.450   0.471 -0.2624  0.0776  0.5596
 4217TIP3    H134210   0.316   1.500   0.450  0.5474 -1.1539  0.6058
 4217TIP3    H234211   0.254   1.362   0.439 -2.0895  0.0473 -0.4599
 4218TIP3   OH234212   6.515   2.964   1.847  0.2548 -0.4468 -0.3217
 4218TIP3    H134213   6.464   3.042   1.822 -0.0406 -0.3320  0.6210
 4218TIP3    H234214   6.497   2.953   1.940  1.4454 -0.7940 -0.1280
 4219TIP3   OH234215   2.959   1.347   8.051 -0.2361  0.1237 -0.2348
 4219TIP3    H134216   2.941   1.322   8.142 -0.6315  2.4054  0.3762
 4219TIP3    H234217   2.875   1.333   8.006 -0.1869 -0.4928 -0.1513
 4220TIP3   OH234218   6.865   6.790   7.865 -0.2716 -0.1911  0.0698
 4220TIP3    H134219   6.909   6.741   7.935  0.2494 -0.8797 -0.7217
 4220TIP3    H234220   6.787   6.825   7.907  0.1198 -0.4375  1.0509
 4221TIP3   OH234221   1.345   0.824   0.374 -0.0147  0.2981 -0.2295
 4221TIP3    H134222   1.265   0.847   0.327  0.2549 -0.4733 -1.0941
 4221TIP3    H234223   1.415   0.832   0.308  0.6989  1.4460  0.6341
 4222TIP3   OH234224   3.860   3.497   8.554 -0.1398  0.7134  0.5530
 4222TIP3    H134225   3.826   3.583   8.576  0.8404  1.8668 -2.0545
 4222TIP3    H234226   3.783   3.440   8.555 -0.8095  1.5627  2.2780
 4223TIP3   OH234227   3.904   4.758   1.442 -0.4228 -0.6069  0.0474
 4223TIP3    H134228   3.904   4.826   1.509 -0.6184 -0.7324  0.1747
 4223TIP3    H234229   3.975   4.783   1.383 -0.0907 -0.6333  0.4330
 4224TIP3   OH234230   5.739   3.681   8.555  0.6115 -0.2770 -0.3031
 4224TIP3    H134231   5.769   3.614   8.617  0.5319 -0.3090 -0.2991
 4224TIP3    H234232   5.698   3.748   8.609 -2.4965 -1.8428 -0.5020
 4225TIP3   OH234233   2.481   4.321   0.370 -0.8342  0.3801 -0.6195
 4225TIP3    H134234   2.410   4.384   0.388 -0.0342  1.3564 -0.8110
 4225TIP3    H234235   2.438   4.250   0.324 -1.4604  1.6262 -2.0445
 4226TIP3   OH234236   2.410   0.389   0.551  0.5644  0.3225 -1.0174
 4226TIP3    H134237   2.459   0.317   0.512 -0.0650 -0.0235 -1.1661
 4226TIP3    H234238   2.467   0.421   0.621  0.6732 -0.5766 -0.6844
 4227TIP3   OH234239   3.194   1.999   0.423 -0.6799 -0.2127 -0.0827
 4227TIP3    H134240   3.125   1.981   0.359 -0.8330  0.6392 -0.1805
 4227TIP3    H234241   3.270   1.949   0.392 -1.3888 -1.5754  0.3104
 4228TIP3   OH234242   0.315   5.766   7.720  0.1598 -0.3773 -0.5106
 4228TIP3    H134243   0.258   5.826   7.767 -0.1381 -1.1471  0.1261
 4228TIP3    H234244   0.393   5.818   7.700  1.1769 -0.5000  2.5845
 4229TIP3   OH234245   1.541   4.891   8.456  0.4863 -0.0991  0.0144
 4229TIP3    H134246   1.613   4.935   8.410  1.0244  1.0006  1.8036
 4229TIP3    H234247   1.576   4.803   8.474  1.1063  0.1777  0.2112
 4230TIP3   OH234248   1.744   1.122   0.222 -0.3404 -0.3432 -0.4347
 4230TIP3    H134249   1.795   1.084   0.293 -0.3979 -0.8970 -0.6843
 4230TIP3    H234250   1.806   1.133   0.150 -0.2757  0.2405 -0.2974
 4231TIP3   OH234251   0.425   4.563   7.763 -0.3431  0.4829 -0.0497
 4231TIP3    H134252   0.520   4.559   7.775 -0.3435 -0.4296 -0.2780
 4231TIP3    H234253   0.412   4.626   7.692  0.0296  1.2867  0.5850
 4232TIP3   OH234254   0.505   6.764   8.180  0.1572 -0.3204  0.3843
 4232TIP3    H134255   0.584   6.800   8.139  0.4315  0.2855  1.4166
 4232TIP3    H234256   0.510   6.792   8.271  0.0893 -2.4827  1.1084
 4233TIP3   OH234257   2.235   5.013   8.081 -0.0072  0.3883 -0.2532
 4233TIP3    H134258   2.222   5.038   8.173  2.0290 -1.1642  0.5363
 4233TIP3    H234259   2.295   5.079   8.046  1.5344 -0.5849  0.4353
 4234TIP3   OH234260   0.003   0.615   0.402 -0.1106  0.0483 -0.0984
 4234TIP3    H134261   0.004   0.632   0.496  2.3489 -0.4486  0.0380
 4234TIP3    H234262   0.025   0.699   0.362  0.4640 -0.1066 -0.1171
 4235TIP3   OH234263   5.067   4.952   8.425 -0.3190  0.1556  0.1056
 4235TIP3    H134264   5.153   4.939   8.385  0.3259  0.7720  1.2519
 4235TIP3    H234265   5.031   5.029   8.379  0.2523  0.6233  0.4314
 4236TIP3   OH234266   0.042   5.860   6.790  0.0666 -0.0346  0.6901
 4236TIP3    H134267   0.009   5.777   6.755 -0.1226 -0.0361  0.8699
 4236TIP3    H234268   0.092   5.898   6.718 -2.3472  1.1352 -0.5063
 4237TIP3   OH234269   0.719   3.335   7.624  0.2151 -0.3770  0.3547
 4237TIP3    H134270   0.626   3.314   7.616 -0.0724  0.5593  1.1081
 4237TIP3    H234271   0.762   3.250   7.635 -0.3210 -0.9957 -1.7514
 4238TIP3   OH234272   1.654   4.667   6.061  0.4143  0.2147  0.2608
 4238TIP3    H134273   1.599   4.591   6.078 -0.1505  0.7478  0.8900
 4238TIP3    H234274   1.627   4.731   6.127 -1.0991  1.9762 -1.8846
 4239TIP3   OH234275   2.528   5.481   8.225 -0.0450  0.0088 -0.2776
 4239TIP3    H134276   2.498   5.428   8.151 -0.6664 -0.2297  0.1268
 4239TIP3    H234277   2.551   5.417   8.292  1.3529  0.1952 -0.5547
 4240TIP3   OH234278   6.769   0.032   7.320  0.4972 -0.0761  0.1026
 4240TIP3    H134279   6.832   0.073   7.261  0.1258 -0.1399 -0.3506
 4240TIP3    H234280   6.717  -0.025   7.262  1.4841 -1.7838  0.8076
 4241TIP3   OH234281   2.592   4.930   7.184 -0.1367  0.1680 -0.3564
 4241TIP3    H134282   2.519   4.877   7.153  0.1080 -0.0207 -0.6182
 4241TIP3    H234283   2.665   4.868   7.191  0.1379  0.4622 -0.6119
 4242TIP3   OH234284   0.128   5.490   5.921 -0.3164  0.5423 -0.1805
 4242TIP3    H134285   0.115   5.395   5.915  0.1258  0.3800  1.0806
 4242TIP3    H234286   0.100   5.512   6.010  0.1406  1.4985 -0.2682
 4243TIP3   OH234287   3.100   0.245   8.463  0.1683  0.2107 -0.2501
 4243TIP3    H134288   3.072   0.187   8.534 -2.1537  1.9282  0.3986
 4243TIP3    H234289   3.161   0.306   8.504  1.5071 -0.8351 -0.6059
 4244TIP3   OH234290   0.984   2.255   7.788 -0.5664  0.0210 -0.0221
 4244TIP3    H134291   1.065   2.241   7.837  0.1353 -1.1274 -1.4412
 4244TIP3    H234292   1.006   2.234   7.697 -2.5369 -0.7176 -0.4000
 4245TIP3   OH234293   1.601   4.169   6.044 -0.0379  0.2944 -0.1618
 4245TIP3    H134294   1.566   4.090   6.001  0.1545 -0.5057  1.0892
 4245TIP3    H234295   1.688   4.142   6.075 -0.6140  0.4758  1.6885
 4246TIP3   OH234296   0.467   4.103   1.175 -1.0033 -0.0630 -0.5818
 4246TIP3    H134297   0.388   4.143   1.211 -0.7339  1.3429 -1.4662
 4246TIP3    H234298   0.467   4.014   1.210 -2.8054  0.0074 -0.3109
 4247TIP3   OH234299   1.226   0.641   7.362 -0.3640 -0.9155  0.5598
 4247TIP3    H134300   1.276   0.723   7.362 -0.7871 -0.6506  0.8468
 4247TIP3    H234301   1.249   0.599   7.279 -0.7844 -0.1031  0.0059
 4248TIP3   OH234302   0.794   3.465   1.608 -0.2522  0.3319 -0.1299
 4248TIP3    H134303   0.766   3.556   1.620 -0.4792  0.5156 -1.8157
 4248TIP3    H234304   0.885   3.472   1.580 -0.4585  0.0857 -0.8848
 4249TIP3   OH234305   0.532   5.417   1.700 -0.2557  0.2762  0.2608
 4249TIP3    H134306   0.490   5.463   1.773 -0.3892 -0.3281  0.5725
 4249TIP3    H234307   0.494   5.329   1.702  0.8494 -0.2131  0.3965
 4250TIP3   OH234308   2.148   1.924   0.079 -0.4318 -0.1935 -0.9382
 4250TIP3    H134309   2.143   2.009   0.123 -0.5949 -1.3274  1.3513
 4250TIP3    H234310   2.058   1.908   0.050 -0.9985 -0.7837  1.0610
 4251TIP3   OH234311   2.370   4.811   0.871 -0.8878 -0.2912  0.8614
 4251TIP3    H134312   2.404   4.828   0.958 -2.4798  0.9733  1.2870
 4251TIP3    H234313   2.313   4.734   0.881 -1.8663  0.4493  1.1962
 4252TIP3   OH234314   6.548   3.509   0.543 -0.2557  0.9525  0.5435
 4252TIP3    H134315   6.641   3.485   0.545 -0.3234  0.7020  1.4760
 4252TIP3    H234316   6.548   3.604   0.556 -0.1266  0.9587  0.5058
 4253TIP3   OH234317   0.574   6.650   0.795 -0.5422  0.2846 -0.6105
 4253TIP3    H134318   0.623   6.719   0.750  2.9921  0.0696  2.4087
 4253TIP3    H234319   0.509   6.697   0.846 -0.1352  1.1397 -0.8583
 4254TIP3   OH234320   4.959   4.380   6.806  0.4012 -0.3276 -0.0320
 4254TIP3    H134321   4.957   4.430   6.724 -1.2330  0.0685  0.2196
 4254TIP3    H234322   4.905   4.431   6.866 -0.0069 -1.6117  0.7154
 4255TIP3   OH234323   5.600   0.899   0.725  0.1772 -0.5377  0.0856
 4255TIP3    H134324   5.564   0.970   0.673 -1.2608 -1.5443 -0.3625
 4255TIP3    H234325   5.536   0.885   0.795  0.9002 -0.7844  0.7168
 4256TIP3   OH234326   2.503   0.714   1.225 -0.1676 -1.0431  0.4835
 4256TIP3    H134327   2.453   0.794   1.210  0.2481 -0.8747 -0.0570
 4256TIP3    H234328   2.496   0.666   1.142  1.0239 -0.7593  0.2053
 4257TIP3   OH234329   0.462   6.280   7.708 -0.3504  0.6438  0.1819
 4257TIP3    H134330   0.498   6.196   7.678 -0.4668  1.0609 -1.2121
 4257TIP3    H234331   0.456   6.271   7.803  0.4432 -0.6064  0.1405
 4258TIP3   OH234332   3.245   4.988   1.968 -0.2184 -0.0702 -0.2038
 4258TIP3    H134333   3.178   4.922   1.988  0.2131 -0.3904  0.2148
 4258TIP3    H234334   3.278   5.016   2.054 -0.0542  0.3339 -0.3956
 4259TIP3   OH234335   5.085   5.995   6.725  0.1942  0.3837 -0.0151
 4259TIP3    H134336   5.025   5.927   6.756  0.4707 -0.3687 -1.0413
 4259TIP3    H234337   5.145   5.948   6.667  0.2167  1.5533 -0.9770
 4260TIP3   OH234338   0.010   5.292   6.919 -0.5141 -0.2690 -0.3252
 4260TIP3    H134339   0.044   5.306   7.007  1.7883 -1.1611 -0.9944
 4260TIP3    H234340   0.085   5.310   6.862 -1.7965 -0.2684 -2.0665
 4261TIP3   OH234341   4.540   1.976   0.586  0.0307 -0.0443 -0.1423
 4261TIP3    H134342   4.570   1.916   0.654  1.0294 -0.8341 -1.2259
 4261TIP3    H234343   4.455   1.941   0.559  0.0463 -0.2495  0.0705
 4262TIP3   OH234344   5.372   5.783   1.298  0.1887 -0.6450  0.0841
 4262TIP3    H134345   5.380   5.773   1.203 -0.2139  1.0336 -0.1526
 4262TIP3    H234346   5.338   5.698   1.328  2.3412 -1.9513 -0.9542
 4263TIP3   OH234347   1.238   5.373   8.016  0.0115 -0.2713 -0.1652
 4263TIP3    H134348   1.277   5.301   8.065 -1.0242 -0.4799  0.3879
 4263TIP3    H234349   1.270   5.452   8.060  0.0069 -0.4359  0.1393
 4264TIP3   OH234350   1.065   5.791   7.911 -0.2838 -0.9256 -0.2820
 4264TIP3    H134351   1.028   5.710   7.876  0.2839 -1.8696  1.2209
 4264TIP3    H234352   1.037   5.794   8.002  2.0358 -0.9400  0.5092
 4265TIP3   OH234353   2.689   6.747   2.225 -0.0796 -0.3802  0.3010
 4265TIP3    H134354   2.721   6.667   2.266  1.2464  0.1780  0.3917
 4265TIP3    H234355   2.667   6.805   2.298 -0.9304 -0.5984  0.2344
 4266TIP3   OH234356   6.378   3.696   7.972  0.7718  0.6564 -0.1045
 4266TIP3    H134357   6.382   3.738   8.059  0.6255 -1.6170  1.0627
 4266TIP3    H234358   6.466   3.708   7.937  1.2051  0.5563  0.8999
 4267TIP3   OH234359   0.473   2.142   0.027  0.1696 -0.3489  0.0714
 4267TIP3    H134360   0.532   2.123   0.100  1.5303 -0.4962 -1.0262
 4267TIP3    H234361   0.511   2.096  -0.048 -0.3558  0.9786 -1.0658
 4268TIP3   OH234362   4.470   3.558   0.563 -0.2935 -0.3746  0.1423
 4268TIP3    H134363   4.515   3.568   0.647 -2.1225 -1.4641  1.3310
 4268TIP3    H234364   4.528   3.502   0.511  0.5475 -0.2641  0.9316
 4269TIP3   OH234365   3.226   4.576   8.043  0.2847  0.2980  0.1274
 4269TIP3    H134366   3.156   4.564   8.106 -1.1905  3.5930 -0.6780
 4269TIP3    H234367   3.201   4.521   7.968  0.0147 -0.6207  0.8769
 4270TIP3   OH234368   5.992   4.861   8.057 -0.1224 -0.2759 -0.2877
 4270TIP3    H134369   5.965   4.906   8.137 -1.5013 -1.6790  0.0840
 4270TIP3    H234370   5.914   4.864   8.001 -0.1857 -1.9721 -0.3268
 4271TIP3   OH234371   2.844   5.374   0.366  0.1620 -0.4077 -0.5810
 4271TIP3    H134372   2.906   5.444   0.347  1.0746 -1.3007 -1.0090
 4271TIP3    H234373   2.790   5.408   0.437  1.9859 -0.0695  0.7149
 4272TIP3   OH234374   2.729   5.633   7.702  0.4723  0.1311  0.0100
 4272TIP3    H134375   2.640   5.608   7.729  0.9869  0.2221  1.8982
 4272TIP3    H234376   2.725   5.633   7.606 -1.0427 -1.7424 -0.0037
 4273TIP3   OH234377   4.131   0.122   1.295 -0.2060 -0.4094  0.4054
 4273TIP3    H134378   4.221   0.128   1.265 -0.6313  0.9288 -0.6794
 4273TIP3    H234379   4.104   0.033   1.272  1.0689 -1.1427  1.5436
 4274TIP3   OH234380   5.134   1.991   1.995 -0.5125  0.0995  0.2020
 4274TIP3    H134381   5.125   1.980   2.090 -1.0881  1.8542  0.3954
 4274TIP3    H234382   5.202   2.058   1.985  0.8177 -1.3147 -0.7249
 4275TIP3   OH234383   1.800   1.785   7.768 -0.9272  0.0465  0.2338
 4275TIP3    H134384   1.727   1.776   7.708 -0.6758  0.2444 -0.1076
 4275TIP3    H234385   1.878   1.776   7.713 -0.6440 -2.5058  0.9144
 4276TIP3   OH234386   6.747   5.124   7.212  0.2730  0.4867  0.2119
 4276TIP3    H134387   6.705   5.171   7.139 -0.3221  0.1589  0.3387
 4276TIP3    H234388   6.691   5.142   7.287  0.8056  0.6997  0.5669
 4277TIP3   OH234389   3.994   5.436   1.534 -0.0619 -0.3838 -0.2672
 4277TIP3    H134390   3.954   5.351   1.517  0.6809 -0.8432  0.2264
 4277TIP3    H234391   4.088   5.421   1.528  0.2267 -0.2343  2.4317
 4278TIP3   OH234392   5.705   2.375   0.336 -0.3276 -0.3124  0.5729
 4278TIP3    H134393   5.678   2.466   0.324  0.4602 -0.0754  0.5725
 4278TIP3    H234394   5.798   2.380   0.359  0.3972 -1.2072 -1.8094
 4279TIP3   OH234395   6.207   1.808   0.436  0.3698 -0.0343  0.2403
 4279TIP3    H134396   6.143   1.766   0.379  1.7691  0.2877 -1.6997
 4279TIP3    H234397   6.189   1.901   0.429  1.5391  0.1343 -1.0585
 4280TIP3   OH234398   4.927   0.368   0.493  0.7262 -0.0568  0.4814
 4280TIP3    H134399   4.903   0.278   0.518  3.2867 -0.9703 -0.0307
 4280TIP3    H234400   4.908   0.420   0.571 -1.9433 -0.7242  0.4041
 4281TIP3   OH234401   6.279   4.305   1.497  0.3382 -0.0519 -0.4078
 4281TIP3    H134402   6.187   4.316   1.524 -0.2954  0.7555 -2.6117
 4281TIP3    H234403   6.282   4.217   1.459  0.4854 -0.1144 -0.2463
 4282TIP3   OH234404   5.246   3.345   7.324  0.3082  0.2495 -0.2297
 4282TIP3    H134405   5.178   3.410   7.302  0.2643 -0.1491 -1.3589
 4282TIP3    H234406   5.309   3.353   7.253  2.2532  1.6333  1.5344
 4283TIP3   OH234407   1.401   3.787   6.963  0.3550 -0.5447  0.0175
 4283TIP3    H134408   1.393   3.730   6.886  0.2872 -0.2304 -0.2105
 4283TIP3    H234409   1.495   3.793   6.978  0.4112 -0.0414 -0.4751
 4284TIP3   OH234410   5.952   1.084   1.037  0.7201 -0.3765  0.2567
 4284TIP3    H134411   6.035   1.083   0.990  0.9992  2.7238  0.4955
 4284TIP3    H234412   5.969   1.137   1.116 -0.3466 -3.4440  2.7757
 4285TIP3   OH234413   1.859   5.138   6.938  0.2089  0.0757  0.1530
 4285TIP3    H134414   1.856   5.092   6.855 -1.9319  2.4454 -1.2241
 4285TIP3    H234415   1.799   5.090   6.995 -0.7552  0.2460 -0.7163
 4286TIP3   OH234416   6.824   3.529   0.491 -0.0523 -0.4977  0.3565
 4286TIP3    H134417   6.896   3.526   0.553  0.5827  2.7301 -0.0350
 4286TIP3    H234418   6.863   3.560   0.410 -1.9702  3.7814  0.7431
 4287TIP3   OH234419   5.013   4.189   2.104  0.3822  0.2526  0.3407
 4287TIP3    H134420   4.979   4.102   2.082 -2.8858  1.6347 -0.6151
 4287TIP3    H234421   5.010   4.192   2.200  0.7646 -0.7550  0.3932
 4288TIP3   OH234422   4.193   0.275   7.861  0.4675  0.0584  0.4146
 4288TIP3    H134423   4.139   0.228   7.924 -1.4860  1.5982  0.0070
 4288TIP3    H234424   4.283   0.266   7.894 -0.3767  0.0184  2.8774
 4289TIP3   OH234425   4.254   2.100   1.120  0.0316 -0.4519 -1.0978
 4289TIP3    H134426   4.306   2.060   1.050  1.5643 -0.9404  0.2463
 4289TIP3    H234427   4.306   2.175   1.149 -0.2280 -0.6575 -0.0496
 4290TIP3   OH234428   6.698   3.254   7.099 -0.1391  0.0732 -0.5208
 4290TIP3    H134429   6.750   3.190   7.050 -0.6775 -0.7039 -0.0871
 4290TIP3    H234430   6.643   3.296   7.033  1.3154  1.2194 -1.0636
 4291TIP3   OH234431   2.517   6.179   7.035 -0.6893  0.2702 -0.1349
 4291TIP3    H134432   2.577   6.231   7.089  0.5976 -0.2506 -0.9891
 4291TIP3    H234433   2.567   6.163   6.954 -1.2548 -1.7729 -0.1338
 4292TIP3   OH234434   5.440   1.136   0.146  0.0396  0.0917 -0.9308
 4292TIP3    H134435   5.492   1.215   0.134 -0.7136  0.7436 -0.1012
 4292TIP3    H234436   5.361   1.166   0.191  0.2497 -1.2879  0.4752
 4293TIP3   OH234437   3.897   6.562   7.905 -0.4374  0.0091  0.4788
 4293TIP3    H134438   3.960   6.493   7.928  0.0784  0.5899  0.8477
 4293TIP3    H234439   3.910   6.575   7.811  1.5277  1.5808  0.9000
 4294TIP3   OH234440   1.395   3.994   1.434  0.0881 -0.1741 -0.2694
 4294TIP3    H134441   1.443   3.943   1.500 -0.0223  0.5629  0.3941
 4294TIP3    H234442   1.463   4.027   1.375  0.3020  0.0729  0.1122
 4295TIP3   OH234443   0.856   0.453   0.861 -0.0944  0.2719  0.7713
 4295TIP3    H134444   0.852   0.467   0.767 -0.4562  0.6344  0.8371
 4295TIP3    H234445   0.857   0.358   0.872  0.8769  0.2231  0.3696
 4296TIP3   OH234446   2.101   0.438   0.634  0.7253  0.1200 -0.2165
 4296TIP3    H134447   2.185   0.410   0.597  0.0462 -0.1851 -1.6118
 4296TIP3    H234448   2.073   0.510   0.578  0.2089  0.4428  0.4451
 4297TIP3   OH234449   6.243   0.344   8.384 -0.2122 -0.5865  0.1847
 4297TIP3    H134450   6.209   0.310   8.301  0.2719  1.0825 -0.7511
 4297TIP3    H234451   6.164   0.367   8.434 -0.5385 -2.6392  0.7026
 4298TIP3   OH234452   4.199   5.040   0.981  0.1058  0.2308 -0.2062
 4298TIP3    H134453   4.149   5.017   1.059 -0.2576  0.4934 -0.3614
 4298TIP3    H234454   4.157   4.990   0.910 -0.0212  0.5542 -0.3597
 4299TIP3   OH234455   2.501   4.668   6.805 -0.1752  0.2491 -0.0904
 4299TIP3    H134456   2.439   4.597   6.789  0.5265 -0.6706  1.0830
 4299TIP3    H234457   2.486   4.730   6.733  0.2139 -1.7819 -2.0339
 4300TIP3   OH234458   0.738   0.844   6.578 -0.3396 -0.5034  0.1943
 4300TIP3    H134459   0.780   0.772   6.530  0.6884  1.0231 -1.2801
 4300TIP3    H234460   0.681   0.885   6.513  1.8227  2.2238 -0.1373
 4301TIP3   OH234461   6.042   2.918   6.365 -0.0860  0.1682  0.2949
 4301TIP3    H134462   6.039   2.864   6.286 -1.2217 -2.8709  2.2569
 4301TIP3    H234463   6.130   2.957   6.364  0.3874 -0.8154 -1.8028
 4302TIP3   OH234464   1.997   3.725   0.548 -0.2996  0.2535  0.0007
 4302TIP3    H134465   1.965   3.717   0.638 -2.2234  0.1818 -0.6382
 4302TIP3    H234466   1.997   3.819   0.531  1.1791  0.3573  0.4088
 4303TIP3   OH234467   5.980   3.355   0.610  0.0129  0.7324  0.6940
 4303TIP3    H134468   6.001   3.261   0.612 -1.7417  0.2396 -1.1045
 4303TIP3    H234469   5.975   3.380   0.702  0.0516 -1.0460  1.2235
 4304TIP3   OH234470   2.167   2.900   0.942 -0.8260  0.0089 -0.1415
 4304TIP3    H134471   2.215   2.950   0.876 -0.8207  1.7465  1.1204
 4304TIP3    H234472   2.205   2.812   0.937  3.2850  1.4448  1.4070
 4305TIP3   OH234473   3.436   1.987   1.334 -0.3747 -0.2759 -0.2686
 4305TIP3    H134474   3.504   2.044   1.371 -1.2259  1.1027 -0.7715
 4305TIP3    H234475   3.423   1.919   1.400  2.0072 -1.0275 -0.4788
 4306TIP3   OH234476   5.854   6.042   0.921  0.0884  0.1258  0.2370
 4306TIP3    H134477   5.772   6.024   0.968 -0.5006  2.4610  0.2573
 4306TIP3    H234478   5.846   5.995   0.839 -0.1869 -1.6185  1.2186
 4307TIP3   OH234479   5.054   6.002   8.000 -0.6462  0.4124 -0.3504
 4307TIP3    H134480   5.100   5.942   8.059 -0.1902 -0.5166 -1.5956
 4307TIP3    H234481   4.962   5.978   8.009 -0.6606  0.7426  0.4712
 4308TIP3   OH234482   0.068   6.372   6.441 -0.1511 -0.2526 -0.2691
 4308TIP3    H134483   0.145   6.323   6.469 -1.1249 -1.1857  0.8736
 4308TIP3    H234484   0.039   6.328   6.362  0.3679 -0.0020 -0.6096
 4309TIP3   OH234485   2.620   2.097   0.162  1.0241  0.1184  0.1328
 4309TIP3    H134486   2.696   2.125   0.213  0.3285  0.5671  0.9587
 4309TIP3    H234487   2.551   2.160   0.185  0.3640 -0.3537 -0.4959
 4310TIP3   OH234488   2.874   4.731   1.633 -0.3496  0.2304  0.0286
 4310TIP3    H134489   2.942   4.793   1.659  2.0228 -1.7120 -1.1775
 4310TIP3    H234490   2.865   4.671   1.708 -2.0460  1.4377  0.8620
 4311TIP3   OH234491   2.860   3.841   7.363 -0.6686 -0.3941  0.4252
 4311TIP3    H134492   2.951   3.867   7.347 -1.3149  1.0176 -1.3739
 4311TIP3    H234493   2.852   3.754   7.324  0.2070 -1.1360  1.8090
 4312TIP3   OH234494   6.396   2.186   1.910  0.1929 -0.4034  0.3265
 4312TIP3    H134495   6.423   2.119   1.972 -0.3318 -0.3679  0.6059
 4312TIP3    H234496   6.477   2.217   1.870  0.5867 -0.1164  1.3177
 4313TIP3   OH234497   0.933   5.371   0.674 -0.3340 -0.4235  0.0707
 4313TIP3    H134498   0.933   5.442   0.610 -1.2607 -0.6897 -0.2480
 4313TIP3    H234499   0.991   5.401   0.744  0.5752 -0.0709 -0.8209
 4314TIP3   OH234500   3.425   0.293   1.795 -0.0331 -0.0233 -0.3038
 4314TIP3    H134501   3.499   0.285   1.735 -1.5731  0.9473 -2.4492
 4314TIP3    H234502   3.431   0.216   1.851  1.7740 -0.7066 -1.3573
 4315TIP3   OH234503   5.013   2.956   6.920  0.8586 -0.6083  0.5345
 4315TIP3    H134504   5.032   2.866   6.894  1.0168 -0.3067 -0.4405
 4315TIP3    H234505   4.959   2.990   6.848 -1.5237 -0.7523  2.1558
 4316TIP3   OH234506   3.716   4.066   6.774  0.3660 -0.7686 -0.0473
 4316TIP3    H134507   3.666   4.094   6.697 -1.0663  1.3216  1.5254
 4316TIP3    H234508   3.705   3.971   6.777 -2.7127 -0.5227 -0.3665
 4317TIP3   OH234509   3.509   3.944   1.036  0.0881 -0.4790 -0.2140
 4317TIP3    H134510   3.581   3.883   1.021  0.2177 -0.1459 -0.9719
 4317TIP3    H234511   3.432   3.889   1.049 -0.1973 -0.8125 -2.8840
 4318TIP3   OH234512   4.470   3.897   0.588  0.2340 -0.1869 -0.3793
 4318TIP3    H134513   4.473   3.809   0.628  1.6876 -0.6626 -1.4424
 4318TIP3    H234514   4.382   3.905   0.554 -1.0880  0.1973  2.7367
 4319TIP3   OH234515   3.817   5.907   8.330 -0.6305 -0.2821 -0.0575
 4319TIP3    H134516   3.840   5.936   8.419 -1.8289 -1.9010  0.8385
 4319TIP3    H234517   3.850   5.976   8.273 -1.4070  1.7046  1.7729
 4320TIP3   OH234518   3.323   0.368   0.033  0.2227 -0.4451  0.4451
 4320TIP3    H134519   3.399   0.399  -0.018 -0.9194  1.2248 -0.3444
 4320TIP3    H234520   3.356   0.360   0.122  1.3913  0.0208  0.0792
 4321TIP3   OH234521   5.041   3.444   1.960 -0.1951  0.0838  0.0911
 4321TIP3    H134522   5.120   3.469   2.008  0.5919 -2.0828  0.0175
 4321TIP3    H234523   5.021   3.521   1.906  1.5374  0.8875  0.5057
 4322TIP3   OH234524   5.189   2.756   8.077  0.3353  0.3010 -0.3448
 4322TIP3    H134525   5.202   2.821   8.008 -1.8743  0.1443 -0.9780
 4322TIP3    H234526   5.156   2.678   8.032  1.3604 -0.7168  0.6030
 4323TIP3   OH234527   6.074   3.902   1.020  0.4443  0.3034 -0.0241
 4323TIP3    H134528   6.147   3.945   0.975  0.3728  1.1893  0.6856
 4323TIP3    H234529   6.002   3.963   1.012 -0.4973 -0.9161 -1.4379
 4324TIP3   OH234530   6.684   3.640   0.231 -0.4648  0.1735  0.0438
 4324TIP3    H134531   6.664   3.550   0.255  0.5720  0.3767  1.8125
 4324TIP3    H234532   6.777   3.650   0.250  0.1258  0.8589 -2.7168
 4325TIP3   OH234533   5.298   3.373   0.882  0.6997 -0.5282  0.3978
 4325TIP3    H134534   5.304   3.457   0.837  0.0233 -0.3160  0.6871
 4325TIP3    H234535   5.314   3.308   0.813  0.1515 -0.1954 -0.0589
 4326TIP3   OH234536   5.108   1.175   6.335 -0.2725 -0.3222 -0.6400
 4326TIP3    H134537   5.028   1.172   6.388  1.5069  0.4278  2.3598
 4326TIP3    H234538   5.136   1.266   6.339  1.4313 -0.8262 -0.3900
 4327TIP3   OH234539   5.627   6.559   1.735 -0.1298 -0.1622 -0.2584
 4327TIP3    H134540   5.689   6.626   1.706  0.4193 -0.4900  0.1362
 4327TIP3    H234541   5.549   6.608   1.762 -0.2269  0.2265 -1.1841
 4328TIP3   OH234542   0.861   0.999   7.223  0.0410  0.3314 -0.0132
 4328TIP3    H134543   0.925   1.051   7.174 -0.3422  0.2395 -0.6283
 4328TIP3    H234544   0.818   0.945   7.156 -0.9722  0.6968  0.3112
 4329TIP3   OH234545   4.037   6.343   7.138  0.3932 -0.2040  0.4931
 4329TIP3    H134546   4.115   6.396   7.123 -0.5497  0.5162 -2.5576
 4329TIP3    H234547   4.050   6.265   7.083 -0.0012 -1.2517  1.8310
 4330TIP3   OH234548   2.872   2.302   0.962  0.0997  0.0015  0.0878
 4330TIP3    H134549   2.961   2.319   0.933  0.2952 -0.6083  0.3012
 4330TIP3    H234550   2.821   2.377   0.931  0.8655  0.8423  0.8034
 4331TIP3   OH234551   3.712   2.600   6.181 -0.4113 -0.1160  0.3304
 4331TIP3    H134552   3.621   2.590   6.153 -0.6353  0.6881  0.7549
 4331TIP3    H234553   3.748   2.512   6.176 -1.8218 -0.8654  2.2874
 4332TIP3   OH234554   2.002   0.810   8.133  0.3312 -0.2435 -0.3397
 4332TIP3    H134555   1.929   0.840   8.079  0.3028  0.7945  0.2701
 4332TIP3    H234556   1.961   0.765   8.206  0.2543  1.0298  0.4236
 4333TIP3   OH234557   5.567   1.460   0.680  0.0779 -0.7005 -0.1682
 4333TIP3    H134558   5.634   1.407   0.636  1.1660  0.8645 -0.4967
 4333TIP3    H234559   5.530   1.514   0.610 -1.0089 -0.9894  0.1642
 4334TIP3   OH234560   3.957   2.117   7.981  0.1354  0.1723  0.1662
 4334TIP3    H134561   4.014   2.194   7.983  1.4269 -0.6439 -1.9900
 4334TIP3    H234562   4.016   2.044   7.965 -1.3694 -0.9052 -0.7230
 4335TIP3   OH234563   4.978   3.346   6.953  0.2015  0.1447  0.3049
 4335TIP3    H134564   4.931   3.406   7.011 -0.6627  0.1589 -0.3857
 4335TIP3    H234565   4.916   3.274   6.939  0.8187 -0.3844  0.2715
 4336TIP3   OH234566   4.195   2.922   6.934 -0.3415 -0.0932 -0.4027
 4336TIP3    H134567   4.230   2.932   7.023 -0.3312 -0.6639 -0.3409
 4336TIP3    H234568   4.241   2.846   6.898  0.5719  0.8624 -1.3527
 4337TIP3   OH234569   0.911   4.526   7.247 -0.1246 -0.7394 -0.2165
 4337TIP3    H134570   0.912   4.570   7.332 -0.5854  1.3275 -1.2184
 4337TIP3    H234571   0.999   4.541   7.211 -1.1555  2.2926 -1.8781
 4338TIP3   OH234572   6.670   0.572   0.688  0.0711  0.0128 -0.0900
 4338TIP3    H134573   6.758   0.593   0.718  1.7304 -0.5153 -3.9545
 4338TIP3    H234574   6.647   0.642   0.626 -2.5096  0.4084  1.1612
 4339TIP3   OH234575   2.517   5.436   2.029 -0.3454 -0.1538  0.7162
 4339TIP3    H134576   2.444   5.389   1.991 -0.5209  0.6618 -0.0016
 4339TIP3    H234577   2.584   5.370   2.044 -0.9099 -0.7635  0.5711
 4340TIP3   OH234578   5.336   5.839   0.091 -0.4195 -0.5692 -0.6546
 4340TIP3    H134579   5.269   5.896   0.128 -2.0198 -2.5761 -0.2918
 4340TIP3    H234580   5.413   5.895   0.081 -1.7240  1.4673  0.2189
 4341TIP3   OH234581   1.278   3.945   7.181  0.2699  0.4307 -0.0451
 4341TIP3    H134582   1.259   3.878   7.246 -1.4350  1.4633  0.5866
 4341TIP3    H234583   1.330   3.900   7.114 -2.1973 -2.0179 -0.5040
 4342TIP3   OH234584   6.820   0.129   0.651  0.2102  0.1697 -0.3687
 4342TIP3    H134585   6.878   0.075   0.598  0.5621  0.8232 -0.6588
 4342TIP3    H234586   6.802   0.206   0.597  0.2863  0.6821  0.3091
 4343TIP3   OH234587   1.355   2.082   1.215  0.1439  0.6689  0.0002
 4343TIP3    H134588   1.439   2.071   1.257  0.2533 -0.7229 -0.5374
 4343TIP3    H234589   1.337   2.176   1.222  1.7347  0.9943  0.1029
 4344TIP3   OH234590   1.284   0.331   0.244 -0.2111  0.1430 -0.1241
 4344TIP3    H134591   1.304   0.287   0.327  0.2865 -0.7009 -0.6786
 4344TIP3    H234592   1.367   0.336   0.198 -0.6575 -0.3477 -1.0152
 4345TIP3   OH234593   4.782   1.343   7.212 -0.4809  0.6400 -0.1526
 4345TIP3    H134594   4.722   1.279   7.251  1.2108 -0.2143  1.1600
 4345TIP3    H234595   4.739   1.427   7.224 -1.8381 -0.0222 -0.1197
 4346TIP3   OH234596   1.909   1.213   6.059 -0.0966  0.3405  0.0775
 4346TIP3    H134597   1.881   1.293   6.014  0.0157 -0.2963 -1.1948
 4346TIP3    H234598   1.856   1.209   6.138 -1.6593  0.5684 -0.9267
 4347TIP3   OH234599   4.371   0.414   0.919  0.3479  0.3411  0.2863
 4347TIP3    H134600   4.292   0.360   0.913  1.1438 -0.6642 -2.2696
 4347TIP3    H234601   4.432   0.359   0.968  0.2527  0.0785  0.1157
 4348TIP3   OH234602   3.875   2.322   7.592 -0.0636  0.6289 -0.0386
 4348TIP3    H134603   3.848   2.374   7.667  4.3535  2.3343  0.7029
 4348TIP3    H234604   3.829   2.361   7.518 -2.1938  0.8831  1.3276
 4349TIP3   OH234605   2.875   2.521   7.620 -0.3163  0.1153 -0.3819
 4349TIP3    H134606   2.782   2.541   7.610  0.2350  1.8869 -3.0585
 4349TIP3    H234607   2.912   2.601   7.657  0.5139  0.5636 -2.0795
 4350TIP3   OH234608   3.048   2.503   8.209  0.2657  0.4265  0.5471
 4350TIP3    H134609   3.053   2.412   8.181  0.6844  0.9113 -1.0756
 4350TIP3    H234610   3.079   2.502   8.300  2.1419 -0.8002 -0.0455
 4351TIP3   OH234611   4.963   4.303   7.417 -0.2871 -0.1740 -0.4807
 4351TIP3    H134612   4.895   4.271   7.357 -1.8915  1.1153  0.5685
 4351TIP3    H234613   4.946   4.258   7.499  0.2719 -0.0046 -0.2679
 4352TIP3   OH234614   5.416   0.542   6.631 -0.2439  0.4354 -0.0010
 4352TIP3    H134615   5.466   0.615   6.595  1.8212 -1.4859 -1.2632
 4352TIP3    H234616   5.351   0.522   6.564  0.9107 -0.5224 -0.8586
 4353TIP3   OH234617   6.291   6.040   1.066  0.4215  0.5255 -0.0280
 4353TIP3    H134618   6.221   6.091   1.024  0.1870 -0.2972 -0.6654
 4353TIP3    H234619   6.271   6.044   1.160 -0.7102  0.0024 -0.2243
 4354TIP3   OH234620   4.676   5.495   1.261  0.4114 -0.0640 -0.1365
 4354TIP3    H134621   4.692   5.477   1.353 -0.8104  2.2609  0.5899
 4354TIP3    H234622   4.763   5.513   1.224  0.6304  2.2667  1.3646
 4355TIP3   OH234623   5.255   0.618   1.278 -0.2236 -0.7853  0.1406
 4355TIP3    H134624   5.185   0.575   1.229 -0.1817 -1.8371  0.9800
 4355TIP3    H234625   5.238   0.596   1.370  0.5280 -0.0604  0.4693
 4356TIP3   OH234626   1.040   3.382   6.778 -0.8978 -0.1864 -0.1560
 4356TIP3    H134627   0.971   3.333   6.735 -0.7348  0.2554 -0.9466
 4356TIP3    H234628   1.109   3.391   6.711 -1.3109  1.9099 -0.3797
 4357TIP3   OH234629   5.126   3.866   8.368 -0.2511 -0.1995  0.5425
 4357TIP3    H134630   5.164   3.851   8.282  1.1141  1.6645  0.7463
 4357TIP3    H234631   5.084   3.952   8.361 -1.6639 -0.7905  1.2702
 4358TIP3   OH234632   1.904   6.887   6.979  0.2781  0.8503 -0.1873
 4358TIP3    H134633   1.990   6.847   6.966  0.6389  1.8485 -1.0078
 4358TIP3    H234634   1.846   6.838   6.921 -0.0524 -0.7736  1.4123
 4359TIP3   OH234635   2.043   4.285   7.893  0.3569 -0.0077 -0.8995
 4359TIP3    H134636   2.038   4.210   7.952  0.3152 -0.4810 -1.4904
 4359TIP3    H234637   1.960   4.284   7.846  0.7506 -0.1916 -1.6140
 4360TIP3   OH234638   2.772   5.956   0.032 -0.5203  0.3019  0.0661
 4360TIP3    H134639   2.770   5.887   0.098  1.7106  1.5036  1.5009
 4360TIP3    H234640   2.732   6.032   0.075  0.5673  0.9814 -0.1004
 4361TIP3   OH234641   3.356   4.265   7.738  0.0452  0.2115  0.5353
 4361TIP3    H134642   3.279   4.212   7.758  0.7012 -0.4534  1.3581
 4361TIP3    H234643   3.421   4.240   7.804  0.5945  1.5778  0.5436
 4362TIP3   OH234644   2.540   1.726   0.964  0.0521 -0.0420  0.6726
 4362TIP3    H134645   2.515   1.796   1.025  0.1957  0.4001  0.2340
 4362TIP3    H234646   2.574   1.657   1.020 -1.9741 -0.6154  1.2954
 4363TIP3   OH234647   4.897   3.767   8.494 -0.5722  0.5997  0.2896
 4363TIP3    H134648   4.842   3.733   8.424  1.5451 -0.3781 -0.9968
 4363TIP3    H234649   4.984   3.776   8.454  0.7542 -0.1193  2.7875
 4364TIP3   OH234650   1.222   0.957   8.353 -0.1923 -0.2717  0.1035
 4364TIP3    H134651   1.185   0.977   8.267  1.1877  0.9323 -0.2469
 4364TIP3    H234652   1.149   0.969   8.414 -1.2010 -1.1759 -0.8715
 4365TIP3   OH234653   3.993   3.116   0.743 -0.1743 -0.0388  0.1705
 4365TIP3    H134654   4.016   3.208   0.730 -4.1864  1.7355  3.1952
 4365TIP3    H234655   4.004   3.102   0.837 -1.9899 -1.7933  0.1930
 4366TIP3   OH234656   4.944   5.570   1.150 -0.3316  0.1240 -0.1582
 4366TIP3    H134657   5.026   5.580   1.101  0.0571 -1.2572  0.1796
 4366TIP3    H234658   4.922   5.660   1.177  1.0868  0.5246 -0.2253
 4367TIP3   OH234659   0.343   3.383   7.893 -0.0979  0.3242  0.0230
 4367TIP3    H134660   0.405   3.439   7.940 -0.8597  1.2014  0.0185
 4367TIP3    H234661   0.285   3.445   7.849  0.1861 -0.4683 -1.5480
 4368TIP3   OH234662   0.124   2.210   0.918  0.0395  0.2395  0.2169
 4368TIP3    H134663   0.077   2.145   0.968  0.9869 -0.2788  0.4646
 4368TIP3    H234664   0.115   2.182   0.827  1.3719 -0.8884  0.4075
 4369TIP3   OH234665   3.940   5.784   7.251 -0.1495  0.3197 -0.3962
 4369TIP3    H134666   3.873   5.825   7.305 -0.0810  2.7427 -2.0098
 4369TIP3    H234667   4.019   5.836   7.266  0.6977 -0.8773 -0.5173
 4370TIP3   OH234668   6.375   0.849   5.751  0.1739  0.3533 -0.4522
 4370TIP3    H134669   6.448   0.840   5.689  0.1165  1.3007 -0.6729
 4370TIP3    H234670   6.416   0.842   5.837  0.3622 -0.2287 -0.5845
 4371TIP3   OH234671   5.839   2.501   1.829  0.3428  0.0456 -0.2746
 4371TIP3    H134672   5.827   2.544   1.913 -1.1792 -0.3586 -0.2498
 4371TIP3    H234673   5.932   2.479   1.826  0.3654 -0.2303  1.4467
 4372TIP3   OH234674   4.809   6.602   2.629 -0.1461  0.2047  0.1297
 4372TIP3    H134675   4.802   6.507   2.629  0.1009  0.1874  0.6806
 4372TIP3    H234676   4.741   6.631   2.690 -0.2165  0.3825 -0.0331
 4373TIP3   OH234677   2.480   0.080   7.330  0.1414  0.2967 -0.1677
 4373TIP3    H134678   2.442   0.001   7.368  0.3205 -0.5108 -1.5908
 4373TIP3    H234679   2.518   0.051   7.247  0.4347  1.8349 -0.6042
 4374TIP3   OH234680   6.203   4.983   1.328  0.1925 -0.0997 -0.0823
 4374TIP3    H134681   6.295   4.986   1.356  0.6449  1.4127 -1.5750
 4374TIP3    H234682   6.160   4.930   1.395  1.9556  0.0014  1.2238
 4375TIP3   OH234683   2.368   4.657   1.383 -0.2586  0.3816 -0.0177
 4375TIP3    H134684   2.322   4.613   1.455  0.5347 -0.4764 -0.0272
 4375TIP3    H234685   2.441   4.599   1.361  0.7557  1.6547 -0.1104
 4376TIP3   OH234686   4.945   0.347   0.949  0.3120 -0.2065  0.5337
 4376TIP3    H134687   4.866   0.365   0.898  0.7465  0.1736 -0.0234
 4376TIP3    H234688   4.978   0.264   0.914  0.0022 -0.5130  0.9661
 4377TIP3   OH234689   3.780   4.173   8.271 -0.1232 -0.3015 -0.1614
 4377TIP3    H134690   3.812   4.238   8.333 -1.3168  2.5280 -2.2582
 4377TIP3    H234691   3.858   4.136   8.231  0.6098  1.0941 -0.0635
 4378TIP3   OH234692   1.771   4.953   6.253  0.1944  0.1754 -0.7004
 4378TIP3    H134693   1.688   4.906   6.260  0.3397 -0.2433 -1.7328
 4378TIP3    H234694   1.775   4.984   6.163 -0.5538  3.4340  0.2522
 4379TIP3   OH234695   1.577   0.544   7.776  0.3288 -0.1594  0.4260
 4379TIP3    H134696   1.529   0.552   7.693  1.6908 -1.4838 -0.5302
 4379TIP3    H234697   1.663   0.582   7.757  0.2569  0.6333  1.6174
 4380TIP3   OH234698   1.155   2.002   5.833 -0.3987 -0.3169  0.0409
 4380TIP3    H134699   1.177   1.909   5.831 -0.4968 -0.3285 -1.2124
 4380TIP3    H234700   1.091   2.014   5.763  0.4412  0.8882 -0.5600
 4381TIP3   OH234701   6.696   6.759   0.332 -0.0290  0.0575 -0.0362
 4381TIP3    H134702   6.650   6.727   0.410  0.6763 -3.3565 -0.8440
 4381TIP3    H234703   6.628   6.800   0.279 -1.5965 -2.1057  0.1665
 4382TIP3   OH234704   5.443   6.759   6.383  0.1435  0.1079  0.4276
 4382TIP3    H134705   5.425   6.810   6.304 -1.4645  1.5446  1.6582
 4382TIP3    H234706   5.532   6.725   6.370  1.1465  2.8556 -0.6842
 4383TIP3   OH234707   4.487   0.427   6.896 -0.1215  0.2963  0.5700
 4383TIP3    H134708   4.475   0.375   6.976 -1.8103  2.6512  1.9578
 4383TIP3    H234709   4.568   0.476   6.911  0.4254 -0.4445  0.1035
 4384TIP3   OH234710   1.951   2.017   8.050  0.2978 -0.1339  0.1170
 4384TIP3    H134711   1.922   2.019   7.959  0.9314  0.1881 -0.0795
 4384TIP3    H234712   1.879   1.975   8.097 -1.7321  2.9050  0.0670
 4385TIP3   OH234713   0.652   5.819   8.222  0.2671 -0.4386  0.0705
 4385TIP3    H134714   0.561   5.797   8.203  0.3564 -2.2707  1.5187
 4385TIP3    H234715   0.654   5.915   8.220 -1.2219 -0.3771 -1.9033
 4386TIP3   OH234716   0.076   2.612   0.405  0.1110  0.0742  0.2094
 4386TIP3    H134717   0.107   2.548   0.469 -0.0137  0.2549  0.4515
 4386TIP3    H234718   0.156   2.644   0.363  0.2411  0.3611  0.6638
 4387TIP3   OH234719   4.267   3.293   7.223 -0.4748 -0.2963  0.2739
 4387TIP3    H134720   4.284   3.199   7.220 -0.9209 -0.3872  0.4354
 4387TIP3    H234721   4.272   3.315   7.316  0.0808 -0.0728  0.1912
 4388TIP3   OH234722   1.247   0.250   7.559 -0.1378 -0.3184  0.4042
 4388TIP3    H134723   1.223   0.284   7.472 -1.4081  1.0194  1.2055
 4388TIP3    H234724   1.206   0.164   7.563 -0.3054 -0.2765 -0.2318
 4389TIP3   OH234725   5.648   5.392   6.529 -0.0600 -0.6486 -0.0381
 4389TIP3    H134726   5.626   5.441   6.450  0.0425  0.2924  0.5078
 4389TIP3    H234727   5.704   5.451   6.580 -1.6917 -0.4444  1.6388
 4390TIP3   OH234728   4.426   1.344   0.039 -0.5984  0.2882 -0.2268
 4390TIP3    H134729   4.372   1.289   0.096  0.4343 -0.2531  0.2764
 4390TIP3    H234730   4.462   1.411   0.097 -1.6337  1.3513 -0.7848
 4391TIP3   OH234731   3.700   5.251   0.373  0.1270 -0.0302 -0.8843
 4391TIP3    H134732   3.618   5.298   0.354  0.2597  1.2461  1.2290
 4391TIP3    H234733   3.704   5.251   0.469  2.3716 -0.4818 -0.9386
 4392TIP3   OH234734   0.348   2.398   0.024 -0.0489 -0.2848 -0.1171
 4392TIP3    H134735   0.396   2.315   0.021  0.4629 -0.1440  2.3301
 4392TIP3    H234736   0.263   2.375   0.062  0.2657  0.3267  1.0224
 4393TIP3   OH234737   2.579   0.091   1.344 -0.3753 -0.1657  0.1808
 4393TIP3    H134738   2.643   0.045   1.399  2.4059  0.1886 -2.4782
 4393TIP3    H234739   2.620   0.175   1.324 -2.3914  0.7333 -0.4726
 4394TIP3   OH234740   3.899   1.867   1.402  0.5851  0.6325  0.2030
 4394TIP3    H134741   3.852   1.912   1.473 -0.0533 -2.0313  1.6355
 4394TIP3    H234742   3.916   1.779   1.437 -0.4092 -1.0959 -3.2083
 4395TIP3   OH234743   1.371   6.337   7.488 -0.5278 -0.1771 -0.3152
 4395TIP3    H134744   1.345   6.429   7.496  1.9688  0.8622 -2.5033
 4395TIP3    H234745   1.433   6.323   7.559  0.7476  0.5779 -1.2280
 4396TIP3   OH234746   2.294   3.938   1.065 -0.2440 -0.4724 -0.0395
 4396TIP3    H134747   2.291   3.978   1.151 -1.1182 -0.9658  0.1692
 4396TIP3    H234748   2.377   3.967   1.027  0.0072 -0.0251  0.8509
 4397TIP3   OH234749   4.928   1.379   0.838 -0.2512 -0.2576  0.1194
 4397TIP3    H134750   5.019   1.357   0.859 -0.0685  0.3386 -0.0244
 4397TIP3    H234751   4.928   1.474   0.831 -0.7901 -0.2899 -0.3460
 4398TIP3   OH234752   0.885   4.004   7.152  0.5592  0.6879  0.1430
 4398TIP3    H134753   0.957   3.961   7.106  0.1836  0.4656 -0.2532
 4398TIP3    H234754   0.824   4.028   7.082 -0.7807 -1.0725  0.6263
 4399TIP3   OH234755   0.463   1.850   7.388  0.1287  0.0856 -0.8370
 4399TIP3    H134756   0.374   1.817   7.375  0.6688 -0.7979 -2.6010
 4399TIP3    H234757   0.496   1.801   7.463  0.2384 -2.0752 -2.2084
 4400TIP3   OH234758   2.186   2.248   0.966 -0.6978  0.0786  0.4578
 4400TIP3    H134759   2.270   2.290   0.948 -0.5179 -0.7839 -0.8244
 4400TIP3    H234760   2.143   2.242   0.881 -1.3886 -0.9152  0.8593
 4401TIP3   OH234761   3.069   2.697   7.193  0.0275  0.0618  0.0430
 4401TIP3    H134762   2.992   2.676   7.140 -0.1174  2.6578 -0.9354
 4401TIP3    H234763   3.143   2.691   7.133  0.3350 -0.4516  0.4656
 4402TIP3   OH234764   5.244   1.094   1.637  0.4850  0.2066 -0.0857
 4402TIP3    H134765   5.304   1.095   1.711  1.9832 -1.2915 -1.1984
 4402TIP3    H234766   5.283   1.154   1.573 -0.6012  1.2033  0.1459
 4403TIP3   OH234767   6.205   2.093   0.532 -0.7541 -0.7213 -0.3746
 4403TIP3    H134768   6.110   2.095   0.525 -0.7879  0.2787  0.0727
 4403TIP3    H234769   6.225   2.162   0.597  0.2777 -0.7485 -0.6508
 4404TIP3   OH234770   2.226   6.575   0.989 -0.3280  0.2902 -0.0590
 4404TIP3    H134771   2.131   6.583   0.981 -0.4118 -1.6119 -1.6533
 4404TIP3    H234772   2.243   6.586   1.082 -1.9777  1.7104  0.1191
 4405TIP3   OH234773   4.807   2.540   7.848 -0.0749  0.5732 -0.0170
 4405TIP3    H134774   4.772   2.463   7.804  2.6717 -0.1919 -1.1132
 4405TIP3    H234775   4.859   2.504   7.920 -1.2891  1.6279  1.4475
 4406TIP3   OH234776   3.290   4.501   6.924 -0.0565  0.1380 -0.1951
 4406TIP3    H134777   3.205   4.510   6.880 -0.3521 -0.5837  0.2090
 4406TIP3    H234778   3.283   4.419   6.973 -0.1110  1.3872  2.0126
 4407TIP3   OH234779   1.600   3.694   1.819 -0.7180 -0.4457 -0.2630
 4407TIP3    H134780   1.519   3.707   1.869 -0.4794 -0.9524  0.2593
 4407TIP3    H234781   1.616   3.600   1.822  0.7210 -0.1830  0.9608
 4408TIP3   OH234782   2.553   6.659   0.599  0.0783 -0.3663 -0.0824
 4408TIP3    H134783   2.560   6.718   0.673 -0.9224  1.1905 -1.1626
 4408TIP3    H234784   2.470   6.613   0.612 -0.0867 -0.1087 -0.2050
 4409TIP3   OH234785   3.819   6.147   2.501  0.1542 -0.1910 -0.1508
 4409TIP3    H134786   3.768   6.179   2.427 -0.8905 -1.7520 -0.1550
 4409TIP3    H234787   3.755   6.130   2.570  0.7698 -1.2688  0.1859
 4410TIP3   OH234788   2.856   6.779   2.018  0.3444  0.3352 -0.5537
 4410TIP3    H134789   2.795   6.781   2.091  0.8018  0.2567 -0.1681
 4410TIP3    H234790   2.819   6.840   1.954 -0.7802 -0.6229 -0.8526
 4411TIP3   OH234791   5.717   0.790   0.314 -0.6580 -0.1098 -0.8868
 4411TIP3    H134792   5.664   0.855   0.361  2.6352  1.0049  1.7066
 4411TIP3    H234793   5.694   0.706   0.353 -1.4833  0.1356 -0.8307
 4412TIP3   OH234794   2.774   3.505   0.610 -0.3049 -0.2765  0.2195
 4412TIP3    H134795   2.753   3.437   0.546  0.7326 -0.0568 -0.3857
 4412TIP3    H234796   2.719   3.485   0.686 -0.7241 -1.2121 -0.3146
 4413TIP3   OH234797   2.775   6.567   7.544 -0.3999  0.5584  0.1993
 4413TIP3    H134798   2.718   6.491   7.556  0.4888  0.1323  2.1946
 4413TIP3    H234799   2.768   6.589   7.451 -0.9298 -1.7468 -0.3552
 4414TIP3   OH234800   0.147   5.333   7.458  0.1659 -0.4962  0.3305
 4414TIP3    H134801   0.164   5.403   7.520  1.1243 -0.7187  0.3331
 4414TIP3    H234802   0.138   5.255   7.512 -2.5392 -0.1761  0.4866
 4415TIP3   OH234803   2.618   4.693   8.496 -0.2067  0.0633 -0.1444
 4415TIP3    H134804   2.616   4.605   8.457  0.9095 -0.4083  0.7886
 4415TIP3    H234805   2.534   4.701   8.541 -1.6512  0.7298 -2.7675
 4416TIP3   OH234806   6.087   0.177   1.187 -0.8998  0.8817  0.4202
 4416TIP3    H134807   6.164   0.233   1.183 -1.5650  1.7665 -0.3307
 4416TIP3    H234808   6.100   0.124   1.266  1.4834 -0.5024 -0.7923
 4417TIP3   OH234809   3.836   4.927   8.286 -0.1172  0.1032 -0.2916
 4417TIP3    H134810   3.864   4.856   8.343 -0.9490  0.0070  0.0192
 4417TIP3    H234811   3.789   4.987   8.343 -0.7067  0.1548 -0.8155
 4418TIP3   OH234812   6.539   1.623   7.644 -0.5300 -0.4705  0.0756
 4418TIP3    H134813   6.588   1.541   7.630  0.8537  0.0216  1.7873
 4418TIP3    H234814   6.559   1.648   7.734 -0.6257  1.9493 -0.5153
 4419TIP3   OH234815   1.104   2.312   8.162  0.1187  0.1075 -0.0616
 4419TIP3    H134816   1.095   2.261   8.243  1.4186  2.5640  1.7542
 4419TIP3    H234817   1.143   2.251   8.100 -0.6792 -1.7949  1.1923
 4420TIP3   OH234818   4.436   6.726   0.097 -0.4665  0.3036  0.2471
 4420TIP3    H134819   4.384   6.674   0.036 -0.7630  0.1621  0.6155
 4420TIP3    H234820   4.394   6.812   0.098  0.3072  0.7123 -0.7264
 4421TIP3   OH234821   5.813   0.042   7.712  0.5925 -0.3329  0.8150
 4421TIP3    H134822   5.759  -0.037   7.717  0.4526 -0.3646 -0.6028
 4421TIP3    H234823   5.890   0.015   7.662  2.0177 -0.3134  2.8741
 4422TIP3   OH234824   5.869   5.656   0.065  0.2132 -0.8531 -0.2571
 4422TIP3    H134825   5.946   5.709   0.084  0.0535 -0.9081  0.5963
 4422TIP3    H234826   5.801   5.720   0.041  0.5409 -0.8126 -1.1235
 4423TIP3   OH234827   1.517   1.763   6.267  0.2663 -0.1974 -0.1130
 4423TIP3    H134828   1.584   1.825   6.297 -1.2998  1.3380  0.3842
 4423TIP3    H234829   1.563   1.708   6.203  1.4718  2.3195 -1.5778
 4424TIP3   OH234830   4.577   5.109   1.822 -0.2652  0.2189  0.3349
 4424TIP3    H134831   4.562   5.172   1.751 -0.9570 -1.2131 -0.8421
 4424TIP3    H234832   4.625   5.159   1.888 -0.3701  1.8463 -0.7528
 4425TIP3   OH234833   0.374   0.007   0.725 -0.0183 -0.2070 -0.1062
 4425TIP3    H134834   0.316   0.000   0.801  1.2945 -1.2561  0.8612
 4425TIP3    H234835   0.380   0.101   0.707 -2.5832 -0.1013 -0.7451
 4426TIP3   OH234836   5.581   5.144   0.395 -0.7611 -0.0546  0.0155
 4426TIP3    H134837   5.636   5.181   0.464  0.8635 -1.1567 -0.6172
 4426TIP3    H234838   5.589   5.206   0.323 -0.6046 -0.0544  0.0330
 4427TIP3   OH234839   0.655   5.124   6.407 -0.2220  0.8527  0.0185
 4427TIP3    H134840   0.716   5.096   6.339 -0.9810 -1.8783  0.3806
 4427TIP3    H234841   0.582   5.164   6.360 -1.3415 -2.1254 -0.9914
 4428TIP3   OH234842   1.926   0.894   0.215 -0.0908  0.2326 -0.3181
 4428TIP3    H134843   1.925   0.900   0.120 -3.0885  0.2687 -0.3751
 4428TIP3    H234844   1.942   0.801   0.233 -0.0976  0.1141 -0.8999
 4429TIP3   OH234845   4.343   6.261   1.863  1.1191 -0.0884 -0.4534
 4429TIP3    H134846   4.365   6.343   1.908 -0.5113  0.3863 -0.4723
 4429TIP3    H234847   4.424   6.210   1.868  1.7960  1.0040  0.6797
 4430TIP3   OH234848   4.294   5.887   0.067  0.4113  0.6993 -0.1135
 4430TIP3    H134849   4.328   5.851   0.148  1.9403  2.4305  0.0849
 4430TIP3    H234850   4.262   5.974   0.090  0.4017  1.0212 -1.2450
 4431TIP3   OH234851   5.062   0.094   0.327  0.6332  0.2574  0.4790
 4431TIP3    H134852   5.042   0.010   0.284 -0.0515  0.6484  0.0217
 4431TIP3    H234853   5.104   0.069   0.409  0.5850 -0.5329  0.2743
 4432TIP3   OH234854   0.652   2.323   8.407 -0.6064  0.5079 -0.2434
 4432TIP3    H134855   0.726   2.311   8.346  0.1822 -1.3297  0.9952
 4432TIP3    H234856   0.603   2.242   8.400  1.7145 -1.6421  4.3470
 4433TIP3   OH234857   4.641   1.739   6.068  0.0597 -0.7649 -0.1157
 4433TIP3    H134858   4.708   1.757   6.002  0.3214  1.2218  0.6412
 4433TIP3    H234859   4.575   1.807   6.054  0.5042  0.2103  2.1516
 4434TIP3   OH234860   4.442   6.704   1.278  0.1609 -0.1902  0.3339
 4434TIP3    H134861   4.427   6.683   1.186  1.1335 -1.4123  0.4281
 4434TIP3    H234862   4.446   6.799   1.280 -1.2978 -0.0770 -0.6425
 4435TIP3   OH234863   1.564   4.969   2.395  0.3149  0.3565  1.1087
 4435TIP3    H134864   1.619   5.046   2.377  0.5257 -0.3150 -1.5266
 4435TIP3    H234865   1.542   4.977   2.488  1.0167  3.1442  1.1412
 4436TIP3   OH234866   5.417   0.402   7.592  0.2979 -0.3515 -0.6388
 4436TIP3    H134867   5.445   0.318   7.627  3.2932  1.2461  1.2119
 4436TIP3    H234868   5.346   0.430   7.649 -0.9218 -1.6647 -1.4456
 4437TIP3   OH234869   1.334   1.630   6.703  0.0028 -0.2295  0.0483
 4437TIP3    H134870   1.269   1.559   6.709 -1.0590  0.6947 -0.0629
 4437TIP3    H234871   1.349   1.640   6.609  0.8470 -0.8992  0.1033
 4438TIP3   OH234872   5.488   3.576   7.904 -0.2499 -0.2493 -0.4683
 4438TIP3    H134873   5.564   3.524   7.878  0.7249 -0.2170  2.0498
 4438TIP3    H234874   5.524   3.663   7.922 -1.1969  0.2318 -0.8397
 4439TIP3   OH234875   1.653   4.055   0.348  0.1219  0.2082  0.0616
 4439TIP3    H134876   1.628   3.966   0.374  1.1762 -0.3481 -0.7410
 4439TIP3    H234877   1.741   4.045   0.312  0.1513  1.5488 -0.2743
 4440TIP3   OH234878   2.504   0.079   6.860 -0.5185 -0.0683  0.3060
 4440TIP3    H134879   2.484   0.010   6.796  1.0916 -1.2809  1.0334
 4440TIP3    H234880   2.540   0.150   6.808  1.2637 -1.2367 -0.1612
 4441TIP3   OH234881   0.245   5.642   2.411  0.2037 -0.1057 -0.0426
 4441TIP3    H134882   0.215   5.575   2.473  1.1573 -0.7762 -0.2866
 4441TIP3    H234883   0.324   5.678   2.451  1.5242 -1.3886 -1.3834
 4442TIP3   OH234884   4.753   1.187   7.984 -0.0904 -0.0640 -0.1589
 4442TIP3    H134885   4.742   1.260   8.045 -0.1977 -0.1768 -0.0424
 4442TIP3    H234886   4.686   1.124   8.010 -0.6073  0.1910 -0.8437
 4443TIP3   OH234887   5.394   0.187   7.237  0.1338 -0.1806 -0.0024
 4443TIP3    H134888   5.349   0.132   7.173 -0.7624 -0.9407  1.2151
 4443TIP3    H234889   5.369   0.149   7.322 -0.3824  2.0101  0.8986
 4444TIP3   OH234890   2.534   1.850   6.871  0.2255 -0.1530  0.2838
 4444TIP3    H134891   2.621   1.861   6.911  0.5076  0.7859 -0.5558
 4444TIP3    H234892   2.504   1.940   6.853 -1.2591 -0.4216  1.2533
 4445TIP3   OH234893   6.154   0.337   7.966  0.7389 -0.0247  0.3617
 4445TIP3    H134894   6.195   0.424   7.963  1.1833 -0.2356  0.3154
 4445TIP3    H234895   6.073   0.352   8.014  1.8466  0.0132  2.3461
 4446TIP3   OH234896   0.216   3.298   8.488 -0.2818  0.6016 -0.0456
 4446TIP3    H134897   0.230   3.206   8.511 -0.1603  0.3574 -1.0658
 4446TIP3    H234898   0.242   3.304   8.396 -0.4728  1.6150 -0.0398
 4447TIP3   OH234899   5.856   0.540   7.790 -0.4560 -0.0671 -0.1279
 4447TIP3    H134900   5.801   0.469   7.758 -1.1216  0.6835 -0.6932
 4447TIP3    H234901   5.892   0.507   7.873 -0.3352 -1.2462 -0.6337
 4448TIP3   OH234902   3.211   6.752   1.872  0.6441 -0.1845  0.2674
 4448TIP3    H134903   3.306   6.760   1.886  0.5049  1.3450  0.5627
 4448TIP3    H234904   3.179   6.842   1.877 -0.6241 -0.4951 -1.4079
 4449TIP3   OH234905   1.964   6.678   8.155  0.1316  0.1994 -0.6856
 4449TIP3    H134906   1.965   6.617   8.081 -2.8514  0.8041 -1.3288
 4449TIP3    H234907   1.881   6.661   8.200  0.8788  1.3460  1.2701
 4450TIP3   OH234908   3.227   3.797   0.004  0.2333 -0.5809  0.1839
 4450TIP3    H134909   3.298   3.817   0.065  0.6887 -1.1089 -0.1663
 4450TIP3    H234910   3.175   3.877   0.002  1.4134  0.2023 -0.3723
 4451TIP3   OH234911   4.732   0.529   0.237 -0.1566  0.3238  0.2057
 4451TIP3    H134912   4.796   0.574   0.292  0.8472  1.1533 -1.5610
 4451TIP3    H234913   4.685   0.599   0.193 -1.4971 -0.3145  0.5615
 4452TIP3   OH234914   0.472   0.194   0.153  0.5155  0.2530  0.6395
 4452TIP3    H134915   0.548   0.142   0.180 -0.2514 -2.1676 -1.4109
 4452TIP3    H234916   0.509   0.270   0.108  1.6948  0.2680  1.5882
 4453TIP3   OH234917   4.108   3.354   1.561  0.5208 -0.6863  0.1858
 4453TIP3    H134918   4.165   3.427   1.537 -0.6769 -0.0072 -0.6418
 4453TIP3    H234919   4.133   3.334   1.652  1.9255 -0.2874 -0.0818
 4454TIP3   OH234920   0.837   3.671   7.183 -0.1400 -0.2986 -0.2091
 4454TIP3    H134921   0.815   3.588   7.225 -0.0683  0.0191  0.4648
 4454TIP3    H234922   0.933   3.672   7.181 -0.0703  0.5372  1.4019
 4455TIP3   OH234923   5.754   1.152   7.062 -0.1560 -0.6162  0.0192
 4455TIP3    H134924   5.790   1.099   7.134  0.8308  0.7145  0.5593
 4455TIP3    H234925   5.826   1.158   6.999 -1.0897 -1.9702 -1.2436
 4456TIP3   OH234926   3.396   2.929   7.123  0.1330  0.2778 -0.2794
 4456TIP3    H134927   3.386   2.894   7.034  0.0046 -1.1128  0.2573
 4456TIP3    H234928   3.341   3.007   7.124  0.8413  0.8228 -1.6847
 4457TIP3   OH234929   3.808   6.661   0.544  0.3710 -0.3992  0.3270
 4457TIP3    H134930   3.886   6.687   0.593  0.7151  1.4903 -1.0964
 4457TIP3    H234931   3.826   6.686   0.454 -2.6450  2.2140  0.2552
 4458TIP3   OH234932   6.437   5.535   2.196 -0.2255  0.2332  0.5033
 4458TIP3    H134933   6.366   5.486   2.154 -0.5364  1.5878 -0.6416
 4458TIP3    H234934   6.497   5.557   2.124  1.4323 -0.9387  1.4578
 4459TIP3   OH234935   6.876   6.434   7.398 -0.0669 -0.2232  0.0929
 4459TIP3    H134936   6.792   6.408   7.360  0.3577 -3.0206  0.7830
 4459TIP3    H234937   6.941   6.386   7.345  1.1156  1.6896 -0.2697
 4460TIP3   OH234938   3.165   4.016   7.662  0.9406  0.6631 -0.6837
 4460TIP3    H134939   3.157   3.921   7.652  2.3384  0.2385  1.5253
 4460TIP3    H234940   3.080   4.043   7.696  0.5271  0.2358 -1.3353
 4461TIP3   OH234941   2.203   2.613   1.016 -0.1741  0.2824  0.0111
 4461TIP3    H134942   2.249   2.636   0.936  1.7605  2.0310  1.5169
 4461TIP3    H234943   2.265   2.557   1.064 -0.7344  0.3983  0.8919
 4462TIP3   OH234944   3.970   6.305   0.775 -0.5478  0.2686  0.3265
 4462TIP3    H134945   3.978   6.225   0.722 -0.9651  0.9361 -0.7918
 4462TIP3    H234946   3.954   6.274   0.864 -0.7238 -0.8946 -0.0986
 4463TIP3   OH234947   5.174   5.527   1.823  0.1493  0.5780 -0.6023
 4463TIP3    H134948   5.169   5.448   1.876  1.0318 -0.3177 -1.8186
 4463TIP3    H234949   5.144   5.597   1.881  0.4052 -0.4803  0.8386
 4464TIP3   OH234950   5.238   4.615   6.412 -0.5616  0.2776  0.4205
 4464TIP3    H134951   5.304   4.553   6.382  0.6370  1.0169  1.4116
 4464TIP3    H234952   5.155   4.579   6.381  0.1696 -1.3817  0.2741
 4465TIP3   OH234953   3.657   1.206   0.219 -0.3300  0.2050 -0.0430
 4465TIP3    H134954   3.651   1.260   0.297 -1.7137  1.0596 -0.6965
 4465TIP3    H234955   3.688   1.266   0.151 -0.5596 -0.1448 -0.4632
 4466TIP3   OH234956   3.735   3.300   2.012  0.2380 -0.4741 -0.2222
 4466TIP3    H134957   3.799   3.362   1.975 -0.9405  1.1499  0.3555
 4466TIP3    H234958   3.708   3.340   2.094 -1.1839 -1.3740 -0.2240
 4467TIP3   OH234959   2.537   4.804   8.149 -0.2261  0.5858  0.3655
 4467TIP3    H134960   2.492   4.803   8.065 -0.8410  0.6998  0.6909
 4467TIP3    H234961   2.630   4.809   8.126 -0.4212  1.3972 -0.2967
 4468TIP3   OH234962   6.530   1.362   8.465  0.3671 -0.0061 -0.0313
 4468TIP3    H134963   6.550   1.268   8.467 -1.2602 -0.3780  0.4593
 4468TIP3    H234964   6.615   1.405   8.475  0.9631 -1.4489  1.7110
 4469TIP3   OH234965   0.772   2.917   7.298 -0.4429 -0.0211 -0.0084
 4469TIP3    H134966   0.695   2.956   7.340 -1.1143 -1.1919 -0.1244
 4469TIP3    H234967   0.783   2.967   7.217 -0.0370  1.2667  0.8113
 4470TIP3   OH234968   5.608   4.969   8.305  0.4496  0.1824  0.0828
 4470TIP3    H134969   5.551   5.040   8.334  0.3775  0.4307 -0.6583
 4470TIP3    H234970   5.587   4.956   8.213 -1.2534 -2.4459  0.7495
 4471TIP3   OH234971   1.533   5.836   8.560  0.3517  0.6378 -0.7135
 4471TIP3    H134972   1.600   5.789   8.610  0.6298  1.4338 -0.3120
 4471TIP3    H234973   1.572   5.849   8.474  1.0859  1.8618 -0.2156
 4472TIP3   OH234974   2.810   0.705   6.857 -0.3801 -0.2709 -0.0719
 4472TIP3    H134975   2.863   0.716   6.778 -3.4434  1.0998 -2.1219
 4472TIP3    H234976   2.859   0.751   6.925  2.3324 -1.4445 -1.0837
 4473TIP3   OH234977   6.076   2.933   0.993 -0.2602  0.0516  0.3904
 4473TIP3    H134978   6.155   2.930   1.047 -0.1169  0.3374  0.1976
 4473TIP3    H234979   6.020   2.998   1.035  1.2726  2.9751 -1.6952
 4474TIP3   OH234980   2.672   4.882   0.425  0.3917 -0.1230  0.5260
 4474TIP3    H134981   2.653   4.903   0.517  0.4241 -0.6323  0.6569
 4474TIP3    H234982   2.597   4.829   0.397  0.7597 -0.6430  0.5055
 4475TIP3   OH234983   5.982   6.544   0.898 -0.7072 -0.0262 -0.2979
 4475TIP3    H134984   6.002   6.600   0.823 -0.5182  0.9970  0.4881
 4475TIP3    H234985   5.893   6.569   0.923 -0.7727 -0.3680 -0.1855
 4476TIP3   OH234986   4.627   0.958   7.464  0.4585 -0.0981 -0.7028
 4476TIP3    H134987   4.580   0.887   7.508 -1.8928  1.9766  0.3818
 4476TIP3    H234988   4.694   0.985   7.528 -0.2090  0.1711 -0.0986
 4477TIP3   OH234989   2.781   5.037   8.487 -0.2003  0.4194 -0.9254
 4477TIP3    H134990   2.800   4.949   8.454  1.0745  0.2454  0.1665
 4477TIP3    H234991   2.774   5.027   8.582 -2.3352  1.1446 -0.9468
 4478TIP3   OH234992   4.416   4.817   8.533 -0.2289 -0.0718 -0.3171
 4478TIP3    H134993   4.490   4.767   8.567 -1.2421  1.0629  4.1692
 4478TIP3    H234994   4.351   4.751   8.508  1.0520 -0.9987 -1.3368
 4479TIP3   OH234995   4.804   3.063   1.270  0.3583 -0.0095  0.2563
 4479TIP3    H134996   4.741   3.097   1.206  0.9855 -1.6588 -1.3367
 4479TIP3    H234997   4.749   3.034   1.344 -0.2889  2.8988  1.0184
 4480TIP3   OH234998   5.402   3.237   7.853 -0.2949 -0.2979  0.0011
 4480TIP3    H134999   5.432   3.147   7.837  0.3485  0.2424 -2.0756
 4480TIP3    H235000   5.483   3.288   7.860 -0.6710  0.3221 -0.1475
 4481TIP3   OH235001   6.787   4.945   2.247  0.5221  0.4967 -0.0204
 4481TIP3    H135002   6.835   4.904   2.320  1.4060 -1.7611 -1.7202
 4481TIP3    H235003   6.853   4.997   2.202 -0.6039  4.1454  2.1371
 4482TIP3   OH235004   4.810   4.243   0.403 -0.0978 -0.7000  0.5446
 4482TIP3    H135005   4.778   4.250   0.493 -0.3615 -0.5280  0.4401
 4482TIP3    H235006   4.738   4.276   0.350  0.8194  1.2117  0.3924
 4483TIP3   OH235007   1.120   3.680   8.070 -0.2879  0.1288  0.3445
 4483TIP3    H135008   1.117   3.676   8.166  1.0517  0.0437  0.4052
 4483TIP3    H235009   1.213   3.681   8.050 -0.5620 -0.1596 -0.9805
 4484TIP3   OH235010   6.290   0.133   8.141 -0.0057 -0.8996  0.4059
 4484TIP3    H135011   6.227   0.188   8.095 -0.3626 -0.7137  1.1055
 4484TIP3    H235012   6.371   0.185   8.142 -0.4523 -0.1735  1.4330
 4485TIP3   OH235013   4.714   3.199   1.052  0.3919  0.0747  0.0194
 4485TIP3    H135014   4.734   3.293   1.057 -0.7787  0.2945  0.8860
 4485TIP3    H235015   4.777   3.165   0.988  0.1041  1.6418 -1.1614
 4486TIP3   OH235016   3.351   1.183   7.642  0.0788  0.0900 -0.1585
 4486TIP3    H135017   3.309   1.116   7.588 -2.3390  1.3668 -0.0422
 4486TIP3    H235018   3.278   1.226   7.687  1.8183  0.4933  2.4973
 4487TIP3   OH235019   5.469   1.211   1.416 -0.4237  0.2438  0.1872
 4487TIP3    H135020   5.531   1.243   1.482 -2.6121 -0.8514  2.9360
 4487TIP3    H235021   5.408   1.284   1.404 -0.8010 -0.0409  0.3810
 4488TIP3   OH235022   2.544   3.429   0.732 -0.6214  0.3395 -0.7182
 4488TIP3    H135023   2.560   3.363   0.800  0.2706  2.5956  1.4336
 4488TIP3    H235024   2.451   3.423   0.714 -0.7535 -0.8031  0.2140
 4489TIP3   OH235025   4.434   5.770   0.272 -0.1689  0.2478  0.4601
 4489TIP3    H135026   4.402   5.791   0.359 -1.0860  1.3622 -0.1305
 4489TIP3    H235027   4.466   5.680   0.279 -2.1848 -0.4398  1.4144
 4490TIP3   OH235028   1.473   3.941   5.949  0.1548  0.5547  0.1370
 4490TIP3    H135029   1.456   3.849   5.930  0.0228  0.1232  2.1591
 4490TIP3    H235030   1.387   3.983   5.938 -0.1504  0.1268  0.8184
 4491TIP3   OH235031   4.737   5.398   7.449 -0.0158 -0.2894 -0.6146
 4491TIP3    H135032   4.667   5.439   7.398 -1.1189 -2.1693 -0.6831
 4491TIP3    H235033   4.789   5.350   7.385  0.0814 -0.6222 -0.2923
 4492TIP3   OH235034   6.517   6.538   6.982 -0.0221  0.3375  0.2744
 4492TIP3    H135035   6.490   6.501   6.899  2.3794  0.4760 -0.6467
 4492TIP3    H235036   6.595   6.590   6.961  0.7523  0.2447  2.6289
 4493TIP3   OH235037   3.923   5.845   2.244 -0.1898 -0.1162 -0.2762
 4493TIP3    H135038   3.958   5.924   2.285 -0.5213  0.3859 -0.9322
 4493TIP3    H235039   3.833   5.867   2.221 -0.9584 -1.3795  1.3450
 4494TIP3   OH235040   5.118   3.076   1.533 -0.4165 -0.2454 -0.2356
 4494TIP3    H135041   5.098   3.035   1.618  0.7193  1.0235  0.6888
 4494TIP3    H235042   5.046   3.137   1.519 -0.9718 -0.9599 -0.5398
 4495TIP3   OH235043   3.952   4.937   7.142  0.2306  0.0492 -0.3616
 4495TIP3    H135044   3.937   4.977   7.228  4.0040 -0.2223  0.6029
 4495TIP3    H235045   3.927   4.845   7.154 -0.7348  0.3291 -0.0866
 4496TIP3   OH235046   6.494   5.084   6.979 -0.1170 -0.3801 -0.4227
 4496TIP3    H135047   6.538   5.116   6.900  2.0628  0.6942  1.1403
 4496TIP3    H235048   6.462   4.997   6.954 -0.7523  0.4620 -2.8880
 4497TIP3   OH235049   5.549   6.623   1.431 -0.0685 -0.2259  0.0010
 4497TIP3    H135050   5.489   6.549   1.442  0.4378 -0.3849  2.2913
 4497TIP3    H235051   5.499   6.700   1.457  0.3804 -0.2351  0.9571
 4498TIP3   OH235052   2.058   3.111   8.499  0.4279 -0.2164 -0.2340
 4498TIP3    H135053   2.060   3.205   8.480 -0.4354 -0.0874  0.2819
 4498TIP3    H235054   2.116   3.072   8.433  0.8532  0.6797 -0.4024
 4499TIP3   OH235055   4.700   2.404   8.552 -0.2487 -0.6297  0.2498
 4499TIP3    H135056   4.634   2.451   8.501  0.5081 -0.8434 -0.9740
 4499TIP3    H235057   4.649   2.341   8.604 -1.1296  0.3648  0.6277
 4500TIP3   OH235058   1.452   2.965   7.594 -0.3402  0.2840  0.0161
 4500TIP3    H135059   1.446   3.053   7.633 -1.8510  0.4291 -0.4762
 4500TIP3    H235060   1.537   2.932   7.624  0.1875  1.8354  0.3594
 4501TIP3   OH235061   1.220   3.199   1.042  0.7600 -0.7918  0.0915
 4501TIP3    H135062   1.169   3.187   0.962 -0.5889 -0.6573  0.8982
 4501TIP3    H235063   1.180   3.275   1.084  1.3078 -1.0063  1.0146
 4502TIP3   OH235064   5.049   1.313   1.609 -0.4717 -0.1158  0.2182
 4502TIP3    H135065   5.034   1.349   1.696  0.6376 -0.4551  0.5579
 4502TIP3    H235066   5.089   1.227   1.624 -1.1677 -0.5966 -0.6148
 4503TIP3   OH235067   2.372   3.625   1.874 -0.2144 -0.0827 -0.2828
 4503TIP3    H135068   2.354   3.532   1.857 -0.4825 -0.1468  0.3248
 4503TIP3    H235069   2.466   3.633   1.862 -0.2809 -0.2748 -1.0472
 4504TIP3   OH235070   5.743   5.120   7.550  0.4589 -0.2113  0.3915
 4504TIP3    H135071   5.782   5.033   7.539  2.3864  0.2638  2.5722
 4504TIP3    H235072   5.686   5.130   7.475  2.1581 -2.3176 -1.3343
 4505TIP3   OH235073   5.739   2.419   8.151  0.2401 -0.1045 -0.3206
 4505TIP3    H135074   5.792   2.498   8.138  0.3440 -0.0764  0.2539
 4505TIP3    H235075   5.790   2.349   8.110  0.2955  0.0699 -0.5567
 4506TIP3   OH235076   4.753   6.770   8.459 -0.0344 -0.2877 -0.1109
 4506TIP3    H135077   4.774   6.733   8.544  2.4193 -0.3922 -0.6698
 4506TIP3    H235078   4.743   6.864   8.476  1.1701 -0.1999  0.2295
 4507TIP3   OH235079   5.920   2.103   0.407 -0.3033  0.0561 -0.0546
 4507TIP3    H135080   5.873   2.054   0.339 -1.5564  1.5899 -0.3596
 4507TIP3    H235081   5.876   2.080   0.489  0.3530 -0.7670  0.0846
 4508TIP3   OH235082   5.349   2.213   1.682  0.0890  0.4489 -0.1221
 4508TIP3    H135083   5.391   2.159   1.615  0.2219 -2.3742  2.0799
 4508TIP3    H235084   5.255   2.207   1.661  0.2425  1.0547 -1.0397
 4509TIP3   OH235085   2.130   3.747   0.940 -0.0566 -0.3424 -0.4033
 4509TIP3    H135086   2.202   3.683   0.945  0.8593  0.6235 -0.9658
 4509TIP3    H235087   2.171   3.831   0.960 -1.0711  0.2091 -0.5954
 4510TIP3   OH235088   0.414   3.142   7.783  0.2468 -0.3645 -0.0005
 4510TIP3    H135089   0.392   3.142   7.690 -0.3627 -2.0613  0.1099
 4510TIP3    H235090   0.371   3.220   7.818 -0.2622 -0.1887 -0.9807
 4511TIP3   OH235091   6.064   4.094   2.126  0.0765 -0.1132  0.0251
 4511TIP3    H135092   6.052   4.016   2.181  1.9294  1.4902  2.9315
 4511TIP3    H235093   6.118   4.063   2.053 -1.3369 -2.0273 -0.2988
 4512TIP3   OH235094   1.890   3.821   1.079  0.6182  0.3079  0.7216
 4512TIP3    H135095   1.870   3.914   1.067 -1.0954  0.1855  2.1872
 4512TIP3    H235096   1.888   3.808   1.173 -0.5680 -1.4657  0.5055
 4513TIP3   OH235097   2.850   5.599   6.982 -0.2458 -0.1200 -0.3235
 4513TIP3    H135098   2.878   5.515   6.946  0.9653  0.8520 -1.8142
 4513TIP3    H235099   2.814   5.646   6.906 -2.5691  0.1011  0.8155
 4514TIP3   OH235100   3.689   6.632   7.443  0.0705  0.2208 -0.2616
 4514TIP3    H135101   3.636   6.701   7.482 -0.9980  0.0753 -1.4045
 4514TIP3    H235102   3.696   6.565   7.511  0.4434  1.0765  0.5726
 4515TIP3   OH235103   0.359   4.258   7.940 -0.0866  0.1601 -0.9489
 4515TIP3    H135104   0.343   4.179   7.889 -0.6214  0.8910 -1.9585
 4515TIP3    H235105   0.452   4.278   7.926  0.0290 -0.2305 -0.7569
 4516TIP3   OH235106   4.201   1.081   7.567  0.4044  0.0324  0.1099
 4516TIP3    H135107   4.228   1.027   7.641  2.0195 -0.3792 -0.7515
 4516TIP3    H235108   4.134   1.029   7.523  0.1323 -0.1345  0.6968
 4517TIP3   OH235109   5.742   0.516   2.056 -0.1068 -0.0135 -0.2205
 4517TIP3    H135110   5.759   0.606   2.083  1.7888  0.0401 -1.4544
 4517TIP3    H235111   5.722   0.470   2.137  1.0153  1.0766  0.7124
 4518TIP3   OH235112   3.576   0.087   0.455 -0.0238 -0.6895 -0.5709
 4518TIP3    H135113   3.640   0.032   0.499 -0.1081 -1.9119 -1.9255
 4518TIP3    H235114   3.574   0.056   0.365 -1.0230  0.6919 -1.0691
 4519TIP3   OH235115   0.902   3.508   7.773  0.3097 -0.6276  0.0480
 4519TIP3    H135116   0.904   3.466   7.859 -0.1265 -0.9668 -0.1066
 4519TIP3    H235117   0.838   3.458   7.722  1.0613 -0.8511 -0.6970
 4520TIP3   OH235118   2.102   4.709   0.030  0.6603 -0.9188  0.6214
 4520TIP3    H135119   2.086   4.680   0.120 -1.2624  2.6844  1.6059
 4520TIP3    H235120   2.191   4.743   0.032  1.5645 -3.0868  0.3922
 4521TIP3   OH235121   1.451   1.836   0.687  0.5811  0.5936  0.9022
 4521TIP3    H135122   1.379   1.897   0.672  0.7365  0.3111 -1.1998
 4521TIP3    H235123   1.527   1.892   0.700  0.5758  0.8665 -0.1960
 4522TIP3   OH235124   3.781   2.623   1.410  0.3174 -0.4093  0.3227
 4522TIP3    H135125   3.693   2.658   1.402  0.7138  0.4940 -0.2577
 4522TIP3    H235126   3.836   2.683   1.359  1.2566 -0.9858  0.6203
 4523TIP3   OH235127   1.941   3.219   0.742  0.3732 -0.2567 -0.2711
 4523TIP3    H135128   1.860   3.193   0.786  1.1129 -1.7097  0.3037
 4523TIP3    H235129   1.995   3.256   0.811  0.3875  0.2652 -0.5584
 4524TIP3   OH235130   1.488   1.796   1.267 -0.4551  0.5844 -0.4242
 4524TIP3    H135131   1.522   1.881   1.295 -1.3022  1.2591 -1.3629
 4524TIP3    H235132   1.400   1.793   1.303  0.0223 -0.4758  0.6939
 4525TIP3   OH235133   1.349   0.526   7.151 -0.0310 -0.3456  0.0185
 4525TIP3    H135134   1.334   0.452   7.092 -0.5566  1.0987 -1.7394
 4525TIP3    H235135   1.410   0.583   7.103 -1.4179  1.4571  0.3016
 4526TIP3   OH235136   1.522   0.831   8.104 -0.6746 -0.1119 -0.4444
 4526TIP3    H135137   1.484   0.771   8.168  2.6798 -0.6985  1.2296
 4526TIP3    H235138   1.481   0.916   8.123 -2.0036 -0.9224  0.3815
 4527TIP3   OH235139   3.451   0.714   8.267  0.0311  0.6081 -0.1271
 4527TIP3    H135140   3.519   0.782   8.260 -0.3408  1.0434  0.4146
 4527TIP3    H235141   3.372   0.758   8.235  0.1423 -0.1366 -1.5263
 4528TIP3   OH235142   4.283   1.664   2.426 -0.4292 -0.3110 -0.0264
 4528TIP3    H135143   4.230   1.585   2.423 -1.6900  0.4021  1.8597
 4528TIP3    H235144   4.324   1.662   2.513 -2.3590  2.1921  1.0764
 4529TIP3   OH235145   3.894   3.018   7.055  0.3310  0.6376  0.3984
 4529TIP3    H135146   3.840   2.977   7.123 -2.2694  2.5861 -0.3135
 4529TIP3    H235147   3.933   3.094   7.097  2.2487 -0.4966  0.7744
 4530TIP3   OH235148   2.223   2.903   8.230 -0.0649 -0.1670  0.5769
 4530TIP3    H135149   2.133   2.870   8.239 -0.8545  1.2917 -1.2557
 4530TIP3    H235150   2.212   2.996   8.211  1.8305 -0.0011  0.1584
 4531TIP3   OH235151   0.846   3.014   7.569  0.1332  0.5234 -0.1122
 4531TIP3    H135152   0.919   3.030   7.509 -0.7654 -0.5919 -1.5816
 4531TIP3    H235153   0.883   2.956   7.635  0.7681  0.5743 -0.4045
 4532TIP3   OH235154   3.210   6.406   1.329 -0.0582  0.1564  0.2500
 4532TIP3    H135155   3.135   6.421   1.271 -0.4599 -0.3144  0.6314
 4532TIP3    H235156   3.261   6.486   1.324 -0.0766  0.1203 -0.7658
 4533TIP3   OH235157   2.395   5.505   1.549 -0.2905  0.2616 -0.5806
 4533TIP3    H135158   2.461   5.496   1.617 -0.9286 -0.1145 -0.0055
 4533TIP3    H235159   2.446   5.516   1.468  0.4742 -0.6128 -0.2317
 4534TIP3   OH235160   0.869   4.756   0.188  0.3881  0.1594  0.3494
 4534TIP3    H135161   0.837   4.803   0.111  1.3157  2.2631  1.1743
 4534TIP3    H235162   0.797   4.761   0.251  0.2900  0.0040  0.2501
 4535TIP3   OH235163   2.326   5.543   6.627  0.2572 -0.1308 -0.2968
 4535TIP3    H135164   2.288   5.459   6.603  0.3802 -0.8324  1.7171
 4535TIP3    H235165   2.418   5.536   6.602  0.2259 -0.5258 -0.3036
 4536TIP3   OH235166   5.218   1.186   7.186  0.6675 -0.0583 -0.5820
 4536TIP3    H135167   5.182   1.211   7.101  0.7162  0.8960 -0.3371
 4536TIP3    H235168   5.144   1.147   7.233  1.0982 -2.3918 -1.7327
 4537TIP3   OH235169   3.106   5.219   1.902 -0.0361 -0.4602 -0.2437
 4537TIP3    H135170   3.021   5.182   1.882 -0.1295  0.5741 -1.9460
 4537TIP3    H235171   3.166   5.144   1.904 -0.9016 -1.1518  0.6751
 4538TIP3   OH235172   1.690   5.017   7.907 -0.0830 -0.0688 -0.1102
 4538TIP3    H135173   1.632   4.988   7.837 -2.4937  2.5267  0.6357
 4538TIP3    H235174   1.761   5.063   7.861  0.8003 -2.1249 -0.9540
 4539TIP3   OH235175   3.054   5.286   7.932  0.0862 -0.5059  0.0578
 4539TIP3    H135176   3.026   5.345   7.862  0.9340 -1.0094 -0.7346
 4539TIP3    H235177   2.986   5.219   7.936  0.7105 -1.2545 -1.2741
 4540TIP3   OH235178   1.302   2.336   0.303  0.5738  0.5545  0.2473
 4540TIP3    H135179   1.347   2.412   0.266  1.0735 -0.1410 -0.6088
 4540TIP3    H235180   1.365   2.299   0.366  0.2154  1.0118  0.8824
 4541TIP3   OH235181   5.424   2.566   7.431  0.2698 -0.1103 -0.2571
 4541TIP3    H135182   5.333   2.592   7.419  0.0606 -0.2835  0.8537
 4541TIP3    H235183   5.429   2.478   7.394 -0.2994 -0.5552  0.6979
 4542TIP3   OH235184   4.798   3.897   8.063 -0.3254  0.0725 -0.4290
 4542TIP3    H135185   4.819   3.954   7.989 -0.7243 -0.6041 -1.0805
 4542TIP3    H235186   4.825   3.810   8.034  0.0719 -0.1063  0.4666
 4543TIP3   OH235187   6.793   4.772   7.794 -0.8213 -0.5040  0.1601
 4543TIP3    H135188   6.760   4.725   7.871  1.5178 -0.4532  1.2917
 4543TIP3    H235189   6.854   4.836   7.830 -1.4280  1.1588 -1.6160
 4544TIP3   OH235190   0.291   0.867   1.286 -0.0973 -0.1506  0.8015
 4544TIP3    H135191   0.291   0.955   1.325 -0.5374 -0.0766  0.6351
 4544TIP3    H235192   0.211   0.863   1.235  0.8422  0.0304 -0.7333
 4545TIP3   OH235193   4.885   5.306   7.247 -0.2371  0.2746  0.5953
 4545TIP3    H135194   4.866   5.397   7.227  1.3960  0.5386  0.0397
 4545TIP3    H235195   4.863   5.259   7.166 -0.3454  0.2917  0.6149
 4546TIP3   OH235196   6.888   6.346   0.470  0.0345 -0.2474  0.1277
 4546TIP3    H135197   6.898   6.299   0.553 -0.1059 -0.4089  0.0565
 4546TIP3    H235198   6.965   6.322   0.419 -1.5247 -3.0576 -1.1760
 4547TIP3   OH235199   3.164   2.845   6.165 -0.5382  0.6526 -0.4978
 4547TIP3    H135200   3.217   2.901   6.109  0.4162  0.2725 -0.0004
 4547TIP3    H235201   3.150   2.766   6.112  0.0804  0.4294 -0.3420
 4548TIP3   OH235202   1.635   5.281   1.379  0.0621 -0.2906  0.1256
 4548TIP3    H135203   1.710   5.331   1.346 -0.0836  0.1044  0.3964
 4548TIP3    H235204   1.607   5.229   1.303  0.7703 -0.6458  0.0899
 4549TIP3   OH235205   5.077   6.259   8.570  0.4021 -0.5826 -0.5943
 4549TIP3    H135206   5.148   6.322   8.572  0.6286 -0.8509 -0.2548
 4549TIP3    H235207   5.118   6.177   8.543  0.0513 -0.5133 -1.3745
 4550TIP3   OH235208   1.270   6.379   0.184  0.0593 -0.2811 -0.2019
 4550TIP3    H135209   1.361   6.403   0.204  0.1732 -1.7816  1.3841
 4550TIP3    H235210   1.240   6.334   0.263 -1.1881 -2.1945 -1.6876
 4551TIP3   OH235211   4.045   1.797   1.024 -0.5903  0.0032  0.0009
 4551TIP3    H135212   3.999   1.873   1.061  0.9278  1.3157 -0.6680
 4551TIP3    H235213   4.071   1.746   1.101  1.0442  1.8103  0.7321
 4552TIP3   OH235214   5.663   3.090   6.866  0.0173 -0.1689 -0.7059
 4552TIP3    H135215   5.601   3.161   6.885  1.1118  0.7431 -0.4405
 4552TIP3    H235216   5.648   3.027   6.936  0.4428  0.7730  0.2682
 4553TIP3   OH235217   0.263   3.984   1.415 -0.1267  0.0122  0.3258
 4553TIP3    H135218   0.230   4.020   1.498  1.2453  0.8859  0.5238
 4553TIP3    H235219   0.327   3.918   1.441 -0.3650 -0.3745 -0.0511
 4554TIP3   OH235220   4.791   4.592   6.978  0.9136 -0.3173  0.2683
 4554TIP3    H135221   4.696   4.602   6.984  0.7446 -1.5879  0.0791
 4554TIP3    H235222   4.820   4.665   6.924 -0.2853 -1.2502 -1.7652
 4555TIP3   OH235223   1.608   1.196   8.203 -0.1676  0.1908  0.1538
 4555TIP3    H135224   1.569   1.123   8.251  2.7947 -1.2242  0.5987
 4555TIP3    H235225   1.657   1.245   8.269 -1.5180  2.2661 -0.2754
 4556TIP3   OH235226   5.855   5.407   7.161  0.1560 -0.1648  0.2785
 4556TIP3    H135227   5.944   5.443   7.163  0.6102 -0.8910 -2.7562
 4556TIP3    H235228   5.867   5.313   7.175 -0.0645 -0.3251 -0.5627
 4557TIP3   OH235229   2.215   5.000   7.675 -0.0304 -0.3059 -0.5492
 4557TIP3    H135230   2.300   5.040   7.693 -1.6254  2.4783  1.4602
 4557TIP3    H235231   2.197   4.945   7.751 -0.9768  0.9320  0.1537
 4558TIP3   OH235232   4.587   1.190   7.338 -0.5151 -0.4024  0.0745
 4558TIP3    H135233   4.524   1.236   7.394  1.9100  1.6265  1.3242
 4558TIP3    H235234   4.592   1.102   7.374 -0.7458  0.1746  1.5909
 4559TIP3   OH235235   1.175   0.571   8.100 -0.1915 -0.2894  0.5364
 4559TIP3    H135236   1.128   0.488   8.092 -1.4261  0.3524  1.0297
 4559TIP3    H235237   1.267   0.546   8.089 -0.5500 -1.6907  0.4660
 4560TIP3   OH235238   4.359   4.974   0.190 -0.1048  0.4144 -0.1612
 4560TIP3    H135239   4.273   5.015   0.183 -0.0532  0.6832  0.6605
 4560TIP3    H235240   4.376   4.940   0.102 -1.5096 -0.5693 -0.0937
 4561TIP3   OH235241   4.805   0.726   1.243  0.4641  0.0609 -0.5360
 4561TIP3    H135242   4.732   0.787   1.233  0.5067  0.4112  1.0632
 4561TIP3    H235243   4.766   0.639   1.230 -0.2713  0.2336  0.4306
 4562TIP3   OH235244   6.089   3.327   0.330  0.0065 -0.0100  0.1133
 4562TIP3    H135245   6.182   3.345   0.313  0.2735  0.3051  1.7280
 4562TIP3    H235246   6.073   3.363   0.417 -2.1580  1.7535 -0.9203
 4563TIP3   OH235247   6.727   5.567   7.638 -0.0149  0.1906  0.3279
 4563TIP3    H135248   6.816   5.602   7.637  0.2239 -0.4096  0.3696
 4563TIP3    H235249   6.735   5.481   7.680 -0.0777 -1.3473 -2.6070
 4564TIP3   OH235250   3.767   5.685   0.990 -0.1755  0.6187 -0.2552
 4564TIP3    H135251   3.724   5.638   1.061 -0.1969  3.4904  1.8067
 4564TIP3    H235252   3.860   5.687   1.014 -0.5625  4.4444  1.7227
 4565TIP3   OH235253   0.718   0.112   1.853  0.2552  0.6673  0.0770
 4565TIP3    H135254   0.763   0.028   1.865 -1.9806 -0.9296 -1.9002
 4565TIP3    H235255   0.685   0.134   1.940  0.9592 -0.4289  0.6427
 4566TIP3   OH235256   4.597   4.848   1.718  0.6104 -0.6613 -0.1765
 4566TIP3    H135257   4.556   4.784   1.775  0.0908 -0.4213 -0.2792
 4566TIP3    H235258   4.565   4.932   1.749  2.1132 -0.3604  0.6370
 4567TIP3   OH235259   1.363   4.279   1.150  0.2798  0.0040 -0.4819
 4567TIP3    H135260   1.363   4.272   1.246 -2.3003 -1.1783 -0.4754
 4567TIP3    H235261   1.372   4.189   1.120 -1.8269 -0.0241 -1.2160
 4568TIP3   OH235262   5.101   2.133   0.471 -0.1725  0.3167 -0.1364
 4568TIP3    H135263   5.140   2.201   0.527 -1.7990 -0.6725  2.3682
 4568TIP3    H235264   5.014   2.166   0.451 -0.0913  0.0319 -1.0126
 4569TIP3   OH235265   1.936   6.103   0.912 -0.1750 -0.0356 -0.3293
 4569TIP3    H135266   1.913   6.064   0.996 -2.0964 -0.3393 -0.9606
 4569TIP3    H235267   2.002   6.169   0.934 -0.3700 -0.3530  1.3523
 4570TIP3   OH235268   1.792   1.437   1.410 -0.8386  0.3968 -0.5198
 4570TIP3    H135269   1.734   1.383   1.463  2.2315 -1.6480  1.0068
 4570TIP3    H235270   1.881   1.411   1.435  0.8389  2.0739 -3.9325
 4571TIP3   OH235271   3.024   1.257   8.392  0.3035  0.2539  0.0143
 4571TIP3    H135272   3.001   1.348   8.373 -0.7118  0.0661  0.2969
 4571TIP3    H235273   3.034   1.255   8.487  3.0126  0.6545 -0.1760
 4572TIP3   OH235274   0.388   5.082   7.586  0.1054  0.0269  0.0366
 4572TIP3    H135275   0.422   5.133   7.659  0.4379  0.1944 -0.2305
 4572TIP3    H235276   0.383   5.145   7.514  0.0921 -0.2146 -0.1728
 4573TIP3   OH235277   6.182   5.814   0.943  0.1350  0.3013 -0.1539
 4573TIP3    H135278   6.223   5.789   0.860 -1.2744  1.1167 -1.1354
 4573TIP3    H235279   6.235   5.886   0.976  1.3442 -0.7232  0.2471
 4574TIP3   OH235280   2.155   0.694   7.740 -0.1030 -0.2761  0.1667
 4574TIP3    H135281   2.170   0.754   7.813  2.6616  0.8056 -1.1128
 4574TIP3    H235282   2.207   0.617   7.762 -0.5304 -0.6027  0.0448
 4575TIP3   OH235283   2.157   3.154   8.179  0.8618 -0.0268  0.3787
 4575TIP3    H135284   2.154   3.195   8.092 -2.0203  0.8589  0.7965
 4575TIP3    H235285   2.184   3.224   8.238 -0.6061  0.3653  0.6202
 4576TIP3   OH235286   3.629   4.405   0.306 -0.8359 -0.1799  0.2103
 4576TIP3    H135287   3.535   4.393   0.308 -0.7304 -0.9878  1.5952
 4576TIP3    H235288   3.651   4.441   0.392  0.0371  0.8286 -0.3929
 4577TIP3   OH235289   3.683   1.803   0.858 -0.3199 -0.2220 -0.1938
 4577TIP3    H135290   3.770   1.841   0.869  0.0519 -1.0881  0.0033
 4577TIP3    H235291   3.627   1.851   0.919  0.5509 -1.2674  1.5143
 4578TIP3   OH235292   1.104   3.014   6.656 -0.5668  0.5286  0.6558
 4578TIP3    H135293   1.099   3.006   6.561 -1.7745  0.0310  0.7542
 4578TIP3    H235294   1.193   2.986   6.678 -0.4483  0.1607 -0.2742
 4579TIP3   OH235295   2.878   2.769   0.768  0.0393 -0.0650 -0.0608
 4579TIP3    H135296   2.809   2.820   0.724 -0.2178 -0.7931 -0.5122
 4579TIP3    H235297   2.913   2.829   0.834  0.6234  1.1515 -1.4291
 4580TIP3   OH235298   5.019   1.563   0.188  0.3125 -0.4876  0.7800
 4580TIP3    H135299   5.031   1.563   0.283 -1.5442 -0.3896  1.0470
 4580TIP3    H235300   4.969   1.484   0.169  2.4500 -1.6244 -0.4174
 4581TIP3   OH235301   6.788   5.309   7.704 -0.0903  0.2675  0.4370
 4581TIP3    H135302   6.879   5.281   7.697 -0.2795 -0.0241 -1.4007
 4581TIP3    H235303   6.739   5.228   7.718 -0.1861  0.2755  0.1479
 4582TIP3   OH235304   3.319   1.891   8.267 -0.2409 -0.1450 -0.1845
 4582TIP3    H135305   3.360   1.884   8.181 -0.2620 -1.2822 -0.1168
 4582TIP3    H235306   3.365   1.828   8.322  1.8327  2.5882  1.5336
 4583TIP3   OH235307   0.363   4.210   0.917 -0.3367 -0.4205 -0.5935
 4583TIP3    H135308   0.388   4.177   1.003 -1.0842  1.9291  0.6223
 4583TIP3    H235309   0.306   4.285   0.936  0.8904  1.2699 -3.0998
 4584TIP3   OH235310   3.295   1.634   7.317  0.2767  0.0743  0.0709
 4584TIP3    H135311   3.212   1.636   7.270  1.7547 -0.9763 -2.8344
 4584TIP3    H235312   3.288   1.557   7.374 -0.7028 -0.0570 -0.2058
 4585TIP3   OH235313   1.789   3.652   0.044 -0.0815  0.6023 -0.2362
 4585TIP3    H135314   1.822   3.605   0.121 -0.1589  0.2571 -0.4150
 4585TIP3    H235315   1.705   3.612   0.025 -0.9856  1.9637  0.6636
 4586TIP3   OH235316   2.762   2.236   0.712 -0.2346  0.1202  0.7551
 4586TIP3    H135317   2.818   2.165   0.680 -1.1801  0.2256 -1.2760
 4586TIP3    H235318   2.772   2.233   0.807  0.9265 -1.7471  0.6309
 4587TIP3   OH235319   6.023   3.093   8.562  0.2248  0.0291  0.4485
 4587TIP3    H135320   6.002   3.186   8.552 -1.4453 -0.5189 -1.7153
 4587TIP3    H235321   5.951   3.058   8.614 -0.6942 -0.5519 -1.1552
 4588TIP3   OH235322   4.424   4.196   8.398  0.2467  0.1871 -0.3668
 4588TIP3    H135323   4.423   4.104   8.422  0.3849 -0.1147 -1.4446
 4588TIP3    H235324   4.497   4.233   8.448  3.1024 -1.2542 -3.0583
 4589TIP3   OH235325   1.923   4.886   2.158 -0.0145 -0.7462 -0.0399
 4589TIP3    H135326   1.859   4.851   2.220  1.8073 -2.5602  0.9318
 4589TIP3    H235327   1.989   4.929   2.212  0.7173 -0.8458 -0.8207
 4590TIP3   OH235328   5.260   6.354   5.950  0.2888 -0.0994 -0.3582
 4590TIP3    H135329   5.209   6.372   5.871  0.2479 -1.2945 -0.6210
 4590TIP3    H235330   5.272   6.440   5.991  0.3163  0.5459 -1.6608
 4591TIP3   OH235331   0.388   0.543   8.459 -0.4067  0.2181  0.1175
 4591TIP3    H135332   0.442   0.519   8.534  0.1270 -0.2553 -0.4096
 4591TIP3    H235333   0.343   0.461   8.436 -2.4746  0.8943  1.4177
 4592TIP3   OH235334   6.511   3.144   8.043  0.1195 -0.3048 -0.2196
 4592TIP3    H135335   6.468   3.229   8.032 -1.1980 -0.8081  0.7061
 4592TIP3    H235336   6.573   3.157   8.114 -0.6388 -0.3092  0.4470
 4593TIP3   OH235337   0.529   3.733   6.964  0.2694 -0.3557  0.1171
 4593TIP3    H135338   0.542   3.770   7.051  0.5040  1.8198 -0.7754
 4593TIP3    H235339   0.615   3.699   6.939  0.4731  0.0166  0.3052
 4594TIP3   OH235340   6.604   1.854   7.251 -0.3993 -0.6526  0.1831
 4594TIP3    H135341   6.541   1.787   7.277 -0.4447 -1.1766 -1.1633
 4594TIP3    H235342   6.596   1.858   7.155  0.7893  0.0895  0.0937
 4595TIP3   OH235343   6.355   6.184   8.208  0.0855  0.5047 -0.4288
 4595TIP3    H135344   6.284   6.214   8.152 -1.4892 -0.9795  0.6451
 4595TIP3    H235345   6.370   6.256   8.269 -1.5016  0.3599  0.1866
 4596TIP3   OH235346   6.243   6.302   1.250 -0.2841  0.0780  0.2841
 4596TIP3    H135347   6.155   6.320   1.217 -0.3689  0.6138  0.7832
 4596TIP3    H235348   6.238   6.214   1.288 -1.0629  0.7565  1.8244
 4597TIP3   OH235349   3.492   5.567   1.087  0.5616 -0.2031 -0.1933
 4597TIP3    H135350   3.496   5.475   1.060  0.3323 -0.3857  0.3936
 4597TIP3    H235351   3.550   5.572   1.163  1.2280  0.3170 -0.7257
 4598TIP3   OH235352   6.439   6.226   7.092  0.0109  0.3132  0.1376
 4598TIP3    H135353   6.534   6.234   7.086 -0.0378  0.6822 -0.1726
 4598TIP3    H235354   6.425   6.158   7.158  0.4668  1.6852  1.7223
 4599TIP3   OH235355   5.648   1.698   6.413 -0.3103 -0.2244 -0.0369
 4599TIP3    H135356   5.558   1.670   6.429 -0.4922 -0.2774 -1.0551
 4599TIP3    H235357   5.703   1.633   6.457 -0.7537 -1.1914 -0.8619
 4600TIP3   OH235358   5.974   2.971   8.201 -0.3549 -0.3720 -0.7097
 4600TIP3    H135359   6.046   2.911   8.179 -1.5408 -1.8995 -0.6345
 4600TIP3    H235360   5.924   2.923   8.267 -0.7217  1.2171  0.2077
 4601TIP3   OH235361   2.120   6.208   6.244 -0.5313 -0.2166 -0.1792
 4601TIP3    H135362   2.198   6.262   6.257 -0.8025 -0.2784  2.2127
 4601TIP3    H235363   2.047   6.270   6.255 -0.8463 -0.4268 -0.9970
 4602TIP3   OH235364   5.629   2.211   7.340 -0.4936 -0.0871  0.8203
 4602TIP3    H135365   5.603   2.289   7.291 -0.5856  0.2276  1.3598
 4602TIP3    H235366   5.686   2.243   7.410  1.6062 -0.8006 -0.4905
 4603TIP3   OH235367   6.476   5.001   1.377 -0.1258 -0.2924  0.4752
 4603TIP3    H135368   6.508   5.069   1.436 -2.1744 -1.4553  3.1650
 4603TIP3    H235369   6.512   4.920   1.412 -2.6057 -1.1795  1.2144
 4604TIP3   OH235370   3.363   1.145   8.491 -0.1491  0.9771  0.5461
 4604TIP3    H135371   3.384   1.224   8.441  1.5160  0.0712 -0.2653
 4604TIP3    H235372   3.443   1.093   8.487 -0.2182  0.4836  3.4764
 4605TIP3   OH235373   5.595   4.979   7.357  0.5537 -0.5547 -0.3458
 4605TIP3    H135374   5.545   4.970   7.438  1.7070  0.2627  0.4872
 4605TIP3    H235375   5.635   4.893   7.343  0.9642 -0.4960  0.3921
 4606TIP3   OH235376   6.148   2.777   8.105 -0.0708  0.8200  0.8056
 4606TIP3    H135377   6.217   2.814   8.050 -0.0428 -3.2706 -2.4817
 4606TIP3    H235378   6.194   2.721   8.167 -0.1929 -1.1689 -0.7730
 4607TIP3   OH235379   1.511   1.618   7.386  0.5599 -0.7022 -0.2820
 4607TIP3    H135380   1.484   1.700   7.343 -0.4941 -0.4106  0.8908
 4607TIP3    H235381   1.591   1.593   7.339  0.2760  0.3785 -1.4296
 4608TIP3   OH235382   4.348   4.987   7.276 -0.0363 -0.4737 -0.0644
 4608TIP3    H135383   4.354   4.903   7.321  2.3563 -0.2279  0.2165
 4608TIP3    H235384   4.306   5.045   7.339  0.4276 -0.9043  0.6505
 4609TIP3   OH235385   6.825   3.984   1.328  0.0610  0.1326 -0.5914
 4609TIP3    H135386   6.882   3.947   1.395  0.2038 -0.8695 -1.2509
 4609TIP3    H235387   6.885   4.017   1.261 -0.0692  1.4074 -0.1168
 4610TIP3   OH235388   0.767   1.654   8.319 -1.0842  0.2098 -0.3768
 4610TIP3    H135389   0.838   1.594   8.297  0.7397  1.8031  0.8543
 4610TIP3    H235390   0.688   1.610   8.287  0.5000 -1.1729 -2.7348
 4611TIP3   OH235391   5.772   3.516   8.014  0.5620  0.5413  0.2730
 4611TIP3    H135392   5.761   3.611   8.010 -1.0808  0.4253  1.1651
 4611TIP3    H235393   5.773   3.496   8.108  1.9206 -0.2436  0.1207
 4612TIP3   OH235394   5.556   2.613   0.270  0.4955 -0.6059 -0.2004
 4612TIP3    H135395   5.533   2.671   0.343  2.3839 -0.3607  0.2365
 4612TIP3    H235396   5.471   2.580   0.239 -0.4583  0.5176  1.0724
 4613TIP3   OH235397   1.508   3.330   1.476 -0.0909  0.1007  0.8762
 4613TIP3    H135398   1.417   3.345   1.502 -0.2026 -0.6628  0.9270
 4613TIP3    H235399   1.556   3.324   1.558  0.3006  2.1045  0.8664
 4614TIP3   OH235400   0.542   5.788   7.085  0.2464  0.2068  0.2727
 4614TIP3    H135401   0.447   5.801   7.083  0.1393 -0.2036  1.4517
 4614TIP3    H235402   0.562   5.743   7.003 -0.8275 -1.1045  0.6870
 4615TIP3   OH235403   4.425   5.320   1.618 -0.5161  0.0361  0.0724
 4615TIP3    H135404   4.349   5.262   1.632 -0.4107 -0.4097 -1.1075
 4615TIP3    H235405   4.400   5.375   1.545 -0.2940  0.9696  0.6820
 4616TIP3   OH235406   4.168   4.676   1.646  0.1007 -0.2666 -0.2747
 4616TIP3    H135407   4.126   4.659   1.561  0.9134 -1.8978 -0.3972
 4616TIP3    H235408   4.211   4.761   1.635 -2.1267  0.8950 -0.5254
 4617TIP3   OH235409   2.734   5.310   2.195  0.5009  0.1116 -0.0948
 4617TIP3    H135410   2.728   5.281   2.104  1.0249 -1.2315  0.2858
 4617TIP3    H235411   2.823   5.288   2.222  0.5492  1.0619  0.5677
 4618TIP3   OH235412   5.381   4.953   7.535  0.1720 -0.5168 -0.6281
 4618TIP3    H135413   5.343   5.032   7.573 -0.1177  0.1394 -2.1995
 4618TIP3    H235414   5.308   4.911   7.489  0.8256 -0.4645 -1.7366
 4619TIP3   OH235415   1.103   6.863   6.025 -0.8406  0.1591  0.4134
 4619TIP3    H135416   1.015   6.826   6.032 -0.9342  0.4866  1.0437
 4619TIP3    H235417   1.096   6.949   6.065  0.0676 -0.3484  1.7337
 4620TIP3   OH235418   2.390   5.248   8.020 -0.1532  0.5375  0.6669
 4620TIP3    H135419   2.466   5.197   8.047  0.2431  0.6703 -0.1546
 4620TIP3    H235420   2.425   5.311   7.957 -1.0578  0.1324 -0.2752
 4621TIP3   OH235421   1.666   0.318   8.421 -0.0304  0.1597  0.3145
 4621TIP3    H135422   1.634   0.244   8.370 -1.0733  0.1707  0.9169
 4621TIP3    H235423   1.656   0.394   8.363  0.7923 -0.1296 -0.2090
 4622TIP3   OH235424   3.944   1.446   8.239 -0.5300  0.1925  0.3267
 4622TIP3    H135425   4.001   1.510   8.196 -0.5218  1.3885  2.0339
 4622TIP3    H235426   3.893   1.408   8.168 -0.2632  1.8222 -0.7880
 4623TIP3   OH235427   2.805   0.643   6.089 -0.1197 -0.3985  0.2617
 4623TIP3    H135428   2.785   0.737   6.088  0.2585 -0.3153 -1.1510
 4623TIP3    H235429   2.864   0.633   6.164  0.6854  0.6977 -0.1854
 4624TIP3   OH235430   6.401   6.202   7.415 -0.1663  0.4407  0.2650
 4624TIP3    H135431   6.461   6.268   7.450 -1.0336  2.4621 -1.8009
 4624TIP3    H235432   6.315   6.229   7.445 -0.4083 -0.5756  0.5258
 4625TIP3   OH235433   4.861   5.071   6.105 -0.0262 -0.3524 -0.0180
 4625TIP3    H135434   4.938   5.089   6.051  1.5106  1.2017  2.5373
 4625TIP3    H235435   4.866   4.977   6.122  1.6973 -0.1934  0.5711
 4626TIP3   OH235436   2.044   1.665   1.499 -0.1406  0.6631  0.5769
 4626TIP3    H135437   2.088   1.694   1.579  0.0998 -0.4732  0.8800
 4626TIP3    H235438   2.026   1.572   1.514 -0.2804  0.4805 -0.6103
 4627TIP3   OH235439   0.316   0.701   6.780 -0.2841 -0.4438 -0.0311
 4627TIP3    H135440   0.326   0.700   6.876 -2.2356 -3.8188  0.2874
 4627TIP3    H235441   0.398   0.737   6.748  1.1801 -0.8703  2.8814
 4628TIP3   OH235442   3.967   6.047   6.667  0.5641  0.6831  0.2273
 4628TIP3    H135443   4.022   5.984   6.620 -1.4412 -0.5369 -0.6084
 4628TIP3    H235444   4.030   6.104   6.712  2.4898 -0.7668 -0.4585
 4629TIP3   OH235445   4.423   0.480   7.764  0.0919  0.3646  0.4960
 4629TIP3    H135446   4.402   0.414   7.831  0.5078 -1.2613 -0.9260
 4629TIP3    H235447   4.513   0.505   7.783  0.6613 -1.0690 -0.2172
 4630TIP3   OH235448   2.817   1.620   8.165  0.0995 -0.1566  0.8191
 4630TIP3    H135449   2.770   1.572   8.232  1.4657 -0.9047  1.2875
 4630TIP3    H235450   2.873   1.554   8.123 -0.9102  0.2442 -1.2397
 4631TIP3   OH235451   1.238   3.007   6.949  0.5920  0.0157  0.2769
 4631TIP3    H135452   1.173   3.055   6.897 -0.6967 -0.8172  1.0860
 4631TIP3    H235453   1.312   2.996   6.889 -0.3714  0.1512 -0.9852
 4632TIP3   OH235454   3.000   3.624   0.678 -0.0565  0.0064 -0.0804
 4632TIP3    H135455   2.912   3.623   0.638 -0.5690  1.6196  0.9490
 4632TIP3    H235456   2.984   3.638   0.771  1.3373  2.0599 -0.0877
 4633TIP3   OH235457   3.111   4.254   2.582 -0.0355 -0.7618  0.2463
 4633TIP3    H135458   3.133   4.211   2.664  1.3715  0.3075  0.4714
 4633TIP3    H235459   3.161   4.207   2.515 -0.4333 -1.0310  0.1364
 4634TIP3   OH235460   0.318   5.144   8.392  0.2502 -0.5257 -0.2493
 4634TIP3    H135461   0.235   5.106   8.420 -0.6765  1.0614 -0.7418
 4634TIP3    H235462   0.384   5.082   8.425 -1.0611 -1.4761  0.7418
 4635TIP3   OH235463   4.409   2.961   0.490 -0.4866  0.4875 -0.5095
 4635TIP3    H135464   4.423   2.963   0.396 -0.7447 -3.1991 -0.7677
 4635TIP3    H235465   4.314   2.951   0.500 -0.4145  0.3789  0.1187
 4636TIP3   OH235466   3.746   6.062   1.537  0.0440  0.1264 -0.3640
 4636TIP3    H135467   3.796   5.990   1.498  0.6326  0.8491 -0.9647
 4636TIP3    H235468   3.668   6.069   1.483  0.0547  0.0301 -0.3922
 4637TIP3   OH235469   6.519   6.408   0.963  0.4450 -0.0914 -0.1624
 4637TIP3    H135470   6.571   6.377   0.889 -0.2928  0.1492 -0.8114
 4637TIP3    H235471   6.519   6.336   1.025 -1.0053 -1.3414 -1.5115
 4638TIP3   OH235472   3.563   0.179   0.842  0.3859 -0.1314 -0.0771
 4638TIP3    H135473   3.549   0.273   0.826  1.2606 -0.0614 -0.4435
 4638TIP3    H235474   3.587   0.174   0.934  0.2938 -0.0056 -0.0452
 4639TIP3   OH235475   0.901   1.848   7.616  0.1812 -0.1054 -0.2829
 4639TIP3    H135476   0.840   1.922   7.619  1.1317  0.6811  0.3285
 4639TIP3    H235477   0.859   1.780   7.668  0.3009  0.8188  1.0775
 4640TIP3   OH235478   2.214   5.324   1.661 -0.6308  0.2118  0.4432
 4640TIP3    H135479   2.131   5.363   1.633  0.1932  1.3361 -0.5315
 4640TIP3    H235480   2.270   5.398   1.682 -0.1659 -0.5546  2.0546
 4641TIP3   OH235481   2.318   3.473   1.033 -0.2314  0.2752 -0.0262
 4641TIP3    H135482   2.293   3.494   1.123  2.0950  1.8334  0.3581
 4641TIP3    H235483   2.377   3.398   1.041 -0.7468 -0.1686 -0.3544
 4642TIP3   OH235484   0.783   3.034   2.056  0.1155  0.0945  0.0054
 4642TIP3    H135485   0.803   2.969   1.988 -0.0900 -0.5290  0.5339
 4642TIP3    H235486   0.709   2.997   2.103  0.3840  0.4297  0.7022
 4643TIP3   OH235487   0.142   5.034   7.252  0.1565 -0.1127  0.9114
 4643TIP3    H135488   0.169   5.084   7.328  0.5109 -0.1525  0.8136
 4643TIP3    H235489   0.223   5.017   7.204 -0.1191  0.3132  0.2790
 4644TIP3   OH235490   1.211   4.630   7.555  0.2678 -0.0190 -0.9546
 4644TIP3    H135491   1.277   4.600   7.617 -0.3166  0.8339  0.1204
 4644TIP3    H235492   1.211   4.564   7.487  0.4463 -1.3696  0.3022
 4645TIP3   OH235493   3.387   5.718   6.535  0.9667 -0.0490  0.0529
 4645TIP3    H135494   3.459   5.673   6.492  1.3980  0.8442 -0.1937
 4645TIP3    H235495   3.385   5.805   6.494  0.7761  0.4861  1.1448
 4646TIP3   OH235496   0.224   6.229   6.832  0.1553  0.2511  0.1205
 4646TIP3    H135497   0.226   6.267   6.744  1.3061  0.5071  0.2360
 4646TIP3    H235498   0.305   6.179   6.838  1.4921  2.4418  1.9413
 4647TIP3   OH235499   5.347   5.604   1.089 -0.6702  0.7199  0.3133
 4647TIP3    H135500   5.323   5.546   1.162 -0.0347 -1.1272 -0.8779
 4647TIP3    H235501   5.263   5.633   1.054 -1.1272 -1.3481 -0.4634
 4648TIP3   OH235502   1.495   2.653   7.320 -0.1850 -0.3979 -0.4557
 4648TIP3    H135503   1.403   2.635   7.303 -0.0143 -1.1325 -0.6384
 4648TIP3    H235504   1.502   2.749   7.317 -1.0458 -0.3067  0.1216
 4649TIP3   OH235505   2.447   1.454   1.474  0.3084 -0.4400 -0.2548
 4649TIP3    H135506   2.410   1.534   1.512 -1.3270 -1.1672 -0.2296
 4649TIP3    H235507   2.515   1.427   1.535 -0.6713 -0.2923  0.9294
 4650TIP3   OH235508   3.025   6.378   6.539  0.2311 -0.1928 -0.5908
 4650TIP3    H135509   3.004   6.285   6.548 -0.3091 -0.0430 -0.1916
 4650TIP3    H235510   3.056   6.388   6.449 -0.8553 -0.5526 -1.0183
 4651TIP3   OH235511   6.088   0.832   1.739 -0.8408 -0.3007  0.5993
 4651TIP3    H135512   6.116   0.786   1.818 -0.6077  0.7935  1.1768
 4651TIP3    H235513   6.146   0.799   1.671 -0.9046 -1.1052  0.9190
 4652TIP3   OH235514   0.574   3.633   8.286  0.1164 -0.8523  0.3213
 4652TIP3    H135515   0.505   3.655   8.223  0.2553  2.2886  1.1160
 4652TIP3    H235516   0.529   3.633   8.371  0.7927 -0.4346  0.6831
 4653TIP3   OH235517   4.490   2.236   8.242  0.0150 -0.3024  0.2813
 4653TIP3    H135518   4.571   2.280   8.216 -0.9495  1.2137 -0.3052
 4653TIP3    H235519   4.465   2.280   8.324 -1.2245  0.6428 -0.5706
 4654TIP3   OH235520   2.815   6.482   1.386  0.3134 -0.1201  0.3840
 4654TIP3    H135521   2.891   6.537   1.365 -0.2736  0.2504 -0.8641
 4654TIP3    H235522   2.812   6.417   1.316  0.3948 -1.1453  1.2977
 4655TIP3   OH235523   1.224   5.841   8.246 -0.5575 -0.8224 -0.6050
 4655TIP3    H135524   1.149   5.895   8.220  1.5132  2.3176 -0.6758
 4655TIP3    H235525   1.211   5.825   8.340 -1.0957  0.0949 -0.5086
 4656TIP3   OH235526   1.770   2.314   1.588  0.1092  0.1816  0.0365
 4656TIP3    H135527   1.822   2.262   1.526  0.2386 -1.1337  1.2162
 4656TIP3    H235528   1.826   2.388   1.609  1.4539 -1.0796  1.0962
 4657TIP3   OH235529   2.404   2.171   8.234 -0.1057 -0.8585  0.4555
 4657TIP3    H135530   2.459   2.093   8.240 -0.2543 -0.9779  0.3030
 4657TIP3    H235531   2.324   2.148   8.281 -0.6330 -1.2355 -0.5808
 4658TIP3   OH235532   1.075   0.430   0.588 -0.0446 -0.4905 -0.2056
 4658TIP3    H135533   1.165   0.433   0.622 -0.8470  0.5960  1.9977
 4658TIP3    H235534   1.081   0.474   0.502  1.2834  0.9676  0.5684
 4659TIP3   OH235535   6.530   2.376   0.119 -0.3526  0.0123 -0.4146
 4659TIP3    H135536   6.542   2.355   0.027 -2.2796 -0.2236 -0.6507
 4659TIP3    H235537   6.563   2.299   0.166  1.3962  0.4635 -0.8223
 4660TIP3   OH235538   0.395   1.067   7.681  0.3742  0.1358  0.1541
 4660TIP3    H135539   0.444   0.991   7.713 -0.5724 -0.2331  0.7684
 4660TIP3    H235540   0.402   1.131   7.752 -0.3221 -0.0533  0.3980
 4661TIP3   OH235541   4.568   3.590   1.705 -0.6673 -0.4053 -0.7040
 4661TIP3    H135542   4.561   3.637   1.788 -0.1156 -0.4642 -0.6188
 4661TIP3    H235543   4.595   3.501   1.729 -0.0057 -0.2825 -0.9780
 4662TIP3   OH235544   2.512   5.753   8.331  0.3218 -0.6287 -0.3411
 4662TIP3    H135545   2.501   5.677   8.274  0.1131 -1.8046  1.1984
 4662TIP3    H235546   2.591   5.734   8.382  0.0563  0.0043  0.3276
 4663TIP3   OH235547   4.976   6.413   0.964 -0.1020 -0.1135  0.2453
 4663TIP3    H135548   5.062   6.376   0.943 -1.1483 -2.7814  0.2803
 4663TIP3    H235549   4.988   6.508   0.955  2.7145 -0.4174 -0.1388
 4664TIP3   OH235550   0.769   3.251   8.074 -0.7698  0.1838 -0.4959
 4664TIP3    H135551   0.751   3.271   8.166  0.1657 -0.1910 -0.2149
 4664TIP3    H235552   0.834   3.316   8.047  0.7185 -1.1142 -0.1849
 4665TIP3   OH235553   2.965   2.688   6.266 -0.8403 -0.6881 -1.2366
 4665TIP3    H135554   3.043   2.731   6.230 -0.4055  1.2485  1.6675
 4665TIP3    H235555   2.998   2.607   6.305  0.0975  0.6997  1.0705
 4666TIP3   OH235556   3.234   3.127   1.340 -0.1489 -0.6419 -0.2817
 4666TIP3    H135557   3.290   3.129   1.262  0.3503  2.4645  0.0366
 4666TIP3    H235558   3.154   3.171   1.313 -0.0762  0.2172  0.8562
 4667TIP3   OH235559   0.882   2.372   7.299 -0.3268 -0.0462 -0.7693
 4667TIP3    H135560   0.868   2.306   7.231 -1.6197  1.0229 -1.6101
 4667TIP3    H235561   0.977   2.380   7.307 -0.1295 -2.2346 -0.3768
 4668TIP3   OH235562   6.699   4.066   0.986  0.3014 -0.2754  0.0125
 4668TIP3    H135563   6.675   4.028   0.901  0.2534  0.6319 -0.3930
 4668TIP3    H235564   6.755   4.000   1.027  1.7238 -0.0300 -1.4473
 4669TIP3   OH235565   1.525   2.137   7.870  0.0683  0.1447 -0.0046
 4669TIP3    H135566   1.524   2.216   7.815 -0.5728  0.9332  1.1143
 4669TIP3    H235567   1.530   2.170   7.959 -1.7905 -1.0198  0.5803
 4670TIP3   OH235568   3.431   6.621   8.214  0.4739  0.4524 -0.0779
 4670TIP3    H135569   3.392   6.556   8.272  2.2522 -0.1047  0.5541
 4670TIP3    H235570   3.433   6.578   8.128  0.1688  0.3033 -0.0121
 4671TIP3   OH235571   2.532   4.224   6.613 -0.3416  0.0547 -0.0529
 4671TIP3    H135572   2.579   4.242   6.531 -1.1446 -2.2861 -1.1099
 4671TIP3    H235573   2.504   4.311   6.644  0.2696  1.0401 -2.0643
 4672TIP3   OH235574   4.847   1.235   2.387 -0.3166 -0.6742  0.2708
 4672TIP3    H135575   4.796   1.183   2.324  0.9951 -1.2204 -0.3664
 4672TIP3    H235576   4.800   1.319   2.391 -1.0297 -1.0111 -0.6175
 4673TIP3   OH235577   5.691   6.880   1.386 -0.3578 -0.1496 -1.2692
 4673TIP3    H135578   5.613   6.920   1.348 -0.0391  0.5491 -1.1915
 4673TIP3    H235579   5.753   6.952   1.397  0.3740 -0.7212 -1.5100
 4674TIP3   OH235580   1.003   3.283   6.133 -0.3213  0.0378  0.0619
 4674TIP3    H135581   0.965   3.328   6.058  0.1801  0.3115 -0.0325
 4674TIP3    H235582   1.026   3.353   6.194 -2.9242 -0.2866  1.5562
 4675TIP3   OH235583   2.182   2.397   6.236 -0.6400 -0.0122 -0.0056
 4675TIP3    H135584   2.132   2.467   6.278 -0.8238 -0.5247  0.6410
 4675TIP3    H235585   2.216   2.437   6.156  0.5752  1.2788  1.1205
 4676TIP3   OH235586   4.644   4.315   6.924 -0.6461  0.1953  0.4510
 4676TIP3    H135587   4.681   4.274   7.003  1.1319 -0.2575 -0.5611
 4676TIP3    H235588   4.614   4.401   6.955  1.2933  0.6019  1.4043
 4677TIP3   OH235589   2.849   0.020   1.210 -0.3775 -0.7230 -0.7469
 4677TIP3    H135590   2.826  -0.017   1.295 -0.1140 -1.5470 -1.0217
 4677TIP3    H235591   2.927   0.073   1.227 -1.8734  1.3756  0.0236
 4678TIP3   OH235592   6.148   3.912   7.326 -0.6324  0.3061  0.0879
 4678TIP3    H135593   6.202   3.833   7.334 -0.9492 -0.0788 -1.3369
 4678TIP3    H235594   6.171   3.964   7.403  1.2568 -0.1595 -0.1117
 4679TIP3   OH235595   4.572   1.741   1.222  0.1270 -0.0156 -0.3447
 4679TIP3    H135596   4.563   1.817   1.279 -0.8250 -1.0727  0.9799
 4679TIP3    H235597   4.662   1.746   1.189 -0.7162  3.2371 -2.6814
 4680TIP3   OH235598   5.340   5.519   6.406 -0.0632 -0.0488 -0.2632
 4680TIP3    H135599   5.416   5.572   6.382 -0.1084 -0.1252 -0.5771
 4680TIP3    H235600   5.373   5.429   6.405 -0.1034 -0.0647 -0.1816
 4681TIP3   OH235601   0.800   6.354   7.116 -0.5633  0.1577 -0.6625
 4681TIP3    H135602   0.734   6.411   7.153 -1.3703 -0.3577 -1.2729
 4681TIP3    H235603   0.759   6.267   7.112  0.7219 -0.5464  0.4992
 4682TIP3   OH235604   1.892   0.066   0.479  0.5730  0.1277  0.4333
 4682TIP3    H135605   1.833   0.007   0.525  1.9801  0.9159  3.5200
 4682TIP3    H235606   1.967   0.076   0.538  2.3471  1.6382 -1.8854
 4683TIP3   OH235607   0.237   5.972   0.158 -0.3690  0.6865  0.4235
 4683TIP3    H135608   0.330   5.988   0.141 -0.4188 -0.1782 -0.8054
 4683TIP3    H235609   0.194   5.990   0.074 -1.2710  0.7148  0.8782
 4684TIP3   OH235610   2.082   5.472   7.361  0.7149 -0.2143  0.2093
 4684TIP3    H135611   2.133   5.552   7.355  0.4938  0.0988  2.0013
 4684TIP3    H235612   2.115   5.428   7.439  0.8074 -1.8796 -0.7070
 4685TIP3   OH235613   4.549   5.805   0.788 -0.3433  0.0010  0.4240
 4685TIP3    H135614   4.521   5.719   0.756  1.1945 -0.1116 -0.7806
 4685TIP3    H235615   4.635   5.789   0.826 -0.9798  0.6536  2.2578
 4686TIP3   OH235616   0.812   6.488   1.271 -0.1581 -0.0951  0.2411
 4686TIP3    H135617   0.850   6.564   1.315  1.2552 -1.0027  0.6597
 4686TIP3    H235618   0.829   6.504   1.178 -0.3219  0.3368  0.2837
 4687TIP3   OH235619   1.703   2.885   7.695  0.2962  0.1852  0.3861
 4687TIP3    H135620   1.787   2.847   7.671 -0.2080 -1.3260  0.9069
 4687TIP3    H235621   1.662   2.819   7.752  0.2748  2.4100  3.1634
 4688TIP3   OH235622   4.766   5.424   0.073  0.4528 -0.2151  0.2500
 4688TIP3    H135623   4.762   5.356   0.006  0.4701 -1.1813  1.2178
 4688TIP3    H235624   4.808   5.498   0.029  0.9470 -1.0074 -0.6484
 4689TIP3   OH235625   1.430   5.403   7.274 -0.1898  0.5596  0.5328
 4689TIP3    H135626   1.469   5.316   7.275  1.0058  1.0710  1.3116
 4689TIP3    H235627   1.497   5.459   7.313  0.1022  2.2697 -2.2130
 4690TIP3   OH235628   0.823   6.570   8.243  0.3309  0.1809 -0.5865
 4690TIP3    H135629   0.732   6.539   8.240  0.5644 -0.5144 -0.8118
 4690TIP3    H235630   0.829   6.633   8.171  0.3254 -0.6469 -1.3362
 4691TIP3   OH235631   2.511   2.661   7.822 -0.3333 -0.2253 -0.1365
 4691TIP3    H135632   2.477   2.682   7.909  0.2628 -0.3413  0.1308
 4691TIP3    H235633   2.570   2.734   7.801  0.3259 -0.7099  0.0040
 4692TIP3   OH235634   5.901   5.683   7.609  0.1193 -0.4394  0.3241
 4692TIP3    H135635   5.928   5.720   7.525  0.1035 -0.5223  0.2826
 4692TIP3    H235636   5.809   5.660   7.596  0.0648 -0.2800  0.4230
 4693TIP3   OH235637   3.635   5.587   1.326  0.1203 -0.0581  0.6424
 4693TIP3    H135638   3.708   5.525   1.327 -0.6691 -1.0338  2.4950
 4693TIP3    H235639   3.649   5.644   1.401 -0.4350  0.4788  0.3532
 4694TIP3   OH235640   1.195   4.430   8.511 -0.1789 -0.3698 -0.0816
 4694TIP3    H135641   1.119   4.485   8.488 -0.2864  0.4133  1.9746
 4694TIP3    H235642   1.268   4.491   8.515  0.0743 -0.7055  0.4116
 4695TIP3   OH235643   3.484   2.531   0.889 -0.7872 -0.6281  0.1521
 4695TIP3    H135644   3.430   2.579   0.952  0.3501 -0.1450  0.7963
 4695TIP3    H235645   3.455   2.563   0.804 -2.1030 -1.0187  0.4343
 4696TIP3   OH235646   0.558   1.529   0.904  0.0060  0.2277  0.7653
 4696TIP3    H135647   0.469   1.504   0.927 -0.5861  1.6517  0.1941
 4696TIP3    H235648   0.612   1.499   0.977 -0.7046 -1.9294  0.4698
 4697TIP3   OH235649   5.140   5.745   0.976 -0.5510 -0.2623  0.1655
 4697TIP3    H135650   5.135   5.832   1.014 -1.1177  0.1227 -0.7575
 4697TIP3    H235651   5.145   5.760   0.881  2.0223 -1.1471  0.0760
 4698TIP3   OH235652   6.207   5.262   8.471  0.1948 -0.3982 -0.9350
 4698TIP3    H135653   6.199   5.221   8.557  2.3562 -0.5550 -0.7735
 4698TIP3    H235654   6.181   5.353   8.486  2.5054  0.1180  0.4047
 4699TIP3   OH235655   1.444   0.017   7.886 -1.1757 -0.0006  0.0657
 4699TIP3    H135656   1.448   0.060   7.971 -0.4940 -0.8922  0.5000
 4699TIP3    H235657   1.501   0.070   7.829  1.2052 -1.3125  1.0788
 4700TIP3   OH235658   6.677   4.858   0.261  0.4518 -0.3374  0.5526
 4700TIP3    H135659   6.687   4.876   0.354 -0.6844 -0.8053  0.7813
 4700TIP3    H235660   6.628   4.776   0.257 -0.0690  0.0020 -0.4485
 4701TIP3   OH235661   2.485   1.492   0.553 -0.4178  0.3654  0.2202
 4701TIP3    H135662   2.502   1.420   0.614  0.6124  1.0136  0.7156
 4701TIP3    H235663   2.391   1.510   0.563 -0.4571 -0.1807  0.8947
 4702TIP3   OH235664   6.882   0.191   7.086 -0.4576 -0.0174  0.6578
 4702TIP3    H135665   6.958   0.243   7.062 -0.5853  0.4550  1.2616
 4702TIP3    H235666   6.851   0.154   7.004 -0.3373  0.8270  0.2212
 4703TIP3   OH235667   2.335   1.069   7.765  0.7739 -0.7167 -0.3570
 4703TIP3    H135668   2.412   1.083   7.820  0.7111  1.0464 -0.6463
 4703TIP3    H235669   2.370   1.061   7.677  0.7445 -1.8030 -0.2813
 4704TIP3   OH235670   5.862   3.723   7.078  0.4576  0.2965 -0.2456
 4704TIP3    H135671   5.806   3.788   7.036 -0.0447 -0.7338 -1.2512
 4704TIP3    H235672   5.882   3.759   7.164 -1.6215  0.7910  0.0889
 4705TIP3   OH235673   6.478   6.867   6.956  0.7236 -0.1515 -0.1775
 4705TIP3    H135674   6.445   6.947   6.915  1.6158 -0.3040 -1.2332
 4705TIP3    H235675   6.568   6.886   6.979  0.4498 -0.3151  1.1066
 4706TIP3   OH235676   5.449   0.136   6.450 -0.1450 -0.1003  0.0946
 4706TIP3    H135677   5.481   0.046   6.440 -0.3477 -0.0668 -0.9420
 4706TIP3    H235678   5.529   0.189   6.460  0.1906 -0.0312 -2.3437
 4707TIP3   OH235679   0.992   6.670   7.862  0.0405  0.1349  0.1431
 4707TIP3    H135680   0.996   6.587   7.909 -2.5760 -0.7557 -1.0090
 4707TIP3    H235681   1.071   6.671   7.808  1.3386 -0.4125  1.9305
 4708TIP3   OH235682   5.848   4.380   8.227  0.0230  0.4452  0.6717
 4708TIP3    H135683   5.796   4.420   8.157  0.7483  0.9351  0.4018
 4708TIP3    H235684   5.809   4.293   8.239  0.1787  0.1684 -0.6770
 4709TIP3   OH235685   6.527   1.394   6.621  0.3261 -0.0570 -0.0685
 4709TIP3    H135686   6.438   1.358   6.615 -0.4241  1.9026 -2.1868
 4709TIP3    H235687   6.569   1.341   6.688 -2.7449 -0.4139  1.7828
 4710TIP3   OH235688   0.472   2.410   7.385 -0.0827  0.0756  0.5951
 4710TIP3    H135689   0.564   2.435   7.395  0.1236 -0.5161  0.1993
 4710TIP3    H235690   0.428   2.454   7.457  0.5410  0.2104  0.9044
 4711TIP3   OH235691   1.557   1.446   6.346  0.9661 -0.1940 -0.0392
 4711TIP3    H135692   1.617   1.502   6.297  0.7276 -0.2939 -0.4519
 4711TIP3    H235693   1.604   1.363   6.357  1.1205 -0.0826  0.1231
 4712TIP3   OH235694   0.940   6.118   6.795  0.4410 -0.1635  0.1570
 4712TIP3    H135695   1.028   6.120   6.833  0.2672 -2.0154  0.7759
 4712TIP3    H235696   0.906   6.031   6.818 -1.0174 -0.0226 -1.2843
 4713TIP3   OH235697   5.873   5.343   0.103 -0.0862 -0.5197  0.7824
 4713TIP3    H135698   5.826   5.344   0.019 -1.1059  2.2822  1.3073
 4713TIP3    H235699   5.862   5.431   0.138  0.7849 -1.4566  3.6377
 4714TIP3   OH235700   5.941   6.892   0.524 -0.2489  0.3780 -0.0757
 4714TIP3    H135701   5.926   6.845   0.606 -0.4334 -0.6083 -0.6526
 4714TIP3    H235702   5.901   6.977   0.538  1.6926  1.0850  1.6495
 4715TIP3   OH235703   4.874   5.395   8.208 -0.3675  1.0824  0.1024
 4715TIP3    H135704   4.786   5.417   8.236 -0.1719  0.6206  1.1130
 4715TIP3    H235705   4.862   5.345   8.127 -1.0916  0.1988  0.7379
 4716TIP3   OH235706   3.356   0.715   7.328 -0.2950  0.7536 -0.3254
 4716TIP3    H135707   3.292   0.756   7.271 -2.5611 -1.1115  0.6952
 4716TIP3    H235708   3.359   0.623   7.299  1.3392  0.6068  0.1775
 4717TIP3   OH235709   1.959   6.435   2.120  0.1057  0.4934 -0.1862
 4717TIP3    H135710   1.876   6.389   2.135 -0.5483  1.3724 -0.9860
 4717TIP3    H235711   1.992   6.454   2.208 -0.8775  0.7205  0.1437
 4718TIP3   OH235712   2.807   1.473   7.671  0.3606  0.4744 -0.7755
 4718TIP3    H135713   2.861   1.534   7.721 -0.3573 -1.2708  2.3497
 4718TIP3    H235714   2.806   1.509   7.582  2.9261  2.9640  0.0762
 4719TIP3   OH235715   5.004   0.946   1.248 -0.6199 -0.3136  0.8505
 4719TIP3    H135716   4.942   0.874   1.237 -1.6808  0.6355  0.3708
 4719TIP3    H235717   5.085   0.915   1.208 -1.1988 -1.0595  0.2301
 4720TIP3   OH235718   5.965   3.405   0.868  0.1674  0.2113 -0.1842
 4720TIP3    H135719   6.033   3.341   0.846 -0.5873 -0.3102 -1.0959
 4720TIP3    H235720   6.004   3.460   0.935  0.8175 -1.2546  0.6782
 4721TIP3   OH235721   4.226   0.841   0.061  0.1307  0.7205 -0.5998
 4721TIP3    H135722   4.199   0.760   0.018  1.0013  0.5353 -0.8258
 4721TIP3    H235723   4.322   0.836   0.063  0.2148  1.8518 -0.8521
 4722TIP3   OH235724   4.516   3.115   6.358 -0.1622  0.3022  0.2715
 4722TIP3    H135725   4.602   3.073   6.350 -1.1309 -2.0000  0.9557
 4722TIP3    H235726   4.484   3.122   6.268  0.8020  1.4242 -0.0135
 4723TIP3   OH235727   0.299   0.170   0.998 -0.1125 -0.2081  0.1203
 4723TIP3    H135728   0.370   0.219   1.038  0.1575 -0.1983 -0.3682
 4723TIP3    H235729   0.226   0.179   1.059  0.8146 -1.6816  1.5216
 4724TIP3   OH235730   1.905   4.486   0.872  0.8026 -0.6171 -0.2066
 4724TIP3    H135731   1.906   4.457   0.963 -0.2875 -2.3267 -0.6905
 4724TIP3    H235732   1.856   4.568   0.873 -1.9587 -2.1818  0.3853
 4725TIP3   OH235733   6.351   0.270   1.309 -0.0831 -0.0574 -0.2481
 4725TIP3    H135734   6.295   0.212   1.361 -1.0296  0.3396 -0.8085
 4725TIP3    H235735   6.415   0.211   1.269 -0.1758 -0.5335  0.2840
 4726TIP3   OH235736   4.509   0.613   2.561  0.0080  0.4585  0.0438
 4726TIP3    H135737   4.583   0.554   2.545 -1.2464 -1.4032  0.7484
 4726TIP3    H235738   4.535   0.696   2.521  2.1558 -0.3516 -0.3563
 4727TIP3   OH235739   3.092   3.459   8.539  0.4293  0.3679  0.2118
 4727TIP3    H135740   3.181   3.489   8.557  0.4169  0.4228  0.1824
 4727TIP3    H235741   3.092   3.367   8.565  0.8931 -0.0263 -1.1061
 4728TIP3   OH235742   1.827   4.369   0.127  0.5409  0.0984 -0.0119
 4728TIP3    H135743   1.770   4.355   0.203 -0.4583 -0.5057 -0.8475
 4728TIP3    H235744   1.800   4.303   0.064  2.1329 -0.1421 -0.4801
 4729TIP3   OH235745   2.915   5.143   0.661 -0.4247 -0.5508 -0.2356
 4729TIP3    H135746   2.900   5.224   0.709 -1.6686 -0.2293 -1.1181
 4729TIP3    H235747   2.828   5.105   0.650  0.2466 -2.6545  1.2389
 4730TIP3   OH235748   1.588   4.451   0.610 -0.0282  0.1965  0.0086
 4730TIP3    H135749   1.555   4.535   0.640  0.2901 -0.0723  1.1686
 4730TIP3    H235750   1.566   4.390   0.680  2.1120 -0.1621  0.4377
 4731TIP3   OH235751   2.972   4.559   7.528  0.2564 -0.4119  0.0870
 4731TIP3    H135752   3.054   4.513   7.546 -0.2404 -0.4522  2.6974
 4731TIP3    H235753   2.906   4.510   7.578 -0.6427  1.8797  1.2896
 4732TIP3   OH235754   0.046   4.733   7.255 -0.9637 -0.4651  0.7583
 4732TIP3    H135755   0.129   4.717   7.301 -0.6170 -2.9304 -0.5435
 4732TIP3    H235756   0.028   4.651   7.210 -4.6294 -0.3392  1.6889
 4733TIP3   OH235757   5.565   1.750   6.819  0.3411 -0.7193  0.0307
 4733TIP3    H135758   5.540   1.787   6.734 -0.0542 -1.2714 -0.1059
 4733TIP3    H235759   5.659   1.766   6.826  0.2697 -0.1590 -0.2521
 4734TIP3   OH235760   3.218   5.235   0.475 -0.1987  0.1825 -1.1426
 4734TIP3    H135761   3.144   5.193   0.431  0.4136 -0.4911 -1.5550
 4734TIP3    H235762   3.271   5.161   0.507 -0.3057  0.6478  0.1836
 4735TIP3   OH235763   0.025   3.178   0.853  0.2478  0.6033  0.8306
 4735TIP3    H135764  -0.024   3.113   0.802 -1.2468  2.3465 -0.0794
 4735TIP3    H235765  -0.038   3.211   0.917 -0.1567  3.3926 -0.8070
 4736TIP3   OH235766   4.276   6.557   8.506  0.5397  0.2440  0.2407
 4736TIP3    H135767   4.250   6.542   8.416  0.1680  0.3248  0.3300
 4736TIP3    H235768   4.311   6.473   8.536 -0.6830 -0.2088  0.4625
 4737TIP3   OH235769   2.240   6.533   7.334  0.3724  0.4029  0.2394
 4737TIP3    H135770   2.174   6.480   7.379  1.2353 -0.9603 -0.0410
 4737TIP3    H235771   2.195   6.615   7.313 -1.4435 -0.7462 -0.5712
 4738TIP3   OH235772   6.023   2.970   7.549  0.0047 -0.2328  0.4450
 4738TIP3    H135773   6.049   2.977   7.457 -1.4494 -1.8322 -0.1610
 4738TIP3    H235774   5.959   3.040   7.562 -1.4458 -1.3196 -0.4603
 4739TIP3   OH235775   3.217   5.831   0.834  0.2652  0.0997 -0.4327
 4739TIP3    H135776   3.241   5.797   0.920  0.3620 -0.1110 -0.5426
 4739TIP3    H235777   3.282   5.793   0.775  0.3682  0.4659 -0.5579
 4740TIP3   OH235778   4.190   4.682   8.467  0.8882 -0.4663  0.6805
 4740TIP3    H135779   4.105   4.711   8.434  1.7701 -0.4980 -1.8460
 4740TIP3    H235780   4.169   4.615   8.532 -1.1543 -3.6344 -2.8051
 4741TIP3   OH235781   0.721   4.391   0.434  0.7316  0.3333  0.8682
 4741TIP3    H135782   0.767   4.450   0.493  0.4538  1.0249  0.4040
 4741TIP3    H235783   0.737   4.426   0.347  0.7053 -0.3774  0.5704
 4742TIP3   OH235784   5.241   4.310   0.501  0.6441  0.3713 -0.4536
 4742TIP3    H135785   5.202   4.312   0.414 -0.1936 -0.4961 -0.1065
 4742TIP3    H235786   5.325   4.265   0.489 -0.6237 -2.1746 -0.3952
 4743TIP3   OH235787   4.231   2.468   1.574 -0.2477  0.3185  0.1974
 4743TIP3    H135788   4.194   2.466   1.662  0.4389 -1.6147  0.4818
 4743TIP3    H235789   4.243   2.376   1.550  0.7840  0.8174 -1.4080
 4744TIP3   OH235790   2.564   2.927   6.612 -0.4422 -0.3783  0.2612
 4744TIP3    H135791   2.559   3.010   6.563  0.8398 -0.2768  0.2761
 4744TIP3    H235792   2.626   2.945   6.682 -0.1750 -1.3458  0.2840
 4745TIP3   OH235793   3.746   3.721   1.120  0.5028 -0.1380  0.3638
 4745TIP3    H135794   3.720   3.790   1.181  0.3931 -0.5962  0.8396
 4745TIP3    H235795   3.791   3.767   1.049 -0.6801  0.5708  0.0448
 4746TIP3   OH235796   5.120   0.301   1.470  0.0098  0.1799 -0.4291
 4746TIP3    H135797   5.124   0.396   1.482  0.2986  0.2065 -0.7031
 4746TIP3    H235798   5.098   0.290   1.377  1.2628 -0.0112 -0.7258
 4747TIP3   OH235799   4.230   3.982   7.926 -0.3927  0.0174  0.1701
 4747TIP3    H135800   4.294   3.991   7.855  0.0713  0.1782  0.6091
 4747TIP3    H235801   4.220   3.887   7.937 -0.1895 -0.0090  0.1350
 4748TIP3   OH235802   1.611   4.841   1.451 -0.0708 -0.4407 -0.0354
 4748TIP3    H135803   1.525   4.882   1.445  0.7194  1.4860  0.9570
 4748TIP3    H235804   1.672   4.914   1.459  1.6636 -1.7634 -0.5396
 4749TIP3   OH235805   4.726   1.775   8.231 -0.5809 -0.0634 -0.6555
 4749TIP3    H135806   4.719   1.809   8.141 -0.3955 -1.3535 -1.1835
 4749TIP3    H235807   4.779   1.839   8.277 -1.1642  0.9142 -1.3146
 4750TIP3   OH235808   6.764   2.308   1.068  0.4281  0.0228 -0.1631
 4750TIP3    H135809   6.845   2.318   1.017  0.6010 -0.3426  0.0322
 4750TIP3    H235810   6.764   2.216   1.094 -0.6340 -0.2800 -1.1331
 4751TIP3   OH235811   4.128   5.847   6.548 -0.2709  0.7958 -0.2661
 4751TIP3    H135812   4.175   5.798   6.480  0.0498  1.0636 -0.2371
 4751TIP3    H235813   4.196   5.877   6.608 -0.2314  2.7810 -1.2107
 4752TIP3   OH235814   0.481   5.260   8.217  0.0438 -0.2707 -0.1688
 4752TIP3    H135815   0.523   5.307   8.288 -0.2827 -0.6521  0.2839
 4752TIP3    H235816   0.410   5.211   8.259 -0.7060  0.1828 -0.8827
 4753TIP3   OH235817   2.356   6.690   7.024 -0.1691  0.0635 -0.1624
 4753TIP3    H135818   2.270   6.691   6.982 -0.8204 -2.1715  0.9106
 4753TIP3    H235819   2.414   6.649   6.960  0.1022  1.4580 -0.8394
 4754TIP3   OH235820   3.848   0.257   2.456 -0.7546  0.8473 -0.1265
 4754TIP3    H135821   3.928   0.226   2.412  2.3177  2.0878  3.9197
 4754TIP3    H235822   3.829   0.341   2.416 -0.3106  0.3643 -1.4148
 4755TIP3   OH235823   5.639   5.581   1.470 -0.1356 -0.0799  0.1919
 4755TIP3    H135824   5.662   5.643   1.401  2.3783 -1.9446 -0.8334
 4755TIP3    H235825   5.545   5.567   1.460  0.1274 -0.3119 -2.9831
 4756TIP3   OH235826   1.756   6.185   6.670 -0.0524 -0.0204 -0.4322
 4756TIP3    H135827   1.709   6.264   6.693 -0.4581 -0.1734 -0.7194
 4756TIP3    H235828   1.688   6.117   6.664  0.2984 -0.4086 -0.1036
 4757TIP3   OH235829   2.831   5.698   8.103 -0.3825 -0.1113  0.1916
 4757TIP3    H135830   2.826   5.614   8.058  1.7955  0.3615 -1.0726
 4757TIP3    H235831   2.887   5.752   8.048 -0.9760  1.8955  1.4284
 4758TIP3   OH235832   6.252   4.644   0.365 -0.1027 -0.0362 -0.4523
 4758TIP3    H135833   6.192   4.648   0.439 -0.3766 -0.4933 -0.6456
 4758TIP3    H235834   6.241   4.727   0.320 -0.8579 -0.2605 -0.6900
 4759TIP3   OH235835   3.223   4.639   0.498 -0.2047 -0.0879  0.0619
 4759TIP3    H135836   3.249   4.615   0.586  0.6500 -0.6886 -0.3416
 4759TIP3    H235837   3.150   4.700   0.510 -0.7772 -0.9472  1.1548
 4760TIP3   OH235838   5.288   0.866   6.972  0.6932  0.2765 -0.2144
 4760TIP3    H135839   5.296   0.938   7.035 -0.0927  0.4121 -0.2650
 4760TIP3    H235840   5.216   0.891   6.915 -0.5713 -1.1802  0.6478
 4761TIP3   OH235841   1.583   6.627   8.409  0.0939  0.1958 -0.6466
 4761TIP3    H135842   1.621   6.597   8.327 -2.7376 -1.9858 -1.3390
 4761TIP3    H235843   1.591   6.552   8.468 -0.3992  0.7433  0.1370
 4762TIP3   OH235844   4.893   3.863   0.957 -0.4699  0.2489  0.2280
 4762TIP3    H135845   4.804   3.899   0.958 -0.5977 -0.0154  1.6687
 4762TIP3    H235846   4.905   3.828   0.869 -2.0608 -0.3494  0.2207
 4763TIP3   OH235847   6.705   6.550   0.533 -0.0218  0.1095 -0.1906
 4763TIP3    H135848   6.779   6.501   0.497 -0.2433 -2.0397  2.0119
 4763TIP3    H235849   6.696   6.517   0.623 -2.6312  1.4926  0.1446
 4764TIP3   OH235850   2.881   0.722   7.891 -0.3097 -0.1992 -1.0965
 4764TIP3    H135851   2.817   0.663   7.931  1.2382 -1.1946  0.0658
 4764TIP3    H235852   2.856   0.726   7.799 -1.6486 -1.0467 -0.7993
 4765TIP3   OH235853   0.733   4.787   6.324 -0.0833 -0.1593 -0.1791
 4765TIP3    H135854   0.805   4.734   6.288 -0.7967 -1.0299 -0.3454
 4765TIP3    H235855   0.720   4.856   6.260  1.4655  0.7844  0.4757
 4766TIP3   OH235856   6.618   6.101   7.314 -0.6069 -0.0217  0.1877
 4766TIP3    H135857   6.617   6.074   7.406 -0.1574  1.2666  0.5997
 4766TIP3    H235858   6.548   6.166   7.308  0.1201  0.7617 -0.0794
 4767TIP3   OH235859   6.507   4.810   1.983  0.5209  0.1647 -0.5784
 4767TIP3    H135860   6.567   4.751   1.938 -0.7339 -0.8301 -1.0343
 4767TIP3    H235861   6.454   4.752   2.038 -0.9559  0.8081 -1.2647
 4768TIP3   OH235862   3.008   5.355   6.918 -0.1445  0.5457  0.5901
 4768TIP3    H135863   3.024   5.264   6.941  0.7747 -0.1943 -2.4731
 4768TIP3    H235864   3.078   5.404   6.962 -0.4152 -0.2446  1.9340
 4769TIP3   OH235865   4.002   2.959   6.608 -0.2363 -0.4709  0.3654
 4769TIP3    H135866   3.925   2.999   6.568  0.0416 -0.2807  0.0160
 4769TIP3    H235867   4.041   2.905   6.539  0.9158  0.7905 -0.0108
 4770TIP3   OH235868   1.158   1.939   8.423 -0.0853  0.4977 -0.5642
 4770TIP3    H135869   1.185   1.862   8.374 -1.3692 -0.0062 -0.5066
 4770TIP3    H235870   1.121   1.905   8.504  0.2111  1.2332 -0.0996
 4771TIP3   OH235871   6.386   0.842   0.397 -0.3050  0.1706 -0.3845
 4771TIP3    H135872   6.383   0.889   0.480 -1.3341 -1.6860  0.7024
 4771TIP3    H235873   6.319   0.885   0.343 -0.3387  0.7578  0.1129
 4772TIP3   OH235874   4.844   1.419   1.447  0.5144 -0.4020 -0.2293
 4772TIP3    H135875   4.913   1.367   1.489  0.6178 -0.4461 -0.4553
 4772TIP3    H235876   4.826   1.373   1.365 -1.5108 -1.8094  0.8994
 4773TIP3   OH235877   6.146   2.662   0.906 -0.1407 -0.1058 -0.1680
 4773TIP3    H135878   6.161   2.756   0.921  0.3012  0.0767 -1.5974
 4773TIP3    H235879   6.063   2.658   0.860 -0.1113 -0.4120 -0.1948
 4774TIP3   OH235880   3.668   2.582   0.176  0.2883  0.1025 -0.0620
 4774TIP3    H135881   3.663   2.512   0.111 -0.3730 -0.1156  0.2123
 4774TIP3    H235882   3.640   2.660   0.128  0.4510  0.0705 -0.2115
 4775TIP3   OH235883   0.514   2.135   5.939  1.0319  0.7768  0.3493
 4775TIP3    H135884   0.526   2.219   5.984 -1.4850  1.9382 -0.9141
 4775TIP3    H235885   0.438   2.096   5.983  1.0064  0.0632 -0.3171
 4776TIP3   OH235886   1.549   3.250   7.327 -0.1729  0.2085 -0.4052
 4776TIP3    H135887   1.576   3.234   7.236  1.3958 -1.9942  0.3843
 4776TIP3    H235888   1.597   3.328   7.353  0.4590  0.0501 -1.0597
 4777TIP3   OH235889   2.207   0.699   2.152  0.1630 -0.0788  0.0063
 4777TIP3    H135890   2.185   0.791   2.136  0.0130 -0.3147 -1.1785
 4777TIP3    H235891   2.302   0.699   2.166  0.2392  0.1851 -0.5123
 4778TIP3   OH235892   2.399   0.339   7.319  0.1979 -0.5024 -0.0637
 4778TIP3    H135893   2.343   0.312   7.391 -0.5774 -0.7313 -0.7390
 4778TIP3    H235894   2.441   0.257   7.290  0.0719 -0.5045 -0.2404
 4779TIP3   OH235895   1.643   5.947   1.337 -0.5729  0.1520  0.2953
 4779TIP3    H135896   1.641   5.917   1.246 -1.1147 -1.6148  0.8453
 4779TIP3    H235897   1.638   5.866   1.389  0.3423  1.0854  1.9064
 4780TIP3   OH235898   1.523   0.658   6.986 -0.1703 -0.3609 -0.2156
 4780TIP3    H135899   1.546   0.739   6.940 -0.7309 -0.8463 -1.3816
 4780TIP3    H235900   1.588   0.594   6.958  0.1448 -0.3743  0.5383
 4781TIP3   OH235901   1.637   1.385   0.271 -0.3415 -0.4101  0.7413
 4781TIP3    H135902   1.702   1.454   0.281 -0.5279 -0.0635 -0.2710
 4781TIP3    H235903   1.686   1.311   0.235 -0.4223 -0.2759  0.3439
 4782TIP3   OH235904   1.640   0.710   1.967  0.2514 -0.3417 -0.5624
 4782TIP3    H135905   1.693   0.636   1.998  1.1615  0.0749 -1.0809
 4782TIP3    H235906   1.554   0.696   2.006  0.6481 -1.2219  0.0258
 4783TIP3   OH235907   4.090   2.468   6.967 -0.2306  0.4931  0.2076
 4783TIP3    H135908   4.033   2.407   6.922 -1.7035  0.9138  1.4038
 4783TIP3    H235909   4.060   2.466   7.058  1.9309  0.4477  0.9729
 4784TIP3   OH235910   6.696   1.251   5.726  0.3051 -0.0030 -0.1298
 4784TIP3    H135911   6.685   1.178   5.787 -0.3573  0.6800  0.6026
 4784TIP3    H235912   6.789   1.270   5.728  0.2591  0.1966  0.9305
 4785TIP3   OH235913   3.667   2.834   1.633 -0.1880 -0.0154  0.0084
 4785TIP3    H135914   3.584   2.880   1.620 -0.2205 -0.6544 -2.5507
 4785TIP3    H235915   3.659   2.794   1.720 -0.4540  4.0300  2.0373
 4786TIP3   OH235916   4.560   0.072   0.756 -0.2292 -0.3276  0.3507
 4786TIP3    H135917   4.547   0.110   0.843  2.2545 -1.2955  1.2162
 4786TIP3    H235918   4.555   0.147   0.696 -0.1581  0.6342  1.5125
 4787TIP3   OH235919   6.655   5.011   1.147  0.3938 -0.7719  0.0713
 4787TIP3    H135920   6.729   5.056   1.187 -0.7667  0.6929  0.6462
 4787TIP3    H235921   6.584   5.018   1.211 -0.2013 -2.3593 -0.3616
 4788TIP3   OH235922   6.821   0.303   6.085 -0.1255  1.0394  0.2280
 4788TIP3    H135923   6.911   0.279   6.062 -0.9861 -1.3274 -0.8887
 4788TIP3    H235924   6.793   0.362   6.015 -0.2421 -0.1816 -0.7717
 4789TIP3   OH235925   0.591   3.380   6.636  0.1486 -0.3124  0.0471
 4789TIP3    H135926   0.631   3.467   6.636 -0.2034 -0.1504 -0.4207
 4789TIP3    H235927   0.512   3.390   6.689  0.0871 -0.3382 -0.0401
 4790TIP3   OH235928   6.503   5.610   6.843  0.6841  0.1672 -0.0399
 4790TIP3    H135929   6.520   5.690   6.794  0.4917 -0.3542 -0.9672
 4790TIP3    H235930   6.555   5.620   6.923  0.2211  1.4612  0.1226
 4791TIP3   OH235931   2.822   3.506   7.839  0.3142  0.0660  0.0454
 4791TIP3    H135932   2.752   3.468   7.785  1.1958 -1.2654 -0.2186
 4791TIP3    H235933   2.871   3.561   7.778  0.2127  0.0274 -0.0732
 4792TIP3   OH235934   1.340   3.880   8.179  0.7168  0.0396  0.4074
 4792TIP3    H135935   1.331   3.789   8.210  0.3500  0.1914  0.7624
 4792TIP3    H235936   1.365   3.871   8.087  0.0355 -0.4327  0.2536
 4793TIP3   OH235937   6.141   5.258   8.119 -0.2983  0.2258  1.1502
 4793TIP3    H135938   6.151   5.305   8.202  0.2128  1.1048  0.6130
 4793TIP3    H235939   6.066   5.201   8.133 -1.4200  1.7359  1.6028
 4794TIP3   OH235940   6.008   2.158   8.334  0.1024  0.0257  0.1805
 4794TIP3    H135941   6.002   2.240   8.287 -0.0220  0.8415  1.5517
 4794TIP3    H235942   5.920   2.121   8.330 -0.7810  1.6342  2.3491
 4795TIP3   OH235943   6.781   2.780   7.505  0.4749  0.5363 -0.1129
 4795TIP3    H135944   6.703   2.730   7.529  1.5326 -1.4240 -0.5320
 4795TIP3    H235945   6.779   2.783   7.409  0.2810  1.5914 -0.0889
 4796TIP3   OH235946   4.763   6.280   8.105  0.2487  0.3824 -0.5707
 4796TIP3    H135947   4.669   6.283   8.119  0.3626 -0.3892  0.5183
 4796TIP3    H235948   4.790   6.196   8.141  1.2033  0.0607 -1.9563
 4797TIP3   OH235949   4.652   1.548   8.552 -0.1897  0.4519 -0.0642
 4797TIP3    H135950   4.706   1.499   8.491 -1.2637 -0.6938 -0.1369
 4797TIP3    H235951   4.618   1.482   8.613 -1.7202  1.0766 -0.2007
 4798TIP3   OH235952   6.158   1.411   7.415  0.2560  0.0823  0.0582
 4798TIP3    H135953   6.107   1.490   7.430 -0.1128 -0.1201 -0.1007
 4798TIP3    H235954   6.137   1.355   7.490 -1.2659 -0.7641 -0.9385
 4799TIP3   OH235955   5.749   1.268   6.736  0.6598  0.4358  0.6302
 4799TIP3    H135956   5.713   1.187   6.699  0.0160  1.4018 -0.9782
 4799TIP3    H235957   5.841   1.247   6.754  1.6238  0.3155 -3.3565
 4800TIP3   OH235958   6.755   5.576   1.161  0.2179 -0.4720  0.0313
 4800TIP3    H135959   6.837   5.626   1.170  0.1654 -0.4913  0.7079
 4800TIP3    H235960   6.779   5.500   1.108  0.3057  0.2520 -1.0000
 4801TIP3   OH235961   6.751   1.218   6.735  0.1741 -0.7325  0.9188
 4801TIP3    H135962   6.761   1.309   6.765 -1.4472 -0.8283  1.9171
 4801TIP3    H235963   6.813   1.168   6.789  0.4237 -0.3341  1.0042
 4802TIP3   OH235964   6.605   3.171   0.627 -0.0887 -0.2872  0.0910
 4802TIP3    H135965   6.665   3.113   0.674  0.0985  1.0215  1.5343
 4802TIP3    H235966   6.661   3.224   0.570  0.0655  0.4300  0.8968
 4803TIP3   OH235967   5.278   6.347   2.326 -0.0257  0.3051 -0.9433
 4803TIP3    H135968   5.188   6.317   2.338 -0.0764 -0.1054 -2.2028
 4803TIP3    H235969   5.269   6.439   2.300 -0.0360  0.4791 -0.3378
 4804TIP3   OH235970   3.396   0.484   0.705 -0.1661  0.4447  0.1232
 4804TIP3    H135971   3.369   0.556   0.761 -2.0944  1.9719 -2.5616
 4804TIP3    H235972   3.340   0.411   0.732  0.6740  0.3644  1.7774
 4805TIP3   OH235973   1.894   4.502   7.134  0.0411 -0.0198  0.1232
 4805TIP3    H135974   1.868   4.444   7.206 -0.0888  1.4579  1.3127
 4805TIP3    H235975   1.883   4.590   7.169  4.0103  0.7796 -0.1811
 4806TIP3   OH235976   5.839   2.776   8.349  0.2118  0.0422 -0.4131
 4806TIP3    H135977   5.761   2.739   8.389  0.5874  0.4376  0.7400
 4806TIP3    H235978   5.909   2.757   8.412  0.8807  0.4383 -1.0215
 4807TIP3   OH235979   5.237   0.370   7.380 -0.0944  0.0424  0.8140
 4807TIP3    H135980   5.283   0.376   7.464  1.6457 -0.3399 -0.0487
 4807TIP3    H235981   5.302   0.331   7.321 -0.9920  1.0504 -0.9103
 4808TIP3   OH235982   1.850   2.156   7.541 -0.1419  0.2260 -0.3582
 4808TIP3    H135983   1.754   2.157   7.539 -0.1370  0.3593 -1.8978
 4808TIP3    H235984   1.876   2.232   7.489  0.8352  1.0221  1.2318
 4809TIP3   OH235985   2.999   2.981   6.498 -0.2395 -0.1393  0.3425
 4809TIP3    H135986   2.970   2.891   6.514 -2.5676  0.3758 -0.6161
 4809TIP3    H235987   3.088   2.971   6.463 -0.2678 -2.0282  0.6660
 4810TIP3   OH235988   4.914   3.462   0.240 -0.5726  0.2268 -0.1081
 4810TIP3    H135989   4.908   3.471   0.145  1.3061 -2.4221 -0.6101
 4810TIP3    H235990   4.996   3.505   0.263 -0.8765  0.6061  0.2661
 4811TIP3   OH235991   5.434   1.261   0.825 -0.1977  0.0188 -0.9716
 4811TIP3    H135992   5.474   1.269   0.912 -0.3476 -1.3894 -0.7503
 4811TIP3    H235993   5.465   1.338   0.777  1.0432  0.0692 -0.1274
 4812TIP3   OH235994   2.613   5.930   0.949  0.1358  0.2538  0.5700
 4812TIP3    H135995   2.684   5.966   1.002  1.7015  0.1356 -1.3190
 4812TIP3    H235996   2.648   5.929   0.860 -2.6430  1.1854 -0.6368
 4813TIP3   OH235997   5.014   4.422   0.849 -0.0729  0.3570  0.1627
 4813TIP3    H135998   5.063   4.500   0.823 -0.0841  0.1144 -0.6333
 4813TIP3    H235999   5.043   4.403   0.938  0.2413  1.0241  0.2086
 4814TIP3   OH236000   1.686   0.252   7.994 -0.9158 -0.3639  0.5625
 4814TIP3    H136001   1.699   0.337   8.035 -1.2227 -1.2844  2.7201
 4814TIP3    H236002   1.695   0.269   7.900 -2.5381  2.3078  0.7886
 4815TIP3   OH236003   1.560   3.770   0.357 -0.1320 -0.4579 -0.4093
 4815TIP3    H136004   1.571   3.720   0.276 -1.3333 -1.3238 -0.0689
 4815TIP3    H236005   1.585   3.709   0.426  1.3474  0.4280 -0.1109
 4816TIP3   OH236006   5.390   0.246   1.482  0.2490 -0.6585  0.2442
 4816TIP3    H136007   5.296   0.263   1.477 -0.0337 -1.7817  1.3699
 4816TIP3    H236008   5.404   0.171   1.424  0.7473  0.4368 -1.1371
 4817TIP3   OH236009   6.775   4.403   6.147 -0.0096  0.5507  0.4453
 4817TIP3    H136010   6.809   4.317   6.121 -0.5719  0.5125 -0.1855
 4817TIP3    H236011   6.688   4.407   6.108 -1.4505  0.0080  3.2782
 4818TIP3   OH236012   4.488   6.895   0.406 -0.1286  0.4320 -0.6474
 4818TIP3    H136013   4.489   6.804   0.377  2.0198  0.0657  0.4184
 4818TIP3    H236014   4.452   6.944   0.332 -1.3975 -1.2600 -1.1998
 4819TIP3   OH236015   4.104   1.858   7.394  0.4010 -0.0986  0.2273
 4819TIP3    H136016   4.119   1.763   7.392 -1.5297 -0.4571 -0.6999
 4819TIP3    H236017   4.063   1.874   7.479  1.9500  0.1701  0.9577
 4820TIP3   OH236018   2.782   2.465   8.409 -0.1372  0.2218  0.6673
 4820TIP3    H136019   2.874   2.463   8.436  0.2694  1.2798 -0.5294
 4820TIP3    H236020   2.760   2.374   8.391  0.9890  0.0542  0.0267
 4821TIP3   OH236021   1.238   4.691   1.623  0.1891  0.1367 -0.0106
 4821TIP3    H136022   1.168   4.729   1.571  0.3580  0.1262 -0.2509
 4821TIP3    H236023   1.269   4.617   1.570 -0.9668 -1.1249  1.0140
 4822TIP3   OH236024   2.699   3.665   6.732  0.6745  0.0104 -0.0188
 4822TIP3    H136025   2.642   3.679   6.656 -0.1986 -1.7909  0.2504
 4822TIP3    H236026   2.781   3.707   6.708 -0.8085  3.0809 -0.2671
 4823TIP3   OH236027   5.393   5.846   8.282 -0.1091 -0.4023  0.2182
 4823TIP3    H136028   5.422   5.802   8.202  1.5338  2.7351 -1.1299
 4823TIP3    H236029   5.475   5.868   8.328 -0.8895  0.2548  1.3365
 4824TIP3   OH236030   2.420   4.155   8.094  0.1321  0.1455 -0.3327
 4824TIP3    H136031   2.446   4.231   8.042 -0.5562  1.3203  0.9736
 4824TIP3    H236032   2.332   4.177   8.126  0.2937 -0.7891  0.8321
 4825TIP3   OH236033   4.330   1.658   8.233  0.4546  0.1477 -0.0299
 4825TIP3    H136034   4.318   1.690   8.323 -0.5442  0.4393 -0.2603
 4825TIP3    H236035   4.397   1.715   8.196  0.1756  0.6477  0.2290
 4826TIP3   OH236036   4.475   2.356   7.291 -0.0163 -0.5087  0.1396
 4826TIP3    H136037   4.472   2.366   7.196 -1.2782 -0.8032  0.1329
 4826TIP3    H236038   4.447   2.266   7.306 -2.7104  0.3933  0.9301
 4827TIP3   OH236039   5.262   6.622   6.119 -0.0307  0.1289 -0.0465
 4827TIP3    H136040   5.255   6.656   6.030 -1.4214 -1.7118 -0.7146
 4827TIP3    H236041   5.232   6.694   6.175 -0.9426  0.7008 -1.2285
 4828TIP3   OH236042   4.762   1.956   7.441  0.4412  0.4705 -0.4253
 4828TIP3    H136043   4.676   1.916   7.429  0.1797  0.9297 -0.0901
 4828TIP3    H236044   4.755   2.043   7.403  0.3291  1.0267  0.8188
 4829TIP3   OH236045   4.391   5.293   7.627 -0.1494 -0.7177  0.4763
 4829TIP3    H136046   4.345   5.243   7.695 -0.4259 -1.1121 -0.0018
 4829TIP3    H236047   4.323   5.317   7.565  0.3682 -1.7694 -0.5203
 4830TIP3   OH236048   4.737   1.034   2.228 -0.4410 -0.4534  0.3223
 4830TIP3    H136049   4.654   0.988   2.216  0.0914 -0.9364 -1.8600
 4830TIP3    H236050   4.803   0.965   2.233 -0.0629 -0.0476  1.4246
 4831TIP3   OH236051   0.099   6.650   1.040 -0.3607  0.4837 -0.3892
 4831TIP3    H136052   0.047   6.680   0.965  0.8791  1.3905 -0.9341
 4831TIP3    H236053   0.189   6.648   1.007  0.0929 -0.0233  0.8164
 4832TIP3   OH236054   6.451   2.437   7.188 -0.4568  0.2415 -0.8071
 4832TIP3    H136055   6.454   2.402   7.099  0.0873  0.9293 -1.0767
 4832TIP3    H236056   6.536   2.416   7.225  1.0924  3.6539 -1.9705
 4833TIP3   OH236057   2.743   0.241   8.241 -0.4786 -0.0106 -0.3277
 4833TIP3    H136058   2.830   0.269   8.211 -0.5074  0.7342  0.2373
 4833TIP3    H236059   2.760   0.173   8.305 -0.2422  0.9793  0.6824
 4834TIP3   OH236060   2.865   0.334   6.406  0.0154 -0.1388  0.1755
 4834TIP3    H136061   2.802   0.265   6.423  0.0012  0.0033  0.6960
 4834TIP3    H236062   2.950   0.289   6.401 -0.0685 -0.2700 -0.0881
 4835TIP3   OH236063   0.354   4.781   7.609  0.4681  0.0528 -0.0744
 4835TIP3    H136064   0.356   4.877   7.601  0.4179  0.1769  1.2486
 4835TIP3    H236065   0.264   4.757   7.589  0.4938  0.2643 -0.4670
 4836TIP3   OH236066   3.521   3.117   0.092 -0.1937 -0.8730  0.7158
 4836TIP3    H136067   3.545   3.041   0.145  0.7643 -0.5428  0.7799
 4836TIP3    H236068   3.601   3.169   0.088 -0.4154 -0.6031 -0.5723
 4837TIP3   OH236069   5.962   4.938   1.202  0.5409 -0.6895  0.3327
 4837TIP3    H136070   5.993   5.025   1.180  0.2066 -0.2454  1.5237
 4837TIP3    H236071   6.035   4.898   1.250  0.4559 -0.8303  0.3460
 4838TIP3   OH236072   2.838   2.592   7.992  0.1753 -0.0810  0.0998
 4838TIP3    H136073   2.914   2.578   8.048  0.2825 -2.0393 -0.4382
 4838TIP3    H236074   2.875   2.602   7.904 -0.1405 -3.3687 -0.5594
 4839TIP3   OH236075   1.236   3.021   1.238  0.0129  0.3448 -0.5577
 4839TIP3    H136076   1.235   3.089   1.172 -0.1243  1.7673  0.8393
 4839TIP3    H236077   1.188   2.948   1.198  2.0570  0.1701 -2.9134
 4840TIP3   OH236078   6.778   2.783   1.083  0.1821  0.3962 -0.0338
 4840TIP3    H136079   6.758   2.800   1.175  1.0609  0.1992  0.2028
 4840TIP3    H236080   6.695   2.798   1.037 -0.6945 -1.1305  0.9795
 4841TIP3   OH236081   0.935   5.816   7.615  0.0633 -0.4085 -0.8454
 4841TIP3    H136082   0.881   5.742   7.644  0.4955 -0.2089  0.5233
 4841TIP3    H236083   0.909   5.830   7.524 -0.2163 -2.0731 -1.0557
 4842TIP3   OH236084   2.946   2.124   7.978  0.2945  0.5156 -0.2988
 4842TIP3    H136085   2.912   2.039   8.006  3.3577 -0.4317  0.9406
 4842TIP3    H236086   2.872   2.183   7.989 -1.8448 -1.8654 -0.8072
 4843TIP3   OH236087   1.878   5.688   7.436 -0.4615  0.5158 -0.1505
 4843TIP3    H136088   1.944   5.625   7.408  0.1353  1.0419  0.0580
 4843TIP3    H236089   1.842   5.724   7.355  0.2029  0.9427 -0.2629
 4844TIP3   OH236090   1.118   3.546   0.825 -0.1661 -0.1018  0.2894
 4844TIP3    H136091   1.058   3.488   0.778  1.9661 -1.3041 -1.0786
 4844TIP3    H236092   1.107   3.631   0.782  0.3274 -0.7192 -1.0997
 4845TIP3   OH236093   4.146   4.156   6.202  0.1250  0.6275  0.0993
 4845TIP3    H136094   4.115   4.066   6.196  1.3231  0.2608 -0.8593
 4845TIP3    H236095   4.156   4.185   6.111  0.3584  1.5081  0.3906
 4846TIP3   OH236096   2.316   5.866   1.633 -0.1615 -0.0704  0.2274
 4846TIP3    H136097   2.393   5.885   1.580 -1.9640  3.3190 -1.4863
 4846TIP3    H236098   2.303   5.944   1.686 -2.9273 -0.0746 -0.2851
 4847TIP3   OH236099   6.847   4.072   7.228  0.0999  0.2756 -0.5055
 4847TIP3    H136100   6.826   4.148   7.173  1.4439 -0.0726 -1.5581
 4847TIP3    H236101   6.852   3.999   7.167  3.5354  0.2034 -0.3125
 4848TIP3   OH236102   4.936   2.971   7.593  0.1536 -0.8857  0.4263
 4848TIP3    H136103   4.899   3.059   7.598  1.5458 -0.3270  2.0316
 4848TIP3    H236104   4.911   2.939   7.507 -2.7150 -0.0136  0.8451
 4849TIP3   OH236105   3.278   3.475   6.631 -0.3989  0.5913  0.3708
 4849TIP3    H136106   3.285   3.443   6.541  1.8437  1.4778  0.1520
 4849TIP3    H236107   3.256   3.567   6.622  0.1043  0.7517  0.6839
 4850TIP3   OH236108   3.239   6.516   8.507 -0.2512  0.5580 -0.2268
 4850TIP3    H136109   3.295   6.594   8.506 -0.7947  0.9517 -0.3501
 4850TIP3    H236110   3.264   6.468   8.427 -0.4160  0.9669 -0.5241
 4851TIP3   OH236111   4.512   2.767   8.270 -0.0303  0.6688  0.2220
 4851TIP3    H136112   4.566   2.777   8.191  0.0779 -0.9700  0.0603
 4851TIP3    H236113   4.510   2.855   8.308  2.5556  0.8743  0.0939
 4852TIP3   OH236114   3.214   2.252   8.570 -0.3084  0.0921 -0.0634
 4852TIP3    H136115   3.212   2.263   8.665  2.9786 -1.1643  0.2689
 4852TIP3    H236116   3.199   2.159   8.556 -2.5139  0.5187 -0.9893
 4853TIP3   OH236117   1.328   6.244   7.201  0.0518  0.1093 -0.3248
 4853TIP3    H136118   1.377   6.299   7.263 -0.2512  0.5881 -0.5057
 4853TIP3    H236119   1.237   6.272   7.211 -0.7021 -2.6465  2.0374
 4854TIP3   OH236120   2.631   6.179   8.073  0.0602 -0.5557  0.5339
 4854TIP3    H136121   2.663   6.194   8.163 -0.4031 -1.8939  0.9444
 4854TIP3    H236122   2.630   6.084   8.064 -1.5023 -0.4828 -0.3112
 4855TIP3   OH236123   5.197   1.856   1.776  0.1832 -0.0373 -0.0261
 4855TIP3    H136124   5.131   1.888   1.715  0.7068  0.3426 -0.3987
 4855TIP3    H236125   5.171   1.891   1.861 -0.2045 -0.0580 -0.1360
 4856TIP3   OH236126   3.475   0.622   7.711  0.2472 -0.2011 -0.3085
 4856TIP3    H136127   3.454   0.689   7.776 -0.5185 -0.1597 -0.5966
 4856TIP3    H236128   3.392   0.582   7.689  0.7099 -1.3408 -0.0644
 4857TIP3   OH236129   3.056   0.271   2.157 -0.3574  0.3967 -0.7616
 4857TIP3    H136130   3.145   0.287   2.126  0.0854 -0.1510  0.1694
 4857TIP3    H236131   3.029   0.354   2.197  0.5215  0.0025  0.7393
 4858TIP3   OH236132   4.107   0.311   7.593  0.1825  0.0405  0.0281
 4858TIP3    H136133   4.135   0.296   7.683 -1.5229  0.7887  0.7264
 4858TIP3    H236134   4.189   0.317   7.543  1.1561 -0.4107  1.5095
 4859TIP3   OH236135   0.961   0.013   7.744  0.2195  0.2250  0.0390
 4859TIP3    H136136   1.039  -0.010   7.693 -0.7712 -0.6446 -1.1473
 4859TIP3    H236137   0.936  -0.067   7.788 -0.9373  0.0319 -0.9137
 4860TIP3   OH236138   1.418   4.725   7.960 -0.4222  0.0324 -0.0852
 4860TIP3    H136139   1.439   4.721   7.867 -0.3554 -2.0165 -0.0212
 4860TIP3    H236140   1.470   4.798   7.994  3.0197 -1.8692 -0.8395
 4861TIP3   OH236141   2.000   3.563   7.349  0.1374  0.3445  0.2543
 4861TIP3    H136142   1.937   3.599   7.286  1.7176  0.9324 -1.0613
 4861TIP3    H236143   2.049   3.498   7.298 -1.0951 -2.0688  1.9559
 4862TIP3   OH236144   4.677   3.553   6.844  0.2399 -0.3999 -0.4202
 4862TIP3    H136145   4.730   3.539   6.923  0.9543 -2.1018 -1.1511
 4862TIP3    H236146   4.641   3.467   6.825  0.2293 -0.0536 -2.0605
 4863TIP3   OH236147   0.761   0.320   0.299 -0.4650  0.1266 -0.3500
 4863TIP3    H136148   0.737   0.228   0.290  0.6890 -0.3979  1.3588
 4863TIP3    H236149   0.847   0.327   0.256 -0.3573  0.2958 -0.1143
 4864TIP3   OH236150   5.863   2.728   7.512  0.8572 -0.3630  0.1220
 4864TIP3    H136151   5.836   2.694   7.427  3.1721 -0.5574 -0.5834
 4864TIP3    H236152   5.901   2.814   7.493  2.1010 -0.7330  0.8404
 4865TIP3   OH236153   5.437   0.799   2.475 -0.0716 -0.1766 -0.1585
 4865TIP3    H136154   5.364   0.854   2.504  0.2180 -0.1759  0.6010
 4865TIP3    H236155   5.411   0.710   2.501 -0.3876 -0.3669 -1.0802
 4866TIP3   OH236156   6.414   3.335   7.541  0.1600  0.1180  0.0373
 4866TIP3    H136157   6.490   3.284   7.570  1.5072  1.9796  0.0257
 4866TIP3    H236158   6.414   3.411   7.599 -1.3430  0.4537 -0.3835
 4867TIP3   OH236159   6.753   4.174   1.741 -0.1978 -0.3561 -0.3253
 4867TIP3    H136160   6.840   4.135   1.749  0.4135  0.7104 -1.5295
 4867TIP3    H236161   6.765   4.267   1.759 -0.9751 -0.0960 -1.0601
 4868TIP3   OH236162   1.641   0.049   7.128 -0.2002  0.5790  0.3548
 4868TIP3    H136163   1.623   0.067   7.036 -1.8538 -1.1852  0.2655
 4868TIP3    H236164   1.572   0.095   7.176 -2.4032 -2.4046  0.3174
 4869TIP3   OH236165   5.927   6.649   7.531  0.1153 -0.1431 -0.2713
 4869TIP3    H136166   5.967   6.612   7.452 -0.1923 -1.1750  0.0367
 4869TIP3    H236167   5.886   6.574   7.574 -3.3622  1.0182 -1.2580
 4870TIP3   OH236168   5.527   6.060   0.088 -0.1569  0.0386  0.2109
 4870TIP3    H136169   5.558   6.134   0.035 -1.2595  0.2377 -0.1746
 4870TIP3    H236170   5.485   6.101   0.164  0.3073 -0.2251  0.6165
 4871TIP3   OH236171   5.769   2.036   0.184 -0.2513 -0.5943  0.3345
 4871TIP3    H136172   5.719   1.974   0.130 -1.2885  0.4602  0.0490
 4871TIP3    H236173   5.821   2.085   0.121  0.3037 -0.9320  0.5279
 4872TIP3   OH236174   4.555   6.521   7.082 -0.3462  0.1173  0.0914
 4872TIP3    H136175   4.590   6.543   6.996  0.5805  2.1745  0.9313
 4872TIP3    H236176   4.632   6.503   7.136 -0.6895  1.5850  1.1591
 4873TIP3   OH236177   1.594   0.147   0.283  0.2056 -0.1353 -0.2534
 4873TIP3    H136178   1.635   0.156   0.369 -0.9291  1.8414  0.1375
 4873TIP3    H236179   1.649   0.200   0.225  0.9630 -1.4558 -0.7935
 4874TIP3   OH236180   1.610   5.744   0.688  0.1611  0.1771  0.0900
 4874TIP3    H136181   1.537   5.689   0.718 -0.6074  2.6306  3.3855
 4874TIP3    H236182   1.686   5.711   0.736 -0.4324  2.1330  2.6120
 4875TIP3   OH236183   2.579   1.676   7.957  0.1331 -0.8918 -0.0592
 4875TIP3    H136184   2.573   1.596   7.905  0.7010 -0.6793 -0.4682
 4875TIP3    H236185   2.653   1.661   8.015  0.2393 -0.6711 -0.1338
 4876TIP3   OH236186   3.318   1.236   0.196  0.2405  0.0876  0.6386
 4876TIP3    H136187   3.287   1.173   0.132  0.4564 -0.2000  0.8134
 4876TIP3    H236188   3.408   1.209   0.215  0.7803  1.2141 -0.2499
 4877TIP3   OH236189   0.598   0.109   1.140  0.2967 -0.4892  0.2794
 4877TIP3    H136190   0.568   0.064   1.218 -0.9898 -1.5192 -0.7675
 4877TIP3    H236191   0.558   0.195   1.145  0.4077 -0.4635  0.8469
 4878TIP3   OH236192   4.823   6.510   1.553 -0.6621  0.1319 -0.0463
 4878TIP3    H136193   4.743   6.498   1.605 -0.1952  0.7532  0.8476
 4878TIP3    H236194   4.885   6.550   1.614 -0.7320  2.8809 -1.5878
 4879TIP3   OH236195   1.108   1.966   1.138 -0.8641 -0.0364 -0.2082
 4879TIP3    H136196   1.113   1.886   1.085 -1.5102  0.6027 -1.2702
 4879TIP3    H236197   1.199   1.997   1.143 -0.5567 -0.9941  0.5001
 4880TIP3   OH236198   2.833   3.888   1.084 -0.2124  0.1710 -0.6444
 4880TIP3    H136199   2.777   3.964   1.101  1.2365  1.2449 -0.4371
 4880TIP3    H236200   2.815   3.828   1.156  3.2939  3.1647  3.2263
 4881TIP3   OH236201   4.688   0.692   8.570 -0.4343  0.3565  0.0453
 4881TIP3    H136202   4.724   0.776   8.600  1.1828 -0.3381  0.1061
 4881TIP3    H236203   4.618   0.717   8.510 -0.2019  1.7485  0.3128
 4882TIP3   OH236204   1.847   3.896   6.407 -0.5652  0.1807 -0.5183
 4882TIP3    H136205   1.852   3.968   6.469  0.0328 -1.9259  2.0897
 4882TIP3    H236206   1.758   3.863   6.415 -0.7452  0.4183 -1.4543
 4883TIP3   OH236207   4.843   2.575   1.708 -0.1148  0.1322  0.0753
 4883TIP3    H136208   4.758   2.538   1.683  0.2562 -0.4642 -0.3258
 4883TIP3    H236209   4.823   2.635   1.779 -1.0459  0.9619 -0.8633
 4884TIP3   OH236210   6.652   5.229   8.018  0.6053 -0.2985 -0.5332
 4884TIP3    H136211   6.634   5.237   8.112  0.9652 -1.7167 -0.3116
 4884TIP3    H236212   6.702   5.147   8.011  0.9025 -0.0133 -1.9216
 4885TIP3   OH236213   4.365   3.220   1.425  0.6382  0.4890 -0.5278
 4885TIP3    H136214   4.402   3.195   1.510  1.0579  0.1033 -0.8198
 4885TIP3    H236215   4.279   3.178   1.423  0.6893  0.3725 -0.3577
 4886TIP3   OH236216   3.124   1.330   2.092  0.0150  0.3500 -0.2821
 4886TIP3    H136217   3.193   1.316   2.026 -0.4025  0.9078 -0.8532
 4886TIP3    H236218   3.152   1.409   2.139 -0.6038  1.0357 -1.0304
 4887TIP3   OH236219   6.666   0.860   6.478 -0.2770 -0.1183 -0.4449
 4887TIP3    H136220   6.733   0.873   6.411  0.8809  2.2262  1.0518
 4887TIP3    H236221   6.634   0.948   6.497 -0.7460 -0.7308  1.8752
 4888TIP3   OH236222   6.000   4.878   1.744 -0.0589 -0.3942 -0.2404
 4888TIP3    H136223   5.959   4.795   1.766 -0.4402 -0.3079 -0.6079
 4888TIP3    H236224   6.067   4.890   1.811  0.6805 -1.4814 -0.7576
 4889TIP3   OH236225   1.929   0.835   8.521  0.1984 -0.8156  0.2486
 4889TIP3    H136226   1.920   0.740   8.513 -0.3242 -0.7354 -0.1703
 4889TIP3    H236227   1.879   0.870   8.447 -0.2666 -0.1945  0.8457
 4890TIP3   OH236228   5.618   0.599   7.433  0.3977 -0.0327  0.0166
 4890TIP3    H136229   5.612   0.507   7.460  0.7179 -0.5395 -1.5169
 4890TIP3    H236230   5.546   0.611   7.372  0.9112  0.4653 -0.5083
 4891TIP3   OH236231   5.719   0.309   7.734 -0.3037 -1.0735 -0.0855
 4891TIP3    H136232   5.679   0.326   7.649  0.7989  0.5626 -0.3214
 4891TIP3    H236233   5.767   0.227   7.722  1.4810  0.0993 -1.7148
 4892TIP3   OH236234   4.263   5.145   7.000 -0.6427  0.1004 -0.3194
 4892TIP3    H136235   4.267   5.107   7.088 -0.3277  1.8757  0.4943
 4892TIP3    H236236   4.216   5.081   6.948 -0.1181 -1.3704  0.9431
 4893TIP3   OH236237   1.611   5.876   6.972  1.0051 -0.4709  0.2919
 4893TIP3    H136238   1.554   5.898   6.899 -0.2850  1.0676  1.6904
 4893TIP3    H236239   1.604   5.781   6.980  0.7555 -0.6020 -1.2090
 4894TIP3   OH236240   6.342   1.801   1.013 -0.2617  0.4254 -0.0092
 4894TIP3    H136241   6.250   1.777   1.025 -0.5501  1.3789 -0.2200
 4894TIP3    H236242   6.356   1.874   1.073  0.6640 -0.4026  0.8140
 4895TIP3   OH236243   6.246   5.686   6.782  0.4578  0.1646  0.1524
 4895TIP3    H136244   6.326   5.648   6.817  0.6071 -0.2438 -0.6141
 4895TIP3    H236245   6.247   5.664   6.688 -0.0245  1.0602 -0.0804
 4896TIP3   OH236246   4.987   5.935   1.756 -0.1658  0.0334 -0.1607
 4896TIP3    H136247   5.006   5.882   1.834  1.0335  0.2900 -0.2496
 4896TIP3    H236248   4.956   6.018   1.791  0.4589  0.1804  0.0662
 4897TIP3   OH236249   0.084   2.853   8.403  0.0934 -0.2591  0.1874
 4897TIP3    H136250  -0.002   2.831   8.367 -0.2054  1.1790 -0.0412
 4897TIP3    H236251   0.143   2.848   8.327 -0.0758  0.2706  0.0175
 4898TIP3   OH236252   5.056   6.525   1.706 -0.5446 -0.4479  0.4065
 4898TIP3    H136253   5.069   6.496   1.796 -0.9270  1.1104  0.9836
 4898TIP3    H236254   5.111   6.602   1.697 -2.0917  0.6495 -0.0269
 4899TIP3   OH236255   2.778   2.376   0.258  0.0282  0.8141  0.0780
 4899TIP3    H136256   2.825   2.354   0.339 -1.4461 -0.4075  0.6670
 4899TIP3    H236257   2.810   2.313   0.194 -0.4326  0.2945  0.3484
 4900TIP3   OH236258   1.500   4.687   0.721 -0.1521 -0.1083  0.1457
 4900TIP3    H136259   1.406   4.693   0.704 -0.1341  1.5758  0.4979
 4900TIP3    H236260   1.507   4.684   0.816  0.1677  0.3314  0.1398
 4901TIP3   OH236261   3.131   0.779   0.805 -0.3148  0.7174  0.2867
 4901TIP3    H136262   3.065   0.806   0.869 -0.0623  0.4074  0.6775
 4901TIP3    H236263   3.206   0.751   0.857  0.0113  0.7625 -0.1507
 4902TIP3   OH236264   5.471   1.037   8.220 -0.4880  0.0585  0.4117
 4902TIP3    H136265   5.543   1.093   8.190 -0.9872  0.9211  0.8034
 4902TIP3    H236266   5.469   1.049   8.315 -1.2128  0.1312  0.3951
 4903TIP3   OH236267   0.503   4.430   6.971 -0.0760  0.2947 -0.3811
 4903TIP3    H136268   0.435   4.491   6.998  1.1563  1.3299  0.5123
 4903TIP3    H236269   0.584   4.481   6.976  0.8439 -1.0621 -0.8433
 4904TIP3   OH236270   3.641   2.410   8.503 -0.0777  0.2448 -0.1719
 4904TIP3    H136271   3.668   2.321   8.481 -0.4769 -0.1376  0.8438
 4904TIP3    H236272   3.566   2.427   8.446 -0.0404 -0.0887 -0.3217
 4905TIP3   OH236273   6.317   4.253   0.995 -0.7387 -0.4354 -0.2285
 4905TIP3    H136274   6.355   4.222   1.076 -0.9443  1.5685  0.6849
 4905TIP3    H236275   6.376   4.322   0.964 -2.0618  0.7172 -0.3043
 4906TIP3   OH236276   0.321   5.293   1.167  0.2687  0.8471  0.0359
 4906TIP3    H136277   0.336   5.199   1.172  0.3560  0.8645  0.1089
 4906TIP3    H236278   0.245   5.303   1.109  1.4597  0.8388 -1.5790
 4907TIP3   OH236279   4.792   2.218   7.021 -0.0339  0.1904 -0.0058
 4907TIP3    H136280   4.766   2.143   6.967 -1.8583  0.6931  0.1188
 4907TIP3    H236281   4.709   2.260   7.045  0.9351  2.0609  0.2041
 4908TIP3   OH236282   2.228   4.112   7.078  0.2274  0.1342 -0.6107
 4908TIP3    H136283   2.246   4.028   7.121 -0.8597  0.2084  0.0480
 4908TIP3    H236284   2.146   4.141   7.118  1.0947  2.0013 -0.0765
 4909TIP3   OH236285   1.949   0.076   2.247  0.0746 -0.5762  0.1936
 4909TIP3    H136286   1.930   0.063   2.340 -0.9144 -1.4776 -0.1095
 4909TIP3    H236287   1.941  -0.012   2.209  1.0631 -0.3267 -0.6541
 4910TIP3   OH236288   4.299   4.179   6.913  0.0880 -0.4752  0.1929
 4910TIP3    H136289   4.210   4.158   6.885 -0.2645  0.7750  0.3151
 4910TIP3    H236290   4.300   4.275   6.921  1.6723 -0.3888 -0.6073
 4911TIP3   OH236291   6.392   0.619   0.827 -0.2791 -0.4253 -0.2865
 4911TIP3    H136292   6.415   0.528   0.847  0.3390 -0.2827 -0.3121
 4911TIP3    H236293   6.477   0.664   0.820 -0.5737  0.1176 -0.4359
 4912TIP3   OH236294   2.852   6.418   7.878 -0.6542  0.2277  0.3746
 4912TIP3    H136295   2.901   6.414   7.796  0.1097 -1.8716  0.8562
 4912TIP3    H236296   2.916   6.450   7.942  0.4235 -3.0255  1.1141
 4913TIP3   OH236297   3.703   5.334   0.010 -0.0225  0.1406 -0.1669
 4913TIP3    H136298   3.789   5.352   0.048  0.1941  1.3235 -1.1288
 4913TIP3    H236299   3.642   5.349   0.082  0.3450  2.6687 -0.2730
 4914TIP3   OH236300   2.413   4.648   7.458 -0.3333 -0.6359 -0.6916
 4914TIP3    H136301   2.506   4.671   7.461 -0.3225 -0.5816 -1.3289
 4914TIP3    H236302   2.412   4.554   7.441 -0.3866 -0.4765 -1.6545
 4915TIP3   OH236303   3.004   6.044   7.028  0.3291  0.8891  0.2225
 4915TIP3    H136304   2.985   5.988   7.104  0.2536 -0.6987 -0.9086
 4915TIP3    H236305   3.074   5.997   6.982  0.7056  2.0784 -0.4415
 4916TIP3   OH236306   1.500   5.893   8.271 -0.4435 -0.3767 -0.4079
 4916TIP3    H136307   1.496   5.989   8.275  1.2367 -0.0737 -3.1105
 4916TIP3    H236308   1.410   5.866   8.253 -1.4911  0.3649  3.0308
 4917TIP3   OH236309   4.517   3.778   7.983 -0.4726 -0.7628  0.0948
 4917TIP3    H136310   4.604   3.740   7.968 -0.8600 -1.6122 -0.0504
 4917TIP3    H236311   4.491   3.747   8.069  0.1232  1.0047  0.9785
 4918TIP3   OH236312   5.438   1.601   1.482  0.0440 -0.4017  0.1080
 4918TIP3    H136313   5.346   1.608   1.457 -0.5173  1.3415  2.2325
 4918TIP3    H236314   5.485   1.652   1.416 -0.8776  0.8780  0.3991
 4919TIP3   OH236315   1.068   6.304   0.752  0.0008  0.1813 -0.0604
 4919TIP3    H136316   1.151   6.257   0.738 -0.3299 -0.6671  0.7502
 4919TIP3    H236317   1.002   6.235   0.756 -0.9075  0.8908 -1.6128
 4920TIP3   OH236318   5.590   3.520   1.757  0.1122 -0.1155  0.0774
 4920TIP3    H136319   5.561   3.434   1.724 -2.5214  0.8939 -0.4944
 4920TIP3    H236320   5.539   3.533   1.838 -0.7772  1.5510 -0.6987
 4921TIP3   OH236321   2.554   1.520   6.964 -0.2334 -0.0406  0.6830
 4921TIP3    H136322   2.596   1.511   7.049 -1.2243  1.6155  1.4139
 4921TIP3    H236323   2.625   1.540   6.904  0.5965 -2.1062  0.9069
 4922TIP3   OH236324   2.515   5.506   0.112 -0.2049 -0.2487 -0.1376
 4922TIP3    H136325   2.445   5.563   0.081  0.7381  1.2180  0.3617
 4922TIP3    H236326   2.488   5.481   0.200  1.3580  3.0531  1.4566
 4923TIP3   OH236327   0.441   2.684   7.498 -0.2263  0.0510  0.2010
 4923TIP3    H136328   0.508   2.647   7.556  0.6539  2.2214  0.6950
 4923TIP3    H236329   0.488   2.707   7.418 -0.8007 -0.1527 -0.2013
 4924TIP3   OH236330   4.155   3.545   2.368 -0.0054 -0.1804 -0.3987
 4924TIP3    H136331   4.249   3.547   2.388 -0.0705  0.2042 -0.1030
 4924TIP3    H236332   4.130   3.454   2.381  0.4706 -0.4307 -1.1845
 4925TIP3   OH236333   4.219   0.274   0.658  0.9340  0.2834  0.3465
 4925TIP3    H136334   4.147   0.274   0.721 -1.2739 -2.2187 -1.9299
 4925TIP3    H236335   4.181   0.310   0.578  2.2218 -0.9667 -0.8825
 4926TIP3   OH236336   5.887   2.437   2.338 -0.3589  0.8599  0.1027
 4926TIP3    H136337   5.793   2.440   2.322 -0.2268 -2.8737 -2.7507
 4926TIP3    H236338   5.924   2.497   2.274 -0.7358  0.8500 -0.1259
 4927TIP3   OH236339   6.287   5.461   7.172  0.0092 -0.1598 -0.4888
 4927TIP3    H136340   6.240   5.508   7.104 -0.5990  2.0838  1.3453
 4927TIP3    H236341   6.331   5.530   7.222  0.4122 -1.6980  1.3777
 4928TIP3   OH236342   5.255   4.297   0.226  0.5002  0.0607  0.0759
 4928TIP3    H136343   5.262   4.329   0.136 -1.3503  1.9918  0.5594
 4928TIP3    H236344   5.247   4.202   0.217  1.7777  0.0795 -1.6855
 4929TIP3   OH236345   6.275   0.418   1.108  0.7750  0.1934 -0.1364
 4929TIP3    H136346   6.314   0.387   1.189  2.1484  0.7857 -0.5399
 4929TIP3    H236347   6.335   0.389   1.039  2.0617  3.4280 -0.5513
 4930TIP3   OH236348   4.450   3.608   7.215  0.2065 -0.0082 -0.1344
 4930TIP3    H136349   4.543   3.629   7.220  0.1622 -0.0027  0.8066
 4930TIP3    H236350   4.406   3.682   7.256 -0.2731  0.3377 -1.2460
 4931TIP3   OH236351   4.740   0.150   8.488 -0.2878  0.4746 -0.2216
 4931TIP3    H136352   4.780   0.210   8.424  0.2678  1.0265  0.6173
 4931TIP3    H236353   4.696   0.208   8.549 -0.1106 -0.0038  0.3640
 4932TIP3   OH236354   2.611   4.651   1.061  0.1165 -0.0517 -1.0232
 4932TIP3    H136355   2.670   4.691   0.997  1.4076 -0.7155 -0.2971
 4932TIP3    H236356   2.658   4.573   1.090 -1.9101 -1.5866 -1.6978
 4933TIP3   OH236357   2.986   0.285   8.095  0.0175 -0.4352  0.0727
 4933TIP3    H136358   3.041   0.207   8.101 -0.2965 -0.6999 -0.3797
 4933TIP3    H236359   3.040   0.350   8.050  0.2426 -0.4266  0.3559
 4934TIP3   OH236360   2.495   0.360   0.015  0.3687  0.1193 -0.7084
 4934TIP3    H136361   2.538   0.444  -0.001  2.5984 -0.9720 -0.9317
 4934TIP3    H236362   2.459   0.335  -0.070 -0.7896  1.0619 -0.5181
 4935TIP3   OH236363   5.067   2.694   6.823 -0.1697 -0.9728 -0.0661
 4935TIP3    H136364   5.160   2.685   6.843  0.1019 -0.4077 -1.0237
 4935TIP3    H236365   5.031   2.606   6.836  0.4173 -1.1100  0.6837
 4936TIP3   OH236366   0.285   6.887   8.067  0.1208  0.1567 -0.1029
 4936TIP3    H136367   0.351   6.850   8.126  0.5736  0.8036 -0.1908
 4936TIP3    H236368   0.211   6.909   8.124  0.1930 -0.0803  0.0817
 4937TIP3   OH236369   0.913   1.162   0.632  0.1044  0.2860 -0.3134
 4937TIP3    H136370   0.834   1.108   0.634 -0.0369  0.3091 -2.4518
 4937TIP3    H236371   0.971   1.121   0.697 -0.5324 -1.6095 -0.8508
 4938TIP3   OH236372   4.870   5.659   7.019 -0.5501  0.1986 -0.8875
 4938TIP3    H136373   4.801   5.621   6.966 -0.3974 -0.9241 -0.3126
 4938TIP3    H236374   4.927   5.704   6.957 -2.5211  2.4031 -1.2415
 4939TIP3   OH236375   1.622   0.617   6.629 -0.1331 -0.4648  0.0800
 4939TIP3    H136376   1.609   0.522   6.626  0.6099 -0.6419  1.5168
 4939TIP3    H236377   1.706   0.628   6.674 -0.9816  0.9113  1.4147
 4940TIP3   OH236378   6.096   5.060   6.053  0.0026  0.5647  0.1954
 4940TIP3    H136379   6.082   4.969   6.025 -1.9305  1.0234 -0.4411
 4940TIP3    H236380   6.185   5.060   6.088 -0.2931 -1.8067  1.1388
 4941TIP3   OH236381   4.622   6.164   1.062 -0.2107 -1.1458  0.4768
 4941TIP3    H136382   4.638   6.183   1.155 -1.2775  0.4463  0.3871
 4941TIP3    H236383   4.637   6.248   1.018 -1.6474 -1.3572 -0.5022
 4942TIP3   OH236384   0.432   3.903   8.385 -0.4110 -0.1300  0.0404
 4942TIP3    H136385   0.502   3.967   8.377 -1.1279  0.6197 -0.3542
 4942TIP3    H236386   0.394   3.898   8.297  0.0561 -1.5864 -0.1031
 4943TIP3   OH236387   6.455   2.251   6.974  0.1057  0.1975 -0.0950
 4943TIP3    H136388   6.517   2.209   7.033 -0.1719 -0.4162 -0.2373
 4943TIP3    H236389   6.389   2.184   6.955 -0.6247  0.8480  0.0819
 4944TIP3   OH236390   5.269   3.442   1.165  0.1350  0.2703  0.1699
 4944TIP3    H136391   5.260   3.391   1.084 -1.9144  0.3017  0.3100
 4944TIP3    H236392   5.203   3.511   1.156  0.0803  0.4421  1.7478
 4945TIP3   OH236393   5.861   5.844   0.700  0.4540 -0.4598 -0.1383
 4945TIP3    H136394   5.821   5.882   0.622  1.4497 -0.7587 -0.8204
 4945TIP3    H236395   5.949   5.880   0.701  0.7633 -1.2177  0.3055
 4946TIP3   OH236396   6.212   4.223   8.303 -0.0498 -0.1920  0.3143
 4946TIP3    H136397   6.155   4.243   8.229  0.0299 -2.7321 -0.5343
 4946TIP3    H236398   6.290   4.276   8.289 -0.9637  1.0736 -0.1430
 4947TIP3   OH236399   5.674   1.330   1.598 -0.2053 -0.0419 -0.1490
 4947TIP3    H136400   5.651   1.365   1.684 -0.5023  0.2656 -0.3521
 4947TIP3    H236401   5.682   1.407   1.542 -0.6381 -0.2770 -0.5465
 4948TIP3   OH236402   4.358   0.754   1.559 -0.0497  0.0665  0.0792
 4948TIP3    H136403   4.369   0.724   1.469 -0.0910 -1.6218  0.6189
 4948TIP3    H236404   4.363   0.850   1.552 -1.4670  0.0656 -1.9104
 4949TIP3   OH236405   6.740   4.424   7.311  0.5651 -0.1604  0.3296
 4949TIP3    H136406   6.812   4.397   7.367  0.5659 -0.8687 -0.0006
 4949TIP3    H236407   6.781   4.450   7.229  0.4970  0.0897  0.3723
 4950TIP3   OH236408   4.369   0.065   7.648  0.4724  0.6339 -0.4390
 4950TIP3    H136409   4.326   0.006   7.710 -1.5852 -0.6239 -2.8704
 4950TIP3    H236410   4.438   0.108   7.699  1.2604 -2.9129  1.8046
 4951TIP3   OH236411   5.374   1.842   2.192  0.4960 -0.1686 -0.0979
 4951TIP3    H136412   5.434   1.914   2.209 -0.4111  0.4129  0.7873
 4951TIP3    H236413   5.289   1.876   2.219  0.0491 -1.5656  0.3028
 4952TIP3   OH236414   0.913   0.745   7.348 -0.1593 -0.4956  0.2700
 4952TIP3    H136415   0.823   0.714   7.349 -0.3640  0.0792  0.2992
 4952TIP3    H236416   0.905   0.840   7.336  0.4848 -0.6259 -1.4577
 4953TIP3   OH236417   1.385   5.454   8.428  0.3218 -0.0140  0.2196
 4953TIP3    H136418   1.331   5.465   8.506 -1.3223 -0.6999 -0.7651
 4953TIP3    H236419   1.467   5.498   8.449 -0.8747  1.7362  1.5212
 4954TIP3   OH236420   1.955   5.414   8.023  0.6470  0.0892 -0.5418
 4954TIP3    H136421   2.016   5.364   8.078 -1.4890 -2.6812 -0.4872
 4954TIP3    H236422   1.901   5.463   8.085  0.5715 -0.2075 -0.3719
 4955TIP3   OH236423   1.986   6.503   1.166 -0.5212 -0.5484 -0.0352
 4955TIP3    H136424   2.025   6.463   1.243 -0.7112  0.4824  0.6144
 4955TIP3    H236425   2.011   6.595   1.171 -0.1323 -0.5451 -1.4610
 4956TIP3   OH236426   2.466   6.791   8.398 -0.5193 -0.4791  0.0649
 4956TIP3    H136427   2.412   6.850   8.345 -1.9455  0.2443  2.1786
 4956TIP3    H236428   2.427   6.704   8.385  1.7099 -1.1654 -3.2148
 4957TIP3   OH236429   5.185   1.310   2.354  0.4419  0.1289  0.1093
 4957TIP3    H136430   5.158   1.359   2.432 -1.2445 -0.7251  0.1139
 4957TIP3    H236431   5.174   1.372   2.282 -2.0317 -0.2342  0.0644
 4958TIP3   OH236432   6.004   1.448   1.092  0.1731 -0.3275  0.2137
 4958TIP3    H136433   5.962   1.444   1.006 -1.4608  0.6225  0.9135
 4958TIP3    H236434   5.980   1.366   1.134  1.0559 -0.8373 -0.2420
 4959TIP3   OH236435   5.446   0.055   8.345  0.5262  0.2714  0.0033
 4959TIP3    H136436   5.389  -0.008   8.389 -1.7470  1.6863 -0.6853
 4959TIP3    H236437   5.441   0.133   8.400  1.1967  0.6608 -0.4807
 4960TIP3   OH236438   4.503   3.783   6.893 -0.0887 -0.2160  0.5140
 4960TIP3    H136439   4.420   3.736   6.900  1.1682 -2.6222  0.3584
 4960TIP3    H236440   4.569   3.714   6.886  2.0269  1.5742  1.5148
 4961TIP3   OH236441   1.416   1.276   7.575  0.5080 -0.1509 -0.3367
 4961TIP3    H136442   1.417   1.225   7.656  0.7678  0.0820 -0.1914
 4961TIP3    H236443   1.455   1.360   7.599 -0.2649  0.2602 -0.4828
 4962TIP3   OH236444   4.540   4.848   7.582  0.4044 -0.1481 -0.1393
 4962TIP3    H136445   4.522   4.829   7.674 -2.4047  0.1721 -0.5478
 4962TIP3    H236446   4.544   4.943   7.578 -0.3561 -0.1305 -0.4863
 4963TIP3   OH236447   6.332   1.676   7.040 -0.0134  0.5460 -0.5210
 4963TIP3    H136448   6.300   1.670   6.950 -0.2999  1.7074 -0.5184
 4963TIP3    H236449   6.422   1.707   7.031  0.3078 -0.3419 -0.4370
 4964TIP3   OH236450   2.503   2.490   6.730 -0.0257 -0.4218 -0.2794
 4964TIP3    H136451   2.492   2.578   6.766 -0.7113 -0.2794 -0.8077
 4964TIP3    H236452   2.452   2.434   6.788  0.2750 -0.4438 -0.0381
 4965TIP3   OH236453   4.043   1.563   0.658  0.0157  0.3658 -0.2543
 4965TIP3    H136454   4.029   1.558   0.753 -0.5304  0.2830 -0.3389
 4965TIP3    H236455   4.057   1.473   0.631  1.8789  0.5305 -0.0095
 4966TIP3   OH236456   2.893   1.371   7.317 -0.7945  0.5095 -0.0501
 4966TIP3    H136457   2.954   1.439   7.287 -0.8723  0.3251 -0.6497
 4966TIP3    H236458   2.929   1.343   7.401  0.0057  0.3507 -0.4275
 4967TIP3   OH236459   1.897   5.332   1.307 -0.2983  0.2755  0.2414
 4967TIP3    H136460   1.992   5.335   1.307 -0.2715 -0.3469  0.1723
 4967TIP3    H236461   1.871   5.385   1.232 -0.0424  1.1911  0.7889
 4968TIP3   OH236462   5.682   0.511   6.854 -0.5921  0.1513  0.4594
 4968TIP3    H136463   5.649   0.422   6.866 -0.9904  0.0972 -0.8752
 4968TIP3    H236464   5.739   0.526   6.930  1.2153 -2.0416 -0.3637
 4969TIP3   OH236465   5.563   5.974   7.061 -0.4533  0.0679  0.3641
 4969TIP3    H136466   5.494   6.036   7.036 -0.3094 -0.5665 -1.8412
 4969TIP3    H236467   5.563   5.909   6.991  1.6741 -0.5397  0.8555
 4970TIP3   OH236468   6.090   5.473   7.680  0.1769 -0.0814  0.2128
 4970TIP3    H136469   6.163   5.477   7.617  0.7817 -4.3344  0.4046
 4970TIP3    H236470   6.053   5.561   7.677  2.3664  0.9705 -3.4329
 4971TIP3   OH236471   2.881   3.172   7.768  0.2997 -0.1998  0.2802
 4971TIP3    H136472   2.797   3.213   7.747  0.0792 -0.5107  0.5555
 4971TIP3    H236473   2.883   3.093   7.714  1.5138  1.0492 -1.6280
 4972TIP3   OH236474   2.610   3.354   7.728  0.5978 -0.3358  0.7387
 4972TIP3    H136475   2.614   3.293   7.654 -2.5602 -0.5591  0.6406
 4972TIP3    H236476   2.524   3.395   7.721  2.2177  3.6001  1.2906
 4973TIP3   OH236477   4.114   1.353   7.507 -0.4057 -0.5727 -0.3341
 4973TIP3    H136478   4.093   1.400   7.588  1.3013  0.1460 -0.2633
 4973TIP3    H236479   4.134   1.264   7.536 -0.3295 -0.4587 -0.0260
 4974TIP3   OH236480   5.343   3.790   6.650 -0.5451 -0.1818 -0.3291
 4974TIP3    H136481   5.382   3.714   6.607  1.4452  0.5603  0.0252
 4974TIP3    H236482   5.413   3.855   6.651 -1.6124  1.0234  0.9843
 4975TIP3   OH236483   5.478   2.294   5.957 -0.6558 -0.0867 -0.8716
 4975TIP3    H136484   5.552   2.237   5.978 -0.7490 -0.7778 -2.3338
 4975TIP3    H236485   5.405   2.234   5.941 -0.6616  0.3631 -2.8192
 4976TIP3   OH236486   0.439   5.205   0.504 -0.2571 -0.2023  0.2305
 4976TIP3    H136487   0.400   5.268   0.444 -1.6742 -2.5286 -1.4525
 4976TIP3    H236488   0.421   5.119   0.465  1.8258 -1.6898  2.2351
 4977TIP3   OH236489   0.421   0.994   8.468 -0.2363  0.0633  0.1185
 4977TIP3    H136490   0.367   1.065   8.433 -0.2491 -0.6070 -1.3279
 4977TIP3    H236491   0.485   1.038   8.524  0.1877  1.3273 -1.2750
 4978TIP3   OH236492   2.066   2.549   5.904 -0.2215  0.1020  0.4552
 4978TIP3    H136493   2.112   2.473   5.868 -1.5538 -0.2946 -0.4955
 4978TIP3    H236494   2.024   2.515   5.983 -2.2258 -0.6856 -0.8589
 4979TIP3   OH236495   4.637   2.406   1.437  0.1880  0.0730 -0.1833
 4979TIP3    H136496   4.588   2.412   1.518  0.4023  1.1360 -0.1229
 4979TIP3    H236497   4.572   2.379   1.371 -0.0548 -0.4467  0.2650
 4980TIP3   OH236498   6.171   3.955   8.345 -0.0187  0.2958  0.3376
 4980TIP3    H136499   6.174   4.046   8.315  0.8848 -0.1728 -1.0724
 4980TIP3    H236500   6.080   3.943   8.373 -0.4166  1.3456 -0.4071
 4981TIP3   OH236501   3.616   1.134   1.672 -0.3024  0.2571 -0.4229
 4981TIP3    H136502   3.591   1.088   1.752  1.9449  2.0563  1.4320
 4981TIP3    H236503   3.596   1.226   1.689 -1.1970  0.5362 -2.5822
 4982TIP3   OH236504   3.418   0.091   7.370  0.0656  0.3763  0.3968
 4982TIP3    H136505   3.391   0.182   7.355 -1.2082 -0.1785 -0.9033
 4982TIP3    H236506   3.337   0.040   7.366  0.9675 -1.0584 -1.1915
 4983TIP3   OH236507   5.764   4.001   1.855 -0.1095  0.2727 -0.0382
 4983TIP3    H136508   5.752   4.095   1.840  1.0010 -0.0587 -4.7544
 4983TIP3    H236509   5.853   3.984   1.824 -0.3431 -2.3658  0.5266
 4984TIP3   OH236510   4.144   3.509   8.036  0.3038  0.4697 -0.0621
 4984TIP3    H136511   4.204   3.436   8.055 -0.9274 -0.5113  0.2323
 4984TIP3    H236512   4.102   3.528   8.120 -1.6300 -0.6021 -0.7311
 4985TIP3   OH236513   0.780   4.635   1.373  0.2103  0.0506 -0.0237
 4985TIP3    H136514   0.695   4.592   1.384  0.9492 -1.0235  2.0548
 4985TIP3    H236515   0.842   4.563   1.365  0.8506  0.7902 -3.3752
 4986TIP3   OH236516   4.128   3.490   6.073 -0.3674 -0.0974 -0.5851
 4986TIP3    H136517   4.196   3.513   6.010 -0.6761  1.2722 -0.4397
 4986TIP3    H236518   4.072   3.567   6.077  0.3593  0.3949  2.3104
 4987TIP3   OH236519   6.621   2.247   6.351  0.0747  0.4453 -0.9657
 4987TIP3    H136520   6.558   2.283   6.289  0.6591 -0.9826 -2.4456
 4987TIP3    H236521   6.687   2.204   6.297  0.2495 -1.4583  0.6381
 4988TIP3   OH236522   0.908   4.224   7.361 -0.1503 -0.2736 -0.0255
 4988TIP3    H136523   0.888   4.173   7.283  3.7945 -1.4993 -0.4485
 4988TIP3    H236524   0.903   4.315   7.333  0.4161 -0.6772 -1.5089
 4989TIP3   OH236525   1.066   0.070   1.788  0.6444  0.6060  0.4504
 4989TIP3    H136526   1.084   0.145   1.845  0.1908  0.1196  1.2501
 4989TIP3    H236527   1.036   0.109   1.706 -0.7706  1.2951  1.2648
 4990TIP3   OH236528   3.348   5.117   7.818  0.0105 -0.1638 -0.2226
 4990TIP3    H136529   3.348   5.022   7.803 -1.3256 -0.0504 -1.0722
 4990TIP3    H236530   3.399   5.152   7.745  0.9953 -0.2458  0.4030
 4991TIP3   OH236531   6.733   3.086   1.050 -0.0421 -0.2817 -0.7461
 4991TIP3    H136532   6.792   3.117   1.119 -1.9001  2.0670 -0.0832
 4991TIP3    H236533   6.658   3.050   1.097 -0.2350 -0.9439 -1.5516
 4992TIP3   OH236534   6.247   2.309   1.209  0.1583 -0.0839 -0.3368
 4992TIP3    H136535   6.340   2.319   1.226 -0.2480  0.8487  1.6317
 4992TIP3    H236536   6.241   2.297   1.114  2.1157  1.8756 -0.7860
 4993TIP3   OH236537   0.726   2.029   7.659  0.1953 -0.3673  0.1638
 4993TIP3    H136538   0.727   2.098   7.592  2.0533 -1.0010 -0.5282
 4993TIP3    H236539   0.752   2.073   7.740 -0.5941  0.1248  0.1489
 4994TIP3   OH236540   1.076   5.421   0.912  0.4034 -0.4308 -0.2468
 4994TIP3    H136541   1.022   5.385   0.983 -0.8159  1.9001  0.1171
 4994TIP3    H236542   1.154   5.454   0.956  0.4664 -0.5858 -0.2427
 4995TIP3   OH236543   3.689   2.552   1.664 -0.8051 -0.9450  0.1919
 4995TIP3    H136544   3.610   2.499   1.665 -0.1308 -1.9907 -0.3261
 4995TIP3    H236545   3.714   2.557   1.571  0.1134 -1.2161  0.4116
 4996TIP3   OH236546   1.566   6.701   0.745 -0.1948  0.1279  0.3249
 4996TIP3    H136547   1.591   6.768   0.809 -0.8917 -0.7293  1.5379
 4996TIP3    H236548   1.476   6.723   0.722  0.2270  0.7539 -0.8252
 4997TIP3   OH236549   4.403   1.908   1.443  0.0080  0.7825  0.1320
 4997TIP3    H136550   4.395   1.904   1.538 -0.8238 -1.9992  0.0192
 4997TIP3    H236551   4.322   1.948   1.413 -0.7745 -0.4731  0.5126
 4998TIP3   OH236552   6.729   2.835   6.487  0.4817 -0.3453  0.1653
 4998TIP3    H136553   6.650   2.842   6.433 -0.2132  0.8496  1.2943
 4998TIP3    H236554   6.798   2.810   6.425 -0.8811 -2.0812 -0.7334
 4999TIP3   OH236555   3.778   0.559   8.409 -0.0905  0.0624 -0.0893
 4999TIP3    H136556   3.745   0.546   8.320  0.1847  1.4857 -0.4136
 4999TIP3    H236557   3.832   0.481   8.425 -0.8061 -0.6186 -0.8353
 5000TIP3   OH236558   6.047   3.052   5.739  0.2462  0.2358  0.6276
 5000TIP3    H136559   6.044   3.122   5.674 -1.9981  2.5286  2.9271
 5000TIP3    H236560   6.007   2.977   5.696  1.5103  0.7074 -1.5112
 5001TIP3   OH236561   0.431   2.951   0.596 -0.1429  0.2289  0.4483
 5001TIP3    H136562   0.438   2.857   0.581 -0.5773 -0.0566  1.8584
 5001TIP3    H236563   0.520   2.984   0.586 -0.2672  0.0163 -1.9322
 5002TIP3   OH236564   4.676   6.498   6.368  0.4096  0.1898 -1.0191
 5002TIP3    H136565   4.702   6.568   6.308 -0.8772  0.3834 -1.3933
 5002TIP3    H236566   4.584   6.518   6.389  0.8409  0.1977  1.1306
 5003TIP3   OH236567   2.963   5.899   1.793  0.1358  0.3767 -0.4664
 5003TIP3    H136568   2.888   5.925   1.848 -0.2071  1.3798 -1.3704
 5003TIP3    H236569   2.963   5.963   1.722  1.3641 -0.1200 -0.9288
 5004TIP3   OH236570   2.288   5.673   2.529 -0.1232 -0.4112  0.0864
 5004TIP3    H136571   2.316   5.760   2.499 -3.2053  1.4723  2.1562
 5004TIP3    H236572   2.356   5.645   2.589  1.3713  0.0702 -1.2995
 5005TIP3   OH236573   3.748   1.748   7.446  0.0926 -0.0131  0.6223
 5005TIP3    H136574   3.773   1.729   7.355  2.3381  1.3186  0.8731
 5005TIP3    H236575   3.655   1.771   7.441  0.3526  0.8400 -1.4976
 5006TIP3   OH236576   0.763   2.151   1.265  0.0414  0.0797  0.2609
 5006TIP3    H136577   0.851   2.130   1.298  0.2747  1.1981  0.3678
 5006TIP3    H236578   0.744   2.238   1.299 -1.7262 -0.7151  1.4536
 5007TIP3   OH236579   1.707   1.407   8.442  0.4400  0.2123 -0.1902
 5007TIP3    H136580   1.653   1.436   8.516  1.2285 -0.2662  0.6006
 5007TIP3    H236581   1.754   1.485   8.414 -1.2986  0.8564 -1.4890
 5008TIP3   OH236582   6.792   4.522   8.305  0.7318 -0.2496 -0.2846
 5008TIP3    H136583   6.866   4.525   8.245  0.8003 -2.1182 -0.3425
 5008TIP3    H236584   6.813   4.451   8.366  0.1320  0.8511  1.2687
 5009TIP3   OH236585   4.316   0.564   1.737 -0.1669  0.3030 -0.5007
 5009TIP3    H136586   4.327   0.589   1.829 -1.1548 -1.1241  0.0489
 5009TIP3    H236587   4.318   0.647   1.689  0.9961  1.0260  0.7234
 5010TIP3   OH236588   2.224   3.491   7.528  0.3172 -0.9984  1.0795
 5010TIP3    H136589   2.293   3.430   7.503  0.5303 -0.0543 -0.7569
 5010TIP3    H236590   2.143   3.448   7.501  0.4354 -0.6940  0.2111
 5011TIP3   OH236591   0.358   5.212   7.355 -0.3893  0.0682 -0.4517
 5011TIP3    H136592   0.283   5.272   7.348  0.0484  0.6639 -0.0801
 5011TIP3    H236593   0.430   5.258   7.313 -0.2323 -0.5211 -0.8377
 5012TIP3   OH236594   5.425   5.716   6.118 -0.6729 -0.4812  0.1479
 5012TIP3    H136595   5.519   5.727   6.131 -0.5406 -1.0633 -0.2495
 5012TIP3    H236596   5.409   5.748   6.029 -0.8885 -0.1645  0.3016
 5013TIP3   OH236597   0.222   2.694   0.049  0.7389 -0.1121  0.6739
 5013TIP3    H136598   0.172   2.733  -0.022  1.1397  1.5615  1.2485
 5013TIP3    H236599   0.269   2.621   0.009 -1.6412 -1.3618 -0.0052
 5014TIP3   OH236600   4.554   2.338   2.371 -0.1863 -0.1172  0.0785
 5014TIP3    H136601   4.603   2.259   2.394 -0.9650 -0.1945  1.6325
 5014TIP3    H236602   4.618   2.409   2.375  0.3519 -0.5580 -0.5690
 5015TIP3   OH236603   0.923   6.561   0.643  0.0249 -0.3814 -0.2193
 5015TIP3    H136604   0.901   6.493   0.579 -2.1996 -0.5988  0.6899
 5015TIP3    H236605   0.926   6.642   0.592 -1.6127 -0.5707 -0.6874
 5016TIP3   OH236606   0.578   1.142   0.105  0.0268  0.2655 -0.1293
 5016TIP3    H136607   0.559   1.228   0.143 -1.2530 -0.7717  1.7760
 5016TIP3    H236608   0.627   1.161   0.025 -0.5767  2.7664  0.0110
 5017TIP3   OH236609   6.827   6.044   6.473 -0.0740  0.5458 -0.1828
 5017TIP3    H136610   6.734   6.046   6.495 -0.6706  0.7855 -2.4135
 5017TIP3    H236611   6.870   6.004   6.548 -2.2815 -1.7308 -0.0378
 5018TIP3   OH236612   4.944   3.148   0.081 -0.6100  0.1820 -0.3446
 5018TIP3    H136613   5.031   3.134   0.120 -0.9211 -0.1212  0.2410
 5018TIP3    H236614   4.955   3.227   0.027 -0.1880  0.6591  0.4149
 5019TIP3   OH236615   3.890   1.609   6.443  0.2445 -0.0760  0.1306
 5019TIP3    H136616   3.972   1.574   6.407  1.3391 -0.1351  2.5129
 5019TIP3    H236617   3.864   1.677   6.381  2.4907  0.4455 -0.3048
 5020TIP3   OH236618   0.322   6.595   1.423 -0.1203  0.1318  0.1773
 5020TIP3    H136619   0.379   6.579   1.499 -0.3258 -0.4765  0.2074
 5020TIP3    H236620   0.241   6.548   1.444 -0.0452 -0.3517 -0.5848
 5021TIP3   OH236621   1.526   3.913   1.655 -0.1708 -0.1203 -0.0917
 5021TIP3    H136622   1.601   3.969   1.639 -1.0034  0.8577 -0.7036
 5021TIP3    H236623   1.549   3.864   1.734  0.7519  0.7789  0.2153
 5022TIP3   OH236624   5.156   5.426   8.531 -0.6505  0.0529 -0.4698
 5022TIP3    H136625   5.072   5.453   8.570 -0.8726 -1.7183  0.4111
 5022TIP3    H236626   5.154   5.330   8.536  2.2612 -0.0388  1.4149
 5023TIP3   OH236627   2.277   2.076   8.460  0.1509 -0.1986  0.6753
 5023TIP3    H136628   2.263   2.030   8.544 -2.7034  0.8353  0.8836
 5023TIP3    H236629   2.189   2.089   8.426  1.1103  1.7222 -1.2598
 5024TIP3   OH236630   1.233   6.708   8.110  0.1012 -0.0127  0.1288
 5024TIP3    H136631   1.213   6.802   8.119  0.8851  0.0568  1.3231
 5024TIP3    H236632   1.250   6.679   8.199  2.9211 -0.5862 -0.5237
 5025TIP3   OH236633   5.087   3.349   8.414  0.9862 -0.1487 -0.0321
 5025TIP3    H136634   5.139   3.421   8.376  0.9802 -0.1375 -0.0195
 5025TIP3    H236635   5.051   3.303   8.338 -0.4666  0.9131 -0.0260
 5026TIP3   OH236636   2.171   6.857   0.087  0.1027  0.2277 -0.4625
 5026TIP3    H136637   2.177   6.932   0.147 -0.8256  1.3140 -1.6543
 5026TIP3    H236638   2.153   6.897   0.002  0.7022 -1.3134 -1.3385
 5027TIP3   OH236639   2.703   1.464   0.122  0.3467 -0.6404 -0.4221
 5027TIP3    H136640   2.639   1.393   0.132 -1.1783  0.7520  0.2178
 5027TIP3    H236641   2.707   1.505   0.208  0.5558  0.5601 -0.9781
 5028TIP3   OH236642   5.508   0.706   1.144  0.2688 -0.4298 -0.1615
 5028TIP3    H136643   5.444   0.705   1.216 -0.0887  4.3298 -0.1360
 5028TIP3    H236644   5.456   0.685   1.066 -0.2175 -1.4530  0.4093
 5029TIP3   OH236645   3.086   2.943   1.763 -0.0416 -0.0082 -0.0917
 5029TIP3    H136646   3.082   2.971   1.854  0.6884  0.0552 -0.0747
 5029TIP3    H236647   3.108   2.850   1.767 -2.5811 -0.6632 -0.1454
 5030TIP3   OH236648   3.431   2.098   6.591 -0.2573 -0.1745 -0.1327
 5030TIP3    H136649   3.453   2.005   6.594 -1.9418 -0.6308  3.2084
 5030TIP3    H236650   3.339   2.102   6.616 -0.2340  2.4105 -0.1827
 5031TIP3   OH236651   4.220   0.826   0.610 -0.4299 -0.5090  0.2878
 5031TIP3    H136652   4.279   0.896   0.636 -0.0321 -0.2216 -1.3116
 5031TIP3    H236653   4.264   0.746   0.640  0.7858 -0.2972 -0.8518
 5032TIP3   OH236654   3.338   0.416   7.234  0.1956  0.0573 -0.6299
 5032TIP3    H136655   3.433   0.417   7.243  0.2073  0.8574 -0.8291
 5032TIP3    H236656   3.322   0.390   7.143  0.1777 -1.5737 -0.2094
 5033TIP3   OH236657   6.097   5.731   7.380  0.4865 -0.1645  0.4393
 5033TIP3    H136658   6.160   5.696   7.444 -0.6859 -2.2527  0.5490
 5033TIP3    H236659   6.118   5.684   7.299 -1.4791 -1.6842  0.7266
 5034TIP3   OH236660   6.663   0.583   8.462 -0.1487 -0.1875  0.1630
 5034TIP3    H136661   6.624   0.522   8.525  1.1207 -0.4096  0.7612
 5034TIP3    H236662   6.730   0.629   8.511 -1.1924  1.8587 -0.2343
 5035TIP3   OH236663   2.759   5.445   8.045  0.6904 -0.0023  0.3232
 5035TIP3    H136664   2.784   5.372   8.101  1.7313  1.1438  1.4142
 5035TIP3    H236665   2.683   5.483   8.089  0.1172 -0.4455 -0.2717
 5036TIP3   OH236666   2.270   0.529   8.126  0.1192  0.1844  0.3054
 5036TIP3    H136667   2.204   0.597   8.140 -1.0856 -1.3025  2.3700
 5036TIP3    H236668   2.310   0.516   8.212  0.0855 -1.9044  0.0607
 5037TIP3   OH236669   6.854   5.976   7.960 -0.5465 -0.3831  0.2717
 5037TIP3    H136670   6.867   6.048   7.897  1.1218 -2.4480 -1.9236
 5037TIP3    H236671   6.789   5.920   7.918  0.7398 -1.9105  0.2291
 5038TIP3   OH236672   6.396   2.598   1.876  0.5973  0.0558  0.8939
 5038TIP3    H136673   6.359   2.640   1.954  1.0283  0.7645  0.7282
 5038TIP3    H236674   6.482   2.567   1.905  1.0198  0.8670  0.5521
 5039TIP3   OH236675   3.582   4.094   1.598  0.1245 -0.2932  0.1927
 5039TIP3    H136676   3.612   4.134   1.680 -1.0384 -1.1611  1.0688
 5039TIP3    H236677   3.661   4.055   1.560  0.3352 -1.8453  2.0495
 5040TIP3   OH236678   1.136   4.538   1.360 -0.0993 -0.2157 -0.5611
 5040TIP3    H136679   1.183   4.459   1.387  1.7333  1.1826  0.5348
 5040TIP3    H236680   1.133   4.533   1.264  1.0286 -1.0319 -0.5682
 5041TIP3   OH236681   3.378   5.549   8.367 -0.2240 -0.0137  0.0899
 5041TIP3    H136682   3.352   5.569   8.278 -0.1235 -0.1269  0.0350
 5041TIP3    H236683   3.299   5.514   8.408 -0.8520  1.9292  0.6463
 5042TIP3   OH236684   3.076   0.374   7.314  0.1260 -0.4653  0.0786
 5042TIP3    H136685   3.077   0.376   7.410 -0.3193  1.0600  0.0722
 5042TIP3    H236686   3.167   0.391   7.289  0.3283 -1.2832  0.2086
 5043TIP3   OH236687   6.884   2.494   7.635  0.3933  0.1318 -0.2837
 5043TIP3    H136688   6.889   2.549   7.557 -0.9896 -2.0647 -2.0525
 5043TIP3    H236689   6.971   2.455   7.643  0.8585  1.1797 -0.0503
 5044TIP3   OH236690   5.208   4.026   0.169  0.0308 -0.7320 -0.2805
 5044TIP3    H136691   5.125   4.036   0.122  0.7949 -0.3159 -1.5815
 5044TIP3    H236692   5.274   4.058   0.108  0.8328  3.0029  2.2019
 5045TIP3   OH236693   2.112   0.083   0.658 -0.2112  0.2433 -0.1568
 5045TIP3    H136694   2.146   0.097   0.746 -1.2672  0.2075  0.2648
 5045TIP3    H236695   2.151   0.000   0.630 -1.1058 -0.5560  0.8967
 5046TIP3   OH236696   1.096   2.673   0.573  0.1104 -0.2077  0.0208
 5046TIP3    H136697   1.070   2.647   0.484 -0.5963  1.2753 -0.2294
 5046TIP3    H236698   1.093   2.768   0.572 -0.6000 -0.1837  1.8629
 5047TIP3   OH236699   0.322   4.164   6.755  0.0164  0.4348  0.2408
 5047TIP3    H136700   0.298   4.112   6.678 -1.2311 -0.1783  1.0044
 5047TIP3    H236701   0.375   4.236   6.720 -0.7482  0.3304 -1.2141
 5048TIP3   OH236702   0.913   2.796   7.743  0.1905 -0.1893  0.3130
 5048TIP3    H136703   0.920   2.716   7.690  0.9631 -0.8716  1.3810
 5048TIP3    H236704   0.847   2.775   7.810 -1.5352  1.0254 -0.9405
 5049TIP3   OH236705   2.666   5.567   7.206  0.6099  0.1528 -0.4359
 5049TIP3    H136706   2.681   5.578   7.112  1.0937 -0.6849 -0.4666
 5049TIP3    H236707   2.690   5.476   7.223  0.6609  0.3427  0.5276
 5050TIP3   OH236708   4.833   4.554   1.452  0.2077 -0.2211  0.1343
 5050TIP3    H136709   4.806   4.641   1.481  1.8392  0.5408 -0.4840
 5050TIP3    H236710   4.913   4.569   1.402 -0.3722 -1.9082 -1.4363
 5051TIP3   OH236711   0.104   2.909   7.580  0.3300 -0.1131 -0.6823
 5051TIP3    H136712   0.178   2.871   7.628  0.8275  1.1813 -0.3618
 5051TIP3    H236713   0.044   2.836   7.565  0.5819 -0.7386  1.1084
 5052TIP3   OH236714   3.294   2.341   6.623  0.4362 -0.2501 -0.1532
 5052TIP3    H136715   3.302   2.318   6.531 -0.8201  1.1770 -0.6695
 5052TIP3    H236716   3.250   2.267   6.663  1.2975 -1.0271 -0.6201
 5053TIP3   OH236717   3.815   1.705   6.957 -0.1160  0.9542  0.7454
 5053TIP3    H136718   3.840   1.797   6.948  1.2243  0.5189 -0.2567
 5053TIP3    H236719   3.789   1.678   6.869  0.6874  0.0548  0.7691
 5054TIP3   OH236720   0.889   2.178   0.078  0.3827  0.1346  0.0885
 5054TIP3    H136721   0.814   2.125   0.105  1.3459 -0.9478  0.7305
 5054TIP3    H236722   0.941   2.190   0.158  0.7470  1.1280 -0.2755
 5055TIP3   OH236723   6.571   4.178   0.612  0.1740 -0.2419  0.4531
 5055TIP3    H136724   6.662   4.202   0.593  0.7765 -0.6441  2.6022
 5055TIP3    H236725   6.578   4.093   0.655 -1.3420 -0.7791 -0.3049
 5056TIP3   OH236726   2.148   3.490   0.491 -0.1598 -0.4958 -0.1648
 5056TIP3    H136727   2.088   3.565   0.490 -0.4730 -0.6247  2.4209
 5056TIP3    H236728   2.211   3.509   0.421 -0.9370  1.5670 -0.3770
 5057TIP3   OH236729   6.887   5.390   1.446 -0.6078 -0.1222  0.5609
 5057TIP3    H136730   6.974   5.353   1.464 -1.1040 -1.3432  0.5984
 5057TIP3    H236731   6.891   5.479   1.481  0.4436 -0.3582  1.1004
 5058TIP3   OH236732   4.159   1.981   1.372  0.2491 -0.4244  0.2635
 5058TIP3    H136733   4.162   2.015   1.283 -0.4216  0.2279  0.4829
 5058TIP3    H236734   4.074   1.937   1.378  0.5302 -0.9572  0.4078
 5059TIP3   OH236735   4.551   4.106   8.158  0.0011  0.4508  0.0516
 5059TIP3    H136736   4.535   4.170   8.227 -0.6559  1.1984 -0.7691
 5059TIP3    H236737   4.567   4.024   8.205  1.6285  1.3325  1.1629
 5060TIP3   OH236738   4.286   0.739   1.290  0.2747  0.1209 -0.1449
 5060TIP3    H136739   4.259   0.687   1.215 -0.0198  2.0421 -1.4333
 5060TIP3    H236740   4.207   0.784   1.318  0.4724 -0.2489  1.0882
 5061TIP3   OH236741   0.441   4.824   0.487 -0.1227 -0.0563 -0.4860
 5061TIP3    H136742   0.379   4.804   0.416 -0.5800  4.4631 -1.6808
 5061TIP3    H236743   0.385   4.846   0.562  0.0600  1.4331 -0.7589
 5062TIP3   OH236744   2.655   2.599   8.198 -0.3182 -0.1081 -0.0862
 5062TIP3    H136745   2.709   2.617   8.122  0.4375  3.3906  1.0977
 5062TIP3    H236746   2.716   2.565   8.263 -0.0906  0.8390  0.2218
 5063TIP3   OH236747   3.044   1.190   6.951  0.2136  0.6795 -0.1683
 5063TIP3    H136748   2.999   1.150   7.026  0.8318 -0.4017 -0.3529
 5063TIP3    H236749   3.059   1.118   6.891  0.3537  1.4165 -1.0334
 5064TIP3   OH236750   3.602   3.167   1.735  0.7168 -0.3934 -0.4888
 5064TIP3    H136751   3.655   3.103   1.781  0.7127 -0.5943 -0.7621
 5064TIP3    H236752   3.634   3.252   1.766  0.5383 -0.5277  0.0757
 5065TIP3   OH236753   1.095   0.652   0.934 -0.5259 -0.1605  0.0357
 5065TIP3    H136754   1.137   0.671   0.851  1.9500 -1.8327  0.7905
 5065TIP3    H236755   1.088   0.557   0.937  1.7690 -0.3776  2.6727
 5066TIP3   OH236756   3.998   6.622   2.383 -0.1293  0.3884 -0.4005
 5066TIP3    H136757   4.069   6.683   2.365  0.1162  0.1692 -0.1891
 5066TIP3    H236758   3.922   6.677   2.402  0.0611  0.6240 -0.3229
 5067TIP3   OH236759   3.768   2.813   0.532  0.0334  0.1727 -0.1563
 5067TIP3    H136760   3.752   2.807   0.627 -2.8055  1.9304 -0.3999
 5067TIP3    H236761   3.781   2.907   0.517  0.3180 -0.0797 -1.5517
 5068TIP3   OH236762   6.430   4.632   7.188 -0.3789  0.4433  0.0673
 5068TIP3    H136763   6.478   4.641   7.270 -1.0821 -0.7968  0.6346
 5068TIP3    H236764   6.371   4.557   7.202  2.4530 -2.7018 -2.9473
 5069TIP3   OH236765   2.465   6.714   7.309  0.0166  0.4576  0.1099
 5069TIP3    H136766   2.439   6.718   7.217 -0.8359  1.7595  0.3742
 5069TIP3    H236767   2.516   6.634   7.316 -0.7368 -0.1879 -1.2847
 5070TIP3   OH236768   2.910   3.329   7.418 -1.2757  0.0230  0.0370
 5070TIP3    H136769   2.961   3.350   7.496  1.1720  2.6325 -2.0385
 5070TIP3    H236770   2.960   3.259   7.375 -1.0532  0.5269 -0.5371
 5071TIP3   OH236771   1.623   4.991   6.995  0.3250  0.1525  0.3176
 5071TIP3    H136772   1.582   4.918   7.041 -1.4202  0.4315 -0.6790
 5071TIP3    H236773   1.689   4.950   6.939 -0.2980 -0.6084  0.1268
 5072TIP3   OH236774   1.197   2.656   6.338 -0.0135  0.5012  0.2082
 5072TIP3    H136775   1.177   2.601   6.262 -0.6831  1.3120 -0.2288
 5072TIP3    H236776   1.269   2.612   6.382  1.3552  0.7225 -1.6742
 5073TIP3   OH236777   3.424   3.900   0.200 -0.2464  0.6348  0.1546
 5073TIP3    H136778   3.517   3.923   0.204  0.6897 -2.3100 -1.5685
 5073TIP3    H236779   3.413   3.837   0.271  0.0530 -1.6978 -1.7564
 5074TIP3   OH236780   0.929   3.065   1.391  0.1820 -0.7083  0.1778
 5074TIP3    H136781   0.988   3.010   1.339  0.5926  0.2217 -0.3526
 5074TIP3    H236782   0.954   3.047   1.482  1.3744 -0.2405 -0.0461
 5075TIP3   OH236783   3.627   1.058   8.468 -0.6240  0.5087 -0.1062
 5075TIP3    H136784   3.708   1.065   8.416 -0.0001  0.0989  0.7769
 5075TIP3    H236785   3.651   1.096   8.553 -1.4093  0.5010  0.1202
 5076TIP3   OH236786   4.855   4.013   6.607  0.5835  0.2811  0.8623
 5076TIP3    H136787   4.777   3.983   6.654  1.0663 -0.0870  1.4334
 5076TIP3    H236788   4.924   4.018   6.673  1.0002  0.8132  0.4041
 5077TIP3   OH236789   4.348   2.026   7.811 -0.0066 -0.1413  0.3273
 5077TIP3    H136790   4.307   1.954   7.762 -1.4387  0.9274 -0.1272
 5077TIP3    H236791   4.375   1.986   7.893  2.4123 -1.9783 -1.2319
 5078TIP3   OH236792   2.198   1.746   7.647 -0.5327 -0.8119  0.1943
 5078TIP3    H136793   2.237   1.767   7.732  0.8509  1.6641 -0.9305
 5078TIP3    H236794   2.157   1.827   7.619 -1.4618 -1.7399 -1.2716
 5079TIP3   OH236795   0.061   2.174   0.653 -0.2244 -0.5471  0.2613
 5079TIP3    H136796   0.004   2.228   0.599 -0.9539  0.7184  2.1967
 5079TIP3    H236797   0.024   2.086   0.648  0.6746 -0.8671 -2.5092
 5080TIP3   OH236798   3.521   6.241   8.168  0.0370 -0.4106 -0.2927
 5080TIP3    H136799   3.577   6.316   8.146 -1.5434  0.3954 -1.7726
 5080TIP3    H236800   3.572   6.165   8.140  1.4750  0.0735  0.8170
 5081TIP3   OH236801   6.370   4.559   1.388 -0.2083 -0.0267  0.2710
 5081TIP3    H136802   6.351   4.480   1.438  0.6369  0.7406  1.8833
 5081TIP3    H236803   6.455   4.543   1.348  0.2133  0.2448  1.0353
 5082TIP3   OH236804   2.690   6.156   0.583  0.4702  0.1819  0.4429
 5082TIP3    H136805   2.631   6.231   0.596  0.5577  0.9929 -2.9498
 5082TIP3    H236806   2.778   6.194   0.587  0.5262  0.2304 -0.9476
 5083TIP3   OH236807   6.846   4.243   0.265  0.3636  0.3635 -0.4954
 5083TIP3    H136808   6.934   4.225   0.231  0.7615  1.2932  0.0122
 5083TIP3    H236809   6.861   4.277   0.353 -0.5329  0.1927 -0.2690
 5084TIP3   OH236810   3.548   6.837   7.559 -0.2027 -0.1540  0.5200
 5084TIP3    H136811   3.614   6.885   7.608 -1.2807  2.6669 -0.5865
 5084TIP3    H236812   3.491   6.904   7.523 -2.6745 -2.3614 -0.0457
 5085TIP3   OH236813   4.753   4.744   0.764 -0.2007  0.5276 -0.2056
 5085TIP3    H136814   4.835   4.707   0.796  0.6993  1.9404 -0.7860
 5085TIP3    H236815   4.698   4.751   0.842 -0.2166 -1.4375  0.0142
 5086TIP3   OH236816   1.915   2.641   7.394  0.8664 -0.0658 -0.1667
 5086TIP3    H136817   1.969   2.661   7.318  0.6100  0.0179 -0.3282
 5086TIP3    H236818   1.860   2.718   7.406  0.0780 -0.5365 -0.6180
 5087TIP3   OH236819   3.356   6.761   8.452  0.2364 -0.6201  0.8144
 5087TIP3    H136820   3.400   6.748   8.368 -2.6327  1.0301 -1.1270
 5087TIP3    H236821   3.365   6.855   8.469 -1.0649 -0.5273  1.1482
 5088TIP3   OH236822   3.088   1.617   7.553 -0.2562  0.3449  0.4251
 5088TIP3    H136823   3.057   1.670   7.627  0.4853  2.0624 -0.4216
 5088TIP3    H236824   3.149   1.675   7.507  1.0402 -1.4965 -0.2541
 5089TIP3   OH236825   0.396   5.142   1.745  0.4999 -0.2104  0.1692
 5089TIP3    H136826   0.489   5.150   1.724  0.5325 -0.1393  0.3412
 5089TIP3    H236827   0.393   5.074   1.813  0.3863 -0.5077 -0.1279
 5090TIP3   OH236828   1.478   4.359   6.774  0.2086 -0.2758 -0.3007
 5090TIP3    H136829   1.489   4.382   6.681 -0.6677  0.4627 -0.2325
 5090TIP3    H236830   1.424   4.281   6.773 -1.1902  0.6550 -0.3871
 5091TIP3   OH236831   3.445   6.466   6.815  0.0180  0.2897  0.3472
 5091TIP3    H136832   3.427   6.537   6.754  0.0020  0.5826  0.6867
 5091TIP3    H236833   3.509   6.411   6.771  0.2055  0.6440  0.1775
 5092TIP3   OH236834   0.077   3.038   7.077 -0.2339  0.2208 -1.0564
 5092TIP3    H136835   0.147   3.103   7.074  0.1994 -0.2566 -1.4571
 5092TIP3    H236836   0.037   3.042   6.991 -0.9966  0.8088 -0.6793
 5093TIP3   OH236837   4.185   6.124   2.103  0.1644 -0.3227  0.2177
 5093TIP3    H136838   4.122   6.111   2.174 -1.9461  3.0763 -0.7423
 5093TIP3    H236839   4.263   6.158   2.146 -0.1045 -0.8383  1.1356
 5094TIP3   OH236840   6.067   2.946   6.964 -0.1153  0.3923  0.2381
 5094TIP3    H136841   6.008   2.905   7.027 -1.2061  1.1416 -0.2534
 5094TIP3    H236842   6.104   3.021   7.011 -0.2847  0.4658  0.2556
 5095TIP3   OH236843   5.654   0.266   8.329  0.5551 -0.4816 -0.0625
 5095TIP3    H136844   5.714   0.328   8.288 -0.7169  0.1204 -1.0877
 5095TIP3    H236845   5.682   0.180   8.298 -0.5791 -0.0215 -2.5623
 5096TIP3   OH236846   2.956   5.463   7.730  0.4039 -0.8067 -0.0568
 5096TIP3    H136847   2.949   5.444   7.637 -0.1030 -0.5452 -0.0731
 5096TIP3    H236848   2.899   5.539   7.744  1.6549  0.1303  0.1815
 5097TIP3   OH236849   5.959   5.352   8.317  0.2374  0.0578 -0.5730
 5097TIP3    H136850   5.871   5.368   8.283  0.4143  1.7961 -0.2907
 5097TIP3    H236851   6.013   5.421   8.279  1.2631 -0.3510  0.0933
 5098TIP3   OH236852   0.930   1.502   8.035 -0.0200  0.3775  0.4069
 5098TIP3    H136853   1.022   1.489   8.012 -0.0833  0.8651 -0.1674
 5098TIP3    H236854   0.922   1.467   8.123  0.3403 -1.1792 -0.1527
 5099TIP3   OH236855   0.513   3.647   1.960 -0.5935 -0.0103  0.2906
 5099TIP3    H136856   0.599   3.672   1.993 -1.2662 -0.2708  2.3598
 5099TIP3    H236857   0.522   3.554   1.938 -0.9036 -0.6342  2.6288
 5100TIP3   OH236858   6.412   5.628   8.390  0.2405 -0.4406 -0.1568
 5100TIP3    H136859   6.495   5.649   8.431  0.6414  0.5787 -1.4177
 5100TIP3    H236860   6.385   5.709   8.346  0.0365 -1.5262 -2.1704
 5101TIP3   OH236861   3.222   4.560   1.104  0.3322 -0.3584 -0.1412
 5101TIP3    H136862   3.304   4.535   1.147 -0.0109 -4.2371 -1.3617
 5101TIP3    H236863   3.245   4.567   1.011 -0.3202  0.9069 -0.2356
 5102TIP3   OH236864   4.443   1.213   0.380  0.1920 -0.0311 -0.5152
 5102TIP3    H136865   4.381   1.262   0.326 -1.8412  0.3843  2.0153
 5102TIP3    H236866   4.481   1.279   0.439 -0.0042 -0.9352  0.6558
 5103TIP3   OH236867   3.698   4.243   7.684 -0.0607 -0.0326 -0.5852
 5103TIP3    H136868   3.699   4.152   7.654  0.0887  0.1638 -1.1964
 5103TIP3    H236869   3.728   4.239   7.775 -1.0965 -0.7098 -0.2507
 5104TIP3   OH236870   1.397   5.938   0.191 -0.5763  0.0918  0.3221
 5104TIP3    H136871   1.348   5.983   0.122 -0.2362 -1.1673 -0.8059
 5104TIP3    H236872   1.485   5.927   0.154 -0.7154 -1.6855  0.4241
 5105TIP3   OH236873   0.611   3.954   0.959 -0.0691  0.3460  0.1999
 5105TIP3    H136874   0.656   4.038   0.951 -1.7727  1.4212  1.1812
 5105TIP3    H236875   0.605   3.939   1.053 -0.5444 -0.4434  0.0541
 5106TIP3   OH236876   1.252   5.779   8.520  0.4236  0.5764 -0.7335
 5106TIP3    H136877   1.334   5.824   8.543  1.7898 -1.7403 -0.7692
 5106TIP3    H236878   1.242   5.713   8.588 -0.1924 -0.6579 -1.9872
 5107TIP3   OH236879   1.363   4.946   1.421 -0.2968  0.0871 -0.5345
 5107TIP3    H136880   1.347   4.862   1.379 -0.7840 -0.4218  0.6469
 5107TIP3    H236881   1.285   4.963   1.473  1.0301 -0.2385  1.6854
 5108TIP3   OH236882   0.747   1.412   0.723 -0.1596  0.7890  0.7399
 5108TIP3    H136883   0.684   1.451   0.784 -0.1713  0.6471  0.8185
 5108TIP3    H236884   0.696   1.396   0.644 -1.1302 -2.4708  1.8852
 5109TIP3   OH236885   3.445   2.655   8.032  0.1261  0.5817  0.0149
 5109TIP3    H136886   3.451   2.746   8.002  0.4664  0.1894 -1.1422
 5109TIP3    H236887   3.532   2.635   8.066 -0.1937  0.9513  1.0899
 5110TIP3   OH236888   3.960   0.260   1.644  0.0629  0.7956 -0.5967
 5110TIP3    H136889   3.894   0.290   1.706  0.7691 -0.6823  0.9415
 5110TIP3    H236890   3.910   0.235   1.566 -0.8778  2.3033 -0.5278
 5111TIP3   OH236891   3.462   4.257   0.656 -0.3792 -0.0934  0.2328
 5111TIP3    H136892   3.513   4.333   0.627 -0.2469 -0.9951 -2.0886
 5111TIP3    H236893   3.511   4.223   0.730  2.5077 -0.8907 -1.8673
 5112TIP3   OH236894   6.581   2.135   7.185 -0.0297 -0.0361  0.3996
 5112TIP3    H136895   6.676   2.140   7.170 -0.0083 -1.1850  0.0110
 5112TIP3    H236896   6.566   2.044   7.212 -1.0007  0.1740  0.6019
 5113TIP3   OH236897   1.802   1.223   0.545  0.4399 -0.0561  0.4538
 5113TIP3    H136898   1.779   1.315   0.536  0.2001 -0.3282 -2.5063
 5113TIP3    H236899   1.720   1.180   0.571 -0.5365  0.0805 -2.1480
 5114TIP3   OH236900   2.513   1.090   0.879  0.3233 -0.6126 -0.5872
 5114TIP3    H136901   2.449   1.129   0.939  1.8302  0.8873  0.1457
 5114TIP3    H236902   2.505   0.996   0.893 -0.9528 -0.3929  0.2865
 5115TIP3   OH236903   2.012   6.524   7.926  0.8338 -0.1124 -0.2144
 5115TIP3    H136904   1.933   6.509   7.873  0.5449  0.1530  0.1318
 5115TIP3    H236905   2.078   6.553   7.863  0.0045  1.9176 -0.2202
 5116TIP3   OH236906   6.866   2.464   6.291 -0.3012 -0.5728  0.0143
 5116TIP3    H136907   6.955   2.467   6.256 -0.6156  1.1029 -0.7517
 5116TIP3    H236908   6.867   2.392   6.353  1.3531 -1.1366 -0.6150
 5117TIP3   OH236909   5.610   1.675   6.141  0.3539 -0.2186  0.0592
 5117TIP3    H136910   5.639   1.702   6.228  0.5661 -0.9347  0.2145
 5117TIP3    H236911   5.687   1.687   6.085 -0.1568  1.5160 -0.3205
 5118TIP3   OH236912   2.099   2.866   7.307  0.5702  0.4022  0.1179
 5118TIP3    H136913   2.104   2.874   7.212  1.2650 -1.3278 -0.0296
 5118TIP3    H236914   2.009   2.891   7.328  0.3696  0.6791 -1.0061
 5119TIP3   OH236915   1.284   3.135   7.222 -0.3135 -0.6103 -0.9463
 5119TIP3    H136916   1.275   3.121   7.128  0.4116 -1.3979 -0.9147
 5119TIP3    H236917   1.364   3.188   7.231 -1.6881  1.5773 -0.9029
 5120TIP3   OH236918   5.605   6.019   5.973  0.1088  0.4643 -0.3920
 5120TIP3    H136919   5.671   6.083   5.998 -1.0148  1.5305 -0.0954
 5120TIP3    H236920   5.637   5.936   6.009  1.0431  1.0506  0.1497
 5121TIP3   OH236921   3.095   4.351   7.912 -0.1692 -0.4352 -1.3386
 5121TIP3    H136922   3.130   4.308   7.990 -2.2863 -0.8540 -0.5512
 5121TIP3    H236923   3.033   4.287   7.875 -1.5564  0.9790 -1.5349
 5122TIP3   OH236924   2.583   1.729   7.566 -0.2031  0.3591 -0.0784
 5122TIP3    H136925   2.532   1.792   7.515 -0.6579  0.3365  0.3372
 5122TIP3    H236926   2.630   1.783   7.630 -0.6061  0.2825  0.2887
 5123TIP3   OH236927   6.379   5.053   2.054 -0.1907  0.2108 -0.0342
 5123TIP3    H136928   6.359   5.043   2.147  2.2301  2.0923  0.7935
 5123TIP3    H236929   6.418   4.969   2.029 -3.3026 -1.3232 -0.1777
 5124TIP3   OH236930   2.569   2.926   1.167 -0.4407  0.4291 -0.1148
 5124TIP3    H136931   2.596   2.920   1.076  0.3249  1.2826  0.0425
 5124TIP3    H236932   2.612   3.006   1.200  0.0548 -0.3641  1.2438
 5125TIP3   OH236933   0.907   4.075   7.605  0.3395  0.4705 -0.3230
 5125TIP3    H136934   0.920   4.148   7.544  1.5197 -0.8725 -1.7641
 5125TIP3    H236935   0.929   3.997   7.554 -0.4569 -0.8820  1.2987
 5126TIP3   OH236936   3.041   5.869   7.372 -0.2492  0.0660  0.0296
 5126TIP3    H136937   3.055   5.961   7.396  0.2652 -0.5250  2.2385
 5126TIP3    H236938   2.947   5.857   7.375 -0.2794  0.3720  0.3987
 5127TIP3   OH236939   0.282   4.222   8.447 -0.2562 -0.5871  0.0548
 5127TIP3    H136940   0.193   4.257   8.456  0.4702  1.0992  1.1615
 5127TIP3    H236941   0.300   4.181   8.532 -0.4588 -2.2295 -0.6498
 5128TIP3   OH236942   5.371   6.675   8.065  0.0687 -0.2000  0.2194
 5128TIP3    H136943   5.288   6.719   8.080 -0.7545 -2.1988  2.0337
 5128TIP3    H236944   5.393   6.635   8.149  3.0361  0.4563 -0.1311
 5129TIP3   OH236945   3.661   1.934   0.097 -0.4695 -0.1446 -0.9090
 5129TIP3    H136946   3.591   1.997   0.079  0.0795  1.3150  1.5234
 5129TIP3    H236947   3.730   1.957   0.034 -0.5485  1.2858 -0.5135
 5130TIP3   OH236948   3.905   5.552   0.035  0.6290 -0.7148  0.6750
 5130TIP3    H136949   3.876   5.638   0.067  2.5909 -0.3696  1.7040
 5130TIP3    H236950   3.968   5.523   0.101  2.9189 -1.1928 -1.5539
 5131TIP3   OH236951   0.593   4.120   0.484  0.1533 -0.0858 -0.4040
 5131TIP3    H136952   0.669   4.173   0.461 -0.0480 -0.1076 -1.1418
 5131TIP3    H236953   0.597   4.045   0.425 -0.0050 -0.4924  0.0931
 5132TIP3   OH236954   4.029   5.959   1.529  0.0078  0.1754  0.0358
 5132TIP3    H136955   4.039   6.026   1.597 -0.9577  1.5005 -1.0783
 5132TIP3    H236956   3.996   5.883   1.576  1.1871  0.4097  1.3464
 5133TIP3   OH236957   0.455   0.246   7.270 -0.3051  0.0067 -0.0605
 5133TIP3    H136958   0.385   0.267   7.208 -0.0933 -2.0741 -1.0918
 5133TIP3    H236959   0.447   0.312   7.339 -4.1557 -0.8767  0.5901
 5134TIP3   OH236960   1.196   3.895   6.186 -0.0395  0.5737 -0.5336
 5134TIP3    H136961   1.205   3.808   6.148  1.3005 -0.6920  2.3853
 5134TIP3    H236962   1.117   3.891   6.239  1.7802 -0.1675  2.3726
 5135TIP3   OH236963   1.739   1.741   0.769 -0.1802  0.0559  0.7565
 5135TIP3    H136964   1.703   1.666   0.720  1.6240 -0.0058 -0.5574
 5135TIP3    H236965   1.672   1.760   0.835 -1.0492 -2.2012  0.6218
 5136TIP3   OH236966   2.226   4.423   0.381 -0.1764  0.0825 -0.4317
 5136TIP3    H136967   2.206   4.428   0.475  0.9499  0.2507 -0.1811
 5136TIP3    H236968   2.156   4.472   0.339 -0.2142  0.7758  0.4058
 5137TIP3   OH236969   5.037   3.058   6.268  0.5882  0.5675 -0.6978
 5137TIP3    H136970   5.050   3.111   6.189 -0.2870  0.1045 -1.1634
 5137TIP3    H236971   5.119   3.009   6.277  0.0029 -0.8131 -2.4255
 5138TIP3   OH236972   5.756   1.475   6.532 -0.2475  0.4176 -0.1613
 5138TIP3    H136973   5.845   1.501   6.509  0.3262 -2.9212 -2.4365
 5138TIP3    H236974   5.766   1.418   6.609 -0.6881  1.4986  0.7206
 5139TIP3   OH236975   5.704   5.662   0.825  0.1177  0.2894  0.0111
 5139TIP3    H136976   5.774   5.623   0.877  0.2170  0.2793 -0.1297
 5139TIP3    H236977   5.749   5.729   0.772 -0.2943  1.8530  1.5325
 5140TIP3   OH236978   3.597   3.741   7.256 -0.2209  0.1270  0.1309
 5140TIP3    H136979   3.649   3.663   7.275 -0.5057 -0.3265 -0.8693
 5140TIP3    H236980   3.605   3.751   7.161  2.2341  3.0345  0.4925
 5141TIP3   OH236981   6.262   1.968   0.815 -0.4762  0.3080 -0.5431
 5141TIP3    H136982   6.254   1.961   0.720 -0.2270 -0.4494 -0.5102
 5141TIP3    H236983   6.319   1.896   0.840 -1.6223 -0.3234  0.3295
 5142TIP3   OH236984   4.361   3.333   0.034 -0.3576 -0.2854  0.1641
 5142TIP3    H136985   4.442   3.337   0.085 -1.1832  0.3444  1.4921
 5142TIP3    H236986   4.341   3.240   0.027  0.0185 -0.4019  0.5901
 5143TIP3   OH236987   4.930   0.613   8.430 -0.1068  0.0533  0.0046
 5143TIP3    H136988   4.847   0.641   8.468 -0.8383 -0.4362 -1.1623
 5143TIP3    H236989   4.985   0.692   8.433 -0.7544  0.5039  0.4051
 5144TIP3   OH236990   5.417   0.520   8.058 -0.3025  0.2224  0.2280
 5144TIP3    H136991   5.479   0.452   8.032  0.1982  0.2904  1.2000
 5144TIP3    H236992   5.458   0.562   8.134 -1.8305 -0.1819  1.3241
 5145TIP3   OH236993   1.207   0.731   5.999  0.5431  0.7491  0.5104
 5145TIP3    H136994   1.186   0.668   5.930  1.0126 -1.7918  2.5038
 5145TIP3    H236995   1.123   0.747   6.043  0.3336  1.9744 -0.2965
 5146TIP3   OH236996   0.488   0.368   1.095  0.0877 -0.3054  0.5704
 5146TIP3    H136997   0.404   0.413   1.093  0.0810 -0.2806 -1.8196
 5146TIP3    H236998   0.553   0.438   1.100  0.0151 -0.0514 -1.1887
 5147TIP3   OH236999   2.040   0.763   0.575 -0.4578  0.1896 -0.3436
 5147TIP3    H137000   2.087   0.817   0.512 -2.0980  1.2514 -0.7114
 5147TIP3    H237001   1.994   0.698   0.521 -1.4462  0.7722 -0.2239
 5148TIP3   OH237002   4.385   4.543   0.071 -0.5884 -0.1577  0.0536
 5148TIP3    H137003   4.376   4.536   0.166  0.0598  0.4483  0.1658
 5148TIP3    H237004   4.476   4.568   0.058 -0.4040 -1.1891 -0.7780
 5149TIP3   OH237005   2.872   0.513   0.184 -0.3347 -0.2446 -0.3611
 5149TIP3    H137006   2.953   0.494   0.230  0.1705 -0.1232 -1.1786
 5149TIP3    H237007   2.830   0.582   0.236 -0.6021 -1.2624  0.8223
 5150TIP3   OH237008   5.073   6.086   0.475 -0.2830 -0.0139  0.1197
 5150TIP3    H137009   5.100   6.050   0.559 -3.0959 -1.6092  0.4692
 5150TIP3    H237010   4.982   6.057   0.464  0.1996 -0.7413 -3.8763
 5151TIP3   OH237011   3.299   0.961   0.405 -0.3570  0.0968 -0.6025
 5151TIP3    H137012   3.358   0.982   0.332 -1.7689 -0.8391 -2.0805
 5151TIP3    H237013   3.214   0.997   0.379 -0.9111 -0.3101  0.5538
 5152TIP3   OH237014   0.861   2.768   0.955  0.1084  0.0925 -0.1717
 5152TIP3    H137015   0.848   2.678   0.985  0.3088  0.6413  1.7352
 5152TIP3    H237016   0.772   2.804   0.949  0.0896  0.1598  0.4388
 5153TIP3   OH237017   3.018   5.126   0.348 -0.3065  0.6461  0.4071
 5153TIP3    H137018   2.981   5.041   0.371  0.0375  0.2175 -0.5393
 5153TIP3    H237019   2.942   5.182   0.333 -0.7877 -0.6778 -3.2561
 5154TIP3   OH237020   6.833   5.980   1.196  0.2712  0.3687  0.6740
 5154TIP3    H137021   6.865   5.890   1.193 -2.2785 -0.6697  1.7963
 5154TIP3    H237022   6.907   6.033   1.164  1.4830 -2.1661 -1.0657
 5155TIP3   OH237023   1.820   0.822   6.510  0.0992 -0.4498 -0.2852
 5155TIP3    H137024   1.857   0.824   6.599  0.0305  0.8121 -0.2738
 5155TIP3    H237025   1.873   0.757   6.464  2.4080  1.2941 -0.2811
 5156TIP3   OH237026   2.264   6.117   7.302 -0.0454 -0.1155 -0.4464
 5156TIP3    H137027   2.316   6.196   7.288  0.0913  0.2233  1.7247
 5156TIP3    H237028   2.309   6.070   7.372 -1.9569 -0.4243  0.6472
 5157TIP3   OH237029   1.376   4.561   0.323  0.3303  0.0868  0.0687
 5157TIP3    H137030   1.308   4.589   0.261  1.0350 -0.6670 -1.0727
 5157TIP3    H237031   1.338   4.486   0.368 -1.2142  2.1633  2.4990
 5158TIP3   OH237032   5.049   4.551   7.407 -0.4147  0.1497 -0.0807
 5158TIP3    H137033   5.006   4.466   7.392 -0.6037  0.2769 -0.2653
 5158TIP3    H237034   4.992   4.614   7.363  0.1267  0.2848 -0.5981
 5159TIP3   OH237035   3.130   0.481   0.328  0.5595  0.0294  0.0116
 5159TIP3    H137036   3.155   0.394   0.359 -0.0183  0.4653  1.8006
 5159TIP3    H237037   3.195   0.540   0.366 -0.3064  0.6118  0.6254
 5160TIP3   OH237038   2.851   2.998   7.540  0.3320  0.6040 -0.7563
 5160TIP3    H137039   2.838   3.010   7.445  0.4267 -1.2900 -1.0394
 5160TIP3    H237040   2.939   2.961   7.548 -0.9306 -2.5962 -0.2919
 5161TIP3   OH237041   1.439   4.341   0.880  0.3701  0.3846 -0.2941
 5161TIP3    H137042   1.376   4.403   0.845 -0.4254 -1.3125 -2.0630
 5161TIP3    H237043   1.403   4.315   0.965  0.3203  1.7043  0.1136
 5162TIP3   OH237044   4.871   3.981   1.980 -0.3731  0.1510 -0.0529
 5162TIP3    H137045   4.822   4.046   1.930  0.8016 -0.6987 -2.4813
 5162TIP3    H237046   4.819   3.901   1.973 -0.1045 -0.0222 -0.0981
 5163TIP3   OH237047   0.832   2.600   7.068  0.0708 -0.0934 -0.1772
 5163TIP3    H137048   0.761   2.537   7.076 -0.3012 -0.3628 -4.0343
 5163TIP3    H237049   0.800   2.679   7.112 -2.0091 -0.6881 -0.5452
 5164TIP3   OH237050   1.316   5.005   7.580  0.3922 -0.2317  0.4550
 5164TIP3    H137051   1.329   5.094   7.610 -0.3413 -0.3140  1.0347
 5164TIP3    H237052   1.337   5.008   7.487  0.8302  0.4385  0.5687
 5165TIP3   OH237053   0.382   1.887   1.807 -0.4508 -0.2030  0.1605
 5165TIP3    H137054   0.447   1.851   1.747  0.6523 -1.5319  2.0255
 5165TIP3    H237055   0.405   1.979   1.814  1.4767 -0.6865  0.9774
 5166TIP3   OH237056   5.419   4.733   1.761 -0.1675 -0.4230  0.4391
 5166TIP3    H137057   5.509   4.700   1.768 -0.5877 -1.3292  2.0174
 5166TIP3    H237058   5.385   4.729   1.850 -1.9336 -0.5481 -0.2065
 5167TIP3   OH237059   0.185   3.551   7.722  0.0937  0.0490  0.3762
 5167TIP3    H137060   0.197   3.604   7.643 -0.1287  0.0417  0.3371
 5167TIP3    H237061   0.113   3.492   7.701 -1.0346  1.1055  1.1237
 5168TIP3   OH237062   3.760   1.370   6.373 -0.1484  0.2647 -0.1311
 5168TIP3    H137063   3.800   1.455   6.392  0.2742 -0.2280  1.3376
 5168TIP3    H237064   3.684   1.390   6.319 -0.3968  1.6371  0.6952
 5169TIP3   OH237065   1.586   0.653   1.381  0.0242 -0.2495  0.4700
 5169TIP3    H137066   1.608   0.641   1.473  1.3839 -1.9865 -0.0385
 5169TIP3    H237067   1.591   0.566   1.343 -0.3259  0.4579 -1.2977
 5170TIP3   OH237068   2.623   6.703   1.187  0.4474  0.1765 -0.0050
 5170TIP3    H137069   2.630   6.786   1.234 -0.3002  0.5461 -0.5389
 5170TIP3    H237070   2.534   6.673   1.204  0.9727 -0.9669  0.9100
 5171TIP3   OH237071   6.548   3.626   6.446  0.1386  0.5861  0.0957
 5171TIP3    H137072   6.523   3.539   6.416 -3.4063  1.0715  1.1071
 5171TIP3    H237073   6.643   3.629   6.438  0.4043 -3.3852  0.1246
 5172TIP3   OH237074   1.090   0.830   6.439  0.1382 -0.7739 -0.2573
 5172TIP3    H137075   1.071   0.743   6.476 -1.6068 -1.9788 -3.5617
 5172TIP3    H237076   1.062   0.824   6.348 -1.6805  3.8342 -0.2602
 5173TIP3   OH237077   5.941   2.878   2.284  0.2862 -0.6248  0.2783
 5173TIP3    H137078   6.009   2.814   2.308 -0.3275 -0.0763  3.9951
 5173TIP3    H237079   5.990   2.952   2.249  1.2606 -1.7335 -0.8300
 5174TIP3   OH237080   4.612   1.041   0.062 -0.2137 -0.2466  0.0660
 5174TIP3    H137081   4.699   1.004   0.074  0.6282  1.6281  0.0432
 5174TIP3    H237082   4.558   0.996   0.127  1.0078 -0.6787  0.8168
 5175TIP3   OH237083   2.638   2.928   0.914 -0.2907 -0.0371  0.0316
 5175TIP3    H137084   2.628   2.916   0.820 -0.2008 -0.0248  0.0203
 5175TIP3    H237085   2.732   2.931   0.928 -0.3000  1.5518 -0.0913
 5176TIP3   OH237086   4.253   0.474   8.056 -0.4742 -0.6013  0.1093
 5176TIP3    H137087   4.216   0.387   8.043  1.5616 -1.8543  1.9259
 5176TIP3    H237088   4.182   0.526   8.093 -1.9057 -1.2419 -1.5990
 5177TIP3   OH237089   6.889   3.670   7.308 -0.2983 -0.2788  0.8016
 5177TIP3    H137090   6.852   3.591   7.270  0.9074 -0.0761 -0.8844
 5177TIP3    H237091   6.853   3.741   7.256  0.6328  0.0795  0.6262
 5178TIP3   OH237092   3.795   0.445   1.858 -0.3158  0.5282  0.0178
 5178TIP3    H137093   3.890   0.432   1.851 -0.6187 -2.0705 -0.2052
 5178TIP3    H237094   3.782   0.471   1.949  0.6227  1.1914 -0.0191
 5179TIP3   OH237095   3.517   4.488   1.756 -0.3599 -0.0474 -0.1968
 5179TIP3    H137096   3.543   4.479   1.664  0.8173 -0.3363  0.1527
 5179TIP3    H237097   3.457   4.563   1.757  0.3363  0.5350 -1.0601
 5180TIP3   OH237098   4.863   6.173   1.570 -0.1618 -0.7049  0.4975
 5180TIP3    H137099   4.944   6.173   1.520  0.3490  0.6155  1.2701
 5180TIP3    H237100   4.890   6.173   1.662 -0.8200  3.3758  0.8712
 5181TIP3   OH237101   3.529   5.651   7.133  0.6143  0.0328 -0.2845
 5181TIP3    H137102   3.503   5.702   7.210  1.2702 -1.2582  0.8198
 5181TIP3    H237103   3.528   5.715   7.061  2.5255  1.8997  1.2341
 5182TIP3   OH237104   6.702   5.890   6.914  0.4110  0.3029 -0.6011
 5182TIP3    H137105   6.687   5.984   6.899 -1.4562  0.8752  3.4816
 5182TIP3    H237106   6.797   5.881   6.917  0.6216  2.1521 -0.6323
 5183TIP3   OH237107   0.675   0.976   6.995 -0.0742 -0.1190  0.4212
 5183TIP3    H137108   0.639   0.892   6.966 -1.4265  0.6802 -0.3487
 5183TIP3    H237109   0.744   0.996   6.933 -0.9214  0.1452 -0.4539
 5184TIP3   OH237110   5.864   3.902   7.283  0.4537  0.7018 -0.1591
 5184TIP3    H137111   5.959   3.889   7.289  0.3199  0.2580  1.4919
 5184TIP3    H237112   5.853   3.993   7.255  1.3587  0.7608 -0.3458
 5185TIP3   OH237113   5.216   3.168   0.209 -0.3882 -0.0516  0.5050
 5185TIP3    H137114   5.193   3.087   0.255 -0.2634 -0.5670 -0.3362
 5185TIP3    H237115   5.238   3.141   0.121  0.2274  0.8368  0.3716
 5186TIP3   OH237116   6.046   5.073   0.433 -0.2339 -0.3189  0.6955
 5186TIP3    H137117   6.025   4.986   0.466  1.0038 -0.8763  0.0845
 5186TIP3    H237118   5.966   5.124   0.446 -1.3501 -1.8502  0.0423
 5187TIP3   OH237119   3.775   2.026   1.625  0.1119 -0.2095 -0.6583
 5187TIP3    H137120   3.821   2.091   1.678  0.9662 -1.5643  0.3478
 5187TIP3    H237121   3.738   1.965   1.688 -0.1018 -1.0702 -1.5814
 5188TIP3   OH237122   4.910   2.351   1.481 -0.1469  0.0907 -0.2474
 5188TIP3    H137123   4.907   2.310   1.395  1.0099 -1.9858  0.6260
 5188TIP3    H237124   4.818   2.368   1.503 -0.6782 -1.9385 -0.7405
 5189TIP3   OH237125   4.763   0.769   6.522  0.6914  0.6036 -0.5988
 5189TIP3    H137126   4.835   0.797   6.577 -0.7394  2.1826  0.5664
 5189TIP3    H237127   4.802   0.759   6.435  2.3179  1.2672  0.0164
 5190TIP3   OH237128   6.706   5.731   1.618 -0.4884 -0.1096 -0.5234
 5190TIP3    H137129   6.637   5.713   1.681  0.3354 -0.3314  0.3339
 5190TIP3    H237130   6.699   5.662   1.553 -1.2063 -0.0036 -0.5612
 5191TIP3   OH237131   5.048   5.267   1.469  0.5667  0.1111 -0.1767
 5191TIP3    H137132   5.006   5.276   1.383  0.8014 -1.1615 -0.4381
 5191TIP3    H237133   5.061   5.357   1.498 -1.8444  0.5859 -0.3235
 5192TIP3   OH237134   4.132   2.412   1.285 -0.0052  0.1467  0.2669
 5192TIP3    H137135   4.155   2.502   1.307 -0.4155  0.2175  0.4118
 5192TIP3    H237136   4.215   2.370   1.263  0.3206  0.2654  1.2511
 5193TIP3   OH237137   3.270   1.072   0.928  0.0083  0.2897 -0.3485
 5193TIP3    H137138   3.281   1.071   0.833 -1.3445 -1.3416 -0.5355
 5193TIP3    H237139   3.175   1.072   0.941  0.1814  0.6683  1.0143
 5194TIP3   OH237140   5.322   2.958   6.255 -0.1148 -0.4349 -0.1715
 5194TIP3    H137141   5.284   2.872   6.277  0.7712 -1.3639 -2.0798
 5194TIP3    H237142   5.395   2.938   6.197  0.2333  1.6294 -0.5126
 5195TIP3   OH237143   2.923   6.145   7.619 -0.0835  0.2035  0.1961
 5195TIP3    H137144   2.948   6.237   7.632  0.4846 -0.0624  1.0603
 5195TIP3    H237145   2.885   6.119   7.703 -1.8295  0.1189 -0.5615
 5196TIP3   OH237146   4.385   4.407   7.181 -0.3028  0.7405 -0.8514
 5196TIP3    H137147   4.430   4.327   7.207  0.5849  1.7498  0.9250
 5196TIP3    H237148   4.313   4.377   7.126 -0.8448 -1.4099  0.8684
 5197TIP3   OH237149   1.616   2.838   1.375 -0.6339 -0.1431  0.0265
 5197TIP3    H137150   1.594   2.814   1.465 -0.3391 -1.6206 -0.2647
 5197TIP3    H237151   1.600   2.932   1.371 -1.8083 -0.2448  1.2877
 5198TIP3   OH237152   4.147   6.155   1.683  0.0406 -0.2317  0.3420
 5198TIP3    H137153   4.220   6.186   1.737  1.1961 -0.8543 -0.8196
 5198TIP3    H237154   4.130   6.227   1.623 -0.5939  0.0690  0.8611
 5199TIP3   OH237155   1.573   5.274   0.873  0.0044  0.5145 -0.0078
 5199TIP3    H137156   1.594   5.181   0.859  1.4066  0.9529 -1.0034
 5199TIP3    H237157   1.478   5.278   0.862 -0.0412 -0.7458 -0.3371
 5200TIP3   OH237158   0.874   4.560   0.633 -0.3020 -0.3775  0.0482
 5200TIP3    H137159   0.913   4.552   0.546  0.9985 -0.7442  0.6349
 5200TIP3    H237160   0.838   4.649   0.635 -2.8230 -1.2608 -1.7912
 5201TIP3   OH237161   4.215   4.731   7.019 -0.0313  0.1011 -0.2188
 5201TIP3    H137162   4.276   4.699   6.953 -0.2968 -0.0466 -0.3963
 5201TIP3    H237163   4.168   4.802   6.976 -0.7933 -0.5481 -0.4794
 5202TIP3   OH237164   2.134   4.115   6.774 -0.2001  0.4199 -0.2768
 5202TIP3    H137165   2.149   4.204   6.808 -0.5281  0.7141 -0.8788
 5202TIP3    H237166   2.221   4.076   6.769  0.1254  1.2268 -1.3789
 5203TIP3   OH237167   3.593   2.905   7.686  0.2390 -0.5032  0.1413
 5203TIP3    H137168   3.664   2.848   7.714  2.1438  1.4349 -0.4996
 5203TIP3    H237169   3.527   2.845   7.650  1.6849 -2.3479  0.4087
 5204TIP3   OH237170   5.801   4.094   8.235  0.2390  0.2406 -0.5522
 5204TIP3    H137171   5.823   4.001   8.230  0.9722  0.4511 -1.4296
 5204TIP3    H237172   5.849   4.125   8.312 -0.8152 -0.3014  0.3571
 5205TIP3   OH237173   3.640   3.743   8.286 -0.1593 -0.1570 -0.3940
 5205TIP3    H137174   3.576   3.676   8.261 -1.1799  1.0132 -1.0071
 5205TIP3    H237175   3.595   3.826   8.272  0.2462  0.6625  2.5176
 5206TIP3   OH237176   2.562   0.614   7.312  0.0316 -0.3605  0.2442
 5206TIP3    H137177   2.536   0.524   7.333 -0.3815 -0.1577  0.6139
 5206TIP3    H237178   2.481   0.665   7.322  0.5210  0.2440  1.1799
 5207TIP3   OH237179   6.527   3.005   2.281 -0.5732 -0.0006  0.4535
 5207TIP3    H137180   6.509   3.082   2.335  0.4042 -0.5228  1.5622
 5207TIP3    H237181   6.445   2.989   2.234 -1.0490  1.2099  0.8384
 5208TIP3   OH237182   4.538   5.094   6.405 -0.0222  0.6098 -0.3116
 5208TIP3    H137183   4.471   5.027   6.392  0.8277 -0.5676  1.1416
 5208TIP3    H237184   4.621   5.047   6.398  0.6209  1.7175 -0.3414
 5209TIP3   OH237185   1.306   6.652   8.381 -0.3287  0.2765 -0.1070
 5209TIP3    H137186   1.282   6.742   8.359 -1.4009  0.3748  1.3285
 5209TIP3    H237187   1.394   6.659   8.418 -1.3424  1.1310  2.2903
 5210TIP3   OH237188   6.443   3.589   7.671  0.3332  0.2281  0.9192
 5210TIP3    H137189   6.452   3.625   7.583 -1.1968 -3.2079 -0.8092
 5210TIP3    H237190   6.530   3.599   7.710  0.4355  4.0919  0.1128
 5211TIP3   OH237191   6.413   2.999   8.469  0.4599 -0.1183 -0.1880
 5211TIP3    H137192   6.492   3.026   8.422  0.6911 -1.6358 -0.7083
 5211TIP3    H237193   6.434   3.013   8.562  1.1406 -0.0156 -0.3533
 5212TIP3   OH237194   1.293   1.164   6.272  0.0140  0.2564  0.4274
 5212TIP3    H137195   1.257   1.103   6.207 -0.0960 -0.0553  0.7742
 5212TIP3    H237196   1.384   1.178   6.244 -0.5384  1.5589 -0.8220
 5213TIP3   OH237197   4.245   6.859   8.379 -0.4293  0.0165  0.6163
 5213TIP3    H137198   4.165   6.818   8.346  0.1479 -0.5328 -0.1218
 5213TIP3    H237199   4.316   6.801   8.352  0.3404  1.0859  0.2529
 5214TIP3   OH237200   6.723   6.643   8.559 -0.4826 -0.5527 -0.3297
 5214TIP3    H137201   6.635   6.611   8.577 -0.4883 -1.1418 -1.3391
 5214TIP3    H237202   6.722   6.734   8.587 -0.9134 -1.0017  1.2202
 5215TIP3   OH237203   0.146   3.351   0.181 -0.6973 -0.1560 -0.1083
 5215TIP3    H137204   0.156   3.323   0.090 -1.2457  0.1294 -0.2568
 5215TIP3    H237205   0.135   3.269   0.229 -2.9307 -0.2063 -0.6200
 5216TIP3   OH237206   5.415   5.029   6.769 -0.1706 -1.0797 -0.1107
 5216TIP3    H137207   5.344   4.986   6.721 -1.3232  0.6555 -0.0450
 5216TIP3    H237208   5.460   5.082   6.703  0.6954 -1.6697 -0.0162
 5217TIP3   OH237209   5.424   3.953   8.112  0.0679 -0.2213 -0.7467
 5217TIP3    H137210   5.422   3.872   8.163  1.5948  0.6621  0.8460
 5217TIP3    H237211   5.333   3.970   8.090 -0.7271 -0.5744  1.9010
 5218TIP3   OH237212   2.278   4.115   7.781  0.2870  0.2154 -0.0037
 5218TIP3    H137213   2.360   4.164   7.783  0.1788  0.3882  0.4347
 5218TIP3    H237214   2.217   4.168   7.834  0.9457 -1.7567  2.9913
 5219TIP3   OH237215   1.498   4.457   6.508 -0.2272 -0.3027  0.1459
 5219TIP3    H137216   1.440   4.417   6.444  0.1564 -0.8893  0.1547
 5219TIP3    H237217   1.567   4.499   6.455 -0.0160 -0.6218  0.1654
 5220TIP3   OH237218   5.119   6.893   8.173  0.3627  0.6543 -0.0970
 5220TIP3    H137219   5.130   6.987   8.186 -1.3722  0.7830  0.6135
 5220TIP3    H237220   5.025   6.879   8.170  0.5795 -1.1092  0.0861
 5221TIP3   OH237221   4.272   0.404   7.173 -0.0776 -0.2328  0.4085
 5221TIP3    H137222   4.253   0.313   7.151  0.4284 -0.3191  0.3162
 5221TIP3    H237223   4.203   0.429   7.234 -1.3772 -0.0687 -1.0410
 5222TIP3   OH237224   1.284   2.434   7.610 -0.0187 -0.7489  0.1574
 5222TIP3    H137225   1.310   2.513   7.564 -1.7973 -0.6441 -0.7789
 5222TIP3    H237226   1.328   2.440   7.695  0.2135  1.0368 -0.0471
 5223TIP3   OH237227   3.397   4.851   7.779 -0.6877  0.0521  0.3894
 5223TIP3    H137228   3.448   4.809   7.849 -0.3825  1.8410  1.2891
 5223TIP3    H237229   3.444   4.829   7.699  0.3475 -0.0135  0.9926
 5224TIP3   OH237230   2.769   4.557   6.560  0.4760 -0.6204  0.6655
 5224TIP3    H137231   2.680   4.571   6.527  0.2422  0.6938  1.7855
 5224TIP3    H237232   2.800   4.644   6.585  2.9947 -0.6488 -1.8203
 5225TIP3   OH237233   0.401   4.601   0.103  0.4274 -0.4793 -0.2158
 5225TIP3    H137234   0.396   4.655   0.024 -0.5355 -0.0421  0.1333
 5225TIP3    H237235   0.398   4.511   0.070  1.2999 -0.3214 -0.7524
 5226TIP3   OH237236   4.702   6.436   1.026  0.1299 -0.3927 -0.0817
 5226TIP3    H137237   4.707   6.446   1.121 -2.4589  0.3351  0.0571
 5226TIP3    H237238   4.794   6.436   0.997  0.9620  0.3272  2.3024
 5227TIP3   OH237239   6.606   6.022   1.984 -0.9041  0.8511 -0.2439
 5227TIP3    H137240   6.591   5.975   2.066  2.4926  1.6577  1.0097
 5227TIP3    H237241   6.519   6.046   1.953 -2.3633 -0.4285  2.5686
 5228TIP3   OH237242   2.129   1.342   7.988  0.1469  0.3961 -0.2271
 5228TIP3    H137243   2.039   1.363   7.964 -0.8117  1.6003  3.7873
 5228TIP3    H237244   2.124   1.256   8.029  1.3330 -0.6045 -2.0254
 5229TIP3   OH237245   0.646   6.560   0.433 -0.1484  0.5442 -0.4717
 5229TIP3    H137246   0.624   6.626   0.499  0.6014 -0.1298  0.4938
 5229TIP3    H237247   0.679   6.609   0.358 -0.8101  1.3191 -0.2667
 5230TIP3   OH237248   3.160   3.304   7.141  0.1000 -0.5018 -0.0938
 5230TIP3    H137249   3.105   3.326   7.066  0.4580  2.7082  0.4467
 5230TIP3    H237250   3.249   3.303   7.106  0.1293 -0.6249 -0.0155
 5231TIP3   OH237251   5.297   5.472   0.580 -0.4866  0.0657 -0.1511
 5231TIP3    H137252   5.272   5.398   0.523 -0.4240 -0.1022  0.0393
 5231TIP3    H237253   5.314   5.544   0.519 -0.3533 -0.1334 -0.3513
 5232TIP3   OH237254   0.550   1.534   7.295  0.1167 -0.6602  0.8726
 5232TIP3    H137255   0.475   1.569   7.345 -0.1797  0.4748 -0.3109
 5232TIP3    H237256   0.608   1.498   7.362  0.1602  1.6167  2.1931
 5233TIP3   OH237257   5.423   5.032   1.099  0.2632 -0.0772  0.2650
 5233TIP3    H137258   5.371   4.978   1.039  0.0154 -0.9783  1.2629
 5233TIP3    H237259   5.498   4.977   1.123  0.3066  0.2325  0.8613
 5234TIP3   OH237260   3.264   4.729   8.411 -0.5870  0.1582 -0.5676
 5234TIP3    H137261   3.180   4.687   8.395 -0.4809 -0.3893  0.2555
 5234TIP3    H237262   3.255   4.768   8.498 -0.1490  0.5130 -0.6751
 5235TIP3   OH237263   5.341   0.242   8.519  0.6026 -0.0882 -0.2683
 5235TIP3    H137264   5.353   0.233   8.613  1.0528  2.2616 -0.0285
 5235TIP3    H237265   5.254   0.282   8.510 -0.0578 -1.6163 -0.9641
 5236TIP3   OH237266   4.538   4.676   1.913  0.1021  0.5865  0.2033
 5236TIP3    H137267   4.478   4.739   1.952 -0.6896 -0.0869  0.0955
 5236TIP3    H237268   4.522   4.594   1.961  1.8438  0.6919  1.0456
 5237TIP3   OH237269   2.005   4.073   8.411 -0.0402  0.2194 -0.2878
 5237TIP3    H137270   1.915   4.106   8.410  0.3640  1.3901  0.1461
 5237TIP3    H237271   1.996   3.980   8.432 -1.2144  0.0214 -1.5297
 5238TIP3   OH237272   5.717   3.964   6.994 -0.2394 -0.3953  0.0988
 5238TIP3    H137273   5.702   3.994   6.904  1.8026 -2.2647 -0.9759
 5238TIP3    H237274   5.791   4.017   7.024  0.9797 -1.7087 -0.4608
 5239TIP3   OH237275   0.789   3.350   8.333  0.1816  0.7505 -0.3792
 5239TIP3    H137276   0.880   3.324   8.350  0.1771  0.5036 -0.7191
 5239TIP3    H237277   0.760   3.388   8.416 -0.0990 -1.1853  0.4646
 5240TIP3   OH237278   1.921   0.949   6.749  0.3173 -0.2902 -0.4073
 5240TIP3    H137279   1.989   0.995   6.699  2.6303 -2.9695  0.0728
 5240TIP3    H237280   1.940   0.969   6.840  1.4289 -2.1766 -0.1822
 5241TIP3   OH237281   3.162   4.496   0.276 -0.1940 -0.1657  0.3234
 5241TIP3    H137282   3.174   4.544   0.358  0.0125  0.1659  0.1014
 5241TIP3    H237283   3.213   4.416   0.287 -2.3791 -1.5006  1.6204
 5242TIP3   OH237284   4.096   6.437   0.508  0.3264  0.1893  0.1715
 5242TIP3    H137285   4.034   6.381   0.555 -1.6551  1.4426 -0.7804
 5242TIP3    H237286   4.078   6.525   0.540  1.1709  0.6681 -0.6094
 5243TIP3   OH237287   5.441   4.638   0.477  0.0923 -0.0972 -0.2325
 5243TIP3    H137288   5.505   4.569   0.492  0.9624  0.3267 -1.7178
 5243TIP3    H237289   5.416   4.628   0.385 -0.5252  0.9205 -0.1935
 5244TIP3   OH237290   3.010   2.177   8.255 -0.1366 -0.2597  0.6941
 5244TIP3    H137291   2.955   2.189   8.332 -0.3557  1.1903  0.3464
 5244TIP3    H237292   2.950   2.142   8.188 -0.7346  1.4795  0.2619
 5245TIP3   OH237293   6.553   6.076   6.513 -0.1965 -0.8315 -0.1144
 5245TIP3    H137294   6.496   6.104   6.441  0.4859 -0.9953 -0.7284
 5245TIP3    H237295   6.565   6.155   6.566  0.0283 -0.4821 -0.6814
 5246TIP3   OH237296   1.167   5.879   7.324 -0.4086  0.4624 -0.2473
 5246TIP3    H137297   1.158   5.786   7.343  0.1020  0.5590  0.5129
 5246TIP3    H237298   1.227   5.883   7.250  0.4621  0.2198  0.4273
 5247TIP3   OH237299   4.352   2.251   6.848  0.3891  0.0928  0.1389
 5247TIP3    H137300   4.345   2.332   6.798  0.7542  0.5079  0.7514
 5247TIP3    H237301   4.287   2.193   6.808  0.5333  0.4788 -0.6833
 5248TIP3   OH237302   5.659   3.884   5.797  0.3517  0.2908 -0.2525
 5248TIP3    H137303   5.705   3.837   5.866  0.2061  0.2239 -0.2008
 5248TIP3    H237304   5.725   3.897   5.729  0.8043  1.3455  0.3644
 5249TIP3   OH237305   1.736   5.802   1.551 -0.3358  0.7156  0.3845
 5249TIP3    H137306   1.738   5.847   1.635 -0.3409 -2.1255  2.0214
 5249TIP3    H237307   1.694   5.718   1.570  1.0455 -0.6526 -2.1281
 5250TIP3   OH237308   6.082   3.801   1.320  0.1403  0.3819  0.8123
 5250TIP3    H137309   6.082   3.824   1.227  1.3676 -0.6641  0.5228
 5250TIP3    H237310   5.990   3.787   1.342 -0.1112  0.0909 -0.3935
 5251TIP3   OH237311   5.838   1.447   0.250  0.7547 -0.5224 -0.1177
 5251TIP3    H137312   5.856   1.428   0.158  0.2251  0.4081 -0.4219
 5251TIP3    H237313   5.923   1.440   0.293  1.8977  3.2788 -1.4151
 5252TIP3   OH237314   3.038   5.100   1.554  0.6621  0.5349 -0.0145
 5252TIP3    H137315   3.023   5.047   1.632  0.9059  0.5664  0.0552
 5252TIP3    H237316   2.958   5.151   1.544  0.1129 -0.4033 -0.5298
 5253TIP3   OH237317   2.804   1.759   0.121  0.5212 -0.1870 -0.3901
 5253TIP3    H137318   2.761   1.768   0.036 -0.4180 -0.9872 -0.0139
 5253TIP3    H237319   2.738   1.787   0.184  0.3741 -1.8297  0.2255
 5254TIP3   OH237320   6.377   5.703   0.787 -0.4597  0.1611  0.0292
 5254TIP3    H137321   6.460   5.751   0.785 -1.3362  1.7394 -0.3728
 5254TIP3    H237322   6.372   5.667   0.876  0.5488  0.2449  0.1264
 5255TIP3   OH237323   3.841   6.882   1.084  0.1357  0.4609 -0.0993
 5255TIP3    H137324   3.806   6.970   1.097 -2.5026 -0.5118  0.1184
 5255TIP3    H237325   3.815   6.860   0.994 -2.3917 -1.2736  0.9274
 5256TIP3   OH237326   3.967   5.513   7.256  0.2601 -0.2128  0.3609
 5256TIP3    H137327   3.964   5.607   7.273  0.1436  0.0651 -1.0889
 5256TIP3    H237328   4.039   5.501   7.194 -1.7922 -0.5784 -2.1349
 5257TIP3   OH237329   4.414   5.817   0.549 -0.4025  0.6081  0.6454
 5257TIP3    H137330   4.462   5.864   0.616 -0.5825 -0.3318  1.4551
 5257TIP3    H237331   4.414   5.726   0.578  1.6452 -0.3180 -1.8511
 5258TIP3   OH237332   0.736   6.080   0.499 -0.4208 -1.0737  0.1156
 5258TIP3    H137333   0.727   6.124   0.584  2.7492  0.9669 -0.4063
 5258TIP3    H237334   0.760   5.990   0.521 -0.1433 -0.7121  1.3981
 5259TIP3   OH237335   1.672   4.747   0.990  0.3518 -0.1774  0.0123
 5259TIP3    H137336   1.601   4.696   1.029 -0.0439 -1.4128 -2.1127
 5259TIP3    H237337   1.744   4.740   1.052  0.0296 -2.6977  0.2232
 5260TIP3   OH237338   2.278   4.971   7.401  0.5574 -0.0729 -0.2862
 5260TIP3    H137339   2.302   4.888   7.360 -3.3089 -0.8728 -1.3454
 5260TIP3    H237340   2.265   4.949   7.493  1.0360 -0.2434 -0.2535
 5261TIP3   OH237341   1.939   5.471   0.261 -0.1809  0.1977  0.1968
 5261TIP3    H137342   1.938   5.562   0.288 -1.1566  0.6830 -1.3464
 5261TIP3    H237343   1.889   5.425   0.329  0.7533  0.6922  1.2520
 5262TIP3   OH237344   2.714   1.376   7.934  0.1125  0.0492  0.0596
 5262TIP3    H137345   2.722   1.379   7.839 -0.1507  1.7263  0.0586
 5262TIP3    H237346   2.626   1.342   7.950  0.8137 -1.9963 -0.2363
 5263TIP3   OH237347   1.502   2.922   7.327  0.0238 -0.1101 -0.2023
 5263TIP3    H137348   1.471   2.962   7.408  1.2646 -1.3917  0.9576
 5263TIP3    H237349   1.544   2.993   7.279  1.9963  0.1155  1.7148
 5264TIP3   OH237350   4.909   1.314   0.150 -0.7982  0.8192 -0.2924
 5264TIP3    H137351   4.895   1.278   0.062  2.3895 -0.3746 -0.4675
 5264TIP3    H237352   4.866   1.251   0.209 -1.0088  0.3662 -0.9180
 5265TIP3   OH237353   2.762   5.329   7.301  0.5439 -0.7520  0.4877
 5265TIP3    H137354   2.841   5.286   7.269  0.6808  0.2016 -0.5344
 5265TIP3    H237355   2.691   5.269   7.277  0.7095 -0.3587 -1.1169
 5266TIP3   OH237356   1.620   1.264   7.340 -0.3923  0.4314  0.2329
 5266TIP3    H137357   1.712   1.268   7.368  0.1071  0.9934 -1.3812
 5266TIP3    H237358   1.570   1.271   7.421  0.9802 -1.3799  1.2916
 5267TIP3   OH237359   5.455   0.766   7.207  0.2370 -0.2104 -0.2800
 5267TIP3    H137360   5.384   0.770   7.271 -0.3047 -1.0427 -0.8180
 5267TIP3    H237361   5.467   0.856   7.179 -0.6968 -0.0771 -0.2844
 5268TIP3   OH237362   1.637   2.778   0.918  0.2826  0.0866  0.0995
 5268TIP3    H137363   1.559   2.732   0.885 -0.1537 -0.0897  1.3177
 5268TIP3    H237364   1.617   2.871   0.904  0.9770 -0.0183 -1.9555
 5269TIP3   OH237365   6.184   2.571   7.498 -0.6870 -0.1264 -0.0826
 5269TIP3    H137366   6.171   2.598   7.589  1.7895 -0.5089  0.4739
 5269TIP3    H237367   6.178   2.651   7.447  2.5082  0.9919  1.0509
 5270TIP3   OH237368   0.934   1.770   0.548  0.1635 -0.0344 -0.2886
 5270TIP3    H137369   0.976   1.793   0.631  0.0254 -0.1456 -0.1850
 5270TIP3    H237370   0.957   1.678   0.535  0.0811 -0.0517 -0.3105
 5271TIP3   OH237371   1.027   0.723   1.650  0.0508 -0.4305  0.3670
 5271TIP3    H137372   1.074   0.781   1.710 -0.5106 -1.4675  1.8819
 5271TIP3    H237373   1.075   0.640   1.654 -1.0941 -1.0980  0.9035
 5272TIP3   OH237374   6.015   2.759   7.790 -0.6004  0.0975 -0.3876
 5272TIP3    H137375   6.048   2.818   7.723 -0.5237  1.2303  0.6151
 5272TIP3    H237376   5.935   2.800   7.822 -0.8413 -0.6119 -0.0500
 5273TIP3   OH237377   4.202   5.601   7.467  0.1852  0.0315 -0.0342
 5273TIP3    H137378   4.177   5.529   7.525 -0.1079 -0.1155 -0.3382
 5273TIP3    H237379   4.184   5.680   7.517 -0.1466 -0.0923  0.0467
 5274TIP3   OH237380   5.628   1.984   6.326  0.0903  0.1219 -0.8738
 5274TIP3    H137381   5.621   2.009   6.234 -1.6316 -2.1364 -1.4376
 5274TIP3    H237382   5.711   1.938   6.332  0.3411  0.5200 -1.2138
 5275TIP3   OH237383   4.456   5.944   1.037  0.6504 -0.1804  0.3119
 5275TIP3    H137384   4.514   6.020   1.034 -0.6683  0.8419 -0.1793
 5275TIP3    H237385   4.452   5.913   0.946 -0.0942  0.1864  0.2091
 5276TIP3   OH237386   0.963   0.052   0.361 -0.4921 -0.0799 -0.0140
 5276TIP3    H137387   1.022  -0.020   0.338 -0.2021 -0.0032  0.4818
 5276TIP3    H237388   0.992   0.080   0.448 -0.7726  0.4627 -0.0909
 5277TIP3   OH237389   3.821   1.318   0.018  0.0717  0.6950 -0.1018
 5277TIP3    H137390   3.825   1.315  -0.077  0.6131  1.6281 -0.1133
 5277TIP3    H237391   3.900   1.272   0.047 -0.5704 -0.4356 -0.0742
 5278TIP3   OH237392   5.024   3.595   1.266  0.3743  0.0866  0.0058
 5278TIP3    H137393   4.938   3.636   1.276  0.5124  0.3763  0.0182
 5278TIP3    H237394   5.015   3.510   1.309  0.9999  1.3212  2.7915
 5279TIP3   OH237395   0.898   6.135   0.243  0.5366 -0.0326  0.2378
 5279TIP3    H137396   0.944   6.059   0.277  0.6310 -0.1238 -0.0943
 5279TIP3    H237397   0.890   6.119   0.149 -1.3632 -0.6685  0.4636
 5280TIP3   OH237398   0.658   5.866   7.734  0.0184  0.0960  0.5451
 5280TIP3    H137399   0.600   5.903   7.801  0.6617  0.5237  0.8692
 5280TIP3    H237400   0.620   5.895   7.651 -0.0982  0.5785  0.7630
 5281TIP3   OH237401   4.202   3.838   0.057  0.0307  0.2067 -0.2731
 5281TIP3    H137402   4.234   3.786   0.131 -3.0894 -4.0791 -1.4998
 5281TIP3    H237403   4.139   3.899   0.095  0.6499  0.1642  0.8488
 5282TIP3   OH237404   2.990   3.546   1.849 -0.1755 -0.1705  0.4047
 5282TIP3    H137405   3.049   3.520   1.779  0.5636  2.1885  0.0588
 5282TIP3    H237406   2.976   3.466   1.900  0.5863 -1.5593 -1.4525
 5283TIP3   OH237407   6.064   0.803   7.700 -0.1557  0.3036 -0.6867
 5283TIP3    H137408   6.152   0.841   7.699 -0.5342  1.2310  0.0992
 5283TIP3    H237409   6.073   0.722   7.651  1.5471 -0.5212  0.8655
 5284TIP3   OH237410   5.498   2.925   0.169 -0.1631  0.3232 -0.2860
 5284TIP3    H137411   5.478   2.862   0.238  0.2623  0.2091 -0.2599
 5284TIP3    H237412   5.484   2.877   0.087  0.1930  0.1822 -0.2657
 5285TIP3   OH237413   1.648   6.009   0.600 -0.1424  1.1280 -0.3933
 5285TIP3    H137414   1.626   6.064   0.676  0.1541  1.6979 -0.7085
 5285TIP3    H237415   1.611   5.923   0.620  1.4846  0.7460  1.2264
 5286TIP3   OH237416   3.900   6.448   8.527  0.2949  0.2644 -0.5501
 5286TIP3    H137417   3.855   6.418   8.448  1.8577 -0.1532 -1.2964
 5286TIP3    H237418   3.984   6.403   8.527  0.3668  0.3132  1.3299
 5287TIP3   OH237419   1.846   4.063   6.053 -0.1217 -0.7782  0.0625
 5287TIP3    H137420   1.881   4.037   6.139 -0.0126 -0.3505  0.1510
 5287TIP3    H237421   1.862   3.987   5.997 -0.2134 -1.0696  0.4265
 5288TIP3   OH237422   5.131   4.819   8.086  0.1342 -0.0710  0.2826
 5288TIP3    H137423   5.107   4.901   8.042  0.5995  1.7278  3.1508
 5288TIP3    H237424   5.086   4.823   8.170  0.7953 -2.4554  0.8177
 5289TIP3   OH237425   3.971   4.248   7.144  0.1969 -0.0365  0.0397
 5289TIP3    H137426   4.012   4.303   7.211 -0.1567 -0.3615  0.5347
 5289TIP3    H237427   3.941   4.309   7.078 -0.3595  0.3952  0.6774
 5290TIP3   OH237428   3.799   6.728   1.841  0.3070  0.9283 -0.2220
 5290TIP3    H137429   3.865   6.791   1.867 -0.1686  2.4482 -2.4302
 5290TIP3    H237430   3.721   6.754   1.890  0.1131  2.1050 -1.1118
 5291TIP3   OH237431   4.135   2.626   8.288 -0.7897  0.0916 -0.2425
 5291TIP3    H137432   4.168   2.555   8.233 -0.9767 -0.1311 -0.0703
 5291TIP3    H237433   4.044   2.601   8.306 -0.1937 -0.8233  1.7671
 5292TIP3   OH237434   5.540   3.060   1.460 -0.2492 -1.5312 -0.2981
 5292TIP3    H137435   5.575   3.137   1.505 -0.0182  0.7862 -4.0233
 5292TIP3    H237436   5.606   2.992   1.472  0.3554 -0.6540  1.6800
 5293TIP3   OH237437   6.317   1.787   0.177  0.3896  0.1536 -0.5273
 5293TIP3    H137438   6.330   1.868   0.226 -1.7751 -0.5707  1.3748
 5293TIP3    H237439   6.223   1.779   0.167  0.4584 -2.5642  0.1454
 5294TIP3   OH237440   0.434   0.300   0.757 -0.2499  0.3448  0.0530
 5294TIP3    H137441   0.524   0.272   0.739 -0.5312 -0.8732  0.4261
 5294TIP3    H237442   0.435   0.329   0.848  0.0730  1.7277 -0.3756
 5295TIP3   OH237443   4.029   1.829   0.595  0.5928 -0.0668  0.0416
 5295TIP3    H137444   4.005   1.905   0.648 -0.0803 -0.9527  1.0291
 5295TIP3    H237445   4.028   1.755   0.656 -0.1097 -1.1022 -1.1849
 5296TIP3   OH237446   4.368   6.901   6.367 -0.0444  0.2548 -0.1880
 5296TIP3    H137447   4.410   6.934   6.288 -0.9314  0.1266 -0.7221
 5296TIP3    H237448   4.275   6.919   6.355 -0.6409 -2.5209 -0.6062
 5297TIP3   OH237449   0.628   4.762   2.272  0.2064 -0.2598 -0.4465
 5297TIP3    H137450   0.553   4.740   2.215 -0.4635 -1.4683  0.8362
 5297TIP3    H237451   0.598   4.838   2.322 -0.5053 -1.2016  0.6109
 5298TIP3   OH237452   6.267   1.009   1.196  0.3578  0.4010 -0.0005
 5298TIP3    H137453   6.303   1.059   1.269  0.1734  2.1478 -1.0675
 5298TIP3    H237454   6.199   1.064   1.160 -0.2411 -0.8790 -0.8978
 5299TIP3   OH237455   4.842   5.457   6.745  0.1948 -0.4381  0.1175
 5299TIP3    H137456   4.789   5.537   6.735 -0.7838 -1.1767 -0.8598
 5299TIP3    H237457   4.924   5.488   6.783 -0.5485  0.8899  0.7484
 5300TIP3   OH237458   3.904   2.020   8.553 -0.3094 -0.0560  0.1252
 5300TIP3    H137459   3.941   2.058   8.633  2.4407 -0.0362 -1.0676
 5300TIP3    H237460   3.954   1.940   8.538 -0.3253  0.2536 -1.8802
 5301TIP3   OH237461   0.850   2.386   8.058 -0.0256  0.1700  0.0390
 5301TIP3    H137462   0.825   2.312   8.113 -0.6173 -0.0192 -0.4640
 5301TIP3    H237463   0.944   2.378   8.048  0.0359 -0.0047  0.7196
 5302TIP3   OH237464   0.726   5.322   6.803 -0.3372 -0.1074  0.6825
 5302TIP3    H137465   0.808   5.324   6.853 -1.4309 -1.0938  2.6636
 5302TIP3    H237466   0.752   5.336   6.712  2.1860 -1.8920  1.0437
 5303TIP3   OH237467   0.354   2.413   0.870  0.2887 -0.4092  0.4099
 5303TIP3    H137468   0.289   2.349   0.899  0.6910 -0.6306  0.8301
 5303TIP3    H237469   0.388   2.377   0.788 -1.7329  0.8170 -1.0620
 5304TIP3   OH237470   5.533   6.816   7.193  0.3437 -0.0525 -0.0590
 5304TIP3    H137471   5.458   6.808   7.252  0.0963  1.1096 -0.1950
 5304TIP3    H237472   5.600   6.859   7.245  0.5789 -0.2011 -0.2366
 5305TIP3   OH237473   0.946   1.307   6.786  0.3073  0.1608  0.9744
 5305TIP3    H137474   1.030   1.351   6.786  1.0586 -1.1819  2.7195
 5305TIP3    H237475   0.881   1.377   6.778  1.5404  1.2288 -0.0405
 5306TIP3   OH237476   2.265   2.703   6.980 -0.2549 -0.0958  0.2589
 5306TIP3    H137477   2.355   2.732   6.996  0.2202 -1.0945 -0.4953
 5306TIP3    H237478   2.218   2.783   6.956  0.7726  0.2329 -0.7503
 5307TIP3   OH237479   5.265   1.752   0.575 -0.7215 -0.3722 -0.0725
 5307TIP3    H137480   5.192   1.757   0.637 -0.7997  1.7683 -0.2802
 5307TIP3    H237481   5.229   1.784   0.492  0.3154  0.2539 -0.3000
 5308TIP3   OH237482   0.198   4.526   1.564 -0.1073 -0.2274 -0.0652
 5308TIP3    H137483   0.251   4.447   1.569  0.5768  0.2266 -0.0888
 5308TIP3    H237484   0.231   4.573   1.487 -0.7223 -0.0738 -0.2429
 5309TIP3   OH237485   2.999   1.585   6.719 -0.0999 -0.0177  0.4676
 5309TIP3    H137486   3.007   1.679   6.703 -0.8469 -0.2067 -1.1714
 5309TIP3    H237487   3.088   1.555   6.735  0.2484  0.8063  0.0713
 5310TIP3   OH237488   0.646   6.883   7.629 -0.1365  0.1176 -0.2242
 5310TIP3    H137489   0.565   6.878   7.680  0.2996 -0.8422  0.3943
 5310TIP3    H237490   0.682   6.969   7.651 -0.3220  0.0084  0.5440
 5311TIP3   OH237491   3.062   4.848   1.101 -0.5758 -0.3319 -0.4933
 5311TIP3    H137492   3.077   4.878   1.191  1.2551  1.5347 -1.3566
 5311TIP3    H237493   3.031   4.758   1.112 -0.8227 -0.0330  2.0079
 5312TIP3   OH237494   1.789   6.213   6.950 -0.0257 -0.1162  0.3479
 5312TIP3    H137495   1.775   6.200   6.857 -0.3513  1.7756  0.1067
 5312TIP3    H237496   1.702   6.206   6.989 -0.0916  0.5017  0.3169
 5313TIP3   OH237497   2.778   5.604   0.562  0.2210 -0.1105 -0.3820
 5313TIP3    H137498   2.802   5.628   0.652  2.5546  0.0296 -0.9897
 5313TIP3    H237499   2.703   5.545   0.573  0.0684  0.3778  1.6163
 5314TIP3   OH237500   1.005   0.789   8.114 -0.1436  0.0637  0.1146
 5314TIP3    H137501   1.058   0.714   8.087 -1.3916 -0.7468 -0.1629
 5314TIP3    H237502   0.992   0.840   8.034 -3.2981 -1.9970 -0.8466
 5315TIP3   OH237503   4.227   2.414   0.985  0.0276 -0.4696  0.6140
 5315TIP3    H137504   4.315   2.406   1.022  0.9744 -0.8357 -1.5885
 5315TIP3    H237505   4.192   2.494   1.024  2.0041  0.6266  0.2621
 5316TIP3   OH237506   0.728   2.537   7.483  0.3232 -0.1222  0.0348
 5316TIP3    H137507   0.786   2.531   7.559  0.2560 -2.8640 -0.0437
 5316TIP3    H237508   0.782   2.508   7.409  0.3066  2.2391 -1.0150
 5317TIP3   OH237509   0.892   2.154   0.355 -0.7893  0.2129 -0.1003
 5317TIP3    H137510   0.833   2.083   0.381 -0.7716  0.7791  1.5338
 5317TIP3    H237511   0.978   2.125   0.384 -0.4522  0.0436 -1.1986
 5318TIP3   OH237512   6.898   2.236   7.228  0.4301 -0.0958  0.0589
 5318TIP3    H137513   6.987   2.231   7.263  1.4186  0.0535 -2.2360
 5318TIP3    H237514   6.891   2.160   7.170 -0.7250  0.2122 -0.2186
 5319TIP3   OH237515   2.346   6.421   6.269  0.8864 -0.2288 -0.1326
 5319TIP3    H137516   2.355   6.508   6.230 -3.0085  0.2469 -0.3933
 5319TIP3    H237517   2.349   6.437   6.363 -1.4846  0.5919 -0.1226
 5320TIP3   OH237518   4.713   1.963   8.030  0.3893  0.2875  0.0042
 5320TIP3    H137519   4.737   1.944   7.939  1.0211 -3.6418  0.8120
 5320TIP3    H237520   4.797   1.976   8.075  0.1213  1.3566  0.2297
 5321TIP3   OH237521   5.479   4.184   6.834  0.3339  0.3451  0.0755
 5321TIP3    H137522   5.500   4.098   6.797 -1.3743  0.2810 -0.8138
 5321TIP3    H237523   5.441   4.165   6.919 -1.1733  0.1173 -0.6261
 5322TIP3   OH237524   3.668   3.732   6.980 -0.3418 -0.6674  0.4775
 5322TIP3    H137525   3.576   3.758   6.974 -0.2935 -0.0903  1.7579
 5322TIP3    H237526   3.682   3.672   6.907 -1.4212  0.1597 -0.4377
 5323TIP3   OH237527   0.053   0.908   0.289 -0.1510  0.5296 -0.2800
 5323TIP3    H137528   0.120   0.914   0.221 -0.9293  2.5019 -0.9569
 5323TIP3    H237529  -0.010   0.977   0.266 -2.5740 -1.4060  0.1747
 5324TIP3   OH237530   3.735   6.485   0.236  0.4935 -0.1664 -0.5062
 5324TIP3    H137531   3.715   6.507   0.145  1.8920 -0.1448 -0.8423
 5324TIP3    H237532   3.769   6.567   0.273 -1.1131  0.1257  0.3779
 5325TIP3   OH237533   0.580   4.517   1.056 -0.2630  0.4557 -0.3554
 5325TIP3    H137534   0.512   4.491   1.119  0.7692 -2.9040 -0.4689
 5325TIP3    H237535   0.531   4.539   0.976 -1.3328 -0.6442 -0.0346
 5326TIP3   OH237536   1.125   0.515   5.823  0.3129 -0.1924  0.5431
 5326TIP3    H137537   1.158   0.535   5.735  2.6066  0.1452  1.4144
 5326TIP3    H237538   1.196   0.466   5.864 -1.7481 -2.6394  1.3938
 5327TIP3   OH237539   6.041   3.223   7.903 -0.0214  0.0591  0.0674
 5327TIP3    H137540   5.973   3.164   7.870  0.9608 -1.5746  0.8450
 5327TIP3    H237541   6.013   3.247   7.991 -0.1520  0.3393 -0.0478
 5328TIP3   OH237542   3.361   0.810   2.193 -0.5051 -0.5144  0.2177
 5328TIP3    H137543   3.379   0.788   2.285 -1.6218 -2.3545  0.0615
 5328TIP3    H237544   3.447   0.826   2.155 -0.0412  0.4870  1.6232
 5329TIP3   OH237545   0.728   2.707   8.236 -0.0211 -0.9179  0.4282
 5329TIP3    H137546   0.735   2.702   8.141  2.0749 -1.6380  0.5720
 5329TIP3    H237547   0.692   2.795   8.253 -1.0051 -1.0108 -1.0096
 5330TIP3   OH237548   3.743   4.174   6.233 -0.2571  0.0677  0.2220
 5330TIP3    H137549   3.795   4.106   6.191 -0.6061 -0.3463  0.4563
 5330TIP3    H237550   3.753   4.251   6.176  0.9061  0.1094  0.4507
 5331TIP3   OH237551   6.294   4.548   8.467  0.2791  0.7005 -0.5818
 5331TIP3    H137552   6.277   4.564   8.374 -0.2337  1.5233 -0.3603
 5331TIP3    H237553   6.317   4.635   8.501 -2.1413  0.9507  0.6064
 5332TIP3   OH237554   3.301   2.695   1.083 -0.5358  0.2242 -0.1744
 5332TIP3    H137555   3.279   2.650   1.164  0.9792  2.0742  1.3594
 5332TIP3    H237556   3.230   2.757   1.069 -1.2888 -0.7593 -0.8393
 5333TIP3   OH237557   3.378   0.883   1.745 -0.2760  0.3222 -0.1425
 5333TIP3    H137558   3.349   0.912   1.832  1.5714  0.0781  0.6109
 5333TIP3    H237559   3.460   0.835   1.762 -0.0293  0.0140 -1.9923
 5334TIP3   OH237560   4.270   0.383   0.395  0.4169 -0.4046  0.2663
 5334TIP3    H137561   4.330   0.455   0.415  1.2067 -1.6074  2.4727
 5334TIP3    H237562   4.306   0.344   0.315  0.3661  1.1781 -0.5794
 5335TIP3   OH237563   5.054   0.773   0.908 -0.3086  0.0350 -0.0819
 5335TIP3    H137564   4.968   0.738   0.886 -0.7631  0.4177  0.9822
 5335TIP3    H237565   5.083   0.718   0.981  0.6987 -0.5735 -0.9198
 5336TIP3   OH237566   5.466   2.511   6.669  1.1992 -0.3195  0.2049
 5336TIP3    H137567   5.398   2.535   6.605 -0.9318  0.3744  2.5298
 5336TIP3    H237568   5.515   2.592   6.683  0.6187 -0.0113  0.5541
 5337TIP3   OH237569   1.609   1.273   0.833 -0.4646  0.6037 -0.1515
 5337TIP3    H137570   1.524   1.257   0.875  0.0360  0.2173  0.7313
 5337TIP3    H237571   1.665   1.305   0.903  0.9757 -1.9487 -0.0116
 5338TIP3   OH237572   6.245   2.129   7.184 -0.1574 -0.3297 -0.6867
 5338TIP3    H137573   6.213   2.218   7.198  1.4967  0.3764 -1.1370
 5338TIP3    H237574   6.285   2.105   7.268  0.1821 -0.2909 -0.8351
 5339TIP3   OH237575   4.352   2.556   7.019 -0.4511  0.0778 -0.5810
 5339TIP3    H137576   4.392   2.606   6.948  1.1005 -1.5404 -0.9066
 5339TIP3    H237577   4.283   2.505   6.976  2.4622 -3.3051 -1.7379
 5340TIP3   OH237578   6.848   2.024   7.062  0.0820  0.2870 -0.1895
 5340TIP3    H137579   6.831   1.931   7.079 -1.8355  0.6152 -0.0226
 5340TIP3    H237580   6.843   2.033   6.967 -1.1860  0.4135 -0.1385
 5341TIP3   OH237581   0.792   4.322   8.339 -0.4270 -0.3908  0.2376
 5341TIP3    H137582   0.716   4.373   8.308 -1.3171 -1.4787  0.5627
 5341TIP3    H237583   0.858   4.335   8.272 -0.8818  0.6232 -0.0391
 5342TIP3   OH237584   0.537   2.039   8.363  0.0229  0.0937  0.1792
 5342TIP3    H137585   0.471   2.089   8.316 -1.0317 -1.1568  0.2653
 5342TIP3    H237586   0.575   1.981   8.296  0.4595  0.2180  0.3108
 5343TIP3   OH237587   2.667   4.092   8.041 -0.0282  0.7349  0.5700
 5343TIP3    H137588   2.714   4.144   8.106  0.4527 -1.4631  2.0651
 5343TIP3    H237589   2.575   4.105   8.062  0.1230 -0.1642  1.9405
 5344TIP3   OH237590   4.426   0.378   6.054  0.4720  0.0984  0.0667
 5344TIP3    H137591   4.394   0.438   6.122 -0.1019  0.1341 -0.2236
 5344TIP3    H237592   4.423   0.430   5.974 -1.0160 -0.6119 -0.3661
 5345TIP3   OH237593   6.563   1.067   1.590  0.1963  0.3888 -0.3945
 5345TIP3    H137594   6.634   1.023   1.543  0.8554  1.6569 -0.6240
 5345TIP3    H237595   6.604   1.100   1.670 -0.4220  0.1215  0.0428
 5346TIP3   OH237596   4.310   4.568   0.818  0.4952 -0.0204  0.6038
 5346TIP3    H137597   4.241   4.507   0.790 -0.3766  0.7241  1.0849
 5346TIP3    H237598   4.282   4.653   0.785  2.2728  0.0043 -1.0544
 5347TIP3   OH237599   2.393   2.304   6.911  0.2258  0.0131 -0.2918
 5347TIP3    H137600   2.403   2.332   7.002 -0.5294 -0.5069 -0.0377
 5347TIP3    H237601   2.305   2.333   6.887  0.5980  0.5664 -1.0113
 5348TIP3   OH237602   2.330   3.116   7.889  0.3475  0.5303  0.4462
 5348TIP3    H137603   2.370   3.096   7.974 -0.8877  0.7373  1.0913
 5348TIP3    H237604   2.281   3.196   7.904  0.1504  0.5875 -0.4841
 5349TIP3   OH237605   4.221   0.001   7.404 -0.1690  0.1244  0.2548
 5349TIP3    H137606   4.169  -0.078   7.421 -0.2661  0.5920  2.5279
 5349TIP3    H237607   4.264   0.020   7.488  1.8984  1.0525 -0.9291
 5350TIP3   OH237608   5.451   2.483   0.926 -0.2923  0.6240 -0.3848
 5350TIP3    H137609   5.506   2.535   0.984 -0.5609  2.6096 -1.8208
 5350TIP3    H237610   5.510   2.450   0.859  0.0410 -1.7721  0.9820
 5351TIP3   OH237611   5.973   0.014   0.979 -0.6218  0.3951 -0.2566
 5351TIP3    H137612   5.987   0.070   1.056  0.2746 -1.8148  1.3302
 5351TIP3    H237613   6.028  -0.063   0.996 -1.8214 -1.0025 -2.2516
 5352TIP3   OH237614   1.156   2.140   0.211  0.2167  0.0063  0.4424
 5352TIP3    H137615   1.189   2.137   0.121 -0.2306  0.6848  0.2467
 5352TIP3    H237616   1.210   2.206   0.254 -0.4458  0.6689  0.2904
 5353TIP3   OH237617   6.501   0.221   7.760 -0.4434  0.2246 -0.7290
 5353TIP3    H137618   6.563   0.294   7.769 -1.6620  1.1086  1.2944
 5353TIP3    H237619   6.543   0.148   7.805  0.9004 -0.5101 -2.9886
 5354TIP3   OH237620   3.391   2.158   1.712 -0.3474 -0.1426 -0.0895
 5354TIP3    H137621   3.313   2.200   1.749 -0.3985  0.1302 -0.5039
 5354TIP3    H237622   3.461   2.223   1.724  0.0331 -0.7370  1.1129
 5355TIP3   OH237623   0.866   1.627   7.799 -0.3765  0.6221  0.2154
 5355TIP3    H137624   0.902   1.621   7.888 -0.5800  0.2096  0.2725
 5355TIP3    H237625   0.892   1.545   7.757 -0.9721  0.4567  0.1558
 5356TIP3   OH237626   2.992   5.612   0.240  0.6097  0.2472  0.0609
 5356TIP3    H137627   2.909   5.613   0.193 -0.6030  3.9422  1.9021
 5356TIP3    H237628   3.045   5.678   0.196  1.0259  0.7784  1.3103
 5357TIP3   OH237629   3.242   1.545   1.127  0.3444 -0.4049 -0.0440
 5357TIP3    H137630   3.218   1.474   1.067 -2.0439 -2.9584  3.4866
 5357TIP3    H237631   3.324   1.516   1.166 -0.6634 -1.3901  1.4448
 5358TIP3   OH237632   0.038   6.390   0.013  0.7175  0.2873 -0.1260
 5358TIP3    H137633   0.117   6.344   0.043  1.0977 -0.6390 -2.3889
 5358TIP3    H237634  -0.030   6.365   0.075  2.4700  2.4747  2.9625
 5359TIP3   OH237635   5.146   2.685   0.501 -0.1162  0.6431 -0.0103
 5359TIP3    H137636   5.063   2.699   0.456 -0.0518 -0.0267 -0.3485
 5359TIP3    H237637   5.124   2.628   0.575 -0.2952  2.0611  1.0766
 5360TIP3   OH237638   2.191   0.750   8.375 -0.4958  0.5420  0.1749
 5360TIP3    H137639   2.129   0.680   8.351 -0.2439  0.1424  0.6681
 5360TIP3    H237640   2.189   0.751   8.471 -2.9752  3.4201  0.2561
 5361TIP3   OH237641   3.841   5.306   7.591  0.0141 -0.1310  0.5831
 5361TIP3    H137642   3.822   5.332   7.501  1.1428  0.4992  0.5094
 5361TIP3    H237643   3.859   5.389   7.637  1.9165 -0.5995  0.7747
 5362TIP3   OH237644   1.953   3.301   0.488  0.1740  1.2980  0.0947
 5362TIP3    H137645   2.028   3.357   0.506 -0.0555  1.4942  0.4638
 5362TIP3    H237646   1.927   3.267   0.574 -1.0607  2.3957  0.1926
 5363TIP3   OH237647   3.600   2.178   7.073 -0.1065  0.5188 -0.2659
 5363TIP3    H137648   3.601   2.135   7.158 -0.0549 -0.5189 -0.7830
 5363TIP3    H237649   3.637   2.265   7.090  0.6815  0.0323  0.6146
 5364TIP3   OH237650   3.043   6.363   7.670 -0.3808  0.4510  0.1158
 5364TIP3    H137651   3.097   6.419   7.615  0.0762 -0.9860 -0.9791
 5364TIP3    H237652   3.071   6.383   7.760  0.2936  1.4012 -0.2911
 5365TIP3   OH237653   5.622   5.557   7.108 -0.0958  0.0909 -0.0239
 5365TIP3    H137654   5.638   5.620   7.038 -0.1735  0.4589  0.2924
 5365TIP3    H237655   5.708   5.518   7.125 -0.3730 -1.3979 -1.6440
 5366TIP3   OH237656   6.263   3.627   7.263  0.1219  0.0080 -0.0097
 5366TIP3    H137657   6.308   3.590   7.187  0.5219 -1.5438  0.9387
 5366TIP3    H237658   6.177   3.587   7.263  0.7904 -1.5748  1.4066
 5367TIP3   OH237659   0.733   2.353   5.924  0.1573 -0.2883 -0.3173
 5367TIP3    H137660   0.649   2.382   5.961  0.0880  0.4672 -1.0164
 5367TIP3    H237661   0.797   2.416   5.959  0.5488 -1.2115  0.6855
 5368TIP3   OH237662   6.827   0.369   6.666  0.3179 -0.3079 -0.1031
 5368TIP3    H137663   6.875   0.324   6.735 -0.2493 -0.9731 -0.1309
 5368TIP3    H237664   6.861   0.458   6.667  1.3898 -0.6954  0.0311
 5369TIP3   OH237665   3.262   2.936   8.336 -0.1660 -0.1161  0.4534
 5369TIP3    H137666   3.240   2.923   8.244  1.1848  0.3357  0.0531
 5369TIP3    H237667   3.304   2.854   8.363 -0.3510 -0.1610  0.6129
 5370TIP3   OH237668   6.727   1.999   0.376 -0.9330 -0.0911  0.2029
 5370TIP3    H137669   6.651   1.948   0.404 -1.1660  1.3856  2.5681
 5370TIP3    H237670   6.715   2.084   0.419  1.8119  0.3407  0.2579
 5371TIP3   OH237671   0.005   2.805   1.350 -0.3404 -0.1469 -0.0052
 5371TIP3    H137672  -0.034   2.743   1.412 -0.9172 -0.4392 -0.6495
 5371TIP3    H237673   0.019   2.885   1.402 -0.2672 -0.5748  0.6491
 5372TIP3   OH237674   0.252   3.978   6.542  0.7788  0.2201 -0.4075
 5372TIP3    H137675   0.261   3.987   6.448  2.0712 -1.1594 -0.4674
 5372TIP3    H237676   0.175   3.923   6.555  2.0397 -1.7702 -0.8526
 5373TIP3   OH237677   2.375   3.960   0.777  0.0434  0.3847 -0.2648
 5373TIP3    H137678   2.394   4.054   0.782 -0.2029  0.4549 -0.6564
 5373TIP3    H237679   2.454   3.918   0.812 -1.1080  0.8181  3.3077
 5374TIP3   OH237680   4.123   1.656   1.250 -0.0256 -0.6205 -0.5813
 5374TIP3    H137681   4.165   1.721   1.307 -1.4176  0.2051 -0.4518
 5374TIP3    H237682   4.178   1.579   1.257  0.9546  0.1310  0.2907
 5375TIP3   OH237683   6.279   4.311   0.104  0.1257 -0.1338  0.3148
 5375TIP3    H137684   6.316   4.377   0.045  0.1979 -0.6765 -0.2542
 5375TIP3    H237685   6.319   4.229   0.077  0.8091 -0.2767  1.6771
 5376TIP3   OH237686   0.250   0.241   0.469  0.3076 -0.2860  0.0289
 5376TIP3    H137687   0.324   0.297   0.446 -0.2719  0.2293 -0.6230
 5376TIP3    H237688   0.174   0.300   0.469  0.0634 -0.5373  1.9677
 5377TIP3   OH237689   6.772   0.889   7.528  0.5639  0.1327  0.0144
 5377TIP3    H137690   6.739   0.977   7.512  0.3699 -0.3420 -2.5255
 5377TIP3    H237691   6.867   0.900   7.535  0.5391  0.5365 -0.2643
 5378TIP3   OH237692   0.913   4.949   7.686 -0.1556  0.0706 -0.1923
 5378TIP3    H137693   0.827   4.953   7.645 -0.0698  1.4575 -0.2742
 5378TIP3    H237694   0.958   5.029   7.657  1.0387 -0.4607  0.1096
 5379TIP3   OH237695   5.191   1.917   0.316 -0.0310 -0.3779  0.1376
 5379TIP3    H137696   5.255   1.924   0.245 -1.6885  1.4754 -1.2527
 5379TIP3    H237697   5.185   2.005   0.353 -0.3956 -0.9519  1.5366
 5380TIP3   OH237698   2.936   0.824   0.984  0.1737  0.2404 -0.0996
 5380TIP3    H137699   2.886   0.857   0.909  1.0927  1.0808 -0.3620
 5380TIP3    H237700   2.879   0.758   1.023 -0.8108  0.6150 -0.8466
 5381TIP3   OH237701   2.771   2.804   1.536  0.1788  0.4449  0.0783
 5381TIP3    H137702   2.681   2.830   1.521  0.4960  1.3565 -0.2716
 5381TIP3    H237703   2.809   2.874   1.589  0.1934 -0.8044  1.8193
 5382TIP3   OH237704   4.968   0.549   1.384 -0.4881  0.3631 -0.2867
 5382TIP3    H137705   4.907   0.622   1.372  0.1438  0.6418 -2.1505
 5382TIP3    H237706   5.026   0.578   1.454 -1.6578  0.6420  0.6052
 5383TIP3   OH237707   4.436   1.126   8.444 -0.5436  0.5101  0.0111
 5383TIP3    H137708   4.478   1.083   8.518  2.3545  0.3631 -1.5724
 5383TIP3    H237709   4.478   1.212   8.438  0.9462 -0.2923 -2.6757
 5384TIP3   OH237710   0.970   5.758   8.429 -0.0126  0.1419  0.1003
 5384TIP3    H137711   0.932   5.681   8.471 -0.8125 -0.6567 -1.9500
 5384TIP3    H237712   1.064   5.750   8.443  0.0194 -1.8096 -0.9933
 5385TIP3   OH237713   1.934   5.006   8.097 -0.1130 -0.1705 -0.3505
 5385TIP3    H137714   2.026   4.979   8.097  0.0431  0.3006  0.8396
 5385TIP3    H237715   1.906   4.997   8.006  2.2630  3.5071 -1.6589
 5386TIP3   OH237716   0.708   0.174   8.387  0.0401 -0.0968  0.1659
 5386TIP3    H137717   0.730   0.267   8.385 -1.3240  0.3301  1.9387
 5386TIP3    H237718   0.762   0.138   8.458  0.1529 -0.5405 -0.1424
 5387TIP3   OH237719   1.809   6.871   7.669  0.2245 -0.2737 -0.3899
 5387TIP3    H137720   1.812   6.784   7.630  1.0667  0.1995 -1.4521
 5387TIP3    H237721   1.886   6.875   7.726 -0.7980 -0.8313  1.0644
 5388TIP3   OH237722   4.313   2.775   0.890  0.2495 -0.2384  0.4431
 5388TIP3    H137723   4.284   2.757   0.801  1.3571 -0.1060  0.0314
 5388TIP3    H237724   4.285   2.865   0.908 -0.1603 -0.3391  0.3163
 5389TIP3   OH237725   6.757   2.853   6.756  0.0456  0.4452  0.1792
 5389TIP3    H137726   6.746   2.759   6.771  1.4528 -0.2087 -2.3051
 5389TIP3    H237727   6.747   2.863   6.661  1.4907  2.5694  0.1875
 5390TIP3   OH237728   5.254   6.724   7.270 -0.1746  0.4576  0.0406
 5390TIP3    H137729   5.249   6.629   7.257  1.7612  0.2252  0.7099
 5390TIP3    H237730   5.163   6.754   7.260 -0.8667 -1.4755  0.0162
 5391TIP3   OH237731   4.123   2.463   1.841  0.0370  0.5287  0.0397
 5391TIP3    H137732   4.160   2.375   1.834  0.7519  0.7554  0.7943
 5391TIP3    H237733   4.120   2.480   1.935 -0.9164  0.9783 -0.0625
 5392TIP3   OH237734   1.698   4.304   0.946 -0.1233 -0.0587 -0.2194
 5392TIP3    H137735   1.609   4.327   0.920 -0.6069 -0.3324  1.1280
 5392TIP3    H237736   1.754   4.353   0.885 -1.1713 -0.5789 -1.6691
 5393TIP3   OH237737   5.410   4.794   0.087 -0.2337 -0.1673 -0.4729
 5393TIP3    H137738   5.375   4.731   0.149  0.5240 -2.2071 -2.0070
 5393TIP3    H237739   5.375   4.878   0.116 -0.7946 -1.1710  2.0148
 5394TIP3   OH237740   6.411   1.885   8.055 -0.1898  0.4603  0.1192
 5394TIP3    H137741   6.381   1.924   8.136 -0.0944  1.1334 -0.1597
 5394TIP3    H237742   6.343   1.822   8.031 -0.6410  0.8878  0.2659
 5395TIP3   OH237743   3.415   4.731   1.930 -0.0564  0.0330 -0.5044
 5395TIP3    H137744   3.336   4.691   1.966 -0.4109 -1.7273 -3.0165
 5395TIP3    H237745   3.485   4.668   1.947 -0.2663 -0.9471 -2.8470
 5396TIP3   OH237746   5.459   6.020   0.505  0.4737  0.1794  0.2427
 5396TIP3    H137747   5.463   6.113   0.483  0.2421  0.0834 -0.2357
 5396TIP3    H237748   5.366   5.997   0.495  0.5192 -0.0849  0.4246
 5397TIP3   OH237749   6.393   0.152   8.524 -0.5803  0.2462  0.1057
 5397TIP3    H137750   6.456   0.214   8.561 -0.7316  0.8326 -0.5838
 5397TIP3    H237751   6.315   0.204   8.507 -1.6213 -0.6647  1.8196
 5398TIP3   OH237752   5.411   5.088   1.387 -0.6616  0.2893  0.1974
 5398TIP3    H137753   5.423   5.050   1.300 -2.1896  1.2056 -0.4608
 5398TIP3    H237754   5.399   5.012   1.445  0.7439 -0.3403 -0.3008
 5399TIP3   OH237755   2.628   0.477   6.525 -0.3370 -0.4317  0.1685
 5399TIP3    H137756   2.678   0.428   6.459  0.0674  1.2039 -0.7938
 5399TIP3    H237757   2.695   0.518   6.580 -0.6661 -0.4988  0.6239
 5400TIP3   OH237758   0.861   4.803   1.089 -0.4462  0.2589 -0.2993
 5400TIP3    H137759   0.775   4.783   1.127 -0.0776  1.0507  1.0198
 5400TIP3    H237760   0.885   4.723   1.043 -2.0208  0.1300 -0.9625
 5401TIP3   OH237761   1.615   5.947   6.621  0.1146  0.0999 -0.9241
 5401TIP3    H137762   1.591   5.994   6.541 -0.7546 -0.8657 -1.2432
 5401TIP3    H237763   1.683   5.885   6.593  0.1183  0.0549 -0.8171
 5402TIP3   OH237764   1.000   2.187   6.743  0.5239  0.6149  0.4349
 5402TIP3    H137765   1.048   2.145   6.814 -1.1350 -2.2889 -0.0185
 5402TIP3    H237766   0.954   2.116   6.699 -0.4228  2.6183 -2.0925
 5403TIP3   OH237767   5.481   1.391   7.445 -0.2724  0.0400 -0.0089
 5403TIP3    H137768   5.428   1.338   7.505  0.4806 -0.7736 -0.0420
 5403TIP3    H237769   5.547   1.431   7.501 -0.4366  0.4122 -0.0843
 5404TIP3   OH237770   1.732   4.610   7.585  0.1294  0.5050  0.1529
 5404TIP3    H137771   1.776   4.558   7.518  0.2994 -0.0375  0.6691
 5404TIP3    H237772   1.797   4.674   7.613  0.0644  0.7189 -0.1895
 5405TIP3   OH237773   6.049   4.646   7.210 -0.2022 -0.4752  0.0751
 5405TIP3    H137774   6.101   4.726   7.225  1.0331 -0.2696 -4.0727
 5405TIP3    H237775   6.112   4.575   7.218 -0.4885 -0.7098  0.2459
 5406TIP3   OH237776   6.059   1.768   7.118 -0.4111  0.0958  0.4008
 5406TIP3    H137777   6.143   1.767   7.072 -1.0824 -0.0209 -0.8547
 5406TIP3    H237778   6.081   1.741   7.207  0.7092 -1.2227 -0.2287
 5407TIP3   OH237779   4.182   6.137   0.134  0.3511 -0.0429  0.0243
 5407TIP3    H137780   4.175   6.232   0.127  0.0837  0.0635  1.4823
 5407TIP3    H237781   4.161   6.118   0.225 -1.3057 -1.6721 -0.6398
 5408TIP3   OH237782   0.446   5.492   5.776 -0.1732 -0.1395 -0.0448
 5408TIP3    H137783   0.383   5.545   5.825 -0.3795  0.3990 -0.8696
 5408TIP3    H237784   0.419   5.501   5.685 -0.8281 -2.4930 -0.1463
 5409TIP3   OH237785   3.228   4.487   7.580  0.8661 -0.3986 -0.4057
 5409TIP3    H137786   3.294   4.534   7.530  0.8626 -1.3292 -1.3097
 5409TIP3    H237787   3.276   4.417   7.624  0.8350  0.2739  0.7433
 5410TIP3   OH237788   4.616   6.285   1.575  0.2591  0.0415  0.3417
 5410TIP3    H137789   4.599   6.311   1.666  1.1686  1.1570  0.2149
 5410TIP3    H237790   4.701   6.241   1.578  0.2750  0.0488  0.0392
 5411TIP3   OH237791   4.810   3.532   1.551 -1.0574 -0.1203 -0.1431
 5411TIP3    H137792   4.869   3.570   1.616  0.7327 -0.0100 -1.7255
 5411TIP3    H237793   4.723   3.553   1.582 -0.2620  0.3403  1.9521
 5412TIP3   OH237794   5.103   5.211   1.728  0.0093 -0.2367  0.3483
 5412TIP3    H137795   5.045   5.282   1.755 -0.1654  0.0976 -0.8514
 5412TIP3    H237796   5.084   5.199   1.635 -0.1327 -2.0137  0.5760
 5413TIP3   OH237797   2.287   3.035   1.192  0.3707  0.0322  0.6320
 5413TIP3    H137798   2.253   2.971   1.129 -1.0382  1.6504 -0.3356
 5413TIP3    H237799   2.381   3.019   1.192  0.2603 -0.9227 -0.8802
 5414TIP3   OH237800   0.251   3.315   6.288  0.1506 -0.5038 -0.3705
 5414TIP3    H137801   0.213   3.387   6.237  0.7838 -0.5203 -0.8710
 5414TIP3    H237802   0.217   3.236   6.245 -1.7871 -0.5462  1.0943
 5415TIP3   OH237803   6.615   5.614   1.407  0.5929  0.8408 -0.0661
 5415TIP3    H137804   6.545   5.550   1.391  0.0817  1.2993  0.2854
 5415TIP3    H237805   6.668   5.612   1.328  0.7600 -0.2414  0.0646
 5416TIP3   OH237806   2.559   5.865   1.867  0.2642 -0.3033  0.4183
 5416TIP3    H137807   2.486   5.855   1.805  1.7270  0.0980 -1.4455
 5416TIP3    H237808   2.551   5.955   1.899 -0.7746 -0.6608  1.2254
 5417TIP3   OH237809   3.669   6.010   6.357  0.3010  0.7941 -0.2220
 5417TIP3    H137810   3.736   5.958   6.400  0.4613  1.4415  0.3254
 5417TIP3    H237811   3.703   6.099   6.358 -1.5287  1.5589  2.1494
 5418TIP3   OH237812   6.658   0.269   0.261 -0.3640  0.0382  0.5851
 5418TIP3    H137813   6.734   0.236   0.213 -1.2976 -0.0375 -0.9113
 5418TIP3    H237814   6.695   0.313   0.337  1.2577  0.8109 -0.5848
 5419TIP3   OH237815   0.881   6.028   7.811  0.1334  0.2969  0.1204
 5419TIP3    H137816   0.836   5.946   7.790  1.7805 -0.7114  0.3397
 5419TIP3    H237817   0.841   6.093   7.752 -1.8637 -0.4206  0.6012
 5420TIP3   OH237818   4.755   1.478   8.103  0.8748 -0.3048  0.0299
 5420TIP3    H137819   4.688   1.427   8.148 -1.5447  2.2254 -0.4180
 5420TIP3    H237820   4.786   1.540   8.169  1.2290 -0.0770 -0.3466
 5421TIP3   OH237821   4.463   1.897   7.497 -0.2703  0.0390  0.9736
 5421TIP3    H137822   4.454   1.802   7.504  0.6455  0.0117  1.9977
 5421TIP3    H237823   4.441   1.916   7.406 -0.0680 -1.2028  0.6447
 5422TIP3   OH237824   4.067   4.041   0.164 -0.3737  0.3816  0.4286
 5422TIP3    H137825   4.001   4.106   0.140 -0.5082  0.1194  0.0743
 5422TIP3    H237826   4.022   3.983   0.225 -1.2109 -1.1404 -1.5319
 5423TIP3   OH237827   2.962   3.415   8.058 -0.5030 -0.4876  0.2869
 5423TIP3    H137828   3.022   3.352   8.018  0.7637  0.5262  0.5132
 5423TIP3    H237829   2.920   3.459   7.985 -0.0565 -0.3702  0.0980
 5424TIP3   OH237830   4.232   2.141   8.256 -0.1734  0.0491  0.4812
 5424TIP3    H137831   4.325   2.160   8.244 -0.3988  1.1754  0.4299
 5424TIP3    H237832   4.209   2.085   8.181  0.2911  0.3829  0.0878
 5425TIP3   OH237833   4.018   3.085   7.814 -0.3573  0.0424 -0.2400
 5425TIP3    H137834   4.093   3.053   7.764  0.8572 -0.4148  1.7603
 5425TIP3    H237835   4.045   3.170   7.847  0.0365 -0.8698  1.9453
 5426TIP3   OH237836   4.544   0.249   1.049  0.2109  0.4686 -0.6299
 5426TIP3    H137837   4.502   0.227   1.132 -1.9097  0.6408 -1.5909
 5426TIP3    H237838   4.632   0.213   1.056 -1.1022 -3.0429  0.2282
 5427TIP3   OH237839   5.226   6.844   6.990  1.2438  0.4586 -0.1999
 5427TIP3    H137840   5.302   6.834   7.047  0.8395  0.5842  0.3739
 5427TIP3    H237841   5.153   6.812   7.043  0.7666  1.2035 -0.4041
 5428TIP3   OH237842   3.974   2.012   0.363  0.2356  0.3331 -0.1220
 5428TIP3    H137843   4.008   2.006   0.452 -1.6437  0.6808  0.6504
 5428TIP3    H237844   3.898   1.954   0.361 -0.8481  1.7283 -0.9509
 5429TIP3   OH237845   6.094   5.341   7.339  0.0766 -0.1781 -0.1680
 5429TIP3    H137846   6.156   5.401   7.296  1.1620 -1.7097 -0.8855
 5429TIP3    H237847   6.133   5.324   7.425 -0.1259  0.0151 -0.0402
 5430TIP3   OH237848   4.148   5.118   2.009 -0.2869  0.0922 -0.1270
 5430TIP3    H137849   4.114   5.206   2.027 -0.9080 -0.1434 -0.1432
 5430TIP3    H237850   4.182   5.089   2.094  1.3581  0.9497 -0.4435
 5431TIP3   OH237851   1.647   5.122   1.686 -0.5673  0.2168  0.2334
 5431TIP3    H137852   1.677   5.197   1.635 -0.6825  1.2718  1.6397
 5431TIP3    H237853   1.725   5.068   1.697 -0.5969 -0.1711 -1.2262
 5432TIP3   OH237854   2.600   4.366   6.906 -0.3077 -0.4375 -0.4691
 5432TIP3    H137855   2.593   4.293   6.968 -0.8021 -1.2654 -1.4687
 5432TIP3    H237856   2.509   4.391   6.887 -0.1452  0.6967  0.1282
 5433TIP3   OH237857   4.934   3.351   7.945  0.4019  0.5757  0.0386
 5433TIP3    H137858   4.980   3.416   7.892 -2.8697  2.0047 -1.3111
 5433TIP3    H237859   4.904   3.285   7.882  1.8443 -1.1949  1.1105
 5434TIP3   OH237860   3.215   4.509   2.036  0.5117 -0.0124  0.0401
 5434TIP3    H137861   3.258   4.426   2.057  0.4375  0.0892  0.6144
 5434TIP3    H237862   3.133   4.482   1.993  0.2166 -0.2670  0.7296
 5435TIP3   OH237863   3.610   2.760   6.416  0.1685  0.0312 -0.0871
 5435TIP3    H137864   3.645   2.722   6.496 -1.4240 -1.9107 -0.2357
 5435TIP3    H237865   3.647   2.706   6.346 -1.6646 -0.9851 -0.3419
 5436TIP3   OH237866   0.070   0.124   8.232 -0.2394  0.0981  0.3672
 5436TIP3    H137867  -0.019   0.091   8.221 -0.3474  0.7831 -1.0726
 5436TIP3    H237868   0.060   0.219   8.239  0.3766  0.1781  0.2630
 5437TIP3   OH237869   5.565   6.319   0.915 -0.1859 -0.3329  0.2125
 5437TIP3    H137870   5.577   6.385   0.847 -0.1845 -0.2669  0.2773
 5437TIP3    H237871   5.501   6.258   0.878  2.7475 -2.6386 -1.6288
 5438TIP3   OH237872   2.504   2.819   7.527  0.3149 -1.0105  0.4372
 5438TIP3    H137873   2.530   2.851   7.614  3.8832 -2.1551 -0.0412
 5438TIP3    H237874   2.470   2.896   7.482  0.5458  0.1129  2.0912
 5439TIP3   OH237875   0.394   5.583   7.966  0.0935  0.0500  0.2130
 5439TIP3    H137876   0.373   5.601   7.875  0.2296 -0.8151 -0.0005
 5439TIP3    H237877   0.323   5.622   8.016  0.0308  0.5499 -0.2641
 5440TIP3   OH237878   4.768   4.190   1.800  0.2503 -0.2193  0.3150
 5440TIP3    H137879   4.790   4.262   1.859  1.3531 -0.2968  0.0126
 5440TIP3    H237880   4.799   4.219   1.714 -0.0786 -0.6983  0.0312
 5441TIP3   OH237881   5.811   1.781   0.723 -0.5611 -0.3442  0.1092
 5441TIP3    H137882   5.779   1.804   0.811  0.8438  0.5648  0.4057
 5441TIP3    H237883   5.734   1.788   0.667 -0.9123  1.7937  0.7963
 5442TIP3   OH237884   6.425   1.030   0.616  0.1233 -0.6042 -0.4694
 5442TIP3    H137885   6.515   1.056   0.597  0.5422 -2.1481 -0.7184
 5442TIP3    H237886   6.411   1.057   0.707  1.5534 -2.1613  0.2574
 5443TIP3   OH237887   6.116   1.763   8.359  0.1158 -1.0702  0.0187
 5443TIP3    H137888   6.089   1.781   8.449  0.8590  1.4232 -0.1898
 5443TIP3    H237889   6.145   1.847   8.325 -1.3544 -1.6461 -3.0188
 5444TIP3   OH237890   3.475   6.644   1.721 -0.2738 -0.0452  0.2497
 5444TIP3    H137891   3.567   6.662   1.738 -0.0458  0.0773 -1.0171
 5444TIP3    H237892   3.455   6.567   1.775  0.9986 -1.0268 -0.6064
 5445TIP3   OH237893   2.594   0.197   0.456 -0.8011  0.0193 -0.2257
 5445TIP3    H137894   2.639   0.141   0.520 -2.3882  0.6227  1.5494
 5445TIP3    H237895   2.642   0.185   0.375  1.1542 -1.0426  1.0042
 5446TIP3   OH237896   5.219   5.611   7.070  0.1719 -0.9025 -0.2461
 5446TIP3    H137897   5.241   5.700   7.099  0.6110 -0.9935 -0.2793
 5446TIP3    H237898   5.299   5.580   7.027  0.1081 -1.4024 -0.0162
 5447TIP3   OH237899   1.108   1.571   0.920  0.3297  0.0035  0.1166
 5447TIP3    H137900   1.167   1.542   0.990  1.2596  0.5788 -0.4078
 5447TIP3    H237901   1.051   1.495   0.904 -0.2383  0.0193  1.8132
 5448TIP3   OH237902   3.153   3.698   6.289  0.5263  0.0009 -0.1801
 5448TIP3    H137903   3.104   3.765   6.240  0.7032  0.3468  0.1111
 5448TIP3    H237904   3.091   3.626   6.301  0.2972  0.1614 -0.3946
 5449TIP3   OH237905   6.220   6.349   6.054  0.1976  0.1039 -0.0137
 5449TIP3    H137906   6.280   6.284   6.090  0.4703  0.5234  0.3035
 5449TIP3    H237907   6.168   6.301   5.990 -0.9067 -0.8938  1.5518
 5450TIP3   OH237908   3.646   6.459   7.660 -0.0387 -0.3226  0.2106
 5450TIP3    H137909   3.592   6.384   7.682 -1.2196  0.7042  0.9639
 5450TIP3    H237910   3.735   6.434   7.687 -0.7519 -0.6706  2.4648
 5451TIP3   OH237911   3.826   1.069   1.993  0.0126 -0.7344  0.2753
 5451TIP3    H137912   3.740   1.049   1.956 -0.9428  0.7336  1.5740
 5451TIP3    H237913   3.845   0.995   2.050 -1.1826 -0.3307  1.2436
 5452TIP3   OH237914   6.293   1.148   8.010 -0.8184 -0.6043  0.3352
 5452TIP3    H137915   6.276   1.069   8.062 -0.5408  0.0104  1.3706
 5452TIP3    H237916   6.376   1.129   7.965 -1.6969 -1.6429 -0.9038
 5453TIP3   OH237917   2.226   1.572   0.670 -0.0508 -0.0466  0.4812
 5453TIP3    H137918   2.162   1.501   0.670  0.7143 -0.7468 -0.4369
 5453TIP3    H237919   2.230   1.600   0.762  0.5679 -2.0375  1.1059
 5454TIP3   OH237920   0.594   1.959   6.456 -0.0667  0.2359  0.1730
 5454TIP3    H137921   0.592   1.867   6.430  0.6325  0.3738 -0.3914
 5454TIP3    H237922   0.592   2.007   6.373  2.6066  0.6829  0.2815
 5455TIP3   OH237923   0.911   5.049   0.926 -0.3238  0.1618 -0.0201
 5455TIP3    H137924   0.996   5.023   0.890  0.3220 -0.8947  2.0729
 5455TIP3    H237925   0.878   4.969   0.968 -1.0392  1.2564  1.5857
 5456TIP3   OH237926   5.536   2.836   1.193  0.7729  0.0730 -0.4180
 5456TIP3    H137927   5.579   2.841   1.278  1.6551 -0.0077 -0.8476
 5456TIP3    H237928   5.555   2.747   1.162  0.6181  0.1633 -0.7761
 5457TIP3   OH237929   4.705   4.337   6.657 -0.0573  0.4118 -0.2570
 5457TIP3    H137930   4.716   4.315   6.749  0.4658 -0.2008 -0.4556
 5457TIP3    H237931   4.663   4.423   6.657 -1.4495 -0.2261  0.5686
 5458TIP3   OH237932   4.248   4.519   6.083 -0.2989 -0.3131 -0.5659
 5458TIP3    H137933   4.255   4.611   6.107 -1.0274 -1.0057  2.7681
 5458TIP3    H237934   4.332   4.481   6.106 -1.4094 -1.2305  2.5570
 5459TIP3   OH237935   3.302   3.761   0.983  0.1570  0.7599 -0.1000
 5459TIP3    H137936   3.339   3.685   0.939 -1.1058 -0.4226  0.8185
 5459TIP3    H237937   3.247   3.803   0.916  0.1283  0.3357 -0.3416
 5460TIP3   OH237938   2.457   2.175   6.474 -0.4568 -0.1611 -0.1417
 5460TIP3    H137939   2.528   2.239   6.471  0.1107 -0.7766 -0.1410
 5460TIP3    H237940   2.477   2.121   6.551 -2.2964  1.1915  1.3861
 5461TIP3   OH237941   4.649   5.699   8.292 -0.1015 -0.3332 -0.1143
 5461TIP3    H137942   4.616   5.609   8.293  1.9877 -1.1675  1.1724
 5461TIP3    H237943   4.680   5.714   8.381  1.0690  1.0911 -0.7228
 5462TIP3   OH237944   3.884   1.533   1.295 -0.5542  0.5754 -0.1327
 5462TIP3    H137945   3.884   1.547   1.390 -1.0434 -1.0007  0.1353
 5462TIP3    H237946   3.973   1.556   1.268  0.7940 -2.3408  1.3343
 5463TIP3   OH237947   0.078   0.602   6.701  0.3786 -1.0357  0.3501
 5463TIP3    H137948   0.085   0.659   6.625 -1.7884  0.0158  0.8665
 5463TIP3    H237949   0.158   0.619   6.751 -0.3124  1.8337  0.6382
 5464TIP3   OH237950   6.599   2.498   0.643 -0.3014  0.3023 -0.5182
 5464TIP3    H137951   6.537   2.488   0.571 -0.9656  1.7336 -0.1958
 5464TIP3    H237952   6.563   2.570   0.695  0.8807  0.2000  0.4889
 5465TIP3   OH237953   2.434   4.864   6.630  0.0494  0.8378  0.1796
 5465TIP3    H137954   2.427   4.817   6.548 -0.1640  1.5412 -0.2141
 5465TIP3    H237955   2.385   4.945   6.616 -0.0290  0.9464  1.0110
 5466TIP3   OH237956   3.235   1.843   7.671  0.3924  0.1098 -0.1145
 5466TIP3    H137957   3.190   1.920   7.707  2.6226  0.7834  1.5087
 5466TIP3    H237958   3.233   1.779   7.742 -0.3640 -0.8937 -1.0164
 5467TIP3   OH237959   5.742   6.297   1.123  0.1120 -0.1517  0.0938
 5467TIP3    H137960   5.759   6.209   1.156  0.4446 -0.3929 -0.7009
 5467TIP3    H237961   5.671   6.287   1.060  0.2955  0.1172 -0.1597
 5468TIP3   OH237962   2.669   2.709   6.792 -0.3946  0.4750  0.0432
 5468TIP3    H137963   2.683   2.779   6.728  0.3499 -0.6421 -1.0615
 5468TIP3    H237964   2.681   2.628   6.742 -1.3533 -0.4573  1.2578
 5469TIP3   OH237965   1.051   0.434   7.177 -0.1371 -0.4546  0.4136
 5469TIP3    H137966   1.064   0.480   7.261 -0.6842 -0.2175  0.3726
 5469TIP3    H237967   1.044   0.504   7.112 -0.8706 -0.5933  0.3354
 5470TIP3   OH237968   6.855   1.157   0.244  0.8591 -0.2179 -0.1505
 5470TIP3    H137969   6.915   1.209   0.190 -1.5814  2.0705 -0.8842
 5470TIP3    H237970   6.858   1.199   0.330  0.8645 -0.5694  0.0225
 5471TIP3   OH237971   6.664   0.009   0.026 -0.0583 -0.1500  0.6740
 5471TIP3    H137972   6.570   0.022   0.038  0.1913  0.7695  1.7517
 5471TIP3    H237973   6.692   0.084  -0.026  0.5388  1.1663  2.7693
 5472TIP3   OH237974   6.589   2.756   0.380 -0.1228 -0.0138 -0.7963
 5472TIP3    H137975   6.625   2.784   0.465  0.9627 -0.6334 -1.0302
 5472TIP3    H237976   6.503   2.798   0.375  0.4065  1.2101 -0.0358
 5473TIP3   OH237977   3.415   0.909   7.527  1.2734  0.1932  0.3824
 5473TIP3    H137978   3.468   0.958   7.464 -2.2998  1.1915 -2.1422
 5473TIP3    H237979   3.398   0.825   7.484 -1.4299  0.9872 -0.3036
 5474TIP3   OH237980   5.996   0.850   6.308  0.2267 -0.7664  0.1469
 5474TIP3    H137981   6.083   0.817   6.331  1.0087 -0.1557 -1.6664
 5474TIP3    H237982   6.008   0.887   6.220 -2.1170 -1.6663 -0.6397
 5475TIP3   OH237983   6.610   4.917   8.305 -0.3456 -0.6275  0.4134
 5475TIP3    H137984   6.611   5.006   8.340  1.0536 -0.3018 -0.3943
 5475TIP3    H237985   6.647   4.863   8.375 -2.4311 -0.8363  1.4395
 5476TIP3   OH237986   2.544   3.002   1.728 -0.1279  0.2254  0.2512
 5476TIP3    H137987   2.519   2.976   1.817 -1.8233 -0.3701 -0.3579
 5476TIP3    H237988   2.638   3.020   1.734 -0.3888  1.1891  2.3817
 5477TIP3   OH237989   1.955   3.519   1.054 -0.0199 -0.1419 -0.8276
 5477TIP3    H137990   2.012   3.593   1.032 -1.1321  1.0640  0.1120
 5477TIP3    H237991   1.881   3.528   0.994  0.3630 -1.2130 -1.4904
 5478TIP3   OH237992   0.459   5.183   6.107 -0.5332 -0.0140  0.3711
 5478TIP3    H137993   0.461   5.089   6.122 -1.7478  0.0788  1.2522
 5478TIP3    H237994   0.422   5.220   6.187 -3.2783  0.8730 -1.1649
 5479TIP3   OH237995   6.468   4.494   0.474  0.6591 -0.1449 -0.3730
 5479TIP3    H137996   6.383   4.534   0.455  0.5972 -0.7205 -1.4012
 5479TIP3    H237997   6.446   4.415   0.525  0.7133  0.5556  0.7839
 5480TIP3   OH237998   0.263   1.657   8.212 -0.1955 -0.0860 -0.4342
 5480TIP3    H137999   0.222   1.626   8.131 -0.4540 -1.2906  0.1310
 5480TIP3    H238000   0.202   1.722   8.247 -1.0751 -1.0263 -0.1859
 5481TIP3   OH238001   4.380   6.028   7.225 -0.6628 -0.0685  0.3247
 5481TIP3    H138002   4.364   6.062   7.137  0.7722  0.7529  0.3542
 5481TIP3    H238003   4.398   5.935   7.212 -0.6304  0.0141 -0.2318
 5482TIP3   OH238004   2.464   6.467   0.227  0.3478 -0.1192  0.2616
 5482TIP3    H138005   2.380   6.510   0.211  0.4597 -0.0612 -0.1798
 5482TIP3    H238006   2.522   6.538   0.254  0.6658  0.1113 -0.9477
 5483TIP3   OH238007   2.913   6.601   0.274  0.8312 -0.6035 -0.1207
 5483TIP3    H138008   2.836   6.652   0.246  1.3424 -0.0366 -0.5200
 5483TIP3    H238009   2.938   6.639   0.358  0.9995 -0.4313 -0.2488
 5484TIP3   OH238010   4.079   0.939   1.332  0.0977  1.0428 -0.7151
 5484TIP3    H138011   4.141   1.007   1.303  0.0776  1.0455 -0.7521
 5484TIP3    H238012   4.021   0.927   1.257  2.5301 -1.9105 -2.3749
 5485TIP3   OH238013   5.979   6.315   1.428 -0.5951 -0.1644 -0.2113
 5485TIP3    H138014   6.067   6.278   1.441 -0.5631 -0.2412 -0.6216
 5485TIP3    H238015   5.979   6.345   1.337 -0.7429  0.5269  0.0091
 5486TIP3   OH238016   0.107   1.470   7.662 -0.6596 -0.4816  0.3878
 5486TIP3    H138017   0.175   1.503   7.721  0.1096  0.2307 -0.8491
 5486TIP3    H238018   0.025   1.493   7.705 -0.2389 -3.3171  3.0219
 5487TIP3   OH238019   1.516   5.763   7.529  0.1253  0.6346  0.6252
 5487TIP3    H138020   1.421   5.767   7.541 -0.0037 -0.1087  0.0162
 5487TIP3    H238021   1.527   5.712   7.448  1.0815 -1.8115  2.1592
 5488TIP3   OH238022   4.727   6.023   0.725 -0.2690 -0.3988  0.2636
 5488TIP3    H138023   4.633   6.011   0.743 -0.3730 -0.0457 -0.0310
 5488TIP3    H238024   4.747   6.111   0.758  0.2131 -0.8886  1.3172
 5489TIP3   OH238025   0.490   1.123   1.118 -0.2377 -0.0084 -0.6159
 5489TIP3    H138026   0.425   1.186   1.087 -0.1997 -0.6681 -2.1635
 5489TIP3    H238027   0.525   1.085   1.037  0.4674 -1.2594  0.2589
 5490TIP3   OH238028   2.183   2.119   1.205  0.5605  0.7349 -0.0767
 5490TIP3    H138029   2.228   2.141   1.287  1.2851  0.4061 -0.3800
 5490TIP3    H238030   2.196   2.195   1.149  0.1616  0.9127  0.0658
 5491TIP3   OH238031   2.735   2.405   6.997  0.0281  0.1243  0.2390
 5491TIP3    H138032   2.661   2.397   6.937 -0.0877 -0.4488  0.4520
 5491TIP3    H238033   2.766   2.495   6.986 -0.6014  0.3166  0.0342
 5492TIP3   OH238034   2.955   4.022   7.102  0.0176 -0.4061 -0.0443
 5492TIP3    H138035   3.024   3.971   7.145 -1.6685 -1.1664  1.9207
 5492TIP3    H238036   2.885   3.959   7.087 -1.1694  0.8289  0.1805
 5493TIP3   OH238037   2.337   4.075   0.271  0.0216  0.1013  0.3613
 5493TIP3    H138038   2.301   4.048   0.355 -3.2095 -0.0283 -0.9415
 5493TIP3    H238039   2.326   3.998   0.215 -0.2156  0.9728 -0.8285
 5494TIP3   OH238040   1.912   0.985   7.044 -0.7284 -0.5156  0.1743
 5494TIP3    H138041   1.937   0.995   7.136  0.3466 -2.2650  0.1089
 5494TIP3    H238042   1.822   1.020   7.040 -0.0595  1.5411  1.3976
 5495TIP3   OH238043   4.911   4.977   6.571 -0.2135 -0.7213  0.2221
 5495TIP3    H138044   4.841   4.942   6.517 -1.5480 -0.8230  1.9123
 5495TIP3    H238045   4.905   4.928   6.653  0.2774  0.8884  1.2718
 5496TIP3   OH238046   6.830   2.080   7.967  0.0371 -0.1207 -0.3002
 5496TIP3    H138047   6.881   2.109   7.892  2.7220 -0.2003  1.3705
 5496TIP3    H238048   6.765   2.150   7.980 -0.1204  0.1600 -2.2669
 5497TIP3   OH238049   5.581   1.360   0.028 -0.4446 -0.5187 -0.1233
 5497TIP3    H138050   5.665   1.400   0.009 -0.9255  1.2321  1.2071
 5497TIP3    H238051   5.564   1.303  -0.047  1.4146 -0.0964 -0.9117
 5498TIP3   OH238052   1.195   6.065   7.010 -0.4500 -0.0152  0.4303
 5498TIP3    H138053   1.234   5.981   7.036 -1.8815 -0.0676  2.7432
 5498TIP3    H238054   1.222   6.126   7.079 -1.1818  0.8854 -0.0634
 5499TIP3   OH238055   0.546   2.597   7.822  0.2511 -0.2901 -0.0697
 5499TIP3    H138056   0.480   2.543   7.865  0.0401  0.0703  0.0658
 5499TIP3    H238057   0.618   2.537   7.804  0.1344 -0.5578  0.3288
 5500TIP3   OH238058   5.655   5.029   6.896 -0.8951  0.3849  0.0172
 5500TIP3    H138059   5.653   5.125   6.895  0.3361  0.4363 -2.0687
 5500TIP3    H238060   5.566   5.003   6.872 -1.6332  0.9398  1.9665
 5501TIP3   OH238061   0.687   4.892   1.436 -0.1873 -0.7334 -0.1441
 5501TIP3    H138062   0.617   4.838   1.472 -0.6059 -1.8203 -2.4209
 5501TIP3    H238063   0.742   4.831   1.387  0.1133  0.6799 -1.6608
 5502TIP3   OH238064   5.094   5.670   6.670 -0.4358 -0.0815  0.0444
 5502TIP3    H138065   5.051   5.643   6.589 -1.5439 -1.0460  0.9082
 5502TIP3    H238066   5.075   5.598   6.731 -0.4359  1.0610  1.4243
 5503TIP3   OH238067   2.727   0.202   0.206  0.0727  0.4542  0.5214
 5503TIP3    H138068   2.641   0.224   0.171 -0.1651 -0.3776  0.5640
 5503TIP3    H238069   2.783   0.276   0.181 -0.3252  0.3629 -0.7352
 5504TIP3   OH238070   1.998   3.663   6.415 -0.0686 -0.0956  0.7001
 5504TIP3    H138071   2.073   3.664   6.475  2.2719 -1.5211 -1.9925
 5504TIP3    H238072   1.968   3.754   6.412  0.8631  0.3170  2.6143
 5505TIP3   OH238073   1.384   1.794   7.238 -0.0684 -0.3929 -0.5968
 5505TIP3    H138074   1.369   1.741   7.160  0.9909 -0.3535 -0.8500
 5505TIP3    H238075   1.297   1.811   7.274 -0.5380 -0.7376 -1.5532
 5506TIP3   OH238076   6.277   3.389   5.945 -0.1300 -0.5449 -0.4586
 5506TIP3    H138077   6.284   3.444   6.023 -0.2305  0.8604 -1.3990
 5506TIP3    H238078   6.367   3.359   5.929  0.2347  0.6985 -0.8464
 5507TIP3   OH238079   4.914   5.904   7.194 -0.0759 -0.4332  0.7922
 5507TIP3    H138080   4.877   5.818   7.176  0.9844 -0.8557  0.5708
 5507TIP3    H238081   4.937   5.902   7.287  2.2185 -1.3261  0.2828
 5508TIP3   OH238082   2.231   5.634   1.289  0.1999 -0.7489  0.6918
 5508TIP3    H138083   2.215   5.565   1.225 -3.2696 -1.3661  1.9515
 5508TIP3    H238084   2.302   5.600   1.343  3.4692 -0.0533 -2.8018
 5509TIP3   OH238085   2.036   5.655   0.075  0.0661  0.2031 -0.0195
 5509TIP3    H138086   2.099   5.687   0.140 -1.6026  1.2850  1.1757
 5509TIP3    H238087   2.000   5.575   0.114 -2.5188  1.9752  1.6308
 5510TIP3   OH238088   3.214   2.060   7.296  0.1989 -0.4009 -0.4798
 5510TIP3    H138089   3.245   1.975   7.265  1.2568 -0.2878  0.2220
 5510TIP3    H238090   3.267   2.078   7.374 -1.6767 -0.2245  0.8215
 5511TIP3   OH238091   1.935   6.381   0.019  0.0755 -0.3426  0.3627
 5511TIP3    H138092   1.916   6.341  -0.066 -2.1136  1.6371 -0.2020
 5511TIP3    H238093   1.937   6.475   0.000 -1.3464  0.2028  2.6158
 5512TIP3   OH238094   2.896   4.164   7.874 -0.1374 -0.6350 -0.7657
 5512TIP3    H138095   2.867   4.140   7.786 -1.5466  1.6346 -0.9930
 5512TIP3    H238096   2.820   4.143   7.930  0.1940 -0.6536 -0.3198
 5513TIP3   OH238097   3.008   4.818   0.151  0.2374  0.2507 -0.1572
 5513TIP3    H138098   3.052   4.812   0.235  0.7597  2.1669 -0.2426
 5513TIP3    H238099   3.027   4.735   0.107  1.7660  0.0855  0.7640
 5514TIP3   OH238100   1.501   1.560   0.948  0.5567 -0.5942 -0.2744
 5514TIP3    H138101   1.555   1.635   0.969 -0.5854 -0.0543  0.8904
 5514TIP3    H238102   1.520   1.496   1.018  0.3543 -0.7495 -0.3602
 5515TIP3   OH238103   4.149   0.787   7.245  0.1369  0.5140 -0.8372
 5515TIP3    H138104   4.222   0.741   7.287  0.6924  1.1965 -1.0406
 5515TIP3    H238105   4.117   0.848   7.311 -0.1741  0.2998 -0.7887
 5516TIP3   OH238106   5.660   2.799   7.877  0.2557  0.1902  0.2718
 5516TIP3    H138107   5.569   2.813   7.903 -1.2401 -1.1761 -3.5551
 5516TIP3    H238108   5.676   2.707   7.895  1.0274  0.4817  1.1652
 5517TIP3   OH238109   2.566   0.220   7.548  0.1139 -0.1338  0.7710
 5517TIP3    H138110   2.536   0.182   7.466 -0.6636  2.6687 -0.3654
 5517TIP3    H238111   2.491   0.213   7.607  0.2401 -0.9956  0.8377
 5518TIP3   OH238112   6.728   6.117   7.766 -0.5872  0.2827  0.1843
 5518TIP3    H138113   6.705   6.199   7.723  1.2439  0.0463 -1.3307
 5518TIP3    H238114   6.647   6.090   7.810 -0.8856  3.5859  1.9673
 5519TIP3   OH238115   2.793   5.722   1.495  0.3514 -0.1183 -0.6991
 5519TIP3    H138116   2.888   5.719   1.482  0.3781  1.4982 -1.0722
 5519TIP3    H238117   2.771   5.638   1.536  1.8790 -0.6745 -0.9872
 5520TIP3   OH238118   0.276   3.846   0.058 -0.8056  0.3618  0.0142
 5520TIP3    H138119   0.198   3.804   0.023 -0.1306 -3.1656  2.2581
 5520TIP3    H238120   0.346   3.825  -0.004 -1.2539  2.1996 -1.1891
 5521TIP3   OH238121   2.889   2.188   0.115 -0.5628  0.1869  0.0602
 5521TIP3    H138122   2.940   2.109   0.130  1.0659  1.1626 -0.0614
 5521TIP3    H238123   2.875   2.190   0.020 -0.4658  0.1243  0.0444
 5522TIP3   OH238124   3.674   5.994   0.346 -0.3730  0.0632  0.3276
 5522TIP3    H138125   3.713   6.071   0.304  1.1388 -0.4492  0.7059
 5522TIP3    H238126   3.630   5.947   0.275 -1.1799  1.1798  0.0674
 5523TIP3   OH238127   3.956   4.168   6.421  0.2973  0.1705 -0.2753
 5523TIP3    H138128   3.872   4.193   6.382 -0.4375 -2.0575 -0.2641
 5523TIP3    H238129   4.009   4.138   6.346  1.0176  1.2790 -0.2416
 5524TIP3   OH238130   0.608   3.417   1.832 -0.2476  0.1215 -0.2407
 5524TIP3    H138131   0.654   3.369   1.900 -0.1411  1.3323  0.5802
 5524TIP3    H238132   0.667   3.414   1.756  1.3472  1.7746  0.8310
 5525TIP3   OH238133   0.654   4.075   8.387  0.1411 -0.5240 -0.3592
 5525TIP3    H138134   0.667   4.147   8.449 -0.3543  0.0877 -0.9560
 5525TIP3    H238135   0.742   4.055   8.354  0.3951 -0.8020  0.4762
 5526TIP3   OH238136   2.008   4.483   1.405 -0.3035  0.1174 -0.0808
 5526TIP3    H138137   2.088   4.523   1.438 -0.1615  0.3480 -0.7073
 5526TIP3    H238138   1.998   4.517   1.316 -0.3947 -0.9184 -0.4845
 5527TIP3   OH238139   4.926   1.499   1.147 -0.4241  0.3895  0.4056
 5527TIP3    H138140   4.984   1.499   1.071  0.2935 -1.9910  0.8863
 5527TIP3    H238141   4.863   1.430   1.129 -0.9228  0.5382  1.5014
 5528TIP3   OH238142   0.446   5.155   0.788  0.8159  0.7108 -0.4667
 5528TIP3    H138143   0.523   5.103   0.807  0.6978  0.8098  0.3008
 5528TIP3    H238144   0.448   5.167   0.693  0.4425 -1.3017 -0.7746
 5529TIP3   OH238145   2.345   0.216   1.477  0.4687  0.0797  0.7489
 5529TIP3    H138146   2.384   0.303   1.478 -1.3887  0.9481  1.0755
 5529TIP3    H238147   2.303   0.207   1.563 -1.0056 -0.3361  0.0169
 5530TIP3   OH238148   5.552   3.640   1.019  0.2209  0.0189 -0.8127
 5530TIP3    H138149   5.556   3.559   1.069 -0.9384  1.1936  1.3219
 5530TIP3    H238150   5.643   3.668   1.010  0.5113 -0.7161 -0.2089
 5531TIP3   OH238151   3.335   4.909   1.693 -0.5675 -0.0927 -0.0209
 5531TIP3    H138152   3.250   4.899   1.735 -1.2416 -1.0393 -1.5151
 5531TIP3    H238153   3.395   4.861   1.749 -0.7473  1.5625  1.6839
 5532TIP3   OH238154   3.132   3.366   0.705 -0.0552  0.0982 -0.2650
 5532TIP3    H138155   3.059   3.344   0.763 -0.1062 -0.9106 -0.6791
 5532TIP3    H238156   3.118   3.457   0.681 -1.3007 -0.1356 -0.4879
 5533TIP3   OH238157   4.369   1.127   8.013  0.3525 -0.2424 -0.5779
 5533TIP3    H138158   4.375   1.109   7.919 -0.5095 -1.0058 -0.4970
 5533TIP3    H238159   4.294   1.185   8.022  0.4698 -0.1213 -0.3652
 5534TIP3   OH238160   2.677   6.075   0.268  1.0057  0.1211 -0.5020
 5534TIP3    H138161   2.673   5.988   0.308 -0.3413  0.8106  0.9864
 5534TIP3    H238162   2.603   6.123   0.307  1.6216  1.8871 -1.3883
 5535TIP3   OH238163   3.833   2.051   2.647 -0.0040  0.4522  0.6509
 5535TIP3    H138164   3.766   2.070   2.713 -1.7390  0.1664 -0.9314
 5535TIP3    H238165   3.799   1.975   2.600  1.2807  0.5249 -0.4442
 5536TIP3   OH238166   3.794   4.385   6.051  0.0331  0.8218  0.0075
 5536TIP3    H138167   3.808   4.474   6.082  0.6815  0.6814  0.1287
 5536TIP3    H238168   3.880   4.355   6.022 -0.2810  0.4214 -0.5356
 5537TIP3   OH238169   5.958   1.249   7.326  0.6286  0.0619 -1.1252
 5537TIP3    H138170   6.042   1.275   7.364  0.2146  1.7173 -1.2633
 5537TIP3    H238171   5.937   1.166   7.369  0.7208  1.2748  1.4904
 5538TIP3   OH238172   3.180   2.633   7.924 -0.0716  0.4259  0.1009
 5538TIP3    H138173   3.184   2.543   7.957  1.0839 -0.2116 -1.6531
 5538TIP3    H238174   3.208   2.686   7.998  0.5424 -0.7710  0.7601
 5539TIP3   OH238175   4.405   1.359   1.417 -0.5673  0.1693  0.2548
 5539TIP3    H138176   4.456   1.432   1.452 -1.3930  1.0068 -0.2517
 5539TIP3    H238177   4.448   1.281   1.453  0.3734  0.8872  0.7494
 5540TIP3   OH238178   1.063   4.890   8.406  0.1843  0.1376  0.0816
 5540TIP3    H138179   1.086   4.979   8.379  0.4631 -0.0094 -0.1726
 5540TIP3    H238180   1.145   4.853   8.438  0.1606 -0.1726 -0.2122
 5541TIP3   OH238181   2.114   0.163   7.153 -0.3671  0.3422  0.3308
 5541TIP3    H138182   2.152   0.224   7.216 -0.0042  0.3742  0.0884
 5541TIP3    H238183   2.169   0.172   7.075 -1.1210  0.6729 -0.1714
 5542TIP3   OH238184   5.163   4.314   2.528 -0.7128 -0.6950  0.6611
 5542TIP3    H138185   5.237   4.260   2.554 -0.7444 -0.4164  1.3488
 5542TIP3    H238186   5.199   4.375   2.464 -1.0362 -2.6170 -1.4719
 5543TIP3   OH238187   3.344   6.268   0.450 -0.5357  0.5026  0.0553
 5543TIP3    H138188   3.423   6.322   0.441 -1.1517  1.2402 -1.1544
 5543TIP3    H238189   3.370   6.182   0.416  0.3987  0.0170  1.8312
 5544TIP3   OH238190   5.287   2.801   7.183  0.3432 -0.1801  0.1018
 5544TIP3    H138191   5.285   2.844   7.268 -0.9588  1.5777 -0.7397
 5544TIP3    H238192   5.358   2.844   7.136 -0.7935  0.9655 -0.6532
 5545TIP3   OH238193   1.359   5.992   1.378 -0.1824 -0.0731  0.6497
 5545TIP3    H138194   1.356   5.932   1.452  0.7746  0.2314  0.9532
 5545TIP3    H238195   1.422   5.953   1.318 -0.4113  0.0531  0.3206
 5546TIP3   OH238196   3.355   5.479   1.450  0.5489  0.1432  0.4322
 5546TIP3    H138197   3.386   5.518   1.368  1.0170  0.2593  0.6618
 5546TIP3    H238198   3.394   5.533   1.519 -0.7222  0.7204  0.7274
 5547TIP3   OH238199   3.140   0.725   2.044  0.3131 -0.6678 -0.2934
 5547TIP3    H138200   3.188   0.718   1.962 -0.1774  2.3392 -0.9429
 5547TIP3    H238201   3.202   0.767   2.104 -0.4404  0.4027 -0.2301
 5548TIP3   OH238202   2.220   2.863   7.851  0.9159 -0.0635  0.6156
 5548TIP3    H138203   2.247   2.955   7.848 -0.8261  0.4828  0.8398
 5548TIP3    H238204   2.265   2.828   7.928  1.8187  0.5032  0.3673
 5549TIP3   OH238205   5.182   6.459   7.518 -0.1332 -0.2492 -0.0191
 5549TIP3    H138206   5.224   6.451   7.603  0.7078 -0.1941 -0.4215
 5549TIP3    H238207   5.137   6.375   7.504 -0.6495 -0.0930  0.6653
 5550TIP3   OH238208   4.910   2.713   0.037 -0.3035  0.0479  0.5958
 5550TIP3    H138209   5.002   2.705   0.063 -0.1219 -0.6251 -0.1969
 5550TIP3    H238210   4.909   2.785  -0.026  0.3227 -1.9988 -1.9610
 5551TIP3   OH238211   4.941   4.738   0.970  0.2117  0.2806 -0.7509
 5551TIP3    H138212   5.031   4.721   0.944  0.8082 -0.1483  1.4203
 5551TIP3    H238213   4.948   4.784   1.054 -1.5824  0.7271 -0.7996
 5552TIP3   OH238214   0.997   5.141   7.502 -0.5105  0.5248  0.3460
 5552TIP3    H138215   1.040   5.068   7.457 -1.3357 -0.5159  1.2233
 5552TIP3    H238216   1.000   5.212   7.438 -1.0764 -0.7246 -1.1401
 5553TIP3   OH238217   6.216   3.101   1.696 -0.4687 -0.2480  0.0318
 5553TIP3    H138218   6.232   3.007   1.701 -1.7745 -0.4699  0.3040
 5553TIP3    H238219   6.132   3.114   1.740 -0.7629  0.9261 -0.8316
 5554TIP3   OH238220   2.396   1.684   0.020 -0.1543 -0.3478  0.3866
 5554TIP3    H138221   2.309   1.693  -0.021  0.3019 -1.7681 -1.0020
 5554TIP3    H238222   2.394   1.597   0.060  0.0662  0.2935  1.8277
 5555TIP3   OH238223   4.230   6.739   2.293 -0.0810  0.3080 -0.1370
 5555TIP3    H138224   4.193   6.788   2.220  1.1662  0.9335 -0.3629
 5555TIP3    H238225   4.269   6.661   2.253  3.4237  2.1413 -0.6735
 5556TIP3   OH238226   2.017   0.966   7.306 -0.4594 -0.1535  0.0355
 5556TIP3    H138227   2.095   0.912   7.304  0.0695  0.5411  1.0390
 5556TIP3    H238228   1.958   0.921   7.367 -0.3717 -0.0526  0.1935
 5557TIP3   OH238229   1.133   3.479   1.081  0.1945 -0.4633 -0.1213
 5557TIP3    H138230   1.129   3.485   0.985 -0.9205 -0.6043 -0.0933
 5557TIP3    H238231   1.223   3.453   1.099  0.2934 -0.8959 -1.1576
 5558TIP3   OH238232   2.823   3.258   2.215  0.1282 -0.3837 -0.2150
 5558TIP3    H138233   2.749   3.317   2.199  0.1611  0.2795  1.8687
 5558TIP3    H238234   2.893   3.292   2.159 -0.1501  1.0049  0.2398
 5559TIP3   OH238235   4.638   3.118   0.655  0.4492  0.8063 -0.1761
 5559TIP3    H138236   4.544   3.134   0.665  0.4201  1.2499 -1.0411
 5559TIP3    H238237   4.645   3.060   0.580  0.9056  1.4478 -0.6456
 5560TIP3   OH238238   0.861   5.491   1.629 -0.0521 -0.0749  0.6700
 5560TIP3    H138239   0.778   5.475   1.673 -1.5989  2.2305 -1.1692
 5560TIP3    H238240   0.844   5.468   1.537  1.9468 -1.3076  0.5419
 5561TIP3   OH238241   2.376   1.699   1.596  0.0563  0.0646  0.0974
 5561TIP3    H138242   2.363   1.724   1.504  0.5334 -1.7313 -0.5007
 5561TIP3    H238243   2.304   1.740   1.643 -1.2315 -0.4428 -1.3705
 5562TIP3   OH238244   5.130   5.345   2.037  0.1651  0.1244  0.1212
 5562TIP3    H138245   5.044   5.384   2.052 -0.0610 -0.3273  0.0060
 5562TIP3    H238246   5.187   5.388   2.102 -0.4012 -0.4507  1.0295
 5563TIP3   OH238247   0.044   4.949   0.254  0.1360 -0.1753  0.0730
 5563TIP3    H138248   0.047   5.044   0.256 -2.0093 -0.0766  1.3567
 5563TIP3    H238249  -0.048   4.927   0.237  0.3489 -2.0038  0.9545
 5564TIP3   OH238250   1.425   3.847   0.674  0.0173 -0.1670  1.0298
 5564TIP3    H138251   1.503   3.797   0.699 -0.0089  0.4430  2.4072
 5564TIP3    H238252   1.456   3.938   0.669 -0.1113 -0.1739 -0.6707
 5565TIP3   OH238253   0.480   2.691   6.995 -0.4785  0.2102  0.0230
 5565TIP3    H138254   0.525   2.708   7.078 -0.5151  2.1911 -0.3196
 5565TIP3    H238255   0.388   2.705   7.014 -0.5039  0.5081 -0.2992
 5566TIP3   OH238256   4.558   3.272   7.460  0.8217  0.4137  0.3208
 5566TIP3    H138257   4.505   3.350   7.479  2.1071  1.1308  1.1326
 5566TIP3    H238258   4.648   3.305   7.457  1.2513 -0.7931 -0.9140
 5567TIP3   OH238259   2.272   4.688   2.014 -0.2946 -0.0488 -0.2101
 5567TIP3    H138260   2.300   4.603   1.981 -1.1684  0.0258 -1.2086
 5567TIP3    H238261   2.351   4.742   2.012  0.3620 -0.9244  0.8103
 5568TIP3   OH238262   5.325   4.600   0.242  0.1009 -0.2222  0.7905
 5568TIP3    H138263   5.333   4.506   0.221 -2.5399  0.0291 -1.9943
 5568TIP3    H238264   5.238   4.609   0.279  0.7525  1.0423  2.1122
 5569TIP3   OH238265   2.665   6.421   7.143  0.1564 -0.3923 -0.1063
 5569TIP3    H138266   2.728   6.385   7.206  0.2996 -0.8491 -0.5049
 5569TIP3    H238267   2.706   6.501   7.112 -0.9877  1.1881  2.1854
 5570TIP3   OH238268   2.875   6.653   8.053 -0.0322 -0.1033 -0.2288
 5570TIP3    H138269   2.843   6.703   8.129  1.4671 -0.9471  1.0117
 5570TIP3    H238270   2.797   6.608   8.020 -1.0315  1.5196 -0.1971
 5571TIP3   OH238271   5.632   2.606   1.073  0.5686 -0.2210 -1.0695
 5571TIP3    H138272   5.684   2.559   1.138  2.8433  1.2807 -1.6883
 5571TIP3    H238273   5.693   2.625   1.003 -0.3548  3.0831 -1.1295
 5572TIP3   OH238274   6.590   5.358   7.172  0.4963 -0.1246  0.0864
 5572TIP3    H138275   6.605   5.445   7.135 -0.3458  0.5270  1.2217
 5572TIP3    H238276   6.645   5.355   7.250 -0.0461 -0.3102  0.4711
 5573TIP3   OH238277   3.756   1.580   6.728 -0.1160 -0.1479 -0.3291
 5573TIP3    H138278   3.665   1.568   6.701 -0.0120  1.2399 -1.4362
 5573TIP3    H238279   3.807   1.562   6.649  0.5583 -0.6807  0.2168
 5574TIP3   OH238280   2.412   2.011   7.899 -0.1252 -1.3430 -0.6800
 5574TIP3    H138281   2.438   2.030   7.989 -0.1416 -1.3884 -0.6656
 5574TIP3    H238282   2.436   2.090   7.850  0.5512 -1.6032 -0.7711
 5575TIP3   OH238283   1.321   1.682   7.003  0.3311  0.2741 -0.1998
 5575TIP3    H138284   1.228   1.691   6.984  0.2433 -1.9894 -1.1912
 5575TIP3    H238285   1.361   1.670   6.917  1.4707  0.5744  0.2703
 5576TIP3   OH238286   0.546   1.397   6.514 -0.1950 -0.0649 -0.6837
 5576TIP3    H138287   0.630   1.355   6.533 -0.9155 -1.6063 -0.8063
 5576TIP3    H238288   0.491   1.327   6.480 -1.7043  0.8062 -0.1241
 5577TIP3   OH238289   0.619   4.232   7.926 -0.3442  0.2889 -0.6905
 5577TIP3    H138290   0.590   4.168   7.991  0.4229  0.3691 -0.2498
 5577TIP3    H238291   0.714   4.219   7.921  0.0982  2.3897  0.5510
 5578TIP3   OH238292   5.380   2.648   6.441 -0.0413 -0.0320 -0.5367
 5578TIP3    H138293   5.334   2.633   6.359 -1.2642  1.2963 -0.1256
 5578TIP3    H238294   5.450   2.709   6.419 -2.2629  2.8762 -0.1290
 5579TIP3   OH238295   0.312   4.960   7.983  0.2039 -0.5261 -0.3908
 5579TIP3    H138296   0.356   5.043   7.965  0.9033 -0.8525 -0.2527
 5579TIP3    H238297   0.230   4.964   7.935  0.6883 -0.1685 -1.2012
 5580TIP3   OH238298   3.035   0.890   1.232 -0.0303 -0.6623 -0.1372
 5580TIP3    H138299   3.128   0.904   1.212 -0.0002  0.0517  0.4683
 5580TIP3    H238300   2.993   0.882   1.147  0.1643  1.8076 -0.5228
 5581TIP3   OH238301   4.974   2.477   6.180 -0.2060 -0.1353  0.1120
 5581TIP3    H138302   4.979   2.406   6.243 -0.7068 -0.3093 -0.0328
 5581TIP3    H238303   5.022   2.446   6.103 -0.9668 -0.5956 -0.1956
 5582TIP3   OH238304   5.340   1.505   0.144 -0.1822  0.2526  0.0262
 5582TIP3    H138305   5.411   1.442   0.131  0.2052  0.5109  0.8461
 5582TIP3    H238306   5.260   1.453   0.133  0.0972  0.0909 -1.5467
 5583TIP3   OH238307   6.752   0.543   5.959 -0.0405 -0.2683  0.4754
 5583TIP3    H138308   6.720   0.562   6.047 -2.9344  1.8693 -0.8618
 5583TIP3    H238309   6.815   0.613   5.941 -1.9681  1.3520 -0.2678
 5584TIP3   OH238310   2.598   3.451   8.310  0.5032  0.1369 -0.4761
 5584TIP3    H138311   2.610   3.458   8.215 -0.5648  2.2263 -0.5041
 5584TIP3    H238312   2.687   3.443   8.345  0.8614 -4.1892 -1.7598
 5585TIP3   OH238313   3.055   6.413   8.153  0.0682  0.5071 -0.4156
 5585TIP3    H138314   3.009   6.374   8.227  2.1536  0.8104  1.1111
 5585TIP3    H238315   3.054   6.507   8.171 -0.4385  0.7126 -1.4259
 5586TIP3   OH238316   0.122   4.540   8.501  0.4628 -0.0858  0.2144
 5586TIP3    H138317   0.097   4.578   8.585  0.1422 -0.1919  0.1691
 5586TIP3    H238318   0.084   4.452   8.503  0.0005  0.0972 -0.2549
 5587TIP3   OH238319   2.509   5.052   1.261 -0.2229  0.0699 -0.6374
 5587TIP3    H138320   2.460   4.982   1.219 -0.6239 -0.4977  0.7167
 5587TIP3    H238321   2.444   5.097   1.315  0.4941  0.0512  0.2634
 5588TIP3   OH238322   6.523   0.693   1.353  0.4505  0.4710 -0.2933
 5588TIP3    H138323   6.463   0.764   1.331 -0.2889 -0.4538 -1.3897
 5588TIP3    H238324   6.471   0.632   1.405  0.8955  0.4252  0.1017
 5589TIP3   OH238325   3.888   4.729   8.468  0.6442  0.3550 -0.4055
 5589TIP3    H138326   3.799   4.695   8.471 -0.0368  2.0587  0.5000
 5589TIP3    H238327   3.907   4.756   8.558  2.2713 -0.3914 -0.4858
 5590TIP3   OH238328   6.824   0.054   6.531  0.8428 -0.4130 -0.2110
 5590TIP3    H138329   6.774  -0.004   6.589  2.3638 -0.1027  1.5079
 5590TIP3    H238330   6.911   0.016   6.529  2.1124  2.0646  1.5545
 5591TIP3   OH238331   2.763   1.119   0.330 -0.4875 -0.3481  0.1298
 5591TIP3    H138332   2.721   1.149   0.250  0.5128 -1.8943 -1.0306
 5591TIP3    H238333   2.692   1.080   0.382 -0.7523 -1.7901 -1.2399
 5592TIP3   OH238334   2.486   2.160   0.876 -0.0674  0.1668 -0.1142
 5592TIP3    H138335   2.432   2.221   0.825  0.4284  1.6609  1.0569
 5592TIP3    H238336   2.546   2.122   0.813 -0.8089  0.4172 -0.9927
 5593TIP3   OH238337   0.484   1.009   6.542 -0.6023  0.1483 -0.3050
 5593TIP3    H138338   0.467   1.030   6.634 -0.1519 -0.5861 -0.0502
 5593TIP3    H238339   0.397   1.012   6.501 -0.6621  1.6698 -0.1215
 5594TIP3   OH238340   1.005   2.565   7.603  0.0790  0.1555  0.9264
 5594TIP3    H138341   0.995   2.619   7.525  0.0581  0.1793  0.9459
 5594TIP3    H238342   1.100   2.558   7.616  0.1098 -0.6071  0.3713
 5595TIP3   OH238343   6.116   4.884   7.627  0.0460 -0.3633 -0.4258
 5595TIP3    H138344   6.155   4.895   7.714  0.1074  0.9502 -0.6071
 5595TIP3    H238345   6.174   4.822   7.582  2.6302  2.3064 -1.0515
 5596TIP3   OH238346   4.473   2.944   8.002 -0.1450  0.2935  0.7461
 5596TIP3    H138347   4.486   2.876   7.937  1.2707  0.2712  1.0196
 5596TIP3    H238348   4.386   2.926   8.039  0.7204 -2.2141  1.7839
 5597TIP3   OH238349   0.728   0.626   8.011 -0.6756  0.4004  0.0092
 5597TIP3    H138350   0.748   0.678   8.088  0.4603  1.5625 -1.0398
 5597TIP3    H238351   0.678   0.685   7.955 -0.4977 -0.0654 -0.6457
 5598TIP3   OH238352   5.026   1.952   1.581 -0.8880  0.5093  0.3411
 5598TIP3    H138353   5.063   2.038   1.598 -0.2007  0.1745  0.5824
 5598TIP3    H238354   4.950   1.969   1.526  0.0015  1.1711 -0.7352
 5599TIP3   OH238355   6.704   5.098   0.731  0.3190 -0.5130 -0.8674
 5599TIP3    H138356   6.726   5.044   0.807 -0.6743 -1.1986 -1.0437
 5599TIP3    H238357   6.612   5.078   0.714  0.4229 -0.0712 -2.0157
 5600TIP3   OH238358   1.974   5.925   0.443  0.7029 -0.0452 -0.0267
 5600TIP3    H138359   1.987   6.013   0.410 -1.1490  0.3867  0.2667
 5600TIP3    H238360   1.931   5.937   0.528  0.1587 -1.2150 -0.1154
 5601TIP3   OH238361   1.022   1.044   5.897  0.0064 -0.1178  0.4251
 5601TIP3    H138362   1.066   1.072   5.817 -0.7708 -0.2927 -0.0721
 5601TIP3    H238363   0.941   1.003   5.867 -0.5145  0.2183  1.3221
 5602TIP3   OH238364   3.249   2.941   6.398 -0.2896  0.0792  0.9609
 5602TIP3    H138365   3.204   2.883   6.337 -1.7751  0.9348  1.1814
 5602TIP3    H238366   3.290   3.008   6.343  0.2972 -0.4122  0.7893
 5603TIP3   OH238367   0.458   4.676   6.387 -0.3475  0.3056 -0.2566
 5603TIP3    H138368   0.426   4.652   6.300 -0.7736 -0.0877  0.0006
 5603TIP3    H238369   0.548   4.703   6.373  0.2262 -1.5819 -0.5798
 5604TIP3   OH238370   4.034   2.551   7.370 -0.5614  0.0094 -0.0129
 5604TIP3    H138371   4.006   2.463   7.344 -0.5968  0.4179 -1.4522
 5604TIP3    H238372   4.129   2.551   7.355 -0.7919  0.7118 -1.6276
 5605TIP3   OH238373   0.285   3.336   8.208  0.0034  0.2797 -0.3686
 5605TIP3    H138374   0.243   3.421   8.205 -1.4117 -0.2234  1.9926
 5605TIP3    H238375   0.221   3.276   8.168 -0.7573 -0.1717  1.3898
 5606TIP3   OH238376   2.945   4.598   1.112  0.2726 -0.0785  0.7678
 5606TIP3    H138377   3.033   4.563   1.123  0.3414 -0.2788 -0.2623
 5606TIP3    H238378   2.908   4.598   1.200  1.2906 -0.0043  1.2106
 5607TIP3   OH238379   2.188   3.848   8.138 -0.1920  0.0076  0.1558
 5607TIP3    H138380   2.230   3.914   8.084 -0.0340  0.2242  0.5387
 5607TIP3    H238381   2.237   3.767   8.120 -0.1283  0.0823 -0.0075
 5608TIP3   OH238382   4.295   4.615   0.325  0.7124 -0.4767  0.0376
 5608TIP3    H138383   4.315   4.593   0.416  0.3008 -0.5023  0.1248
 5608TIP3    H238384   4.349   4.691   0.306  2.4811 -1.7823 -0.3914
 5609TIP3   OH238385   1.164   1.697   8.270  0.0671  0.6143 -0.1744
 5609TIP3    H138386   1.163   1.742   8.186  0.5479  1.7417  0.4030
 5609TIP3    H238387   1.205   1.613   8.252 -1.2040  0.2028 -1.3583
 5610TIP3   OH238388   3.113   1.560   8.104  0.0472  0.6185  0.9692
 5610TIP3    H138389   3.068   1.479   8.080 -0.6315  1.1964  0.2166
 5610TIP3    H238390   3.096   1.570   8.197 -1.3658  0.7947  0.7121
 5611TIP3   OH238391   0.604   0.677   0.365 -0.0922  0.0107 -0.0191
 5611TIP3    H138392   0.565   0.764   0.364 -0.3156 -0.0862 -0.8650
 5611TIP3    H238393   0.665   0.677   0.292 -0.9380 -0.8982 -0.7621
 5612TIP3   OH238394   4.683   5.306   0.574  0.0818  0.1642  0.5409
 5612TIP3    H138395   4.698   5.342   0.661 -1.5725  0.5134  0.7094
 5612TIP3    H238396   4.769   5.309   0.532  0.2963  3.1751  0.9667
 5613TIP3   OH238397   0.805   4.672   8.492 -0.0330  0.0894 -0.3793
 5613TIP3    H138398   0.885   4.641   8.450  0.6508  0.3867  0.6774
 5613TIP3    H238399   0.797   4.763   8.461 -1.2570 -0.6306 -2.3297
 5614TIP3   OH238400   4.768   3.092   8.223 -0.8166  0.0337 -0.2345
 5614TIP3    H138401   4.841   3.147   8.196 -0.2889 -0.6138 -0.1542
 5614TIP3    H238402   4.714   3.084   8.145 -1.3459  1.3385 -0.0231
 5615TIP3   OH238403   1.683   4.689   8.063  0.0241  0.2356  0.1126
 5615TIP3    H138404   1.658   4.732   8.145  0.9695 -0.8913  1.0366
 5615TIP3    H238405   1.721   4.758   8.010 -1.8046  1.2630  0.0665
 5616TIP3   OH238406   6.734   2.108   6.580 -0.0863  0.4887  0.7064
 5616TIP3    H138407   6.688   2.158   6.513  1.4189  1.8595  0.6451
 5616TIP3    H238408   6.712   2.017   6.561 -0.6391  0.9329 -0.9296
 5617TIP3   OH238409   5.122   3.359   2.262  0.0570  0.3608  0.3275
 5617TIP3    H138410   5.038   3.399   2.282  0.4038  0.8186  0.8914
 5617TIP3    H238411   5.152   3.404   2.183 -0.5525 -0.3110 -0.3111
 5618TIP3   OH238412   5.027   1.284   8.206 -0.1575  0.1302 -0.2537
 5618TIP3    H138413   5.111   1.290   8.252 -1.4092 -0.3969  2.2638
 5618TIP3    H238414   5.044   1.324   8.121  2.0374  2.2150  1.0310
 5619TIP3   OH238415   1.270   3.330   6.928 -0.6403 -0.2167  0.2904
 5619TIP3    H138416   1.177   3.335   6.907 -0.6052  0.1289  0.2100
 5619TIP3    H238417   1.313   3.323   6.843 -0.5717 -0.0180  0.3088
 5620TIP3   OH238418   4.606   4.355   8.556 -0.1589  0.6452 -0.0387
 5620TIP3    H138419   4.670   4.285   8.547  0.5201  1.1261  0.8856
 5620TIP3    H238420   4.581   4.354   8.648 -1.6657  0.3258 -0.4201
 5621TIP3   OH238421   5.455   1.367   6.550  0.5523 -0.0487 -0.1770
 5621TIP3    H138422   5.549   1.367   6.564  0.2618  0.2296  2.0385
 5621TIP3    H238423   5.438   1.289   6.497  1.7124 -1.8279  1.9127
 5622TIP3   OH238424   5.751   3.384   0.472 -0.4177  0.1336 -0.3165
 5622TIP3    H138425   5.776   3.341   0.390 -1.8984 -3.7155  1.0461
 5622TIP3    H238426   5.826   3.370   0.530 -0.3476  0.7101 -0.2591
 5623TIP3   OH238427   1.077   4.837   7.059  0.1203  0.0465  0.0451
 5623TIP3    H138428   1.128   4.763   7.092 -0.2533  0.5326  1.7904
 5623TIP3    H238429   0.990   4.800   7.040  0.4939 -0.3490 -0.9987
 5624TIP3   OH238430   4.835   2.646   5.988  0.0271 -0.1094  0.0214
 5624TIP3    H138431   4.889   2.604   6.054 -0.2063  1.5688  1.3601
 5624TIP3    H238432   4.870   2.735   5.981 -0.4601 -0.0012 -1.5475
 5625TIP3   OH238433   4.037   6.345   7.413 -0.0193  1.2811 -0.4359
 5625TIP3    H138434   4.044   6.353   7.318  1.8659  1.6149 -0.3128
 5625TIP3    H238435   4.127   6.359   7.444 -0.6415  1.3398  1.4046
 5626TIP3   OH238436   4.301   6.030   8.403  0.1265 -0.1719 -0.1494
 5626TIP3    H138437   4.281   5.970   8.475  0.3501  0.1074  0.1505
 5626TIP3    H238438   4.308   5.974   8.326 -1.4682 -0.3166 -0.2106
 5627TIP3   OH238439   5.107   1.998   0.857 -0.2244  0.3323  0.3639
 5627TIP3    H138440   5.109   1.902   0.860 -2.8813  0.2128  0.4708
 5627TIP3    H238441   5.034   2.019   0.798 -0.4788  2.2714  1.2934
 5628TIP3   OH238442   3.558   4.811   1.272  0.0596 -0.5256 -0.0904
 5628TIP3    H138443   3.601   4.884   1.316 -0.5587  0.2034 -0.6642
 5628TIP3    H238444   3.628   4.749   1.254  0.3980 -0.6828  1.5569
 5629TIP3   OH238445   3.126   5.176   0.850 -0.5224 -0.3244 -0.6249
 5629TIP3    H138446   3.166   5.089   0.843 -1.8518 -1.1317  1.0010
 5629TIP3    H238447   3.060   5.178   0.781  0.0478 -0.2754 -1.1798
 5630TIP3   OH238448   1.785   5.510   7.203 -0.2882 -0.0900  0.2719
 5630TIP3    H138449   1.810   5.436   7.258  2.7773  0.0373 -0.7449
 5630TIP3    H238450   1.780   5.473   7.114 -1.2629  0.4401  0.0989
 5631TIP3   OH238451   0.960   5.668   0.701 -0.1427 -0.7098  0.1793
 5631TIP3    H138452   0.896   5.736   0.678 -1.1841 -1.0984  1.7340
 5631TIP3    H238453   0.939   5.646   0.792  2.1964 -0.9075  0.7336
 5632TIP3   OH238454   2.842   0.167   1.492 -0.3507 -0.1953  0.2542
 5632TIP3    H138455   2.883   0.117   1.563  0.1426  1.0213  0.8579
 5632TIP3    H238456   2.749   0.166   1.513 -0.7942 -3.3388 -1.3577
 5633TIP3   OH238457   4.982   2.165   7.263  0.1716  0.2823  0.0198
 5633TIP3    H138458   4.894   2.176   7.228  0.1075  1.0236  0.3990
 5633TIP3    H238459   5.032   2.239   7.229  0.4610  0.2588  0.3819
 5634TIP3   OH238460   4.461   6.699   0.789 -0.0941 -0.1315 -0.1647
 5634TIP3    H138461   4.520   6.772   0.773  0.8124 -0.8061  0.0600
 5634TIP3    H238462   4.464   6.646   0.709 -0.2254 -0.2796 -0.0733
 5635TIP3   OH238463   3.464   2.374   0.267  0.0026 -0.3334 -0.2291
 5635TIP3    H138464   3.452   2.455   0.217  1.3424 -1.0250 -1.7503
 5635TIP3    H238465   3.379   2.330   0.263 -0.9662  1.2534  1.2111
 5636TIP3   OH238466   5.437   1.625   5.930  0.1559 -0.0340  0.5270
 5636TIP3    H138467   5.496   1.648   6.002  0.2941 -1.1147  0.7751
 5636TIP3    H238468   5.373   1.696   5.928  2.0766  1.8283 -0.4850
 5637TIP3   OH238469   5.856   0.758   1.316 -0.1613  0.6702  0.1964
 5637TIP3    H138470   5.828   0.683   1.368 -1.7072  1.3051  0.3218
 5637TIP3    H238471   5.947   0.739   1.293  0.5590  0.3000  2.9932
 5638TIP3   OH238472   1.332   2.696   0.305 -0.8554 -0.3514  0.3378
 5638TIP3    H138473   1.344   2.629   0.372 -2.9362 -1.0820  0.0453
 5638TIP3    H238474   1.322   2.778   0.355 -0.3649 -0.5726  0.8045
 5639TIP3   OH238475   0.161   1.098   0.076  0.9923 -0.6583 -0.0363
 5639TIP3    H138476   0.190   1.189   0.072  0.8828 -0.6019  0.4239
 5639TIP3    H238477   0.099   1.089   0.003 -0.8125  0.2846  1.3188
 5640TIP3   OH238478   5.974   6.305   6.178 -0.2039  0.2857 -0.3287
 5640TIP3    H138479   5.952   6.383   6.230 -1.5847  0.0153 -0.4723
 5640TIP3    H238480   6.060   6.325   6.140  0.2037  1.0519  0.9462
 5641TIP3   OH238481   0.365   6.027   7.349 -0.2954  0.1784 -0.1633
 5641TIP3    H138482   0.307   6.026   7.273 -0.0016  1.0785 -0.4055
 5641TIP3    H238483   0.310   6.059   7.420 -0.5600 -0.6295  0.0134
 5642TIP3   OH238484   0.855   1.912   6.573  0.0695  0.2762 -0.2146
 5642TIP3    H138485   0.784   1.848   6.572  1.1344 -0.9484 -0.2582
 5642TIP3    H238486   0.858   1.947   6.483  1.5980 -2.0993 -1.1758
 5643TIP3   OH238487   4.362   5.106   0.447  0.6454 -0.5359  0.0735
 5643TIP3    H138488   4.360   5.188   0.399  1.2127 -0.5474  0.0321
 5643TIP3    H238489   4.367   5.038   0.379 -1.4071 -0.7142  0.0134
 5644TIP3   OH238490   6.842   1.735   0.206 -0.5346  0.4018 -0.3218
 5644TIP3    H138491   6.870   1.655   0.249  0.9438  1.1204  0.0975
 5644TIP3    H238492   6.772   1.769   0.262  0.9250  0.9852  1.2396
 5645TIP3   OH238493   1.048   2.991   0.892 -0.4363  0.7340 -0.0251
 5645TIP3    H138494   0.982   3.053   0.924 -0.6223  0.2377  0.5888
 5645TIP3    H238495   1.007   2.905   0.902 -0.7597  0.5829 -2.2746
 5646TIP3   OH238496   0.293   2.846   8.235 -0.5644  0.7103  0.7019
 5646TIP3    H138497   0.333   2.769   8.195 -0.6285  0.6460  0.7597
 5646TIP3    H238498   0.303   2.916   8.171 -1.3847  0.4142  0.2281
 5647TIP3   OH238499   3.565   6.194   6.750  0.0797 -0.4590 -0.2614
 5647TIP3    H138500   3.607   6.126   6.802  2.5821 -0.7275 -2.4445
 5647TIP3    H238501   3.634   6.259   6.735 -1.4952  1.2457 -0.4910
 5648TIP3   OH238502   0.486   1.168   6.334 -0.3662  0.1258  0.3908
 5648TIP3    H138503   0.526   1.118   6.405 -1.2646 -1.6270 -0.2778
 5648TIP3    H238504   0.503   1.116   6.255 -0.9563  1.1144 -0.4189
 5649TIP3   OH238505   5.246   3.629   0.803 -0.2115  0.2951 -0.3170
 5649TIP3    H138506   5.241   3.668   0.890 -1.4737 -0.6202  0.0495
 5649TIP3    H238507   5.159   3.592   0.788  0.9800 -2.7794 -0.4181
 5650TIP3   OH238508   5.212   0.418   7.777  0.1374 -0.0313 -0.1608
 5650TIP3    H138509   5.178   0.332   7.800 -1.5465  0.2011 -1.6081
 5650TIP3    H238510   5.135   0.471   7.760  1.1743  1.4536 -0.4399
 5651TIP3   OH238511   0.593   0.826   7.507 -0.0650 -0.2011  0.2856
 5651TIP3    H138512   0.637   0.826   7.592  0.9033  0.8685 -0.1888
 5651TIP3    H238513   0.502   0.806   7.527  0.3353 -0.9536  1.4636
 5652TIP3   OH238514   2.319   0.448   0.272  0.4719 -0.2083 -0.0742
 5652TIP3    H138515   2.364   0.441   0.357  1.6491  0.0277 -0.6551
 5652TIP3    H238516   2.373   0.396   0.213  0.1190  0.3116 -0.8623
 5653TIP3   OH238517   5.400   5.588   0.358 -0.0895  0.3658 -0.6889
 5653TIP3    H138518   5.484   5.610   0.399  0.3428  1.4121 -2.0661
 5653TIP3    H238519   5.423   5.557   0.271 -1.0176 -1.5288 -0.3145
 5654TIP3   OH238520   2.073   6.192   7.597 -0.3559  0.5243  0.2065
 5654TIP3    H138521   2.168   6.199   7.609 -0.3633  0.2689  0.4443
 5654TIP3    H238522   2.058   6.098   7.584 -0.5284  0.6129 -0.2661
 5655TIP3   OH238523   4.121   0.036   8.027 -0.2316  0.0528  0.2588
 5655TIP3    H138524   4.041  -0.017   8.021 -0.0649 -0.3008  0.9896
 5655TIP3    H238525   4.094   0.114   8.075 -0.2733  0.2146 -0.0263
 5656TIP3   OH238526   4.450   4.912   1.131 -0.0944  0.3907  0.7720
 5656TIP3    H138527   4.462   4.908   1.036  1.3577  0.3690  0.9417
 5656TIP3    H238528   4.355   4.903   1.143 -0.1994 -0.7399 -0.6190
 5657TIP3   OH238529   0.524   0.958   0.305 -0.1280 -0.1427 -0.4619
 5657TIP3    H138530   0.534   1.008   0.224  0.0804  1.0261  0.2538
 5657TIP3    H238531   0.445   0.994   0.345  1.2490  1.2375  1.1599
 5658TIP3   OH238532   6.405   5.023   6.697 -0.1743 -0.2743 -0.4290
 5658TIP3    H138533   6.457   5.046   6.620 -0.5403 -0.0806 -0.6186
 5658TIP3    H238534   6.386   4.930   6.686  1.8176 -0.8721  0.6412
 5659TIP3   OH238535   6.451   6.087   1.566 -0.1639  0.5707  0.1782
 5659TIP3    H138536   6.546   6.087   1.556 -0.1591  0.8434  0.2180
 5659TIP3    H238537   6.429   5.995   1.582  0.2166  0.6433  1.2386
 5660TIP3   OH238538   1.246   3.691   6.666 -0.2336  0.2471  0.0283
 5660TIP3    H138539   1.179   3.694   6.597 -0.4416  0.7614  0.2500
 5660TIP3    H238540   1.326   3.666   6.620 -0.6138 -0.5339 -0.2096
 5661TIP3   OH238541   2.805   3.691   0.060 -0.5530  0.3094 -0.4206
 5661TIP3    H138542   2.712   3.709   0.069 -0.9266 -0.2621 -2.6682
 5661TIP3    H238543   2.841   3.768   0.017 -0.4069 -0.3009 -1.4364
 5662TIP3   OH238544   0.421   3.681   6.465  0.2433  0.5894  0.0254
 5662TIP3    H138545   0.507   3.654   6.433 -0.5519 -0.4077 -1.3638
 5662TIP3    H238546   0.417   3.646   6.554  0.3016 -1.6327 -0.7858
 5663TIP3   OH238547   5.713   3.339   7.391  0.5279 -0.1967 -0.3194
 5663TIP3    H138548   5.727   3.244   7.393  0.0149 -0.3006 -1.1140
 5663TIP3    H238549   5.699   3.359   7.298 -2.7975  0.1217  0.1015
 5664TIP3   OH238550   1.895   0.007   8.372 -0.4276 -0.0846  0.0333
 5664TIP3    H138551   1.831   0.025   8.303  0.3816  0.2193 -0.6486
 5664TIP3    H238552   1.886   0.081   8.433 -0.5902  0.0510 -0.1543
 5665TIP3   OH238553   0.912   3.035   0.249  0.0304  0.1092  0.1099
 5665TIP3    H138554   1.006   3.049   0.249  0.0345  0.4963 -2.2505
 5665TIP3    H238555   0.874   3.119   0.274  0.2838 -0.1328  1.3679
 5666TIP3   OH238556   4.828   4.770   0.472  0.5806  0.2571 -0.1811
 5666TIP3    H138557   4.781   4.853   0.475  1.6436  0.8633  0.1947
 5666TIP3    H238558   4.820   4.735   0.561 -0.3280 -0.3286 -0.4752
 5667TIP3   OH238559   3.336   6.877   0.739  0.9529  0.2024  0.2039
 5667TIP3    H138560   3.369   6.963   0.765  1.6354 -0.1029  0.3881
 5667TIP3    H238561   3.405   6.816   0.767 -0.5893 -0.6960  2.4068
 5668TIP3   OH238562   0.400   0.307   1.368  0.1897  0.1029  0.7184
 5668TIP3    H138563   0.445   0.390   1.379 -0.5654  0.5940  0.2521
 5668TIP3    H238564   0.307   0.327   1.383 -0.0838 -0.5044 -0.0578
 5669TIP3   OH238565   6.108   2.299   0.748 -0.4517 -0.1270 -0.7209
 5669TIP3    H138566   6.169   2.294   0.822 -1.0837  2.8598  0.1113
 5669TIP3    H238567   6.023   2.317   0.788 -0.8622  1.2211 -2.1386
 5670TIP3   OH238568   1.077   4.051   0.793 -1.0443 -0.3631  0.2947
 5670TIP3    H138569   1.049   3.959   0.796  0.2494 -0.9248 -2.1081
 5670TIP3    H238570   1.067   4.075   0.701 -0.5573  1.6686  0.7415
 5671TIP3   OH238571   5.619   3.854   7.662  0.3858  0.1426 -0.4036
 5671TIP3    H138572   5.609   3.844   7.756 -0.7080  0.1841 -0.5095
 5671TIP3    H238573   5.706   3.818   7.643 -0.6093 -2.8352  0.1870
 5672TIP3   OH238574   4.408   1.074   0.625 -0.4167  0.4088  0.6066
 5672TIP3    H138575   4.349   1.136   0.667 -1.5322  0.2886 -0.7303
 5672TIP3    H238576   4.407   1.097   0.533 -2.4511 -2.7329 -0.3283
 5673TIP3   OH238577   6.170   5.381   0.419  0.1444 -0.2550  0.3400
 5673TIP3    H138578   6.099   5.438   0.389 -0.4620 -1.0572  0.2079
 5673TIP3    H238579   6.246   5.438   0.423 -0.1842  0.3100 -0.9050
 5674TIP3   OH238580   5.624   1.802   7.114  0.3235  0.5435  0.1314
 5674TIP3    H138581   5.700   1.771   7.065 -0.6216 -1.7014 -0.0703
 5674TIP3    H238582   5.557   1.818   7.047 -0.2240 -0.2238  0.4758
 5675TIP3   OH238583   4.376   4.001   7.626  0.2192 -0.0808  0.5270
 5675TIP3    H138584   4.464   3.962   7.619  0.5458  0.9093 -1.8467
 5675TIP3    H238585   4.393   4.091   7.654  0.1767  0.6302 -1.5560
 5676TIP3   OH238586   1.209   1.131   0.449 -0.2467  0.1234 -0.1111
 5676TIP3    H138587   1.221   1.213   0.496  0.6980 -1.6802  3.0661
 5676TIP3    H238588   1.298   1.103   0.427 -0.2501 -1.4675  1.6366
 5677TIP3   OH238589   4.066   2.899   6.333  0.4337  0.1463  0.5062
 5677TIP3    H138590   4.043   2.942   6.250  0.7151 -0.9594 -0.1615
 5677TIP3    H238591   4.033   2.810   6.324  1.0972 -0.1931  1.3063
 5678TIP3   OH238592   5.048   5.445   7.749 -0.2645 -0.3016  0.0919
 5678TIP3    H138593   5.064   5.537   7.771 -1.3127 -0.0172 -0.3091
 5678TIP3    H238594   4.975   5.419   7.805 -0.7942 -0.5165 -0.6713
 5679TIP3   OH238595   1.163   3.996   0.251 -0.5910 -0.1887 -0.1540
 5679TIP3    H138596   1.171   4.091   0.262 -0.4630 -0.0349 -1.3975
 5679TIP3    H238597   1.147   3.963   0.339 -1.7270  1.0965  0.1627
 5680TIP3   OH238598   2.631   1.230   7.380 -0.2576 -0.0082  0.1785
 5680TIP3    H138599   2.631   1.282   7.460 -0.8919 -0.6567  0.6025
 5680TIP3    H238600   2.602   1.143   7.406 -1.0597 -0.0741 -0.8422
 5681TIP3   OH238601   2.729   5.905   0.687  0.2085 -0.2569 -0.1800
 5681TIP3    H138602   2.724   6.000   0.673 -0.9305 -0.5081 -1.6305
 5681TIP3    H238603   2.822   5.884   0.675  0.1940  0.4168 -1.6102
 5682TIP3   OH238604   2.163   2.536   7.956  0.0648  0.4471 -0.6849
 5682TIP3    H138605   2.187   2.529   7.864  0.6790  0.0222 -0.5004
 5682TIP3    H238606   2.235   2.584   7.996  0.4638 -0.5256 -0.1923
 5683TIP3   OH238607   4.348   5.684   1.299 -0.5454  0.0032 -0.3748
 5683TIP3    H138608   4.344   5.778   1.317 -1.4135 -0.0356 -0.3221
 5683TIP3    H238609   4.389   5.678   1.213 -1.3794  0.4933 -0.8229
 5684TIP3   OH238610   2.349   3.240   7.545 -0.4135 -0.0121  0.1950
 5684TIP3    H138611   2.333   3.157   7.500  0.6486 -0.8118  1.2388
 5684TIP3    H238612   2.434   3.229   7.588 -0.5841  1.3541  0.9601
 5685TIP3   OH238613   2.979   5.426   1.137  0.2647  0.1013  0.1114
 5685TIP3    H138614   2.973   5.501   1.077 -1.0992  0.4892  0.6868
 5685TIP3    H238615   2.888   5.409   1.162  0.6807 -0.9768  0.9445
 5686TIP3   OH238616   0.820   4.780   6.917 -0.3325 -0.3435 -0.1870
 5686TIP3    H138617   0.850   4.721   6.849 -2.2905 -1.0720 -0.4807
 5686TIP3    H238618   0.729   4.799   6.894 -0.8246 -0.0431  1.8210
 5687TIP3   OH238619   0.671   5.539   7.282 -0.2426 -0.5466 -0.1247
 5687TIP3    H138620   0.710   5.622   7.308  0.0140 -0.3522 -1.0695
 5687TIP3    H238621   0.732   5.503   7.217 -1.0421 -0.7879 -0.7651
 5688TIP3   OH238622   5.758   6.462   8.085  0.1390  0.2131 -0.0084
 5688TIP3    H138623   5.801   6.444   8.002  0.0067  0.1008 -0.0527
 5688TIP3    H238624   5.829   6.476   8.147  0.2612  1.6365 -0.4231
 5689TIP3   OH238625   3.315   2.926   2.216 -0.3125 -0.9873 -0.1116
 5689TIP3    H138626   3.265   3.003   2.187 -1.2830 -1.0856  1.2107
 5689TIP3    H238627   3.405   2.957   2.221 -1.0205  1.1133  3.3546
 5690TIP3   OH238628   1.985   5.114   0.728 -0.1239 -0.3408  0.4049
 5690TIP3    H138629   1.906   5.165   0.710 -1.0311 -0.7537  2.9052
 5690TIP3    H238630   2.056   5.166   0.690 -1.3807  1.0091 -0.1890
 5691TIP3   OH238631   5.526   5.267   1.965  0.3180  0.0427 -0.6505
 5691TIP3    H138632   5.575   5.312   2.034 -0.5798  0.3275 -0.1719
 5691TIP3    H238633   5.451   5.229   2.010  0.3266 -0.7630 -1.2917
 5692TIP3   OH238634   4.809   5.750   0.847 -0.1462 -0.2805 -0.4442
 5692TIP3    H138635   4.838   5.662   0.825 -0.3906 -0.5219  0.1794
 5692TIP3    H238636   4.859   5.807   0.789  1.0949 -0.7387  0.1359
 5693TIP3   OH238637   6.659   5.049   7.710  0.1579 -0.3818 -0.3157
 5693TIP3    H138638   6.655   4.972   7.766  1.8366 -0.9360 -0.9011
 5693TIP3    H238639   6.588   5.105   7.741 -1.0750 -2.1409  0.1276
 5694TIP3   OH238640   0.018   0.601   0.798 -0.3174 -0.2063 -0.0759
 5694TIP3    H138641   0.106   0.630   0.821 -0.3421 -0.4669  0.3698
 5694TIP3    H238642  -0.001   0.531   0.861 -1.2396  0.5305  0.4891
 5695TIP3   OH238643   5.216   5.390   0.859  0.5081 -0.7574 -0.2973
 5695TIP3    H138644   5.261   5.354   0.783  0.0042  0.3255 -1.1261
 5695TIP3    H238645   5.245   5.481   0.864 -0.9659 -0.2624 -0.3681
 5696TIP3   OH238646   1.378   3.752   1.203  0.1002  0.3094 -0.0444
 5696TIP3    H138647   1.400   3.748   1.296 -0.3105  1.5679  0.1237
 5696TIP3    H238648   1.286   3.777   1.201 -0.4976 -1.7734 -0.7863
 5697TIP3   OH238649   4.172   6.796   2.593 -0.1274 -0.9489 -0.5478
 5697TIP3    H138650   4.124   6.839   2.664  3.0801 -0.3724  1.4981
 5697TIP3    H238651   4.197   6.867   2.534  1.0798 -0.6488  0.2754
 5698TIP3   OH238652   0.584   3.184   6.967 -0.3232 -0.7991 -0.3800
 5698TIP3    H138653   0.661   3.173   6.911 -0.0116  0.3220 -0.1901
 5698TIP3    H238654   0.606   3.135   7.047 -0.1780 -1.2224 -0.6760
 5699TIP3   OH238655   2.363   4.017   6.694 -0.0553  0.1065 -0.1968
 5699TIP3    H138656   2.324   3.977   6.616  0.7389 -0.0890 -0.5006
 5699TIP3    H238657   2.405   4.097   6.662 -0.4383  0.4571  0.1728
 5700TIP3   OH238658   1.961   0.685   7.484  0.2910  0.4339  0.5585
 5700TIP3    H138659   2.025   0.744   7.524 -0.7403  0.5601  2.1143
 5700TIP3    H238660   1.899   0.666   7.554 -0.7816 -0.5446 -0.6044
 5701TIP3   OH238661   6.616   6.405   1.263  0.2329 -0.1533  0.6069
 5701TIP3    H138662   6.580   6.329   1.218 -0.4472  1.4979 -1.8634
 5701TIP3    H238663   6.540   6.459   1.285  0.7402  0.1282  1.7378
 5702TIP3   OH238664   4.751   6.219   1.294 -0.1045 -0.2086 -0.0554
 5702TIP3    H138665   4.728   6.311   1.309 -0.0724 -0.2627  0.3437
 5702TIP3    H238666   4.776   6.186   1.381 -1.2793 -0.9269  0.0334
 5703TIP3   OH238667   4.002   4.869   2.218  0.3123 -0.0120  0.1177
 5703TIP3    H138668   3.928   4.857   2.158  1.2567 -1.0451 -0.8882
 5703TIP3    H238669   3.965   4.857   2.305 -0.8465  0.2588 -0.3248
 5704TIP3   OH238670   4.734   2.481   2.053  0.5355  0.3272 -0.9762
 5704TIP3    H138671   4.666   2.540   2.084  2.1000  0.5842  2.3936
 5704TIP3    H238672   4.808   2.539   2.033  1.3327 -0.2442  0.1821
 5705TIP3   OH238673   4.637   2.923   7.740 -0.1016 -0.2510  0.2302
 5705TIP3    H138674   4.678   2.884   7.818 -0.8660 -1.0680  0.2354
 5705TIP3    H238675   4.640   2.853   7.674 -0.0804  0.2067 -0.2581
 5706TIP3   OH238676   0.750   5.469   0.304  0.2704  0.7848 -0.4570
 5706TIP3    H138677   0.703   5.419   0.371  3.1487 -0.6176  0.7027
 5706TIP3    H238678   0.749   5.559   0.337  3.9154 -0.1897  3.2779
 5707TIP3   OH238679   3.026   6.745   8.356 -0.0825 -0.0203  0.2837
 5707TIP3    H138680   3.056   6.738   8.446 -1.6221 -0.3326  0.7996
 5707TIP3    H238681   2.944   6.794   8.361 -0.3281 -0.2622 -0.9171
 5708TIP3   OH238682   5.345   3.158   7.490 -0.2015  0.5692  0.4681
 5708TIP3    H138683   5.331   3.074   7.446 -0.9467  1.1194 -0.3895
 5708TIP3    H238684   5.337   3.223   7.420  0.3654  1.3628  1.1197
 5709TIP3   OH238685   0.988   3.192   0.541 -0.2399  0.3619 -0.0398
 5709TIP3    H138686   1.010   3.099   0.552 -0.0037  0.6125  2.0154
 5709TIP3    H238687   1.073   3.236   0.534 -0.2902  0.5714  0.5840
 5710TIP3   OH238688   6.703   6.743   6.678 -0.1701  0.2681 -0.2817
 5710TIP3    H138689   6.651   6.682   6.625  1.3318  0.0342 -1.5376
 5710TIP3    H238690   6.711   6.699   6.763  1.0335 -1.4172 -1.2206
 5711TIP3   OH238691   6.348   0.826   7.735 -0.3807  0.2100 -0.2899
 5711TIP3    H138692   6.354   0.777   7.653 -0.1403 -2.9091  1.4573
 5711TIP3    H238693   6.435   0.864   7.747  0.6191 -2.0091  0.0083
 5712TIP3   OH238694   5.339   6.104   6.995  0.7416 -0.0881  0.2399
 5712TIP3    H138695   5.381   6.104   6.909  2.3113 -0.4639  0.9843
 5712TIP3    H238696   5.250   6.136   6.977  0.9103 -0.4745 -1.5676
 5713TIP3   OH238697   0.917   5.424   1.932 -0.3413 -0.1331  0.1768
 5713TIP3    H138698   0.959   5.360   1.874  1.3784  0.1354  1.0718
 5713TIP3    H238699   0.834   5.383   1.956  0.4289 -1.7579  0.2053
 5714TIP3   OH238700   4.496   2.583   0.579  0.4408  0.5886  0.2324
 5714TIP3    H138701   4.443   2.579   0.499 -0.6481  3.0039  0.7241
 5714TIP3    H238702   4.460   2.514   0.635 -0.2310  0.2733 -0.5587
 5715TIP3   OH238703   6.165   0.653   1.955  0.4120  0.3575  0.3321
 5715TIP3    H138704   6.098   0.606   1.904  0.1212  1.5975 -0.4972
 5715TIP3    H238705   6.180   0.598   2.032 -0.9935 -0.3424  0.1453
 5716TIP3   OH238706   0.769   2.889   1.617 -0.3210 -0.4695 -0.3094
 5716TIP3    H138707   0.856   2.925   1.637 -0.1670  0.3337 -2.1851
 5716TIP3    H238708   0.711   2.929   1.682  0.4921  0.1008  0.0835
 5717TIP3   OH238709   0.550   2.783   6.742 -0.6420  0.3582 -0.2694
 5717TIP3    H138710   0.637   2.744   6.733  0.5452  2.7557  0.1443
 5717TIP3    H238711   0.524   2.763   6.832  0.4448  1.3925  0.3041
 5718TIP3   OH238712   0.392   0.088   6.920  0.5110 -0.0060  0.2621
 5718TIP3    H138713   0.461   0.090   6.854  2.0792  0.6107  1.8396
 5718TIP3    H238714   0.433   0.049   6.997 -1.3792 -1.1039  0.7787
 5719TIP3   OH238715   6.001   3.467   7.739  0.1043  0.6795 -0.4101
 5719TIP3    H138716   5.913   3.475   7.702 -0.3463  0.4527  0.5869
 5719TIP3    H238717   6.012   3.374   7.756  1.4923  0.3333 -2.7346
 5720TIP3   OH238718   0.086   5.511   6.448 -0.2231 -0.0528 -0.1791
 5720TIP3    H138719   0.100   5.420   6.475  0.7140 -0.1403 -0.9354
 5720TIP3    H238720   0.173   5.550   6.447 -0.6509  0.9631  0.4586
 5721TIP3   OH238721   3.288   3.419   6.909  0.3742 -0.0356  0.2861
 5721TIP3    H138722   3.382   3.422   6.896  0.5380 -3.4114 -0.0969
 5721TIP3    H238723   3.252   3.411   6.820 -0.2379  0.4669  0.4792
 5722TIP3   OH238724   2.341   2.441   7.135 -0.1904 -0.8490 -0.0934
 5722TIP3    H138725   2.319   2.522   7.088 -0.5406  0.9367  2.9128
 5722TIP3    H238726   2.259   2.416   7.178  0.0541 -2.5921 -0.5805
 5723TIP3   OH238727   2.819   2.754   8.434  0.0132 -0.3828  0.2522
 5723TIP3    H138728   2.801   2.660   8.438 -1.2871 -0.3512 -2.5434
 5723TIP3    H238729   2.755   2.794   8.493  1.3171 -1.2467  2.3538
 5724TIP3   OH238730   3.853   1.255   8.021 -1.0710 -0.0896 -0.3109
 5724TIP3    H138731   3.769   1.213   8.040 -1.7560  1.9831  1.7976
 5724TIP3    H238732   3.831   1.324   7.958 -0.9898  0.4752  0.2662
 5725TIP3   OH238733   1.340   1.605   6.402 -0.3393 -0.3428  0.0795
 5725TIP3    H138734   1.376   1.675   6.347 -0.5288 -0.2488  0.0740
 5725TIP3    H238735   1.408   1.538   6.403  0.3887  0.3868  1.1437
 5726TIP3   OH238736   6.635   1.022   0.905 -0.0475  0.0654  0.1599
 5726TIP3    H138737   6.601   1.097   0.856 -3.2939 -0.1802  1.7114
 5726TIP3    H238738   6.681   1.060   0.980 -1.6954  0.6145  0.9494
 5727TIP3   OH238739   3.436   6.487   7.968  0.0492 -0.5096 -0.1565
 5727TIP3    H138740   3.505   6.421   7.978 -0.1459 -0.7947 -0.6562
 5727TIP3    H238741   3.476   6.554   7.913  0.6804  0.4278  1.3619
 5728TIP3   OH238742   0.209   2.300   0.283  0.0783  0.2789 -0.6111
 5728TIP3    H138743   0.166   2.379   0.316 -2.1786 -0.8137 -0.7277
 5728TIP3    H238744   0.138   2.249   0.244  0.9728 -2.8239  1.4081
 5729TIP3   OH238745   2.600   0.428   0.747  0.4906 -0.4644 -0.0781
 5729TIP3    H138746   2.694   0.423   0.729  0.6732  0.5784  0.4812
 5729TIP3    H238747   2.579   0.345   0.789  1.8692  0.4895  2.7719
 5730TIP3   OH238748   6.573   1.959   1.500 -0.0351  0.1713 -0.0695
 5730TIP3    H138749   6.528   2.042   1.481  1.7689  1.2948  0.3791
 5730TIP3    H238750   6.590   1.962   1.595  2.6449  0.7140 -0.4879
 5731TIP3   OH238751   4.861   5.097   7.712 -0.3378  0.3801 -0.4011
 5731TIP3    H138752   4.927   5.121   7.646 -0.1115  1.0539  0.0597
 5731TIP3    H238753   4.788   5.061   7.661  0.6389 -1.0013 -0.8727
 5732TIP3   OH238754   5.281   2.078   1.248 -0.0727  0.1865 -0.1860
 5732TIP3    H138755   5.268   2.155   1.302  0.9580  0.9731 -1.0206
 5732TIP3    H238756   5.352   2.102   1.188  0.2531 -1.3910 -0.4833
 5733TIP3   OH238757   3.706   2.850   0.814  0.2618  0.1054  0.2662
 5733TIP3    H138758   3.769   2.866   0.884 -0.3089  2.2279  0.3663
 5733TIP3    H238759   3.699   2.754   0.809  0.9089 -0.1176  2.5548
 5734TIP3   OH238760   3.335   5.773   7.992  0.8288 -0.4543 -0.7367
 5734TIP3    H138761   3.422   5.782   7.955  1.0359 -1.3015 -0.4791
 5734TIP3    H238762   3.293   5.704   7.939  0.9643 -1.3379  0.2645
 5735TIP3   OH238763   6.072   2.247   6.625  0.0163 -0.1705  0.3379
 5735TIP3    H138764   6.102   2.180   6.686  1.3187 -0.3763 -0.4899
 5735TIP3    H238765   6.005   2.203   6.572 -0.7696 -0.1292  1.2668
 5736TIP3   OH238766   5.901   4.152   7.210  0.0201  0.1596 -0.0376
 5736TIP3    H138767   5.938   4.183   7.127  0.2179  2.1200  0.7249
 5736TIP3    H238768   5.968   4.173   7.276 -0.6661 -0.1829  0.7875
 5737TIP3   OH238769   4.889   2.465   6.858  0.2255 -0.4003 -0.0757
 5737TIP3    H138770   4.924   2.442   6.772 -0.0055 -0.1685 -0.2318
 5737TIP3    H238771   4.815   2.406   6.870  0.0073 -0.1539 -0.2125
 5738TIP3   OH238772   0.372   0.097   7.658 -0.4662  0.1696  0.0602
 5738TIP3    H138773   0.390   0.148   7.737 -0.3271 -0.6198  0.5598
 5738TIP3    H238774   0.277   0.089   7.656 -0.4543 -0.1041  0.3553
 5739TIP3   OH238775   4.536   0.860   2.208 -0.2435 -0.4026  0.7527
 5739TIP3    H138776   4.452   0.820   2.231 -0.7979 -0.7768 -1.6480
 5739TIP3    H238777   4.590   0.787   2.179  0.1789  0.0973  0.2614
 5740TIP3   OH238778   5.958   2.027   6.793 -0.2258  0.0182  0.0222
 5740TIP3    H138779   5.874   1.997   6.827 -0.5752  0.9219 -0.0153
 5740TIP3    H238780   5.986   1.957   6.734  0.5172 -1.6994  2.2997
 5741TIP3   OH238781   3.642   2.028   1.960  0.3090  0.3810 -0.2313
 5741TIP3    H138782   3.600   2.098   2.010 -0.4778 -0.5793  0.5072
 5741TIP3    H238783   3.679   1.970   2.026 -0.2178 -0.5982 -0.7710
 5742TIP3   OH238784   3.547   0.896   0.852 -0.4091  0.4702 -0.1125
 5742TIP3    H138785   3.570   0.966   0.912 -3.1628  2.2899 -1.0068
 5742TIP3    H238786   3.464   0.924   0.813 -0.1988 -1.9861 -2.6049
 5743TIP3   OH238787   5.613   1.756   0.928  0.6885 -0.2370  0.6473
 5743TIP3    H138788   5.527   1.717   0.941  0.8826 -0.5644  0.9577
 5743TIP3    H238789   5.595   1.849   0.914  0.3558 -0.1111  1.7845
 5744TIP3   OH238790   4.664   6.737   1.025 -0.1999  0.2814  0.6359
 5744TIP3    H138791   4.714   6.656   1.029 -0.1270  0.3623  1.5138
 5744TIP3    H238792   4.584   6.714   0.977 -0.6221 -0.5543  1.6976
 5745TIP3   OH238793   2.538   2.128   6.761 -0.0304 -0.4128 -0.4860
 5745TIP3    H138794   2.620   2.164   6.727  1.3226 -0.8358  2.0342
 5745TIP3    H238795   2.496   2.201   6.806 -0.4939 -0.4653 -0.8271
 5746TIP3   OH238796   4.143   3.690   5.845 -0.1445  0.4467 -0.2646
 5746TIP3    H138797   4.072   3.751   5.826  0.3945  1.0997 -0.2263
 5746TIP3    H238798   4.203   3.700   5.771 -1.1369 -1.7287 -1.4499
 5747TIP3   OH238799   3.255   3.705   1.646  0.0720 -0.6640 -0.3267
 5747TIP3    H138800   3.177   3.749   1.680  0.4800  0.0195 -0.2562
 5747TIP3    H238801   3.220   3.636   1.589 -0.5803  0.0286 -0.7904
 5748TIP3   OH238802   4.979   3.546   0.858 -0.2975  0.0128  0.2309
 5748TIP3    H138803   4.959   3.604   0.784  3.4694  0.8225 -0.3299
 5748TIP3    H238804   4.941   3.462   0.833 -0.9051  0.7828 -1.6215
 5749TIP3   OH238805   4.847   2.067   1.396 -0.0997  0.3456 -0.1444
 5749TIP3    H138806   4.755   2.077   1.372  0.4200  2.7426 -1.4433
 5749TIP3    H238807   4.895   2.078   1.314  1.5866  5.4011  1.1397
 5750TIP3   OH238808   3.018   3.832   1.726 -0.0958 -0.5472  0.1667
 5750TIP3    H138809   2.981   3.897   1.786 -1.6939  0.0863 -1.4270
 5750TIP3    H238810   2.960   3.756   1.734 -0.3426 -0.4439 -0.5777
 5751TIP3   OH238811   3.112   0.097   0.145  0.0138  0.4371  0.1486
 5751TIP3    H138812   3.070   0.131   0.224  0.0106 -2.7340  1.6889
 5751TIP3    H238813   3.201   0.074   0.173 -0.2277 -1.4678 -0.4732
 5752TIP3   OH238814   6.080   1.702   0.768  0.1821  0.0928  0.4182
 5752TIP3    H138815   6.055   1.613   0.796  0.5570  0.0451  0.6083
 5752TIP3    H238816   6.012   1.727   0.706 -1.3932  0.6862  2.2791
 5753TIP3   OH238817   3.186   5.365   0.161 -0.8214  0.2133 -0.2264
 5753TIP3    H138818   3.148   5.418   0.231  1.4624  1.5663  0.1089
 5753TIP3    H238819   3.180   5.274   0.193  1.6384  0.8831  2.6422
 5754TIP3   OH238820   4.595   1.192   1.553 -0.0791 -0.4970 -0.1411
 5754TIP3    H138821   4.632   1.219   1.638  0.8490 -1.4358 -0.2329
 5754TIP3    H238822   4.671   1.181   1.496 -0.7376  1.0159 -1.3977
 5755TIP3   OH238823   0.575   5.409   7.987 -0.1891  0.8475  0.2215
 5755TIP3    H138824   0.534   5.356   8.054 -1.6153  0.1636 -1.1344
 5755TIP3    H238825   0.517   5.483   7.975 -1.7701 -0.6585 -2.4568
 5756TIP3   OH238826   1.279   0.407   6.036 -0.0379  0.1614  0.0953
 5756TIP3    H138827   1.214   0.339   6.051 -0.1146  0.5150  1.5161
 5756TIP3    H238828   1.287   0.452   6.120  0.1737  1.7747 -0.7376
 5757TIP3   OH238829   2.103   3.321   7.964  0.0644 -0.0580  0.0063
 5757TIP3    H138830   2.081   3.258   7.896 -0.9584 -1.4330  1.5366
 5757TIP3    H238831   2.137   3.397   7.916 -2.5894 -0.1038 -2.2043
 5758TIP3   OH238832   3.805   3.110   7.623 -0.0141 -0.1642  0.6101
 5758TIP3    H138833   3.849   3.113   7.708 -1.6721  2.1642  1.4947
 5758TIP3    H238834   3.731   3.051   7.636  0.6111 -1.0427  0.2760
 5759TIP3   OH238835   6.331   5.196   1.555  0.1358  0.3214  0.2372
 5759TIP3    H138836   6.375   5.272   1.517 -2.7251  1.3639 -1.3014
 5759TIP3    H238837   6.316   5.220   1.646 -2.6374  2.7252 -0.6950
 5760TIP3   OH238838   2.716   4.896   7.899  0.2119  0.1067  0.2231
 5760TIP3    H138839   2.811   4.903   7.907  0.2550  1.0357 -0.9098
 5760TIP3    H238840   2.702   4.810   7.859  0.6114  0.1682 -0.0580
 5761TIP3   OH238841   3.002   5.444   7.469  0.0378  0.2497  0.0020
 5761TIP3    H138842   3.016   5.353   7.443 -0.1903  0.3271 -0.3941
 5761TIP3    H238843   2.973   5.488   7.389  0.1404  0.6698  0.1939
 5762TIP3   OH238844   4.055   0.407   1.880  0.3439 -0.4635 -0.1625
 5762TIP3    H138845   4.129   0.377   1.828  1.0842  2.6947 -1.1636
 5762TIP3    H238846   4.089   0.415   1.969  0.5900 -1.0038 -0.2066
 5763TIP3   OH238847   3.343   1.527   0.407 -0.4182 -0.4900 -0.6655
 5763TIP3    H138848   3.265   1.583   0.406  0.0643  0.5366  2.7685
 5763TIP3    H238849   3.412   1.584   0.440  0.8218 -2.3513  0.1254
 5764TIP3   OH238850   4.451   0.357   2.050 -0.2999  0.8521  0.2333
 5764TIP3    H138851   4.477   0.428   2.109 -0.1086  1.0331 -0.0660
 5764TIP3    H238852   4.496   0.280   2.084  1.8967  1.4402 -1.1478
 5765TIP3   OH238853   6.141   4.330   0.333 -0.1647  0.3659  0.4614
 5765TIP3    H138854   6.165   4.419   0.359  1.6309 -0.3502  1.4212
 5765TIP3    H238855   6.150   4.330   0.238 -2.2607  1.7549  0.2088
 5766TIP3   OH238856   2.077   3.133   1.838  0.3787  0.4785  0.2537
 5766TIP3    H138857   2.003   3.188   1.813  0.8316  0.8796 -0.2354
 5766TIP3    H238858   2.121   3.183   1.908  1.4856  1.3551 -1.0079
 5767TIP3   OH238859   0.207   1.198   0.953  0.0619 -0.7598  0.8540
 5767TIP3    H138860   0.276   1.260   0.976  0.6087 -1.0518  0.0425
 5767TIP3    H238861   0.237   1.158   0.872 -1.1131 -0.8200  0.4302
 5768TIP3   OH238862   6.511   0.766   8.210 -0.9931  0.0202 -0.2438
 5768TIP3    H138863   6.498   0.671   8.213 -1.8365  0.1055 -0.7726
 5768TIP3    H238864   6.559   0.786   8.291 -1.7426 -0.7257  0.4153
 5769TIP3   OH238865   3.969   5.705   1.624 -0.4335 -0.4245 -0.1728
 5769TIP3    H138866   3.995   5.681   1.713  0.5269  0.4118 -0.2082
 5769TIP3    H238867   3.962   5.622   1.577 -0.4526 -0.8377  0.5504
 5770TIP3   OH238868   1.845   0.326   7.053 -0.7187  0.4362 -0.0146
 5770TIP3    H138869   1.815   0.393   7.115 -2.5884  0.0856 -0.4606
 5770TIP3    H238870   1.930   0.357   7.024 -2.1706  3.5695 -1.4459
 5771TIP3   OH238871   4.516   0.843   0.753  0.1886  0.7250  0.1925
 5771TIP3    H138872   4.472   0.832   0.838  0.0914  0.0847  0.0643
 5771TIP3    H238873   4.486   0.928   0.722  0.3708  1.0510  0.8858
 5772TIP3   OH238874   1.920   5.145   1.007  0.2348 -0.5388  0.1963
 5772TIP3    H138875   1.959   5.137   0.920  0.8140 -0.8220  0.4764
 5772TIP3    H238876   1.953   5.070   1.055 -3.4599 -2.8734 -0.5437
 5773TIP3   OH238877   2.012   4.822   1.339 -0.0040 -0.2380 -0.1122
 5773TIP3    H138878   1.970   4.900   1.377  1.0327 -0.0420  0.6740
 5773TIP3    H238879   2.073   4.793   1.407  1.0413 -0.5843 -1.1866
 5774TIP3   OH238880   1.573   0.661   1.678  0.6990 -0.1283  0.2404
 5774TIP3    H138881   1.556   0.678   1.771 -1.4591 -3.6950  0.7199
 5774TIP3    H238882   1.637   0.590   1.678 -1.6283 -2.3856 -0.7165
 5775TIP3   OH238883   0.544   2.083   7.269  0.7478 -0.3877  0.4592
 5775TIP3    H138884   0.522   1.999   7.310  1.4902 -0.4544  0.7253
 5775TIP3    H238885   0.497   2.082   7.186 -1.7193  0.2213  1.7383
 5776TIP3   OH238886   3.673   4.303   7.313 -0.2735 -0.0676  0.4304
 5776TIP3    H138887   3.594   4.353   7.295 -0.1111  0.2900  0.6847
 5776TIP3    H238888   3.728   4.363   7.365 -0.3441 -0.7345  1.3069
 5777TIP3   OH238889   6.404   3.764   8.246 -0.3537  0.2824  0.0324
 5777TIP3    H138890   6.332   3.821   8.275 -1.2121 -0.7051 -0.0750
 5777TIP3    H238891   6.439   3.727   8.327 -1.3054 -0.7760 -0.0138
 5778TIP3   OH238892   2.159   2.185   0.199  0.0375 -0.1848 -0.5415
 5778TIP3    H138893   2.080   2.205   0.250  1.3261  1.6397  0.8560
 5778TIP3    H238894   2.163   2.253   0.133  1.1348  0.5798  0.2769
 5779TIP3   OH238895   4.841   0.342   8.324  0.0783 -0.5458 -0.6175
 5779TIP3    H138896   4.899   0.411   8.357  0.3159 -0.8864 -0.3224
 5779TIP3    H238897   4.822   0.369   8.234 -1.6443  1.0738  0.1707
 5780TIP3   OH238898   2.092   3.787   6.673  0.0615  0.0368  0.2936
 5780TIP3    H138899   2.158   3.850   6.645 -0.6637  0.2445 -1.0636
 5780TIP3    H238900   2.135   3.702   6.664  0.5526  0.2434  0.6677
 5781TIP3   OH238901   0.438   4.735   2.097  0.0639 -0.6083  0.6063
 5781TIP3    H138902   0.411   4.810   2.045  1.8613  0.9615  1.7826
 5781TIP3    H238903   0.358   4.684   2.110 -1.1494  0.9210 -0.4853
 5782TIP3   OH238904   5.179   2.226   0.181  0.0697  0.4238 -0.4248
 5782TIP3    H138905   5.179   2.230   0.085  0.1641  1.0875 -0.4018
 5782TIP3    H238906   5.094   2.260   0.207  0.2170  0.6729 -0.2610
 5783TIP3   OH238907   2.718   6.096   7.273 -0.3615 -0.5993  0.6149
 5783TIP3    H138908   2.674   6.035   7.331 -2.5699 -1.1385 -1.4426
 5783TIP3    H238909   2.725   6.049   7.190 -0.1868  1.1942 -0.4387
 5784TIP3   OH238910   2.489   2.683   0.888 -0.3307 -0.2959  0.4841
 5784TIP3    H138911   2.567   2.634   0.915 -1.1232 -1.3691  0.8896
 5784TIP3    H238912   2.502   2.771   0.925  1.0917 -0.1936 -0.2222
 5785TIP3   OH238913   6.170   3.557   1.742 -0.0941  0.3930  0.3513
 5785TIP3    H138914   6.084   3.524   1.768 -0.1432  0.0297 -0.2593
 5785TIP3    H238915   6.230   3.484   1.759  0.4513  1.3050  2.6947
 5786TIP3   OH238916   2.583   6.488   7.880  0.3895  0.3530  0.3616
 5786TIP3    H138917   2.648   6.424   7.852 -2.4172 -1.9279 -1.5307
 5786TIP3    H238918   2.574   6.475   7.974  1.0104 -0.9065  0.2596
 5787TIP3   OH238919   4.459   1.955   8.116  0.2694  0.4947  0.5741
 5787TIP3    H138920   4.519   1.903   8.063  1.0798  0.6514  1.3227
 5787TIP3    H238921   4.514   2.019   8.159 -0.4858  0.8620  1.0190
 5788TIP3   OH238922   3.431   6.236   1.260  0.3759  0.0524  0.0396
 5788TIP3    H138923   3.442   6.244   1.166 -2.0724 -0.9628 -0.4139
 5788TIP3    H238924   3.359   6.296   1.281  0.3581 -0.3209  1.1192
 5789TIP3   OH238925   4.920   5.175   0.153 -0.2092  0.1609  0.3646
 5789TIP3    H138926   4.940   5.215   0.069  1.1822 -1.5674 -0.1798
 5789TIP3    H238927   4.826   5.160   0.151 -0.2361  0.4050 -0.7551
 5790TIP3   OH238928   1.363   2.494   7.875  0.1410  0.3500 -0.8654
 5790TIP3    H138929   1.276   2.530   7.888  0.1244  0.1239 -0.3019
 5790TIP3    H238930   1.370   2.425   7.941  1.2469  1.2636 -0.0017
 5791TIP3   OH238931   4.782   4.565   7.260 -0.5314 -0.0504  0.0437
 5791TIP3    H138932   4.767   4.655   7.287 -1.4897 -0.1030 -0.2753
 5791TIP3    H238933   4.771   4.566   7.165 -3.1425 -0.9293  0.2374
 5792TIP3   OH238934   2.183   5.294   6.874  0.1778 -0.2152 -0.2040
 5792TIP3    H138935   2.114   5.237   6.908  0.9288 -0.9394  0.1364
 5792TIP3    H238936   2.212   5.251   6.794  1.5366 -0.9529  0.6509
 5793TIP3   OH238937   0.121   5.189   7.695  0.1784  0.2361 -0.2713
 5793TIP3    H138938   0.085   5.110   7.735 -1.4140  1.7033  1.2961
 5793TIP3    H238939   0.197   5.211   7.749  0.3357  0.0604 -0.4186
 5794TIP3   OH238940   2.342   2.777   6.199  0.6338 -0.0223  0.6110
 5794TIP3    H138941   2.337   2.864   6.237  1.6612  0.0979  0.5150
 5794TIP3    H238942   2.407   2.786   6.129 -1.4060 -0.1493 -1.4149
 5795TIP3   OH238943   1.143   1.147   8.096  0.1079 -0.4298  0.1893
 5795TIP3    H138944   1.126   1.238   8.073 -0.1146 -0.8290 -1.3323
 5795TIP3    H238945   1.068   1.120   8.148  0.2411  0.2854  0.7664
 5796TIP3   OH238946   6.890   6.563   0.268  0.6309 -0.1517  0.4734
 5796TIP3    H138947   6.812   6.611   0.295  0.3804 -1.2296  1.8204
 5796TIP3    H238948   6.903   6.498   0.338  2.4313 -0.3344  0.0139
 5797TIP3   OH238949   2.115   0.163   2.041 -0.9257 -0.1177 -0.4985
 5797TIP3    H138950   2.065   0.128   2.114 -0.9924  0.1030 -0.4370
 5797TIP3    H238951   2.113   0.258   2.054  0.8151 -0.1495  0.3851
 5798TIP3   OH238952   1.194   1.993   0.704  0.3997  0.1075  0.6358
 5798TIP3    H138953   1.136   1.925   0.739 -0.0762 -0.1307 -0.5944
 5798TIP3    H238954   1.138   2.069   0.692  0.8052  0.5449  1.4323
 5799TIP3   OH238955   4.991   1.050   7.248 -0.4403  0.5551 -0.5082
 5799TIP3    H138956   4.932   0.996   7.196 -2.0705  1.3052  0.4626
 5799TIP3    H238957   4.997   1.005   7.333  1.4912 -0.2010 -0.9855
 5800TIP3   OH238958   0.207   4.315   8.151  0.4048  0.1246 -0.5326
 5800TIP3    H138959   0.272   4.297   8.082  0.7673  2.1816 -0.7926
 5800TIP3    H238960   0.246   4.278   8.230  1.1191 -0.1458 -0.9969
 5801TIP3   OH238961   2.318   1.475   6.692  0.1345  0.3916  0.2150
 5801TIP3    H138962   2.369   1.404   6.732  1.3766  0.5744 -0.9731
 5801TIP3    H238963   2.286   1.439   6.609 -0.1955  0.8561  0.1367
 5802TIP3   OH238964   3.076   1.076   0.308 -0.6397  0.4746  0.4412
 5802TIP3    H138965   3.014   1.149   0.300  0.9025  1.8175  0.1102
 5802TIP3    H238966   3.114   1.067   0.220  0.4067  0.4285  0.8796
 5803TIP3   OH238967   2.698   2.964   0.354  0.2853 -0.3486  0.9504
 5803TIP3    H138968   2.715   2.884   0.303  1.0459  0.5976 -0.3250
 5803TIP3    H238969   2.778   3.015   0.347 -1.2665  2.0281 -1.0496
 5804TIP3   OH238970   2.916   5.099   1.064  0.1271 -0.3193 -0.1829
 5804TIP3    H138971   2.954   5.011   1.061 -0.3153 -0.5577  0.8329
 5804TIP3    H238972   2.990   5.157   1.044  0.5208 -0.8847 -0.4185
 5805TIP3   OH238973   0.974   5.133   2.641 -0.5093 -0.3420 -0.0609
 5805TIP3    H138974   0.906   5.184   2.685 -0.1412 -0.0736  0.2030
 5805TIP3    H238975   1.055   5.158   2.685 -0.4494 -2.0248  0.8736
 5806TIP3   OH238976   2.323   6.678   7.560 -0.5009 -0.1947 -0.0637
 5806TIP3    H138977   2.414   6.689   7.588 -0.7805  1.8056  0.2420
 5806TIP3    H238978   2.328   6.654   7.467  0.3448 -0.1220 -0.0367
 5807TIP3   OH238979   2.739   6.697   8.360 -0.5786  0.5231  0.9079
 5807TIP3    H138980   2.653   6.736   8.381 -1.5162 -0.8748 -0.1861
 5807TIP3    H238981   2.720   6.629   8.296  1.4614  0.6107  0.1459
 5808TIP3   OH238982   4.055   2.361   6.044  0.4590 -0.2785 -0.3869
 5808TIP3    H138983   3.978   2.364   6.100  0.3566 -0.1615 -0.5345
 5808TIP3    H238984   4.023   2.330   5.960  0.1288  2.0335 -1.1675
 5809TIP3   OH238985   3.742   5.067   8.495  0.0782  0.4377 -0.0202
 5809TIP3    H138986   3.764   5.049   8.586  0.0354 -1.0890 -0.2859
 5809TIP3    H238987   3.706   5.156   8.496 -0.7747  0.1079  1.5894
 5810TIP3   OH238988   5.710   5.949   0.512 -0.1088  0.4307  0.1245
 5810TIP3    H138989   5.618   5.972   0.525 -0.1522  0.0258  0.5742
 5810TIP3    H238990   5.749   6.027   0.473 -0.5934  0.6842  0.1360
 5811TIP3   OH238991   3.078   0.265   1.175  0.1197  0.1815  0.0019
 5811TIP3    H138992   3.067   0.297   1.265 -0.5380  1.2236 -0.4303
 5811TIP3    H238993   3.164   0.298   1.148  0.0178  0.4573  0.0127
 5812TIP3   OH238994   1.610   1.826   1.023 -0.1687  0.3426 -0.2859
 5812TIP3    H138995   1.556   1.804   1.099 -2.5900  1.5453 -1.5509
 5812TIP3    H238996   1.574   1.909   0.991  2.1683  0.9736 -1.5096
 5813TIP3   OH238997   4.744   4.143   8.474 -0.0263 -0.7967 -0.7251
 5813TIP3    H138998   4.728   4.083   8.401 -0.2745 -0.0242 -1.3201
 5813TIP3    H238999   4.797   4.092   8.535 -0.5239 -1.7340 -1.0537
 5814TIP3   OH239000   1.133   6.400   1.428  0.2732 -0.3133  0.1152
 5814TIP3    H139001   1.072   6.329   1.449 -0.4393  0.7472  1.8734
 5814TIP3    H239002   1.148   6.444   1.512  0.8850  1.4582 -0.8719
 5815TIP3   OH239003   1.074   0.365   8.321 -0.3084 -0.1105 -0.2624
 5815TIP3    H139004   1.094   0.314   8.243 -0.8133 -1.5106  0.4849
 5815TIP3    H239005   1.009   0.428   8.292  1.0560  0.8252 -1.4391
 5816TIP3   OH239006   3.308   5.485   7.087 -0.2658 -0.2000  0.8148
 5816TIP3    H139007   3.401   5.505   7.091 -0.3197  0.5080 -0.7521
 5816TIP3    H239008   3.265   5.564   7.118 -0.3576  0.0678  0.0356
 5817TIP3   OH239009   5.020   1.098   2.545 -0.1072 -0.1025 -0.2397
 5817TIP3    H139010   4.968   1.018   2.549  1.7802 -1.4395 -0.7387
 5817TIP3    H239011   4.965   1.161   2.498 -1.8966 -0.8528  0.7578
 5818TIP3   OH239012   3.349   5.528   0.829 -0.0205 -0.5262  0.3069
 5818TIP3    H139013   3.321   5.576   0.751 -0.2540 -0.2864  0.5339
 5818TIP3    H239014   3.438   5.560   0.846  0.1467 -0.8028 -0.0336
 5819TIP3   OH239015   4.635   4.449   1.679 -0.5228 -0.2476  0.1499
 5819TIP3    H139016   4.699   4.425   1.746  0.3131  0.0511 -0.5152
 5819TIP3    H239017   4.550   4.446   1.724  0.1011  0.8781  1.4729
 5820TIP3   OH239018   5.083   0.393   8.553 -0.3007  0.2723  0.4190
 5820TIP3    H139019   5.029   0.369   8.629 -1.5560 -0.3689 -0.6264
 5820TIP3    H239020   5.046   0.475   8.522  1.3886  1.5250  1.5506
 5821TIP3   OH239021   2.522   2.805   7.024  0.7080 -0.0257 -0.6893
 5821TIP3    H139022   2.548   2.811   7.115  2.2232  0.3232 -1.1213
 5821TIP3    H239023   2.595   2.761   6.980 -0.0457 -0.3105 -1.7200
 5822TIP3   OH239024   1.486   1.098   0.322  0.0601  0.1367 -0.2943
 5822TIP3    H139025   1.507   1.074   0.412 -0.1938  0.2122 -0.2142
 5822TIP3    H239026   1.571   1.118   0.282  0.0826  1.2053  0.2501
 5823TIP3   OH239027   1.207   0.782   1.875 -0.1311  0.0702  0.3376
 5823TIP3    H139028   1.214   0.877   1.880  0.2363  0.0323  0.5812
 5823TIP3    H239029   1.281   0.750   1.927 -0.1445 -0.3487  0.0996
 5824TIP3   OH239030   2.432   3.916   6.947 -0.7505 -0.8658  0.2992
 5824TIP3    H139031   2.343   3.896   6.973 -0.8408  1.2000  1.7644
 5824TIP3    H239032   2.425   3.941   6.854 -1.6722 -0.8100  0.3780
 5825TIP3   OH239033   2.429   6.345   1.079 -0.2353 -0.5506  0.5642
 5825TIP3    H139034   2.399   6.273   1.025 -1.2152  0.0034  0.3544
 5825TIP3    H239035   2.484   6.398   1.021  0.3437 -1.0178  0.6729
 5826TIP3   OH239036   6.025   3.300   6.414  0.0310  0.0784 -0.6883
 5826TIP3    H139037   6.086   3.261   6.352 -0.0144 -1.4756  0.1877
 5826TIP3    H239038   5.952   3.239   6.418 -1.4409  1.7166 -1.4135
 5827TIP3   OH239039   6.286   1.525   7.718  0.1502 -0.1136 -0.2220
 5827TIP3    H139040   6.210   1.577   7.689  0.1590  0.0890  0.1180
 5827TIP3    H239041   6.360   1.561   7.668 -0.1763 -1.1741 -1.5472
 5828TIP3   OH239042   2.159   0.629   1.319  0.0490 -0.3693  0.6538
 5828TIP3    H139043   2.115   0.711   1.296 -1.2368 -0.6429  1.9749
 5828TIP3    H239044   2.244   0.656   1.354  0.0135  0.3388  0.2085
 5829TIP3   OH239045   2.753   1.586   8.438  0.2559 -0.1999 -0.3831
 5829TIP3    H139046   2.743   1.528   8.514 -0.0537  1.0369  0.5586
 5829TIP3    H239047   2.670   1.633   8.433  0.8777  0.9326 -0.4440
 5830TIP3   OH239048   4.878   1.221   6.470  0.2649  0.3728  0.2489
 5830TIP3    H139049   4.854   1.188   6.557 -2.1259  1.4411  0.0597
 5830TIP3    H239050   4.811   1.286   6.450 -0.6032 -1.3859 -3.3120
 5831TIP3   OH239051   0.329   5.773   1.868  0.7919  0.2607  0.0675
 5831TIP3    H139052   0.270   5.846   1.854  0.8981 -0.1347 -3.0450
 5831TIP3    H239053   0.413   5.814   1.889  1.1062  1.1925 -2.6237
 5832TIP3   OH239054   5.856   1.696   8.552  0.4878 -0.3708  0.1649
 5832TIP3    H139055   5.893   1.784   8.551  1.3911 -0.7426 -0.0070
 5832TIP3    H239056   5.794   1.695   8.479  0.9205 -0.0574 -0.2133
 5833TIP3   OH239057   3.375   5.057   0.588 -0.7116 -0.1637  0.1043
 5833TIP3    H139058   3.406   4.970   0.613  0.4228 -0.4020 -1.9375
 5833TIP3    H239059   3.413   5.116   0.653 -0.3133 -1.0419  0.6809
 5834TIP3   OH239060   4.705   3.891   8.305  0.1849 -0.6584  0.0408
 5834TIP3    H139061   4.689   3.796   8.302 -1.4679 -0.4382  0.4304
 5834TIP3    H239062   4.763   3.908   8.231  0.5941 -1.9863  0.0268
 5835TIP3   OH239063   5.444   6.737   0.389 -0.0631  0.2922  0.8990
 5835TIP3    H139064   5.429   6.829   0.412 -2.2628 -0.3497  2.2894
 5835TIP3    H239065   5.377   6.718   0.323 -0.8629 -0.7731  1.9794
 5836TIP3   OH239066   4.867   5.697   1.487 -0.3432 -0.1706  0.0232
 5836TIP3    H139067   4.809   5.636   1.534 -0.6974  0.1747  0.0404
 5836TIP3    H239068   4.811   5.771   1.464 -0.3931 -0.7159 -1.7387
 5837TIP3   OH239069   0.048   5.740   7.569  0.1405 -0.2003  0.0110
 5837TIP3    H139070   0.117   5.736   7.635  0.6950 -2.7119 -0.6298
 5837TIP3    H239071   0.094   5.742   7.485 -0.4544 -3.0878 -0.4767
 5838TIP3   OH239072   6.370   2.838   7.936  0.2133 -0.2520 -0.2036
 5838TIP3    H139073   6.383   2.926   7.901 -1.8458  0.3554  0.4164
 5838TIP3    H239074   6.370   2.782   7.859  0.0650  0.4956 -0.7654
 5839TIP3   OH239075   6.494   4.217   1.197  0.3607 -0.1446  0.5996
 5839TIP3    H139076   6.560   4.215   1.128 -0.4204  0.8272 -0.1826
 5839TIP3    H239077   6.516   4.142   1.253  1.9300 -0.0225  0.1802
 5840TIP3   OH239078   1.681   0.702   8.511  0.1374  0.2270  0.0587
 5840TIP3    H139079   1.587   0.698   8.532  0.3210 -1.6077  0.7785
 5840TIP3    H239080   1.720   0.753   8.582 -0.0911 -0.6236  0.8177
 5841TIP3   OH239081   5.606   5.293   7.004 -0.9944  0.7648  0.1211
 5841TIP3    H139082   5.672   5.287   7.074 -1.8769  1.6283  1.0646
 5841TIP3    H239083   5.586   5.386   6.998 -1.4074  0.6187 -0.8473
 5842TIP3   OH239084   1.699   0.535   8.256  0.4166 -0.2764  0.0143
 5842TIP3    H139085   1.704   0.578   8.342 -1.4316 -0.7693  0.4252
 5842TIP3    H239086   1.607   0.544   8.231  0.4910 -1.9553 -0.9642
 5843TIP3   OH239087   0.468   5.782   2.506 -0.4097 -0.0029 -0.5138
 5843TIP3    H139088   0.498   5.844   2.439  0.0566  0.2610 -0.0619
 5843TIP3    H239089   0.542   5.722   2.519 -0.4184  0.0831 -0.0711
 5844TIP3   OH239090   2.383   3.710   1.390  0.5337 -0.1087  0.0947
 5844TIP3    H139091   2.404   3.800   1.365  1.2862 -0.1329  0.6198
 5844TIP3    H239092   2.439   3.692   1.465  1.0889 -1.3445 -0.5994
 5845TIP3   OH239093   3.344   6.089   1.492  0.1353 -0.2259 -0.4585
 5845TIP3    H139094   3.269   6.142   1.519  2.0822  1.6267  1.6815
 5845TIP3    H239095   3.393   6.145   1.432  0.9130 -0.5807 -0.1673
 5846TIP3   OH239096   1.196   6.431   8.495 -0.3055  0.0512 -0.3004
 5846TIP3    H139097   1.213   6.411   8.587 -2.8226 -0.2208  0.1576
 5846TIP3    H239098   1.250   6.508   8.477 -0.7736  0.9217  1.7786
 5847TIP3   OH239099   3.036   2.576   0.660  0.0920  0.9505  0.2297
 5847TIP3    H139100   2.989   2.659   0.668 -1.0945  0.3513 -0.2279
 5847TIP3    H239101   3.020   2.531   0.743 -1.1091  0.2774 -0.3487
 5848TIP3   OH239102   4.781   3.626   8.274  0.1273  0.2484  0.3488
 5848TIP3    H139103   4.810   3.673   8.196  0.4150 -0.2737  0.1334
 5848TIP3    H239104   4.712   3.567   8.242  1.3974 -1.1841  0.1497
 5849TIP3   OH239105   5.063   6.149   6.997  0.3056 -0.5528 -0.6955
 5849TIP3    H139106   4.980   6.183   6.964 -0.1799 -1.4178 -0.3853
 5849TIP3    H239107   5.042   6.062   7.030  0.9047  0.0266  1.3513
 5850TIP3   OH239108   4.074   5.753   0.725 -0.1523 -0.2338 -0.2624
 5850TIP3    H139109   4.001   5.815   0.730 -1.3395 -1.6082  0.1783
 5850TIP3    H239110   4.090   5.729   0.816  1.4622  0.6877 -0.2656
 5851TIP3   OH239111   4.409   4.093   7.291 -0.1824 -0.1274  0.4729
 5851TIP3    H139112   4.425   4.063   7.201  0.3074  2.4956 -0.4139
 5851TIP3    H239113   4.496   4.099   7.330 -0.1966  0.8148  0.3751
 5852TIP3   OH239114   3.951   3.576   0.982 -0.3795  0.3131 -0.6144
 5852TIP3    H139115   3.870   3.525   0.982 -1.2917  1.6330  1.4091
 5852TIP3    H239116   3.929   3.657   1.028  2.0144  0.8892 -0.3168
 5853TIP3   OH239117   5.428   0.545   0.160  0.0992 -0.2862 -0.1219
 5853TIP3    H139118   5.506   0.507   0.199 -0.2855 -1.5645 -0.5385
 5853TIP3    H239119   5.359   0.482   0.178 -0.1454 -0.8551 -2.6498
 5854TIP3   OH239120   2.091   3.940   1.530  0.4108  0.4093 -0.4987
 5854TIP3    H139121   1.998   3.965   1.528 -0.0216 -1.1101 -1.7729
 5854TIP3    H239122   2.105   3.896   1.446  2.3299  0.7143 -0.3677
 5855TIP3   OH239123   5.925   0.525   2.400  0.3634 -0.1580 -0.0346
 5855TIP3    H139124   5.840   0.561   2.373  0.0520 -1.6520 -1.1557
 5855TIP3    H239125   5.981   0.538   2.323  1.0887  0.5297  0.5894
 5856TIP3   OH239126   6.651   3.981   7.643  0.2746 -0.2160  0.0793
 5856TIP3    H139127   6.569   3.932   7.649  0.2376 -0.6249 -2.5508
 5856TIP3    H239128   6.677   3.995   7.734 -2.9905  0.4458  1.0709
 5857TIP3   OH239129   2.463   0.968   0.140  0.4184  0.2669  0.2998
 5857TIP3    H139130   2.507   0.907   0.199  0.8208  0.9516  0.7119
 5857TIP3    H239131   2.495   0.945   0.053  1.3892  0.5827  0.5671
 5858TIP3   OH239132   5.055   6.517   6.418  0.8361  0.1180  1.1079
 5858TIP3    H139133   4.999   6.524   6.495  0.2384  1.6418  0.5817
 5858TIP3    H239134   5.075   6.424   6.411 -3.6645 -1.0452 -0.0496
 5859TIP3   OH239135   5.638   4.640   0.134 -0.2668 -0.6658  0.5763
 5859TIP3    H139136   5.682   4.697   0.071 -0.6215 -1.3133 -0.2761
 5859TIP3    H239137   5.544   4.655   0.119 -0.3659 -0.2775  1.4704
 5860TIP3   OH239138   5.566   6.745   0.903  0.4269 -0.1624 -0.4992
 5860TIP3    H139139   5.559   6.742   0.998 -1.2335 -0.4199 -0.5927
 5860TIP3    H239140   5.489   6.795   0.875  0.0345 -1.4097 -1.7745
 5861TIP3   OH239141   3.833   0.845   1.236 -0.3264 -0.0371 -0.2884
 5861TIP3    H139142   3.875   0.770   1.277 -0.5857  1.3056  2.7182
 5861TIP3    H239143   3.779   0.808   1.167  1.3493 -2.3378 -0.4936
 5862TIP3   OH239144   1.447   3.942   0.080  0.2062 -0.1122  0.3504
 5862TIP3    H139145   1.351   3.949   0.087  0.2878  1.4644  0.2559
 5862TIP3    H239146   1.479   4.028   0.106  1.5909 -0.5025 -0.0028
 5863TIP3   OH239147   1.696   6.307   1.422  0.2670  0.2378 -0.4312
 5863TIP3    H139148   1.602   6.299   1.404 -0.2296  2.4202  0.8541
 5863TIP3    H239149   1.716   6.231   1.478 -1.0198  0.3556  0.2390
 5864TIP3   OH239150   5.991   1.161   6.848 -0.6688  0.7340  1.1001
 5864TIP3    H139151   6.041   1.084   6.822 -0.9940  0.0946  2.3273
 5864TIP3    H239152   6.042   1.200   6.919  0.5748  2.8668 -0.8303
 5865TIP3   OH239153   0.958   3.083   6.911  0.6104  0.7294  0.2496
 5865TIP3    H139154   0.913   3.117   6.834  0.3652  1.1630  0.5792
 5865TIP3    H239155   0.975   3.160   6.965 -2.1227  0.1269  2.1425
 5866TIP3   OH239156   6.639   0.318   7.140  1.2227 -0.4758  0.3894
 5866TIP3    H139157   6.564   0.261   7.125  0.7161  0.4526 -0.7157
 5866TIP3    H239158   6.715   0.263   7.119  0.8539 -1.2886  1.0949
 5867TIP3   OH239159   6.217   0.070   7.553  0.2730  0.4719 -0.2277
 5867TIP3    H139160   6.197   0.133   7.484 -0.1920  0.5289 -0.0465
 5867TIP3    H239161   6.267   0.001   7.508  0.6079  0.8635 -0.4671
 5868TIP3   OH239162   2.822   3.721   7.668 -0.5423 -0.1686  0.2558
 5868TIP3    H139163   2.908   3.764   7.668 -0.1055 -0.9701 -1.5019
 5868TIP3    H239164   2.785   3.740   7.582 -2.1201  0.0841  0.9545
 5869TIP3   OH239165   5.256   6.714   7.567 -0.5460 -0.4229  0.3721
 5869TIP3    H139166   5.279   6.704   7.474 -0.1505  1.1741  0.2778
 5869TIP3    H239167   5.205   6.635   7.587  0.0059 -1.1663 -0.9900
 5870TIP3   OH239168   3.845   5.606   7.645  0.0122 -0.3468  0.2826
 5870TIP3    H139169   3.804   5.592   7.731 -0.3420 -1.2343 -0.0189
 5870TIP3    H239170   3.935   5.631   7.666  0.4872 -2.3843  0.9186
 5871TIP3   OH239171   0.390   4.014   7.818 -0.1457  0.5400  0.3524
 5871TIP3    H139172   0.472   3.966   7.805  0.8412  1.9255  1.1585
 5871TIP3    H239173   0.342   4.002   7.737  1.1980  0.2996 -0.4441
 5872TIP3   OH239174   5.115   1.512   2.184  0.3069  0.5047 -0.5822
 5872TIP3    H139175   5.148   1.538   2.098 -1.2782  0.0924 -1.3528
 5872TIP3    H239176   5.021   1.501   2.171  0.4863 -3.1984  0.2594
 5873TIP3   OH239177   2.444   2.490   8.386 -0.4906  0.0306 -0.3423
 5873TIP3    H139178   2.497   2.531   8.318  0.2130  1.3230  0.9261
 5873TIP3    H239179   2.354   2.495   8.352 -0.2020  1.0189 -1.0134
 5874TIP3   OH239180   4.260   2.940   6.520 -0.2453 -0.4421  0.2714
 5874TIP3    H139181   4.304   3.025   6.515 -0.0021 -0.6281 -0.9493
 5874TIP3    H239182   4.215   2.931   6.436 -0.2350 -1.5409  0.3707
 5875TIP3   OH239183   6.337   4.307   6.231 -0.2212  0.6714 -0.0807
 5875TIP3    H139184   6.296   4.262   6.157 -0.0531  2.1232 -1.1040
 5875TIP3    H239185   6.423   4.333   6.198  0.3082  0.3574  1.0163
 5876TIP3   OH239186   3.744   6.171   0.136  0.1104 -0.1812  0.7648
 5876TIP3    H139187   3.809   6.131   0.076  0.6773 -0.8141  1.7732
 5876TIP3    H239188   3.754   6.265   0.122  0.1437 -0.3139 -0.2282
 5877TIP3   OH239189   1.704   0.288   0.943 -0.3233 -0.0571  0.1693
 5877TIP3    H139190   1.762   0.276   0.867  0.1513  0.3346  0.4620
 5877TIP3    H239191   1.654   0.367   0.923 -0.3240 -0.0536  0.1856
 5878TIP3   OH239192   4.163   1.413   7.786 -0.4015 -0.4124 -0.5555
 5878TIP3    H139193   4.163   1.500   7.826  0.5649 -0.7504  0.2366
 5878TIP3    H239194   4.161   1.352   7.860  0.8540 -1.0551 -1.0114
 5879TIP3   OH239195   4.470   6.217   7.409 -0.2100 -0.0812 -0.2163
 5879TIP3    H139196   4.542   6.169   7.449 -0.6686  0.3757  1.2027
 5879TIP3    H239197   4.434   6.156   7.344 -0.7216 -1.6753  1.4506
 5880TIP3   OH239198   4.912   0.834   2.551 -0.2579 -0.3084 -0.2512
 5880TIP3    H139199   4.820   0.811   2.538  0.1017 -2.0731  0.0831
 5880TIP3    H239200   4.942   0.776   2.621  1.1515  0.1140 -0.4708
 5881TIP3   OH239201   5.328   1.100   2.284  0.2801  0.3612  0.1369
 5881TIP3    H139202   5.279   1.175   2.318 -0.6384  0.5428 -1.4644
 5881TIP3    H239203   5.419   1.119   2.307  0.0154  1.7852  0.1199
 5882TIP3   OH239204   4.512   3.732   0.800 -0.5850  0.7626 -0.3801
 5882TIP3    H139205   4.550   3.652   0.836 -0.0214  1.4408  0.5600
 5882TIP3    H239206   4.586   3.791   0.788 -1.2733  2.1024  1.4429
 5883TIP3   OH239207   5.156   2.431   1.813 -0.8976 -0.6484 -0.2521
 5883TIP3    H139208   5.061   2.437   1.825 -0.7000  0.8527  0.8400
 5883TIP3    H239209   5.188   2.396   1.896 -0.3674  0.3296 -0.0355
 5884TIP3   OH239210   0.742   4.317   7.641 -0.3943 -0.7227 -0.1450
 5884TIP3    H139211   0.730   4.302   7.735 -0.1527 -0.0727 -0.0086
 5884TIP3    H239212   0.655   4.299   7.603 -0.5544 -0.7538  0.2262
 5885TIP3   OH239213   4.447   0.158   7.377  0.2592  0.1978  0.7267
 5885TIP3    H139214   4.360   0.118   7.378  0.8498 -1.3876 -1.7531
 5885TIP3    H239215   4.437   0.238   7.427 -2.1164 -0.9023  2.2038
 5886TIP3   OH239216   5.763   5.914   0.022 -0.3844 -0.3194 -0.0715
 5886TIP3    H139217   5.682   5.954   0.055 -0.4064  1.9684 -2.5140
 5886TIP3    H239218   5.833   5.962   0.066 -0.4244  1.8306 -2.1395
 5887TIP3   OH239219   1.332   5.515   0.697  0.4389  0.1106  0.5528
 5887TIP3    H139220   1.360   5.481   0.612 -1.4417 -1.5413  0.4978
 5887TIP3    H239221   1.302   5.437   0.744  0.5411  1.1259  2.3727
 5888TIP3   OH239222   1.080   4.752   7.779 -0.3446 -0.2146  0.1382
 5888TIP3    H139223   1.019   4.823   7.758 -0.5226 -0.7186 -1.1919
 5888TIP3    H239224   1.114   4.724   7.693  1.0811 -0.5482  0.7713
 5889TIP3   OH239225   3.608   0.452   6.932 -0.1022  0.4354 -0.1422
 5889TIP3    H139226   3.673   0.388   6.901 -0.2698 -0.6294  1.5852
 5889TIP3    H239227   3.640   0.536   6.900  1.4407 -0.2255 -0.4204
 5890TIP3   OH239228   3.335   2.192   1.024 -0.0242 -0.0685  0.0724
 5890TIP3    H139229   3.253   2.210   1.070  0.0311 -1.6751  0.8860
 5890TIP3    H239230   3.378   2.124   1.076  0.1054 -1.9147 -2.2517
 5891TIP3   OH239231   5.654   1.157   7.645  0.2672 -0.2637  0.3943
 5891TIP3    H139232   5.560   1.173   7.641  0.2903 -0.2883 -0.3622
 5891TIP3    H239233   5.684   1.166   7.554  1.3932  2.1171  0.9078
 5892TIP3   OH239234   5.952   0.396   8.431  0.6060  0.4800  0.1920
 5892TIP3    H139235   5.884   0.425   8.491  1.0081  1.9677 -0.0282
 5892TIP3    H239236   5.947   0.457   8.357  1.7238  0.1997 -0.1398
 5893TIP3   OH239237   6.704   5.339   0.611  0.0204 -0.1641  0.3760
 5893TIP3    H139238   6.794   5.331   0.581 -0.5054 -1.0299 -1.0589
 5893TIP3    H239239   6.691   5.266   0.671  0.4082  0.2351  0.9474
 5894TIP3   OH239240   5.463   0.463   8.397  0.2027  0.2753  0.2402
 5894TIP3    H139241   5.425   0.392   8.448 -1.0657  1.4724  1.0278
 5894TIP3    H239242   5.548   0.428   8.368 -1.0291 -2.1107 -0.7468
 5895TIP3   OH239243   5.202   1.031   8.188  0.3326 -0.0039  0.4205
 5895TIP3    H139244   5.162   1.023   8.102 -0.3132  1.1833  0.5959
 5895TIP3    H239245   5.280   0.976   8.183  0.4421  0.2457 -1.0010
 5896TIP3   OH239246   6.160   0.411   0.625  0.1057  0.1552  0.6719
 5896TIP3    H139247   6.150   0.359   0.704 -0.2388 -0.7336  0.0643
 5896TIP3    H239248   6.254   0.416   0.611  0.1373 -0.4989  0.6233
 5897TIP3   OH239249   3.015   5.231   7.227 -0.3193  0.5145 -0.5956
 5897TIP3    H139250   3.004   5.149   7.276 -1.3075  0.7326 -0.4330
 5897TIP3    H239251   3.101   5.223   7.186  0.6882  0.4719  1.4328
 5898TIP3   OH239252   3.519   3.321   1.313 -0.2274 -0.3081  0.2551
 5898TIP3    H139253   3.494   3.240   1.268  1.0356 -1.6877  1.9201
 5898TIP3    H239254   3.440   3.375   1.311 -0.9798 -1.4073 -1.2353
 5899TIP3   OH239255   5.891   1.933   6.280  0.2702  0.1920 -0.1974
 5899TIP3    H139256   5.918   1.852   6.237  0.2838  0.3432 -0.4792
 5899TIP3    H239257   5.947   2.000   6.240  1.7562  0.0567  1.5284
 5900TIP3   OH239258   5.598   6.521   0.742 -0.7170 -0.5578  0.2369
 5900TIP3    H139259   5.624   6.568   0.662 -1.7530 -2.4184 -1.2581
 5900TIP3    H239260   5.638   6.572   0.813  0.2543  1.1588 -1.4422
 5901TIP3   OH239261   1.834   1.437   7.170 -0.2903 -0.3174 -0.2304
 5901TIP3    H139262   1.847   1.351   7.211  0.6402  0.2225  0.6444
 5901TIP3    H239263   1.844   1.500   7.241  0.5737  0.5991 -1.1217
 5902TIP3   OH239264   1.308   2.333   1.943 -0.1676 -0.5876 -0.0193
 5902TIP3    H139265   1.225   2.369   1.911  0.6662  1.4671 -0.0454
 5902TIP3    H239266   1.323   2.256   1.889 -0.7942  0.4879 -1.8252
 5903TIP3   OH239267   1.546   6.618   6.615 -0.6606  0.7738  0.1914
 5903TIP3    H139268   1.500   6.537   6.636 -0.9932  0.6196 -1.0178
 5903TIP3    H239269   1.635   6.605   6.648 -1.4265  1.0705  2.5721
 5904TIP3   OH239270   3.150   3.900   7.263 -0.0225 -0.0627 -0.1743
 5904TIP3    H139271   3.182   3.831   7.322 -0.9321  0.6651  1.2151
 5904TIP3    H239272   3.228   3.953   7.245  0.4543 -0.8124 -0.3743
 5905TIP3   OH239273   4.664   5.073   0.160 -0.1444  0.4472  0.2526
 5905TIP3    H139274   4.596   5.135   0.133 -0.2600  0.8207  1.3428
 5905TIP3    H239275   4.677   5.017   0.084 -1.8784  0.1877  0.1018
 5906TIP3   OH239276   5.111   2.757   0.858  0.0902  0.0890 -0.1182
 5906TIP3    H139277   5.069   2.811   0.925 -1.0886 -0.2495 -0.5558
 5906TIP3    H239278   5.157   2.820   0.803  1.5961  0.3296  1.3148
 5907TIP3   OH239279   2.162   6.792   7.211  0.0648  0.3176  0.4211
 5907TIP3    H139280   2.233   6.781   7.148  0.1572 -1.6726  0.8188
 5907TIP3    H239281   2.139   6.885   7.205  1.3760  0.5853 -1.1130
 5908TIP3   OH239282   3.022   5.165   7.567  0.4899 -0.5714  0.3847
 5908TIP3    H139283   3.075   5.086   7.555  0.9483 -0.2606  0.3127
 5908TIP3    H239284   3.048   5.198   7.653 -0.1480 -0.8300  0.6802
 5909TIP3   OH239285   4.746   1.958   6.879 -0.0343  0.3171 -0.0265
 5909TIP3    H139286   4.762   1.883   6.936 -0.9710  0.2082  0.1076
 5909TIP3    H239287   4.651   1.971   6.883 -0.1657  0.0874 -1.8593
 5910TIP3   OH239288   1.507   2.943   7.021 -0.3353 -0.3900 -0.2814
 5910TIP3    H139289   1.425   2.978   7.055 -0.0227 -0.0619  0.1440
 5910TIP3    H239290   1.501   2.957   6.926 -1.5130 -1.9565 -0.4777
 5911TIP3   OH239291   4.296   3.699   0.279  0.0394  0.3283 -0.3120
 5911TIP3    H139292   4.389   3.677   0.278 -0.1251 -0.6382  1.2055
 5911TIP3    H239293   4.253   3.616   0.303 -1.3599  0.3559 -2.5045
 5912TIP3   OH239294   3.036   4.906   1.783  0.1505  0.1725 -0.9609
 5912TIP3    H139295   2.987   4.980   1.816 -1.4950 -1.3373  0.1659
 5912TIP3    H239296   3.040   4.844   1.856 -0.4785 -1.7715 -2.4678
 5913TIP3   OH239297   6.446   3.737   7.435 -0.1900 -0.1304 -0.4839
 5913TIP3    H139298   6.373   3.695   7.389 -0.9993 -0.4529  1.0388
 5913TIP3    H239299   6.519   3.732   7.373 -1.3072 -0.2880 -1.8333
 5914TIP3   OH239300   0.703   3.402   7.302  0.4906  0.1053 -0.6260
 5914TIP3    H139301   0.742   3.399   7.389  1.9611  1.7780 -1.1745
 5914TIP3    H239302   0.612   3.429   7.318  0.1352 -1.5598  0.4928
 5915TIP3   OH239303   2.629   3.830   0.817 -0.3506 -0.1879  0.3932
 5915TIP3    H139304   2.584   3.804   0.897 -0.6992  0.2306  0.3344
 5915TIP3    H239305   2.597   3.769   0.750  0.2523 -0.8048  0.6531
 5916TIP3   OH239306   3.717   6.671   0.006 -0.7327 -0.2439 -0.7011
 5916TIP3    H139307   3.779   6.604  -0.022 -0.7686 -0.2801 -0.6938
 5916TIP3    H239308   3.691   6.715  -0.075  0.9515  1.2150 -0.5210
 5917TIP3   OH239309   5.120   0.964   0.315 -0.6370 -0.2130  0.3544
 5917TIP3    H139310   5.184   0.902   0.281  0.3936  0.8805  0.2654
 5917TIP3    H239311   5.129   1.042   0.260 -1.3215  0.3323  0.9904
 5918TIP3   OH239312   3.857   2.332   0.788  0.0357  0.3026 -0.1369
 5918TIP3    H139313   3.884   2.303   0.701  0.9215 -2.2658  0.9301
 5918TIP3    H239314   3.926   2.303   0.846  0.1447  3.1610  1.3480
 5919TIP3   OH239315   5.381   4.830   0.641 -0.0533  0.3216 -0.7694
 5919TIP3    H139316   5.399   4.768   0.570  1.6473  1.9544 -1.8542
 5919TIP3    H239317   5.291   4.860   0.624 -0.6050 -1.1974 -0.6868
 5920TIP3   OH239318   0.535   0.026   7.143  0.1070  0.0771 -0.0119
 5920TIP3    H139319   0.516   0.117   7.166 -0.4271 -0.3060  1.1695
 5920TIP3    H239320   0.628   0.025   7.124  0.1220  0.8714 -0.0063
 5921TIP3   OH239321   5.768   2.509   1.306  0.1213  0.2307 -0.1897
 5921TIP3    H139322   5.756   2.599   1.336 -0.6445 -0.5875  2.2285
 5921TIP3    H239323   5.859   2.489   1.327 -0.1735 -0.0545  0.9284
 5922TIP3   OH239324   4.688   0.428   2.440 -0.1740  0.5271 -0.0415
 5922TIP3    H139325   4.745   0.400   2.369  1.4096 -1.7076  1.9262
 5922TIP3    H239326   4.641   0.348   2.466 -2.6325  1.8431 -0.1716
 5923TIP3   OH239327   0.843   6.785   8.496 -0.2430  0.3376  0.2343
 5923TIP3    H139328   0.874   6.752   8.412  1.8600 -1.7496  1.6947
 5923TIP3    H239329   0.782   6.718   8.527 -2.1543  1.7938 -0.1805
 5924TIP3   OH239330   6.258   4.930   1.014 -0.4004 -0.1702  0.3864
 5924TIP3    H139331   6.254   4.979   1.096  1.3172  0.4669  0.1195
 5924TIP3    H239332   6.339   4.879   1.021 -1.5672 -2.1648  0.1850
 5925TIP3   OH239333   4.282   0.210   6.611 -0.1241 -0.3535  0.1337
 5925TIP3    H139334   4.233   0.193   6.531 -1.1221 -0.2281  0.6900
 5925TIP3    H239335   4.323   0.126   6.633 -1.1289 -0.8105  0.3184
 5926TIP3   OH239336   5.307   1.106   6.081 -0.5150  0.4771  0.9783
 5926TIP3    H139337   5.247   1.125   6.153  0.0030  0.6460  1.3737
 5926TIP3    H239338   5.273   1.026   6.041 -0.6932  0.2674  1.5421
 5927TIP3   OH239339   2.040   6.104   7.889 -0.2413  0.2845  0.4129
 5927TIP3    H139340   1.979   6.031   7.900  0.8714 -0.5595  1.1883
 5927TIP3    H239341   2.112   6.067   7.838  0.9921  0.4137  1.9946
 5928TIP3   OH239342   5.947   0.029   7.425  0.0354 -0.0843  0.3443
 5928TIP3    H139343   5.936  -0.065   7.416 -1.0828  0.1302 -1.0701
 5928TIP3    H239344   6.020   0.040   7.486  0.3251 -1.8487  0.3588
 5929TIP3   OH239345   5.545   1.995   0.816 -0.2297  0.0137  0.1430
 5929TIP3    H139346   5.465   2.047   0.806 -2.0906 -1.8820  3.3197
 5929TIP3    H239347   5.613   2.059   0.838 -1.6207  1.4325  0.5107
 5930TIP3   OH239348   1.987   3.336   1.552 -0.2766 -0.7199 -0.0987
 5930TIP3    H139349   1.928   3.310   1.622  0.4390  1.9496  1.6522
 5930TIP3    H239350   2.075   3.331   1.591  0.0507  1.8868 -0.3109
 5931TIP3   OH239351   4.748   3.534   0.474  0.0254 -0.3277  0.0216
 5931TIP3    H139352   4.786   3.465   0.529  1.8587  0.2941 -0.3916
 5931TIP3    H239353   4.790   3.523   0.389 -0.4600  0.6270 -0.3592
 5932TIP3   OH239354   4.502   2.501   8.387 -0.3070 -0.4198 -0.1276
 5932TIP3    H139355   4.407   2.511   8.385 -0.3723 -1.1558 -1.2742
 5932TIP3    H239356   4.535   2.575   8.337 -0.4150 -1.4019 -1.7295
 5933TIP3   OH239357   3.474   2.906   7.395  0.2026  0.1746  0.1388
 5933TIP3    H139358   3.429   2.908   7.310  2.0553 -1.9650 -0.9925
 5933TIP3    H239359   3.559   2.946   7.377  0.1100  0.9801  1.3806
 5934TIP3   OH239360   3.994   4.060   8.147  0.2160  0.1042 -0.0381
 5934TIP3    H139361   4.069   4.060   8.088  1.4626 -0.9371  1.4926
 5934TIP3    H239362   3.954   3.974   8.136  0.1831  0.0734  0.3120
 5935TIP3   OH239363   5.803   6.214   5.992 -0.1965  0.8194  0.4226
 5935TIP3    H139364   5.855   6.236   5.914  1.2602  0.0109  1.1203
 5935TIP3    H239365   5.849   6.257   6.064 -1.0521  0.8659  0.9499
 5936TIP3   OH239366   3.785   5.292   2.256 -0.3951 -0.4404  0.8848
 5936TIP3    H139367   3.748   5.378   2.279  0.0718 -0.5315  2.0618
 5936TIP3    H239368   3.817   5.257   2.339 -2.4045 -2.6778  0.8220
 5937TIP3   OH239369   6.701   4.347   7.880 -0.2474  0.2386  0.2436
 5937TIP3    H139370   6.708   4.370   7.787  0.3860  0.0540  0.2405
 5937TIP3    H239371   6.787   4.311   7.902  0.1322  1.6991  1.2926
 5938TIP3   OH239372   5.752   3.191   1.238 -0.6645 -0.1660 -0.4759
 5938TIP3    H139373   5.696   3.116   1.258 -1.7767  0.6084 -0.5940
 5938TIP3    H239374   5.694   3.253   1.193  0.4497  0.3951 -1.1832
 5939TIP3   OH239375   3.643   2.462   1.091 -0.3933  0.2436  0.1998
 5939TIP3    H139376   3.599   2.496   1.013 -1.3379  1.3324  1.1756
 5939TIP3    H239377   3.723   2.514   1.097 -1.0485  1.2257  0.7711
 5940TIP3   OH239378   4.340   3.444   2.009  0.4977  0.6480  0.0018
 5940TIP3    H139379   4.247   3.437   1.987  0.4921  0.5294  0.0603
 5940TIP3    H239380   4.355   3.372   2.071  1.2611 -1.1127 -2.0934
 5941TIP3   OH239381   2.446   0.848   8.356  0.0544 -0.6388 -0.4902
 5941TIP3    H139382   2.352   0.839   8.344  0.2069 -0.7121 -1.7320
 5941TIP3    H239383   2.484   0.816   8.275  1.0923  0.6794 -0.5606
 5942TIP3   OH239384   6.778   2.212   1.360  0.8217 -0.1327 -0.0201
 5942TIP3    H139385   6.744   2.249   1.442  0.9680  1.8000 -0.7890
 5942TIP3    H239386   6.856   2.163   1.387  0.9790  0.6344  0.9808
 5943TIP3   OH239387   6.630   6.236   1.734  0.5075 -0.1474  0.2568
 5943TIP3    H139388   6.536   6.222   1.729  0.5241 -0.5058  0.8468
 5943TIP3    H239389   6.642   6.294   1.809  0.7749 -0.3168  0.3460
 5944TIP3   OH239390   1.588   2.462   0.348  0.5836 -0.0144 -0.8315
 5944TIP3    H139391   1.552   2.456   0.436 -1.6542  2.0680 -1.5009
 5944TIP3    H239392   1.673   2.505   0.359  1.1967 -1.4442  0.4199
 5945TIP3   OH239393   3.527   4.864   7.527  0.3925  0.1384 -0.1990
 5945TIP3    H139394   3.562   4.953   7.521  1.8483 -0.2766  1.1673
 5945TIP3    H239395   3.599   4.813   7.565 -0.5856 -1.5186 -0.4677
 5946TIP3   OH239396   0.144   6.783   6.999 -0.1689 -0.4080 -0.0619
 5946TIP3    H139397   0.187   6.865   7.022  0.8136 -0.8897 -0.1244
 5946TIP3    H239398   0.215   6.720   6.990 -0.4861 -0.4950 -3.5632
 5947TIP3   OH239399   3.313   2.535   7.684 -0.2199 -0.1791 -0.5540
 5947TIP3    H139400   3.336   2.623   7.653  1.5551 -0.4772 -0.1858
 5947TIP3    H239401   3.283   2.549   7.774  0.7082  0.0138 -0.2568
 5948TIP3   OH239402   4.171   2.176   6.316  0.1373 -0.6143  0.4039
 5948TIP3    H139403   4.173   2.140   6.405  2.0823 -0.6521  0.4043
 5948TIP3    H239404   4.079   2.176   6.292 -0.5756  0.3928  2.8134
 5949TIP3   OH239405   5.909   0.379   8.040  0.0834  0.2703 -0.1007
 5949TIP3    H139406   5.870   0.292   8.036  0.0186  0.3246 -0.7108
 5949TIP3    H239407   5.852   0.428   8.100 -0.7267  0.3141 -0.8913
 5950TIP3   OH239408   6.168   6.077   7.027  0.0361 -0.1411  0.6769
 5950TIP3    H139409   6.183   6.009   6.961 -3.0671 -1.0257  0.7496
 5950TIP3    H239410   6.231   6.057   7.097 -0.1041 -2.3113  0.2386
 5951TIP3   OH239411   6.188   2.393   7.262 -0.6559 -0.0001 -0.0416
 5951TIP3    H139412   6.276   2.416   7.233 -0.9087 -1.4333 -2.1998
 5951TIP3    H239413   6.178   2.437   7.346  2.6898 -1.0438  1.0670
 5952TIP3   OH239414   2.642   3.247   7.477 -0.1297  0.0631 -0.6636
 5952TIP3    H139415   2.650   3.151   7.476 -1.8222 -0.0954 -1.3991
 5952TIP3    H239416   2.729   3.277   7.451  0.9268 -1.2035  1.1703
 5953TIP3   OH239417   1.857   2.706   0.695 -0.2951  0.5596 -0.0541
 5953TIP3    H139418   1.853   2.688   0.789 -1.4433 -3.2918 -0.6904
 5953TIP3    H239419   1.950   2.695   0.672 -0.3015 -0.3523  0.3359
 5954TIP3   OH239420   3.470   2.435   7.882  0.3701 -0.3031  0.6260
 5954TIP3    H139421   3.450   2.503   7.946  1.2294  1.5077 -0.9287
 5954TIP3    H239422   3.399   2.441   7.818 -0.1128 -1.6210  1.0098
 5955TIP3   OH239423   6.453   1.194   0.269  0.6646 -0.3318 -0.1683
 5955TIP3    H139424   6.475   1.246   0.346 -0.9142 -2.3344  1.7597
 5955TIP3    H239425   6.419   1.258   0.205  4.6359  1.7860 -0.4649
 5956TIP3   OH239426   3.199   4.058   2.385  0.0451 -0.5324 -0.5807
 5956TIP3    H139427   3.259   3.985   2.400 -0.6104 -0.8029  0.9580
 5956TIP3    H239428   3.157   4.038   2.301  0.8934 -1.1922 -0.8625
 5957TIP3   OH239429   5.004   6.582   0.533 -0.4020  0.5143 -0.6752
 5957TIP3    H139430   4.928   6.630   0.500 -2.4136 -2.4647 -0.6958
 5957TIP3    H239431   5.019   6.513   0.470  0.5293 -0.6744  0.7808
 5958TIP3   OH239432   5.260   3.437   8.009 -0.0678 -0.2900 -0.5788
 5958TIP3    H139433   5.273   3.349   7.974  0.3008 -0.1879 -0.6957
 5958TIP3    H239434   5.330   3.489   7.970  0.0448 -0.0660 -0.0808
 5959TIP3   OH239435   2.924   6.024   8.389 -0.0575  0.0840 -0.5115
 5959TIP3    H139436   2.950   5.940   8.352  1.4987 -0.4851  1.6374
 5959TIP3    H239437   2.850   6.003   8.446 -1.2935  0.6472 -1.8522
 5960TIP3   OH239438   3.766   3.544   2.135 -0.4870 -0.0130  0.6129
 5960TIP3    H139439   3.846   3.576   2.095 -1.2796 -0.0497 -1.0726
 5960TIP3    H239440   3.703   3.615   2.124 -1.3678 -0.9063 -0.3282
 5961TIP3   OH239441   6.348   4.881   7.344  0.5326 -0.0378 -0.6091
 5961TIP3    H139442   6.324   4.841   7.261  2.5076 -0.9715 -0.7871
 5961TIP3    H239443   6.342   4.811   7.409 -1.3173  0.7563  0.1781
 5962TIP3   OH239444   3.505   0.979   7.789 -0.3828  0.0914  0.1439
 5962TIP3    H139445   3.464   0.983   7.703  0.5093  0.5205 -0.2825
 5962TIP3    H239446   3.579   1.041   7.783 -0.1452 -0.0787  1.1225
 5963TIP3   OH239447   0.836   0.799   1.261  0.3133  0.6806  0.7368
 5963TIP3    H139448   0.885   0.717   1.272 -0.5162  0.0104 -0.4278
 5963TIP3    H239449   0.822   0.830   1.351  5.0550  2.3004  1.1988
 5964TIP3   OH239450   1.444   1.858   7.874 -0.9845  0.1172  0.7851
 5964TIP3    H139451   1.477   1.947   7.860 -0.8377 -0.2115 -1.1505
 5964TIP3    H239452   1.512   1.816   7.927  0.4980  0.2456 -0.9284
 5965TIP3   OH239453   5.445   2.521   0.572  0.0436 -0.4425  0.8615
 5965TIP3    H139454   5.464   2.539   0.664  1.3492  0.9886  0.3660
 5965TIP3    H239455   5.472   2.601   0.527 -0.5020 -1.1489 -0.7775
 5966TIP3   OH239456   0.642   5.231   2.026  0.0663 -0.1488 -0.1425
 5966TIP3    H139457   0.655   5.151   2.077 -1.1605 -0.8332 -0.8534
 5966TIP3    H239458   0.644   5.301   2.092  1.6292 -0.6880  0.4307
 5967TIP3   OH239459   0.860   3.842   1.413  0.3893  0.2479  0.0721
 5967TIP3    H139460   0.888   3.759   1.374  0.2225 -0.7135  1.8800
 5967TIP3    H239461   0.940   3.895   1.415  0.5075  0.1336 -1.0533
 5968TIP3   OH239462   5.908   0.194   6.931  0.1569  0.8459  0.7124
 5968TIP3    H139463   5.993   0.222   6.897  0.4181 -0.5860  0.1369
 5968TIP3    H239464   5.926   0.167   7.021  0.3431  0.3755  0.5334
 5969TIP3   OH239465   5.689   6.311   0.560 -0.4042 -0.3311  0.4315
 5969TIP3    H139466   5.759   6.246   0.567 -0.7560 -0.8183 -0.4786
 5969TIP3    H239467   5.673   6.337   0.651 -1.0614 -2.3773  0.9547
 5970TIP3   OH239468   1.450   0.192   8.116  0.5998 -0.3657 -0.6600
 5970TIP3    H139469   1.530   0.215   8.069  1.4513 -1.5166  0.1816
 5970TIP3    H239470   1.479   0.166   8.203 -1.0186  2.7434  0.9912
 5971TIP3   OH239471   2.132   4.925   0.248 -1.0007  0.1400 -0.2410
 5971TIP3    H139472   2.133   4.914   0.153  1.7689 -0.1851 -0.2638
 5971TIP3    H239473   2.225   4.929   0.272 -1.5151 -2.2391  2.7191
 5972TIP3   OH239474   5.523   1.768   1.230 -0.4942  0.2776 -0.0117
 5972TIP3    H139475   5.611   1.732   1.220 -1.5263 -1.8191 -2.5903
 5972TIP3    H239476   5.533   1.861   1.213  1.1082 -0.0764 -1.2445
 5973TIP3   OH239477   0.836   2.780   0.389  0.2812  0.3042 -0.2713
 5973TIP3    H139478   0.890   2.846   0.345  1.8188  1.3000  2.8195
 5973TIP3    H239479   0.822   2.816   0.476 -0.7931 -2.4745  0.7872
 5974TIP3   OH239480   0.973   4.184   1.318  0.3499  0.2331  0.5510
 5974TIP3    H139481   0.909   4.255   1.316 -0.3469 -0.3861  0.2277
 5974TIP3    H239482   0.956   4.134   1.238 -0.2455 -1.2052  1.5410
 5975TIP3   OH239483   5.918   2.084   2.152  0.5092 -0.1988  0.2566
 5975TIP3    H139484   5.900   2.033   2.230  0.6947  0.7096  0.9068
 5975TIP3    H239485   5.876   2.035   2.081 -0.9932 -0.2450  1.1331
 5976TIP3   OH239486   0.568   1.277   0.446 -0.1057 -0.1688  0.3698
 5976TIP3    H139487   0.638   1.303   0.386  1.2445  0.3682  2.1041
 5976TIP3    H239488   0.610   1.220   0.510 -0.5245  2.3290  3.0886
 5977TIP3   OH239489   4.150   1.331   1.303  0.1278  0.3194  0.0507
 5977TIP3    H139490   4.105   1.286   1.375  1.3699 -3.2448 -1.1729
 5977TIP3    H239491   4.232   1.363   1.342  0.0121 -0.0478  0.5992
 5978TIP3   OH239492   0.277   3.973   7.006 -0.1062  0.3368  0.4114
 5978TIP3    H139493   0.190   3.985   6.967  0.4967 -0.2033 -1.1717
 5978TIP3    H239494   0.289   3.879   7.009  0.8688  0.4259 -0.4167
 5979TIP3   OH239495   1.234   1.596   7.466  0.1694  0.2494  0.4861
 5979TIP3    H139496   1.198   1.629   7.384 -0.8717 -0.6775  0.5424
 5979TIP3    H239497   1.328   1.590   7.450  0.1390  1.2548 -0.2007
 5980TIP3   OH239498   3.967   5.677   1.264 -0.0479 -0.1789 -0.3543
 5980TIP3    H139499   3.956   5.769   1.239 -1.1367 -0.3217 -0.4254
 5980TIP3    H239500   4.007   5.680   1.351  2.9445  0.3347 -1.6157
 5981TIP3   OH239501   2.564   5.633   1.333 -0.1923 -0.0003 -0.2372
 5981TIP3    H139502   2.521   5.718   1.320 -0.3619 -0.2666 -1.5012
 5981TIP3    H239503   2.645   5.654   1.379 -1.7081  0.5035  2.4285
 5982TIP3   OH239504   0.262   5.720   0.319 -0.7862  0.0826 -0.1101
 5982TIP3    H139505   0.228   5.809   0.315 -0.4194  0.2000 -0.6800
 5982TIP3    H239506   0.353   5.727   0.292 -0.5971 -0.3883  0.3805
 5983TIP3   OH239507   2.751   3.640   1.217  0.4558  0.0201 -0.1482
 5983TIP3    H139508   2.700   3.697   1.275 -1.3377 -2.4746  0.8949
 5983TIP3    H239509   2.828   3.617   1.269  0.5611  0.4673 -0.0973
 5984TIP3   OH239510   0.126   0.787   7.789 -0.4279 -0.2697 -0.1380
 5984TIP3    H139511   0.197   0.835   7.832 -0.5804 -0.4140  0.2771
 5984TIP3    H239512   0.088   0.850   7.728 -0.0480 -0.1411 -0.2424
 5985TIP3   OH239513   6.623   4.611   1.146 -0.0457 -0.0676  0.1543
 5985TIP3    H139514   6.674   4.659   1.211 -1.0557  0.7711  0.3647
 5985TIP3    H239515   6.631   4.519   1.171  1.3426  0.0403  0.1671
 5986TIP3   OH239516   2.473   6.299   0.656 -0.4028 -0.5074  0.1181
 5986TIP3    H139517   2.470   6.255   0.741  3.0987  1.2825  1.3642
 5986TIP3    H239518   2.408   6.368   0.662  0.3567  0.1102  1.7419
 5987TIP3   OH239519   0.683   5.317   8.484  0.3470  0.0317  0.4666
 5987TIP3    H139520   0.648   5.263   8.555 -0.2429  0.5382  0.5625
 5987TIP3    H239521   0.753   5.263   8.445  0.4555 -0.3785  1.2154
 5988TIP3   OH239522   6.728   2.569   6.847  0.0490 -0.0806 -0.3598
 5988TIP3    H139523   6.782   2.541   6.921  1.4469 -0.1063 -1.3472
 5988TIP3    H239524   6.690   2.489   6.813 -0.0879 -0.1453 -0.0571
 5989TIP3   OH239525   2.812   5.344   0.057  0.0086  0.5625 -0.2612
 5989TIP3    H139526   2.849   5.263   0.094  1.4401  0.6273 -1.4685
 5989TIP3    H239527   2.777   5.390   0.133  0.4479 -0.5336  0.6506
 5990TIP3   OH239528   3.714   2.349   5.976 -0.0553 -0.4007 -0.1939
 5990TIP3    H139529   3.758   2.336   6.060 -0.2608 -1.1044 -0.1947
 5990TIP3    H239530   3.642   2.409   5.995 -0.2245 -0.7240  0.1664
 5991TIP3   OH239531   4.154   5.845   0.483 -0.3944  0.3972  0.2412
 5991TIP3    H139532   4.249   5.853   0.491 -0.6142  1.8385  1.8258
 5991TIP3    H239533   4.128   5.794   0.559 -0.7720 -1.6798 -1.1717
 5992TIP3   OH239534   3.812   6.282   1.085 -0.1735 -0.1168 -0.3696
 5992TIP3    H139535   3.903   6.310   1.094 -0.2780  0.6646 -1.5498
 5992TIP3    H239536   3.780   6.274   1.175  1.5771 -2.2129  0.1594
 5993TIP3   OH239537   3.612   1.368   7.460  0.2088 -0.5921  0.3040
 5993TIP3    H139538   3.637   1.459   7.445 -1.3865  0.5346  3.4880
 5993TIP3    H239539   3.634   1.353   7.552 -1.6568 -2.6636  0.4833
 5994TIP3   OH239540   1.779   2.079   0.511 -0.2250 -0.3414  0.4141
 5994TIP3    H139541   1.826   2.000   0.540  1.2328 -0.2106 -1.4567
 5994TIP3    H239542   1.711   2.046   0.453  2.8136 -0.1941 -3.6257
 5995TIP3   OH239543   0.128   5.498   0.271 -0.3091 -0.1805 -0.0237
 5995TIP3    H139544   0.179   5.575   0.296  2.0935 -1.3599 -0.9502
 5995TIP3    H239545   0.163   5.473   0.185 -0.6908 -2.5166  0.4186
 5996TIP3   OH239546   1.273   3.494   7.150  0.8271  0.5164 -0.5569
 5996TIP3    H139547   1.254   3.550   7.075  1.8335  0.3161 -0.9898
 5996TIP3    H239548   1.275   3.405   7.113 -2.9593 -0.1625  0.5035
 5997TIP3   OH239549   1.688   2.004   7.294 -0.1821  0.2450  0.2034
 5997TIP3    H139550   1.738   2.084   7.278 -1.9395  1.3224 -0.1957
 5997TIP3    H239551   1.740   1.956   7.359  1.7889  0.8525 -0.8483
 5998TIP3   OH239552   6.091   3.026   0.738 -0.3297  0.4838 -0.1124
 5998TIP3    H139553   6.153   3.098   0.753 -1.5014  1.4891  0.0310
 5998TIP3    H239554   6.076   2.988   0.824  1.7352 -1.2111 -0.4247
 5999TIP3   OH239555   5.774   1.919   5.880  0.7578 -0.1707  0.3262
 5999TIP3    H139556   5.780   1.842   5.936  0.9746 -0.5883 -0.2619
 5999TIP3    H239557   5.809   1.890   5.795  1.6339  0.8034  0.3301
 6000TIP3   OH239558   4.712   6.063   7.442  0.3778  0.1880 -0.7047
 6000TIP3    H139559   4.694   5.975   7.408 -1.6815  0.4073 -0.3289
 6000TIP3    H239560   4.703   6.054   7.537  0.9396  0.6466 -0.6054
 6001TIP3   OH239561   3.814   1.817   7.966 -0.1589  0.0701  0.0663
 6001TIP3    H139562   3.891   1.820   7.909 -2.2130  1.4066 -2.8818
 6001TIP3    H239563   3.740   1.808   7.906 -2.4853  1.0877  2.5658
 6002TIP3   OH239564   3.457   0.730   0.163  0.1192  0.4806  0.9838
 6002TIP3    H139565   3.505   0.705   0.085 -0.6431  0.5919  0.4776
 6002TIP3    H239566   3.507   0.804   0.199 -1.1111  2.4524 -1.0656
 6003TIP3   OH239567   0.134   0.015   6.271  0.3446 -0.3545 -0.0912
 6003TIP3    H139568   0.157  -0.044   6.343 -0.2192 -0.6238 -0.1282
 6003TIP3    H239569   0.053  -0.021   6.235 -1.7795  2.1391  1.8265
 6004TIP3   OH239570   2.333   4.976   0.661 -0.2522 -0.0682 -0.0147
 6004TIP3    H139571   2.257   4.959   0.606  0.7511  1.9633 -2.2629
 6004TIP3    H239572   2.333   4.906   0.726 -2.9232 -1.2062 -1.1056
 6005TIP3   OH239573   6.385   0.550   0.327  0.5805 -0.0111 -0.1371
 6005TIP3    H139574   6.398   0.521   0.417 -1.8314 -0.9040  0.0020
 6005TIP3    H239575   6.333   0.630   0.335  1.5773  0.7338 -0.7405
 6006TIP3   OH239576   2.874   5.841   6.352 -0.0741  0.1949  0.0455
 6006TIP3    H139577   2.810   5.859   6.282 -0.4533  0.8563  0.5543
 6006TIP3    H239578   2.868   5.917   6.410 -0.3189 -0.6845  1.2072
 6007TIP3   OH239579   0.892   6.845   7.286 -0.5553  0.1502  0.3082
 6007TIP3    H139580   0.930   6.932   7.301 -0.7146  0.2723  0.0068
 6007TIP3    H239581   0.856   6.849   7.197  0.1245 -0.4701 -0.0083
 6008TIP3   OH239582   0.253   3.784   1.992 -0.0702 -0.2417 -0.6019
 6008TIP3    H139583   0.272   3.872   1.958  3.2540 -0.4535  0.3691
 6008TIP3    H239584   0.333   3.735   1.977 -0.5672 -2.0777  2.1355
 6009TIP3   OH239585   6.579   3.109   1.322  0.5469  0.3319  0.6764
 6009TIP3    H139586   6.616   3.093   1.409 -1.9756  0.6726  1.9161
 6009TIP3    H239587   6.484   3.099   1.334 -0.0147  1.8576 -1.7086
 6010TIP3   OH239588   3.057   5.759   2.295  0.9175  0.4961 -0.4724
 6010TIP3    H139589   3.089   5.689   2.353  0.7380 -0.7796 -1.8589
 6010TIP3    H239590   3.126   5.826   2.299  0.2842  1.1328  2.2610
 6011TIP3   OH239591   0.588   6.260   1.140 -0.7992 -0.6995 -0.5225
 6011TIP3    H139592   0.576   6.274   1.046  2.8221  0.0529 -1.0234
 6011TIP3    H239593   0.650   6.188   1.145 -3.2667 -2.8446  1.5012
 6012TIP3   OH239594   6.877   4.837   0.651 -1.1278 -0.0547  0.3979
 6012TIP3    H139595   6.867   4.928   0.622  0.6826  0.5012  1.3228
 6012TIP3    H239596   6.852   4.839   0.743  0.7749 -0.0119  0.9633
 6013TIP3   OH239597   0.787   1.822   6.961 -0.2599  0.5695 -0.8473
 6013TIP3    H139598   0.746   1.907   6.978  0.8992  1.4574 -2.2319
 6013TIP3    H239599   0.760   1.800   6.871 -0.4364 -0.4739 -0.5479
 6014TIP3   OH239600   3.739   1.415   1.772 -0.1001  0.4026  0.1596
 6014TIP3    H139601   3.654   1.380   1.798  0.7753 -1.2855  0.9249
 6014TIP3    H239602   3.727   1.510   1.773 -2.0649  0.2104 -0.1403
 6015TIP3   OH239603   1.600   1.981   0.333 -0.0087  0.5578 -0.2865
 6015TIP3    H139604   1.592   2.045   0.263 -0.9460 -0.2149 -0.9101
 6015TIP3    H239605   1.511   1.947   0.345  0.5809 -1.2185 -0.5563
 6016TIP3   OH239606   4.596   3.171   8.012 -0.7150  0.0450  0.3718
 6016TIP3    H139607   4.542   3.094   8.029 -0.4242 -0.2326  0.0427
 6016TIP3    H239608   4.625   3.161   7.921 -1.3251  0.9368  0.0608
 6017TIP3   OH239609   6.680   0.068   8.213 -0.4581 -0.1902 -0.1164
 6017TIP3    H139610   6.628  -0.009   8.237  1.0033 -0.8322  1.1396
 6017TIP3    H239611   6.621   0.142   8.229 -0.9871 -0.8882  1.3937
 6018TIP3   OH239612   6.052   3.454   6.911  0.3353  0.3041  0.9086
 6018TIP3    H139613   5.973   3.496   6.875  0.8125  0.5272  0.0922
 6018TIP3    H239614   6.071   3.384   6.849  1.4824  1.0284  0.4135
 6019TIP3   OH239615   4.784   3.877   1.571  0.3558  1.0332  0.2523
 6019TIP3    H139616   4.852   3.867   1.505  0.9944  2.1651  0.7092
 6019TIP3    H239617   4.704   3.845   1.529  1.4190 -2.0567  0.2815
 6020TIP3   OH239618   6.845   2.009   6.797 -0.1828  0.3467 -0.2184
 6020TIP3    H139619   6.897   1.932   6.775 -2.4474 -1.9650  1.8325
 6020TIP3    H239620   6.825   2.050   6.713  0.6564 -1.6356 -1.4474
 6021TIP3   OH239621   0.417   2.218   0.684 -0.2585  0.2526  0.0016
 6021TIP3    H139622   0.511   2.234   0.683  0.0942 -1.2418  1.9722
 6021TIP3    H239623   0.398   2.180   0.599  0.7632  1.2274 -0.6887
 6022TIP3   OH239624   2.013   3.956   0.396 -0.0203  0.0281  0.3993
 6022TIP3    H139625   2.033   3.892   0.328 -3.9952 -0.8997 -0.1296
 6022TIP3    H239626   2.011   4.040   0.350 -0.7055 -0.3216 -0.2243
 6023TIP3   OH239627   6.081   3.891   7.920  0.0570  0.0710 -0.0747
 6023TIP3    H139628   6.124   3.959   7.972  1.5981 -1.3609  0.6190
 6023TIP3    H239629   6.152   3.835   7.890 -1.2225 -1.6696  0.0073
 6024TIP3   OH239630   3.154   6.275   7.092  0.1780  0.6631  0.5162
 6024TIP3    H139631   3.155   6.277   6.996  0.6697 -0.4681  0.4754
 6024TIP3    H239632   3.108   6.194   7.113  0.1716  0.8508  1.2373
 6025TIP3   OH239633   0.460   0.354   6.308  0.2859  0.8751  0.7269
 6025TIP3    H139634   0.454   0.450   6.309 -1.8158  0.8099  0.4940
 6025TIP3    H239635   0.472   0.332   6.216 -0.1566  0.8980  0.6611
 6026TIP3   OH239636   2.099   1.559   0.287 -0.0913  0.1209 -0.3320
 6026TIP3    H139637   2.052   1.477   0.304  1.1757 -0.7999 -1.0701
 6026TIP3    H239638   2.036   1.614   0.242  0.0339 -1.8250 -3.1309
 6027TIP3   OH239639   6.558   5.096   6.475  1.0123  0.0031 -0.0919
 6027TIP3    H139640   6.630   5.033   6.466  0.9352 -0.0634 -0.2573
 6027TIP3    H239641   6.547   5.131   6.386  1.2075  0.4192  0.0455
 6028TIP3   OH239642   5.394   1.125   1.867 -0.4173 -0.1864  0.0267
 6028TIP3    H139643   5.482   1.089   1.873 -0.6009 -0.3543  2.1916
 6028TIP3    H239644   5.398   1.207   1.916 -1.1318  0.5734 -1.1093
 6029TIP3   OH239645   2.804   5.732   7.442  0.1326  0.8378 -0.0754
 6029TIP3    H139646   2.734   5.727   7.377  0.1763  3.7863 -0.5092
 6029TIP3    H239647   2.860   5.657   7.423 -1.0842  0.3241 -1.9523
 6030TIP3   OH239648   2.701   4.996   7.441 -0.4597  0.2544  0.0491
 6030TIP3    H139649   2.647   4.986   7.363 -2.2892  2.6154  0.9091
 6030TIP3    H239650   2.692   4.912   7.487 -1.3534 -0.2848 -1.0495
 6031TIP3   OH239651   4.997   6.427   8.271 -0.2260  0.0487 -0.4901
 6031TIP3    H139652   4.956   6.345   8.242  0.8674  0.2035 -2.7173
 6031TIP3    H239653   5.091   6.410   8.267  0.0093  0.9515  0.5599
 6032TIP3   OH239654   2.958   0.024   1.753 -0.0006  0.4411  0.3015
 6032TIP3    H139655   3.013   0.040   1.829 -1.1006  0.0375  1.2096
 6032TIP3    H239656   2.870   0.049   1.781 -0.4962 -0.1109 -0.7001
 6033TIP3   OH239657   6.682   3.635   7.766 -0.7721  0.5543  0.4011
 6033TIP3    H139658   6.733   3.669   7.692  0.0285 -2.5934 -0.6514
 6033TIP3    H239659   6.736   3.653   7.843 -0.6769  2.0918  0.0097
 6034TIP3   OH239660   0.677   2.782   7.973 -0.0964 -0.6235 -0.4067
 6034TIP3    H139661   0.623   2.736   7.909  0.4161  0.0128 -1.3149
 6034TIP3    H239662   0.667   2.875   7.951 -1.1085 -0.2543  1.3781
 6035TIP3   OH239663   4.538   0.709   6.702 -0.7137 -0.6903 -0.2139
 6035TIP3    H139664   4.486   0.789   6.692  0.9200  0.6189  1.2022
 6035TIP3    H239665   4.621   0.728   6.658  0.2876 -0.9949  1.4855
 6036TIP3   OH239666   4.072   3.358   0.112 -0.1643  0.4765  0.1699
 6036TIP3    H139667   4.155   3.402   0.131 -0.0946  0.3918  0.0628
 6036TIP3    H239668   4.027   3.417   0.052 -0.2767  0.6263  0.4029
 6037TIP3   OH239669   6.193   0.759   6.891 -0.0456  0.1845 -0.3082
 6037TIP3    H139670   6.214   0.674   6.929 -0.4108  0.7947  1.3526
 6037TIP3    H239671   6.106   0.780   6.923  0.7050  1.9355  0.7712
 6038TIP3   OH239672   3.514   0.256   1.291 -0.0395  0.0813 -0.3750
 6038TIP3    H139673   3.481   0.341   1.319  1.2078  0.6487 -0.5719
 6038TIP3    H239674   3.519   0.204   1.371  0.8063  0.7601  0.0241
 6039TIP3   OH239675   0.403   1.238   7.469 -0.1027  0.0726 -0.4920
 6039TIP3    H139676   0.486   1.217   7.425 -0.1348 -0.0535 -0.4926
 6039TIP3    H239677   0.396   1.173   7.539 -1.0483 -1.0472 -1.5697
 6040TIP3   OH239678   1.516   6.206   8.531  0.1826 -0.2888  0.0202
 6040TIP3    H139679   1.533   6.189   8.439 -0.4385  0.1134 -0.1767
 6040TIP3    H239680   1.427   6.172   8.545 -0.1264  0.5744  0.2130
 6041TIP3   OH239681   0.471   5.194   7.807 -0.0255 -0.0916  0.0999
 6041TIP3    H139682   0.449   5.274   7.856  1.7033 -0.2087  1.1404
 6041TIP3    H239683   0.564   5.181   7.823 -0.2449 -2.2663 -0.1514
 6042TIP3   OH239684   6.045   2.508   1.366  0.1548  0.1548 -0.5195
 6042TIP3    H139685   6.123   2.470   1.325  0.2514  1.0335 -1.1934
 6042TIP3    H239686   6.028   2.452   1.441  0.8173 -0.6728 -0.9618
 6043TIP3   OH239687   0.759   6.691   7.490  0.4632 -0.3408 -0.5460
 6043TIP3    H139688   0.729   6.773   7.528 -0.1483 -0.5048 -0.6567
 6043TIP3    H239689   0.835   6.714   7.438 -0.6388  0.4316 -1.8758
 6044TIP3   OH239690   1.958   2.743   7.794 -0.3604 -0.1349 -0.3637
 6044TIP3    H139691   2.046   2.778   7.784 -0.9071  1.1191 -1.0453
 6044TIP3    H239692   1.960   2.658   7.751  0.4696 -0.0411 -0.5150
 6045TIP3   OH239693   0.148   2.792   6.717 -0.3387 -0.3338  0.6269
 6045TIP3    H139694   0.065   2.817   6.756 -0.2993 -2.2612  2.0842
 6045TIP3    H239695   0.215   2.823   6.779 -0.0112  0.1992  0.0263
 6046TIP3   OH239696   3.561   1.018   1.944  0.0979  0.1287  0.1301
 6046TIP3    H139697   3.470   0.988   1.944  0.1431 -0.0294 -0.5419
 6046TIP3    H239698   3.605   0.961   2.006 -0.4524  0.8197  1.1850
 6047TIP3   OH239699   4.201   6.821   7.788  0.0613  0.2316  0.6770
 6047TIP3    H139700   4.190   6.860   7.874  0.6068  1.5727  0.1709
 6047TIP3    H239701   4.230   6.731   7.805 -1.7290 -0.1605  1.8814
 6048TIP3   OH239702   4.110   2.606   2.087 -0.0001  0.3329 -0.3698
 6048TIP3    H139703   4.118   2.628   2.180  0.6681 -1.8138  0.1373
 6048TIP3    H239704   4.019   2.625   2.065 -0.4057  0.0627  0.9789
 6049TIP3   OH239705   2.497   4.178   7.090 -0.3255 -0.4673 -0.1254
 6049TIP3    H139706   2.533   4.137   7.168 -1.2218 -2.3560 -0.6448
 6049TIP3    H239707   2.429   4.118   7.060 -1.2073  1.0544 -1.3880
 6050TIP3   OH239708   4.252   2.958   7.671  0.0350  0.0266  0.3085
 6050TIP3    H139709   4.346   2.946   7.684  0.4896  0.7742 -1.8279
 6050TIP3    H239710   4.221   2.873   7.640 -0.2250 -0.4956  1.8930
 6051TIP3   OH239711   6.331   2.678   8.339 -0.4891 -0.5893  0.0304
 6051TIP3    H139712   6.298   2.697   8.426 -1.2143 -0.1260 -0.3400
 6051TIP3    H239713   6.426   2.669   8.350 -0.5961 -0.6702  0.8828
 6052TIP3   OH239714   2.992   4.059   0.272  0.4169 -0.8384  0.2151
 6052TIP3    H139715   3.067   4.068   0.331 -0.5103 -1.3748  1.5399
 6052TIP3    H239716   2.989   4.141   0.224  1.1402 -0.3347  0.9964
 6053TIP3   OH239717   0.202   0.578   7.938  0.1101  1.0062  0.2610
 6053TIP3    H139718   0.273   0.643   7.945  0.8303  0.2932 -0.2501
 6053TIP3    H239719   0.143   0.614   7.872  1.2427  0.4999 -1.0875
 6054TIP3   OH239720   0.475   5.753   1.555 -0.1393  0.2000  0.5124
 6054TIP3    H139721   0.422   5.704   1.618 -0.2894 -2.4742 -1.5134
 6054TIP3    H239722   0.557   5.769   1.601 -1.0332  0.3428  2.1307
 6055TIP3   OH239723   3.600   3.445   7.291 -0.2731 -0.1805  0.0345
 6055TIP3    H139724   3.645   3.397   7.360 -1.3618 -1.5057 -0.1447
 6055TIP3    H239725   3.572   3.378   7.229 -0.0809  0.8960 -1.2759
 6056TIP3   OH239726   5.641   0.505   0.380  0.1431 -0.2257 -0.6146
 6056TIP3    H139727   5.568   0.523   0.439 -0.2298 -1.4291 -0.6830
 6056TIP3    H239728   5.716   0.489   0.437 -0.1312 -1.0164 -0.4605
 6057TIP3   OH239729   3.678   0.700   1.481 -0.2914 -0.0630 -0.3657
 6057TIP3    H139730   3.770   0.694   1.454  0.7646 -0.8440  3.0434
 6057TIP3    H239731   3.653   0.789   1.457  1.0951 -0.0534 -1.9888
 6058TIP3   OH239732   0.472   3.736   1.009  0.3975 -0.4153  0.2382
 6058TIP3    H139733   0.398   3.784   1.045  0.0421 -0.6468 -0.1831
 6058TIP3    H239734   0.527   3.803   0.967 -0.7740 -0.5155 -1.5398
 6059TIP3   OH239735   2.175   5.336   8.179 -0.2287 -0.3263 -0.8675
 6059TIP3    H139736   2.158   5.243   8.196 -0.7259 -0.2509 -0.9546
 6059TIP3    H239737   2.264   5.338   8.143 -0.1239 -0.7432 -0.6317
 6060TIP3   OH239738   5.170   1.610   1.938 -0.0407  0.3589 -0.4547
 6060TIP3    H139739   5.184   1.658   1.856 -1.4332  1.5215 -0.0534
 6060TIP3    H239740   5.254   1.617   1.984 -0.0828  2.1432 -0.5645
 6061TIP3   OH239741   0.254   3.344   1.124  0.8402 -0.1555 -0.0161
 6061TIP3    H139742   0.345   3.369   1.141  0.2270  1.3336  1.3055
 6061TIP3    H239743   0.248   3.340   1.029  2.1900  0.1253 -0.1384
 6062TIP3   OH239744   5.777   2.543   7.298 -0.2197  0.4992  0.3335
 6062TIP3    H139745   5.835   2.515   7.227  0.9907  1.6481  0.8288
 6062TIP3    H239746   5.796   2.483   7.369  0.1517  0.6772  0.3891
 6063TIP3   OH239747   6.172   1.067   6.459  0.3453 -0.4565  0.1483
 6063TIP3    H139748   6.078   1.073   6.442  0.7125 -0.9573 -2.5175
 6063TIP3    H239749   6.198   0.982   6.423  2.1532  0.5982 -1.2483
 6064TIP3   OH239750   4.679   1.369   1.753  0.1354  0.1151 -0.0726
 6064TIP3    H139751   4.659   1.369   1.846  1.2402  2.1774  0.2210
 6064TIP3    H239752   4.654   1.456   1.722  1.1736 -0.0103 -1.3663
 6065TIP3   OH239753   2.260   5.028   2.113 -0.1519 -0.1848 -0.5021
 6065TIP3    H139754   2.236   5.108   2.067 -0.3078 -0.1171 -0.3055
 6065TIP3    H239755   2.343   5.048   2.157  1.4464 -1.0784 -2.9116
 6066TIP3   OH239756   0.665   5.522   1.416 -0.4707  0.1877  0.1604
 6066TIP3    H139757   0.594   5.539   1.477 -1.3250  0.4359 -0.8835
 6066TIP3    H239758   0.712   5.605   1.411  0.0432 -0.0336  1.0059
 6067TIP3   OH239759   6.192   4.869   1.935 -0.1557  0.0757  0.4150
 6067TIP3    H139760   6.151   4.843   2.018  0.8281 -0.5220  0.7260
 6067TIP3    H239761   6.243   4.947   1.957 -1.1189  0.8520  0.0140
 6068TIP3   OH239762   2.385   3.083   6.820  0.5295  0.3889  0.7070
 6068TIP3    H139763   2.418   3.005   6.776 -1.0663  1.0280 -1.7933
 6068TIP3    H239764   2.290   3.073   6.820  0.3809  1.2982  2.4672
 6069TIP3   OH239765   5.587   5.961   7.491 -0.7679 -0.1340 -0.2494
 6069TIP3    H139766   5.616   5.979   7.401  0.9802 -0.5430  0.1961
 6069TIP3    H239767   5.520   6.026   7.508 -0.9118  0.1465 -1.7515
 6070TIP3   OH239768   3.511   0.480   0.466  0.4402  0.0242  0.2369
 6070TIP3    H139769   3.596   0.463   0.507  0.8070 -0.4013 -0.6765
 6070TIP3    H239770   3.448   0.477   0.539  1.0331 -1.0631  0.7295
 6071TIP3   OH239771   0.281   3.306   0.823  0.1000  0.9118 -0.0597
 6071TIP3    H139772   0.319   3.280   0.740 -1.2323  3.3008 -1.5064
 6071TIP3    H239773   0.209   3.244   0.836  0.4947  0.3449 -0.5280
 6072TIP3   OH239774   5.136   5.155   1.021 -0.1388  0.2109  0.7382
 6072TIP3    H139775   5.147   5.067   0.986 -1.9350 -0.3582  1.4926
 6072TIP3    H239776   5.195   5.209   0.969  1.0850 -1.4361  0.3295
 6073TIP3   OH239777   6.617   2.529   6.162 -0.3157 -0.3312 -0.6006
 6073TIP3    H139778   6.695   2.477   6.180  0.5105  0.8502 -0.6685
 6073TIP3    H239779   6.650   2.608   6.119 -1.4953  0.4495 -0.1186
 6074TIP3   OH239780   0.180   5.263   7.985  0.3017 -0.2112  0.3182
 6074TIP3    H139781   0.149   5.235   8.071 -1.7272 -0.8303 -0.5595
 6074TIP3    H239782   0.207   5.354   7.997  0.1242 -0.3112  1.6161
 6075TIP3   OH239783   6.346   0.844   0.042 -0.3130  0.0981 -0.4469
 6075TIP3    H139784   6.442   0.846   0.033 -0.4084 -0.0036 -1.7221
 6075TIP3    H239785   6.325   0.751   0.049 -0.3251  0.1111 -0.3165
 6076TIP3   OH239786   1.956   3.009   6.132  0.0902 -0.6412  0.0848
 6076TIP3    H139787   2.009   2.934   6.108  0.1516 -0.9437  1.1348
 6076TIP3    H239788   1.866   2.981   6.117 -0.0027 -1.5597  2.0690
 6077TIP3   OH239789   3.503   3.419   0.325 -0.2281 -0.0833  0.2940
 6077TIP3    H139790   3.463   3.471   0.394 -1.0599 -0.4293  0.0833
 6077TIP3    H239791   3.477   3.463   0.244  1.2285  0.6688  0.1851
 6078TIP3   OH239792   6.607   5.837   6.665 -0.7869 -0.6213  0.2417
 6078TIP3    H139793   6.554   5.915   6.644 -1.0079 -0.4142  1.4841
 6078TIP3    H239794   6.642   5.855   6.752 -1.1726 -2.0840  0.7302
 6079TIP3   OH239795   0.431   5.438   7.193  0.0436 -0.5622 -0.0655
 6079TIP3    H139796   0.464   5.381   7.124 -0.3604 -0.9675  0.0745
 6079TIP3    H239797   0.510   5.479   7.229  0.2518 -0.2998 -0.8017
 6080TIP3   OH239798   6.076   1.732   1.340  0.0575 -0.0706 -0.5935
 6080TIP3    H139799   6.071   1.780   1.257 -0.2024 -0.6793 -0.9454
 6080TIP3    H239800   6.166   1.746   1.371  0.0870  0.3495 -0.8666
 6081TIP3   OH239801   1.548   4.877   7.721  0.4741 -0.2431 -0.1821
 6081TIP3    H139802   1.471   4.888   7.665  0.5934 -1.7819 -0.7052
 6081TIP3    H239803   1.567   4.784   7.717  1.8287 -0.0314  0.6730
 6082TIP3   OH239804   1.817   6.239   8.349 -0.4245 -0.3023 -0.0599
 6082TIP3    H139805   1.771   6.259   8.267 -2.0929 -0.4258  0.8086
 6082TIP3    H239806   1.825   6.144   8.350  0.8999 -0.2162 -0.7344
 6083TIP3   OH239807   3.517   0.562   8.499  0.1500  0.1196  0.0503
 6083TIP3    H139808   3.470   0.597   8.424 -2.6741 -2.6118  0.3241
 6083TIP3    H239809   3.602   0.536   8.465 -0.6349 -0.0050 -1.9220
 6084TIP3   OH239810   4.050   1.929   6.936 -0.1837  0.7463  0.1144
 6084TIP3    H139811   4.097   1.991   6.880 -0.9825  0.7103 -0.6158
 6084TIP3    H239812   4.098   1.930   7.018  2.2716 -0.6913 -1.1569
 6085TIP3   OH239813   6.901   5.630   7.014  0.2034 -0.4732 -0.1757
 6085TIP3    H139814   6.943   5.560   7.065 -0.2258 -0.4498  0.2068
 6085TIP3    H239815   6.920   5.606   6.923  3.1329  0.8174  0.0001
 6086TIP3   OH239816   6.118   1.486   8.298 -0.0040 -0.2307  0.6920
 6086TIP3    H139817   6.048   1.481   8.232  1.0352 -0.5292 -0.4250
 6086TIP3    H239818   6.132   1.579   8.311 -0.3526 -0.1682  0.6433
 6087TIP3   OH239819   1.389   4.993   0.681 -0.3018 -0.2713 -0.0837
 6087TIP3    H139820   1.476   4.981   0.717 -0.1119  1.5560  0.1471
 6087TIP3    H239821   1.386   4.934   0.605  0.5808 -1.4380  0.7562
 6088TIP3   OH239822   6.793   6.137   2.235  0.6659 -0.5958  0.4267
 6088TIP3    H139823   6.806   6.168   2.145  1.1907 -0.5630  0.5120
 6088TIP3    H239824   6.754   6.050   2.224 -2.7521  0.7907  0.1847
 6089TIP3   OH239825   6.637   5.608   7.088  0.6972 -0.1220  0.4149
 6089TIP3    H139826   6.731   5.599   7.073  0.6968  1.3059 -0.6497
 6089TIP3    H239827   6.630   5.669   7.161  0.5926 -1.0650  1.2096
 6090TIP3   OH239828   0.965   5.711   1.774  0.1625 -0.6857  0.3413
 6090TIP3    H139829   0.922   5.626   1.773  1.8831 -1.5958  0.0646
 6090TIP3    H239830   0.985   5.726   1.867 -1.3540  0.0882  0.5667
 6091TIP3   OH239831   6.363   0.800   7.182  0.3269 -0.5693  0.0972
 6091TIP3    H139832   6.324   0.851   7.111 -1.3705 -1.3800  0.4112
 6091TIP3    H239833   6.381   0.865   7.251 -2.1724 -0.3789  0.6435
 6092TIP3   OH239834   6.389   1.158   1.393 -0.4294 -0.3762  0.0764
 6092TIP3    H139835   6.440   1.112   1.459  0.3796 -0.1756 -0.3837
 6092TIP3    H239836   6.397   1.251   1.417  0.5132 -0.2294 -0.6993
 6093TIP3   OH239837   1.980   4.845   0.691  0.0484 -0.1869 -0.2724
 6093TIP3    H139838   1.888   4.827   0.708  0.5360  0.0410  3.1650
 6093TIP3    H239839   1.988   4.940   0.699  0.8626 -0.3656  1.4948
 6094TIP3   OH239840   3.611   1.952   6.871 -0.2502 -0.3134  0.4903
 6094TIP3    H139841   3.698   1.974   6.838  0.3355 -1.8675  0.9218
 6094TIP3    H239842   3.592   2.021   6.934 -0.0160  0.8996 -0.7009
 6095TIP3   OH239843   6.264   6.494   0.690 -0.6931  0.1385  0.2637
 6095TIP3    H139844   6.307   6.579   0.676 -2.2072  0.9881  0.5763
 6095TIP3    H239845   6.328   6.430   0.659  1.2683  1.2556  1.7887
 6096TIP3   OH239846   4.418   3.492   2.446 -0.1131  0.1945 -0.2451
 6096TIP3    H139847   4.422   3.396   2.452 -0.3159  0.2548  1.2119
 6096TIP3    H239848   4.458   3.522   2.528  0.1922  1.3697 -0.8110
 6097TIP3   OH239849   3.706   2.508   7.753  0.8535  0.1559  0.1282
 6097TIP3    H139850   3.746   2.594   7.763 -1.8692  1.4051  1.1716
 6097TIP3    H239851   3.648   2.499   7.829  0.0102 -2.0108 -0.6704
 6098TIP3   OH239852   6.135   5.556   8.214  0.1662  0.1989 -0.1757
 6098TIP3    H139853   6.214   5.562   8.267  0.2278 -0.4281 -0.1945
 6098TIP3    H239854   6.095   5.643   8.221  0.6242  0.3853  0.1867
 6099TIP3   OH239855   0.170   4.965   0.014  0.2954 -0.2789  0.5153
 6099TIP3    H139856   0.112   4.979   0.088 -0.9975  2.8562 -0.9045
 6099TIP3    H239857   0.252   4.934   0.053 -1.3043 -1.8865  2.8637
 6100TIP3   OH239858   0.139   5.424   7.172  0.4013 -0.5543  0.1372
 6100TIP3    H139859   0.114   5.374   7.250 -0.8656 -0.5739 -0.2490
 6100TIP3    H239860   0.231   5.446   7.186  0.2094 -0.5677  1.6286
 6101TIP3   OH239861   3.812   2.445   1.881  0.5892 -0.1617 -0.3485
 6101TIP3    H139862   3.757   2.446   1.959  1.0937  0.0911  0.0088
 6101TIP3    H239863   3.759   2.489   1.814  0.4360  0.2709  0.0481
 6102TIP3   OH239864   6.675   1.007   8.176  1.0058 -0.0646  0.2510
 6102TIP3    H139865   6.629   0.961   8.246  1.3957  0.6195  0.9706
 6102TIP3    H239866   6.694   0.939   8.111 -3.7298  0.0627 -1.6471
 6103TIP3   OH239867   0.264   2.407   7.685 -0.6600 -0.1111  0.3330
 6103TIP3    H139868   0.309   2.401   7.769  0.5469 -0.3728 -0.3130
 6103TIP3    H239869   0.315   2.353   7.626 -0.8815  0.8937 -0.8303
 6104TIP3   OH239870   0.431   3.276   0.592 -0.4627 -0.8853 -0.1981
 6104TIP3    H139871   0.482   3.347   0.630 -1.6501  0.3606 -0.8807
 6104TIP3    H239872   0.497   3.215   0.559  0.5915  0.4701 -0.6896
 6105TIP3   OH239873   0.627   6.120   8.218  0.1891  0.4970 -0.0096
 6105TIP3    H139874   0.708   6.137   8.170  0.2144  0.9351  0.1869
 6105TIP3    H239875   0.626   6.185   8.288 -0.4716  0.6825 -0.1823
 6106TIP3   OH239876   4.855   0.540   1.856  0.2439 -0.9567 -0.6013
 6106TIP3    H139877   4.812   0.625   1.860 -0.1226 -1.0508 -1.9496
 6106TIP3    H239878   4.918   0.541   1.928 -0.7744 -0.1224  0.3040
 6107TIP3   OH239879   2.642   6.670   0.325 -0.6116 -0.7904  0.0566
 6107TIP3    H139880   2.599   6.690   0.409 -0.3644  0.1245 -0.0338
 6107TIP3    H239881   2.691   6.749   0.303  0.7146 -1.6359 -0.1107
 6108TIP3   OH239882   0.471   4.226   7.142 -0.0566  0.2660  0.6716
 6108TIP3    H139883   0.462   4.154   7.079 -1.1881  1.2533 -0.3269
 6108TIP3    H239884   0.510   4.297   7.092  0.7346  0.4945  1.5726
 6109TIP3   OH239885   4.836   2.910   7.317  0.3286  0.6762  0.1319
 6109TIP3    H139886   4.786   2.980   7.277  0.4248  2.2972  2.6313
 6109TIP3    H239887   4.772   2.859   7.367  0.3391 -0.7674 -1.2644
 6110TIP3   OH239888   6.110   3.040   7.291  0.4148  0.2073 -0.0677
 6110TIP3    H139889   6.065   3.117   7.257 -0.3432  0.8494  2.2120
 6110TIP3    H239890   6.197   3.070   7.313  0.2777  0.2943  0.3622
 6111TIP3   OH239891   2.961   5.331   2.366 -0.5942 -0.2553 -0.0954
 6111TIP3    H139892   3.009   5.340   2.284 -1.1375  0.7124 -0.3156
 6111TIP3    H239893   2.940   5.238   2.371 -1.2593 -0.1861 -1.4554
 6112TIP3   OH239894   6.403   3.953   5.933 -0.5384  0.0952 -0.4078
 6112TIP3    H139895   6.416   3.863   5.962 -1.8581  0.0743  0.2383
 6112TIP3    H239896   6.469   3.967   5.865 -1.6299 -2.0496 -2.0312
 6113TIP3   OH239897   2.494   5.722   7.845  0.9359 -0.0101  0.7814
 6113TIP3    H139898   2.555   5.773   7.897  1.0425  1.0085 -0.2999
 6113TIP3    H239899   2.481   5.773   7.765 -0.1991 -0.9101  0.3506
 6114TIP3   OH239900   2.472   1.271   8.502  0.1485 -0.2278 -0.0548
 6114TIP3    H139901   2.384   1.234   8.493 -0.8126  1.3110  2.1680
 6114TIP3    H239902   2.525   1.200   8.539 -0.3230 -0.9563 -0.7655
 6115TIP3   OH239903   5.932   0.722   8.272 -0.4042  0.1473  0.1709
 6115TIP3    H139904   6.009   0.742   8.325 -0.4101  0.8824 -0.0837
 6115TIP3    H239905   5.867   0.787   8.298 -1.3918 -1.2292  1.2893
 6116TIP3   OH239906   1.904   2.235   0.324  0.1188  0.2030  0.1381
 6116TIP3    H139907   1.823   2.236   0.274 -0.8282 -2.2115  1.4541
 6116TIP3    H239908   1.892   2.165   0.388  2.8126  0.5218  1.1278
 6117TIP3   OH239909   5.149   2.563   1.274  0.1241  0.4518 -0.6283
 6117TIP3    H139910   5.183   2.557   1.185  0.3002  0.8678 -0.5897
 6117TIP3    H239911   5.132   2.656   1.287  0.1835  0.4048 -0.1962
 6118TIP3   OH239912   3.538   0.147   1.539  0.4436 -0.1309  0.3367
 6118TIP3    H139913   3.599   0.174   1.606  0.7438  0.1291 -0.0410
 6118TIP3    H239914   3.480   0.084   1.583  0.4794  0.2248  0.8978
 6119TIP3   OH239915   5.782   1.839   6.635  0.3831 -0.0352  0.5966
 6119TIP3    H139916   5.819   1.924   6.610  1.5000 -0.3427  1.0936
 6119TIP3    H239917   5.733   1.809   6.559  2.1114 -0.0950 -0.5399
 6120TIP3   OH239918   0.839   1.134   1.395  0.0786  0.1091 -0.1065
 6120TIP3    H139919   0.921   1.147   1.346 -0.1950 -1.0195 -0.9254
 6120TIP3    H239920   0.853   1.051   1.441 -0.6636 -0.1768 -0.3871
 6121TIP3   OH239921   4.832   1.512   7.613 -0.2555 -0.3420  0.1423
 6121TIP3    H139922   4.786   1.430   7.634  0.0058  0.0260  2.4064
 6121TIP3    H239923   4.872   1.538   7.695 -0.1347  1.9647 -0.5886
 6122TIP3   OH239924   2.133   3.261   1.257  0.1028  0.0151  0.3148
 6122TIP3    H139925   2.194   3.188   1.251 -0.9356 -1.0372  1.6548
 6122TIP3    H239926   2.188   3.337   1.275  1.3474 -0.0904 -2.6352
 6123TIP3   OH239927   0.963   2.823   6.787  0.5284  0.2706  0.1508
 6123TIP3    H139928   1.006   2.884   6.726 -0.2226 -1.3868 -2.1849
 6123TIP3    H239929   0.934   2.878   6.860  2.8282  2.1074 -0.2258
 6124TIP3   OH239930   4.303   3.323   8.129  0.2221  0.8696 -0.3209
 6124TIP3    H139931   4.310   3.234   8.162 -0.1859  1.1267  0.4871
 6124TIP3    H239932   4.363   3.374   8.183 -2.0505  1.6935  1.5771
 6125TIP3   OH239933   2.807   4.225   0.440 -0.3563 -0.2934 -0.4789
 6125TIP3    H139934   2.834   4.248   0.351  1.8699  0.0052  0.2018
 6125TIP3    H239935   2.889   4.224   0.490 -1.6957  1.3458  1.9704
 6126TIP3   OH239936   0.562   5.475   1.173  0.4862  0.5600  0.4170
 6126TIP3    H139937   0.491   5.411   1.181  1.1862 -0.3330 -0.2585
 6126TIP3    H239938   0.589   5.493   1.263 -1.5883  2.1083  0.8136
 6127TIP3   OH239939   0.536   5.159   1.496  0.5626 -0.6926  0.1423
 6127TIP3    H139940   0.605   5.225   1.490 -1.2097  1.1898 -0.7555
 6127TIP3    H239941   0.580   5.077   1.475  2.5514  0.4171 -0.2989
 6128TIP3   OH239942   6.811   5.245   1.209 -0.2936  0.3106  0.2460
 6128TIP3    H139943   6.863   5.266   1.287 -0.2603 -0.9972  0.6039
 6128TIP3    H239944   6.872   5.258   1.136  0.7230 -1.5669  0.6871
 6129TIP3   OH239945   5.265   3.066   6.824  0.3390 -0.3614  0.6334
 6129TIP3    H139946   5.299   3.068   6.914 -0.4169 -0.0831  0.9110
 6129TIP3    H239947   5.173   3.042   6.834  0.5508 -1.5951 -0.1538
 6130TIP3   OH239948   1.514   5.429   1.880  0.8436 -0.7263 -0.5177
 6130TIP3    H139949   1.529   5.501   1.941  0.4417  0.5984 -1.9412
 6130TIP3    H239950   1.564   5.356   1.917  0.8146  0.1014  1.2455
 6131TIP3   OH239951   5.022   1.373   1.887 -0.1334 -0.4707 -0.1214
 6131TIP3    H139952   5.097   1.430   1.905  0.5019 -1.1656 -0.5580
 6131TIP3    H239953   4.960   1.392   1.958  1.0066 -0.8593  1.0043
 6132TIP3   OH239954   3.421   4.037   7.572  0.3146 -0.9146  0.2121
 6132TIP3    H139955   3.469   4.104   7.621  0.7398 -1.3691  0.4197
 6132TIP3    H239956   3.329   4.049   7.598  0.2230  0.2795 -0.5598
 6133TIP3   OH239957   0.070   5.849   0.825  0.1620 -0.7329 -0.2299
 6133TIP3    H139958   0.137   5.782   0.843  1.1212  0.0040 -0.9367
 6133TIP3    H239959   0.110   5.931   0.855 -0.5997 -0.3266 -0.3005
 6134TIP3   OH239960   4.864   6.361   7.873  0.1627 -0.6211 -0.5122
 6134TIP3    H139961   4.826   6.331   7.956 -0.2547  0.6583 -0.2156
 6134TIP3    H239962   4.956   6.378   7.894  0.2429 -1.0315 -0.5165
 6135TIP3   OH239963   4.746   2.003   6.010 -0.1076  0.4646  0.2792
 6135TIP3    H139964   4.682   2.065   6.045 -1.0605 -0.8805  1.0290
 6135TIP3    H239965   4.802   1.982   6.085 -0.1643 -0.0247  0.1860
 6136TIP3   OH239966   4.738   5.881   0.025 -0.2212 -0.0437 -0.1040
 6136TIP3    H139967   4.731   5.944   0.098 -0.6762  1.0474 -1.0629
 6136TIP3    H239968   4.648   5.854   0.009 -0.1544 -0.0615 -0.4427
 6137TIP3   OH239969   5.071   1.733   0.788  0.3380 -0.0070  0.1846
 6137TIP3    H139970   5.079   1.661   0.851  1.2324 -1.4515 -1.4920
 6137TIP3    H239971   4.979   1.729   0.760  0.1554  0.1060  0.7395
 6138TIP3   OH239972   6.667   2.309   7.990  0.8255  0.5983  0.5549
 6138TIP3    H139973   6.632   2.256   7.918  1.6138 -0.4189  0.8914
 6138TIP3    H239974   6.606   2.382   7.997  0.3356  0.3458 -0.6766
 6139TIP3   OH239975   3.158   2.285   1.442  0.3662  0.2696  0.4242
 6139TIP3    H139976   3.173   2.191   1.452 -1.6082  0.0603  2.2645
 6139TIP3    H239977   3.181   2.322   1.527  0.5095  1.3757 -0.0756
 6140TIP3   OH239978   2.263   5.950   7.813  0.2756 -0.5904  0.0441
 6140TIP3    H139979   2.271   5.857   7.835  0.1350 -0.4593  0.6652
 6140TIP3    H239980   2.283   5.996   7.894  1.9935 -0.0177 -0.6528
 6141TIP3   OH239981   2.796   0.978   1.672  0.1569  0.0765  0.1603
 6141TIP3    H139982   2.739   0.962   1.747 -0.9951 -0.9923 -0.8770
 6141TIP3    H239983   2.811   1.072   1.672 -1.8818  0.4392  0.3090
 6142TIP3   OH239984   5.917   4.659   0.211 -0.5217  0.1521 -0.2082
 6142TIP3    H139985   5.960   4.715   0.276 -1.3321  0.6138 -0.0548
 6142TIP3    H239986   5.825   4.686   0.213 -0.4205  0.7343 -2.1421
 6143TIP3   OH239987   4.473   1.523   0.231  0.1772  0.0292  0.2049
 6143TIP3    H139988   4.464   1.618   0.228  1.0042  0.1459  1.1007
 6143TIP3    H239989   4.473   1.502   0.324 -1.6604 -1.0367  0.0211
 6144TIP3   OH239990   4.610   3.498   0.894  0.7381  0.2599  0.2020
 6144TIP3    H139991   4.686   3.471   0.946 -0.5373  0.8499  2.4867
 6144TIP3    H239992   4.537   3.498   0.956 -0.8828  1.0618 -1.6043
 6145TIP3   OH239993   2.067   6.284   1.899 -0.2026  0.6347  0.0007
 6145TIP3    H139994   2.012   6.320   1.969  1.1421 -0.8817  1.9892
 6145TIP3    H239995   2.156   6.294   1.932  0.4742 -0.1857 -1.4968
 6146TIP3   OH239996   5.951   2.246   0.107 -0.4098  0.4120  0.4911
 6146TIP3    H139997   5.942   2.307   0.179 -2.2877 -1.3686  1.8911
 6146TIP3    H239998   5.870   2.255   0.057 -0.2169 -0.1333  0.0647
 6147TIP3   OH239999   0.178   5.353   0.011  0.4777 -0.5921 -0.0205
 6147TIP3    H140000   0.210   5.295  -0.059  1.4144  0.5252 -0.5516
 6147TIP3    H240001   0.172   5.439  -0.031  2.2795  0.3827  1.5713
 6148TIP3   OH240002   3.984   0.022   7.251 -0.1647  0.7577 -0.0725
 6148TIP3    H140003   4.071   0.033   7.290  0.0088  1.9061 -0.7333
 6148TIP3    H240004   3.940  -0.041   7.309  1.0186  0.3222  0.3938
 6149TIP3   OH240005   5.912   3.924   8.463  0.1322  0.0056 -0.3052
 6149TIP3    H140006   5.867   3.842   8.484 -1.0231  0.7562  0.3285
 6149TIP3    H240007   5.912   3.973   8.546  1.8661  0.1826 -0.3736
 6150TIP3   OH240008   0.494   0.406   0.399  0.3502  0.2243  0.0796
 6150TIP3    H140009   0.535   0.491   0.382 -0.5521  0.6065 -0.2182
 6150TIP3    H240010   0.534   0.348   0.334  1.3470  0.2922  0.6166
 6151TIP3   OH240011   6.026   2.823   1.948 -0.1236 -0.1168 -0.7439
 6151TIP3    H140012   5.945   2.852   1.989  1.7857  1.9377  1.8560
 6151TIP3    H240013   6.062   2.757   2.008  2.0227  1.9244  0.3849
 6152TIP3   OH240014   2.148   5.104   8.303  0.1139 -0.3379 -0.0130
 6152TIP3    H140015   2.227   5.124   8.353  0.6250 -0.7792 -0.6388
 6152TIP3    H240016   2.094   5.053   8.364 -0.1989  0.9158  0.7996
 6153TIP3   OH240017   1.519   5.324   8.188 -0.1251  0.6766  0.8397
 6153TIP3    H140018   1.604   5.297   8.224 -0.1435  1.6204  1.6203
 6153TIP3    H240019   1.461   5.328   8.264 -0.9935 -0.3696  0.2490
 6154TIP3   OH240020   5.680   4.693   7.338 -0.1497  0.6258  0.1088
 6154TIP3    H140021   5.604   4.662   7.388 -2.3595  2.0881 -2.0466
 6154TIP3    H240022   5.724   4.614   7.309 -1.9698 -0.3830 -0.0970
 6155TIP3   OH240023   6.740   1.706   1.156 -0.3228  0.8472  0.2201
 6155TIP3    H140024   6.829   1.672   1.166  0.1829  1.6514 -1.2611
 6155TIP3    H240025   6.734   1.776   1.220  0.1092  0.7653  0.3552
 6156TIP3   OH240026   4.542   5.159   7.123 -0.4701 -0.1543  0.3259
 6156TIP3    H140027   4.575   5.138   7.036 -0.1806 -0.4176  0.4968
 6156TIP3    H240028   4.494   5.081   7.150 -0.7427  0.0093  0.3139
 6157TIP3   OH240029   1.501   1.179   6.906 -0.5496  0.5745  0.4571
 6157TIP3    H140030   1.495   1.114   6.976  2.3795 -0.3449 -0.0154
 6157TIP3    H240031   1.545   1.254   6.947  2.9839 -0.6891 -0.6664
 6158TIP3   OH240032   6.164   0.699   0.743  0.1970 -0.2605 -0.0917
 6158TIP3    H140033   6.153   0.612   0.705 -0.5025 -0.1991 -0.0528
 6158TIP3    H240034   6.244   0.693   0.795  0.6875 -0.5922 -0.8677
 6159TIP3   OH240035   5.413   0.049   1.310 -0.0024  0.3507  0.2242
 6159TIP3    H140036   5.330   0.002   1.298 -0.2245  0.7800  0.0536
 6159TIP3    H240037   5.424   0.098   1.229  0.3780  0.3641  0.2852
 6160TIP3   OH240038   1.655   6.800   0.476  0.0147 -0.5250  0.1783
 6160TIP3    H140039   1.709   6.849   0.415 -0.5713 -1.2654 -0.9765
 6160TIP3    H240040   1.658   6.709   0.444 -2.5946 -0.4628 -0.5122
 6161TIP3   OH240041   3.584   0.558   1.728 -0.3072 -0.4210  0.4840
 6161TIP3    H140042   3.628   0.512   1.800 -0.0344  0.4132  0.8650
 6161TIP3    H240043   3.646   0.553   1.655 -0.8478 -1.8280  0.0709
 6162TIP3   OH240044   0.749   6.130   0.760 -1.0190  0.4706 -0.3684
 6162TIP3    H140045   0.818   6.122   0.826  0.1806  0.0125 -1.6349
 6162TIP3    H240046   0.674   6.085   0.799 -0.9765  1.8321  1.4568
 6163TIP3   OH240047   5.877   1.725   6.928  0.2238 -0.0725  1.0813
 6163TIP3    H140048   5.862   1.631   6.941 -0.4529  0.0107  0.9522
 6163TIP3    H240049   5.945   1.747   6.992 -0.1265 -0.5085  1.6142
 6164TIP3   OH240050   5.851   3.615   1.930  0.0557  0.4756 -0.1917
 6164TIP3    H140051   5.785   3.624   1.861 -2.2918  0.0953  1.8602
 6164TIP3    H240052   5.820   3.672   2.000  2.8353  1.5468  0.2904
 6165TIP3   OH240053   0.108   6.884   7.665 -0.3282  0.4006 -0.1421
 6165TIP3    H140054   0.091   6.822   7.594  2.0164  0.9087 -1.2541
 6165TIP3    H240055   0.068   6.844   7.742  0.0977 -1.9137 -1.0557
 6166TIP3   OH240056   1.423   0.810   7.858 -0.3824 -0.6430 -0.3320
 6166TIP3    H140057   1.450   0.727   7.818 -0.3770 -0.7080 -0.1942
 6166TIP3    H240058   1.454   0.804   7.949 -0.9941 -0.7810 -0.1284
 6167TIP3   OH240059   0.665   4.967   2.059  0.1081  0.3355  0.2152
 6167TIP3    H140060   0.642   4.936   1.972 -0.3214 -0.2627  0.5326
 6167TIP3    H240061   0.614   4.912   2.119 -1.1997  2.0637  0.7987
 6168TIP3   OH240062   2.337   5.626   1.889  0.1628 -0.2079  0.0753
 6168TIP3    H140063   2.397   5.556   1.918 -0.9815 -1.0467  0.5123
 6168TIP3    H240064   2.366   5.647   1.801 -0.3392 -2.3064 -0.6667
 6169TIP3   OH240065   6.292   1.960   6.975  0.2393 -0.0187  0.0841
 6169TIP3    H140066   6.253   2.009   7.047  1.5073 -0.3607  1.0411
 6169TIP3    H240067   6.294   1.870   7.005 -1.0480 -0.5150 -1.2118
 6170TIP3   OH240068   6.029   2.706   1.622 -0.4005  0.0043  0.0701
 6170TIP3    H140069   6.091   2.762   1.668 -0.4862 -0.0420  0.2408
 6170TIP3    H240070   5.979   2.663   1.691 -3.1660  2.7892  0.0248
 6171TIP3   OH240071   5.564   5.781   1.042  0.0594 -0.1665  0.4204
 6171TIP3    H140072   5.486   5.727   1.056 -1.2188  1.6705  0.6535
 6171TIP3    H240073   5.607   5.741   0.967 -0.2412 -2.1371  1.2234
 6172TIP3   OH240074   0.478   1.891   1.259 -0.0399  0.8378 -0.0982
 6172TIP3    H140075   0.552   1.931   1.306  0.9384  0.4251 -1.2113
 6172TIP3    H240076   0.406   1.952   1.272  0.1415  0.6691  2.0010
 6173TIP3   OH240077   1.162   5.235   7.292 -0.1902 -0.3723  0.7023
 6173TIP3    H140078   1.247   5.257   7.329 -0.8643  1.5552  1.2219
 6173TIP3    H240079   1.183   5.192   7.208  1.2859 -2.1207  1.8718
 6174TIP3   OH240080   0.195   1.829   7.811  0.2230 -0.4690 -0.4851
 6174TIP3    H140081   0.284   1.860   7.796  0.1153 -0.3147 -0.8072
 6174TIP3    H240082   0.153   1.832   7.725 -0.5311  0.8105 -0.0935
 6175TIP3   OH240083   3.239   4.827   6.899 -0.6599 -0.0953 -0.3777
 6175TIP3    H140084   3.247   4.732   6.890  0.3882 -0.0133 -0.5111
 6175TIP3    H240085   3.245   4.861   6.809 -0.3447  0.1267 -0.2772
 6176TIP3   OH240086   6.888   3.880   0.123 -0.2503  0.1977  0.4616
 6176TIP3    H140087   6.935   3.890   0.206 -0.8186  2.3878  0.5790
 6176TIP3    H240088   6.803   3.842   0.148  0.1437 -0.5465  0.6839
 6177TIP3   OH240089   2.660   2.923   0.005 -0.0697  0.7309  0.2031
 6177TIP3    H140090   2.589   2.885  -0.046 -0.4109  0.1338  1.1171
 6177TIP3    H240091   2.682   3.004  -0.042  0.2266 -0.2341 -1.3872
 6178TIP3   OH240092   0.970   0.895   1.008  0.1964 -0.1331  0.1355
 6178TIP3    H140093   1.003   0.806   1.000 -2.0171 -0.9969  0.0607
 6178TIP3    H240094   0.930   0.898   1.095  0.1587  0.7615  0.0983
 6179TIP3   OH240095   2.016   4.551   0.254  0.7507  0.1799  0.1656
 6179TIP3    H140096   1.962   4.484   0.212  1.1672  0.3929 -0.7191
 6179TIP3    H240097   1.961   4.584   0.326 -0.3962  0.5510 -0.8460
 6180TIP3   OH240098   2.795   6.101   7.847 -0.4186  0.1937 -0.5318
 6180TIP3    H140099   2.736   6.167   7.883  1.3461  1.5881 -0.0602
 6180TIP3    H240100   2.847   6.072   7.922  1.1021  0.7696 -1.3032
 6181TIP3   OH240101   5.102   6.177   1.403  0.0674 -0.0219  0.1856
 6181TIP3    H140102   5.164   6.207   1.336 -0.3123 -0.7737 -0.5212
 6181TIP3    H240103   5.111   6.082   1.404  1.6639  0.0489  2.8078
 6182TIP3   OH240104   6.840   1.875   1.890 -0.5753 -0.7443 -0.0605
 6182TIP3    H140105   6.845   1.798   1.946  0.1363 -1.1879 -0.7131
 6182TIP3    H240106   6.924   1.918   1.901 -1.2263  0.3546  0.8496
 6183TIP3   OH240107   4.982   5.017   7.942  0.1261  0.7013  0.4319
 6183TIP3    H140108   4.963   5.049   7.854 -1.7126  0.6300  0.7698
 6183TIP3    H240109   4.919   4.947   7.957  1.6511 -0.5818  1.1263
 6184TIP3   OH240110   3.813   2.671   7.211 -0.1832 -0.5534 -0.1972
 6184TIP3    H140111   3.875   2.677   7.284 -0.4683 -0.5712  0.0493
 6184TIP3    H240112   3.833   2.587   7.170 -0.2651 -0.7157  0.0893
 6185TIP3   OH240113   6.494   3.810   0.097 -0.0891  0.0721 -0.4799
 6185TIP3    H140114   6.502   3.902   0.124 -0.4024 -0.6299  2.3945
 6185TIP3    H240115   6.567   3.766   0.141 -1.1363 -1.3664 -0.1006
 6186TIP3   OH240116   0.003   3.782   0.708 -0.0229  0.3560  0.2403
 6186TIP3    H140117   0.089   3.821   0.695 -0.7536  1.8574 -0.3112
 6186TIP3    H240118   0.021   3.697   0.749  1.6610  0.9893  0.8921
 6187TIP3   OH240119   2.343   3.000   7.377 -0.0429  0.0997  0.0713
 6187TIP3    H140120   2.387   3.047   7.306 -0.0698  2.3907  1.4884
 6187TIP3    H240121   2.257   2.978   7.341  0.0183  1.0370 -0.6935
 6188TIP3   OH240122   3.109   5.004   6.388  0.5786 -0.1663 -0.1185
 6188TIP3    H140123   3.161   4.924   6.387 -0.1516 -0.6550  0.1763
 6188TIP3    H240124   3.174   5.075   6.380  1.2178 -0.7816 -0.5040
 6189TIP3   OH240125   5.673   2.109   6.077 -0.3857 -0.3433  0.4287
 6189TIP3    H140126   5.755   2.148   6.105 -0.6006  0.8000 -0.4629
 6189TIP3    H240127   5.698   2.048   6.007 -0.3741  0.8117 -0.6085
 6190TIP3   OH240128   0.299   5.680   0.913  0.5083  0.2111  0.1622
 6190TIP3    H140129   0.370   5.689   0.977  3.2004 -1.5610 -2.2935
 6190TIP3    H240130   0.278   5.586   0.914  0.0617  0.2856 -0.9697
 6191TIP3   OH240131   5.309   5.202   8.429 -0.1152 -0.3304  0.1163
 6191TIP3    H140132   5.307   5.185   8.335  0.3438 -0.4867  0.1336
 6191TIP3    H240133   5.400   5.226   8.448 -0.2047 -0.2954  0.5165
 6192TIP3   OH240134   0.489   6.258   7.982  0.9058 -0.1961  0.2856
 6192TIP3    H140135   0.461   6.349   7.987 -0.3733 -0.5449 -0.0995
 6192TIP3    H240136   0.562   6.251   8.043  1.0849  1.1072  0.2343
 6193TIP3   OH240137   1.810   1.754   1.374 -0.0194  0.3390  0.1109
 6193TIP3    H140138   1.893   1.723   1.409 -0.5194 -1.8352 -0.4552
 6193TIP3    H240139   1.829   1.839   1.336  2.8559 -1.4622 -3.0754
 6194TIP3   OH240140   1.564   3.117   8.485 -0.6660  0.0248  0.0691
 6194TIP3    H140141   1.573   3.096   8.578 -1.3939  2.2898  0.7383
 6194TIP3    H240142   1.505   3.051   8.450 -1.2483 -0.2469  1.5019
 6195TIP3   OH240143   2.325   3.454   1.301  0.0399 -0.1217  0.2869
 6195TIP3    H140144   2.405   3.402   1.309 -0.2134 -0.7587 -1.1207
 6195TIP3    H240145   2.350   3.541   1.333  0.2003 -1.2631  3.7510
 6196TIP3   OH240146   3.795   0.035   2.220  0.8397  0.2322 -0.0276
 6196TIP3    H140147   3.802  -0.025   2.295 -0.5808  2.8357  2.3451
 6196TIP3    H240148   3.701   0.049   2.209  0.9581 -0.6551 -2.9042
 6197TIP3   OH240149   0.086   6.177   6.014  0.3484  0.4549 -0.3998
 6197TIP3    H140150   0.060   6.184   6.106  0.3600  0.2573 -0.3815
 6197TIP3    H240151   0.021   6.229   5.966  0.4978  0.7799 -0.2540
 6198TIP3   OH240152   3.840   1.494   7.891  0.2355 -0.1071  0.0952
 6198TIP3    H140153   3.909   1.558   7.910 -0.1593  0.6213 -0.8481
 6198TIP3    H240154   3.827   1.499   7.796 -0.7204 -0.6386  0.1786
 6199TIP3   OH240155   5.415   1.585   2.089  0.1686 -0.3927  0.5917
 6199TIP3    H140156   5.391   1.672   2.120  0.6352 -0.2207  0.4779
 6199TIP3    H240157   5.461   1.546   2.163 -0.7109 -0.8335  0.9174
 6200TIP3   OH240158   3.154   3.948   0.859 -0.7475 -0.2616 -0.9705
 6200TIP3    H140159   3.062   3.941   0.833 -0.4896  0.2008 -2.0347
 6200TIP3    H240160   3.186   4.026   0.814 -0.0263  0.0140 -0.0088
 6201TIP3   OH240161   6.098   5.718   0.233 -0.1381  0.0428  0.2199
 6201TIP3    H140162   6.134   5.685   0.316  2.2408 -1.9367 -1.4563
 6201TIP3    H240163   6.140   5.804   0.221  0.6683 -0.3226  0.3733
 6202TIP3   OH240164   3.343   4.297   1.310 -0.5199  0.0974 -0.6764
 6202TIP3    H140165   3.257   4.266   1.280 -0.4687 -1.1411  0.3871
 6202TIP3    H240166   3.391   4.217   1.333  0.4787  0.8456 -0.0774
 6203TIP3   OH240167   5.374   4.070   8.533  0.0259  0.2494  0.1728
 6203TIP3    H140168   5.350   3.977   8.538 -0.2906  0.2929 -0.4267
 6203TIP3    H240169   5.414   4.080   8.446 -0.8675  0.8750 -0.1860
 6204TIP3   OH240170   5.837   6.695   2.135 -0.1307  0.1046 -0.6967
 6204TIP3    H140171   5.830   6.788   2.158  0.9514 -0.1366  0.6978
 6204TIP3    H240172   5.902   6.693   2.064 -0.2861  0.4193 -0.8511
 6205TIP3   OH240173   1.723   6.649   7.026  0.0673  0.2863  0.0026
 6205TIP3    H140174   1.795   6.654   7.088  0.5137 -0.5072 -0.4367
 6205TIP3    H240175   1.659   6.591   7.067  1.0867 -1.5876 -0.9586
 6206TIP3   OH240176   0.604   6.729   1.350 -0.5661 -0.4709 -0.5294
 6206TIP3    H140177   0.567   6.810   1.385 -2.6552 -1.3866 -0.4539
 6206TIP3    H240178   0.698   6.745   1.345 -0.9361  1.9886 -0.6182
 6207TIP3   OH240179   3.333   3.764   7.465  0.4069 -0.3922  0.4210
 6207TIP3    H140180   3.268   3.750   7.534  1.6047 -1.1392  1.4369
 6207TIP3    H240181   3.327   3.686   7.410  1.4388 -1.1724  1.3749
 6208TIP3   OH240182   4.138   5.213   0.582 -0.0227 -0.0062  0.3711
 6208TIP3    H140183   4.222   5.193   0.541 -0.2627  0.3763 -0.3255
 6208TIP3    H240184   4.089   5.261   0.515 -0.3408  0.8402  1.1905
 6209TIP3   OH240185   6.744   0.451   7.389  0.1342  0.6112  0.3283
 6209TIP3    H140186   6.731   0.410   7.304  1.1446  1.9598 -0.5235
 6209TIP3    H240187   6.776   0.380   7.445 -1.5575 -0.5343 -0.0894
 6210TIP3   OH240188   3.435   3.565   0.110  0.1849  0.0313  0.4248
 6210TIP3    H140189   3.371   3.594   0.046  0.5060 -1.8456 -0.8104
 6210TIP3    H240190   3.518   3.602   0.080  0.0442  0.7761  0.9013
 6211TIP3   OH240191   1.536   4.763   7.179  1.0930  0.0036 -0.5750
 6211TIP3    H140192   1.492   4.772   7.264  2.4592 -1.0392  0.2966
 6211TIP3    H240193   1.548   4.668   7.168  3.0129  0.2260 -0.7818
 6212TIP3   OH240194   2.208   4.232   0.847 -0.5507 -0.4439 -0.4689
 6212TIP3    H140195   2.203   4.137   0.837 -2.0289 -0.1793 -3.1123
 6212TIP3    H240196   2.131   4.256   0.899  0.7184 -0.7663  1.6743
 6213TIP3   OH240197   5.884   2.355   7.893 -0.1428  0.3996 -0.5327
 6213TIP3    H140198   5.857   2.280   7.841 -1.6199  1.2677 -1.0900
 6213TIP3    H240199   5.941   2.405   7.833 -0.4410  0.5243 -0.7129
 6214TIP3   OH240200   0.417   2.181   1.763 -0.0571  0.4628 -0.1896
 6214TIP3    H140201   0.325   2.203   1.776 -0.0699  0.4905 -0.3300
 6214TIP3    H240202   0.462   2.265   1.760  0.2585  0.4322  1.9278
 6215TIP3   OH240203   6.150   3.737   6.965 -0.4742 -0.1674  0.1155
 6215TIP3    H140204   6.067   3.782   6.948 -0.4692 -0.5571 -1.0285
 6215TIP3    H240205   6.131   3.681   7.040 -1.2231 -0.1889 -0.0795
 6216TIP3   OH240206   5.870   2.255   6.898 -0.0059  0.6354  0.8193
 6216TIP3    H140207   5.797   2.266   6.838 -0.3353 -0.7304  0.9400
 6216TIP3    H240208   5.918   2.179   6.865  0.7082  0.8187  1.3925
 6217TIP3   OH240209   1.961   4.366   1.112  0.3240  0.5356  0.4886
 6217TIP3    H140210   2.028   4.422   1.151  0.3855  0.6906  0.1661
 6217TIP3    H240211   1.984   4.278   1.141  0.5121  0.6196  0.5992
 6218TIP3   OH240212   0.871   0.222   7.267 -0.8684 -0.1512 -0.2325
 6218TIP3    H140213   0.821   0.259   7.339 -1.4927 -2.0589  0.3663
 6218TIP3    H240214   0.925   0.295   7.236 -0.9287  0.8593  1.8340
 6219TIP3   OH240215   1.196   5.771   0.597 -0.5880 -0.0934  0.0115
 6219TIP3    H140216   1.267   5.714   0.627 -0.4860 -1.3790 -2.4681
 6219TIP3    H240217   1.116   5.726   0.624 -0.4855 -0.3533 -0.1166
 6220TIP3   OH240218   3.213   4.294   7.069  0.5350  0.0358  0.4193
 6220TIP3    H140219   3.156   4.331   7.136  1.1094  2.4260 -0.3146
 6220TIP3    H240220   3.156   4.240   7.015 -1.1075  2.3460 -0.2973
 6221TIP3   OH240221   2.382   0.159   8.205  0.0688  0.0697 -0.7419
 6221TIP3    H140222   2.303   0.108   8.184 -0.4933  1.1310 -1.2832
 6221TIP3    H240223   2.446   0.133   8.139  0.3592 -1.1947  0.0209
 6222TIP3   OH240224   4.521   1.425   0.538 -0.3015 -0.2822 -0.4796
 6222TIP3    H140225   4.588   1.402   0.602  0.3524  3.1583  0.2962
 6222TIP3    H240226   4.455   1.473   0.588  0.0364  2.1645 -2.2126
 6223TIP3   OH240227   0.946   4.775   8.137 -0.4094  0.5182 -0.2700
 6223TIP3    H140228   0.875   4.809   8.082 -0.2489  1.5675  0.1364
 6223TIP3    H240229   0.968   4.849   8.194  0.6863  0.0473 -0.0730
 6224TIP3   OH240230   4.313   2.421   8.119 -0.2139 -0.3288  0.2689
 6224TIP3    H140231   4.275   2.369   8.048  0.4135 -0.0214 -0.3134
 6224TIP3    H240232   4.395   2.375   8.140  0.8663  0.9396 -0.9552
 6225TIP3   OH240233   3.049   3.846   7.984  0.8729  0.4273  0.2841
 6225TIP3    H140234   2.956   3.830   7.999  0.8314  0.4965  0.1038
 6225TIP3    H240235   3.078   3.892   8.063  0.3982  1.7982 -0.3002
 6226TIP3   OH240236   0.298   6.255   0.005  0.5989 -0.0686  0.3083
 6226TIP3    H140237   0.233   6.207  -0.046  0.3853 -0.9275  1.3374
 6226TIP3    H240238   0.368   6.191   0.021  0.4315  0.0123  1.4769
 6227TIP3   OH240239   3.943   3.270   7.211 -0.1394 -0.0679 -0.1727
 6227TIP3    H140240   3.876   3.270   7.279 -0.9536 -2.1460 -0.8973
 6227TIP3    H240241   4.026   3.267   7.259 -0.6949 -1.6044  0.7473
 6228TIP3   OH240242   5.847   5.473   6.339 -0.0714 -0.1580  0.9638
 6228TIP3    H140243   5.891   5.415   6.277 -1.4268 -0.2694  0.0518
 6228TIP3    H240244   5.915   5.498   6.401  1.5185  0.4720 -0.9103
 6229TIP3   OH240245   5.975   1.131   5.795 -0.4752 -0.0732 -0.3434
 6229TIP3    H140246   6.045   1.095   5.741  0.5506  1.2389  0.0674
 6229TIP3    H240247   5.979   1.083   5.877 -1.4929 -1.4923 -1.0815
 6230TIP3   OH240248   0.255   3.025   8.547  0.4427 -0.5783 -0.1612
 6230TIP3    H140249   0.334   2.973   8.564  0.7755 -0.3201 -0.8492
 6230TIP3    H240250   0.201   2.967   8.493 -1.0315 -1.7640  2.4260
 6231TIP3   OH240251   0.385   2.118   8.013  0.4823  0.0106 -0.2743
 6231TIP3    H140252   0.400   2.074   7.930  1.6505 -0.6284  0.2529
 6231TIP3    H240253   0.459   2.093   8.068  0.2256  1.1738  0.6589
 6232TIP3   OH240254   6.629   3.338   0.192  0.2047  0.1884 -0.3005
 6232TIP3    H140255   6.677   3.350   0.110  2.0435  0.7373  0.7841
 6232TIP3    H240256   6.687   3.284   0.246 -0.5476  0.5941  0.9620
 6233TIP3   OH240257   2.575   1.362   7.613  0.1152  0.3444  0.3721
 6233TIP3    H140258   2.639   1.421   7.653 -0.1661  0.7421  0.2387
 6233TIP3    H240259   2.503   1.418   7.586  0.1545  0.0444 -0.3969
 6234TIP3   OH240260   2.328   1.915   6.470  0.3047  0.3312  0.6978
 6234TIP3    H140261   2.360   1.863   6.397 -0.1238  1.5659 -0.4173
 6234TIP3    H240262   2.340   1.859   6.547 -1.2726 -1.8856 -0.5693
 6235TIP3   OH240263   5.594   4.491   7.705 -0.3772 -0.3000  0.0100
 6235TIP3    H140264   5.554   4.431   7.767 -0.3397  0.2958  0.6246
 6235TIP3    H240265   5.533   4.564   7.699 -1.2712 -1.1542 -2.0602
 6236TIP3   OH240266   1.076   0.212   6.150  0.2981 -0.0178  0.4146
 6236TIP3    H140267   0.987   0.247   6.157 -0.2086 -1.1948  0.2673
 6236TIP3    H240268   1.121   0.244   6.227  0.3508  2.1888 -0.4623
 6237TIP3   OH240269   5.462   4.490   6.591 -0.0174  0.8448  0.2676
 6237TIP3    H140270   5.402   4.458   6.525  0.2822  1.0550 -0.1116
 6237TIP3    H240271   5.549   4.482   6.551  0.6030 -2.3274  1.8815
 6238TIP3   OH240272   6.502   2.096   5.901 -0.0819  0.2036  0.4727
 6238TIP3    H140273   6.411   2.122   5.888  0.0846  0.2152 -0.7910
 6238TIP3    H240274   6.545   2.174   5.936 -0.3430  0.5248  0.0876
 6239TIP3   OH240275   0.828   4.214   1.698 -0.1623  0.4718 -0.5086
 6239TIP3    H140276   0.842   4.228   1.792  1.4776 -1.5095 -0.4046
 6239TIP3    H240277   0.898   4.265   1.656  2.9765 -3.1575 -0.2910
 6240TIP3   OH240278   0.678   0.248   6.866 -0.1801 -0.2274  0.6606
 6240TIP3    H140279   0.761   0.293   6.883 -0.0487  0.1607 -0.8750
 6240TIP3    H240280   0.618   0.318   6.842 -0.3672 -0.7293 -0.3440
 6241TIP3   OH240281   6.649   1.820   6.249  0.1079  0.0836 -0.1104
 6241TIP3    H140282   6.593   1.830   6.171 -1.6733 -0.8913  0.9791
 6241TIP3    H240283   6.700   1.742   6.232 -1.2990 -0.9506  0.2457
 6242TIP3   OH240284   2.068   2.373   7.675 -0.2511  0.3846  0.1863
 6242TIP3    H140285   2.091   2.316   7.749 -0.2705 -1.4065 -1.1335
 6242TIP3    H240286   2.138   2.438   7.673  0.0823  0.0950  1.3932
 6243TIP3   OH240287   5.467   6.586   8.291 -0.1765  0.5368  0.2091
 6243TIP3    H140288   5.436   6.523   8.356 -0.5854  0.3691 -0.1437
 6243TIP3    H240289   5.529   6.537   8.237 -0.4031  0.4681  0.0095
 6244TIP3   OH240290   2.425   1.084   1.593  0.1373 -0.1101 -0.6317
 6244TIP3    H140291   2.348   1.113   1.641  0.6144 -0.4366  0.3555
 6244TIP3    H240292   2.492   1.071   1.661  1.1982  0.5993 -1.4943
 6245TIP3   OH240293   5.106   3.526   8.215  0.2862  0.0217  0.0091
 6245TIP3    H140294   5.105   3.621   8.199  0.6926 -0.1658 -1.2373
 6245TIP3    H240295   5.135   3.488   8.132 -0.1605 -1.2229  0.4042
 6246TIP3   OH240296   1.098   5.597   6.626  0.0174  0.0221 -0.0966
 6246TIP3    H140297   1.015   5.643   6.619  0.9468  1.5236 -2.0119
 6246TIP3    H240298   1.092   5.525   6.563  0.6331  0.9593 -1.2644
 6247TIP3   OH240299   5.747   0.049   6.470  0.6251 -0.3248  0.0987
 6247TIP3    H140300   5.814   0.116   6.463 -0.4763  0.9877  1.3314
 6247TIP3    H240301   5.794  -0.034   6.461  1.9051  0.5796 -2.2800
 6248TIP3   OH240302   3.873   4.349   8.468  0.9490  0.1458 -0.0630
 6248TIP3    H140303   3.832   4.392   8.544  0.7198 -1.0067  0.4832
 6248TIP3    H240304   3.954   4.398   8.455  1.4940 -0.2417  1.5740
 6249TIP3   OH240305   2.621   2.509   7.237  0.9439  0.1783  0.4036
 6249TIP3    H140306   2.690   2.460   7.193  0.4291 -0.9496  0.8109
 6249TIP3    H240307   2.540   2.468   7.208  0.5799 -0.3938  2.1021
 6250TIP3   OH240308   1.231   5.135   8.388 -0.3721 -0.2399  0.3999
 6250TIP3    H140309   1.162   5.200   8.382 -0.2943 -0.2343 -0.5943
 6250TIP3    H240310   1.261   5.122   8.298  1.2802  0.1326  0.8442
 6251TIP3   OH240311   5.026   3.104   7.187 -0.1352  0.6711  0.1061
 6251TIP3    H140312   5.008   3.090   7.094 -1.7411  1.3483  0.2983
 6251TIP3    H240313   4.963   3.048   7.232  0.8916  0.0428  0.8103
 6252TIP3   OH240314   0.831   3.779   7.850  0.5541 -0.0514  0.2157
 6252TIP3    H140315   0.869   3.706   7.801 -0.9036 -0.0014 -1.0983
 6252TIP3    H240316   0.866   3.771   7.938  1.7674 -1.3118 -0.3529
 6253TIP3   OH240317   6.857   6.426   1.139  0.4221 -0.0504  0.8074
 6253TIP3    H140318   6.875   6.478   1.061 -0.5992 -1.2245 -0.2452
 6253TIP3    H240319   6.765   6.444   1.158 -0.3203 -2.3351 -0.2992
 6254TIP3   OH240320   3.784   2.775   2.361 -0.1435  0.1231  0.0801
 6254TIP3    H140321   3.748   2.714   2.426 -1.3693 -0.1491 -0.8115
 6254TIP3    H240322   3.761   2.861   2.395  1.6201  0.1425  1.3628
 6255TIP3   OH240323   2.663   1.060   7.855 -0.1864  0.3781 -0.5752
 6255TIP3    H140324   2.723   1.123   7.813  0.7685  0.5746  0.9958
 6255TIP3    H240325   2.719   1.010   7.914 -1.3754 -0.3069  0.0001
 6256TIP3   OH240326   1.778   5.161   2.327  0.1559  0.1021  0.3152
 6256TIP3    H140327   1.827   5.138   2.406  0.4541 -0.6603 -0.0779
 6256TIP3    H240328   1.841   5.207   2.272 -0.0569  0.6489  0.5225
 6257TIP3   OH240329   6.685   6.148   8.516 -0.4590 -0.1858  0.0732
 6257TIP3    H140330   6.720   6.164   8.429 -0.6095 -3.2851 -0.6824
 6257TIP3    H240331   6.756   6.103   8.563 -1.4506 -1.4629  0.4140
 6258TIP3   OH240332   1.367   5.014   6.889  0.0649  0.0988  0.5379
 6258TIP3    H140333   1.461   5.015   6.908  0.3275  1.1517 -0.6427
 6258TIP3    H240334   1.344   4.921   6.887  0.7369 -0.1460  2.3387
 6259TIP3   OH240335   1.648   5.050   0.195  0.2649 -0.1024 -0.0948
 6259TIP3    H140336   1.589   5.051   0.120  1.2556  0.0993 -0.8789
 6259TIP3    H240337   1.693   4.966   0.190  0.2860 -0.1181  0.3182
 6260TIP3   OH240338   5.454   2.597   1.537  0.1852 -0.3919 -0.1786
 6260TIP3    H140339   5.511   2.673   1.527  0.0345 -0.0927  1.1385
 6260TIP3    H240340   5.505   2.535   1.589  0.1193 -1.0105 -0.8299
 6261TIP3   OH240341   2.170   3.225   0.234 -0.1656 -0.5302 -0.1391
 6261TIP3    H140342   2.218   3.213   0.152  0.2131  0.2052 -0.0343
 6261TIP3    H240343   2.231   3.271   0.291 -0.7903 -0.1140  0.2088
 6262TIP3   OH240344   1.639   2.150   6.940 -0.2261 -0.5232  0.3615
 6262TIP3    H140345   1.617   2.200   6.861 -1.5264  1.7307  2.0415
 6262TIP3    H240346   1.555   2.136   6.984  0.6129 -0.5778  2.0098
 6263TIP3   OH240347   2.035   6.070   2.178  0.3114 -0.1105 -0.0904
 6263TIP3    H140348   1.983   6.027   2.110 -0.9264 -0.0326  0.7813
 6263TIP3    H240349   2.093   6.001   2.211 -0.8675 -0.8539  0.5178
 6264TIP3   OH240350   1.399   6.631   7.925  0.8453 -0.7073 -0.2785
 6264TIP3    H140351   1.416   6.725   7.919 -1.1027 -0.3148 -0.2704
 6264TIP3    H240352   1.338   6.622   7.998  1.7003 -2.1040  0.3015
 6265TIP3   OH240353   4.602   4.180   1.454 -0.1507  0.1703  0.1286
 6265TIP3    H140354   4.519   4.212   1.491 -0.5137  0.1339 -0.6301
 6265TIP3    H240355   4.669   4.219   1.510 -0.7037 -0.9445  1.6469
 6266TIP3   OH240356   0.462   5.988   7.893  0.4011  0.1898  0.0269
 6266TIP3    H140357   0.469   6.074   7.933  0.5586 -0.4599  1.4687
 6266TIP3    H240358   0.376   5.956   7.920 -0.0330  0.2241 -1.2257
 6267TIP3   OH240359   6.662   3.937   0.760 -0.1378 -0.3965 -0.1968
 6267TIP3    H140360   6.617   3.858   0.732  0.0014  0.1851 -2.1747
 6267TIP3    H240361   6.754   3.920   0.744 -0.0567 -0.0116 -0.1572
 6268TIP3   OH240362   0.288   4.512   6.684 -0.4026 -0.1219  0.3479
 6268TIP3    H140363   0.201   4.473   6.685 -0.5866  0.2741  0.0847
 6268TIP3    H240364   0.340   4.453   6.629 -0.8582  0.3666 -0.6328
 6269TIP3   OH240365   2.713   6.255   6.537  0.5025 -0.3583 -0.2352
 6269TIP3    H140366   2.691   6.341   6.573  5.6264  0.0539  2.9596
 6269TIP3    H240367   2.765   6.274   6.459  2.6055 -0.3155  1.0978
 6270TIP3   OH240368   0.094   5.819   1.493 -0.2938  0.1424  0.3670
 6270TIP3    H140369   0.171   5.795   1.441 -1.6965 -1.3492 -1.1950
 6270TIP3    H240370   0.090   5.914   1.489  1.9457  0.3250  1.2827
 6271TIP3   OH240371   6.538   1.265   0.850 -0.3412  0.2550 -0.2013
 6271TIP3    H140372   6.459   1.301   0.810 -0.7892  0.3075  0.7013
 6271TIP3    H240373   6.554   1.321   0.926  0.5411  0.2184 -0.3477
 6272TIP3   OH240374   2.233   3.343   1.638  0.1516 -0.5897 -0.5461
 6272TIP3    H140375   2.281   3.284   1.579  0.4114 -1.6064  0.6476
 6272TIP3    H240376   2.287   3.348   1.716 -1.2876 -1.1427  0.5263
 6273TIP3   OH240377   5.135   5.388   6.550  0.0151 -0.4807 -0.0710
 6273TIP3    H140378   5.187   5.312   6.523  0.6755 -0.4209  0.9901
 6273TIP3    H240379   5.178   5.463   6.508  0.3504 -0.5102  0.2197
 6274TIP3   OH240380   6.369   5.490   0.580 -0.1949 -0.1254 -0.2288
 6274TIP3    H140381   6.359   5.552   0.652  2.1271  1.9451 -1.5044
 6274TIP3    H240382   6.393   5.408   0.622  1.1736  1.0391  1.4214
 6275TIP3   OH240383   4.497   4.100   0.792 -0.2270 -1.0066  0.0249
 6275TIP3    H140384   4.501   4.042   0.716  2.1164 -0.3240 -0.4641
 6275TIP3    H240385   4.561   4.065   0.853  1.2197  0.9559 -0.2656
 6276TIP3   OH240386   0.657   2.056   6.929 -0.4087 -0.1538 -0.1518
 6276TIP3    H140387   0.613   2.139   6.946  1.5285  0.9101 -0.0466
 6276TIP3    H240388   0.654   2.046   6.834 -1.1140 -0.2404 -0.1212
 6277TIP3   OH240389   5.504   1.373   8.026 -0.2238 -0.2287 -0.1244
 6277TIP3    H140390   5.509   1.285   7.988  0.9801  0.4270 -1.6148
 6277TIP3    H240391   5.453   1.423   7.963 -0.4079  0.2861  0.4263
 6278TIP3   OH240392   6.103   4.486   6.885 -0.1623 -0.5545  0.1979
 6278TIP3    H140393   6.145   4.401   6.872 -0.8346 -0.6611 -1.4086
 6278TIP3    H240394   6.017   4.465   6.920  0.7330 -0.3626  2.7597
 6279TIP3   OH240395   1.992   5.917   1.524  0.1718 -0.2434  0.1562
 6279TIP3    H140396   1.907   5.881   1.500 -0.6003  0.2434  1.9694
 6279TIP3    H240397   2.047   5.905   1.446 -1.5071 -0.6846 -1.0026
 6280TIP3   OH240398   1.018   6.100   8.320  0.2157 -0.0007 -0.2360
 6280TIP3    H140399   0.950   6.163   8.345 -1.3169 -2.0949  1.2731
 6280TIP3    H240400   1.090   6.153   8.289 -0.9990  2.4858  0.9307
 6281TIP3   OH240401   5.411   2.803   8.531 -0.1604  0.6305  0.0342
 6281TIP3    H140402   5.484   2.800   8.469  0.6774 -2.0195  1.0203
 6281TIP3    H240403   5.341   2.848   8.484  1.4963  1.6251 -1.6025
 6282TIP3   OH240404   2.361   5.862   0.205 -0.1487 -0.3317  0.7842
 6282TIP3    H140405   2.325   5.942   0.167  1.0472 -0.4655 -0.7508
 6282TIP3    H240406   2.397   5.814   0.130  0.3367 -1.6783  1.8349
 6283TIP3   OH240407   5.689   3.215   1.875 -0.0507 -0.7282 -0.4991
 6283TIP3    H140408   5.780   3.198   1.897 -0.1793 -2.4439 -1.1189
 6283TIP3    H240409   5.685   3.205   1.779 -0.7385  0.1392 -0.5769
 6284TIP3   OH240410   5.773   6.793   1.630 -0.4658  0.2118  0.1725
 6284TIP3    H140411   5.787   6.885   1.653 -1.5570  1.0934 -2.3212
 6284TIP3    H240412   5.732   6.796   1.543 -1.6206 -2.6120  0.5167
 6285TIP3   OH240413   1.946   6.639   8.492 -0.5237  0.2519 -0.2989
 6285TIP3    H140414   2.033   6.657   8.457 -0.6827  0.2209 -0.7188
 6285TIP3    H240415   1.898   6.721   8.481  0.2187  1.1657  2.3967
 6286TIP3   OH240416   2.416   5.446   0.344  0.0214 -0.6434 -0.2425
 6286TIP3    H140417   2.414   5.532   0.387  3.2918 -1.3099  1.5655
 6286TIP3    H240418   2.433   5.384   0.415 -1.2769 -2.7203 -1.6324
 6287TIP3   OH240419   6.062   3.636   8.539  0.2257 -0.0427 -0.2656
 6287TIP3    H140420   6.123   3.633   8.613  0.2110  0.2525 -0.2400
 6287TIP3    H240421   5.992   3.693   8.569 -0.8179 -1.5307  0.2714
 6288TIP3   OH240422   5.721   2.919   2.008  0.0207  0.3198 -0.0035
 6288TIP3    H140423   5.711   3.013   2.025 -0.4341  0.0853  1.1240
 6288TIP3    H240424   5.633   2.883   2.020  0.3114 -0.3430  0.2133
 6289TIP3   OH240425   1.918   1.678   8.107  0.0311  0.3408  0.5453
 6289TIP3    H140426   1.904   1.717   8.194 -3.7242 -2.6986  1.5936
 6289TIP3    H240427   2.004   1.636   8.113  0.3944  1.2580  2.3490
 6290TIP3   OH240428   6.248   5.193   6.352 -0.2460 -0.2528  0.4806
 6290TIP3    H140429   6.343   5.196   6.342 -0.3732  1.1081 -0.6888
 6290TIP3    H240430   6.231   5.243   6.432 -0.0514  0.8688 -0.1526
 6291TIP3   OH240431   5.161   4.850   7.424 -0.2436 -0.4082 -0.2621
 6291TIP3    H140432   5.169   4.786   7.353 -2.6665 -1.3253  0.1890
 6291TIP3    H240433   5.100   4.916   7.390  1.3273  1.0832 -0.2890
 6292TIP3   OH240434   0.279   5.516   6.853  0.5502  0.2705 -0.1511
 6292TIP3    H140435   0.345   5.526   6.784  0.5570  1.4561 -0.0015
 6292TIP3    H240436   0.270   5.422   6.864  0.1796  0.0352 -2.1211
 6293TIP3   OH240437   3.583   0.357   8.279  0.0162 -0.2961  0.1697
 6293TIP3    H140438   3.487   0.353   8.283  0.0150  0.4091  2.6167
 6293TIP3    H240439   3.601   0.434   8.225 -0.8954  0.9405  1.5281
 6294TIP3   OH240440   4.298   3.279   0.351 -0.1218 -0.4621  0.2303
 6294TIP3    H140441   4.234   3.210   0.334 -0.5446  0.2288 -1.1397
 6294TIP3    H240442   4.245   3.355   0.376  0.1686  0.0295 -0.6241
 6295TIP3   OH240443   4.400   1.016   1.544  0.0305  0.2854 -0.4541
 6295TIP3    H140444   4.478   1.072   1.551  1.6090 -1.9021  1.3429
 6295TIP3    H240445   4.329   1.068   1.582  1.2789  1.3373  0.5395
 6296TIP3   OH240446   1.977   3.348   5.993  0.1494  0.1619 -0.2600
 6296TIP3    H140447   1.898   3.314   5.952  0.6660  0.2953 -1.3894
 6296TIP3    H240448   2.022   3.270   6.027 -1.1677  0.1953  1.7668
 6297TIP3   OH240449   2.877   1.663   0.900  0.0719 -0.5895 -0.3966
 6297TIP3    H140450   2.870   1.598   0.830 -0.5577 -0.8728 -0.0782
 6297TIP3    H240451   2.814   1.731   0.877  1.1498  0.2240 -1.0415
 6298TIP3   OH240452   3.496   1.455   1.270  0.0716 -0.6214 -0.0603
 6298TIP3    H140453   3.532   1.499   1.347  0.5816 -0.3888 -0.4296
 6298TIP3    H240454   3.565   1.462   1.204 -0.6290 -0.2265 -0.7541
 6299TIP3   OH240455   1.299   4.349   7.651 -0.2223  0.1327 -0.8349
 6299TIP3    H140456   1.306   4.255   7.636 -0.5435  0.1685 -1.2219
 6299TIP3    H240457   1.268   4.385   7.568 -0.2252  0.5669 -0.6525
 6300TIP3   OH240458   2.553   1.930   0.501 -0.2268 -0.2437 -0.0845
 6300TIP3    H140459   2.458   1.938   0.493 -0.0665  2.1052 -0.3901
 6300TIP3    H240460   2.583   1.908   0.413 -0.3859  0.5059 -0.3321
 6301TIP3   OH240461   5.600   6.274   6.971  0.0553  0.3506  0.2096
 6301TIP3    H140462   5.590   6.293   6.877 -0.1115 -0.5369  0.0367
 6301TIP3    H240463   5.559   6.349   7.015 -0.2961  0.5454 -0.4343
 6302TIP3   OH240464   3.721   3.208   0.954 -0.0192  0.1178  0.0148
 6302TIP3    H140465   3.815   3.206   0.971 -0.2947  0.4838  1.7398
 6302TIP3    H240466   3.702   3.300   0.934 -0.5383  0.8712  3.3819
 6303TIP3   OH240467   6.333   5.143   0.364  0.1580 -0.0618  0.0670
 6303TIP3    H140468   6.245   5.181   0.367  0.9568  1.9627 -0.3651
 6303TIP3    H240469   6.370   5.175   0.282  2.1503  1.2849  1.4042
 6304TIP3   OH240470   5.912   4.118   7.859 -0.4742  0.0541 -0.0142
 6304TIP3    H140471   5.959   4.042   7.893 -0.2033 -0.1135 -0.7371
 6304TIP3    H240472   5.820   4.092   7.859 -0.3522 -0.3965 -0.5469
 6305TIP3   OH240473   4.756   2.673   7.013  0.0320  0.2269 -0.2197
 6305TIP3    H140474   4.791   2.587   6.993  0.0609  0.3646 -0.7836
 6305TIP3    H240475   4.824   2.716   7.065 -0.3889 -0.4354  0.9084
 6306TIP3   OH240476   2.579   6.899   8.080  0.0548 -0.9287 -0.2926
 6306TIP3    H140477   2.611   6.969   8.023 -0.8120 -0.4990 -0.2605
 6306TIP3    H240478   2.657   6.870   8.128  0.1467  1.1523  0.9306
 6307TIP3   OH240479   1.184   3.010   0.247  0.1670 -0.2232  0.2575
 6307TIP3    H140480   1.239   2.992   0.323  1.4088  0.8401 -0.3367
 6307TIP3    H240481   1.242   2.997   0.171 -0.1535  1.5937 -0.3588
 6308TIP3   OH240482   4.432   0.635   7.194  0.2331 -0.0315  0.1852
 6308TIP3    H140483   4.482   0.642   7.113 -1.8337  1.9525 -1.0352
 6308TIP3    H240484   4.389   0.549   7.188 -0.0556  0.1740 -0.9431
 6309TIP3   OH240485   5.695   4.166   7.505 -0.1633  0.3164  0.4049
 6309TIP3    H140486   5.627   4.193   7.566 -0.8775 -0.4449 -0.0416
 6309TIP3    H240487   5.663   4.085   7.466  0.8592  0.1032 -0.0410
 6310TIP3   OH240488   5.687   1.703   7.715 -0.5364  0.7567 -0.2460
 6310TIP3    H140489   5.768   1.750   7.696  0.2999 -0.9102 -1.0660
 6310TIP3    H240490   5.688   1.628   7.655 -0.2324 -2.0395  2.8897
 6311TIP3   OH240491   5.364   6.101   8.099  1.0433 -0.3188  0.2026
 6311TIP3    H140492   5.368   6.014   8.138  0.5495 -0.7933 -0.7862
 6311TIP3    H240493   5.360   6.086   8.005  1.6679  0.7913 -0.0277
 6312TIP3   OH240494   5.525   0.413   0.867  0.2027  0.2159 -0.4932
 6312TIP3    H140495   5.458   0.452   0.924  0.3512 -0.5071  0.1892
 6312TIP3    H240496   5.588   0.374   0.927  1.1080  0.6630 -1.1396
 6313TIP3   OH240497   0.206   0.169   7.871  0.1516 -1.0033  0.0147
 6313TIP3    H140498   0.120   0.211   7.872 -0.0337 -1.2674 -1.6770
 6313TIP3    H240499   0.191   0.083   7.911 -0.1229 -0.6631  0.6734
 6314TIP3   OH240500   1.832   6.416   0.939 -0.1841 -0.1473 -0.5686
 6314TIP3    H140501   1.894   6.455   1.000 -1.9261  1.2211  0.4202
 6314TIP3    H240502   1.786   6.349   0.989  0.4032 -1.1154 -1.2767
 6315TIP3   OH240503   0.539   5.225   6.998  0.5773 -0.4752 -0.1078
 6315TIP3    H140504   0.622   5.254   6.960  0.5418 -0.5521 -0.2460
 6315TIP3    H240505   0.555   5.222   7.092  1.0648 -1.5277 -0.2060
 6316TIP3   OH240506   4.825   4.227   8.136 -0.4427  0.8434  0.3421
 6316TIP3    H140507   4.733   4.253   8.132 -0.6630 -0.0314 -1.8731
 6316TIP3    H240508   4.865   4.270   8.060  0.2124 -1.3409 -0.6455
 6317TIP3   OH240509   1.637   4.709   6.832  0.4834  0.0038  0.3560
 6317TIP3    H140510   1.628   4.752   6.747 -1.1034  1.2381  1.0884
 6317TIP3    H240511   1.712   4.752   6.873 -0.7054  1.7431  0.8263
 6318TIP3   OH240512   2.410   3.725   7.467 -0.2138  0.6158  0.1389
 6318TIP3    H140513   2.463   3.694   7.394 -0.0725 -0.0198  0.4982
 6318TIP3    H240514   2.345   3.655   7.480  1.6303 -0.7895  2.5597
 6319TIP3   OH240515   6.613   2.449   7.646  0.3611  0.1914  0.2693
 6319TIP3    H140516   6.616   2.369   7.699 -1.4367  0.6551  1.1525
 6319TIP3    H240517   6.705   2.472   7.632  0.9717 -2.4892 -0.7892
 6320TIP3   OH240518   0.079   4.741   1.140  0.2248 -0.1862 -0.3757
 6320TIP3    H140519   0.157   4.708   1.185 -0.1886  0.7541  1.0912
 6320TIP3    H240520   0.006   4.711   1.194 -0.3608  0.1469 -0.9678
 6321TIP3   OH240521   1.188   1.033   7.287 -0.2940  0.6278 -0.0075
 6321TIP3    H140522   1.129   1.077   7.226 -0.3354  0.3203 -0.1940
 6321TIP3    H240523   1.134   1.014   7.364 -0.0907  1.5463  0.3734
 6322TIP3   OH240524   1.310   3.658   8.517 -0.0892 -0.1800  0.0177
 6322TIP3    H140525   1.281   3.642   8.606 -1.2897  2.6191  0.2169
 6322TIP3    H240526   1.406   3.665   8.524  0.1396 -2.8001  0.5103
 6323TIP3   OH240527   5.582   6.707   1.167 -0.2641 -0.1104  0.2442
 6323TIP3    H140528   5.613   6.738   1.252 -0.4035  3.9087 -0.9983
 6323TIP3    H240529   5.493   6.677   1.184  0.3612 -1.2551  1.7895
 6324TIP3   OH240530   4.820   4.606   1.807  0.2114 -0.0790 -0.3073
 6324TIP3    H140531   4.804   4.576   1.717 -1.0391 -0.6526  0.0897
 6324TIP3    H240532   4.733   4.612   1.846  0.8490 -2.3872  1.6986
 6325TIP3   OH240533   0.143   5.901   5.973 -0.0014  0.7734  0.6212
 6325TIP3    H140534   0.166   5.876   6.062 -0.5932  2.3281  1.2302
 6325TIP3    H240535   0.134   5.996   5.975 -1.3730  0.7240 -0.7697
 6326TIP3   OH240536   5.380   4.774   1.278  0.2192  0.2977  0.5743
 6326TIP3    H140537   5.423   4.727   1.206  0.3343  1.7236 -0.3266
 6326TIP3    H240538   5.291   4.739   1.280 -0.1303  1.0018 -1.0218
 6327TIP3   OH240539   4.624   4.169   1.194 -0.5869 -0.0840 -0.3082
 6327TIP3    H140540   4.640   4.149   1.286  1.1016  0.3590 -0.4693
 6327TIP3    H240541   4.636   4.264   1.188  0.4849 -0.2509 -1.1670
 6328TIP3   OH240542   4.272   0.283   8.387  0.4916 -0.2906  0.8229
 6328TIP3    H140543   4.310   0.215   8.443  3.9476  0.0674 -0.8617
 6328TIP3    H240544   4.323   0.362   8.406  0.6518  0.2545 -1.5797
 6329TIP3   OH240545   1.690   6.298   8.119 -0.0184  0.0563  0.3955
 6329TIP3    H140546   1.691   6.394   8.115  0.8631  0.2143  2.9021
 6329TIP3    H240547   1.701   6.270   8.028  1.5104  2.3364 -0.2083
 6330TIP3   OH240548   4.384   5.391   6.938 -0.3492  0.5580  0.7174
 6330TIP3    H140549   4.347   5.303   6.939  0.4525  0.2086  0.3878
 6330TIP3    H240550   4.472   5.380   6.901  0.0185  1.3919  1.3080
 6331TIP3   OH240551   3.512   2.913   1.034 -0.8759 -0.0132  0.0707
 6331TIP3    H140552   3.433   2.861   1.047 -0.9614  0.3461  1.0986
 6331TIP3    H240553   3.575   2.878   1.098 -0.8194  0.9069  0.5290
 6332TIP3   OH240554   2.741   3.122   1.189 -0.2593  0.6361 -0.7611
 6332TIP3    H140555   2.697   3.182   1.250 -1.0881 -1.7764  1.1905
 6332TIP3    H240556   2.833   3.128   1.212 -0.6561 -1.0091  1.6236
 6333TIP3   OH240557   5.870   5.134   8.459  0.2741 -0.5283  0.1976
 6333TIP3    H140558   5.890   5.213   8.409  2.3353 -0.4674  1.0033
 6333TIP3    H240559   5.922   5.143   8.539 -1.2758 -1.6160  1.3944
 6334TIP3   OH240560   0.978   1.276   7.372 -0.1148  0.3248 -0.4605
 6334TIP3    H140561   0.986   1.203   7.434  0.2174  0.4448 -0.3602
 6334TIP3    H240562   1.061   1.323   7.380 -0.7858  1.4196  0.3701
 6335TIP3   OH240563   3.444   4.647   0.302 -0.1998  0.2268  0.0722
 6335TIP3    H140564   3.458   4.564   0.257  1.4277  0.1912  0.5734
 6335TIP3    H240565   3.384   4.626   0.374  0.5764 -0.6308  0.4849
 6336TIP3   OH240566   0.661   4.881   7.558  0.1399  0.4059  0.0097
 6336TIP3    H140567   0.652   4.918   7.470 -0.4536  0.8619  0.2597
 6336TIP3    H240568   0.573   4.853   7.582  0.6167 -1.6011 -0.3318
 6337TIP3   OH240569   6.768   5.794   1.898  0.0955 -0.3194 -0.3973
 6337TIP3    H140570   6.728   5.744   1.969  1.3408  2.0449  2.1640
 6337TIP3    H240571   6.726   5.880   1.904  0.3969  0.0077 -2.4508
 6338TIP3   OH240572   0.600   2.067   6.197 -0.1860  0.2689  0.2337
 6338TIP3    H140573   0.507   2.046   6.206 -1.2764  2.8696 -3.0592
 6338TIP3    H240574   0.632   2.006   6.131  0.1002  0.3135  0.3288
 6339TIP3   OH240575   5.326   6.194   7.247  0.4959  0.1434 -0.3873
 6339TIP3    H140576   5.313   6.166   7.156 -0.3456 -0.0235 -0.2289
 6339TIP3    H240577   5.312   6.288   7.246 -2.2730 -0.1697 -0.0114
 6340TIP3   OH240578   0.324   4.616   7.074 -0.3286 -0.1264  0.3926
 6340TIP3    H140579   0.285   4.647   7.156 -1.0558  0.3004 -0.1003
 6340TIP3    H240580   0.249   4.598   7.017  0.1568 -0.7333 -0.0747
 6341TIP3   OH240581   5.072   5.459   6.891  0.0552  0.5534 -0.6212
 6341TIP3    H140582   5.108   5.371   6.886 -0.3723  0.3901 -0.9279
 6341TIP3    H240583   5.111   5.497   6.970 -0.2274 -0.1291 -0.1402
 6342TIP3   OH240584   5.985   5.970   7.960 -0.3765  0.3473 -0.0134
 6342TIP3    H140585   5.913   6.026   7.931 -0.2062 -0.3676 -2.0052
 6342TIP3    H240586   5.952   5.881   7.950  0.2787  0.0446  0.4676
 6343TIP3   OH240587   0.836   2.071   7.912 -0.0611 -0.5755  0.0563
 6343TIP3    H140588   0.797   2.128   7.979 -0.1145  0.3645 -0.7440
 6343TIP3    H240589   0.903   2.126   7.871 -1.4106 -0.3818 -2.0515
 6344TIP3   OH240590   5.156   1.633   1.620 -0.0197  0.1845  0.1745
 6344TIP3    H140591   5.067   1.628   1.585 -0.0207  0.3028  0.1599
 6344TIP3    H240592   5.170   1.727   1.635  0.3422  0.2382 -0.4459
 6345TIP3   OH240593   0.677   2.267   0.620  0.9693  0.2235  0.1751
 6345TIP3    H140594   0.648   2.259   0.529  4.0194 -0.4629 -0.8422
 6345TIP3    H240595   0.763   2.308   0.614  0.9913  0.7343  2.8390
 6346TIP3   OH240596   0.052   6.654   8.111  0.7741  0.1855 -0.0309
 6346TIP3    H140597   0.133   6.606   8.096 -0.0255 -1.3660  0.4136
 6346TIP3    H240598   0.001   6.597   8.169 -0.5224  1.2420 -0.1024
 6347TIP3   OH240599   1.219   4.045   5.968  0.0862 -0.3534  0.0769
 6347TIP3    H140600   1.180   4.125   6.002 -1.1926 -1.0351  0.2374
 6347TIP3    H240601   1.199   3.978   6.033 -1.2442 -1.3908 -1.3166
 6348TIP3   OH240602   4.358   3.656   7.696  0.1792  0.0644  0.2312
 6348TIP3    H140603   4.401   3.735   7.664  0.1616  0.0083  0.0672
 6348TIP3    H240604   4.430   3.598   7.722  0.1864  0.2442  0.6181
 6349TIP3   OH240605   0.075   6.360   7.009  0.7697 -0.2229 -0.4178
 6349TIP3    H140606   0.066   6.290   7.073 -0.7980  0.1610 -0.1534
 6349TIP3    H240607   0.113   6.318   6.932  0.9604 -1.0923  0.1337
 6350TIP3   OH240608   0.244   3.698   7.025  0.1095 -0.0079 -0.2161
 6350TIP3    H140609   0.332   3.674   7.057 -0.6291 -1.0790  1.1083
 6350TIP3    H240610   0.216   3.623   6.973  0.6604  1.0799 -2.1799
 6351TIP3   OH240611   5.288   4.946   0.375  0.0669 -0.0742  0.6931
 6351TIP3    H140612   5.309   4.979   0.287  1.6211 -1.1926  0.6022
 6351TIP3    H240613   5.228   4.873   0.360  0.5069 -0.4075  0.5280
 6352TIP3   OH240614   4.530   1.593   0.912  0.0009 -0.2311 -0.4789
 6352TIP3    H140615   4.512   1.619   1.003 -1.3117 -2.3566 -0.0516
 6352TIP3    H240616   4.449   1.614   0.865  0.1080 -0.5354 -0.8021
 6353TIP3   OH240617   6.235   0.569   7.270  0.3800  0.1249  0.5953
 6353TIP3    H140618   6.190   0.581   7.186 -0.1299 -0.0300  0.8402
 6353TIP3    H240619   6.295   0.644   7.276 -1.0065  1.2562  0.9922
 6354TIP3   OH240620   0.504   2.241   7.644  0.5406 -0.0166  1.0641
 6354TIP3    H140621   0.591   2.273   7.669  1.2952 -0.3860 -0.8363
 6354TIP3    H240622   0.520   2.194   7.562 -1.3656 -0.6960  1.0431
 6355TIP3   OH240623   0.473   0.683   6.498 -0.1930 -0.2180  0.5480
 6355TIP3    H140624   0.418   0.759   6.516  2.1589  1.2753  1.9301
 6355TIP3    H240625   0.522   0.706   6.419 -2.2278 -2.0191 -1.3787
 6356TIP3   OH240626   0.956   5.547   7.825 -0.5129 -0.3266 -0.2797
 6356TIP3    H140627   0.988   5.493   7.752 -1.1928 -1.2419  0.0815
 6356TIP3    H240628   0.863   5.558   7.806 -0.7582 -0.8280  0.6061
 6357TIP3   OH240629   0.212   6.214   7.501  0.2810  0.1473 -0.1379
 6357TIP3    H140630   0.260   6.297   7.506  0.2512  0.1693 -0.2104
 6357TIP3    H240631   0.120   6.239   7.509  0.3263  0.0307  0.7799
 6358TIP3   OH240632   0.415   1.436   7.838  0.1658 -0.0613  0.3249
 6358TIP3    H140633   0.506   1.438   7.868  0.4894  1.9776 -0.6391
 6358TIP3    H240634   0.419   1.393   7.752  0.0178 -1.0454  0.7953
 6359TIP3   OH240635   4.056   6.768   0.679 -0.5113 -0.0772 -1.1216
 6359TIP3    H140636   4.015   6.846   0.717 -1.0043 -2.0857  3.1407
 6359TIP3    H240637   4.143   6.797   0.653 -2.3059  2.9155 -4.7702
 6360TIP3   OH240638   5.800   6.067   7.621  0.0763 -0.1893  0.0894
 6360TIP3    H140639   5.780   6.069   7.715 -0.8409 -1.0410 -0.0667
 6360TIP3    H240640   5.724   6.023   7.581  0.1269  0.7856 -1.1418
 6361TIP3   OH240641   5.639   2.490   8.398 -0.2091 -0.7511  0.0513
 6361TIP3    H140642   5.665   2.489   8.306 -1.4359  2.6127 -0.4496
 6361TIP3    H240643   5.545   2.475   8.396 -0.3779  0.1480  0.6497
 6362TIP3   OH240644   3.359   3.325   8.518 -0.3312 -0.4314 -0.5008
 6362TIP3    H140645   3.393   3.380   8.589 -1.3931  0.9425 -1.0090
 6362TIP3    H240646   3.429   3.261   8.501  1.0549  0.9121 -0.0585
 6363TIP3   OH240647   1.189   4.426   7.892 -0.2837 -0.1600  0.4833
 6363TIP3    H140648   1.199   4.338   7.929  0.4743 -0.1501  0.3104
 6363TIP3    H240649   1.223   4.418   7.803  0.8807  0.5779  0.8397
 6364TIP3   OH240650   2.450   1.305   7.200 -0.2352 -0.0679 -0.1751
 6364TIP3    H140651   2.526   1.267   7.246 -1.3077 -0.3661  1.4274
 6364TIP3    H240652   2.470   1.398   7.194 -0.6632  0.2743  2.3137
 6365TIP3   OH240653   4.650   3.424   8.142 -0.1071  0.2039 -0.5278
 6365TIP3    H140654   4.618   3.338   8.114 -0.2240 -0.2963  1.0772
 6365TIP3    H240655   4.721   3.443   8.081 -0.8729 -0.4610 -1.6680
 6366TIP3   OH240656   2.013   5.931   7.535  0.3086  0.3600 -0.9524
 6366TIP3    H140657   2.040   5.864   7.597 -0.4939  1.4190  0.6214
 6366TIP3    H240658   1.965   5.883   7.467 -0.5467 -0.6550  0.3097
 6367TIP3   OH240659   5.131   0.174   7.863  0.0780  0.2727  0.0358
 6367TIP3    H140660   5.044   0.150   7.832  0.3952  1.1022 -1.6132
 6367TIP3    H240661   5.185   0.097   7.845  0.0478  0.3912 -0.5806
 6368TIP3   OH240662   0.332   4.780   1.778  0.3384 -1.2005 -0.0361
 6368TIP3    H140663   0.317   4.853   1.838 -1.3123 -1.9974  0.5911
 6368TIP3    H240664   0.254   4.725   1.787  0.4269 -1.8015 -2.2919
 6369TIP3   OH240665   0.941   5.810   8.157 -0.6045  0.2862  0.6412
 6369TIP3    H140666   0.849   5.834   8.147 -1.1520 -1.3154  1.4723
 6369TIP3    H240667   0.954   5.801   8.251  0.4662  0.7127  0.5496
 6370TIP3   OH240668   1.547   4.209   1.316  0.1391 -0.0343 -0.2576
 6370TIP3    H140669   1.555   4.220   1.411 -1.1510  0.1709 -0.1633
 6370TIP3    H240670   1.578   4.292   1.280  0.2326  0.0431 -0.0035
 6371TIP3   OH240671   1.064   2.218   0.664  0.4707  0.1217  0.3995
 6371TIP3    H140672   1.124   2.284   0.700 -0.6482  0.1169  2.4509
 6371TIP3    H240673   0.981   2.264   0.654  0.4986 -0.1425 -1.4221
 6372TIP3   OH240674   1.351   1.428   0.304  0.1886 -0.0023  0.2385
 6372TIP3    H140675   1.333   1.418   0.398  0.7056 -2.2465  0.1452
 6372TIP3    H240676   1.445   1.412   0.296  0.1118  0.0033 -0.6998
 6373TIP3   OH240677   0.991   1.998   5.629  0.3501  0.0005  0.5689
 6373TIP3    H140678   0.919   1.949   5.589 -0.7129 -0.8819  3.3056
 6373TIP3    H240679   0.949   2.076   5.667  0.8161 -0.3787  1.9418
 6374TIP3   OH240680   2.821   2.681   7.072 -0.3719 -0.0381 -0.0753
 6374TIP3    H140681   2.824   2.745   7.001  0.4937 -0.7221 -0.6954
 6374TIP3    H240682   2.780   2.726   7.144  1.0094  1.5262 -0.2063
 6375TIP3   OH240683   0.760   4.943   7.138 -0.4684 -0.4726  0.0250
 6375TIP3    H140684   0.671   4.923   7.168 -0.6939 -0.5477 -0.6807
 6375TIP3    H240685   0.769   4.896   7.056 -0.7562  1.6976 -1.3305
 6376TIP3   OH240686   4.280   5.505   0.985  0.6575  0.1665  0.9162
 6376TIP3    H140687   4.215   5.457   0.934 -2.1632  2.4904  2.0406
 6376TIP3    H240688   4.329   5.555   0.920 -0.2795  0.1413  0.1684
 6377TIP3   OH240689   0.095   5.392   8.305  0.0180 -0.8617  0.1617
 6377TIP3    H140690   0.006   5.356   8.307 -0.9636  1.3718 -0.3631
 6377TIP3    H240691   0.135   5.360   8.385 -0.9252 -2.6732 -0.0406
 6378TIP3   OH240692   0.426   0.355   6.019 -0.2358  0.9902  0.1901
 6378TIP3    H140693   0.396   0.441   6.047 -0.3173  0.7972  0.7115
 6378TIP3    H240694   0.512   0.372   5.980 -0.1587  1.2846  0.4751
 6379TIP3   OH240695   6.620   2.177   7.727  0.3542 -0.2830  0.7992
 6379TIP3    H140696   6.558   2.118   7.770  0.7712 -0.4281  1.2162
 6379TIP3    H240697   6.689   2.118   7.694  0.1889 -0.1421  0.1901
 6380TIP3   OH240698   6.017   4.268   1.634  0.2351 -0.0450 -0.1347
 6380TIP3    H140699   6.052   4.180   1.615  0.8603  0.3747 -0.9785
 6380TIP3    H240700   5.922   4.259   1.621  0.1238 -0.8962  1.0280
 6381TIP3   OH240701   1.069   2.910   1.936 -0.4569 -0.2192  0.2111
 6381TIP3    H140702   1.062   2.994   1.892 -0.2864 -0.1041  0.3972
 6381TIP3    H240703   1.032   2.846   1.875  1.3956 -0.3324 -0.8783
 6382TIP3   OH240704   3.436   4.233   1.008  0.0535  0.3930 -0.3424
 6382TIP3    H140705   3.485   4.151   1.014 -0.2764  0.0013 -2.3064
 6382TIP3    H240706   3.456   4.279   1.089  2.3909 -0.4584 -0.3604
 6383TIP3   OH240707   1.347   1.984   6.640 -0.0026 -0.1135 -0.6482
 6383TIP3    H140708   1.412   2.052   6.621 -1.5773  1.4516 -0.7476
 6383TIP3    H240709   1.388   1.902   6.614  0.7519  1.1302 -3.7534
 6384TIP3   OH240710   4.710   4.792   7.367 -0.4694  0.3095  0.0462
 6384TIP3    H140711   4.758   4.875   7.377 -0.2897  0.2588 -0.3799
 6384TIP3    H240712   4.634   4.802   7.425  0.0796  0.3692  0.7750
 6385TIP3   OH240713   5.164   0.019   1.465 -0.0053 -0.0234 -0.0413
 6385TIP3    H140714   5.076  -0.018   1.460 -0.3823  0.8176  0.1960
 6385TIP3    H240715   5.151   0.113   1.453  0.7677  0.2098  0.8767
 6386TIP3   OH240716   3.067   4.594   0.859  0.2394  0.4584 -0.7384
 6386TIP3    H140717   3.026   4.648   0.792 -1.7149 -0.8812 -0.7115
 6386TIP3    H240718   3.019   4.616   0.939  1.3347  0.7113 -0.1290
 6387TIP3   OH240719   4.969   4.570   6.610 -0.1420  0.0445 -0.2421
 6387TIP3    H140720   4.902   4.639   6.612  0.4961  0.6741 -0.5384
 6387TIP3    H240721   4.990   4.560   6.518  1.8469  1.5026 -0.0060
 6388TIP3   OH240722   3.598   0.818   7.163  0.1552  0.4219 -0.1787
 6388TIP3    H140723   3.562   0.789   7.247 -2.0352 -0.9862 -1.5250
 6388TIP3    H240724   3.693   0.819   7.177 -0.2016  2.2099  2.8894
 6389TIP3   OH240725   5.858   4.413   0.354 -0.3445  0.4971  0.1078
 6389TIP3    H140726   5.933   4.359   0.376  0.4976  0.4588 -2.4826
 6389TIP3    H240727   5.896   4.497   0.327 -1.3449  0.9986  0.1995
 6390TIP3   OH240728   0.391   3.560   8.543 -0.5957 -0.2763  0.0132
 6390TIP3    H140729   0.303   3.597   8.540 -0.4875  0.5123  3.0537
 6390TIP3    H240730   0.377   3.467   8.560 -0.8153 -0.5528 -1.5559
 6391TIP3   OH240731   2.205   0.122   1.777 -0.4936 -0.8426 -0.1381
 6391TIP3    H140732   2.185   0.121   1.871 -0.4356 -0.9853 -0.1273
 6391TIP3    H240733   2.286   0.172   1.770 -1.1625  0.2574 -0.2427
 6392TIP3   OH240734   5.150   3.750   1.043  0.2551 -1.0375 -0.1982
 6392TIP3    H140735   5.091   3.823   1.025  1.0660 -0.9228 -2.9709
 6392TIP3    H240736   5.113   3.706   1.119 -1.1388  1.3143  0.5890
 6393TIP3   OH240737   4.318   1.915   8.492  0.2308  0.0841  0.2681
 6393TIP3    H140738   4.352   2.004   8.503  0.9797 -0.2483  0.7213
 6393TIP3    H240739   4.396   1.860   8.487 -0.2250 -0.5436 -0.0404
 6394TIP3   OH240740   3.558   0.948   0.276 -0.6768  0.0437  0.5142
 6394TIP3    H140741   3.611   0.939   0.355 -0.6756  1.0963  0.6528
 6394TIP3    H240742   3.583   1.034   0.240  0.8329 -1.2345 -1.7783
 6395TIP3   OH240743   6.825   3.106   6.857  0.6389  1.0179  0.0183
 6395TIP3    H140744   6.778   3.026   6.832  2.0061  0.0514  0.4038
 6395TIP3    H240745   6.843   3.150   6.774  3.7818 -1.3792 -0.7597
 6396TIP3   OH240746   0.874   4.181   7.863 -0.4978 -0.5755  0.3930
 6396TIP3    H140747   0.942   4.129   7.906  0.2392 -1.2590 -1.5076
 6396TIP3    H240748   0.883   4.160   7.770 -1.0005  2.0002 -0.3171
 6397TIP3   OH240749   0.171   1.053   6.477  0.1078 -0.0098  0.2019
 6397TIP3    H140750   0.138   0.969   6.507  2.2329 -1.0981 -0.3618
 6397TIP3    H240751   0.120   1.072   6.398  0.2401 -1.2365 -0.1998
 6398TIP3   OH240752   0.898   3.428   0.702  0.3336  0.3680 -0.0371
 6398TIP3    H140753   0.812   3.465   0.681  0.2490  1.2453  1.6866
 6398TIP3    H240754   0.899   3.344   0.656 -1.5286  0.2539  0.0300
 6399TIP3   OH240755   4.255   4.520   7.875  0.0098 -0.0661 -0.0089
 6399TIP3    H140756   4.266   4.613   7.892  1.0447  0.1141 -1.5163
 6399TIP3    H240757   4.334   4.479   7.911 -1.1001 -0.6119  2.0102
 6400TIP3   OH240758   0.205   6.254   0.325 -0.1194  0.3359 -0.2523
 6400TIP3    H140759   0.271   6.318   0.352  0.2129  0.2391 -0.8015
 6400TIP3    H240760   0.244   6.169   0.345 -0.0991  0.2794 -0.5215
 6401TIP3   OH240761   2.917   0.545   7.648 -1.0137 -0.0218  0.2610
 6401TIP3    H140762   2.854   0.600   7.600 -1.0651  0.3774  0.7728
 6401TIP3    H240763   2.911   0.459   7.606  1.9542  1.2443 -3.2731
 6402TIP3   OH240764   3.132   1.715   1.346  0.0047  0.3735 -0.0222
 6402TIP3    H140765   3.037   1.700   1.351  0.1295 -1.1885 -1.4620
 6402TIP3    H240766   3.163   1.652   1.281  1.9177  1.4477 -0.2367
 6403TIP3   OH240767   5.474   1.895   6.597  0.0821 -0.8567  0.2100
 6403TIP3    H140768   5.391   1.925   6.558  0.2115  0.8044  1.1505
 6403TIP3    H240769   5.500   1.821   6.542 -1.1996 -0.3926 -1.0986
 6404TIP3   OH240770   6.808   3.252   8.561 -0.1417  0.3003 -0.0742
 6404TIP3    H140771   6.883   3.281   8.510  1.9994 -0.5871  2.3544
 6404TIP3    H240772   6.820   3.158   8.569 -1.1772  0.2359  0.8967
 6405TIP3   OH240773   2.622   6.868   7.103 -0.0294 -0.7904 -1.2295
 6405TIP3    H140774   2.579   6.908   7.027 -1.4987 -1.6684 -0.8842
 6405TIP3    H240775   2.659   6.786   7.069 -0.7617 -1.2253 -0.9860
 6406TIP3   OH240776   2.597   4.394   8.390  0.3921 -0.3555 -0.0901
 6406TIP3    H140777   2.593   4.301   8.411  0.5615 -0.3960 -0.2317
 6406TIP3    H240778   2.508   4.418   8.367  0.2117 -0.3218  0.6281
 6407TIP3   OH240779   6.168   6.389   0.400  0.1051 -0.1271  0.4318
 6407TIP3    H140780   6.092   6.408   0.456 -2.3135  1.2618 -2.9697
 6407TIP3    H240781   6.220   6.469   0.404  0.4086 -0.3554  1.2976
 6408TIP3   OH240782   0.507   0.061   1.444 -0.2925  0.4399  0.0030
 6408TIP3    H140783   0.468   0.049   1.531 -0.8804 -0.6442 -0.3969
 6408TIP3    H240784   0.482   0.150   1.419  2.2495  1.9078  2.0897
 6409TIP3   OH240785   0.104   4.098   0.796  0.0964 -0.0100 -0.1193
 6409TIP3    H140786   0.197   4.081   0.812  0.2046  0.0061 -0.7007
 6409TIP3    H240787   0.096   4.193   0.799  0.1540  0.0023 -0.3610
 6410TIP3   OH240788   2.791   1.116   8.291  0.1778 -0.1308 -0.3209
 6410TIP3    H140789   2.778   1.066   8.210  1.7236  1.1387 -1.4083
 6410TIP3    H240790   2.884   1.108   8.310  0.3014  1.5844 -0.0418
 6411TIP3   OH240791   3.689   0.545   8.125 -0.1579  0.5055 -0.5561
 6411TIP3    H140792   3.609   0.569   8.077  0.4433  0.4743 -1.6084
 6411TIP3    H240793   3.760   0.569   8.066  0.5519 -1.3802 -0.5500
 6412TIP3   OH240794   2.800   0.887   1.424  0.1382  0.1559  0.3050
 6412TIP3    H140795   2.863   0.938   1.372 -1.4958  2.5549  0.5448
 6412TIP3    H240796   2.810   0.920   1.513 -1.5543  0.7225  0.3163
 6413TIP3   OH240797   3.132   0.103   1.939  0.2839  0.5597 -0.3425
 6413TIP3    H140798   3.225   0.098   1.958  0.1501 -0.9067  0.1125
 6413TIP3    H240799   3.093   0.147   2.014  0.8117  3.1773 -1.4880
 6414TIP3   OH240800   5.911   4.608   7.818  0.3325 -0.4744  0.7363
 6414TIP3    H140801   5.888   4.600   7.725  1.3489 -0.9102  0.5118
 6414TIP3    H240802   5.985   4.549   7.830  0.6506  0.0905  1.6720
 6415TIP3   OH240803   5.741   3.759   6.786 -0.2233  0.0758 -0.2916
 6415TIP3    H140804   5.681   3.820   6.744  0.2203 -0.7966 -2.3754
 6415TIP3    H240805   5.821   3.809   6.801 -0.3056  0.3570 -0.7745
 6416TIP3   OH240806   6.173   4.545   2.239  0.2716 -0.1447  0.4083
 6416TIP3    H140807   6.117   4.621   2.220  0.5871 -0.3728 -1.7064
 6416TIP3    H240808   6.258   4.583   2.261 -0.0475  0.1378  1.1959
 6417TIP3   OH240809   3.532   5.895   6.996  0.7766 -0.0905 -0.1693
 6417TIP3    H140810   3.598   5.964   7.001  2.0005 -1.1636 -1.0671
 6417TIP3    H240811   3.452   5.936   7.030  1.5455  1.6647 -0.3959
 6418TIP3   OH240812   2.875   4.623   1.373 -0.3007  0.3981  0.3208
 6418TIP3    H140813   2.943   4.562   1.401  0.2598 -0.0180 -1.8379
 6418TIP3    H240814   2.862   4.680   1.449  1.7011 -0.1598  1.1516
 6419TIP3   OH240815   3.543   2.549   7.149 -0.1816 -0.1342 -0.0501
 6419TIP3    H140816   3.485   2.531   7.076 -2.0804  0.7186  1.1704
 6419TIP3    H240817   3.621   2.587   7.109 -0.5018 -1.1337 -1.7241
 6420TIP3   OH240818   5.277   1.854   8.258 -0.3379  0.1663 -0.2911
 6420TIP3    H140819   5.302   1.762   8.261 -0.6491  0.0895  0.2730
 6420TIP3    H240820   5.214   1.863   8.330  0.9808  1.2038  0.7682
 6421TIP3   OH240821   0.985   0.301   6.853  0.1649  0.1458  0.1141
 6421TIP3    H140822   1.026   0.277   6.770 -0.2337 -0.1496 -0.0002
 6421TIP3    H240823   1.021   0.387   6.873 -0.1521  0.4558 -0.6339
 6422TIP3   OH240824   4.754   6.466   8.459 -0.2009 -0.4353  0.3816
 6422TIP3    H140825   4.835   6.457   8.410  1.5121  1.2289  2.6947
 6422TIP3    H240826   4.734   6.377   8.487 -1.3324 -1.4872 -3.1922
 6423TIP3   OH240827   0.902   0.139   1.179  0.1378  0.0436 -0.0377
 6423TIP3    H140828   0.811   0.169   1.172  0.3579  0.2800 -2.4188
 6423TIP3    H240829   0.932   0.175   1.263 -1.6018  0.9764  0.2246
 6424TIP3   OH240830   0.124   0.869   8.132 -0.5188  0.0201 -0.1115
 6424TIP3    H140831   0.197   0.840   8.078  0.1481  0.3117  0.6031
 6424TIP3    H240832   0.133   0.820   8.214 -1.9655 -0.9994 -0.5250
 6425TIP3   OH240833   5.912   0.796   0.788  0.4876  0.3841 -0.0269
 6425TIP3    H140834   6.005   0.773   0.793 -0.2462 -2.8190  2.2942
 6425TIP3    H240835   5.877   0.741   0.718  0.1870  1.1180 -0.4676
 6426TIP3   OH240836   4.820   6.858   8.214 -0.2525 -0.1990 -0.1662
 6426TIP3    H140837   4.811   6.825   8.304  4.1881 -2.2178 -0.1575
 6426TIP3    H240838   4.798   6.783   8.159 -2.9621  1.0312 -0.9049
 6427TIP3   OH240839   1.597   2.664   8.078 -0.2377  0.0288 -0.1534
 6427TIP3    H140840   1.561   2.681   7.991 -1.7830  0.9472  0.6380
 6427TIP3    H240841   1.521   2.658   8.135  0.6591 -1.8986  0.9589
 6428TIP3   OH240842   0.393   2.383   7.938 -0.2279  0.1951 -0.4564
 6428TIP3    H140843   0.335   2.431   7.997 -0.4687 -2.0355  1.2903
 6428TIP3    H240844   0.409   2.300   7.984  1.4901 -0.6974 -2.5191
 6429TIP3   OH240845   4.774   0.091   6.003  0.1664 -0.3303  0.3913
 6429TIP3    H140846   4.862   0.110   6.036 -0.5049  2.5439  0.8643
 6429TIP3    H240847   4.787   0.036   5.926  2.2719 -1.0066  1.1833
 6430TIP3   OH240848   2.042   2.517   6.601  0.6981 -0.1938 -0.3425
 6430TIP3    H140849   2.067   2.568   6.523  0.5313  1.5380  0.6749
 6430TIP3    H240850   2.090   2.435   6.592  1.2604  0.2587 -1.8964
 6431TIP3   OH240851   1.038   3.480   7.308 -0.0359  0.6410  0.4021
 6431TIP3    H140852   1.066   3.422   7.378  0.5594 -0.9456 -1.0616
 6431TIP3    H240853   1.118   3.497   7.257 -0.7500  0.2438 -0.9143
 6432TIP3   OH240854   6.625   3.057   7.286 -0.7277 -0.8287 -0.0470
 6432TIP3    H140855   6.683   3.069   7.361  1.6804 -2.9219 -1.4140
 6432TIP3    H240856   6.665   3.109   7.216 -0.5810 -2.1101 -0.9508
 6433TIP3   OH240857   5.221   0.226   6.991  0.0881  0.7860  0.5279
 6433TIP3    H140858   5.126   0.241   6.991 -0.0297  1.1240 -3.5544
 6433TIP3    H240859   5.231   0.131   6.982  0.1713  0.7526  0.9343
 6434TIP3   OH240860   4.063   4.360   5.958 -0.0713  0.4854 -0.4354
 6434TIP3    H140861   4.130   4.296   5.933 -1.1379 -1.1788  0.8124
 6434TIP3    H240862   4.112   4.432   5.999  1.0355 -0.1643 -0.5933
 6435TIP3   OH240863   2.316   1.190   0.497  0.1102 -0.3179 -0.2994
 6435TIP3    H140864   2.358   1.181   0.583  1.7588  0.3642 -0.9907
 6435TIP3    H240865   2.256   1.264   0.508  1.5156  0.8300 -0.1585
 6436TIP3   OH240866   0.270   1.144   7.182  0.7091  0.4869  0.1302
 6436TIP3    H140867   0.263   1.195   7.263 -0.8320  0.9908 -0.2752
 6436TIP3    H240868   0.363   1.128   7.172  0.9371  0.3432  2.0412
 6437TIP3   OH240869   1.364   1.606   7.802  0.5470 -0.1717 -0.2569
 6437TIP3    H140870   1.394   1.633   7.716  0.7022  1.0307  0.1553
 6437TIP3    H240871   1.365   1.686   7.854 -0.2342 -0.7396  0.6675
 6438TIP3   OH240872   0.814   0.685   8.266 -0.0079 -0.1517 -0.9100
 6438TIP3    H140873   0.875   0.737   8.214 -2.2297  1.8025 -1.7411
 6438TIP3    H240874   0.800   0.735   8.346 -0.8767 -0.2908 -0.9545
 6439TIP3   OH240875   0.275   6.245   1.275  0.3854  0.2748 -0.0528
 6439TIP3    H140876   0.330   6.224   1.199 -0.6116  0.4208 -0.8390
 6439TIP3    H240877   0.224   6.321   1.247 -1.6107 -1.0182 -0.0901
 6440TIP3   OH240878   2.762   2.550   0.908  0.3908  0.4384  0.0680
 6440TIP3    H140879   2.800   2.628   0.866  1.3852 -0.2803 -0.4189
 6440TIP3    H240880   2.765   2.570   1.002  2.6034  0.1931  0.1058
 6441TIP3   OH240881   5.272   2.329   1.379  0.3458 -0.2037  0.3331
 6441TIP3    H140882   5.220   2.389   1.325  0.3743 -0.0092  0.5189
 6441TIP3    H240883   5.274   2.370   1.465  3.9443  1.8236 -0.4701
 6442TIP3   OH240884   5.153   5.489   8.260 -0.2343 -0.4628  0.0406
 6442TIP3    H140885   5.147   5.483   8.356  0.4372  1.6057  0.2469
 6442TIP3    H240886   5.070   5.453   8.229 -0.6595 -0.7302  1.4199
 6443TIP3   OH240887   3.895   0.106   1.988  0.4965 -0.3905  1.2248
 6443TIP3    H140888   3.862   0.069   2.069  0.8243 -0.2498  1.4241
 6443TIP3    H240889   3.989   0.088   1.990  0.2897 -1.8142  0.1324
 6444TIP3   OH240890   5.810   0.585   0.945 -0.0724  0.3934 -0.4902
 6444TIP3    H140891   5.820   0.678   0.965 -0.5279  0.5311 -0.8790
 6444TIP3    H240892   5.897   0.547   0.958 -0.1070  0.6760  0.7043
 6445TIP3   OH240893   0.784   4.937   7.984 -0.6803 -0.4577  0.7137
 6445TIP3    H140894   0.831   4.982   7.914  0.6611 -0.6886  1.4302
 6445TIP3    H240895   0.745   5.008   8.036 -1.1873 -0.2668  0.0856
 6446TIP3   OH240896   6.501   0.176   6.519  0.4218  0.7485 -0.6213
 6446TIP3    H140897   6.529   0.200   6.431  1.0306  1.1555 -0.3237
 6446TIP3    H240898   6.492   0.081   6.516 -0.8989  0.8788 -1.4922
 6447TIP3   OH240899   1.958   6.809   0.232 -0.3790 -0.0148 -0.3537
 6447TIP3    H140900   1.996   6.874   0.290  1.6053 -2.3636  1.2107
 6447TIP3    H240901   2.026   6.795   0.165 -1.0054 -0.1208 -0.9799
 6448TIP3   OH240902   0.905   5.119   0.052 -0.2817 -0.2381 -0.1785
 6448TIP3    H140903   0.955   5.102   0.132 -2.0084  0.1897  1.0637
 6448TIP3    H240904   0.950   5.192   0.010  0.7359 -0.5507  0.3375
 6449TIP3   OH240905   0.090   2.578   0.933  0.5010 -0.1054 -0.7170
 6449TIP3    H140906   0.042   2.593   0.851 -0.7240 -0.8949 -0.1633
 6449TIP3    H240907   0.157   2.514   0.910 -1.0927 -1.8409 -0.7013
 6450TIP3   OH240908   6.312   4.622   0.836 -0.5681  0.0466 -0.0110
 6450TIP3    H140909   6.247   4.690   0.821 -0.3624  0.0007 -1.1915
 6450TIP3    H240910   6.388   4.668   0.872 -0.7676  0.2890  0.1014
 6451TIP3   OH240911   3.793   2.335   7.302 -0.3668 -0.3064  0.0738
 6451TIP3    H140912   3.824   2.244   7.306  1.6108  0.3216  0.2900
 6451TIP3    H240913   3.799   2.358   7.209  0.2838 -0.0535  0.1715
 6452TIP3   OH240914   3.743   3.082   1.442  0.0271 -0.3460  0.0577
 6452TIP3    H140915   3.665   3.035   1.471 -0.2874  0.9625  1.4619
 6452TIP3    H240916   3.763   3.142   1.513  0.1518  1.9694 -1.7853
 6453TIP3   OH240917   4.566   3.476   1.346 -0.3599 -0.3776  0.0385
 6453TIP3    H140918   4.648   3.445   1.384 -0.5199  0.5396  1.1679
 6453TIP3    H240919   4.508   3.401   1.351  0.3199 -0.9617 -0.5412
 6454TIP3   OH240920   2.415   1.398   7.989  0.2509 -0.1635 -0.4850
 6454TIP3    H140921   2.343   1.349   8.029  1.0692 -2.6308 -1.8650
 6454TIP3    H240922   2.452   1.448   8.062 -0.4504 -1.8496  1.1258
 6455TIP3   OH240923   0.241   0.007   6.565  0.4160  0.0016 -0.6346
 6455TIP3    H140924   0.257  -0.077   6.609  0.5862  0.8079  0.9199
 6455TIP3    H240925   0.325   0.032   6.529  0.7375  0.2123  0.2328
 6456TIP3   OH240926   5.284   5.540   7.666  0.2012  0.4889  0.6238
 6456TIP3    H140927   5.200   5.502   7.693 -0.7168  1.8896 -0.1605
 6456TIP3    H240928   5.286   5.532   7.571  1.5206 -0.5995  0.7089
 6457TIP3   OH240929   2.199   4.869   1.845  0.1367  0.3961 -0.3138
 6457TIP3    H140930   2.208   4.817   1.925 -0.3174 -1.1891 -1.2518
 6457TIP3    H240931   2.119   4.920   1.859 -0.8012 -1.0038 -0.3220
 6458TIP3   OH240932   2.810   0.054   8.542  0.3017 -0.1923  0.2290
 6458TIP3    H140933   2.769  -0.031   8.555 -1.5780  0.6817  0.4635
 6458TIP3    H240934   2.787   0.104   8.620 -0.0279  1.0215 -0.6117
 6459TIP3   OH240935   1.044   2.938   1.638  0.1338 -0.3382 -0.5325
 6459TIP3    H140936   1.078   2.854   1.605  2.1068 -0.5026  1.6430
 6459TIP3    H240937   1.108   3.003   1.609 -0.0320  0.0355 -0.0713
 6460TIP3   OH240938   1.344   6.610   7.378 -0.3691  0.0326 -0.3357
 6460TIP3    H140939   1.411   6.666   7.338  0.2300  1.9400  2.9431
 6460TIP3    H240940   1.265   6.628   7.328  0.3183  2.2306 -0.7566
 6461TIP3   OH240941   1.158   2.941   7.801 -0.1530  0.5553 -0.4129
 6461TIP3    H140942   1.193   2.996   7.731 -1.4483  0.6471 -1.0234
 6461TIP3    H240943   1.130   2.861   7.756  0.0534  0.1436  0.1805
 6462TIP3   OH240944   3.350   5.207   1.712 -0.0727 -0.0631 -0.1259
 6462TIP3    H140945   3.309   5.249   1.788  1.8350  0.4900  0.6700
 6462TIP3    H240946   3.342   5.114   1.730  0.7938  0.0598  1.0453
 6463TIP3   OH240947   4.315   4.143   0.234 -0.3015 -0.9882  0.2704
 6463TIP3    H140948   4.328   4.087   0.158  1.9029 -0.1030 -0.0959
 6463TIP3    H240949   4.225   4.126   0.262 -1.0500 -1.6452 -2.2694
 6464TIP3   OH240950   6.356   6.199   6.309 -0.1738  0.0770 -0.2641
 6464TIP3    H140951   6.342   6.249   6.390  0.9941 -1.5619  1.0224
 6464TIP3    H240952   6.270   6.160   6.291 -0.3915  0.2706  0.3142
 6465TIP3   OH240953   4.947   1.863   7.185 -0.6577 -0.3031  0.4079
 6465TIP3    H140954   4.951   1.824   7.273 -4.3615  0.0809  0.9243
 6465TIP3    H240955   4.965   1.956   7.199  1.3535 -0.6356  0.2729
 6466TIP3   OH240956   4.139   0.612   7.756  0.0874  0.2921  0.2314
 6466TIP3    H140957   4.173   0.700   7.774  0.7403 -0.3812  2.6514
 6466TIP3    H240958   4.204   0.553   7.793  0.0532 -1.2951 -2.0475
 6467TIP3   OH240959   5.033   6.730   6.214  0.3392  0.2358  0.2847
 6467TIP3    H140960   5.026   6.657   6.275  1.1677  0.8707  1.1682
 6467TIP3    H240961   5.010   6.807   6.266  0.1753  0.6908 -0.4488
 6468TIP3   OH240962   0.851   1.032   6.796 -0.1471  0.4053 -0.4049
 6468TIP3    H140963   0.855   1.122   6.761 -0.8227  0.9546  0.8611
 6468TIP3    H240964   0.820   0.980   6.722  1.8130  0.9161 -1.6428
 6469TIP3   OH240965   6.358   5.373   8.289 -0.1222 -0.1699 -0.5225
 6469TIP3    H140966   6.299   5.329   8.350  1.8273 -2.0864  0.0872
 6469TIP3    H240967   6.368   5.461   8.324  0.1184 -0.9058  1.3182
 6470TIP3   OH240968   1.278   1.647   1.391 -0.6346  0.6789  0.4935
 6470TIP3    H140969   1.197   1.686   1.425 -2.1864 -1.7530 -0.0980
 6470TIP3    H240970   1.302   1.582   1.458 -1.2013 -1.0404 -0.8924
 6471TIP3   OH240971   5.731   1.540   8.034  0.3224 -0.2732 -0.6950
 6471TIP3    H140972   5.658   1.478   8.028  0.4816 -0.5661  0.2963
 6471TIP3    H240973   5.707   1.611   7.973 -0.7846 -0.3571 -0.3815
 6472TIP3   OH240974   3.586   4.481   8.026 -0.0852  0.6861 -0.4526
 6472TIP3    H140975   3.597   4.425   7.949 -0.5722  0.4565 -0.3602
 6472TIP3    H240976   3.492   4.497   8.031 -0.1894 -0.0837  0.6247
 6473TIP3   OH240977   5.095   5.982   7.662  0.3951  0.2579  0.0089
 6473TIP3    H140978   5.149   6.030   7.599 -0.7793  0.4996 -0.8403
 6473TIP3    H240979   5.024   6.042   7.683  0.7632  0.1831  1.5940
 6474TIP3   OH240980   1.334   4.888   0.045  0.0388  0.1084 -0.4841
 6474TIP3    H140981   1.416   4.885  -0.004  0.3105  0.9653 -0.1055
 6474TIP3    H240982   1.325   4.980   0.070 -0.4048 -0.2116  0.5547
 6475TIP3   OH240983   3.438   0.347   0.267 -0.5094  0.7861 -0.0661
 6475TIP3    H140984   3.457   0.425   0.318  0.9660  0.4776 -0.0907
 6475TIP3    H240985   3.389   0.290   0.326 -0.7771  1.3434  0.2499
 6476TIP3   OH240986   5.396   4.079   0.554  0.4771  0.5852  0.0180
 6476TIP3    H140987   5.454   4.044   0.622 -0.8481  1.5075  1.6869
 6476TIP3    H240988   5.317   4.026   0.559  0.2775  0.8054 -0.6668
 6477TIP3   OH240989   6.194   3.711   7.708 -0.0998 -0.2047  0.2000
 6477TIP3    H140990   6.127   3.644   7.721  1.6120 -2.1554 -0.5850
 6477TIP3    H240991   6.276   3.663   7.698  1.2043  2.0000 -0.5665
 6478TIP3   OH240992   1.643   2.926   0.624  0.8295 -0.1956  0.4266
 6478TIP3    H140993   1.577   2.860   0.646  1.8002 -2.3296 -2.4670
 6478TIP3    H240994   1.726   2.887   0.650  1.3364  0.3857 -0.2814
 6479TIP3   OH240995   6.421   1.502   8.141 -0.3409 -0.2668 -0.2604
 6479TIP3    H140996   6.333   1.467   8.156 -0.4069 -1.0371 -2.1901
 6479TIP3    H240997   6.408   1.575   8.080  0.3831 -0.7390 -1.0077
 6480TIP3   OH240998   2.833   3.815   8.192 -0.1093 -0.3909  0.2341
 6480TIP3    H140999   2.803   3.903   8.214  0.1790 -0.2685  0.1358
 6480TIP3    H241000   2.910   3.801   8.247  2.2561  0.9371 -2.5175
 6481TIP3   OH241001   5.493   4.635   1.064 -0.0512 -0.1973 -0.1082
 6481TIP3    H141002   5.566   4.637   1.003 -0.5806  0.7452 -0.7443
 6481TIP3    H241003   5.452   4.550   1.050  0.4850 -0.4314 -0.2785
 6482TIP3   OH241004   1.931   3.540   7.716  0.3705 -0.2224  1.3150
 6482TIP3    H141005   1.994   3.528   7.645 -1.0508  2.3480 -0.5434
 6482TIP3    H241006   1.867   3.470   7.704  0.5670 -0.2710  0.5250
 6483TIP3   OH241007   5.729   5.659   0.471  0.9098 -0.2101 -0.3732
 6483TIP3    H141008   5.791   5.636   0.541  0.6572 -0.0385 -0.0910
 6483TIP3    H241009   5.724   5.755   0.475  0.2990 -0.2513 -0.1105
 6484TIP3   OH241010   4.563   2.835   7.137 -0.0913 -0.4612  0.0430
 6484TIP3    H141011   4.631   2.781   7.097 -0.3008 -1.0995  0.5410
 6484TIP3    H241012   4.585   2.837   7.230  0.1950  0.7291 -0.0306
 6485TIP3   OH241013   2.057   1.669   1.214  0.3437  0.5133 -0.1466
 6485TIP3    H141014   2.088   1.661   1.304 -2.2562  1.4665  0.9290
 6485TIP3    H241015   2.133   1.646   1.161  1.2034 -2.9886  2.2421
 6486TIP3   OH241016   0.289   3.321   5.856 -0.2268  0.0753 -0.2974
 6486TIP3    H141017   0.243   3.333   5.773  0.5311  1.0802 -0.6041
 6486TIP3    H241018   0.221   3.323   5.923 -0.6943  0.8964 -0.7847
 6487TIP3   OH241019   1.598   2.317   1.045  0.4412 -0.0642 -0.3344
 6487TIP3    H141020   1.690   2.299   1.025  0.7892  0.0174  1.0560
 6487TIP3    H241021   1.601   2.363   1.129 -0.8912 -0.2870 -0.1435
 6488TIP3   OH241022   3.183   2.281   7.651 -0.3137  0.5830  0.3053
 6488TIP3    H141023   3.165   2.362   7.700  1.4085 -0.1624  2.3443
 6488TIP3    H241024   3.161   2.211   7.712 -1.2297 -0.5314 -1.2296
 6489TIP3   OH241025   6.832   1.290   7.218 -0.6883  0.3740  0.0795
 6489TIP3    H141026   6.913   1.290   7.269  0.1710 -0.9490 -1.1883
 6489TIP3    H241027   6.862   1.295   7.127 -1.7936 -2.7511 -0.6029
 6490TIP3   OH241028   0.447   2.177   0.403  0.6242 -0.4430 -0.4489
 6490TIP3    H141029   0.515   2.237   0.372  0.7447  0.4521  1.3864
 6490TIP3    H241030   0.365   2.216   0.374  0.7902 -0.2967 -0.7265
 6491TIP3   OH241031   1.906   0.300   0.282  0.3632 -0.4593 -0.2436
 6491TIP3    H141032   1.877   0.248   0.207 -0.0931 -1.3773  0.5463
 6491TIP3    H241033   1.874   0.252   0.358  2.8871 -0.8687  0.6526
 6492TIP3   OH241034   2.870   2.736   1.931 -0.3557 -0.2809 -0.0528
 6492TIP3    H141035   2.828   2.802   1.876  0.0556 -2.0574 -2.6594
 6492TIP3    H241036   2.942   2.783   1.973  0.5634  0.7740 -2.6185
 6493TIP3   OH241037   4.446   4.379   0.497  0.3297 -0.2360 -0.0055
 6493TIP3    H141038   4.487   4.392   0.583 -0.5485 -0.8174  0.5227
 6493TIP3    H241039   4.373   4.321   0.515  1.9241 -2.9595 -1.6261
 6494TIP3   OH241040   3.326   1.064   0.668 -0.2628 -0.1405  0.4497
 6494TIP3    H141041   3.341   1.157   0.651 -0.6018 -0.2396 -0.4445
 6494TIP3    H241042   3.315   1.025   0.581  1.1504 -1.2384  0.7282
 6495TIP3   OH241043   4.157   1.602   7.334 -0.1078  0.0915  0.2958
 6495TIP3    H141044   4.099   1.557   7.396 -0.5995  0.4543  0.1007
 6495TIP3    H241045   4.241   1.609   7.381  1.0291 -3.8664 -0.7803
 6496TIP3   OH241046   1.804   4.400   7.405  0.1833  0.5306  0.4175
 6496TIP3    H141047   1.884   4.392   7.458 -0.1025 -0.0710  0.7830
 6496TIP3    H241048   1.771   4.310   7.401 -0.0221  0.6437 -0.4492
 6497TIP3   OH241049   4.524   2.672   1.036 -0.0922  0.5608 -0.5932
 6497TIP3    H141050   4.443   2.696   0.992 -1.0966 -1.7740 -0.1593
 6497TIP3    H241051   4.554   2.594   0.989  0.4746 -0.1566  0.9134
 6498TIP3   OH241052   1.202   0.889   0.113  0.0000  0.4633  0.3436
 6498TIP3    H141053   1.147   0.814   0.134 -0.0970  0.9884  2.1431
 6498TIP3    H241054   1.141   0.962   0.100  0.1671  1.2015  2.9890
 6499TIP3   OH241055   0.853   0.477   0.045  0.7323  0.3112  0.1896
 6499TIP3    H141056   0.918   0.414   0.076 -0.3849 -1.2498 -0.4817
 6499TIP3    H241057   0.882   0.500  -0.043  0.3778 -0.4254 -0.1299
 6500TIP3   OH241058   0.505   6.778   7.855  0.0266  0.2593 -0.0952
 6500TIP3    H141059   0.415   6.789   7.826 -0.7102  1.2828  2.3724
 6500TIP3    H241060   0.522   6.852   7.913  2.2692 -0.2209 -0.0184
 6501TIP3   OH241061   2.953   1.866   8.161 -0.2940 -0.0248  0.2347
 6501TIP3    H141062   3.046   1.847   8.156 -0.1950  0.2423  0.9465
 6501TIP3    H241063   2.910   1.781   8.166 -0.0110 -0.1326  1.0003
 6502TIP3   OH241064   5.699   5.306   1.627 -0.1281 -0.3800  0.4338
 6502TIP3    H141065   5.611   5.270   1.632  0.9660 -3.4078 -0.2029
 6502TIP3    H241066   5.724   5.297   1.534  0.4712  1.5330  0.3561
 6503TIP3   OH241067   5.844   0.330   6.703 -0.0838  0.1059  0.5799
 6503TIP3    H141068   5.889   0.284   6.774  2.1008  0.7266 -0.3269
 6503TIP3    H241069   5.798   0.401   6.747  1.4249  0.6235  1.3927
 6504TIP3   OH241070   2.855   1.677   1.436  0.0653  0.0651 -0.7676
 6504TIP3    H141071   2.775   1.666   1.385 -0.0276  1.3864 -0.9309
 6504TIP3    H241072   2.870   1.591   1.475 -0.5318 -0.6405 -2.0280
 6505TIP3   OH241073   6.092   5.320   0.710 -0.0552 -0.3079 -0.7137
 6505TIP3    H141074   6.130   5.342   0.624 -1.4262 -3.7146 -2.3790
 6505TIP3    H241075   6.126   5.233   0.729 -0.6353 -0.0581  1.7853
 6506TIP3   OH241076   3.783   1.145   0.504  0.4192 -0.3287 -0.1185
 6506TIP3    H141077   3.712   1.081   0.509 -0.2363  0.3330 -0.6718
 6506TIP3    H241078   3.738   1.230   0.505  1.2496  0.1189  0.2249
 6507TIP3   OH241079   0.139   1.625   7.208  0.6622  0.8514  0.3230
 6507TIP3    H141080   0.097   1.539   7.202 -1.6016  1.6061  3.0475
 6507TIP3    H241081   0.223   1.614   7.162  0.3163 -2.6790  0.2432
 6508TIP3   OH241082   2.215   5.074   1.203 -0.0474 -0.3689 -0.1924
 6508TIP3    H141083   2.142   5.026   1.163  0.4641 -1.5081  0.2042
 6508TIP3    H241084   2.268   5.103   1.129 -0.0998 -0.8440 -0.4197
 6509TIP3   OH241085   0.409   3.754   1.487 -0.1706 -0.1823 -0.1157
 6509TIP3    H141086   0.487   3.709   1.453 -0.3604 -0.7143  0.1463
 6509TIP3    H241087   0.378   3.698   1.558 -1.4119 -0.5130 -0.9056
 6510TIP3   OH241088   2.966   2.726   7.775 -0.0561  0.2058  0.0070
 6510TIP3    H141089   3.048   2.690   7.809 -0.3584  0.5472  1.1490
 6510TIP3    H241090   2.981   2.821   7.770 -0.0467  0.1682 -0.7434
 6511TIP3   OH241091   4.087   4.100   7.713  0.1513  0.1218 -0.3309
 6511TIP3    H141092   4.171   4.055   7.713 -1.0349 -2.2820  1.1293
 6511TIP3    H241093   4.049   4.079   7.627  0.6199  0.4442 -0.6247
 6512TIP3   OH241094   2.730   4.058   1.740  0.3873  0.2804 -0.4044
 6512TIP3    H141095   2.662   4.014   1.791 -0.2437  1.7264  0.0569
 6512TIP3    H241096   2.808   4.053   1.794  0.1959  0.1379 -0.1409
 6513TIP3   OH241097   6.591   2.651   8.459 -0.2543  0.5053 -0.1596
 6513TIP3    H141098   6.619   2.568   8.497 -1.7415 -0.5391 -1.2102
 6513TIP3    H241099   6.600   2.714   8.529  1.8040 -0.3342  0.4048
 6514TIP3   OH241100   2.307   5.012   6.901  0.2097 -0.1068  0.3651
 6514TIP3    H141101   2.330   4.929   6.944 -1.3406 -0.6062  0.2683
 6514TIP3    H241102   2.258   5.061   6.967  1.1195  0.7664  0.4230
 6515TIP3   OH241103   5.321   1.065   0.628  0.4318  0.0440  0.3959
 6515TIP3    H141104   5.245   1.122   0.614  1.0728  1.1842  1.5156
 6515TIP3    H241105   5.373   1.108   0.695  1.5671 -1.2488  0.3947
 6516TIP3   OH241106   4.224   5.392   2.322  0.0142  0.3146 -0.0643
 6516TIP3    H141107   4.275   5.432   2.251  0.2833  1.1881  0.6058
 6516TIP3    H241108   4.141   5.441   2.322 -1.4578 -1.9522 -2.0220
 6517TIP3   OH241109   5.563   3.685   0.497  0.3035  0.4697 -0.6380
 6517TIP3    H141110   5.577   3.708   0.589 -0.2734  1.6922 -0.8430
 6517TIP3    H241111   5.468   3.681   0.488  0.3672 -0.4197 -1.0089
 6518TIP3   OH241112   2.119   1.542   8.450  0.0086 -0.1303  0.0488
 6518TIP3    H141113   2.155   1.519   8.364  0.5748  1.9024 -0.3159
 6518TIP3    H241114   2.164   1.483   8.511  1.2627 -0.1227 -0.8168
 6519TIP3   OH241115   5.635   2.315   7.608 -0.1437  0.2034 -0.0473
 6519TIP3    H141116   5.666   2.403   7.627  0.0085  0.2584 -0.5361
 6519TIP3    H241117   5.696   2.257   7.655  0.5869  0.3179 -0.8385
 6520TIP3   OH241118   3.857   4.932   1.184  0.2078 -0.2304 -0.1441
 6520TIP3    H141119   3.855   5.026   1.200 -0.4747 -0.6314  2.4785
 6520TIP3    H241120   3.945   4.905   1.212 -0.0165 -0.5434  0.2659
 6521TIP3   OH241121   0.445   1.850   8.121  0.8953  0.3466  0.0013
 6521TIP3    H141122   0.377   1.783   8.120  1.3904 -0.1769  0.7637
 6521TIP3    H241123   0.518   1.811   8.073  0.4262  1.1937 -1.4892
 6522TIP3   OH241124   6.665   0.009   1.884  0.1471 -0.2669  0.5177
 6522TIP3    H141125   6.693  -0.079   1.907 -1.6838 -0.8218  0.7881
 6522TIP3    H241126   6.650   0.006   1.790  0.0964 -0.2428  0.5250
 6523TIP3   OH241127   6.513   0.313   8.264 -0.3720  0.0218  0.1615
 6523TIP3    H141128   6.446   0.366   8.306 -1.4549 -0.8638 -0.3578
 6523TIP3    H241129   6.536   0.362   8.185 -0.5341  0.2571  0.2584
 6524TIP3   OH241130   5.239   0.733   0.235  0.2303  0.3727  0.5621
 6524TIP3    H141131   5.206   0.698   0.318  0.7300  1.5375  1.2743
 6524TIP3    H241132   5.316   0.679   0.216  0.5716  0.5971  1.2722
 6525TIP3   OH241133   3.480   4.513   1.139 -0.4605 -0.2391 -0.1859
 6525TIP3    H141134   3.451   4.465   1.216 -3.1285 -1.2574 -1.7037
 6525TIP3    H241135   3.571   4.537   1.158 -0.8331 -0.9620  2.9680
 6526TIP3   OH241136   4.287   5.464   0.384  0.0524  0.1514 -0.1448
 6526TIP3    H141137   4.380   5.464   0.408 -0.0879 -0.9735  0.4535
 6526TIP3    H241138   4.241   5.458   0.468 -0.5935  1.1558 -0.4025
 6527TIP3   OH241139   3.317   2.816   7.612  0.0066 -0.4833  0.4868
 6527TIP3    H141140   3.365   2.880   7.560 -0.4096  0.9358  1.7933
 6527TIP3    H241141   3.232   2.808   7.569  0.2308 -0.5363  0.0480
 6528TIP3   OH241142   2.674   0.636   1.441  0.2222 -0.0271 -0.6534
 6528TIP3    H141143   2.602   0.659   1.381  2.1666  0.7795 -2.8235
 6528TIP3    H241144   2.732   0.712   1.439  2.4918 -1.6751 -1.1513
 6529TIP3   OH241145   0.554   5.630   0.658 -1.0014  0.0959  0.2634
 6529TIP3    H141146   0.550   5.538   0.632  0.4737  0.1020 -0.0305
 6529TIP3    H241147   0.574   5.629   0.751  0.8548  0.1102 -0.1127
 6530TIP3   OH241148   3.048   1.452   1.360  0.2919  0.5492  0.0731
 6530TIP3    H141149   3.137   1.474   1.387  1.5912 -3.6300 -0.2190
 6530TIP3    H241150   2.999   1.448   1.442  0.5414  1.9137  0.3210
 6531TIP3   OH241151   3.000   6.278   8.394  0.4753  0.1776 -0.2850
 6531TIP3    H141152   3.018   6.280   8.488 -1.2401 -2.7131  0.2538
 6531TIP3    H241153   2.990   6.185   8.374  0.3373  0.7286 -3.2748
 6532TIP3   OH241154   3.492   4.120   7.923 -0.3385 -0.6778 -0.1730
 6532TIP3    H141155   3.579   4.144   7.954  0.1316  0.4704 -2.2411
 6532TIP3    H241156   3.498   4.026   7.905 -0.2325 -1.0901  1.7480
 6533TIP3   OH241157   5.132   5.176   6.878 -0.0015 -0.1995  0.1551
 6533TIP3    H141158   5.161   5.088   6.857 -1.1678 -0.2435 -1.4243
 6533TIP3    H241159   5.049   5.164   6.926  0.1184  0.0333  0.4257
 6534TIP3   OH241160   6.120   0.077   0.041  0.6609 -0.0848 -0.9205
 6534TIP3    H141161   6.089   0.047   0.127 -0.2122 -0.9134 -1.5191
 6534TIP3    H241162   6.206   0.037   0.032  0.6636 -0.1762 -0.5344
 6535TIP3   OH241163   1.422   6.016   6.792  0.0198 -0.0793 -0.2028
 6535TIP3    H141164   1.481   5.982   6.725 -1.7596 -0.0830 -1.8709
 6535TIP3    H241165   1.349   6.054   6.743  0.0677  2.7742  1.6528
 6536TIP3   OH241166   0.189   4.919   0.971 -0.0357  0.0369 -0.0156
 6536TIP3    H141167   0.151   4.835   0.996  1.0397 -0.5498 -0.3083
 6536TIP3    H241168   0.242   4.945   1.046  1.4517 -0.6674 -0.7851
 6537TIP3   OH241169   2.231   3.236   6.999  0.8255  0.3325 -0.0613
 6537TIP3    H141170   2.283   3.210   6.922  0.6426  0.5387 -0.2574
 6537TIP3    H241171   2.156   3.282   6.962  0.8435  0.6185  0.2560
 6538TIP3   OH241172   4.282   6.397   7.530 -0.3939 -0.5341  0.2318
 6538TIP3    H141173   4.358   6.350   7.496 -0.2455  0.2287 -0.5662
 6538TIP3    H241174   4.266   6.360   7.616  1.5994  0.0473  0.9216
 6539TIP3   OH241175   6.268   1.092   7.168  0.5096  0.2826 -0.4081
 6539TIP3    H141176   6.229   1.160   7.114  1.2840  0.2401 -1.0456
 6539TIP3    H241177   6.361   1.114   7.171  0.6292 -0.2692  0.0857
 6540TIP3   OH241178   3.620   4.775   7.952  0.4283 -0.2533  0.3158
 6540TIP3    H141179   3.619   4.684   7.982 -0.6065  0.1330  1.5482
 6540TIP3    H241180   3.579   4.824   8.023 -1.6714  0.8025 -1.4996
 6541TIP3   OH241181   4.460   0.234   0.210 -0.3712 -0.1606  0.5995
 6541TIP3    H141182   4.542   0.266   0.171 -1.2051  0.0686 -1.0810
 6541TIP3    H241183   4.421   0.179   0.142 -1.8753  0.1785  1.1476
 6542TIP3   OH241184   0.725   4.816   0.645 -0.4123  0.0529 -0.0741
 6542TIP3    H141185   0.661   4.838   0.578 -0.1061  0.1735 -0.3308
 6542TIP3    H241186   0.680   4.834   0.728 -1.1086 -0.9921 -0.2162
 6543TIP3   OH241187   2.120   1.901   0.957 -0.7514  0.4412 -0.1818
 6543TIP3    H141188   2.202   1.946   0.977 -1.4435  1.4095  0.6164
 6543TIP3    H241189   2.145   1.810   0.943  0.5509  0.8611 -0.7160
 6544TIP3   OH241190   2.250   6.878   1.363 -0.9462  0.1717  0.1755
 6544TIP3    H141191   2.308   6.954   1.371 -0.9228  0.2968 -1.0254
 6544TIP3    H241192   2.277   6.820   1.434  0.6525  0.2336 -0.3382
 6545TIP3   OH241193   1.032   1.604   6.342  0.1870 -0.3766  0.0288
 6545TIP3    H141194   1.127   1.590   6.343  0.0278 -1.8330 -1.4861
 6545TIP3    H241195   1.008   1.597   6.250 -1.4276 -0.1062  0.4029
 6546TIP3   OH241196   1.553   6.375   6.743 -0.3436  0.0123 -0.1539
 6546TIP3    H141197   1.510   6.344   6.823  0.8212 -0.7816  0.1885
 6546TIP3    H241198   1.612   6.444   6.773  0.6952 -0.8422 -0.1990
 6547TIP3   OH241199   6.303   3.089   7.877 -0.1559 -0.0010  0.4373
 6547TIP3    H141200   6.222   3.134   7.900 -0.0556 -0.3478  1.5366
 6547TIP3    H241201   6.364   3.113   7.946  1.7022  2.7155 -1.9178
 6548TIP3   OH241202   1.857   3.284   1.226 -0.2382  0.3084 -0.0647
 6548TIP3    H141203   1.945   3.319   1.215  0.5500 -0.9815  1.7096
 6548TIP3    H241204   1.808   3.318   1.151  2.1096 -0.0381 -1.8762
 6549TIP3   OH241205   4.823   6.142   0.231  0.7263 -0.2339  0.1427
 6549TIP3    H141206   4.805   6.095   0.313  0.3449  2.3599  1.6611
 6549TIP3    H241207   4.775   6.224   0.240  2.0922  0.8721 -1.9302
 6550TIP3   OH241208   1.558   6.454   7.102  0.3991  0.3697  0.2554
 6550TIP3    H141209   1.550   6.436   7.196  0.8821 -0.3630  0.1713
 6550TIP3    H241210   1.543   6.369   7.061 -0.7938  0.8757 -0.3996
 6551TIP3   OH241211   4.273   2.234   1.803 -0.2195 -0.3802  0.1787
 6551TIP3    H141212   4.297   2.180   1.878 -0.7723  0.0344  0.6665
 6551TIP3    H241213   4.242   2.173   1.737 -0.7802 -0.6642  0.7021
 6552TIP3   OH241214   3.498   1.712   8.401 -0.2894  0.1760  0.0822
 6552TIP3    H141215   3.485   1.621   8.428  1.0831 -0.9041 -2.5550
 6552TIP3    H241216   3.593   1.724   8.402 -0.4750  2.0040  1.4605
 6553TIP3   OH241217   4.926   0.893   0.088 -0.6030 -0.5252 -0.0142
 6553TIP3    H141218   4.941   0.986   0.073 -2.4075 -0.2638 -0.4083
 6553TIP3    H241219   4.998   0.849   0.043 -0.1724  0.6410 -0.4899
 6554TIP3   OH241220   2.294   5.587   0.953  0.5259 -0.5152  0.0740
 6554TIP3    H141221   2.375   5.591   1.004  0.4456  0.1162  0.1619
 6554TIP3    H241222   2.238   5.655   0.992 -0.1446 -1.1244  0.1865
 6555TIP3   OH241223   5.152   4.413   1.078  0.3336  0.4432  0.4999
 6555TIP3    H141224   5.238   4.427   1.038  0.8638 -0.8630  1.1170
 6555TIP3    H241225   5.170   4.360   1.156 -1.0355  0.1465  0.6445
 6556TIP3   OH241226   4.531   2.625   2.182 -0.0071 -0.5714  0.7386
 6556TIP3    H141227   4.582   2.585   2.253  1.3920  1.3741  0.9039
 6556TIP3    H241228   4.583   2.700   2.155 -0.8030 -0.9107 -1.9922
 6557TIP3   OH241229   5.015   3.210   8.186  0.4468 -0.1919  0.3382
 6557TIP3    H141230   5.079   3.151   8.146  0.2451  1.3856 -2.5371
 6557TIP3    H241231   5.006   3.282   8.124 -0.1102  2.4085  3.1803
 6558TIP3   OH241232   1.856   3.758   2.200 -0.1034 -0.7792  0.5585
 6558TIP3    H141233   1.917   3.826   2.169 -0.5895 -1.1314 -1.3146
 6558TIP3    H241234   1.769   3.796   2.187 -0.3509 -1.3641  0.4647
 6559TIP3   OH241235   2.191   3.412   7.215  0.0506  0.0945 -0.7647
 6559TIP3    H141236   2.180   3.338   7.155 -1.8270 -2.5419  2.4893
 6559TIP3    H241237   2.285   3.414   7.233  0.1474 -1.6459 -0.8471
 6560TIP3   OH241238   4.739   0.305   0.751 -0.5821  0.2770  0.2103
 6560TIP3    H141239   4.789   0.242   0.699 -0.1740  1.7646 -1.3091
 6560TIP3    H241240   4.650   0.299   0.715 -0.3037  1.2924 -0.7292
 6561TIP3   OH241241   2.422   5.349   1.115  0.7127 -0.2243  0.2273
 6561TIP3    H141242   2.443   5.256   1.114 -1.9399 -0.9045 -0.1510
 6561TIP3    H241243   2.505   5.393   1.095  2.3769 -2.3819  1.9037
 6562TIP3   OH241244   0.735   5.101   0.414  0.1634 -0.0451 -0.0065
 6562TIP3    H141245   0.721   5.124   0.506  1.0223  0.8719 -0.0888
 6562TIP3    H241246   0.807   5.157   0.386  0.2358 -0.6640 -1.1106
 6563TIP3   OH241247   5.727   3.220   1.600  0.0563  0.3990 -0.2977
 6563TIP3    H141248   5.783   3.258   1.531  0.2143 -1.0665 -0.9987
 6563TIP3    H241249   5.784   3.157   1.644 -0.3756  0.5612  0.5046
 6564TIP3   OH241250   3.032   4.399   7.272  0.0498  0.4344 -0.2370
 6564TIP3    H141251   3.023   4.486   7.311  0.2438 -0.9149  3.1573
 6564TIP3    H241252   2.946   4.379   7.236 -0.5286  1.3062  0.6327
 6565TIP3   OH241253   1.892   6.722   2.172 -0.4113 -0.0178  0.1136
 6565TIP3    H141254   1.813   6.684   2.209 -1.0506 -1.1006 -2.2100
 6565TIP3    H241255   1.964   6.682   2.221 -1.2267  1.0913  2.3577
 6566TIP3   OH241256   3.792   4.570   8.174 -0.8719 -0.4602 -0.2462
 6566TIP3    H141257   3.734   4.501   8.141 -1.3051 -1.2936  2.0867
 6566TIP3    H241258   3.733   4.631   8.219 -0.2408  0.2367 -0.3472
 6567TIP3   OH241259   1.747   2.451   8.160 -0.5742  0.1538  0.2576
 6567TIP3    H141260   1.843   2.450   8.164 -0.2824 -3.1904 -2.6924
 6567TIP3    H241261   1.725   2.533   8.116  1.0271  0.3704 -0.2025
 6568TIP3   OH241262   4.575   4.024   7.881  0.3233 -0.1637  0.4721
 6568TIP3    H141263   4.562   3.930   7.869 -1.6617  0.1053  0.1553
 6568TIP3    H241264   4.584   4.035   7.976  0.6840 -0.6727  0.5014
 6569TIP3   OH241265   6.607   1.328   7.706  0.6136  0.4501  0.5508
 6569TIP3    H141266   6.559   1.315   7.788 -0.7361 -0.2270 -0.3168
 6569TIP3    H241267   6.687   1.374   7.733 -1.0034  2.6948  1.9020
 6570TIP3   OH241268   1.847   2.320   0.926  0.1640  0.2414 -0.1034
 6570TIP3    H141269   1.932   2.291   0.958  0.3241  0.4165 -0.3667
 6570TIP3    H241270   1.858   2.328   0.831 -0.1586  0.2194 -0.1446
 6571TIP3   OH241271   4.353   0.392   7.503  0.6726 -0.2902  0.1052
 6571TIP3    H141272   4.430   0.413   7.450  0.3249 -2.3559 -1.3683
 6571TIP3    H241273   4.372   0.427   7.590  2.7300  0.2822 -0.5284
 6572TIP3   OH241274   0.570   0.010   6.689 -0.1367  0.4557  0.3678
 6572TIP3    H141275   0.566   0.001   6.594  0.8222  1.2374  0.2365
 6572TIP3    H241276   0.657   0.046   6.706 -0.6551  1.2365  1.4661
 6573TIP3   OH241277   3.465   1.870   7.977  0.6875  0.3569  0.2886
 6573TIP3    H141278   3.521   1.799   8.008 -0.4652 -0.9707 -0.5225
 6573TIP3    H241279   3.471   1.866   7.882  0.5265  1.3001  0.2265
 6574TIP3   OH241280   6.447   4.580   7.746 -0.9318 -0.0688 -0.3822
 6574TIP3    H141281   6.538   4.551   7.748 -0.8742  0.1378  1.1574
 6574TIP3    H241282   6.408   4.543   7.825 -1.6102  1.6085  0.1197
 6575TIP3   OH241283   1.286   6.555   1.986 -0.1595 -0.3932  0.4108
 6575TIP3    H141284   1.332   6.511   2.058 -0.9352 -1.4553  0.2785
 6575TIP3    H241285   1.357   6.593   1.933  0.5218 -1.1204  0.7714
 6576TIP3   OH241286   4.512   3.101   6.986  0.9929 -0.5337  0.2728
 6576TIP3    H141287   4.552   3.015   6.972  0.5825 -1.1200  2.3915
 6576TIP3    H241288   4.440   3.084   7.046  1.3503  1.3853  1.3173
 6577TIP3   OH241289   0.725   1.891   8.209  0.5098 -0.0557  0.4300
 6577TIP3    H141290   0.694   1.860   8.124 -1.7168 -0.0548  1.1604
 6577TIP3    H241291   0.766   1.815   8.249 -2.2243 -1.3922  0.9913
 6578TIP3   OH241292   0.010   5.258   0.290  0.2773 -0.1453  0.0593
 6578TIP3    H141293   0.019   5.264   0.385 -2.4734  1.1682  0.3245
 6578TIP3    H241294   0.048   5.339   0.257 -0.7374  0.4253  0.2582
 6579TIP3   OH241295   4.510   2.158   7.051  0.9626  0.1697  0.0568
 6579TIP3    H141296   4.482   2.072   7.019 -0.9293  0.8976 -0.3795
 6579TIP3    H241297   4.463   2.220   6.996 -0.6541  1.4795  2.7093
 6580TIP3   OH241298   2.471   4.483   6.485  0.2277  0.1265  0.3697
 6580TIP3    H141299   2.417   4.481   6.564  0.6064  2.3196  0.7460
 6580TIP3    H241300   2.453   4.569   6.446  0.8664 -0.4795 -1.3563
 6581TIP3   OH241301   5.565   2.318   1.407 -0.3525  0.5427  0.6006
 6581TIP3    H141302   5.473   2.341   1.398 -0.2606  0.7527  0.1640
 6581TIP3    H241303   5.612   2.397   1.381 -0.0534  0.8805  2.0892
 6582TIP3   OH241304   2.268   2.094   6.246  0.2746 -0.5911 -0.3716
 6582TIP3    H141305   2.287   2.064   6.335  4.0492 -2.3088 -1.5735
 6582TIP3    H241306   2.247   2.187   6.256  1.1745 -0.5866  2.2381
 6583TIP3   OH241307   4.926   0.988   8.192  0.2097 -0.0083 -0.3735
 6583TIP3    H141308   4.846   0.993   8.244  1.1355  0.1715  1.0742
 6583TIP3    H241309   4.969   1.072   8.205  1.0911 -0.4466 -0.3776
 6584TIP3   OH241310   0.566   6.197   7.096  0.1839  0.0550 -0.4851
 6584TIP3    H141311   0.537   6.147   7.020  0.3338  0.6219 -0.9236
 6584TIP3    H241312   0.492   6.194   7.156 -1.4168  2.5968 -2.1168
 6585TIP3   OH241313   4.616   4.393   8.240  0.2161  0.3118  0.3969
 6585TIP3    H141314   4.555   4.432   8.302  1.0729  1.2164  0.6954
 6585TIP3    H241315   4.703   4.411   8.276  0.6759 -0.6612 -0.1834
 6586TIP3   OH241316   5.805   1.061   1.414  0.0533 -0.3679 -0.4455
 6586TIP3    H141317   5.831   0.988   1.357  1.1778  0.3689 -0.9155
 6586TIP3    H241318   5.760   1.019   1.487 -0.9186 -1.3770 -1.5905
 6587TIP3   OH241319   6.197   0.283   7.374  0.1328 -0.0860 -0.4595
 6587TIP3    H141320   6.285   0.247   7.372  0.8234  1.4245  0.8173
 6587TIP3    H241321   6.206   0.372   7.341 -0.4369  0.8962  1.8384
 6588TIP3   OH241322   1.492   2.743   7.835 -0.1698  0.3594  0.5516
 6588TIP3    H141323   1.439   2.664   7.846  1.7956 -1.0091  0.5694
 6588TIP3    H241324   1.430   2.815   7.850 -2.7098 -1.0243 -2.2096
 6589TIP3   OH241325   2.739   4.286   1.579 -0.3696  0.1011 -0.2897
 6589TIP3    H141326   2.707   4.204   1.616  0.1192 -0.5189 -1.1825
 6589TIP3    H241327   2.769   4.337   1.654  0.7930 -1.2014  0.1754
 6590TIP3   OH241328   5.379   2.790   0.401  0.1233 -0.4252  0.7771
 6590TIP3    H141329   5.345   2.877   0.380  1.7654  0.1928  0.4965
 6590TIP3    H241330   5.301   2.737   0.416 -0.9251  1.2014  1.4420
 6591TIP3   OH241331   6.500   4.893   2.297  1.1190  0.0358 -0.6395
 6591TIP3    H141332   6.519   4.972   2.347  2.8830 -1.1244  0.6234
 6591TIP3    H241333   6.559   4.897   2.222  1.2641 -0.1257 -0.5335
 6592TIP3   OH241334   3.060   1.905   6.523 -0.4481  0.6628 -0.3139
 6592TIP3    H141335   3.078   1.823   6.477 -0.1106  0.0401  0.8795
 6592TIP3    H241336   2.978   1.889   6.570  0.3464  0.4690  1.0721
 6593TIP3   OH241337   6.838   1.160   1.046 -0.4426  0.4705  0.6428
 6593TIP3    H141338   6.921   1.187   1.007  0.2958  0.0287  1.8506
 6593TIP3    H241339   6.843   1.191   1.136 -1.0322 -0.6776  1.0875
 6594TIP3   OH241340   6.545   0.113   1.235  0.4266  0.4507  0.0700
 6594TIP3    H141341   6.550   0.023   1.269 -2.3367 -0.7206 -2.2036
 6594TIP3    H241342   6.634   0.133   1.207  1.0951 -1.6501  0.5027
 6595TIP3   OH241343   1.234   6.508   6.643 -0.1579 -0.5032 -0.5700
 6595TIP3    H141344   1.220   6.440   6.708 -1.3838 -1.0721 -1.4078
 6595TIP3    H241345   1.147   6.528   6.608  0.5072 -0.6905 -2.4966
 6596TIP3   OH241346   0.216   4.247   1.260 -0.0682  0.0899  0.7594
 6596TIP3    H141347   0.155   4.320   1.248 -0.4531 -0.0130  2.0014
 6596TIP3    H241348   0.231   4.243   1.355 -1.5270 -2.6392  0.9736
 6597TIP3   OH241349   3.538   4.175   8.528 -0.2578 -0.1105  0.0459
 6597TIP3    H141350   3.531   4.270   8.520  0.8203 -0.0178  0.1015
 6597TIP3    H241351   3.471   4.152   8.593 -0.8753  0.5421 -0.3411
 6598TIP3   OH241352   1.460   4.420   8.002  0.2889  0.7329 -0.2835
 6598TIP3    H141353   1.486   4.499   7.955  0.9442 -0.4599 -2.0322
 6598TIP3    H241354   1.379   4.444   8.047  0.0829  2.1929 -1.3726
 6599TIP3   OH241355   2.267   0.509   7.144 -0.3805  0.2580  0.1166
 6599TIP3    H141356   2.335   0.547   7.088 -1.0203 -0.5402 -1.2618
 6599TIP3    H241357   2.315   0.452   7.204  0.2047  0.0410 -0.5445
 6600TIP3   OH241358   2.344   5.165   8.462 -0.6479 -0.2603  0.3121
 6600TIP3    H141359   2.365   5.118   8.542 -0.2478 -2.5560 -1.0688
 6600TIP3    H241360   2.419   5.223   8.448 -0.5012 -0.1900  1.3088
 6601TIP3   OH241361   6.106   2.599   0.054 -0.3678  0.2584  0.0491
 6601TIP3    H141362   6.024   2.557   0.026  0.2108 -0.5482 -0.4601
 6601TIP3    H241363   6.113   2.676  -0.002  0.3560 -0.8929 -1.5193
 6602TIP3   OH241364   3.811   2.530   0.423 -0.1883 -0.0863  0.5936
 6602TIP3    H141365   3.765   2.608   0.454  0.9513  0.4432  0.9989
 6602TIP3    H241366   3.794   2.529   0.328  0.6159  1.2613  0.3977
 6603TIP3   OH241367   6.539   5.247   0.144 -0.7938  0.2537  0.0913
 6603TIP3    H141368   6.479   5.321   0.147 -1.1329  0.0262 -0.6087
 6603TIP3    H241369   6.580   5.244   0.230  0.7636  2.5075 -0.4726
 6604TIP3   OH241370   5.278   6.674   0.187  0.2762  0.2163 -0.1285
 6604TIP3    H141371   5.268   6.674   0.092 -1.6119 -2.4083 -0.0486
 6604TIP3    H241372   5.189   6.679   0.220  0.7169 -1.2839  1.4230
 6605TIP3   OH241373   3.524   2.026   2.245 -0.2543  0.0137 -0.4403
 6605TIP3    H141374   3.558   2.111   2.216  0.4119  0.1330  0.6341
 6605TIP3    H241375   3.597   1.965   2.228 -0.6169 -0.2956 -0.9168
 6606TIP3   OH241376   5.575   3.392   0.706 -0.3063 -0.1959  0.5612
 6606TIP3    H141377   5.513   3.464   0.698  0.8809  0.7703 -0.2885
 6606TIP3    H241378   5.608   3.378   0.617  1.8338  0.3763  1.2068
 6607TIP3   OH241379   1.743   3.166   7.521  0.8437  0.2689  0.4168
 6607TIP3    H141380   1.758   3.260   7.525 -0.6420  0.6596 -1.5773
 6607TIP3    H241381   1.648   3.156   7.534  0.5797 -0.6735 -1.7086
 6608TIP3   OH241382   1.984   5.493   1.554 -0.7726 -0.4564  0.0097
 6608TIP3    H141383   2.040   5.570   1.544 -0.9309 -0.3483 -0.0305
 6608TIP3    H241384   1.918   5.502   1.486 -1.3896 -0.1119  0.6494
 6609TIP3   OH241385   5.222   2.249   6.184  0.5412 -0.0443  0.0356
 6609TIP3    H141386   5.163   2.193   6.134 -0.3842  0.7373  0.2196
 6609TIP3    H241387   5.246   2.319   6.122  1.3763 -0.4241 -0.0744
 6610TIP3   OH241388   2.574   2.706   1.744 -0.1353  0.1231  0.1129
 6610TIP3    H141389   2.527   2.698   1.826  0.2970  2.6458  0.6939
 6610TIP3    H241390   2.530   2.778   1.698 -0.8768 -1.6999 -2.3026
 6611TIP3   OH241391   4.049   1.774   1.802  0.6949 -0.2643 -0.3470
 6611TIP3    H141392   4.125   1.767   1.859  0.3385 -1.2451  0.0305
 6611TIP3    H241393   3.977   1.740   1.854  0.1604 -0.1873 -1.0191
 6612TIP3   OH241394   5.659   3.793   0.220  0.1710  0.7386 -0.3432
 6612TIP3    H141395   5.708   3.855   0.274  0.3579  2.2663 -2.1410
 6612TIP3    H241396   5.568   3.825   0.224  0.0522  0.4079 -0.3473
 6613TIP3   OH241397   4.156   6.121   7.024  0.0371  0.0880 -0.2575
 6613TIP3    H141398   4.170   6.027   7.012  0.8051  0.1910 -0.1545
 6613TIP3    H241399   4.188   6.160   6.942 -0.6019  0.2367 -0.4445
 6614TIP3   OH241400   1.972   3.256   7.255  0.2129 -0.4579  0.0111
 6614TIP3    H141401   1.928   3.263   7.170 -0.0292  0.9268  0.2119
 6614TIP3    H241402   2.051   3.310   7.246 -0.4137  0.6928  0.9891
 6615TIP3   OH241403   5.879   3.852   8.108  0.2726 -0.7819  0.4342
 6615TIP3    H141404   5.931   3.860   8.028 -1.7946 -0.0364 -0.8961
 6615TIP3    H241405   5.925   3.786   8.160  2.5138 -0.1847 -0.6596
 6616TIP3   OH241406   0.712   3.402   0.031 -0.3812  0.0897 -0.4820
 6616TIP3    H141407   0.708   3.398   0.126 -3.6482  0.3692 -0.5105
 6616TIP3    H241408   0.662   3.326   0.001  0.4805  0.0754 -1.9938
 6617TIP3   OH241409   6.865   3.885   1.607  0.5707 -0.4410  0.5068
 6617TIP3    H141410   6.914   3.955   1.650 -0.3954  0.5508  0.0386
 6617TIP3    H241411   6.802   3.855   1.672  0.4621 -0.3448  0.4445
 6618TIP3   OH241412   4.288   0.573   0.726 -0.1480 -0.2126  0.4240
 6618TIP3    H141413   4.329   0.518   0.793  1.7855  1.6648  0.9237
 6618TIP3    H241414   4.352   0.575   0.655 -1.4561 -0.8443 -0.8262
 6619TIP3   OH241415   6.000   5.995   1.459 -0.1531 -0.2480  0.0395
 6619TIP3    H141416   5.957   6.078   1.479  2.0594  0.9700  0.1030
 6619TIP3    H241417   6.025   5.959   1.544  0.6792  0.0675 -0.0592
 6620TIP3   OH241418   0.625   0.141   7.986 -0.5266  0.5181 -0.0453
 6620TIP3    H141419   0.714   0.158   7.956 -0.5501 -0.8978 -1.0131
 6620TIP3    H241420   0.570   0.197   7.931 -0.2689  1.2446  0.4181
 6621TIP3   OH241421   6.166   3.186   6.210  0.0709  0.2263 -0.6895
 6621TIP3    H141422   6.159   3.136   6.128 -2.1288 -1.9121  0.6713
 6621TIP3    H241423   6.224   3.133   6.265 -1.6842 -0.5431  0.5040
 6622TIP3   OH241424   2.814   6.766   1.003 -0.0637  0.3253 -0.2160
 6622TIP3    H141425   2.753   6.723   1.063 -0.1968 -0.2004 -0.7223
 6622TIP3    H241426   2.847   6.842   1.052  0.7707 -0.7727  0.9833
 6623TIP3   OH241427   4.788   2.735   0.889 -0.6928  0.3889 -0.5716
 6623TIP3    H141428   4.762   2.716   0.799 -1.0773  2.9996 -1.0763
 6623TIP3    H241429   4.705   2.736   0.938 -0.4722 -1.1782 -0.0981
 6624TIP3   OH241430   6.798   5.481   0.897  0.2145  0.2327 -0.3751
 6624TIP3    H141431   6.728   5.467   0.833 -1.5318  4.3173  0.2949
 6624TIP3    H241432   6.870   5.519   0.846 -0.8336  2.6228 -0.1975
 6625TIP3   OH241433   1.810   4.153   6.582  0.2605  0.4078 -0.1715
 6625TIP3    H141434   1.826   4.213   6.654  0.6227 -0.1849  0.2541
 6625TIP3    H241435   1.760   4.204   6.518  0.9830  1.3004 -0.0385
 6626TIP3   OH241436   4.146   2.749   0.665  0.5253  0.4119  0.0215
 6626TIP3    H141437   4.057   2.715   0.673  0.4040  0.8422  0.6136
 6626TIP3    H241438   4.136   2.825   0.607  0.0023  2.0934  2.1511
 6627TIP3   OH241439   2.044   6.672   0.558 -0.3624  0.4445  0.0804
 6627TIP3    H141440   2.059   6.586   0.597  0.6812  0.5180 -0.1124
 6627TIP3    H241441   1.969   6.707   0.605 -1.4203 -0.9575 -0.5088
 6628TIP3   OH241442   1.784   0.949   8.319 -0.0209 -0.6476 -0.4281
 6628TIP3    H141443   1.699   0.964   8.361 -0.3395 -2.4238 -0.3176
 6628TIP3    H241444   1.765   0.946   8.226  0.2798  0.8943 -0.5622
 6629TIP3   OH241445   5.285   6.450   0.992  0.2226  0.2834  0.1623
 6629TIP3    H141446   5.365   6.490   0.957  0.7118  0.9378  1.9196
 6629TIP3    H241447   5.315   6.399   1.067 -0.9489  0.1012  0.5223
 6630TIP3   OH241448   5.828   5.260   0.496 -0.0852  0.2785  0.4082
 6630TIP3    H141449   5.771   5.310   0.555 -0.6277  0.2681 -0.1027
 6630TIP3    H241450   5.864   5.326   0.436 -1.0861  0.0171 -0.4963
 6631TIP3   OH241451   2.212   4.641   7.158  0.3421  0.0572 -0.1830
 6631TIP3    H141452   2.165   4.670   7.236 -0.5615 -0.1909 -0.6170
 6631TIP3    H241453   2.143   4.625   7.094  0.9887 -0.7876 -0.6836
 6632TIP3   OH241454   6.816   3.276   0.382 -0.4656  0.3092 -0.0279
 6632TIP3    H141455   6.903   3.237   0.372  0.0791  0.8634  2.1324
 6632TIP3    H241456   6.828   3.347   0.445 -2.4476  0.5887  0.1102
 6633TIP3   OH241457   2.999   2.646   6.664  0.3301  0.5728 -0.2443
 6633TIP3    H141458   2.926   2.595   6.629  0.3476  0.1252  0.3398
 6633TIP3    H241459   2.966   2.679   6.748  1.6558 -1.9515  1.4232
 6634TIP3   OH241460   3.477   1.711   7.537  0.5672  0.2171  0.1468
 6634TIP3    H141461   3.440   1.645   7.596  2.6235 -0.7008  0.4995
 6634TIP3    H241462   3.405   1.733   7.478 -0.5747 -1.3747  0.8606
 6635TIP3   OH241463   4.935   5.792   7.483  0.0141 -0.5474  0.1649
 6635TIP3    H141464   4.868   5.757   7.542  0.8234 -0.7844  0.9634
 6635TIP3    H241465   4.984   5.855   7.536  1.4080 -1.5076  0.0917
 6636TIP3   OH241466   4.299   5.965   1.442  0.8607  0.2197  0.0931
 6636TIP3    H141467   4.218   5.967   1.492  1.2171 -0.9200  0.7539
 6636TIP3    H241468   4.271   5.966   1.350  0.1312  0.3671  0.3152
 6637TIP3   OH241469   4.558   0.627   0.996  0.3729 -0.0237  0.3068
 6637TIP3    H141470   4.604   0.562   1.049  0.1282  0.1145  0.6906
 6637TIP3    H241471   4.486   0.578   0.956  0.1105  0.0302  0.6992
 6638TIP3   OH241472   3.086   1.677   7.098  0.3746 -0.4562  0.6840
 6638TIP3    H141473   3.155   1.739   7.074  0.2613 -0.5919 -0.0142
 6638TIP3    H241474   3.099   1.602   7.040  0.3781 -1.0000  1.3730
 6639TIP3   OH241475   0.785   0.050   6.270 -0.1953  0.1254 -0.4515
 6639TIP3    H141476   0.815  -0.006   6.341 -0.6288  0.3873 -0.0588
 6639TIP3    H241477   0.794  -0.004   6.191  0.4648 -0.0994 -0.2292
 6640TIP3   OH241478   2.236   2.703   1.961  0.5219 -0.2596 -0.0835
 6640TIP3    H141479   2.217   2.613   1.937 -1.6110 -0.4301  1.8793
 6640TIP3    H241480   2.199   2.755   1.890 -1.1005 -0.8857  0.2510
 6641TIP3   OH241481   3.923   0.620   1.373  0.0433 -0.3450  0.1235
 6641TIP3    H141482   4.015   0.598   1.386  0.0071 -1.5720 -1.3950
 6641TIP3    H241483   3.882   0.537   1.347 -1.5555  0.1126  1.0607
 6642TIP3   OH241484   1.440   3.553   0.190  0.4586  0.1866  0.4548
 6642TIP3    H141485   1.379   3.562   0.262 -1.4537  0.7334 -1.1515
 6642TIP3    H241486   1.457   3.459   0.183  1.0731  0.1681  1.8767
 6643TIP3   OH241487   2.540   6.707   7.715  0.4711  0.2049  0.5232
 6643TIP3    H141488   2.630   6.716   7.685 -0.1402  1.0086 -1.1776
 6643TIP3    H241489   2.533   6.617   7.746  1.3030 -0.5094 -1.2701
 6644TIP3   OH241490   2.926   1.824   7.713 -0.1140  0.0203 -0.1980
 6644TIP3    H141491   2.840   1.865   7.726  0.4072  0.6852  1.3676
 6644TIP3    H241492   2.961   1.867   7.635 -1.8072 -1.3721 -1.8294
 6645TIP3   OH241493   4.946   2.858   1.686 -0.2881 -0.2197  0.1386
 6645TIP3    H141494   4.924   2.802   1.761 -0.6260  1.5775  1.4453
 6645TIP3    H241495   4.916   2.945   1.711 -0.2214  0.4887 -2.0361
 6646TIP3   OH241496   5.237   4.027   2.398  0.1755 -0.0039 -0.0948
 6646TIP3    H141497   5.145   4.003   2.384  0.5333 -2.7236  1.5261
 6646TIP3    H241498   5.252   4.012   2.491  3.1653 -3.5159 -0.8958
 6647TIP3   OH241499   5.434   3.909   0.284  0.0273  0.4717 -0.2527
 6647TIP3    H141500   5.380   3.898   0.363  0.5294 -0.1759  0.0123
 6647TIP3    H241501   5.371   3.913   0.212 -0.5362  2.6330  0.3052
 6648TIP3   OH241502   6.012   5.165   1.031 -0.1554 -0.1830 -0.0295
 6648TIP3    H141503   6.045   5.171   0.941  1.0151  2.3703  0.4891
 6648TIP3    H241504   5.917   5.168   1.022 -0.0654 -0.2446 -1.1893
 6649TIP3   OH241505   2.084   6.590   2.331  0.4889 -0.3946  0.2802
 6649TIP3    H141506   2.164   6.538   2.339 -0.5341 -2.2142 -0.5547
 6649TIP3    H241507   2.062   6.614   2.421  1.0972 -1.2649  0.6738
 6650TIP3   OH241508   1.849   6.803   0.715  0.3881  0.1950 -0.4990
 6650TIP3    H141509   1.873   6.789   0.807  0.0381 -1.8580 -0.6756
 6650TIP3    H241510   1.754   6.804   0.715  0.3886  0.8882 -0.7674
 6651TIP3   OH241511   0.582   4.005   8.108 -0.2600  0.1364 -0.8357
 6651TIP3    H141512   0.667   3.983   8.070  0.3587  1.4373 -0.2908
 6651TIP3    H241513   0.602   4.031   8.198 -0.8713  2.5426 -1.3104
 6652TIP3   OH241514   5.816   6.167   1.620 -1.3282 -0.1155 -0.3096
 6652TIP3    H141515   5.847   6.183   1.709 -1.4228 -1.2091 -0.0735
 6652TIP3    H241516   5.867   6.228   1.566  0.8301 -1.4494  0.1313
 6653TIP3   OH241517   6.210   2.977   6.652  0.0935  0.6395 -0.1516
 6653TIP3    H141518   6.287   2.972   6.707 -0.1017  1.2673  0.1833
 6653TIP3    H241519   6.240   3.020   6.572  0.2710  0.1496 -0.3507
 6654TIP3   OH241520   2.209   1.111   6.746 -0.1148  0.1491  0.5042
 6654TIP3    H141521   2.210   1.041   6.812  0.2132  0.6363  1.0222
 6654TIP3    H241522   2.260   1.182   6.785 -0.4973  0.7082  0.0094
 6655TIP3   OH241523   6.388   6.819   7.393 -0.4490 -0.5108  0.5171
 6655TIP3    H141524   6.470   6.778   7.420  1.3704  2.6482  0.2102
 6655TIP3    H241525   6.365   6.774   7.312  1.8193 -0.4562 -0.2164
 6656TIP3   OH241526   1.939   4.664   7.392 -0.1247 -0.6682 -0.0094
 6656TIP3    H141527   1.955   4.732   7.457 -1.1157 -0.8488  0.4383
 6656TIP3    H241528   1.874   4.701   7.333 -1.9226 -1.7788  1.1825
 6657TIP3   OH241529   2.996   1.272   0.121 -0.1329 -0.4869 -0.5822
 6657TIP3    H141530   3.084   1.309   0.130 -0.1553 -0.7513  1.1964
 6657TIP3    H241531   2.938   1.348   0.117 -0.0211 -0.2570  1.1678
 6658TIP3   OH241532   1.883   4.983   1.673  0.6138  0.4383  0.1388
 6658TIP3    H141533   1.970   4.964   1.638  0.3260 -1.4461  0.3453
 6658TIP3    H241534   1.900   5.022   1.759  1.3108 -1.4805  0.9427
 6659TIP3   OH241535   6.470   5.113   7.321  0.5426  0.2349  0.7875
 6659TIP3    H141536   6.472   5.165   7.401  0.6819 -1.1480  1.6974
 6659TIP3    H241537   6.414   5.039   7.341  0.4254 -0.0339 -0.4628
 6660TIP3   OH241538   2.969   1.114   0.613  0.0036  0.0378  0.1060
 6660TIP3    H141539   2.958   1.083   0.523 -0.7398 -0.5904  0.4032
 6660TIP3    H241540   3.062   1.107   0.630  0.3145  1.1434 -0.9600
 6661TIP3   OH241541   4.391   1.518   1.199  0.0454  0.0315 -0.4714
 6661TIP3    H141542   4.457   1.588   1.200 -1.1704  1.2007  0.0857
 6661TIP3    H241543   4.411   1.465   1.276  1.0774 -0.3578 -0.9874
 6662TIP3   OH241544   4.493   5.429   0.044  0.2823 -0.0379 -0.0918
 6662TIP3    H141545   4.472   5.510  -0.001  0.8290  1.8405  2.7670
 6662TIP3    H241546   4.587   5.434   0.061 -0.1028  0.0914  2.4034
 6663TIP3   OH241547   2.506   4.476   0.133 -0.0289  0.4039 -0.2157
 6663TIP3    H141548   2.515   4.436   0.220 -1.0471 -0.5625 -0.5324
 6663TIP3    H241549   2.425   4.439   0.098  1.7379 -1.4168 -2.7332
 6664TIP3   OH241550   6.127   4.822   0.796 -0.2599  0.1799  0.0248
 6664TIP3    H141551   6.175   4.879   0.857 -1.5845  2.0198 -0.5647
 6664TIP3    H241552   6.057   4.785   0.848 -0.0626 -0.0300  0.1432
 6665TIP3   OH241553   0.994   1.468   1.281  0.1478 -0.1578  0.3065
 6665TIP3    H141554   1.038   1.384   1.287  0.6360 -0.0130 -0.9984
 6665TIP3    H241555   1.055   1.524   1.233  0.2129  1.2175  1.8885
 6666TIP3   OH241556   1.013   4.267   0.393 -0.4411 -0.7888  0.0023
 6666TIP3    H141557   1.078   4.279   0.324  0.0700 -0.3751  0.5443
 6666TIP3    H241558   0.930   4.262   0.346  0.0464 -2.2149 -0.7749
 6667TIP3   OH241559   4.334   3.007   7.155 -0.4611  0.1108  0.1062
 6667TIP3    H141560   4.366   2.919   7.135  0.5637  0.1446  1.4233
 6667TIP3    H241561   4.355   3.020   7.247  0.2858  2.0957 -0.2841
 6668TIP3   OH241562   4.243   3.940   1.156  0.1286 -0.0903  0.0083
 6668TIP3    H141563   4.264   4.025   1.194 -1.0044 -0.1031  0.7331
 6668TIP3    H241564   4.163   3.913   1.202  0.6461 -1.6958  0.0351
 6669TIP3   OH241565   5.034   0.125   8.492 -0.3539  0.2638  0.3058
 6669TIP3    H141566   4.939   0.123   8.503 -0.3880  2.2592  0.6107
 6669TIP3    H241567   5.066   0.181   8.562  0.8613  1.2341 -0.9665
 6670TIP3   OH241568   3.331   5.410   6.628  0.3557  0.7131  0.2111
 6670TIP3    H141569   3.249   5.443   6.592  0.5096 -0.6208 -1.4535
 6670TIP3    H241570   3.390   5.403   6.553  1.1002 -0.9756  0.9070
 6671TIP3   OH241571   2.969   5.289   8.387  0.3342  0.5745  0.0819
 6671TIP3    H141572   2.894   5.304   8.445 -0.5768 -2.2544 -0.2314
 6671TIP3    H241573   2.932   5.297   8.299  0.5556 -0.1727 -0.0803
 6672TIP3   OH241574   5.386   1.632   6.524 -0.2818  0.1441  0.1218
 6672TIP3    H141575   5.299   1.648   6.487  0.2618 -2.0407 -2.3560
 6672TIP3    H241576   5.375   1.552   6.575  0.2316 -0.0386 -0.0545
 6673TIP3   OH241577   6.538   3.785   0.549 -0.0841  0.0339  0.7594
 6673TIP3    H141578   6.560   3.860   0.494  0.6358  1.8379  3.3113
 6673TIP3    H241579   6.448   3.802   0.579  0.1388 -0.0199  1.4791
 6674TIP3   OH241580   5.598   1.076   1.005  0.1459  0.1194 -0.2844
 6674TIP3    H141581   5.566   1.055   1.093 -2.6022 -0.7959 -1.3958
 6674TIP3    H241582   5.626   1.167   1.011 -2.6163  0.9931  0.9329
 6675TIP3   OH241583   6.549   3.995   1.334 -0.1482 -0.1071  0.0862
 6675TIP3    H141584   6.640   3.992   1.364 -0.1943 -0.8332  0.1692
 6675TIP3    H241585   6.504   3.931   1.389 -1.0452  1.3441  1.1286
 6676TIP3   OH241586   6.729   1.654   0.458  0.0676 -0.2900 -0.6321
 6676TIP3    H141587   6.805   1.635   0.514 -0.2101  0.9041  0.2148
 6676TIP3    H241588   6.653   1.640   0.515 -0.2280  0.7857 -0.7261
 6677TIP3   OH241589   5.062   0.134   7.415  0.1938 -0.0781 -0.6217
 6677TIP3    H141590   5.132   0.117   7.478  0.0018 -1.2619 -0.7039
 6677TIP3    H241591   5.058   0.229   7.410  1.0622  0.0278  0.2012
 6678TIP3   OH241592   3.095   2.911   1.141 -0.4480 -0.6456  0.2047
 6678TIP3    H141593   3.145   2.951   1.213 -1.2804  0.7574  0.0518
 6678TIP3    H241594   3.026   2.861   1.185 -1.4934  0.9187  0.4261
 6679TIP3   OH241595   5.829   1.930   1.360  0.7683 -0.6498  0.2962
 6679TIP3    H141596   5.877   1.904   1.439  1.2975  1.3261  0.6816
 6679TIP3    H241597   5.837   1.855   1.301  0.8632 -1.9439  1.8801
 6680TIP3   OH241598   6.441   4.247   7.295 -0.4034  0.2591 -0.4819
 6680TIP3    H141599   6.522   4.266   7.342 -2.1450 -0.7058  3.2985
 6680TIP3    H241600   6.447   4.154   7.273 -0.3828  0.2409 -0.4010
 6681TIP3   OH241601   3.808   3.657   0.424 -0.1105  0.5023  0.6133
 6681TIP3    H141602   3.823   3.670   0.518  2.2625 -0.5153  0.4490
 6681TIP3    H241603   3.827   3.564   0.410  3.1796  1.3148 -1.3755
 6682TIP3   OH241604   1.827   1.630   1.719 -0.1057  0.2774  0.0618
 6682TIP3    H141605   1.782   1.695   1.666 -3.0465 -0.9973  0.7469
 6682TIP3    H241606   1.868   1.571   1.656  0.6137  1.4797 -0.6175
 6683TIP3   OH241607   6.302   5.518   7.525 -0.3980 -0.0440  0.1662
 6683TIP3    H141608   6.357   5.440   7.517 -0.4403 -0.3742  2.5080
 6683TIP3    H241609   6.364   5.591   7.518  0.1589 -0.3806  1.3323
 6684TIP3   OH241610   3.598   4.254   1.837  0.3882  0.3693 -0.0475
 6684TIP3    H141611   3.572   4.342   1.811 -0.5051 -0.1004 -0.7687
 6684TIP3    H241612   3.590   4.254   1.933 -0.4106  0.8202 -0.1076
 6685TIP3   OH241613   4.688   6.883   6.348  0.1673  0.0667  0.6070
 6685TIP3    H141614   4.671   6.912   6.438 -2.1728  1.5593 -0.2278
 6685TIP3    H241615   4.639   6.945   6.293  2.5486 -0.0152 -1.8058
 6686TIP3   OH241616   1.817   3.013   6.865  0.4114 -0.1632 -0.4212
 6686TIP3    H141617   1.733   3.021   6.819  1.2427 -0.4821 -2.0889
 6686TIP3    H241618   1.859   3.098   6.851  0.7209 -0.3056 -0.3544
 6687TIP3   OH241619   1.765   5.282   0.376 -0.1227  0.1837  0.3740
 6687TIP3    H141620   1.756   5.263   0.469  2.2749 -0.4398  0.5577
 6687TIP3    H241621   1.816   5.209   0.341 -0.6029  0.6205 -1.3543
 6688TIP3   OH241622   2.261   1.142   8.302  0.0833  0.8796  0.4333
 6688TIP3    H141623   2.267   1.148   8.398 -0.1711 -2.1547  0.7290
 6688TIP3    H241624   2.352   1.134   8.274  0.1400  1.5053  0.4161
 6689TIP3   OH241625   6.797   2.796   0.598 -0.2679 -0.0037  0.1045
 6689TIP3    H141626   6.861   2.803   0.527 -0.9289 -0.7823 -0.5925
 6689TIP3    H241627   6.816   2.713   0.640 -1.4865 -0.7830 -0.8106
 6690TIP3   OH241628   1.641   0.388   6.887  0.0187 -0.1018  0.5699
 6690TIP3    H141629   1.718   0.361   6.937 -1.3945 -0.8720  2.4493
 6690TIP3    H241630   1.660   0.361   6.797  1.3175 -1.6645  1.2665
 6691TIP3   OH241631   4.287   0.810   2.335 -0.0557 -0.0462 -0.9087
 6691TIP3    H141632   4.325   0.839   2.417 -0.3991 -1.1240 -0.3494
 6691TIP3    H241633   4.237   0.886   2.303 -0.7111  0.0685  0.3599
 6692TIP3   OH241634   1.285   2.723   7.530  0.0851  0.3225 -0.1469
 6692TIP3    H141635   1.374   2.759   7.529  0.2809 -0.1459 -0.9119
 6692TIP3    H241636   1.266   2.707   7.437 -0.3923 -0.5621  0.0980
 6693TIP3   OH241637   4.325   1.820   2.216  0.1547 -0.4676  0.3710
 6693TIP3    H141638   4.377   1.868   2.281 -0.4219  1.5465 -0.5561
 6693TIP3    H241639   4.273   1.759   2.267  0.9362 -0.1159  1.6332
 6694TIP3   OH241640   3.807   2.963   0.051  0.3438 -0.3396  0.2252
 6694TIP3    H141641   3.802   2.988   0.143 -0.8653 -0.8110  0.3033
 6694TIP3    H241642   3.727   2.913   0.035 -0.6620  1.7221 -1.6874
 6695TIP3   OH241643   2.245   1.392   6.463 -0.4639 -0.3979 -0.0311
 6695TIP3    H141644   2.301   1.394   6.385  1.8118 -1.1965  1.4634
 6695TIP3    H241645   2.212   1.303   6.467  1.0827 -0.9636  0.9479
 6696TIP3   OH241646   4.821   4.855   8.097 -0.3034  0.0530 -0.2669
 6696TIP3    H141647   4.873   4.810   8.164 -0.9845 -2.6788 -1.4365
 6696TIP3    H241648   4.735   4.866   8.137 -0.8241 -1.9205 -0.7086
 6697TIP3   OH241649   0.825   6.155   7.458  0.1857  0.5526  0.4027
 6697TIP3    H141650   0.828   6.105   7.376 -0.7698  0.7456  0.2270
 6697TIP3    H241651   0.908   6.202   7.461 -0.5985  2.1888 -1.5460
 6698TIP3   OH241652   2.336   6.281   7.672  0.0701  0.3148 -0.0748
 6698TIP3    H141653   2.412   6.266   7.614  0.2622  1.8960 -0.2679
 6698TIP3    H241654   2.365   6.349   7.732 -0.8253  0.1039  0.6148
 6699TIP3   OH241655   4.145   3.609   7.468 -0.0941  0.0403  0.1101
 6699TIP3    H141656   4.161   3.527   7.422 -0.0619  0.4675 -0.6686
 6699TIP3    H241657   4.232   3.645   7.485 -0.1037 -0.1610  0.5928
 6700TIP3   OH241658   2.582   1.833   0.251 -0.5398  0.2900  0.8620
 6700TIP3    H141659   2.596   1.920   0.214 -1.1599  0.6707  1.5070
 6700TIP3    H241660   2.519   1.792   0.193 -0.9784  0.6318  1.0867
 6701TIP3   OH241661   2.404   0.006   1.121  0.1194 -0.1527 -0.2190
 6701TIP3    H141662   2.462   0.082   1.127 -0.2612  0.0947  0.4681
 6701TIP3    H241663   2.353   0.009   1.201 -0.4377 -0.7002 -0.5456
 6702TIP3   OH241664   5.131   4.523   7.048 -0.1385  0.0323  0.2949
 6702TIP3    H141665   5.191   4.522   6.973 -3.2902  1.2245 -2.5045
 6702TIP3    H241666   5.097   4.434   7.053 -0.7737  0.2091 -0.5412
 6703TIP3   OH241667   3.734   2.069   7.659  0.0662 -0.3648 -0.0891
 6703TIP3    H141668   3.671   2.076   7.731  0.6521 -0.0557  0.3979
 6703TIP3    H241669   3.777   2.154   7.655 -1.5129  0.4180 -2.2865
 6704TIP3   OH241670   4.765   2.655   1.405 -0.0475  0.0392  0.2902
 6704TIP3    H141671   4.719   2.571   1.411  1.3365 -0.8527 -0.9005
 6704TIP3    H241672   4.708   2.710   1.350 -0.8198 -0.1994  0.8382
 6705TIP3   OH241673   1.088   6.627   7.275 -0.0436  0.1790 -0.0972
 6705TIP3    H141674   1.088   6.669   7.189  0.0544  1.3707  0.4727
 6705TIP3    H241675   1.021   6.673   7.325  1.3678  0.9888  1.1538
 6706TIP3   OH241676   2.160   0.170   8.429 -0.8540 -0.4625 -0.8317
 6706TIP3    H141677   2.125   0.188   8.341 -1.1554  1.9162 -0.3105
 6706TIP3    H241678   2.254   0.187   8.421 -0.6388 -1.6439 -0.9925
 6707TIP3   OH241679   1.549   5.857   1.049  0.4471 -0.2398  0.6421
 6707TIP3    H141680   1.630   5.898   1.020 -0.5886  1.4909  0.0283
 6707TIP3    H241681   1.527   5.794   0.981  1.7708 -1.4853  1.3172
 6708TIP3   OH241682   4.825   3.993   0.293  0.2615  0.8700 -0.4824
 6708TIP3    H141683   4.817   4.061   0.360  0.4689 -0.7535  1.2868
 6708TIP3    H241684   4.738   3.953   0.289  0.0326  1.4371 -1.7912
 6709TIP3   OH241685   5.910   3.645   0.438  0.6076  0.0085 -0.0354
 6709TIP3    H141686   5.984   3.700   0.411  1.5174 -1.4514 -0.6042
 6709TIP3    H241687   5.939   3.601   0.518  1.2237 -2.1461 -1.3600
 6710TIP3   OH241688   1.983   4.622   0.525  0.1791 -0.0640 -0.7003
 6710TIP3    H141689   1.991   4.692   0.590 -1.0410  0.1920 -0.8067
 6710TIP3    H241690   1.984   4.541   0.576 -0.1146  0.1047 -0.4251
 6711TIP3   OH241691   3.704   1.667   1.805  0.2757 -0.6172 -0.0213
 6711TIP3    H141692   3.617   1.704   1.787 -0.9038 -2.7077  1.0085
 6711TIP3    H241693   3.733   1.710   1.885  1.3175  1.7944 -1.5832
 6712TIP3   OH241694   0.977   4.586   6.797  0.2878 -0.2766  0.0911
 6712TIP3    H141695   0.969   4.543   6.712  0.5608  1.2370 -0.7363
 6712TIP3    H241696   1.071   4.587   6.815  0.3006  0.1828 -0.0028
 6713TIP3   OH241697   0.787   5.334   6.547 -0.2586  0.3513  0.4390
 6713TIP3    H141698   0.799   5.417   6.500 -0.7212  0.3381  0.2937
 6713TIP3    H241699   0.769   5.270   6.478  1.9618 -0.2700  0.3537
 6714TIP3   OH241700   5.705   1.163   8.132 -0.1368 -0.5191  0.6819
 6714TIP3    H141701   5.723   1.229   8.199 -0.1260 -0.4973  0.6571
 6714TIP3    H241702   5.791   1.133   8.104 -0.0662  1.0294 -0.8910
 6715TIP3   OH241703   6.534   3.451   8.460 -0.5865 -0.0658 -0.5642
 6715TIP3    H141704   6.569   3.534   8.490 -0.1158 -0.8320  1.0989
 6715TIP3    H241705   6.440   3.455   8.481 -1.2106  1.1390 -3.1151
 6716TIP3   OH241706   3.602   1.226   7.749 -0.2145  0.5262 -0.2549
 6716TIP3    H141707   3.585   1.305   7.801  0.0203 -0.1361  0.8688
 6716TIP3    H241708   3.517   1.203   7.712 -0.9671 -0.3600  1.8608
 6717TIP3   OH241709   3.119   0.664   6.451 -0.1420  0.3537 -0.3637
 6717TIP3    H141710   3.041   0.624   6.414 -0.7975  1.4110 -0.1754
 6717TIP3    H241711   3.088   0.748   6.487  0.8671  0.3153  0.6588
 6718TIP3   OH241712   2.674   1.916   7.788  0.3544 -0.6414  0.1983
 6718TIP3    H141713   2.634   1.996   7.754 -1.0963  0.3727  3.8220
 6718TIP3    H241714   2.607   1.878   7.845  1.5903 -3.6338 -0.1707
 6719TIP3   OH241715   4.051   5.200   1.337 -0.3245 -0.1413  0.2512
 6719TIP3    H141716   4.085   5.111   1.330 -0.8299 -0.2942 -0.3835
 6719TIP3    H241717   4.112   5.253   1.285 -0.4165 -0.2391  0.0385
 6720TIP3   OH241718   4.827   5.704   0.479  0.6518 -0.5363  0.0523
 6720TIP3    H141719   4.863   5.637   0.537  1.7744  0.4084  0.4879
 6720TIP3    H241720   4.889   5.708   0.407  0.3001 -0.3398 -0.2378
 6721TIP3   OH241721   5.730   4.269   1.859  0.2882  0.2815  0.3110
 6721TIP3    H141722   5.659   4.304   1.912 -1.0284 -0.8488 -0.6472
 6721TIP3    H241723   5.701   4.281   1.769  0.6426 -1.5114 -0.0659
 6722TIP3   OH241724   0.454   5.357   0.241 -0.2745  0.2864 -0.0556
 6722TIP3    H141725   0.460   5.361   0.146 -0.1003 -0.4925 -0.0884
 6722TIP3    H241726   0.493   5.438   0.272  0.0663  0.3449 -0.6317
 6723TIP3   OH241727   5.118   0.005   6.739 -0.3874  1.1516  0.0111
 6723TIP3    H141728   5.153  -0.061   6.799  0.9598 -0.2866 -2.2237
 6723TIP3    H241729   5.037  -0.035   6.705  0.1676  0.8261 -0.9688
 6724TIP3   OH241730   3.737   5.922   7.381 -0.3436  0.0967  0.8021
 6724TIP3    H141731   3.682   5.922   7.302 -0.2555 -1.3192  0.7164
 6724TIP3    H241732   3.727   6.010   7.417 -4.1922 -0.5467  1.8205
 6725TIP3   OH241733   1.443   2.049   7.100  0.2946  0.0031  0.1721
 6725TIP3    H141734   1.535   2.049   7.126  0.0261  0.7512  1.1734
 6725TIP3    H241735   1.401   1.988   7.161 -0.2733  1.4778  1.3166
 6726TIP3   OH241736   5.230   1.114   7.905  0.4300  0.5609 -0.4521
 6726TIP3    H141737   5.283   1.037   7.924  1.2688  2.0690  5.0495
 6726TIP3    H241738   5.143   1.079   7.885  1.6774 -1.7670 -2.2644
 6727TIP3   OH241739   6.739   3.966   7.880 -0.2140  0.0290  0.0192
 6727TIP3    H141740   6.829   3.998   7.875 -0.8717  2.3008  1.4331
 6727TIP3    H241741   6.729   3.937   7.971 -1.1425  0.5522  0.0933
 6728TIP3   OH241742   3.787   2.143   6.750 -0.0939 -0.3189  0.1656
 6728TIP3    H141743   3.762   2.073   6.689  1.3770 -0.3674 -0.4114
 6728TIP3    H241744   3.880   2.158   6.733 -0.2166  1.3070  0.7700
 6729TIP3   OH241745   5.093   5.906   1.471  0.7030  0.0095  0.4705
 6729TIP3    H141746   5.054   5.909   1.558  0.8790 -1.8598  0.6588
 6729TIP3    H241747   5.029   5.858   1.418  1.4911 -0.6469  0.0903
 6730TIP3   OH241748   1.742   6.771   7.930  0.2165 -0.3116 -0.4836
 6730TIP3    H141749   1.707   6.810   7.850  0.4049  2.5640  0.7254
 6730TIP3    H241750   1.837   6.784   7.923  0.1975  0.4120  0.3758
 6731TIP3   OH241751   5.734   2.682   0.042 -0.3284  0.2713 -0.4114
 6731TIP3    H141752   5.681   2.658   0.118  0.9042  0.8468  0.6619
 6731TIP3    H241753   5.765   2.599   0.007  1.0426  0.0521  1.1838
 6732TIP3   OH241754   1.481   4.154   8.062 -0.1440  0.3349  0.5309
 6732TIP3    H141755   1.445   4.160   8.150 -0.9089 -0.6056  0.3049
 6732TIP3    H241756   1.485   4.244   8.031 -2.6136  0.4705  0.4576
 6733TIP3   OH241757   5.606   3.988   0.728 -0.1404 -0.1768 -0.6746
 6733TIP3    H141758   5.659   3.915   0.694 -0.1126 -0.0995 -0.7996
 6733TIP3    H241759   5.609   3.978   0.823  1.6433  0.8914 -0.5692
 6734TIP3   OH241760   2.406   6.698   8.082  0.1555  0.0282  0.1074
 6734TIP3    H141761   2.448   6.622   8.041 -0.8610 -1.1614  1.1609
 6734TIP3    H241762   2.477   6.757   8.103  0.8310  0.1543 -2.2319
 6735TIP3   OH241763   1.194   1.898   8.020  0.6978  0.5564  0.2805
 6735TIP3    H141764   1.280   1.886   7.979  0.7213 -0.9647  0.7437
 6735TIP3    H241765   1.132   1.860   7.958  0.3178  1.7140 -0.0862
 6736TIP3   OH241766   3.555   6.355   6.275  0.1540 -0.2046 -0.1235
 6736TIP3    H141767   3.628   6.341   6.334 -0.3514 -0.0350  0.5548
 6736TIP3    H241768   3.566   6.446   6.244 -0.8707  0.5314  1.5604
 6737TIP3   OH241769   6.172   0.261   6.819 -0.2476 -0.2194 -0.1124
 6737TIP3    H141770   6.199   0.273   6.728 -0.5914 -1.1885 -0.3529
 6737TIP3    H241771   6.155   0.167   6.827 -0.0804 -0.1691  0.9915
 6738TIP3   OH241772   5.206   2.733   7.540  0.2935  0.1637  0.1346
 6738TIP3    H141773   5.170   2.815   7.574 -0.5076  0.3689 -1.1734
 6738TIP3    H241774   5.146   2.666   7.571  2.1481 -0.3292  3.1832
 6739TIP3   OH241775   4.511   4.793   7.861  0.5763  0.7216 -0.1629
 6739TIP3    H141776   4.472   4.783   7.947  0.9656 -1.2762 -0.1595
 6739TIP3    H241777   4.578   4.724   7.857  0.2473  0.4556 -2.2214
 6740TIP3   OH241778   2.127   1.033   8.531 -0.4703  0.7521 -0.0872
 6740TIP3    H141779   2.061   1.000   8.470  0.2763 -1.5457  0.2571
 6740TIP3    H241780   2.153   0.957   8.582  2.2663  1.6200 -0.0240
 6741TIP3   OH241781   2.895   0.417   8.434  0.7809  0.5317  0.1291
 6741TIP3    H141782   2.908   0.445   8.525  2.9171 -0.1540  0.0997
 6741TIP3    H241783   2.943   0.334   8.428  2.2645  1.4531 -2.0501
 6742TIP3   OH241784   2.662   4.538   0.474  0.5286 -0.3698 -0.2981
 6742TIP3    H141785   2.590   4.594   0.444  1.7574  0.9457 -0.9096
 6742TIP3    H241786   2.739   4.595   0.473  1.4799 -1.5683  0.9540
 6743TIP3   OH241787   6.201   4.670   1.176 -0.2753  0.6215  0.2746
 6743TIP3    H141788   6.254   4.749   1.165  0.8134 -0.2391 -1.0325
 6743TIP3    H241789   6.238   4.627   1.254  0.2204  0.6012  0.0344
 6744TIP3   OH241790   4.933   1.729   7.422  0.0397  0.0941  0.0575
 6744TIP3    H141791   4.885   1.804   7.457  0.5972  0.0527  0.9407
 6744TIP3    H241792   4.907   1.656   7.478  1.3398  0.1353  0.7511
 6745TIP3   OH241793   5.752   4.979   6.613  0.0170 -0.0431  0.3420
 6745TIP3    H141794   5.788   4.895   6.642 -0.8765 -0.1989  1.0550
 6745TIP3    H241795   5.685   4.999   6.678 -1.5872 -0.0393 -1.2480
 6746TIP3   OH241796   3.955   5.388   8.228 -0.2824 -0.8100  0.0332
 6746TIP3    H141797   3.915   5.312   8.186  0.2190 -0.5433 -0.9530
 6746TIP3    H241798   3.882   5.437   8.264 -0.5102 -2.6689  2.3043
 6747TIP3   OH241799   1.476   0.166   1.079  0.0252  0.1737  0.0222
 6747TIP3    H141800   1.544   0.101   1.099  2.4527  2.6967  0.6568
 6747TIP3    H241801   1.487   0.233   1.146 -2.1064  1.4508 -0.8157
 6748TIP3   OH241802   6.590   4.799   0.517 -0.0769 -0.2330  0.1739
 6748TIP3    H141803   6.646   4.759   0.584  2.7892  3.0464  0.0170
 6748TIP3    H241804   6.538   4.727   0.483  1.7522 -2.9319  2.6335
 6749TIP3   OH241805   2.179   4.533   1.166 -0.1631  0.1094  0.1562
 6749TIP3    H141806   2.255   4.476   1.157 -0.0596  0.4744 -1.4344
 6749TIP3    H241807   2.214   4.615   1.201  0.3856  0.6605 -1.5914
 6750TIP3   OH241808   6.238   2.077   6.737  0.0010 -0.5391  0.4783
 6750TIP3    H141809   6.228   2.035   6.822  0.7945  2.1475  2.0452
 6750TIP3    H241810   6.328   2.055   6.709 -0.2730 -1.4490  0.2886
 6751TIP3   OH241811   4.359   2.403   7.579  0.1134 -0.2465 -0.1323
 6751TIP3    H141812   4.298   2.330   7.574 -2.5889  1.9211 -1.7141
 6751TIP3    H241813   4.410   2.397   7.497 -1.5617  0.7214 -1.3053
 6752TIP3   OH241814   4.577   4.661   1.520  0.8444  0.2459  0.2037
 6752TIP3    H141815   4.601   4.583   1.571  1.8955  0.9470  0.8034
 6752TIP3    H241816   4.583   4.733   1.582  2.6460  1.2023 -0.9830
 6753TIP3   OH241817   6.155   2.778   7.340 -0.2659  0.3478 -0.2703
 6753TIP3    H141818   6.148   2.870   7.315 -0.7407  0.5119  0.4503
 6753TIP3    H241819   6.125   2.731   7.262 -2.8791  0.8863  0.3073
 6754TIP3   OH241820   2.093   1.465   7.569 -0.0197  0.0556  0.5673
 6754TIP3    H141821   2.134   1.432   7.649  1.5485 -0.3132 -0.3569
 6754TIP3    H241822   2.121   1.556   7.563  1.1887 -0.3507 -0.3561
 6755TIP3   OH241823   0.799   3.322   0.347 -0.7700 -0.1019  0.1577
 6755TIP3    H141824   0.864   3.346   0.413  0.3935 -0.5450 -0.7927
 6755TIP3    H241825   0.783   3.404   0.299  0.0704 -0.2811 -0.4349
 6756TIP3   OH241826   6.569   5.212   8.275  0.1366  0.1427 -0.5780
 6756TIP3    H141827   6.611   5.239   8.357  0.7566 -0.1978 -0.7823
 6756TIP3    H241828   6.478   5.242   8.284 -0.3141 -1.5029  1.0323
 6757TIP3   OH241829   3.040   5.391   6.638  0.8608  0.5728 -0.4350
 6757TIP3    H141830   3.014   5.365   6.727  1.5464 -1.1932 -0.7038
 6757TIP3    H241831   2.970   5.449   6.609  0.5757  1.1287  1.2264
 6758TIP3   OH241832   6.018   1.600   7.756  0.3983  0.5397  0.0378
 6758TIP3    H141833   5.992   1.689   7.729 -0.9600  0.1721  0.0388
 6758TIP3    H241834   5.961   1.543   7.705  0.4167 -0.2949  0.9350
 6759TIP3   OH241835   4.959   1.047   7.878 -0.2765  1.1059  0.0213
 6759TIP3    H141836   4.948   0.953   7.892  2.2688  1.0233  2.5619
 6759TIP3    H241837   4.892   1.087   7.932 -0.0184  0.7338  0.6276
 6760TIP3   OH241838   6.006   5.268   6.233  0.2011  0.1172 -0.0651
 6760TIP3    H141839   6.101   5.280   6.233  0.1603  0.6379 -1.5280
 6760TIP3    H241840   5.989   5.214   6.156 -0.7726  0.7925 -0.3419
 6761TIP3   OH241841   2.847   6.635   7.284 -0.5105 -0.1625  0.1990
 6761TIP3    H141842   2.865   6.543   7.302  2.0427  0.2781  0.2357
 6761TIP3    H241843   2.843   6.640   7.188 -1.5533 -0.4384  0.2196
 6762TIP3   OH241844   2.326   0.762   1.535  0.1536 -0.2097  0.1183
 6762TIP3    H141845   2.249   0.819   1.542  0.7222  0.4686  1.1006
 6762TIP3    H241846   2.365   0.765   1.622  0.5695 -1.5932 -0.0035
 6763TIP3   OH241847   0.656   5.757   6.824  0.0519 -0.9991  0.1452
 6763TIP3    H141848   0.738   5.782   6.866  0.3380 -1.5354 -0.0751
 6763TIP3    H241849   0.625   5.836   6.781  0.7020 -0.9072 -0.1625
 6764TIP3   OH241850   1.320   4.245   8.288 -1.0738 -0.1898 -0.5497
 6764TIP3    H141851   1.356   4.162   8.320 -1.4994  0.5732  2.2260
 6764TIP3    H241852   1.298   4.293   8.368 -0.0268  2.9777 -2.0181
 6765TIP3   OH241853   2.921   3.243   0.892 -0.3580 -0.6735  0.0750
 6765TIP3    H141854   2.867   3.215   0.818  1.1169 -0.5289 -1.0905
 6765TIP3    H241855   2.870   3.313   0.934 -0.2481  0.9042 -2.2162
 6766TIP3   OH241856   5.502   2.850   0.684 -0.1038  0.2736  0.3216
 6766TIP3    H141857   5.418   2.839   0.641 -0.0167 -2.0900  0.6433
 6766TIP3    H241858   5.481   2.862   0.777 -0.0912  0.4734  0.3007
 6767TIP3   OH241859   1.183   4.335   0.190  0.0186  0.7951  0.3807
 6767TIP3    H141860   1.157   4.346   0.098 -1.0237 -1.6886  0.3142
 6767TIP3    H241861   1.276   4.311   0.186 -0.7791 -2.6894 -0.3917
 6768TIP3   OH241862   0.967   6.773   0.884 -0.0845  0.6267 -0.2236
 6768TIP3    H141863   1.030   6.838   0.916 -0.7546  1.7966 -1.2025
 6768TIP3    H241864   0.882   6.816   0.891 -0.5236 -0.0689 -1.1177
 6769TIP3   OH241865   3.182   6.569   1.649  0.3578 -0.1476  0.3477
 6769TIP3    H141866   3.175   6.613   1.734  0.4013  1.1580 -0.3024
 6769TIP3    H241867   3.273   6.582   1.623  0.1969 -0.0239 -0.1684
 6770TIP3   OH241868   6.711   1.508   8.107 -0.2197 -0.7088  0.1065
 6770TIP3    H141869   6.620   1.479   8.098 -1.0427  1.8009 -0.2306
 6770TIP3    H241870   6.720   1.531   8.199 -0.9611  2.0427 -0.4338
 6771TIP3   OH241871   0.648   4.833   0.327 -0.4101  0.0748  0.8478
 6771TIP3    H141872   0.674   4.925   0.336  0.0950 -0.0245  0.4665
 6771TIP3    H241873   0.598   4.814   0.406  0.5089  0.3429  1.5110
 6772TIP3   OH241874   6.474   0.439   0.076 -0.5107  0.2474  0.3477
 6772TIP3    H141875   6.514   0.370   0.129 -1.1394 -0.8262 -0.5209
 6772TIP3    H241876   6.435   0.499   0.139 -4.1109 -2.6820  1.2493
 6773TIP3   OH241877   2.376   2.709   8.085 -0.2279  0.5199 -0.1405
 6773TIP3    H141878   2.338   2.772   8.146  0.1783  0.7543 -0.1295
 6773TIP3    H241879   2.452   2.673   8.130  0.1105  0.7388 -0.5256
 6774TIP3   OH241880   6.569   6.734   1.315  0.0422 -0.3590 -0.0949
 6774TIP3    H141881   6.648   6.681   1.297  0.8920  1.0456 -0.6673
 6774TIP3    H241882   6.496   6.676   1.292  0.9621 -0.8558 -2.0267
 6775TIP3   OH241883   0.773   5.726   0.364 -0.0758  0.4056 -0.5734
 6775TIP3    H141884   0.700   5.770   0.320  0.1653  1.8196  0.3911
 6775TIP3    H241885   0.841   5.793   0.371  0.5781 -0.3227  0.3058
 6776TIP3   OH241886   1.066   3.557   0.394 -0.1464  0.6425 -0.5533
 6776TIP3    H141887   1.062   3.602   0.309 -1.7107 -1.8049 -1.8868
 6776TIP3    H241888   0.977   3.565   0.428 -0.1581 -0.4917 -0.3081
 6777TIP3   OH241889   6.126   0.764   1.229 -0.2205  0.1771  0.0145
 6777TIP3    H141890   6.178   0.708   1.172 -1.6140  1.4304 -2.6517
 6777TIP3    H241891   6.166   0.851   1.220 -1.2327  0.6493 -0.0615
 6778TIP3   OH241892   3.415   0.062   1.083 -0.1764 -0.1323  0.7656
 6778TIP3    H141893   3.477   0.065   1.010 -2.4530  2.2825 -1.3245
 6778TIP3    H241894   3.365  -0.019   1.069  0.5664 -0.5977  0.7486
 6779TIP3   OH241895   4.959   2.693   7.161 -0.3199 -0.4079  0.2999
 6779TIP3    H141896   5.055   2.695   7.164 -0.2509  0.7267 -1.3643
 6779TIP3    H241897   4.932   2.759   7.224 -0.0081 -0.6691  0.7127
 6780TIP3   OH241898   1.690   3.905   1.334  0.1202  0.1885 -0.9364
 6780TIP3    H141899   1.657   3.911   1.245 -2.0889 -0.2267 -0.1966
 6780TIP3    H241900   1.734   3.820   1.338  1.0400  0.5979 -1.8377
 6781TIP3   OH241901   5.286   6.328   8.244 -0.7135 -0.2351 -0.3064
 6781TIP3    H141902   5.344   6.328   8.320 -1.5746  0.8524  0.3793
 6781TIP3    H241903   5.302   6.243   8.201 -0.6336 -1.1219  1.4039
 6782TIP3   OH241904   3.801   1.064   6.653 -0.4703 -0.4405 -0.0220
 6782TIP3    H141905   3.827   0.973   6.662  1.5958  0.3027  2.7529
 6782TIP3    H241906   3.864   1.101   6.590 -0.8312 -0.7212 -0.5573
 6783TIP3   OH241907   0.305   5.758   1.306  0.2405 -0.4927 -0.3571
 6783TIP3    H141908   0.361   5.763   1.229  0.1194  0.0246 -0.4128
 6783TIP3    H241909   0.364   5.735   1.378  0.2154 -1.9366 -0.7523
 6784TIP3   OH241910   5.013   0.171   6.115 -0.4008 -0.5460 -0.2677
 6784TIP3    H141911   4.980   0.149   6.202 -1.2674  2.4167  0.2733
 6784TIP3    H241912   5.102   0.202   6.131 -0.0227 -1.3788 -0.6832
 6785TIP3   OH241913   6.684   3.872   6.575 -0.8492 -0.3104 -0.1433
 6785TIP3    H141914   6.779   3.875   6.589 -1.1494  0.2041  2.2835
 6785TIP3    H241915   6.654   3.798   6.628 -1.8423 -0.3059 -0.6764
 6786TIP3   OH241916   2.389   0.352   6.523 -0.6116 -0.3682  0.3488
 6786TIP3    H141917   2.475   0.394   6.525 -0.5110 -0.4614 -0.9762
 6786TIP3    H241918   2.349   0.384   6.442 -1.0507 -1.7832 -0.0227
 6787TIP3   OH241919   4.358   6.614   1.036 -0.0719  0.7021 -0.1939
 6787TIP3    H141920   4.381   6.659   0.955  0.5490  2.1760  0.7553
 6787TIP3    H241921   4.265   6.594   1.026  0.4860 -1.3292 -2.2338
 6788TIP3   OH241922   3.507   5.466   7.406  0.3921 -0.0974 -0.7006
 6788TIP3    H141923   3.544   5.554   7.409 -0.0741  0.0817  0.0344
 6788TIP3    H241924   3.580   5.411   7.379  0.9887  0.3612 -0.0859
 6789TIP3   OH241925   2.464   4.428   0.699 -0.4735  0.1698  0.0203
 6789TIP3    H141926   2.520   4.504   0.715  0.0383 -0.3411  0.6859
 6789TIP3    H241927   2.404   4.426   0.774 -0.9477  0.3155 -0.3469
 6790TIP3   OH241928   4.040   4.426   8.223  0.0085  0.1055 -0.3631
 6790TIP3    H141929   4.015   4.406   8.133 -0.4748  0.8872 -0.4097
 6790TIP3    H241930   3.980   4.496   8.250 -1.9873 -2.1926  1.6532
 6791TIP3   OH241931   0.281   5.770   6.955  0.9017 -0.5470  0.1363
 6791TIP3    H141932   0.276   5.684   6.912  1.0989 -0.1688 -0.6650
 6791TIP3    H241933   0.210   5.820   6.915  1.1733 -0.1445  0.1581
 6792TIP3   OH241934   4.122   4.071   0.735  0.7308  0.1858  0.3610
 6792TIP3    H141935   4.032   4.059   0.706  1.4262  0.0001 -1.8992
 6792TIP3    H241936   4.144   3.989   0.781  0.2132 -0.3840 -0.3878
 6793TIP3   OH241937   2.307   5.239   0.202  0.3364 -0.0159 -0.1076
 6793TIP3    H141938   2.214   5.243   0.183  0.3614 -1.2248 -0.6233
 6793TIP3    H241939   2.333   5.329   0.217 -0.7821  0.4106 -0.6181
 6794TIP3   OH241940   2.152   2.331   7.334  0.3379  0.5826  0.1600
 6794TIP3    H141941   2.079   2.373   7.379  0.6263  1.6790 -0.3700
 6794TIP3    H241942   2.111   2.264   7.279 -0.1934  0.6866  0.4275
 6795TIP3   OH241943   6.127   0.885   8.430  0.3277  0.9963  0.0049
 6795TIP3    H141944   6.108   0.974   8.461  1.6793  0.5606  2.2741
 6795TIP3    H241945   6.206   0.859   8.477  0.7933 -0.8893 -1.7010
 6796TIP3   OH241946   2.364   5.709   8.566  0.3001  0.4144 -0.2096
 6796TIP3    H141947   2.403   5.745   8.486 -1.1775 -0.5931 -1.4374
 6796TIP3    H241948   2.275   5.686   8.540  0.1872 -1.1098  1.4010
 6797TIP3   OH241949   3.344   5.190   6.820 -0.2237  0.6848 -0.2555
 6797TIP3    H141950   3.299   5.269   6.790 -0.3544  1.6849  2.3094
 6797TIP3    H241951   3.275   5.125   6.831 -0.3216  0.6579 -0.9982
 6798TIP3   OH241952   4.674   5.438   0.883  0.4797  0.4684 -0.8922
 6798TIP3    H141953   4.733   5.372   0.920 -0.0739 -0.3385 -1.4108
 6798TIP3    H241954   4.606   5.449   0.949 -0.3470 -0.7544 -1.4921
 6799TIP3   OH241955   5.161   3.587   0.345  0.3996  0.8577 -0.1122
 6799TIP3    H141956   5.111   3.668   0.333 -1.3647  0.2270  2.2648
 6799TIP3    H241957   5.189   3.589   0.436  1.3795 -0.6706 -0.3387
 6800TIP3   OH241958   5.171   1.231   0.182 -0.4418  0.2198 -0.0837
 6800TIP3    H141959   5.091   1.270   0.147 -0.3354  0.8011  0.3144
 6800TIP3    H241960   5.163   1.240   0.277 -0.0073  0.0725 -0.0321
 6801TIP3   OH241961   0.689   6.609   7.749  0.7174 -0.5049 -0.1718
 6801TIP3    H141962   0.624   6.656   7.802  0.5172 -1.3623  0.3670
 6801TIP3    H241963   0.691   6.657   7.666 -0.6162 -0.4651 -0.2051
 6802TIP3   OH241964   5.117   4.158   0.676 -0.0278  0.2439 -0.2448
 6802TIP3    H141965   5.071   4.232   0.717  0.7406  0.6571 -0.1010
 6802TIP3    H241966   5.168   4.198   0.605  0.0872 -0.2051 -0.4183
 6803TIP3   OH241967   1.098   1.620   7.208 -0.9853  0.1601 -0.0353
 6803TIP3    H141968   1.089   1.704   7.163  1.0477  0.6246  0.3043
 6803TIP3    H241969   1.012   1.579   7.200 -2.4350  2.7601  0.8274
 6804TIP3   OH241970   0.865   0.049   6.654 -0.0098  0.9049 -0.5603
 6804TIP3    H141971   0.867   0.142   6.632 -0.2155  1.3535  1.2129
 6804TIP3    H241972   0.842   0.006   6.571  0.2750  2.3942 -1.4567
 6805TIP3   OH241973   0.730   6.616   1.037 -0.7716  0.2954  0.6484
 6805TIP3    H141974   0.711   6.628   0.944 -0.0239 -2.3598  0.0738
 6805TIP3    H241975   0.654   6.570   1.072 -0.1383 -0.6392  0.8316
 6806TIP3   OH241976   0.457   4.761   8.119  0.9473  0.0063 -0.0463
 6806TIP3    H141977   0.388   4.696   8.099  0.8929 -0.3086  1.1201
 6806TIP3    H241978   0.422   4.843   8.084  0.0576 -0.1862  0.3537
 6807TIP3   OH241979   6.412   3.034   6.870  0.1082 -0.1181  0.2228
 6807TIP3    H141980   6.455   2.996   6.947 -0.1242  0.0928  0.4626
 6807TIP3    H241981   6.354   3.101   6.907  0.1179  0.0963 -0.1520
 6808TIP3   OH241982   2.194   0.054   0.936 -0.0706 -0.3581  0.1501
 6808TIP3    H141983   2.244   0.045   1.018 -0.3275 -0.5371  0.2875
 6808TIP3    H241984   2.213   0.143   0.907 -0.0902 -0.2439  0.4797
 6809TIP3   OH241985   4.042   2.462   0.044  0.7649  0.2424  0.2042
 6809TIP3    H141986   4.020   2.377   0.080  1.2491  0.0646  0.0868
 6809TIP3    H241987   4.132   2.478   0.072  0.1751  1.4109  1.5215
 6810TIP3   OH241988   3.421   5.215   7.525  0.6194  0.1341 -0.1514
 6810TIP3    H141989   3.472   5.199   7.605 -1.0802  0.3744  1.0547
 6810TIP3    H241990   3.420   5.310   7.515  0.3587  0.1388 -0.1084
 6811TIP3   OH241991   0.865   5.413   7.478  0.1400  0.3246  0.1559
 6811TIP3    H141992   0.924   5.413   7.553 -0.4376  0.7995  0.6234
 6811TIP3    H241993   0.812   5.334   7.490  2.6809 -1.9076 -1.9341
 6812TIP3   OH241994   2.402   6.449   6.553  0.6214 -0.0278 -0.1693
 6812TIP3    H141995   2.352   6.526   6.580 -0.3516 -0.8813  0.5305
 6812TIP3    H241996   2.494   6.475   6.566  0.3686  1.4110 -1.0791
 6813TIP3   OH241997   3.984   5.251   0.020 -0.2165  0.6684  0.1067
 6813TIP3    H141998   4.011   5.285  -0.065  0.5874  2.1870  0.9394
 6813TIP3    H241999   4.049   5.284   0.082  0.1362 -1.7363  1.1198
 6814TIP3   OH242000   0.187   0.418   7.473  0.3618  0.9202 -0.7517
 6814TIP3    H142001   0.146   0.333   7.485  1.7361  0.2072 -0.8919
 6814TIP3    H242002   0.144   0.475   7.537  2.4682 -0.9718  2.6216
 6815TIP3   OH242003   1.514   4.839   1.733 -0.1162  0.4382 -0.1743
 6815TIP3    H142004   1.531   4.784   1.657  0.4520  0.8516 -0.3488
 6815TIP3    H242005   1.516   4.928   1.699  3.0068  0.8458  0.7980
 6816TIP3   OH242006   5.797   3.569   1.235 -0.0073  0.2122 -0.3596
 6816TIP3    H142007   5.789   3.491   1.291 -0.0001 -0.2713 -1.0279
 6816TIP3    H242008   5.782   3.643   1.295 -0.7665 -0.3304  0.1450
 6817TIP3   OH242009   0.589   4.836   1.811 -0.2379  0.2832 -0.3174
 6817TIP3    H142010   0.499   4.804   1.802 -0.3773  0.0849  1.4913
 6817TIP3    H242011   0.586   4.925   1.778 -2.0011  1.5890  2.9068
 6818TIP3   OH242012   3.328   0.329   6.944  0.0121  0.0417  0.0741
 6818TIP3    H142013   3.304   0.301   6.856  0.9239 -3.3865  0.7500
 6818TIP3    H242014   3.408   0.381   6.932 -0.0460 -0.1234 -1.1344
 6819TIP3   OH242015   2.287   1.042   1.926  0.2872 -0.0185 -0.2086
 6819TIP3    H142016   2.228   1.071   1.857 -1.3580 -0.8028  0.8209
 6819TIP3    H242017   2.231   1.028   2.002  1.6713 -1.5993  0.5910
 6820TIP3   OH242018   5.957   1.329   7.639  0.2342  0.6987  0.4360
 6820TIP3    H142019   5.926   1.244   7.609  1.1051  0.0541  1.3125
 6820TIP3    H242020   6.031   1.309   7.696 -0.4223  1.9410  1.8024
 6821TIP3   OH242021   2.339   2.659   1.488  0.2892  0.1180  0.4509
 6821TIP3    H142022   2.402   2.592   1.459  0.8049  0.2729  1.1872
 6821TIP3    H242023   2.390   2.740   1.492  0.0894  0.2109  1.2375
 6822TIP3   OH242024   6.899   0.801   8.522  0.2659  0.0656  0.3818
 6822TIP3    H142025   6.982   0.772   8.486  1.1599  1.6159  1.0631
 6822TIP3    H242026   6.888   0.751   8.603  0.8493  0.2672  0.5893
 6823TIP3   OH242027   5.111   2.657   2.134  0.5550 -0.2760 -0.8185
 6823TIP3    H142028   5.157   2.584   2.092 -0.1931 -0.0866 -2.0103
 6823TIP3    H242029   5.025   2.622   2.155  0.4202  0.0726 -0.7808
 6824TIP3   OH242030   0.435   6.121   0.642 -0.6047  0.4414 -0.3603
 6824TIP3    H142031   0.426   6.148   0.733 -1.0534  1.0235 -0.5678
 6824TIP3    H242032   0.448   6.027   0.646 -2.6808  0.1281  0.2139
 6825TIP3   OH242033   5.613   5.001   7.768 -0.1094 -0.2411  0.7045
 6825TIP3    H142034   5.689   4.949   7.795 -0.0162 -0.5548 -0.1352
 6825TIP3    H242035   5.651   5.073   7.717 -0.2634  0.4858  1.5888
 6826TIP3   OH242036   3.481   3.056   0.418  0.1816 -0.0193  0.2986
 6826TIP3    H142037   3.572   3.051   0.388  0.4721  0.7188  0.9961
 6826TIP3    H242038   3.470   3.148   0.442 -1.0081  0.0752 -0.5360
 6827TIP3   OH242039   5.760   4.812   7.929  0.3983  0.6222  0.1978
 6827TIP3    H142040   5.806   4.749   7.874  0.3261  1.7242 -1.1644
 6827TIP3    H242041   5.681   4.767   7.956  0.8938 -0.2699  0.1892
 6828TIP3   OH242042   5.345   3.152   8.528 -0.4337  0.1121 -0.1818
 6828TIP3    H142043   5.335   3.216   8.457  1.0824 -2.2767 -2.7357
 6828TIP3    H242044   5.439   3.151   8.546 -0.1058 -2.5313 -1.5032
 6829TIP3   OH242045   3.986   4.066   7.453 -0.4300 -0.0550 -0.1881
 6829TIP3    H142046   4.024   4.012   7.382 -0.0046 -0.0530  0.0358
 6829TIP3    H242047   3.976   4.153   7.414 -4.3008 -0.9575 -1.7096
 6830TIP3   OH242048   4.784   1.801   1.721  0.5084 -0.6859  0.5944
 6830TIP3    H142049   4.788   1.892   1.691  0.9587 -1.1265 -0.7463
 6830TIP3    H242050   4.808   1.749   1.644  0.1171 -1.9531  1.2982
 6831TIP3   OH242051   5.802   5.953   2.257  0.4538  1.0099  0.2311
 6831TIP3    H142052   5.840   6.020   2.200  0.2920  1.2912  0.4530
 6831TIP3    H242053   5.746   6.002   2.318  0.4556  0.6912  0.4922
 6832TIP3   OH242054   3.114   6.135   7.377  0.4146  0.7024  0.0454
 6832TIP3    H142055   3.099   6.200   7.308  1.4159  2.5518  1.4825
 6832TIP3    H242056   3.191   6.168   7.424  0.8185 -1.4363  0.9796
 6833TIP3   OH242057   0.987   0.189   0.638 -0.2491  0.3688 -0.2318
 6833TIP3    H142058   1.002   0.278   0.607  0.3479  0.4680  0.3156
 6833TIP3    H242059   1.014   0.191   0.730  0.4324 -0.5391 -0.3906
 6834TIP3   OH242060   2.099   1.462   6.872 -0.2885  0.3237 -0.6367
 6834TIP3    H142061   2.167   1.464   6.805 -0.2570 -2.5936 -0.8252
 6834TIP3    H242062   2.145   1.443   6.953 -0.7863 -2.3083 -0.8634
 6835TIP3   OH242063   5.357   5.977   1.499 -0.2409  0.4067  0.3347
 6835TIP3    H142064   5.406   5.951   1.421  1.3448 -2.9180  2.2332
 6835TIP3    H242065   5.271   5.936   1.489 -0.1386  0.2269  0.1858
 6836TIP3   OH242066   2.803   3.044   7.277  0.1616 -0.5421 -0.1505
 6836TIP3    H142067   2.753   2.965   7.300  0.0826 -0.2776  0.6067
 6836TIP3    H242068   2.769   3.069   7.191  0.4613 -1.5530 -0.5827
 6837TIP3   OH242069   0.217   2.230   1.993  0.6432  0.0925  0.2983
 6837TIP3    H142070   0.264   2.312   2.008  0.6582  0.2012 -0.3033
 6837TIP3    H242071   0.131   2.258   1.962  0.5086 -0.1145  0.4877
 6838TIP3   OH242072   4.466   2.987   2.057  0.3769 -0.5178 -0.4827
 6838TIP3    H142073   4.426   3.031   1.982  1.2115  0.5301 -0.3318
 6838TIP3    H242074   4.525   2.922   2.018  1.7034  0.8246 -0.7800
 6839TIP3   OH242075   3.164   6.434   7.913  0.3186  0.0626  0.3657
 6839TIP3    H142076   3.257   6.441   7.934  0.3425  0.2591  0.1871
 6839TIP3    H242077   3.121   6.429   7.998  0.3943  1.1111  0.4764
 6840TIP3   OH242078   1.991   3.323   7.531  0.2527 -0.0614 -0.4800
 6840TIP3    H142079   2.016   3.243   7.577  0.0438  0.8625  1.3358
 6840TIP3    H242080   1.954   3.293   7.449  0.8199 -1.7916 -0.1445
 6841TIP3   OH242081   4.824   0.279   1.203  0.5192 -0.4967  0.2885
 6841TIP3    H142082   4.900   0.299   1.148 -0.4887 -0.3043 -1.1049
 6841TIP3    H242083   4.795   0.193   1.173 -0.6688  0.0679 -0.2413
 6842TIP3   OH242084   4.931   5.595   6.045 -0.2676  0.4734 -0.3550
 6842TIP3    H142085   4.941   5.546   5.964 -0.7139  0.0807 -0.1765
 6842TIP3    H242086   4.837   5.592   6.064 -0.0956  0.0366  0.4882
 6843TIP3   OH242087   5.009   0.563   1.095  0.0611  0.2847  0.7375
 6843TIP3    H142088   4.957   0.573   1.175  1.8970 -1.1623  2.2048
 6843TIP3    H242089   4.966   0.492   1.047 -0.6875  0.7361  0.7230
 6844TIP3   OH242090   1.782   4.125   1.158 -0.1777  0.0919 -0.3359
 6844TIP3    H142091   1.713   4.118   1.224 -0.0820 -1.0602 -0.3343
 6844TIP3    H242092   1.767   4.210   1.116 -1.2870  0.0816  0.0059
 6845TIP3   OH242093   3.452   2.931   0.687  0.2558 -0.1038  0.3849
 6845TIP3    H142094   3.439   2.838   0.706  1.1898  0.0212  1.7442
 6845TIP3    H242095   3.491   2.931   0.599  0.4413 -1.0131  0.4527
 6846TIP3   OH242096   5.632   4.446   0.540 -0.0244 -0.6200  0.0670
 6846TIP3    H142097   5.670   4.513   0.598  0.9015  1.0438 -2.2788
 6846TIP3    H242098   5.708   4.400   0.504 -0.3087  0.3177 -1.9147
 6847TIP3   OH242099   2.190   1.763   0.462 -0.2638 -0.4615 -0.1556
 6847TIP3    H142100   2.159   1.712   0.387  1.3142 -1.3508 -0.2532
 6847TIP3    H242101   2.208   1.697   0.530 -0.9980  0.2673  0.7649
 6848TIP3   OH242102   5.342   2.178   1.960 -0.2758  0.3323  0.3722
 6848TIP3    H142103   5.312   2.210   1.875  0.2180 -1.8002 -0.6857
 6848TIP3    H242104   5.398   2.247   1.994 -0.3274  1.1417 -1.1336
 6849TIP3   OH242105   5.643   0.729   7.904 -0.4251 -0.2173  0.2966
 6849TIP3    H142106   5.586   0.779   7.846  0.8089  1.3820  0.4008
 6849TIP3    H242107   5.591   0.653   7.929 -2.2368  0.7999 -0.2054
 6850TIP3   OH242108   5.820   1.015   7.826 -0.0723 -0.5819  0.2349
 6850TIP3    H142109   5.864   1.079   7.882 -0.0462 -0.8713  0.5468
 6850TIP3    H242110   5.763   1.068   7.770  0.6818 -0.1998 -0.1919
 6851TIP3   OH242111   3.712   0.902   7.992 -0.3234 -0.1029 -0.0031
 6851TIP3    H142112   3.642   0.919   7.929  0.0815  2.2541  0.0919
 6851TIP3    H242113   3.668   0.903   8.077 -0.5218 -1.0226 -0.0874
 6852TIP3   OH242114   4.467   1.759   6.413  0.3012  0.2440 -0.2302
 6852TIP3    H142115   4.544   1.709   6.441 -0.1756 -0.6103 -0.4036
 6852TIP3    H242116   4.503   1.840   6.378  1.0932  0.0595  0.1252
 6853TIP3   OH242117   6.014   2.322   1.565  0.2929  0.3301  0.5972
 6853TIP3    H142118   6.074   2.259   1.524 -0.1859  0.6531 -0.6439
 6853TIP3    H242119   6.045   2.328   1.656  0.6648 -1.2959  0.6188
 6854TIP3   OH242120   4.882   6.275   7.394 -0.0752 -0.2203 -0.2865
 6854TIP3    H142121   4.812   6.210   7.391 -0.0005 -0.5702  2.5937
 6854TIP3    H242122   4.847   6.350   7.346 -2.7610 -0.1350  1.6035
 6855TIP3   OH242123   5.071   4.755   0.333 -0.3487  0.1501  0.5100
 6855TIP3    H142124   4.994   4.740   0.389 -0.7057  1.3510  0.3749
 6855TIP3    H242125   5.037   4.805   0.259  0.7870  1.8328  1.0824
 6856TIP3   OH242126   0.055   3.139   5.881  0.2045  0.4071 -0.7460
 6856TIP3    H142127   0.145   3.122   5.854  0.5282 -2.6551  1.7616
 6856TIP3    H242128   0.053   3.234   5.897  3.0711  0.5161 -0.5041
 6857TIP3   OH242129   0.613   2.694   7.254  0.2731 -0.4854 -0.0048
 6857TIP3    H142130   0.630   2.631   7.324 -1.0740  0.2162  1.0086
 6857TIP3    H242131   0.667   2.769   7.276 -2.3937  0.9813  2.1354
 6858TIP3   OH242132   5.777   1.262   2.096 -0.3018 -0.0381  0.4366
 6858TIP3    H142133   5.841   1.330   2.117  0.4573 -0.3355 -0.7936
 6858TIP3    H242134   5.694   1.310   2.083 -0.2283  0.4086  1.5328
 6859TIP3   OH242135   5.693   5.585   1.976  0.0593  0.1273 -0.5143
 6859TIP3    H142136   5.680   5.600   1.882  0.1406  0.7654 -0.4280
 6859TIP3    H242137   5.673   5.669   2.017  2.7293  0.7239 -0.2195
 6860TIP3   OH242138   5.254   6.092   0.238  0.4189 -0.3080  0.2026
 6860TIP3    H142139   5.274   6.186   0.245  0.9447 -0.4750  1.1485
 6860TIP3    H242140   5.197   6.075   0.313 -2.3456 -0.1139 -1.7002
 6861TIP3   OH242141   5.808   5.008   0.224 -0.1877 -0.0198  0.4986
 6861TIP3    H142142   5.776   4.965   0.144 -0.9727  1.3447  0.0565
 6861TIP3    H242143   5.749   5.082   0.236 -0.5435 -0.6076  2.7734
 6862TIP3   OH242144   1.856   2.511   7.654 -0.2514 -0.0282 -0.0643
 6862TIP3    H142145   1.869   2.545   7.565  0.0336 -1.6374 -0.6801
 6862TIP3    H242146   1.930   2.452   7.668 -0.2695  0.2404  1.2862
 6863TIP3   OH242147   5.152   2.601   7.868 -0.3596 -0.1828  0.3427
 6863TIP3    H142148   5.105   2.672   7.823  0.3009 -0.2643 -0.5090
 6863TIP3    H242149   5.244   2.618   7.849  0.1412  0.7633  3.0943
 6864TIP3   OH242150   0.266   6.836   1.308 -0.1636 -0.0228  1.0419
 6864TIP3    H142151   0.283   6.892   1.384  1.2215 -1.7471  2.0612
 6864TIP3    H242152   0.305   6.752   1.330 -0.5864 -0.8833 -1.1942
 6865TIP3   OH242153   1.398   4.635   1.002  0.0919  0.6318  0.0967
 6865TIP3    H142154   1.317   4.598   0.968  1.2567 -1.0283 -1.0472
 6865TIP3    H242155   1.376   4.663   1.091 -1.8693  0.8022 -0.3987
 6866TIP3   OH242156   0.788   3.758   0.472  0.2981  0.4601 -0.6457
 6866TIP3    H142157   0.720   3.737   0.536 -1.1903 -0.4026 -2.4129
 6866TIP3    H242158   0.741   3.805   0.402  1.8072  1.1424 -1.2316
 6867TIP3   OH242159   5.600   6.000   8.375  1.1500  0.4641 -0.0806
 6867TIP3    H142160   5.633   6.057   8.306  0.4869  0.7402 -0.1763
 6867TIP3    H242161   5.623   6.045   8.456 -0.3572  1.4530 -0.1715
 6868TIP3   OH242162   3.741   1.867   0.439  0.3129 -0.4977 -0.0796
 6868TIP3    H142163   3.757   1.914   0.522  0.9183 -0.9011  0.0291
 6868TIP3    H242164   3.661   1.818   0.456 -0.6961  0.9490 -0.3931
 6869TIP3   OH242165   1.946   5.684   0.827  0.0600 -0.6081  0.1941
 6869TIP3    H142166   2.014   5.736   0.872 -0.7552  0.9945 -0.3360
 6869TIP3    H242167   1.994   5.631   0.764  0.7957  1.3896 -1.0346
 6870TIP3   OH242168   6.019   0.788   8.019  0.4507  0.2203  0.0093
 6870TIP3    H142169   5.968   0.786   8.100  0.7949  0.5394  0.2385
 6870TIP3    H242170   6.083   0.858   8.033  0.1648  0.6423 -0.7498
 6871TIP3   OH242171   4.123   2.018   1.685 -0.4343  0.1445  0.3378
 6871TIP3    H142172   4.066   2.086   1.720 -0.4330  0.0158  0.5906
 6871TIP3    H242173   4.074   1.937   1.697 -0.8155  0.1903 -0.7667
 6872TIP3   OH242174   6.683   5.210   6.812  0.4035 -0.0579  0.0578
 6872TIP3    H142175   6.670   5.278   6.746  0.9193  1.6532  1.6054
 6872TIP3    H242176   6.770   5.229   6.848  0.7465 -1.8341  0.2348
 6873TIP3   OH242177   2.848   3.482   8.409  0.5917  0.0957 -0.1927
 6873TIP3    H142178   2.936   3.470   8.445  0.5562  0.8403  0.1567
 6873TIP3    H242179   2.816   3.562   8.449 -0.5580 -0.5712  0.2854
 6874TIP3   OH242180   4.226   1.293   1.914  0.1978  0.7769  0.2077
 6874TIP3    H142181   4.144   1.343   1.914 -0.4182 -0.1872  1.7207
 6874TIP3    H242182   4.294   1.360   1.914 -0.6043  1.6146  0.7746
 6875TIP3   OH242183   5.192   4.994   6.588 -0.0434  0.1149 -0.0742
 6875TIP3    H142184   5.100   4.989   6.563 -0.5623 -2.0258  1.9882
 6875TIP3    H242185   5.229   5.059   6.528 -2.2931 -0.8181 -2.6545
 6876TIP3   OH242186   2.647   1.492   7.226 -0.5367  0.3326  0.3593
 6876TIP3    H142187   2.707   1.429   7.266  0.6270  1.6532  0.7535
 6876TIP3    H242188   2.684   1.577   7.248 -1.6276  1.1457 -0.8562
 6877TIP3   OH242189   4.693   5.043   0.433  0.2281 -0.2035 -0.2505
 6877TIP3    H142190   4.641   5.105   0.484  0.2841 -0.2826 -0.0990
 6877TIP3    H242191   4.668   5.061   0.342  2.1847  1.8581 -0.4728
 6878TIP3   OH242192   3.051   5.753   8.401 -0.3483 -0.4074  0.1573
 6878TIP3    H142193   3.064   5.659   8.407  0.6069 -0.4474 -1.7239
 6878TIP3    H242194   3.114   5.782   8.335 -0.7644  1.5243  0.5316
 6879TIP3   OH242195   1.054   1.141   7.061  0.0284  0.0782  0.3721
 6879TIP3    H142196   1.052   1.236   7.056  1.4960  0.0998 -0.3135
 6879TIP3    H242197   1.075   1.113   6.972 -0.2077 -0.8795  0.6058
 6880TIP3   OH242198   4.848   4.300   1.559 -0.2208 -0.1076 -0.0757
 6880TIP3    H142199   4.908   4.252   1.501  0.3035  1.2895 -0.7387
 6880TIP3    H242200   4.839   4.386   1.518 -2.1204 -0.0311  0.4215
 6881TIP3   OH242201   0.946   3.169   1.080 -0.0920 -0.2187 -0.1098
 6881TIP3    H142202   0.963   3.230   1.152 -1.8720 -0.0157  0.1898
 6881TIP3    H242203   0.854   3.145   1.091  0.0865 -1.5558 -1.2996
 6882TIP3   OH242204   2.621   2.479   1.420 -0.1568  0.2677  0.2538
 6882TIP3    H142205   2.550   2.431   1.462 -0.4074 -1.4007 -1.8865
 6882TIP3    H242206   2.661   2.416   1.360  2.2705  1.5610  0.3638
 6883TIP3   OH242207   2.571   3.782   7.758  0.2092 -0.0528 -0.6255
 6883TIP3    H142208   2.649   3.734   7.731  0.3176  0.2106 -0.7843
 6883TIP3    H242209   2.554   3.753   7.847  0.2450 -0.4227 -0.7366
 6884TIP3   OH242210   1.052   2.284   5.809  0.4428  0.0667 -0.2368
 6884TIP3    H142211   1.080   2.322   5.892  0.4359 -0.6990  0.1256
 6884TIP3    H242212   1.130   2.239   5.775  0.2657 -0.1944 -0.3064
 6885TIP3   OH242213   3.323   1.425   7.505  0.2135 -0.4003  0.0964
 6885TIP3    H142214   3.308   1.455   7.595 -2.3032 -3.3195  0.8055
 6885TIP3    H242215   3.355   1.335   7.515  0.3670 -0.6108 -1.9425
 6886TIP3   OH242216   1.606   6.596   8.097  0.2295  0.2014  0.4252
 6886TIP3    H142217   1.677   6.650   8.062  0.8554  0.9532  2.6647
 6886TIP3    H242218   1.548   6.580   8.023  1.3340  1.8735 -0.8583
 6887TIP3   OH242219   6.464   1.866   0.497 -0.2896 -0.1140  0.0844
 6887TIP3    H142220   6.371   1.861   0.474 -0.6177  0.0219  1.3245
 6887TIP3    H242221   6.490   1.775   0.512 -0.2352 -0.1452 -0.1916
 6888TIP3   OH242222   0.982   1.927   6.326  0.0478 -0.1903 -0.7517
 6888TIP3    H142223   1.012   1.837   6.338 -2.4075 -0.8550  1.1504
 6888TIP3    H242224   1.051   1.980   6.365  0.4325 -1.4253  0.3425
 6889TIP3   OH242225   4.780   2.097   1.677  0.1276 -0.3082  0.3424
 6889TIP3    H142226   4.685   2.106   1.686  0.0123 -1.3980  0.3144
 6889TIP3    H242227   4.797   2.127   1.587 -0.1395  0.1808  0.4460
 6890TIP3   OH242228   0.906   4.011   1.128  0.4538 -0.4430 -0.1434
 6890TIP3    H142229   0.819   3.976   1.149  0.3215  0.4691  0.9427
 6890TIP3    H242230   0.962   3.934   1.122  0.0541 -0.9037  1.5532
 6891TIP3   OH242231   4.971   1.934   8.103 -0.1042  0.2554 -0.1376
 6891TIP3    H142232   4.985   1.840   8.116  0.0278  0.5256  2.2780
 6891TIP3    H242233   5.052   1.966   8.064  1.4139 -0.1319  2.4256
 6892TIP3   OH242234   3.106   6.752   0.069  0.1345  0.6677  0.3858
 6892TIP3    H142235   3.088   6.840   0.102  1.0125  1.2945 -0.7484
 6892TIP3    H242236   3.190   6.759   0.025  1.7253 -1.4566  2.7945
 6893TIP3   OH242237   3.958   1.066   0.803 -0.7521 -0.7459  0.3746
 6893TIP3    H142238   4.005   1.138   0.761 -0.9360 -0.7901  0.0861
 6893TIP3    H242239   3.935   1.007   0.731  0.5187 -1.7526  0.7466
 6894TIP3   OH242240   5.860   3.309   8.474  0.4548  0.5022  0.5977
 6894TIP3    H142241   5.943   3.352   8.458  0.6981 -0.4770 -1.0237
 6894TIP3    H242242   5.812   3.317   8.392 -0.1694 -0.8019  0.8002
 6895TIP3   OH242243   5.405   4.820   6.363  0.1684  0.0757 -0.1045
 6895TIP3    H142244   5.357   4.895   6.326  0.2455  0.4754  0.5935
 6895TIP3    H242245   5.339   4.752   6.374  0.0856  0.0547 -0.6829
 6896TIP3   OH242246   2.043   1.139   0.221 -0.3461 -0.5278  0.0059
 6896TIP3    H142247   2.014   1.144   0.131  0.4279 -0.7781 -0.2684
 6896TIP3    H242248   2.045   1.045   0.240  0.9631 -0.5657 -0.2261
 6897TIP3   OH242249   6.854   1.786   8.514 -0.2636  0.3995  0.0459
 6897TIP3    H142250   6.819   1.784   8.603  0.3775 -0.5232  0.2915
 6897TIP3    H242251   6.948   1.773   8.524 -0.2882 -0.5917 -0.8149
 6898TIP3   OH242252   5.937   6.288   7.528 -0.4182 -0.5567 -0.1286
 6898TIP3    H142253   5.877   6.228   7.571  0.5204 -0.9621  0.6591
 6898TIP3    H242254   5.974   6.341   7.599 -0.5212  0.3043 -0.7055
 6899TIP3   OH242255   2.210   1.576   1.971  0.3268  0.4340 -0.0430
 6899TIP3    H142256   2.160   1.495   1.956 -3.5138  2.2764  1.4316
 6899TIP3    H242257   2.217   1.616   1.884  1.7955 -1.1431 -0.7014
 6900TIP3   OH242258   1.224   2.608   7.290  0.2964  0.0757 -0.0122
 6900TIP3    H142259   1.181   2.689   7.263  2.4215  0.7348 -1.7414
 6900TIP3    H242260   1.195   2.543   7.226  0.7785  0.1924 -0.3569
 6901TIP3   OH242261   2.493   4.416   8.063  0.3195 -0.3234  0.7605
 6901TIP3    H142262   2.465   4.455   8.146 -0.0622  1.0332  0.0105
 6901TIP3    H242263   2.429   4.447   7.999  1.4535 -0.1345 -0.3149
 6902TIP3   OH242264   5.338   3.302   8.257  0.2018 -0.1288  0.2329
 6902TIP3    H142265   5.332   3.210   8.230  1.4850  0.0260 -0.6682
 6902TIP3    H242266   5.314   3.351   8.178 -0.2398  0.3245  0.6401
 6903TIP3   OH242267   2.524   4.185   0.883  0.1720 -0.4453 -0.2203
 6903TIP3    H142268   2.579   4.203   0.807 -1.5294  0.0875 -1.3801
 6903TIP3    H242269   2.507   4.271   0.921  1.2842 -0.7348  1.0051
 6904TIP3   OH242270   1.220   4.499   0.844 -0.5255 -0.5537  0.2682
 6904TIP3    H142271   1.200   4.560   0.774 -3.0517  1.4053  2.4729
 6904TIP3    H242272   1.143   4.442   0.850  0.0371 -1.2821  0.8559
 6905TIP3   OH242273   1.521   4.723   2.111  0.5808 -0.3936  0.2162
 6905TIP3    H142274   1.468   4.797   2.081 -0.3471  0.2193  3.0762
 6905TIP3    H242275   1.480   4.647   2.071 -0.2226  0.3907 -0.4976
 6906TIP3   OH242276   0.099   1.127   7.999 -0.5649 -0.2704  0.2145
 6906TIP3    H142277   0.039   1.183   8.048  0.4130 -0.1474  1.3156
 6906TIP3    H242278   0.096   1.043   8.044  2.2648  0.5535  2.1992
 6907TIP3   OH242279   4.106   3.117   1.403 -0.5286 -0.5002  0.2433
 6907TIP3    H142280   4.061   3.144   1.323 -0.7941 -0.2109  0.4925
 6907TIP3    H242281   4.098   3.191   1.462  1.8729  0.3317 -0.3306
 6908TIP3   OH242282   5.306   4.764   8.427  0.1910 -0.6273 -0.3363
 6908TIP3    H142283   5.355   4.779   8.507  2.3667 -2.3544 -1.2381
 6908TIP3    H242284   5.248   4.690   8.447  0.6970 -1.0250 -0.3214
 6909TIP3   OH242285   6.837   3.526   8.345 -0.3102 -0.4570  0.1175
 6909TIP3    H142286   6.888   3.518   8.265  1.9005  0.7007  1.3260
 6909TIP3    H242287   6.798   3.614   8.339  1.9046  0.6941  1.3395
 6910TIP3   OH242288   4.236   3.091   6.151 -0.7408  0.5608 -0.0933
 6910TIP3    H142289   4.295   3.016   6.144 -0.7062  0.4477  1.2599
 6910TIP3    H242290   4.154   3.059   6.113 -1.4874 -1.0355  2.5744
 6911TIP3   OH242291   4.797   4.446   7.719 -0.5485  0.2658  0.2122
 6911TIP3    H142292   4.738   4.477   7.788  0.3116 -0.8858  1.5300
 6911TIP3    H242293   4.873   4.412   7.766  0.5229  0.3704 -1.3752
 6912TIP3   OH242294   5.421   6.669   1.877  0.1723 -0.1662  0.7925
 6912TIP3    H142295   5.437   6.632   1.964  1.4694  1.1784  1.1659
 6912TIP3    H242296   5.330   6.698   1.880  0.0445 -0.6246  1.5163
 6913TIP3   OH242297   6.537   2.479   1.346 -0.1775  0.4599 -0.2514
 6913TIP3    H142298   6.569   2.497   1.258  0.7898  0.2368  0.0484
 6913TIP3    H242299   6.535   2.565   1.389  0.0111  0.4722 -0.2688
 6914TIP3   OH242300   1.974   3.985   2.097  0.2831 -0.0809 -0.5547
 6914TIP3    H142301   2.010   4.072   2.115 -0.6024  0.0555  0.7169
 6914TIP3    H242302   1.910   3.999   2.027  0.5020  0.2123 -0.6955
 6915TIP3   OH242303   1.753   4.027   0.845  0.5033  0.1375 -0.7924
 6915TIP3    H142304   1.793   4.114   0.847  0.8202 -0.0131 -0.4444
 6915TIP3    H242305   1.677   4.035   0.904  1.7575 -0.3981  0.9687
 6916TIP3   OH242306   1.957   1.791   8.344  0.1297 -0.0550 -0.1480
 6916TIP3    H142307   1.885   1.839   8.384 -1.9560 -2.6205 -0.5736
 6916TIP3    H242308   1.995   1.739   8.416 -0.7745 -1.3412 -0.5625
 6917TIP3   OH242309   0.427   6.351   0.505 -0.4433 -0.2052 -0.2719
 6917TIP3    H142310   0.426   6.276   0.563 -2.7487  0.3750  0.5292
 6917TIP3    H242311   0.510   6.395   0.524 -0.3449 -1.0013  1.2581
 6918TIP3   OH242312   2.976   2.585   0.152  0.0796 -0.0701 -0.5296
 6918TIP3    H142313   3.026   2.562   0.230 -1.8490 -0.7477  0.5726
 6918TIP3    H242314   2.901   2.634   0.185 -1.0232 -0.7677 -1.8906
 6919TIP3   OH242315   4.793   1.092   1.364  0.5892  0.0279  0.5136
 6919TIP3    H142316   4.873   1.060   1.322  1.2713  0.0108  1.7937
 6919TIP3    H242317   4.722   1.059   1.308  1.4685  0.3130 -0.8260
 6920TIP3   OH242318   3.493   4.823   0.700  0.0973  0.1791  0.1452
 6920TIP3    H142319   3.531   4.836   0.787 -0.5180  1.0803  0.2945
 6920TIP3    H242320   3.428   4.753   0.712  0.6710 -0.3466  0.2025
 6921TIP3   OH242321   3.910   0.497   7.929 -0.4512  0.2376  0.5843
 6921TIP3    H142322   3.878   0.416   7.889  0.6336 -0.4894  1.1467
 6921TIP3    H242323   3.981   0.525   7.871 -1.3361  1.2536 -0.0575
 6922TIP3   OH242324   0.454   3.147   8.319 -0.1504 -0.1452 -0.2585
 6922TIP3    H142325   0.413   3.093   8.251  3.4384  0.7615 -3.4660
 6922TIP3    H242326   0.447   3.237   8.287 -0.2531  0.6063  1.7157
 6923TIP3   OH242327   5.968   0.265   6.463 -0.2409 -0.0520  0.0635
 6923TIP3    H142328   5.914   0.287   6.538  0.4229 -0.8999  0.8066
 6923TIP3    H242329   6.058   0.286   6.490 -0.1898  1.7791 -1.3140
 6924TIP3   OH242330   0.571   0.431   0.063  0.1420  0.4844 -0.0340
 6924TIP3    H142331   0.638   0.424   0.130 -0.7414  0.4302  0.8766
 6924TIP3    H242332   0.619   0.446  -0.019  1.1934  1.4010  0.7294
 6925TIP3   OH242333   3.357   2.050   7.532 -1.0293  0.4979 -0.1643
 6925TIP3    H142334   3.323   2.103   7.605  0.2106 -0.2262  0.9935
 6925TIP3    H242335   3.348   1.960   7.563  0.1192  0.2095 -0.6425
 6926TIP3   OH242336   2.720   3.881   6.985 -0.3788 -0.3934  0.1437
 6926TIP3    H142337   2.739   3.967   6.947  0.0287  0.3062  1.8511
 6926TIP3    H242338   2.627   3.868   6.967  0.0171 -0.6075 -2.0158
 6927TIP3   OH242339   1.960   6.393   1.408  0.1293  0.0440  0.1648
 6927TIP3    H142340   1.875   6.370   1.372 -0.5336  2.3334  0.1082
 6927TIP3    H242341   1.970   6.339   1.486 -0.9636 -0.8752 -0.3160
 6928TIP3   OH242342   6.299   3.737   1.924  0.1302 -0.2841  0.3376
 6928TIP3    H142343   6.234   3.704   1.861  0.1204 -1.3144  0.8535
 6928TIP3    H242344   6.371   3.674   1.919  0.5289  0.1404  0.6878
 6929TIP3   OH242345   6.644   0.588   7.073  0.4613 -0.0198  0.2098
 6929TIP3    H142346   6.580   0.627   7.133  2.2695  1.4597  1.2959
 6929TIP3    H242347   6.640   0.494   7.091  1.1332  0.3893  2.9230
 6930TIP3   OH242348   2.156   0.885   7.559  0.3212 -0.1647 -0.0108
 6930TIP3    H142349   2.143   0.860   7.651 -2.5719 -1.2273 -0.6178
 6930TIP3    H242350   2.200   0.970   7.564 -0.9087  0.4196  2.4213
 6931TIP3   OH242351   3.766   1.693   8.322 -0.2404 -0.4878  0.0672
 6931TIP3    H142352   3.825   1.619   8.305 -0.0433 -0.0384 -1.4138
 6931TIP3    H242353   3.825   1.769   8.327 -0.6191 -0.0884 -1.0557
 6932TIP3   OH242354   2.630   4.077   1.109 -0.0163  0.3885  0.0457
 6932TIP3    H142355   2.611   4.113   1.023  1.3622  1.7785  0.2619
 6932TIP3    H242356   2.558   4.106   1.165  0.1457  1.2779 -0.1976
 6933TIP3   OH242357   5.798   1.448   7.084  0.5099  0.8199  0.0089
 6933TIP3    H142358   5.802   1.365   7.131  0.4262  2.6928  3.6684
 6933TIP3    H242359   5.704   1.464   7.074  0.4673  1.3238  1.0767
 6934TIP3   OH242360   2.565   6.320   2.341  0.0943 -0.3040  0.4219
 6934TIP3    H142361   2.616   6.239   2.337  1.2551  0.4373 -0.4987
 6934TIP3    H242362   2.561   6.350   2.250 -0.9537  0.3024  0.6502
 6935TIP3   OH242363   0.774   3.632   6.889  0.2253 -0.1856  0.1039
 6935TIP3    H142364   0.797   3.556   6.835  0.5955  0.2147 -0.3079
 6935TIP3    H242365   0.808   3.611   6.976  3.5998  1.0046 -0.7818
 6936TIP3   OH242366   2.134   5.295   7.577 -0.4123 -0.1402  0.1601
 6936TIP3    H142367   2.168   5.233   7.642 -0.4751  1.8827  2.2184
 6936TIP3    H242368   2.065   5.343   7.623 -0.6577  1.1910 -1.5081
 6937TIP3   OH242369   0.263   2.943   6.912  0.2469 -0.1853  0.4387
 6937TIP3    H142370   0.321   2.967   6.839  0.1762 -0.5647  0.2591
 6937TIP3    H242371   0.288   3.004   6.982  1.2105 -0.6586  0.5286
 6938TIP3   OH242372   6.635   5.683   8.540  0.4193 -0.2554 -0.4151
 6938TIP3    H142373   6.588   5.758   8.575  1.0006 -0.0594 -0.0469
 6938TIP3    H242374   6.626   5.615   8.607 -1.1201 -0.9417 -1.2546
 6939TIP3   OH242375   0.853   4.420   1.195  0.3951  0.0393  0.5471
 6939TIP3    H142376   0.935   4.455   1.159  0.2786  0.6584  0.8667
 6939TIP3    H242377   0.785   4.478   1.160  0.4852  2.4709  3.8686
 6940TIP3   OH242378   5.259   1.991   8.035  0.6349 -0.1824 -0.5849
 6940TIP3    H142379   5.350   2.014   8.018  0.6146  1.7994  1.5477
 6940TIP3    H242380   5.262   1.934   8.111  0.0682  0.2284 -0.2469
 6941TIP3   OH242381   5.600   5.409   7.713 -0.1391  0.1299  0.5138
 6941TIP3    H142382   5.552   5.391   7.632  0.9185  0.1363 -0.1350
 6941TIP3    H242383   5.636   5.496   7.700  2.0899 -0.8242 -0.0683
 6942TIP3   OH242384   0.555   5.566   6.296 -0.2341  0.3888 -0.0782
 6942TIP3    H142385   0.550   5.587   6.203 -2.1655 -0.8492 -0.3069
 6942TIP3    H242386   0.632   5.509   6.304 -0.1788  0.3340 -0.9571
 6943TIP3   OH242387   2.635   4.946   6.327  0.3819  0.3232 -0.3842
 6943TIP3    H142388   2.722   4.907   6.324  0.2277 -0.1353 -4.0828
 6943TIP3    H242389   2.643   5.028   6.277 -1.2004  0.4869 -0.4493
 6944TIP3   OH242390   5.248   2.119   7.411  0.2801 -0.0441  0.2876
 6944TIP3    H142391   5.269   2.201   7.457 -0.0286  0.3520 -0.2698
 6944TIP3    H242392   5.155   2.106   7.426  0.9573 -2.3472  3.6257
 6945TIP3   OH242393   3.843   5.410   1.295 -0.2410 -0.2533  0.2768
 6945TIP3    H142394   3.884   5.489   1.262 -0.7047  0.1461  0.6474
 6945TIP3    H242395   3.916   5.350   1.311  0.2371  0.5579  1.2237
 6946TIP3   OH242396   0.817   2.794   1.903 -0.0544 -0.5483 -0.2782
 6946TIP3    H142397   0.851   2.750   1.825 -2.0621 -1.0667 -0.9235
 6946TIP3    H242398   0.731   2.756   1.916  0.3404 -0.6956  2.4205
 6947TIP3   OH242399   5.663   0.287   7.441  0.4785  0.1887 -0.2239
 6947TIP3    H142400   5.664   0.193   7.423  1.8475 -0.4842  2.6905
 6947TIP3    H242401   5.746   0.318   7.406  0.9475 -0.1390  0.5588
 6948TIP3   OH242402   1.339   0.962   0.672 -0.3627  0.3013 -0.2226
 6948TIP3    H142403   1.285   1.025   0.721 -2.3865 -0.6703 -1.0979
 6948TIP3    H242404   1.291   0.879   0.680  0.1939 -0.2642 -2.3241
 6949TIP3   OH242405   5.517   4.654   6.845  0.2761  0.7097 -0.4061
 6949TIP3    H142406   5.427   4.686   6.840 -1.2859 -2.5681  2.1226
 6949TIP3    H242407   5.556   4.702   6.918 -1.2272 -1.1252  1.7604
 6950TIP3   OH242408   6.389   2.337   6.232 -0.0574  0.4223 -0.0016
 6950TIP3    H142409   6.407   2.413   6.177 -0.0366  1.5417  1.4668
 6950TIP3    H242410   6.294   2.324   6.225 -0.2926  1.5364  0.8709
 6951TIP3   OH242411   5.459   5.331   7.985  0.0507 -0.0437  0.2409
 6951TIP3    H142412   5.450   5.334   7.889  0.5440 -1.1692  0.1413
 6951TIP3    H242413   5.553   5.340   8.000  0.2253 -1.8651  0.4811
 6952TIP3   OH242414   1.742   5.405   6.890  0.1565 -0.4267  0.9017
 6952TIP3    H142415   1.715   5.419   6.799 -2.2498  1.6539  1.8119
 6952TIP3    H242416   1.753   5.310   6.897 -2.0605 -0.9208 -0.9574
 6953TIP3   OH242417   6.873   2.519   7.077 -0.3759  0.2770  0.7482
 6953TIP3    H142418   6.954   2.570   7.079 -0.8912  1.1810 -0.2570
 6953TIP3    H242419   6.891   2.443   7.132  1.6244 -0.2259 -0.5016
 6954TIP3   OH242420   4.043   2.198   0.953  0.1564 -0.7000  0.1605
 6954TIP3    H142421   4.051   2.136   1.025  0.6922 -0.8576 -0.0268
 6954TIP3    H242422   4.104   2.269   0.975 -0.0592 -0.4989  0.1148
 6955TIP3   OH242423   0.651   6.279   0.241  0.1032  0.4697 -0.3777
 6955TIP3    H142424   0.562   6.243   0.241 -0.1434  1.0150  0.8526
 6955TIP3    H242425   0.703   6.214   0.289  0.2943  0.3197 -0.7883
 6956TIP3   OH242426   1.337   0.389   8.389  0.1803  0.2779 -0.2118
 6956TIP3    H142427   1.333   0.483   8.406 -1.2183  0.3852 -0.9746
 6956TIP3    H242428   1.247   0.365   8.366  0.6512 -1.1240 -0.6980
 6957TIP3   OH242429   5.230   3.226   1.331 -0.4700 -0.2308 -0.9294
 6957TIP3    H142430   5.264   3.301   1.282  0.4149 -1.1487 -1.7665
 6957TIP3    H242431   5.135   3.233   1.322 -0.5405  1.8622  0.6514
 6958TIP3   OH242432   1.227   1.396   6.816  0.4309  0.5489  0.2477
 6958TIP3    H142433   1.279   1.322   6.786 -0.4199 -0.4603  1.1922
 6958TIP3    H242434   1.210   1.378   6.909 -0.4221  1.5512  0.3105
 6959TIP3   OH242435   0.866   5.728   6.614 -0.1776  0.7923  0.0692
 6959TIP3    H142436   0.792   5.746   6.555 -1.6900  0.1545  1.6822
 6959TIP3    H242437   0.827   5.730   6.701  2.0811  2.1501  1.1139
 6960TIP3   OH242438   1.511   4.523   7.002  0.3937  0.1034 -0.4667
 6960TIP3    H142439   1.542   4.592   6.943 -0.8180  1.1344  0.0647
 6960TIP3    H242440   1.495   4.448   6.945  1.6704  0.2646 -1.0625
 6961TIP3   OH242441   6.788   6.319   1.534 -0.3995 -0.0314  0.0094
 6961TIP3    H142442   6.728   6.315   1.459  0.0244  0.0985 -0.3435
 6961TIP3    H242443   6.737   6.285   1.607 -1.0304  0.4293 -0.2031
 6962TIP3   OH242444   3.881   3.678   0.694 -0.0286  0.2494 -0.2784
 6962TIP3    H142445   3.871   3.759   0.742  1.4987  0.2259  0.1494
 6962TIP3    H242446   3.921   3.618   0.756  0.0725 -0.4211 -0.9726
 6963TIP3   OH242447   6.791   3.555   7.053  0.2156 -0.0512 -0.4813
 6963TIP3    H142448   6.791   3.469   7.011  0.4822  0.2689 -1.1643
 6963TIP3    H242449   6.804   3.617   6.980 -1.4502  0.6725 -0.2072
 6964TIP3   OH242450   1.370   5.685   0.904  1.0880  0.1116  0.4715
 6964TIP3    H142451   1.359   5.623   0.833  0.1957 -1.3302  1.8126
 6964TIP3    H242452   1.337   5.640   0.982  2.4579  1.4319  1.9069
 6965TIP3   OH242453   6.533   4.132   8.088 -0.0388 -0.3040 -0.4207
 6965TIP3    H142454   6.527   4.207   8.147 -3.4341 -1.0172  0.3177
 6965TIP3    H242455   6.626   4.129   8.063  0.5204  3.1718  0.6960
 6966TIP3   OH242456   2.776   0.765   0.545  0.1165  0.2808 -0.4146
 6966TIP3    H142457   2.872   0.763   0.538  0.1585 -0.0419  0.1881
 6966TIP3    H242458   2.759   0.807   0.630 -0.2819  0.6497 -0.6764
 6967TIP3   OH242459   1.822   4.785   0.352  0.5561  0.0738 -0.4584
 6967TIP3    H142460   1.743   4.734   0.334 -0.0972  0.9666 -0.2060
 6967TIP3    H242461   1.870   4.732   0.416  0.2945 -0.5977 -0.8039
 6968TIP3   OH242462   0.125   3.059   1.454  0.1802  0.0989 -0.2308
 6968TIP3    H142463   0.064   3.133   1.450 -1.5320 -1.1317  1.4779
 6968TIP3    H242464   0.125   3.032   1.546 -0.1189 -2.6965 -0.9509
 6969TIP3   OH242465   6.569   4.001   7.236 -0.1497  0.4717 -0.2119
 6969TIP3    H142466   6.656   4.000   7.276 -0.0262  0.9952 -0.4564
 6969TIP3    H242467   6.583   3.976   7.145 -0.2723  0.4247 -0.2184
 6970TIP3   OH242468   0.328   1.382   8.140  0.4902  0.5830  0.5164
 6970TIP3    H142469   0.405   1.326   8.138  0.2564  0.2002  1.5383
 6970TIP3    H242470   0.299   1.387   8.049  0.3340 -1.2069  0.4334
 6971TIP3   OH242471   2.218   6.120   8.264  0.1216  0.1988  0.4777
 6971TIP3    H142472   2.160   6.189   8.234 -2.6566 -1.9321  0.5231
 6971TIP3    H242473   2.263   6.090   8.185  0.4489  1.2027  0.2664
 6972TIP3   OH242474   0.830   0.311   6.190  0.4075 -0.1121 -0.5597
 6972TIP3    H142475   0.766   0.344   6.128 -0.4218 -2.6185 -1.1566
 6972TIP3    H242476   0.801   0.221   6.210  2.5331 -0.5820  0.8250
 6973TIP3   OH242477   4.272   5.427   1.405 -0.6916 -0.2507 -0.4226
 6973TIP3    H142478   4.296   5.510   1.363  0.3847 -1.8363 -3.2471
 6973TIP3    H242479   4.277   5.363   1.334 -1.9403 -2.6759  1.5498
 6974TIP3   OH242480   0.999   4.474   6.510 -0.2944  0.2500  0.6588
 6974TIP3    H142481   1.038   4.535   6.447  0.4872  1.4316  2.2166
 6974TIP3    H242482   1.057   4.398   6.508 -0.4127  0.1773 -0.2179
 6975TIP3   OH242483   5.682   4.419   6.790 -0.2064 -0.1782 -0.0076
 6975TIP3    H142484   5.681   4.443   6.697 -1.9467  0.3339  0.1082
 6975TIP3    H242485   5.751   4.473   6.828  0.5446 -0.4187 -1.0021
 6976TIP3   OH242486   2.809   5.525   1.865  0.1450  0.1453 -0.5336
 6976TIP3    H142487   2.903   5.535   1.854  0.4711 -0.3738  1.3853
 6976TIP3    H242488   2.799   5.442   1.913 -1.3099  0.0551 -0.9316
 6977TIP3   OH242489   2.687   3.086   7.021 -0.0701 -0.5543 -0.6465
 6977TIP3    H142490   2.694   3.081   6.926 -0.4520  1.4640 -0.8258
 6977TIP3    H242491   2.600   3.050   7.041 -0.9842  1.1887 -1.3284
 6978TIP3   OH242492   4.615   0.563   7.432  0.2969  0.3002  0.1364
 6978TIP3    H142493   4.604   0.639   7.489  0.1172  1.0594 -0.8737
 6978TIP3    H242494   4.557   0.580   7.358  1.2501 -0.1734 -0.7541
 6979TIP3   OH242495   4.638   1.368   0.789  0.4507  0.2976  0.0789
 6979TIP3    H142496   4.593   1.429   0.848 -0.0095 -0.3132  0.3710
 6979TIP3    H242497   4.716   1.342   0.837  0.4318  0.3363  0.1317
 6980TIP3   OH242498   0.652   1.254   8.132  0.6395  0.0772  0.2565
 6980TIP3    H142499   0.677   1.253   8.225 -0.3042 -0.7403  0.5188
 6980TIP3    H242500   0.678   1.168   8.099 -0.3791 -0.2022  0.1512
 6981TIP3   OH242501   3.721   6.637   8.287  0.3355  0.2792 -0.2019
 6981TIP3    H142502   3.638   6.658   8.244 -0.5098 -0.2610  1.1205
 6981TIP3    H242503   3.787   6.683   8.234 -0.9977  2.7076  0.0605
 6982TIP3   OH242504   6.571   1.101   5.506  0.1801 -0.2879 -0.8735
 6982TIP3    H142505   6.615   1.119   5.589 -2.1154 -1.2754  0.6693
 6982TIP3    H242506   6.494   1.157   5.506 -1.1328 -1.9929 -1.1582
 6983TIP3   OH242507   3.342   5.123   8.434  0.0179 -0.2655  0.4522
 6983TIP3    H142508   3.250   5.098   8.435  0.5571 -2.6042 -1.0694
 6983TIP3    H242509   3.389   5.041   8.449  1.8790  0.7273  0.3105
 6984TIP3   OH242510   4.059   0.151   2.310 -0.2373 -0.5249  0.3732
 6984TIP3    H142511   4.060   0.098   2.230 -1.1219  0.5365 -0.3649
 6984TIP3    H242512   4.122   0.108   2.367 -0.0690 -1.6940 -0.6417
 6985TIP3   OH242513   0.242   3.710   7.479  0.2590 -0.2990  0.3550
 6985TIP3    H142514   0.172   3.663   7.432  0.5422 -0.1944 -0.1771
 6985TIP3    H242515   0.247   3.795   7.436  1.1318 -0.5284 -0.0331
 6986TIP3   OH242516   6.137   0.006   6.736  0.3764 -0.0562  0.4850
 6986TIP3    H142517   6.226  -0.028   6.731  0.1653 -0.5922  0.3619
 6986TIP3    H242518   6.085  -0.067   6.768 -0.0024  0.2889  0.6612
 6987TIP3   OH242519   4.656   3.983   6.786 -0.6766  0.5943 -0.3755
 6987TIP3    H142520   4.600   4.051   6.748 -0.7604  0.6288 -0.1896
 6987TIP3    H242521   4.596   3.919   6.823 -0.5926  0.9128  0.3184
 6988TIP3   OH242522   5.186   6.535   8.472  0.2736  0.2050 -0.3369
 6988TIP3    H142523   5.103   6.501   8.437  1.1411 -1.7204 -0.6382
 6988TIP3    H242524   5.178   6.630   8.462 -2.7333  0.3029  1.5487
 6989TIP3   OH242525   0.821   5.741   1.376  0.4757 -0.4965 -1.2410
 6989TIP3    H142526   0.812   5.761   1.283 -1.9533 -0.4495 -1.0532
 6989TIP3    H242527   0.820   5.827   1.419 -2.1440 -0.6061 -0.9665
 6990TIP3   OH242528   4.882   3.462   8.565 -0.3702 -0.0282  0.9663
 6990TIP3    H142529   4.962   3.424   8.529  0.6794 -0.0989  3.2276
 6990TIP3    H242530   4.858   3.530   8.502  0.4146 -1.2082 -0.6795
 6991TIP3   OH242531   2.695   6.108   1.617  0.4941 -0.5881 -0.5892
 6991TIP3    H142532   2.694   6.201   1.639  0.2389 -0.6816 -0.1845
 6991TIP3    H242533   2.787   6.086   1.605  0.4458  0.1285 -2.5084
 6992TIP3   OH242534   6.655   3.819   8.097 -0.3427  0.4047  0.1901
 6992TIP3    H142535   6.573   3.843   8.140 -0.1613  0.7681  0.3382
 6992TIP3    H242536   6.657   3.724   8.101 -2.0020  0.1946 -2.1185
 6993TIP3   OH242537   2.773   0.939   8.090 -0.1999 -0.1443  0.3911
 6993TIP3    H142538   2.718   0.863   8.107  0.5870 -0.7667  0.2121
 6993TIP3    H242539   2.857   0.902   8.062 -0.3412  0.7958 -1.4200
 6994TIP3   OH242540   5.438   4.129   1.624 -0.4458 -0.1994 -0.0271
 6994TIP3    H142541   5.433   4.127   1.720  0.2963 -1.1707  0.0085
 6994TIP3    H242542   5.372   4.065   1.596  0.8612 -1.5830 -0.0656
 6995TIP3   OH242543   0.900   2.231   0.981  0.1395  0.0179  0.4243
 6995TIP3    H142544   0.869   2.186   1.059  1.5448 -1.1561  0.3544
 6995TIP3    H242545   0.944   2.163   0.930 -1.9757  0.3874 -2.1434
 6996TIP3   OH242546   1.045   3.356   6.466  0.0368  0.4363  0.1069
 6996TIP3    H142547   1.084   3.269   6.458  0.8411  0.5072  2.4401
 6996TIP3    H242548   1.119   3.414   6.481 -0.7206  0.9439  2.1941
 6997TIP3   OH242549   5.975   6.550   5.897  0.4252 -0.1640 -0.2169
 6997TIP3    H142550   6.028   6.626   5.873  0.3993 -0.4433 -1.1987
 6997TIP3    H242551   5.954   6.564   5.989 -1.4640  2.1610 -0.9114
 6998TIP3   OH242552   4.827   3.027   0.853 -0.5147  0.3381  0.2855
 6998TIP3    H142553   4.781   3.076   0.784  0.4354  0.1989 -0.4748
 6998TIP3    H242554   4.788   2.940   0.851 -0.6607  0.4075  0.0839
 6999TIP3   OH242555   2.255   3.746   7.067 -0.0454  0.2364  0.4307
 6999TIP3    H142556   2.250   3.671   7.009  1.3096  1.3758 -1.2528
 6999TIP3    H242557   2.175   3.796   7.049 -0.9432 -0.7379  1.5462
 7000TIP3   OH242558   6.564   1.563   0.657 -0.2513 -0.0169 -0.2291
 7000TIP3    H142559   6.594   1.600   0.739 -1.7192  1.6662 -0.3803
 7000TIP3    H242560   6.468   1.564   0.663 -0.3899 -2.2470 -0.9684
 7001TIP3   OH242561   4.861   6.845   1.520  0.7609  0.1505  0.2782
 7001TIP3    H142562   4.795   6.899   1.477 -0.3610  0.1193  1.8347
 7001TIP3    H242563   4.907   6.801   1.449  0.5708  1.8419 -0.9461
 7002TIP3   OH242564   4.484   4.175   6.709  0.5040 -0.0749  0.6743
 7002TIP3    H142565   4.548   4.241   6.734  0.0654  0.6582 -0.1031
 7002TIP3    H242566   4.421   4.176   6.782 -2.8736  4.7502 -1.7550
 7003TIP3   OH242567   5.362   3.539   8.446  0.9037 -0.0473 -0.0613
 7003TIP3    H142568   5.338   3.495   8.528 -0.2286 -0.7680 -0.7541
 7003TIP3    H242569   5.340   3.476   8.378  2.1547  0.4120 -0.9170
 7004TIP3   OH242570   6.600   4.403   1.392 -0.6446 -0.1072 -0.4182
 7004TIP3    H142571   6.662   4.355   1.447 -2.7655 -2.5494  0.0422
 7004TIP3    H242572   6.568   4.339   1.329 -2.4355  1.1069 -0.8482
 7005TIP3   OH242573   3.746   4.245   7.996  0.3253 -0.2605  0.0435
 7005TIP3    H142574   3.746   4.226   8.090 -0.5494 -2.5762 -0.3696
 7005TIP3    H242575   3.837   4.268   7.976  0.1845  2.2120  1.7363
 7006TIP3   OH242576   2.416   0.830   0.837  0.0332  0.3437 -0.3475
 7006TIP3    H142577   2.446   0.744   0.865  3.7830  1.8973  1.1154
 7006TIP3    H242578   2.361   0.862   0.909 -0.6061 -0.4368 -0.4835
 7007TIP3   OH242579   5.472   1.285   0.423  0.2502  0.3068 -0.3771
 7007TIP3    H142580   5.391   1.299   0.474 -1.1577 -1.0498 -2.1324
 7007TIP3    H242581   5.518   1.369   0.429 -1.6728  1.4050  0.0317
 7008TIP3   OH242582   4.440   5.686   8.500 -0.5947 -0.3263  0.2895
 7008TIP3    H142583   4.361   5.720   8.543  1.9937  2.8771  3.1503
 7008TIP3    H242584   4.444   5.733   8.417 -1.2819  0.1347  0.5027
 7009TIP3   OH242585   6.875   4.161   7.483 -0.1924 -0.0100 -0.3129
 7009TIP3    H142586   6.800   4.141   7.540 -0.3788 -2.1244 -1.1992
 7009TIP3    H242587   6.845   4.136   7.395  1.2645 -0.0777 -0.8111
 7010TIP3   OH242588   3.712   6.136   0.863 -0.5051  0.4663 -0.2939
 7010TIP3    H142589   3.757   6.175   0.938  1.4019 -0.1396 -1.0657
 7010TIP3    H242590   3.643   6.199   0.841 -0.1461  1.3618  1.0415
 7011TIP3   OH242591   3.906   3.484   7.632 -0.5992  0.3540 -0.7321
 7011TIP3    H142592   3.987   3.438   7.657 -1.4486 -0.7988 -0.0402
 7011TIP3    H242593   3.902   3.559   7.691 -0.7401 -0.3560  0.1702
 7012TIP3   OH242594   2.514   3.313   0.084 -0.1950 -0.6875  0.0463
 7012TIP3    H142595   2.503   3.310  -0.011 -1.7338 -1.4994  0.2136
 7012TIP3    H242596   2.609   3.318   0.097  0.0134  0.0047 -1.5307
 7013TIP3   OH242597   0.575   6.495   8.238 -0.0789  0.1501 -0.4670
 7013TIP3    H142598   0.490   6.463   8.266 -0.2201  0.3903 -0.6236
 7013TIP3    H242599   0.570   6.590   8.245  0.4770  0.1285  0.3839
 7014TIP3   OH242600   1.931   3.810   7.458  0.1298  0.0737  0.6834
 7014TIP3    H142601   2.004   3.869   7.478  0.0617  0.0527  1.0030
 7014TIP3    H242602   1.973   3.731   7.422  0.2509  0.1414  0.6766
 7015TIP3   OH242603   6.524   5.700   1.076  0.2032 -0.1620 -0.5905
 7015TIP3    H142604   6.592   5.648   1.119  1.1671  1.1599 -0.4509
 7015TIP3    H242605   6.571   5.775   1.039 -0.9616 -0.0438 -1.8831
 7016TIP3   OH242606   6.056   5.028   2.137 -0.7634 -0.3759  0.6711
 7016TIP3    H142607   6.014   5.080   2.069  2.0810  0.2755 -0.7842
 7016TIP3    H242608   6.055   5.084   2.215 -1.1817  0.2567  0.2160
 7017TIP3   OH242609   4.619   2.421   6.905  0.2251 -0.0758 -0.3169
 7017TIP3    H142610   4.599   2.504   6.948  1.1406 -0.5735  1.1455
 7017TIP3    H242611   4.541   2.401   6.854 -0.2435  1.3819 -0.2142
 7018TIP3   OH242612   1.634   3.656   0.659 -0.2349  0.4788  0.1088
 7018TIP3    H142613   1.659   3.575   0.703 -1.4598  0.4179  0.7365
 7018TIP3    H242614   1.688   3.723   0.700 -0.1451  0.1679  0.5030
 7019TIP3   OH242615   4.300   2.710   8.505 -0.1257 -0.3185  0.0296
 7019TIP3    H142616   4.377   2.714   8.449  0.2342 -0.5800  0.4944
 7019TIP3    H242617   4.227   2.696   8.445  0.1629  0.1366 -0.4323
 7020TIP3   OH242618   3.565   2.260   0.849 -0.0374 -0.2017 -0.9245
 7020TIP3    H142619   3.654   2.294   0.853 -0.1612  0.0744 -0.4625
 7020TIP3    H242620   3.509   2.335   0.870 -0.4130 -0.2358 -1.7416
 7021TIP3   OH242621   5.729   4.576   0.934  0.2608  0.2712  0.1854
 7021TIP3    H142622   5.806   4.608   0.981 -1.0492  1.4923  1.5919
 7021TIP3    H242623   5.743   4.602   0.844  1.8938 -0.3266  0.2246
 7022TIP3   OH242624   2.758   3.403   1.062 -0.0887  0.3532 -0.1208
 7022TIP3    H142625   2.791   3.482   1.106  0.5891 -1.1975  2.3801
 7022TIP3    H242626   2.770   3.334   1.127 -2.1335 -1.5384 -1.6377
 7023TIP3   OH242627   5.984   3.042   0.495 -0.1505  0.4162  0.7668
 7023TIP3    H142628   6.035   3.039   0.576  0.3509  2.5624  0.6031
 7023TIP3    H242629   6.045   3.077   0.430 -1.5315  2.1700  0.3454
 7024TIP3   OH242630   0.289   2.211   6.634 -0.0803 -0.0770 -0.2010
 7024TIP3    H142631   0.243   2.133   6.604 -0.4967  0.5949 -1.3710
 7024TIP3    H242632   0.221   2.279   6.639  0.6194  0.7295 -1.1968
 7025TIP3   OH242633   3.890   1.612   0.441 -0.0600  0.1699 -0.1288
 7025TIP3    H142634   3.919   1.554   0.512 -0.6632  1.0757  0.8928
 7025TIP3    H242635   3.938   1.693   0.455 -2.2630  1.3839  1.0403
 7026TIP3   OH242636   2.529   3.638   6.969  0.3967  0.2653  0.6104
 7026TIP3    H142637   2.478   3.718   6.956  1.0215  0.5267 -0.3263
 7026TIP3    H242638   2.587   3.634   6.893  0.8990 -0.6835  1.0298
 7027TIP3   OH242639   4.617   1.326   6.790  0.6949 -0.0405  0.2521
 7027TIP3    H142640   4.547   1.266   6.815  0.6664  0.6022  1.8153
 7027TIP3    H242641   4.692   1.299   6.842  1.0854  0.3971 -0.0730
 7028TIP3   OH242642   0.478   4.571   0.813  0.3010  0.0289  0.2299
 7028TIP3    H142643   0.440   4.501   0.760 -1.1083  0.4774  0.5861
 7028TIP3    H242644   0.475   4.648   0.757  3.2777 -0.4319 -0.7261
 7029TIP3   OH242645   0.657   1.738   7.982 -0.1509 -0.2353 -0.5431
 7029TIP3    H142646   0.738   1.755   7.933  1.5802 -1.5750  1.6313
 7029TIP3    H242647   0.655   1.642   7.992 -2.3154 -0.2846 -0.9550
 7030TIP3   OH242648   5.108   4.950   1.432 -0.1740  0.0843 -0.3898
 7030TIP3    H142649   5.186   4.913   1.473  0.5186  0.6048 -1.1956
 7030TIP3    H242650   5.103   5.040   1.465 -1.5377 -0.5191  1.1384
 7031TIP3   OH242651   3.571   4.397   6.617  0.3163 -0.5726 -0.2272
 7031TIP3    H142652   3.604   4.317   6.576  1.3292 -0.4291  0.2979
 7031TIP3    H242653   3.530   4.368   6.698  0.6927 -0.5522 -0.0318
 7032TIP3   OH242654   5.461   2.170   0.135  0.0843 -0.0425 -0.0327
 7032TIP3    H142655   5.464   2.096   0.075  3.1425 -0.7633  0.8130
 7032TIP3    H242656   5.368   2.189   0.146 -0.6749 -1.8466 -2.5372
 7033TIP3   OH242657   0.578   0.806   6.794 -0.1052 -0.0112  0.1980
 7033TIP3    H142658   0.638   0.736   6.821  1.5897  1.3571  0.1358
 7033TIP3    H242659   0.624   0.852   6.724 -1.3844  0.8914 -0.0895
 7034TIP3   OH242660   2.478   1.917   8.265 -0.0784 -0.2422 -0.1386
 7034TIP3    H142661   2.391   1.877   8.271  0.0682 -0.4695  0.5821
 7034TIP3    H242662   2.515   1.906   8.352  0.9176 -0.7012 -0.6073
 7035TIP3   OH242663   0.178   4.024   0.456 -0.1089  0.3543  0.3029
 7035TIP3    H142664   0.238   4.097   0.438  0.5438  0.0608  1.2026
 7035TIP3    H242665   0.217   3.979   0.531 -1.4534  0.1243  0.8866
 7036TIP3   OH242666   0.727   4.234   0.977 -0.2870  0.1024  0.2204
 7036TIP3    H142667   0.711   4.308   1.035  1.7992  1.0824 -0.3483
 7036TIP3    H242668   0.684   4.257   0.895 -1.1553 -0.1531  0.5988
 7037TIP3   OH242669   4.329   2.438   2.553  0.2329  0.0599 -0.0948
 7037TIP3    H142670   4.371   2.517   2.587 -0.6378  0.8432 -0.7971
 7037TIP3    H242671   4.391   2.403   2.490 -0.4478  1.6564 -1.7299
 7038TIP3   OH242672   0.998   1.658   8.498 -0.0820 -0.4527 -0.4039
 7038TIP3    H142673   1.068   1.615   8.448 -2.4256 -1.9075 -2.6847
 7038TIP3    H242674   0.943   1.699   8.431 -1.9137 -0.1100  1.2436
 7039TIP3   OH242675   3.797   5.909   1.757 -0.3494 -0.3459 -0.3557
 7039TIP3    H142676   3.837   5.950   1.834 -1.3812 -0.4717  0.2609
 7039TIP3    H242677   3.789   5.981   1.694  0.8507 -0.3191 -0.5141
 7040TIP3   OH242678   5.627   3.811   7.980 -0.0211  0.1206  0.2110
 7040TIP3    H142679   5.705   3.824   8.034 -0.2585  0.6262  0.4367
 7040TIP3    H242680   5.560   3.864   8.022 -0.1296  0.7658 -0.7582
 7041TIP3   OH242681   3.876   5.919   1.161  0.1138 -0.5392 -0.0722
 7041TIP3    H142682   3.788   5.912   1.198 -1.1168  1.6092 -2.3185
 7041TIP3    H242683   3.901   6.010   1.175  1.6043 -0.8749 -0.3293
 7042TIP3   OH242684   4.824   0.403   7.520 -0.2979 -0.4712  0.2229
 7042TIP3    H142685   4.752   0.447   7.475 -2.0453 -1.7024  1.6669
 7042TIP3    H242686   4.816   0.312   7.491  0.7764 -0.5990  0.3130
 7043TIP3   OH242687   6.863   0.891   6.702 -0.1921  0.4182 -0.0530
 7043TIP3    H142688   6.795   0.887   6.636 -0.0571  1.2921 -0.2604
 7043TIP3    H242689   6.938   0.847   6.663 -0.1412  0.8555 -0.4561
 7044TIP3   OH242690   6.282   0.353   1.692 -0.6741 -0.4023  0.3768
 7044TIP3    H142691   6.310   0.334   1.782 -0.0750  1.4091  0.6030
 7044TIP3    H242692   6.198   0.308   1.684  0.2039 -2.2946  1.1483
 7045TIP3   OH242693   2.289   1.111   7.485  0.5254 -0.2818 -0.9175
 7045TIP3    H142694   2.232   1.129   7.410 -1.0523  0.9655  0.4963
 7045TIP3    H242695   2.302   1.197   7.526  0.3317 -1.0817  0.8998
 7046TIP3   OH242696   2.443   0.073   7.729 -0.2990  0.1194  0.1784
 7046TIP3    H142697   2.522   0.020   7.730 -0.1855  0.2375 -1.2093
 7046TIP3    H242698   2.373   0.013   7.753  0.1953  0.0215  1.4568
 7047TIP3   OH242699   6.682   5.840   7.262 -0.6469  0.6067  1.1940
 7047TIP3    H142700   6.652   5.922   7.300 -0.2254  1.8001 -0.8940
 7047TIP3    H242701   6.764   5.862   7.218 -1.4673 -0.4522 -1.0362
 7048TIP3   OH242702   0.183   4.140   0.135 -0.2140  0.4306 -0.4853
 7048TIP3    H142703   0.178   4.045   0.125  2.0479  0.4463 -2.8395
 7048TIP3    H242704   0.232   4.153   0.217  0.2614 -0.4804 -0.6088
 7049TIP3   OH242705   6.356   2.206   8.430 -0.2478  0.1585  0.1347
 7049TIP3    H142706   6.341   2.265   8.356  0.5585  2.0854  1.4201
 7049TIP3    H242707   6.449   2.216   8.450 -0.1085 -1.5347  0.4338
 7050TIP3   OH242708   2.273   4.320   0.072  0.1956 -0.3294  0.3288
 7050TIP3    H142709   2.194   4.362   0.039  0.7931  0.1502 -0.5177
 7050TIP3    H242710   2.241   4.251   0.131 -0.9446 -1.6210 -1.6986
 7051TIP3   OH242711   2.459   0.008   0.082 -0.4693  0.0461 -0.4233
 7051TIP3    H142712   2.364   0.021   0.084 -0.3090  1.4994 -0.7785
 7051TIP3    H242713   2.477  -0.022  -0.006 -0.6726 -0.9592 -0.1282
 7052TIP3   OH242714   2.899   6.003   2.078 -0.3822  0.5730 -0.7084
 7052TIP3    H142715   2.936   6.033   2.161 -0.7763  1.2843 -0.7807
 7052TIP3    H242716   2.927   5.912   2.071  0.5220  0.8091 -0.2931
 7053TIP3   OH242717   5.007   6.386   0.299 -0.0609 -0.2847 -0.0134
 7053TIP3    H142718   4.965   6.303   0.274 -0.4548  0.6032 -2.5880
 7053TIP3    H242719   5.100   6.369   0.288 -0.0646 -0.6811  0.5079
 7054TIP3   OH242720   6.222   2.005   8.290  0.6788 -0.4024  0.0676
 7054TIP3    H142721   6.152   2.070   8.282 -0.0007 -1.0817  0.4202
 7054TIP3    H242722   6.282   2.043   8.355 -0.4560 -0.7510  1.3722
 7055TIP3   OH242723   2.739   2.873   7.853  0.4230 -0.3621 -0.2763
 7055TIP3    H142724   2.774   2.929   7.922  2.2298 -1.8834  0.1230
 7055TIP3    H242725   2.811   2.815   7.830 -1.3980 -2.7009 -0.4833
 7056TIP3   OH242726   3.214   2.244   0.297 -0.1010  0.0906 -0.0528
 7056TIP3    H142727   3.142   2.296   0.333 -0.2134 -0.5134  0.6243
 7056TIP3    H242728   3.209   2.161   0.343  0.6580 -0.1841 -0.4397
 7057TIP3   OH242729   3.488   1.826   6.630  0.8223  0.0396 -0.5422
 7057TIP3    H142730   3.506   1.735   6.607 -0.1844 -0.1798 -0.5050
 7057TIP3    H242731   3.558   1.849   6.692 -0.5787 -1.6724  1.8365
 7058TIP3   OH242732   5.767   6.561   1.070  0.0908 -0.2590  0.0149
 7058TIP3    H142733   5.736   6.473   1.091  1.9654 -1.0624 -0.3495
 7058TIP3    H242734   5.703   6.620   1.110 -1.0214 -1.7781  0.5527
 7059TIP3   OH242735   0.483   4.768   1.532  0.3046  1.0672 -0.3245
 7059TIP3    H142736   0.426   4.730   1.465 -0.2186  0.3834  0.4939
 7059TIP3    H242737   0.428   4.774   1.610  1.3822  0.2892  0.5157
 7060TIP3   OH242738   6.420   2.974   0.809 -0.4140  0.0657  0.2758
 7060TIP3    H142739   6.410   3.002   0.901 -0.2930 -1.2833  0.7159
 7060TIP3    H242740   6.505   3.010   0.783  0.5258 -1.2445  1.3700
 7061TIP3   OH242741   2.628   2.789   7.282 -0.1056 -0.5293  0.7444
 7061TIP3    H142742   2.628   2.695   7.266  0.2830 -0.5478  0.8388
 7061TIP3    H242743   2.602   2.799   7.373 -3.2751 -0.3765 -0.0588
 7062TIP3   OH242744   2.006   6.265   0.284  0.1445  0.3081  0.3613
 7062TIP3    H142745   1.958   6.313   0.351 -0.4307  0.5169 -0.1809
 7062TIP3    H242746   1.974   6.301   0.201  1.2545  0.4505 -0.0193
 7063TIP3   OH242747   0.317   5.229   6.833 -0.0442 -0.5256  0.2320
 7063TIP3    H142748   0.409   5.203   6.832 -0.2396 -1.3004 -1.0836
 7063TIP3    H242749   0.269   5.147   6.819 -0.8769  0.0055 -0.1459
 7064TIP3   OH242750   4.019   0.958   1.031  0.8203  0.1774  0.3586
 7064TIP3    H142751   3.950   0.892   1.026  0.8510  0.0714  1.1840
 7064TIP3    H242752   4.005   1.014   0.954 -0.8180  0.7659  1.0335
 7065TIP3   OH242753   0.805   1.938   1.027  0.1062  0.2488  0.1716
 7065TIP3    H142754   0.835   1.969   1.113  1.4872 -0.6384  0.0446
 7065TIP3    H242755   0.712   1.923   1.039  0.6909 -2.5559  2.4356
 7066TIP3   OH242756   2.517   1.141   8.224 -0.5632  0.0753 -0.2524
 7066TIP3    H142757   2.521   1.063   8.169  0.9490  0.5339 -0.8330
 7066TIP3    H242758   2.594   1.135   8.280 -1.1988  0.4540  0.7005
 7067TIP3   OH242759   2.878   2.983   8.071  0.1373  0.0581  0.0649
 7067TIP3    H142760   2.895   3.051   8.136  0.6868  0.0730 -0.0828
 7067TIP3    H242761   2.921   2.905   8.105 -2.2466 -0.8255  1.2659
 7068TIP3   OH242762   2.511   2.253   8.518 -0.0516  0.0362  0.7707
 7068TIP3    H142763   2.493   2.337   8.476  0.4021 -0.1692  0.1499
 7068TIP3    H242764   2.435   2.199   8.498  0.5281 -0.3383 -0.5483
 7069TIP3   OH242765   1.122   2.722   1.478 -0.1324  0.2184 -0.1353
 7069TIP3    H142766   1.082   2.645   1.518  0.3687  0.3199  0.5732
 7069TIP3    H242767   1.199   2.689   1.432  0.1048  0.2941  0.2015
 7070TIP3   OH242768   0.605   1.031   0.572 -0.2581 -0.2636  0.0211
 7070TIP3    H142769   0.605   0.950   0.622 -0.2941 -0.2265  0.0815
 7070TIP3    H242770   0.579   1.005   0.483 -1.3052 -0.1690  0.2858
 7071TIP3   OH242771   6.566   6.436   7.334 -0.1825  0.3878  0.0496
 7071TIP3    H142772   6.594   6.516   7.378  0.0445  0.9157 -1.0228
 7071TIP3    H242773   6.513   6.467   7.261 -1.6834 -0.5196  0.7161
 7072TIP3   OH242774   4.592   2.195   6.117 -0.4140 -0.6156 -0.8886
 7072TIP3    H142775   4.501   2.194   6.085 -0.4985 -0.9465 -0.6462
 7072TIP3    H242776   4.628   2.278   6.085 -1.6819  0.9669  1.4928
 7073LIG     C142777   3.400   3.325   7.632  0.1026  0.7181 -0.0286
 7073LIG     C242778   3.353   3.183   7.643  0.0415 -0.0754  0.1447
 7073LIG     C342779   3.238   3.174   7.543 -0.0887 -0.5008 -0.2543
 7073LIG      O42780   3.309   3.160   7.772  0.3972  0.3476  0.3003
 7073LIG     H142781   3.303   3.379   7.634 -1.2859 -1.5449  3.2008
 7073LIG     H242782   3.440   3.340   7.529 -1.7530  2.2090 -0.5887
 7073LIG     H342783   3.463   3.366   7.714  1.4421 -1.2247 -0.0128
 7073LIG     H442784   3.432   3.110   7.617  3.2078  2.9361  0.6365
 7073LIG     H542785   3.145   3.198   7.599 -1.2086 -3.0800 -0.8559
 7073LIG     H642786   3.216   3.069   7.514 -0.6501  0.1336 -2.3474
 7073LIG     H742787   3.247   3.237   7.451 -0.3472  2.8099  1.8250
 7073LIG     H842788   3.384   3.158   7.833 -0.7923  0.0113  1.8259
   6.90163   6.90163   8.57250
