Title
42788
    1SAPS     N    1   4.960   0.160   6.945 -0.3389  0.1715  0.7055
    1SAPS   HN1    2   4.898   0.243   6.951 -0.5864  0.3009 -2.1633
    1SAPS   HN2    3   4.916   0.080   6.994  0.9481 -0.3013  1.1490
    1SAPS   HN3    4   5.053   0.176   6.989  1.3770  1.2265 -2.9377
    1SAPS   C12    5   4.969   0.135   6.795 -0.4123  0.3811  0.2571
    1SAPS  H12A    6   5.021   0.042   6.777  2.1208  1.8442 -0.4167
    1SAPS   C13    7   4.836   0.114   6.728 -0.0065 -0.1073  0.2601
    1SAPS  O13A    8   4.736   0.092   6.798 -0.3772 -0.2647 -0.5070
    1SAPS  O13B    9   4.826   0.099   6.602 -0.0443  0.2233  0.0756
    1SAPS   C11   10   5.063   0.247   6.743 -0.0670  0.1016  0.4008
    1SAPS  H11A   11   5.010   0.341   6.770 -1.5094 -0.1776 -1.3351
    1SAPS  H11B   12   5.050   0.249   6.633 -0.1791 -1.9765  0.3448
    1SAPS     P   13   5.321   0.320   6.727 -0.1758  0.0192 -0.1861
    1SAPS   O13   14   5.337   0.457   6.782  0.6481  0.0611  0.1975
    1SAPS   O14   15   5.433   0.220   6.734  0.3599 -0.2130 -0.1545
    1SAPS   O12   16   5.193   0.238   6.787  0.3411 -0.0165 -0.4793
    1SAPS   O11   17   5.282   0.334   6.575  0.0508 -0.3112  0.0880
    1SAPS    C1   18   5.376   0.278   6.484  0.5696  0.7278 -0.0952
    1SAPS    HA   19   5.481   0.301   6.508  0.3326 -0.0463  1.8354
    1SAPS    HB   20   5.367   0.167   6.489 -0.1243  0.7550 -0.5611
    1SAPS    C2   21   5.348   0.316   6.343  0.2491  0.5063  0.1755
    1SAPS    HS   22   5.438   0.301   6.281  0.4041  1.9190  0.0274
    1SAPS   O21   23   5.331   0.460   6.338 -0.4425  0.4806  0.6184
    1SAPS   C21   24   5.430   0.543   6.384  0.0693  0.1425  0.1251
    1SAPS   O22   25   5.546   0.513   6.415 -0.0180 -0.5921 -0.4219
    1SAPS   C22   26   5.370   0.683   6.389 -0.2840  0.5552  0.0553
    1SAPS   H2R   27   5.311   0.711   6.299 -1.6697  3.5949  1.7800
    1SAPS   H2S   28   5.293   0.686   6.470  0.9090  1.9664  1.1691
    1SAPS    C3   29   5.223   0.244   6.292  0.7853 -0.4238  0.5273
    1SAPS    HX   30   5.154   0.262   6.378  1.3389  0.6851  0.7623
    1SAPS    HY   31   5.233   0.133   6.290 -0.2337 -0.5754  1.7774
    1SAPS   O31   32   5.180   0.296   6.166 -0.7223  0.1935  0.1707
    1SAPS   C31   33   5.069   0.362   6.162 -0.2833  0.0680  0.0630
    1SAPS   O32   34   4.980   0.373   6.245  0.0449 -0.0417 -0.6104
    1SAPS   C32   35   5.075   0.430   6.022 -0.2713  0.2244 -0.2341
    1SAPS   H2X   36   5.060   0.344   5.954 -0.4758 -0.8788  1.1523
    1SAPS   H2Y   37   5.177   0.473   6.022 -1.7778  4.1692 -0.6298
    1SAPS   C23   38   5.467   0.798   6.419  0.1894 -0.6760 -0.1012
    1SAPS   H3R   39   5.551   0.810   6.348 -0.2639  1.4318 -0.3492
    1SAPS   H3S   40   5.508   0.775   6.519 -1.2492  1.1535  0.9599
    1SAPS   C24   41   5.395   0.934   6.431  0.5855 -0.1305 -0.0154
    1SAPS   H4R   42   5.474   1.012   6.427  0.4319  0.2233  2.4907
    1SAPS   H4S   43   5.345   0.944   6.530 -0.3027  0.3054 -0.4967
    1SAPS   C25   44   5.281   0.964   6.332 -0.6254  0.7090 -0.1623
    1SAPS   H5R   45   5.184   0.945   6.381 -0.1496  1.1271  0.9645
    1SAPS   C26   46   5.288   0.980   6.203 -0.1807 -0.4018  1.1848
    1SAPS   H6R   47   5.200   1.016   6.148 -0.1879 -0.3548  1.2270
    1SAPS   C27   48   5.420   0.996   6.128 -0.0459 -0.1870  0.3579
    1SAPS   H7R   49   5.496   1.034   6.199 -0.7404 -0.5033  1.2981
    1SAPS   H7S   50   5.391   1.085   6.068  0.4106 -1.1063 -1.3119
    1SAPS   C28   51   5.467   0.878   6.053 -0.1749  0.0947 -0.0634
    1SAPS   H8R   52   5.531   0.814   6.117 -0.3931  2.1640  2.3933
    1SAPS   C29   53   5.421   0.818   5.943 -0.2305 -0.0306 -0.1629
    1SAPS   H9R   54   5.465   0.725   5.903  0.0167  0.1581 -0.3336
    1SAPS  C210   55   5.329   0.878   5.846 -0.0427  0.4690 -0.8554
    1SAPS  H10R   56   5.240   0.920   5.898 -0.5996 -0.7252 -0.8056
    1SAPS  H10S   57   5.283   0.800   5.782 -2.7275  1.7604 -0.6462
    1SAPS  C211   58   5.394   0.990   5.773  0.3813 -0.6143  0.3184
    1SAPS  H11R   59   5.424   1.078   5.833  1.6431 -1.6012  1.1946
    1SAPS  C212   60   5.437   0.990   5.649  0.2091  0.2637  0.6837
    1SAPS  H12R   61   5.480   1.085   5.616  0.7538  0.1487  1.0373
    1SAPS  C213   62   5.409   0.886   5.543 -0.6283  0.2254  0.5194
    1SAPS  H13R   63   5.350   0.804   5.589  0.7417  0.6802  3.2777
    1SAPS  H13S   64   5.501   0.835   5.509 -0.7230  0.6813 -0.4695
    1SAPS  C214   65   5.346   0.942   5.415  1.0521 -0.1485  0.3336
    1SAPS  H14R   66   5.307   1.044   5.430 -2.1309 -1.2230  0.2070
    1SAPS  C215   67   5.331   0.876   5.299 -0.0664 -1.0673 -0.3025
    1SAPS  H15R   68   5.294   0.929   5.210  0.3332 -2.2344 -1.1866
    1SAPS  C216   69   5.387   0.740   5.267 -0.3520 -0.4494 -0.3347
    1SAPS  H16R   70   5.304   0.665   5.258  0.9671 -2.3105  1.8023
    1SAPS  H16S   71   5.442   0.696   5.353  0.5228  1.9028  0.3773
    1SAPS  C217   72   5.476   0.720   5.142  0.3605 -0.3166 -0.7232
    1SAPS  H17R   73   5.510   0.614   5.150  0.4445 -0.1564  3.1730
    1SAPS  H17S   74   5.564   0.788   5.140 -1.2166  2.1537  3.0358
    1SAPS  C218   75   5.392   0.742   5.016 -0.0970  0.7815  0.7830
    1SAPS  H18R   76   5.359   0.847   5.003  1.6993  1.2912  0.0851
    1SAPS  H18S   77   5.293   0.690   5.019  0.6033 -0.6659  0.0255
    1SAPS  C219   78   5.454   0.700   4.886 -0.3721 -0.1045 -0.0850
    1SAPS  H19R   79   5.562   0.723   4.897 -0.0357 -0.6090 -1.9392
    1SAPS  H19S   80   5.403   0.743   4.797  2.4826 -1.9722 -2.8692
    1SAPS  C220   81   5.449   0.542   4.872 -0.2555  1.1109 -0.0602
    1SAPS  H20R   82   5.466   0.508   4.768 -0.3578 -2.1645  0.8801
    1SAPS  H20S   83   5.345   0.512   4.897 -0.1083  0.8995  0.3111
    1SAPS  H20T   84   5.519   0.493   4.943  0.2109  0.0370 -1.2077
    1SAPS   C33   85   4.976   0.544   6.016  0.3356 -0.8721 -0.0123
    1SAPS   H3X   86   4.985   0.605   6.109  0.4662 -0.4217 -0.3166
    1SAPS   H3Y   87   4.869   0.520   5.999 -0.0904 -1.0127  2.4177
    1SAPS   C34   88   5.018   0.647   5.908 -0.1201 -0.4330  0.2780
    1SAPS   H4X   89   5.120   0.686   5.928  0.0557 -1.3304  1.2752
    1SAPS   H4Y   90   4.945   0.730   5.908  0.6314  0.2437  0.6890
    1SAPS   C35   91   5.000   0.596   5.762 -0.8835  0.5945 -0.0793
    1SAPS   H5X   92   4.907   0.534   5.755 -0.4065  0.0426 -2.1547
    1SAPS   H5Y   93   5.074   0.516   5.740  0.1472  1.9840 -1.8654
    1SAPS   C36   94   5.004   0.703   5.659 -0.5040 -0.0168  0.6535
    1SAPS   H6X   95   5.107   0.744   5.654 -0.6868  0.5288  1.2696
    1SAPS   H6Y   96   4.942   0.783   5.706 -0.3500  0.3807  0.1978
    1SAPS   C37   97   4.960   0.647   5.535 -0.6240  0.4920  0.3246
    1SAPS   H7X   98   4.864   0.594   5.552  1.2358 -3.1073  0.8119
    1SAPS   H7Y   99   5.026   0.564   5.500 -2.9105 -0.6510 -1.5369
    1SAPS   C38  100   4.942   0.745   5.413 -0.3597 -0.3919  0.4142
    1SAPS   H8X  101   5.037   0.791   5.379 -2.0533  0.9241 -2.9268
    1SAPS   H8Y  102   4.888   0.835   5.448  0.7311 -0.0493  1.2834
    1SAPS   C39  103   4.876   0.689   5.284  0.8931 -0.0180 -0.0863
    1SAPS   H9X  104   4.771   0.667   5.311 -0.2252  1.2822 -2.9956
    1SAPS   H9Y  105   4.919   0.590   5.258  0.7470 -0.6826  2.0145
    1SAPS  C310  106   4.865   0.778   5.162  0.3293 -0.0429 -0.0177
    1SAPS  H10X  107   4.841   0.881   5.195  1.5064  0.5120 -0.8344
    1SAPS  H10Y  108   4.771   0.759   5.105 -1.2245  3.2849  1.1748
    1SAPS  C311  109   5.004   0.801   5.086 -0.2868 -0.4037 -0.4181
    1SAPS  H11X  110   5.017   0.725   5.006  0.9045 -1.4618  0.7236
    1SAPS  H11Y  111   5.079   0.797   5.169 -1.2357 -0.3355  0.4619
    1SAPS  C312  112   5.018   0.936   5.016 -0.1206  0.3162 -1.2576
    1SAPS  H12X  113   5.121   0.953   4.979  0.1525 -2.2971 -1.9421
    1SAPS  H12Y  114   5.006   1.022   5.085 -0.8036  0.5042 -1.5981
    1SAPS  C313  115   4.925   0.950   4.898 -0.0842 -0.3854 -0.1915
    1SAPS  H13X  116   4.900   1.051   4.861  0.9490 -0.0734 -0.0579
    1SAPS  H13Y  117   4.837   0.888   4.925  0.8233 -1.0065  1.5568
    1SAPS  C314  118   4.980   0.875   4.776  0.0820 -0.7664  0.0502
    1SAPS  H14X  119   4.989   0.768   4.804 -0.4545 -0.6830  0.5650
    1SAPS  H14Y  120   5.081   0.917   4.756 -0.0076  0.6725  2.2454
    1SAPS  C315  121   4.897   0.886   4.649 -0.0897  0.3292  0.9746
    1SAPS  H15X  122   4.878   0.994   4.628  0.2746  0.1530 -0.3445
    1SAPS  H15Y  123   4.801   0.843   4.685  0.5427 -1.1977  0.9135
    1SAPS  C316  124   4.947   0.804   4.531  0.2813 -0.9111 -0.5661
    1SAPS  H16X  125   4.945   0.697   4.562 -1.3387 -0.0614  2.8412
    1SAPS  H16Y  126   5.052   0.836   4.517 -0.0640 -0.0481 -1.2178
    1SAPS  C317  127   4.860   0.790   4.405  0.0461 -0.2183 -0.2380
    1SAPS  H17X  128   4.920   0.726   4.337  1.0688  0.9449 -0.4601
    1SAPS  H17Y  129   4.839   0.881   4.346  2.6852 -0.4747 -1.7155
    1SAPS  C318  130   4.726   0.717   4.421  1.3455 -0.0689 -0.2287
    1SAPS  H18X  131   4.740   0.614   4.460  0.1651 -1.1858 -2.5665
    1SAPS  H18Y  132   4.686   0.711   4.318 -1.3549 -1.2137  0.8110
    1SAPS  H18Z  133   4.648   0.768   4.480 -0.6154  1.0060 -3.5254
    2SAPS     N  134   4.109   2.564   6.674 -0.4797  0.0139 -0.5397
    2SAPS   HN1  135   4.032   2.635   6.677  0.0767  0.7049  3.9451
    2SAPS   HN2  136   4.068   2.470   6.655  0.7721 -0.6584 -0.0192
    2SAPS   HN3  137   4.137   2.571   6.773 -1.3041  1.2228 -0.3703
    2SAPS   C12  138   4.219   2.605   6.583 -0.1450  0.1618 -0.1416
    2SAPS  H12A  139   4.253   2.702   6.617  0.3466 -0.0784  0.0563
    2SAPS   C13  140   4.341   2.515   6.593 -0.5671 -0.4146 -1.1802
    2SAPS  O13A  141   4.341   2.414   6.671  0.0521 -0.0981  0.3933
    2SAPS  O13B  142   4.429   2.522   6.508  0.1034  0.3058 -0.0402
    2SAPS   C11  143   4.182   2.616   6.427 -0.3243  0.9111  0.3981
    2SAPS  H11A  144   4.157   2.518   6.379  0.5443  1.3903 -1.0773
    2SAPS  H11B  145   4.269   2.651   6.369  1.2991 -1.2151  1.3992
    2SAPS     P  146   4.008   2.744   6.275 -0.0882 -0.2791 -0.3699
    2SAPS   O13  147   3.955   2.617   6.219 -0.1285  0.6778 -0.6042
    2SAPS   O14  148   3.908   2.848   6.292  0.0109  0.1329 -0.1416
    2SAPS   O12  149   4.079   2.714   6.412 -0.1851  0.2825 -0.2461
    2SAPS   O11  150   4.131   2.803   6.193 -0.3160 -0.1302 -0.2337
    2SAPS    C1  151   4.206   2.915   6.238  0.2596 -0.3846 -0.3815
    2SAPS    HA  152   4.237   2.906   6.344  0.5465  2.4892 -0.1527
    2SAPS    HB  153   4.303   2.914   6.184  0.5025  1.4320 -0.0305
    2SAPS    C2  154   4.133   3.044   6.219 -0.9290  0.0186  0.0833
    2SAPS    HS  155   4.048   3.039   6.291 -1.1353 -0.2023 -0.1768
    2SAPS   O21  156   4.092   3.063   6.081 -0.0670 -0.2903  0.6099
    2SAPS   C21  157   3.997   3.150   6.063 -0.1421 -0.1145 -0.1146
    2SAPS   O22  158   3.940   3.207   6.151 -0.0007 -0.2287 -0.1819
    2SAPS   C22  159   3.979   3.171   5.913  0.1668 -0.8407 -0.4872
    2SAPS   H2R  160   4.082   3.185   5.872 -0.5066  1.4690 -1.5411
    2SAPS   H2S  161   3.925   3.085   5.869 -0.8673 -0.8946  0.8109
    2SAPS    C3  162   4.216   3.169   6.270  0.0583  0.4349 -0.0484
    2SAPS    HX  163   4.231   3.148   6.378  0.0909 -0.6158 -0.2516
    2SAPS    HY  164   4.163   3.267   6.267  1.2357  1.1368  1.1987
    2SAPS   O31  165   4.347   3.175   6.215  0.1088 -0.4326  0.0236
    2SAPS   C31  166   4.359   3.242   6.102  0.6402 -0.0800 -0.2451
    2SAPS   O32  167   4.267   3.291   6.040  0.1557 -0.0164 -0.3324
    2SAPS   C32  168   4.505   3.259   6.067 -0.2905 -0.3113  0.0302
    2SAPS   H2X  169   4.572   3.205   6.137 -0.4765  1.9489  2.0954
    2SAPS   H2Y  170   4.531   3.367   6.073  0.8635 -0.4116 -2.0155
    2SAPS   C23  171   3.913   3.306   5.864  0.0473 -0.4394 -0.7524
    2SAPS   H3R  172   3.958   3.386   5.928 -0.2716 -2.3442  2.0428
    2SAPS   H3S  173   3.805   3.300   5.890  0.5449 -1.9080  1.2720
    2SAPS   C24  174   3.930   3.348   5.718 -0.5349  0.4338  1.5384
    2SAPS   H4R  175   4.040   3.348   5.697 -0.5566  2.1158  1.3215
    2SAPS   H4S  176   3.898   3.453   5.702 -0.5892  0.2622  0.4298
    2SAPS   C25  177   3.846   3.263   5.621  0.6998 -0.5902 -0.4825
    2SAPS   H5R  178   3.790   3.185   5.675 -1.4109  1.9299  1.1900
    2SAPS   C26  179   3.843   3.265   5.489  1.2144 -0.5826 -0.6590
    2SAPS   H6R  180   3.777   3.194   5.436  1.8420 -0.3235 -1.8173
    2SAPS   C27  181   3.920   3.357   5.398 -0.7291 -0.7223 -1.0478
    2SAPS   H7R  182   3.998   3.415   5.452  0.1325  0.0658 -3.0418
    2SAPS   H7S  183   3.851   3.434   5.357 -1.1421 -0.8086 -0.5239
    2SAPS   C28  184   3.993   3.271   5.297 -0.2066  0.3457 -0.7852
    2SAPS   H8R  185   4.082   3.222   5.339  0.8971  2.5632 -0.3786
    2SAPS   C29  186   3.964   3.263   5.168 -0.4690  0.5276  0.3162
    2SAPS   H9R  187   4.024   3.192   5.109 -0.2859  0.9411 -0.0010
    2SAPS  C210  188   3.861   3.347   5.098 -0.0442 -0.0396  0.1195
    2SAPS  H10R  189   3.891   3.352   4.991  2.3243 -0.8903  0.6722
    2SAPS  H10S  190   3.866   3.455   5.125 -0.6872  0.3926 -1.3522
    2SAPS  C211  191   3.723   3.292   5.103 -0.2350  0.1763  0.3547
    2SAPS  H11R  192   3.663   3.326   5.189 -0.2365 -0.4180  0.5925
    2SAPS  C212  193   3.651   3.245   5.003 -0.7733 -0.4166 -0.1339
    2SAPS  H12R  194   3.549   3.208   5.024 -1.5142  1.6058  0.0891
    2SAPS  C213  195   3.684   3.231   4.859  0.5766 -0.1111  0.1529
    2SAPS  H13R  196   3.597   3.178   4.815  0.8309  0.6896 -1.3960
    2SAPS  H13S  197   3.780   3.176   4.849  2.5679  3.1600 -0.1904
    2SAPS  C214  198   3.704   3.368   4.801  0.2300 -0.5209 -0.1013
    2SAPS  H14R  199   3.650   3.455   4.841 -0.7728 -0.1406 -2.1592
    2SAPS  C215  200   3.769   3.392   4.687  0.2652 -0.3014  0.1886
    2SAPS  H15R  201   3.785   3.496   4.655 -0.3158 -0.3399 -0.2385
    2SAPS  C216  202   3.840   3.299   4.598  0.1411  0.6983  0.4979
    2SAPS  H16R  203   3.795   3.293   4.497  2.4706 -2.3925 -0.5042
    2SAPS  H16S  204   3.830   3.193   4.629 -0.9125  0.1547 -1.4910
    2SAPS  C217  205   3.993   3.317   4.590  0.1354 -0.8560  0.4125
    2SAPS  H17R  206   4.018   3.420   4.557  4.3020 -1.0537  2.3606
    2SAPS  H17S  207   4.032   3.242   4.517 -1.9232 -0.9572 -0.6632
    2SAPS  C218  208   4.052   3.297   4.725 -0.1520 -0.0115 -0.3603
    2SAPS  H18R  209   4.016   3.207   4.779  3.3062 -0.8254  0.8509
    2SAPS  H18S  210   4.027   3.385   4.788  1.6953 -0.0017  0.4128
    2SAPS  C219  211   4.206   3.280   4.723  0.4467  0.0796  0.2588
    2SAPS  H19R  212   4.246   3.352   4.648  2.2361 -2.3371 -1.2879
    2SAPS  H19S  213   4.225   3.181   4.676  1.3417  0.8054 -0.9783
    2SAPS  C220  214   4.272   3.290   4.863  0.2413  0.3582 -0.1928
    2SAPS  H20R  215   4.246   3.378   4.924  0.2398 -1.0789  1.9943
    2SAPS  H20S  216   4.383   3.291   4.868  0.2478 -0.7548  0.3350
    2SAPS  H20T  217   4.223   3.212   4.925 -0.5352  1.3458  0.4585
    2SAPS   C33  218   4.522   3.189   5.928  0.0321  0.2756 -0.2873
    2SAPS   H3X  219   4.434   3.191   5.860  0.3492  0.8380 -0.6914
    2SAPS   H3Y  220   4.547   3.082   5.943 -0.9500  0.0206 -0.4178
    2SAPS   C34  221   4.628   3.253   5.838 -0.0196  1.2753  0.3755
    2SAPS   H4X  222   4.660   3.184   5.757  0.0036 -1.6330  2.7284
    2SAPS   H4Y  223   4.721   3.265   5.896 -0.7830  0.3948  1.8383
    2SAPS   C35  224   4.585   3.381   5.769 -0.1231  0.2782 -0.2294
    2SAPS   H5X  225   4.548   3.456   5.842  0.1349  1.2875 -1.1086
    2SAPS   H5Y  226   4.508   3.366   5.690  0.3801 -1.5496 -0.4162
    2SAPS   C36  227   4.704   3.446   5.706  0.2389 -0.6960 -0.1278
    2SAPS   H6X  228   4.766   3.369   5.655 -0.1861 -2.2293  1.5451
    2SAPS   H6Y  229   4.765   3.491   5.787  1.2828  0.6676 -1.6235
    2SAPS   C37  230   4.670   3.565   5.610 -0.3723  0.9744 -0.3397
    2SAPS   H7X  231   4.749   3.642   5.622 -1.9360  2.5741 -0.0214
    2SAPS   H7Y  232   4.569   3.602   5.639 -0.6933  0.1530 -0.3728
    2SAPS   C38  233   4.667   3.517   5.466  0.5939  0.4330 -0.2386
    2SAPS   H8X  234   4.616   3.421   5.444 -0.0084  0.4275  1.1200
    2SAPS   H8Y  235   4.774   3.494   5.443  0.8988  2.4605 -0.9823
    2SAPS   C39  236   4.599   3.614   5.367 -0.5966  0.3482  0.0757
    2SAPS   H9X  237   4.663   3.705   5.361  1.7347 -0.9235  3.0602
    2SAPS   H9Y  238   4.496   3.637   5.398 -0.5230  0.4997  0.2089
    2SAPS  C310  239   4.593   3.556   5.220 -0.5597  0.3134  0.0183
    2SAPS  H10X  240   4.519   3.472   5.221  1.0951 -1.2115  1.4652
    2SAPS  H10Y  241   4.685   3.498   5.197  0.0418  0.4420  1.9250
    2SAPS  C311  242   4.575   3.651   5.102 -0.5014 -0.5995 -0.1875
    2SAPS  H11X  243   4.652   3.732   5.103  0.9258 -1.9096  0.9362
    2SAPS  H11Y  244   4.480   3.706   5.121 -0.3601 -0.8028  1.1745
    2SAPS  C312  245   4.553   3.579   4.963 -0.3670  0.1330  0.6305
    2SAPS  H12X  246   4.504   3.656   4.900  1.2888 -0.3896 -1.3964
    2SAPS  H12Y  247   4.485   3.491   4.973  0.1094 -0.1365  1.6345
    2SAPS  C313  248   4.687   3.545   4.897  0.0121 -0.2927 -0.0149
    2SAPS  H13X  249   4.750   3.490   4.969  2.0097 -0.6309 -1.8954
    2SAPS  H13Y  250   4.751   3.634   4.878 -0.7797  0.3653  0.3332
    2SAPS  C314  251   4.677   3.474   4.763 -1.4353  0.0419  0.1450
    2SAPS  H14X  252   4.619   3.551   4.707 -0.1414  2.0812  1.4935
    2SAPS  H14Y  253   4.626   3.376   4.777 -1.2751  0.1346  1.4412
    2SAPS  C315  254   4.815   3.462   4.687 -0.4095 -0.1013 -0.4457
    2SAPS  H15X  255   4.859   3.564   4.693 -1.6142  0.3681  2.1862
    2SAPS  H15Y  256   4.794   3.432   4.583  0.8520 -1.5598 -0.3222
    2SAPS  C316  257   4.914   3.365   4.760  0.5764 -0.6173 -0.4296
    2SAPS  H16X  258   4.877   3.260   4.758  1.4110 -0.9243 -2.8933
    2SAPS  H16Y  259   4.938   3.392   4.866  0.0891  2.5776 -1.0450
    2SAPS  C317  260   5.053   3.369   4.694 -0.0251  0.1423  0.2089
    2SAPS  H17X  261   5.124   3.306   4.751  0.0781  1.4096  1.5425
    2SAPS  H17Y  262   5.095   3.472   4.686  0.8853 -0.1000  1.5166
    2SAPS  C318  263   5.068   3.312   4.548 -0.4936  0.3519  0.6172
    2SAPS  H18X  264   5.175   3.316   4.517 -1.2400 -0.3761 -2.3976
    2SAPS  H18Y  265   5.009   3.378   4.481  1.4580  1.1089 -0.4606
    2SAPS  H18Z  266   5.034   3.207   4.539 -0.0761  0.2644 -0.0855
    3SAPS     N  267   5.108   2.685   6.800 -0.2606 -0.8190  0.2351
    3SAPS   HN1  268   5.195   2.736   6.825 -1.9380  1.9535  0.8505
    3SAPS   HN2  269   5.126   2.629   6.714 -0.6872  0.2428 -0.5826
    3SAPS   HN3  270   5.033   2.751   6.771 -0.5441 -0.8383  0.9057
    3SAPS   C12  271   5.045   2.610   6.918 -0.2126 -0.2690  0.0924
    3SAPS  H12A  272   5.134   2.567   6.961 -0.2644 -2.4632 -1.7966
    3SAPS   C13  273   4.976   2.700   7.035 -0.3489 -0.0111  0.0969
    3SAPS  O13A  274   4.986   2.823   7.030 -0.5059  0.9642 -0.5325
    3SAPS  O13B  275   4.921   2.641   7.124  0.0571  0.2656 -0.3732
    3SAPS   C11  276   4.949   2.496   6.867  0.1322 -0.0772 -1.1676
    3SAPS  H11A  277   4.866   2.548   6.815  0.0054 -0.1563 -1.0453
    3SAPS  H11B  278   4.908   2.429   6.946 -2.1450  2.2278 -0.2524
    3SAPS     P  279   5.129   2.306   6.800  0.0356  0.0373  0.5257
    3SAPS   O13  280   5.248   2.338   6.715 -0.3636  0.0146 -1.0639
    3SAPS   O14  281   5.154   2.295   6.944  0.1648 -0.7774 -0.3835
    3SAPS   O12  282   5.012   2.416   6.769  0.0343  0.5376 -0.6294
    3SAPS   O11  283   5.078   2.166   6.752  0.3763 -0.0537 -0.1847
    3SAPS    C1  284   4.971   2.161   6.661  0.5865  0.0790 -0.6048
    3SAPS    HA  285   4.877   2.126   6.708  0.4263 -0.4237 -1.2800
    3SAPS    HB  286   4.951   2.258   6.610 -1.4073  1.2840  2.1901
    3SAPS    C2  287   5.006   2.047   6.553 -0.0377 -0.2247  0.6552
    3SAPS    HS  288   4.921   2.063   6.484 -1.3963 -1.9059  1.8499
    3SAPS   O21  289   4.986   1.921   6.621  0.6411 -0.2667 -0.5688
    3SAPS   C21  290   4.961   1.824   6.534  0.0250  0.0222  0.4512
    3SAPS   O22  291   4.970   1.837   6.412  0.3681 -0.7585 -0.0807
    3SAPS   C22  292   4.925   1.691   6.606  0.9757 -0.0782  0.6081
    3SAPS   H2R  293   4.969   1.692   6.708  1.7321 -0.7661  0.2951
    3SAPS   H2S  294   4.814   1.686   6.614  1.0632 -1.3425  1.4087
    3SAPS    C3  295   5.149   2.075   6.492 -0.2198 -0.0405  0.7387
    3SAPS    HX  296   5.184   1.992   6.426 -0.9673  1.4365 -1.6444
    3SAPS    HY  297   5.225   2.094   6.570 -0.9876 -0.5476  1.6279
    3SAPS   O31  298   5.139   2.191   6.408  0.2764  0.1670 -0.1686
    3SAPS   C31  299   5.257   2.220   6.342  0.0600 -0.0902 -0.4241
    3SAPS   O32  300   5.359   2.160   6.350  0.2536  0.5813  0.1320
    3SAPS   C32  301   5.229   2.350   6.273 -0.1345 -1.2802  0.0253
    3SAPS   H2X  302   5.230   2.427   6.353  1.6825 -1.4732  0.2326
    3SAPS   H2Y  303   5.128   2.352   6.226  0.3125 -0.8944 -0.9554
    3SAPS   C23  304   4.976   1.560   6.539 -0.0573  0.1395  0.1519
    3SAPS   H3R  305   4.959   1.484   6.618 -0.9761  0.1239 -0.0582
    3SAPS   H3S  306   5.085   1.576   6.522 -0.5453  2.5771 -1.1712
    3SAPS   C24  307   4.897   1.518   6.412  0.2843  0.5081 -0.6109
    3SAPS   H4R  308   4.907   1.593   6.331  2.7735  0.5556 -0.3356
    3SAPS   H4S  309   4.791   1.505   6.443  0.6889 -1.4674  0.0771
    3SAPS   C25  310   4.947   1.382   6.370 -0.5111 -0.2710  0.8605
    3SAPS   H5R  311   4.916   1.294   6.427  2.8112 -2.2894 -0.2029
    3SAPS   C26  312   5.009   1.352   6.249 -0.3551  0.5203 -0.2639
    3SAPS   H6R  313   5.028   1.245   6.231 -0.2205  0.7552 -1.5755
    3SAPS   C27  314   5.052   1.453   6.145 -0.5776  0.5674  0.4025
    3SAPS   H7R  315   5.126   1.526   6.185  2.6737 -0.7256 -2.6806
    3SAPS   H7S  316   4.969   1.513   6.102  0.5549  0.9633 -1.3542
    3SAPS   C28  317   5.132   1.382   6.036  0.7526  0.6705  0.0820
    3SAPS   H8R  318   5.150   1.276   6.058 -0.3748  0.5002  0.2475
    3SAPS   C29  319   5.176   1.426   5.918 -0.3768 -0.2312  0.7454
    3SAPS   H9R  320   5.230   1.365   5.844 -1.0242 -0.3592  0.3667
    3SAPS  C210  321   5.160   1.574   5.871 -0.5743 -0.3166  0.0806
    3SAPS  H10R  322   5.256   1.628   5.880 -0.6396  0.1422 -1.5440
    3SAPS  H10S  323   5.098   1.626   5.947 -0.3138 -0.5436  0.4472
    3SAPS  C211  324   5.089   1.599   5.734 -0.7840  0.0395 -0.0405
    3SAPS  H11R  325   5.000   1.537   5.718  0.1952 -1.6491  0.7892
    3SAPS  C212  326   5.140   1.670   5.633 -0.3630 -0.2367  0.4428
    3SAPS  H12R  327   5.083   1.669   5.539  0.3637 -1.0370  0.0054
    3SAPS  C213  328   5.267   1.750   5.624 -0.1424  0.4033 -0.4535
    3SAPS  H13R  329   5.311   1.792   5.716 -1.5727  0.3570  0.2814
    3SAPS  H13S  330   5.245   1.832   5.552 -1.2850 -0.5600 -1.2417
    3SAPS  C214  331   5.370   1.659   5.555 -0.9225  0.5644  0.1621
    3SAPS  H14R  332   5.398   1.577   5.622 -0.6183 -1.3273 -2.1478
    3SAPS  C215  333   5.419   1.646   5.426 -0.0012  0.2833  0.7489
    3SAPS  H15R  334   5.498   1.572   5.404  0.1432  0.3451  1.0536
    3SAPS  C216  335   5.397   1.755   5.325  0.4614  0.4752  0.0846
    3SAPS  H16R  336   5.496   1.784   5.282 -0.7456  2.1003 -1.7442
    3SAPS  H16S  337   5.355   1.850   5.363  1.5150  1.0867 -0.2338
    3SAPS  C217  338   5.314   1.713   5.206 -0.4575  0.2154  0.8085
    3SAPS  H17R  339   5.207   1.696   5.234 -0.2215  0.3010  1.7736
    3SAPS  H17S  340   5.364   1.619   5.173  0.8206  1.3102 -0.4589
    3SAPS  C218  341   5.324   1.809   5.083 -0.0448  0.2145  0.4816
    3SAPS  H18R  342   5.432   1.824   5.062 -0.2044 -0.5077 -0.9904
    3SAPS  H18S  343   5.280   1.907   5.111 -0.3115 -0.3844  2.2939
    3SAPS  C219  344   5.246   1.758   4.961 -0.0539 -0.1670 -0.0084
    3SAPS  H19R  345   5.142   1.736   4.992  0.5965 -0.3973  2.1164
    3SAPS  H19S  346   5.251   1.832   4.878  1.7024 -0.7208 -0.4429
    3SAPS  C220  347   5.312   1.617   4.912  0.6446 -0.5055 -0.4456
    3SAPS  H20R  348   5.423   1.623   4.917  0.6128 -0.0606 -0.2072
    3SAPS  H20S  349   5.276   1.591   4.811  0.6251 -3.0925  0.1589
    3SAPS  H20T  350   5.299   1.528   4.977  1.8921 -2.0209 -2.1755
    3SAPS   C33  351   5.324   2.366   6.143  0.3054 -0.4514 -0.3587
    3SAPS   H3X  352   5.414   2.304   6.162  0.5734 -0.3242 -1.2041
    3SAPS   H3Y  353   5.343   2.474   6.124  0.3395 -0.7105 -1.9462
    3SAPS   C34  354   5.264   2.304   6.019  0.4210  0.1376 -0.0094
    3SAPS   H4X  355   5.319   2.342   5.931 -2.3129  0.7205 -1.5816
    3SAPS   H4Y  356   5.172   2.360   5.994  0.0017 -0.5477 -0.0216
    3SAPS   C35  357   5.249   2.155   6.020 -0.3335 -0.1273 -0.2171
    3SAPS   H5X  358   5.341   2.110   6.063  0.1878 -0.1512 -1.3310
    3SAPS   H5Y  359   5.158   2.143   6.083 -0.0343  2.7930  0.9308
    3SAPS   C36  360   5.225   2.091   5.878 -0.7007 -0.4044  0.0301
    3SAPS   H6X  361   5.218   1.981   5.887 -3.5288 -0.4466 -1.6566
    3SAPS   H6Y  362   5.320   2.100   5.819 -1.9683 -2.1953 -2.4882
    3SAPS   C37  363   5.106   2.145   5.794  0.1810 -0.4465  0.4039
    3SAPS   H7X  364   5.137   2.248   5.766  2.8845 -1.0668  0.8387
    3SAPS   H7Y  365   5.010   2.151   5.850  0.2832  3.2845  0.4576
    3SAPS   C38  366   5.088   2.062   5.668  0.0783 -0.6003  0.4149
    3SAPS   H8X  367   5.046   1.963   5.694 -0.7545 -0.0627  1.1893
    3SAPS   H8Y  368   5.187   2.056   5.619  0.9107  0.2331  1.9313
    3SAPS   C39  369   4.982   2.109   5.567 -0.1482  0.0679 -0.0794
    3SAPS   H9X  370   4.980   2.218   5.587  1.5900 -0.2374  2.1022
    3SAPS   H9Y  371   4.881   2.064   5.575  0.6277 -1.8756 -0.6310
    3SAPS  C310  372   5.031   2.085   5.423 -0.1805 -0.2467 -0.5804
    3SAPS  H10X  373   5.050   1.976   5.417  0.0563 -0.2444 -0.0036
    3SAPS  H10Y  374   5.132   2.131   5.419 -1.1027  1.8393 -1.6061
    3SAPS  C311  375   4.939   2.135   5.315 -0.2909 -0.2791 -0.2311
    3SAPS  H11X  376   4.913   2.239   5.342  1.0613 -0.3799  1.6086
    3SAPS  H11Y  377   4.842   2.082   5.329 -0.8697  0.7997 -0.0689
    3SAPS  C312  378   4.992   2.142   5.174 -1.0382  0.6038  0.0392
    3SAPS  H12X  379   4.932   2.208   5.108  0.4127  1.2429 -0.6924
    3SAPS  H12Y  380   4.992   2.040   5.130  2.2095  0.3817  0.2647
    3SAPS  C313  381   5.140   2.201   5.164 -0.1512 -0.5393  0.3930
    3SAPS  H13X  382   5.201   2.135   5.229  0.8262  0.6835  0.7551
    3SAPS  H13Y  383   5.129   2.299   5.216 -2.2243 -1.1643  1.2422
    3SAPS  C314  384   5.181   2.211   5.021 -0.5084  0.1269 -0.0379
    3SAPS  H14X  385   5.140   2.120   4.970 -0.0006 -0.8142  1.1771
    3SAPS  H14Y  386   5.289   2.187   5.008 -0.7095 -0.2694 -1.0790
    3SAPS  C315  387   5.130   2.334   4.945 -0.2440  0.3591 -0.4951
    3SAPS  H15X  388   5.176   2.415   5.006  1.9714 -2.0706  1.2791
    3SAPS  H15Y  389   5.019   2.340   4.945 -0.2358  1.7847 -3.0293
    3SAPS  C316  390   5.172   2.340   4.798  0.4605  0.0938  0.6755
    3SAPS  H16X  391   5.283   2.335   4.796  0.5016  0.5236 -1.8679
    3SAPS  H16Y  392   5.150   2.443   4.764  3.9927  1.2467  1.4479
    3SAPS  C317  393   5.122   2.226   4.716 -0.0631  0.1970 -0.2476
    3SAPS  H17X  394   5.011   2.220   4.725  0.1341 -1.6308  1.5432
    3SAPS  H17Y  395   5.147   2.130   4.765  2.6533  1.5133  1.1763
    3SAPS  C318  396   5.156   2.233   4.576 -0.6026 -0.8086  0.1002
    3SAPS  H18X  397   5.263   2.216   4.552  0.1116  0.7565  1.9134
    3SAPS  H18Y  398   5.111   2.322   4.528 -1.0793 -1.6189 -1.0115
    3SAPS  H18Z  399   5.101   2.154   4.520  1.2307 -0.1391 -2.8664
    4SAPS     N  400   4.179   0.539   7.096 -0.0636  0.0378 -0.1731
    4SAPS   HN1  401   4.155   0.619   7.158 -1.4196 -0.1647 -0.4048
    4SAPS   HN2  402   4.232   0.464   7.145  0.2312  1.2920  1.5428
    4SAPS   HN3  403   4.240   0.586   7.027  0.2865  2.3988  1.6032
    4SAPS   C12  404   4.058   0.481   7.029  0.5759 -0.6422 -0.5074
    4SAPS  H12A  405   4.035   0.387   7.076 -3.2467 -0.2714 -1.3359
    4SAPS   C13  406   3.924   0.560   7.047  0.1658 -0.4064 -0.0124
    4SAPS  O13A  407   3.929   0.668   7.114 -0.2841 -0.2373 -0.0858
    4SAPS  O13B  408   3.818   0.511   6.992 -0.7536  0.2983  0.2148
    4SAPS   C11  409   4.089   0.485   6.880  0.5045  0.5359  0.6402
    4SAPS  H11A  410   4.107   0.590   6.850 -0.3869  0.6884  0.6283
    4SAPS  H11B  411   4.005   0.435   6.827 -0.1450  0.2822  1.8806
    4SAPS     P  412   4.232   0.290   6.748 -0.3080  0.0477  0.2970
    4SAPS   O13  413   4.373   0.276   6.711 -0.3254  0.1733  0.3277
    4SAPS   O14  414   4.171   0.171   6.821 -0.4717  0.6122  0.2455
    4SAPS   O12  415   4.203   0.408   6.849  0.4682  0.6606  0.4719
    4SAPS   O11  416   4.142   0.324   6.628  0.4905 -0.5674  0.0544
    4SAPS    C1  417   4.134   0.451   6.560  0.1380  0.6359 -0.1751
    4SAPS    HA  418   4.025   0.464   6.540  0.3712 -0.9136 -3.0319
    4SAPS    HB  419   4.169   0.539   6.618 -1.7073  1.7116 -0.6139
    4SAPS    C2  420   4.199   0.458   6.419  0.7578  0.6695 -0.2943
    4SAPS    HS  421   4.190   0.564   6.387 -0.7727  0.5680 -0.2675
    4SAPS   O21  422   4.130   0.363   6.334 -0.1318  0.0130  0.1153
    4SAPS   C21  423   4.022   0.420   6.276 -0.0178  0.3624  0.1482
    4SAPS   O22  424   3.994   0.541   6.288  0.1662  0.4970 -0.1225
    4SAPS   C22  425   3.947   0.317   6.193 -0.6564  0.4924  0.0406
    4SAPS   H2R  426   4.002   0.223   6.211  0.4144  1.0596 -0.2066
    4SAPS   H2S  427   3.838   0.325   6.216 -0.5655  3.0991 -0.1280
    4SAPS    C3  428   4.344   0.410   6.424  0.0250 -0.6313 -0.0341
    4SAPS    HX  429   4.354   0.304   6.457 -0.6010 -0.8452 -0.5072
    4SAPS    HY  430   4.396   0.471   6.501 -0.0295 -0.3534 -0.2164
    4SAPS   O31  431   4.396   0.434   6.293  0.4775  0.0315 -0.2359
    4SAPS   C31  432   4.499   0.370   6.241  0.1189 -0.3060 -0.5091
    4SAPS   O32  433   4.554   0.273   6.292  0.2106 -0.1180  0.0904
    4SAPS   C32  434   4.535   0.432   6.109 -0.3471  0.4762 -0.2870
    4SAPS   H2X  435   4.604   0.519   6.117  1.5456 -0.7430 -2.3647
    4SAPS   H2Y  436   4.439   0.473   6.072 -1.4181 -0.4269  1.3200
    4SAPS   C23  437   3.943   0.344   6.037  0.4765 -0.5754  0.6134
    4SAPS   H3R  438   4.045   0.330   5.994  0.4830 -1.9238  1.0389
    4SAPS   H3S  439   3.915   0.449   6.014  1.4453 -0.1644  1.2637
    4SAPS   C24  440   3.846   0.255   5.966 -0.6352 -0.0611  0.3505
    4SAPS   H4R  441   3.741   0.291   5.976 -0.9372 -0.0768 -2.1031
    4SAPS   H4S  442   3.857   0.152   6.007 -1.8601  0.3999  1.9564
    4SAPS   C25  443   3.874   0.256   5.820  0.2155  0.3917 -0.1057
    4SAPS   H5R  444   3.981   0.240   5.799  0.9404  1.1159  2.6205
    4SAPS   C26  445   3.785   0.268   5.716  0.2017  0.4389  0.5384
    4SAPS   H6R  446   3.830   0.258   5.616  0.7514  0.3855  0.7892
    4SAPS   C27  447   3.633   0.289   5.727 -1.1831 -0.4296 -0.0595
    4SAPS   H7R  448   3.596   0.301   5.831 -0.5608 -1.3317  0.2745
    4SAPS   H7S  449   3.592   0.189   5.704  1.9376 -2.6305  2.8579
    4SAPS   C28  450   3.577   0.400   5.640 -0.2131 -0.1636  0.6763
    4SAPS   H8R  451   3.565   0.503   5.677 -1.1315 -0.0148 -0.0010
    4SAPS   C29  452   3.558   0.396   5.500 -0.7494  0.7492 -0.6987
    4SAPS   H9R  453   3.510   0.477   5.443  0.1608 -0.0441 -2.6988
    4SAPS  C210  454   3.581   0.274   5.409  0.3939  0.1501  0.0028
    4SAPS  H10R  455   3.478   0.267   5.367 -0.9699  1.8399  2.7794
    4SAPS  H10S  456   3.600   0.185   5.473  1.1279  1.2670  1.3950
    4SAPS  C211  457   3.677   0.289   5.298  0.8585  0.6944 -0.6960
    4SAPS  H11R  458   3.742   0.378   5.293  2.3016 -0.3666 -5.1840
    4SAPS  C212  459   3.685   0.212   5.185  0.4101  0.5856 -0.0239
    4SAPS  H12R  460   3.752   0.244   5.104  0.5820  0.6341  0.1344
    4SAPS  C213  461   3.601   0.081   5.163 -0.1037  0.3235 -0.3748
    4SAPS  H13R  462   3.624   0.055   5.057  0.2164  1.9095 -0.7326
    4SAPS  H13S  463   3.497   0.118   5.170  0.6438  2.3480  0.9611
    4SAPS  C214  464   3.628  -0.033   5.258  0.3406 -0.2604  0.6584
    4SAPS  H14R  465   3.642  -0.001   5.362  1.2325  1.2879  0.0816
    4SAPS  C215  466   3.645  -0.161   5.218  0.4025 -0.0969  0.1397
    4SAPS  H15R  467   3.657  -0.240   5.294 -1.9010  0.0125  0.6715
    4SAPS  C216  468   3.641  -0.223   5.078  0.2868 -0.1114 -0.6131
    4SAPS  H16R  469   3.711  -0.306   5.054 -0.5078 -0.5992 -1.3004
    4SAPS  H16S  470   3.684  -0.140   5.018 -0.3065  0.8879  0.3123
    4SAPS  C217  471   3.492  -0.240   5.038  0.7848 -0.1648 -0.3349
    4SAPS  H17R  472   3.436  -0.144   5.043 -0.9628 -1.2147  2.9912
    4SAPS  H17S  473   3.436  -0.320   5.090 -0.1617 -0.1528 -1.3019
    4SAPS  C218  474   3.471  -0.279   4.893  0.3177 -0.2148  0.5990
    4SAPS  H18R  475   3.361  -0.293   4.881  0.4428 -1.7678  1.0388
    4SAPS  H18S  476   3.517  -0.378   4.871  0.3151 -0.3280  1.0969
    4SAPS  C219  477   3.511  -0.151   4.803  0.0159  0.6746 -0.2409
    4SAPS  H19R  478   3.621  -0.137   4.804 -0.0294  1.1477  1.4616
    4SAPS  H19S  479   3.467  -0.058   4.845 -0.8877  0.4152 -0.5913
    4SAPS  C220  480   3.472  -0.158   4.655  0.4202 -0.0439  0.4337
    4SAPS  H20R  481   3.510  -0.082   4.583  1.7225 -0.2060  0.9102
    4SAPS  H20S  482   3.361  -0.154   4.651  0.3759  2.9594  1.7052
    4SAPS  H20T  483   3.503  -0.258   4.618  1.6494  0.6109 -0.3716
    4SAPS   C33  484   4.586   0.336   6.003  0.3236  0.5091  0.4756
    4SAPS   H3X  485   4.508   0.259   5.980  0.4590 -0.3194  2.5994
    4SAPS   H3Y  486   4.678   0.276   6.019  0.8053  0.3360 -2.3609
    4SAPS   C34  487   4.612   0.408   5.868 -0.2188 -0.7625 -0.5317
    4SAPS   H4X  488   4.683   0.493   5.879  1.1744 -2.0180  0.6540
    4SAPS   H4Y  489   4.514   0.457   5.853  0.0377  0.6462  1.9093
    4SAPS   C35  490   4.653   0.328   5.750  0.1743 -0.4358 -1.1123
    4SAPS   H5X  491   4.592   0.235   5.747  1.7373 -1.8461  3.4122
    4SAPS   H5Y  492   4.763   0.311   5.755  0.2698  0.3551 -0.2963
    4SAPS   C36  493   4.614   0.399   5.619  0.7087  0.7544 -0.4051
    4SAPS   H6X  494   4.655   0.502   5.622 -1.0866  1.5069  1.3840
    4SAPS   H6Y  495   4.503   0.403   5.611  0.4668  0.2897  1.9499
    4SAPS   C37  496   4.660   0.321   5.498  0.1870  0.2681  0.3954
    4SAPS   H7X  497   4.620   0.217   5.493  0.2005  0.2898 -0.2741
    4SAPS   H7Y  498   4.771   0.318   5.495  0.3404  0.4318  3.3489
    4SAPS   C38  499   4.602   0.386   5.369 -0.6948 -0.7893 -0.1367
    4SAPS   H8X  500   4.632   0.493   5.377 -0.1681 -1.0571  2.8654
    4SAPS   H8Y  501   4.492   0.369   5.363 -0.4467 -2.5855 -0.0414
    4SAPS   C39  502   4.669   0.316   5.249  0.3472  0.0079 -0.3305
    4SAPS   H9X  503   4.766   0.268   5.272  0.4839 -0.0527 -1.0057
    4SAPS   H9Y  504   4.680   0.386   5.163 -0.2151  3.3953  2.1242
    4SAPS  C310  505   4.578   0.207   5.189 -0.7083 -0.3726 -0.2409
    4SAPS  H10X  506   4.474   0.240   5.208  0.4202  2.3351  2.0156
    4SAPS  H10Y  507   4.586   0.113   5.248  1.0783 -0.1719 -0.1082
    4SAPS  C311  508   4.595   0.173   5.046 -0.4386 -0.6883  0.3695
    4SAPS  H11X  509   4.697   0.130   5.039  0.2061  0.3634  2.2965
    4SAPS  H11Y  510   4.577   0.259   4.978  2.3793 -0.2426  0.0270
    4SAPS  C312  511   4.511   0.054   5.016  0.3671 -0.1250  0.9495
    4SAPS  H12X  512   4.403   0.071   5.001 -0.5015 -3.2141  2.7982
    4SAPS  H12Y  513   4.521  -0.024   5.094  2.6449 -1.5029 -0.6006
    4SAPS  C313  514   4.558  -0.014   4.885  0.0877 -0.1909 -0.0695
    4SAPS  H13X  515   4.666  -0.039   4.883 -0.0921 -1.1858  1.1165
    4SAPS  H13Y  516   4.547   0.065   4.809  0.0949 -0.6751 -0.5824
    4SAPS  C314  517   4.469  -0.134   4.843  0.2376  0.1535 -0.4411
    4SAPS  H14X  518   4.366  -0.095   4.829  1.0956  2.0951 -1.9068
    4SAPS  H14Y  519   4.476  -0.225   4.907  1.4799  0.7849  0.3714
    4SAPS  C315  520   4.497  -0.177   4.697 -0.8872  0.1177 -0.7339
    4SAPS  H15X  521   4.584  -0.246   4.696 -1.7132 -0.9375 -0.7783
    4SAPS  H15Y  522   4.518  -0.085   4.638 -0.7309  1.8244  1.8086
    4SAPS  C316  523   4.375  -0.235   4.622  0.1836  0.5578  0.0695
    4SAPS  H16X  524   4.290  -0.164   4.619 -0.0447  0.3759  1.4113
    4SAPS  H16Y  525   4.345  -0.321   4.686  0.3621  0.3614 -0.1105
    4SAPS  C317  526   4.404  -0.280   4.479 -0.9887 -0.1710 -0.6998
    4SAPS  H17X  527   4.437  -0.191   4.421  4.0915 -0.8330  0.6703
    4SAPS  H17Y  528   4.314  -0.315   4.424 -1.0953 -0.7290 -0.1778
    4SAPS  C318  529   4.510  -0.392   4.461 -0.3698  0.4403 -0.4247
    4SAPS  H18X  530   4.577  -0.398   4.549 -2.2104  1.4740  1.1291
    4SAPS  H18Y  531   4.562  -0.389   4.363 -1.1679 -3.2084 -1.1065
    4SAPS  H18Z  532   4.462  -0.492   4.473  0.3211  0.2384  0.7538
    5SAPS     N  533   6.154   2.105   7.142 -0.0059 -0.0368  0.1770
    5SAPS   HN1  534   6.211   2.047   7.078 -0.8104  0.4082 -0.9887
    5SAPS   HN2  535   6.110   2.185   7.091 -0.6719  0.4936  1.5263
    5SAPS   HN3  536   6.218   2.144   7.214  0.2747 -1.5526  0.7856
    5SAPS   C12  537   6.046   2.028   7.205 -0.2502  0.9769 -0.2073
    5SAPS  H12A  538   5.983   1.976   7.135 -1.1645 -0.9600  1.9103
    5SAPS   C13  539   6.102   1.922   7.303 -0.9330  0.0427 -0.9132
    5SAPS  O13A  540   6.229   1.899   7.305 -0.0950  0.1960 -0.2071
    5SAPS  O13B  541   6.025   1.842   7.363 -0.2466 -0.4871 -0.1807
    5SAPS   C11  542   5.947   2.120   7.283  0.4649 -0.1292  0.0365
    5SAPS  H11A  543   5.990   2.155   7.379  0.6754  0.2224 -0.1857
    5SAPS  H11B  544   5.860   2.055   7.306  0.1576  0.5019  0.7033
    5SAPS     P  545   5.761   2.263   7.166  0.3071  0.3760  0.2936
    5SAPS   O13  546   5.683   2.146   7.127  0.3275 -0.0522  0.5929
    5SAPS   O14  547   5.699   2.343   7.274  0.3970  0.3430 -0.2096
    5SAPS   O12  548   5.911   2.227   7.199  0.4111  0.1603  0.1102
    5SAPS   O11  549   5.777   2.351   7.032  0.1081  0.0942 -0.3132
    5SAPS    C1  550   5.868   2.463   7.037  0.4360  0.3050 -1.1142
    5SAPS    HA  551   5.821   2.546   7.094 -2.0032 -0.6332 -1.6036
    5SAPS    HB  552   5.957   2.440   7.099  0.6906 -1.9328 -2.1898
    5SAPS    C2  553   5.904   2.518   6.897 -0.0884  0.0334  0.7293
    5SAPS    HS  554   5.811   2.559   6.852 -0.8622 -1.0699  1.2543
    5SAPS   O21  555   5.958   2.408   6.816 -0.3794  0.0318  0.0078
    5SAPS   C21  556   5.969   2.436   6.686 -0.0003  0.4720  0.1094
    5SAPS   O22  557   5.916   2.531   6.628 -0.0362  0.4043 -0.4249
    5SAPS   C22  558   6.078   2.345   6.626  0.5628 -0.7399 -0.3637
    5SAPS   H2R  559   6.175   2.398   6.632  0.3679 -0.3355 -0.7243
    5SAPS   H2S  560   6.080   2.253   6.688  0.3927  1.4065  3.0486
    5SAPS    C3  561   5.997   2.636   6.930 -0.1186  0.0988  0.1566
    5SAPS    HX  562   6.085   2.582   6.970 -1.8882 -1.2335  2.5163
    5SAPS    HY  563   5.945   2.686   7.015  2.1838  0.8028  1.2079
    5SAPS   O31  564   6.018   2.734   6.824 -0.1086  0.2008  0.0219
    5SAPS   C31  565   6.135   2.726   6.763  0.2292  0.6526  0.2311
    5SAPS   O32  566   6.218   2.639   6.793 -0.1473  0.3652 -0.0509
    5SAPS   C32  567   6.148   2.839   6.659  0.7860  0.1636 -0.0078
    5SAPS   H2X  568   6.183   2.927   6.718  0.5949 -0.5327  1.1864
    5SAPS   H2Y  569   6.047   2.856   6.618  0.6891 -0.6066 -0.1021
    5SAPS   C23  570   6.039   2.310   6.480 -0.4129 -0.2896  0.2166
    5SAPS   H3R  571   6.043   2.404   6.421  1.4955 -1.5526 -1.8600
    5SAPS   H3S  572   5.934   2.279   6.461 -1.0924  2.8128 -1.8270
    5SAPS   C24  573   6.143   2.217   6.421 -0.8660  0.1055  0.0602
    5SAPS   H4R  574   6.241   2.250   6.462 -1.1357  0.9017  0.0878
    5SAPS   H4S  575   6.156   2.248   6.315  0.4119  0.9112  0.4257
    5SAPS   C25  576   6.119   2.070   6.443  0.4298  0.1587  0.4810
    5SAPS   H5R  577   6.107   2.031   6.545 -1.4111 -5.3517 -1.4835
    5SAPS   C26  578   6.126   1.976   6.350  0.2153 -0.3998  0.2096
    5SAPS   H6R  579   6.101   1.872   6.377  1.4065 -0.8670 -0.4048
    5SAPS   C27  580   6.158   1.984   6.200 -0.0197  0.1365 -0.5534
    5SAPS   H7R  581   6.269   1.991   6.189 -0.0837  1.3680 -0.5037
    5SAPS   H7S  582   6.118   2.079   6.159  1.9170  0.0797 -2.7963
    5SAPS   C28  583   6.126   1.864   6.117 -0.6190  0.3053  0.6245
    5SAPS   H8R  584   6.116   1.771   6.174  1.7668  0.2495  1.0519
    5SAPS   C29  585   6.109   1.847   5.982 -0.9680  0.7949 -0.5528
    5SAPS   H9R  586   6.087   1.745   5.949  1.0478 -0.3930  1.5122
    5SAPS  C210  587   6.112   1.954   5.876  0.3129 -0.0373  0.5333
    5SAPS  H10R  588   6.209   1.936   5.825 -0.6992 -0.7280 -1.2194
    5SAPS  H10S  589   6.111   2.048   5.936  2.4632 -0.3793  1.1887
    5SAPS  C211  590   5.996   1.954   5.778  0.4464 -0.1327 -0.0433
    5SAPS  H11R  591   5.892   1.937   5.809  0.2939 -0.0926 -0.5372
    5SAPS  C212  592   6.007   1.976   5.644  0.5400 -0.2919  0.3986
    5SAPS  H12R  593   5.917   1.980   5.581 -0.6816  2.7095  2.1227
    5SAPS  C213  594   6.136   1.995   5.574  0.0184  0.4340 -0.5068
    5SAPS  H13R  595   6.201   1.907   5.594 -0.6964 -0.0694 -0.3361
    5SAPS  H13S  596   6.188   2.085   5.610  0.1644  0.6959 -1.3475
    5SAPS  C214  597   6.124   2.016   5.427  0.8921 -0.0846  0.3699
    5SAPS  H14R  598   6.024   2.008   5.381  0.4147  3.0167  0.7050
    5SAPS  C215  599   6.229   2.034   5.348 -0.4503 -0.7420 -0.7242
    5SAPS  H15R  600   6.197   2.046   5.243 -4.1940 -0.7663  0.2658
    5SAPS  C216  601   6.367   2.061   5.402 -0.0884  0.2285  0.0837
    5SAPS  H16R  602   6.444   1.999   5.352 -0.5480  0.0609 -0.4294
    5SAPS  H16S  603   6.379   2.024   5.506 -0.4194  0.0112  0.0464
    5SAPS  C217  604   6.407   2.209   5.396  0.8431  0.2228  0.1224
    5SAPS  H17R  605   6.324   2.259   5.450  1.2470  1.2298 -0.1499
    5SAPS  H17S  606   6.411   2.234   5.288  2.2305 -0.8476 -0.0994
    5SAPS  C218  607   6.539   2.237   5.458 -0.9270 -0.1707  0.3568
    5SAPS  H18R  608   6.616   2.167   5.419 -1.5813  0.2053 -1.7373
    5SAPS  H18S  609   6.536   2.232   5.569 -0.4182  0.8889  0.4389
    5SAPS  C219  610   6.587   2.381   5.425 -0.2561 -0.2980 -0.2829
    5SAPS  H19R  611   6.566   2.405   5.319 -2.0283  0.1298  0.1386
    5SAPS  H19S  612   6.694   2.385   5.454 -0.6529 -0.1018  1.2192
    5SAPS  C220  613   6.515   2.493   5.508 -0.0520 -0.7800 -0.4948
    5SAPS  H20R  614   6.546   2.590   5.464  1.1229 -0.5830  0.7004
    5SAPS  H20S  615   6.545   2.489   5.615 -2.7595 -2.5305  0.2996
    5SAPS  H20T  616   6.405   2.486   5.496 -0.3186 -0.7793  1.5609
    5SAPS   C33  617   6.259   2.802   6.557  0.3041 -0.2092  0.0313
    5SAPS   H3X  618   6.353   2.782   6.612  1.0433  1.9478 -0.3888
    5SAPS   H3Y  619   6.273   2.897   6.502  1.5631  0.2653  1.1304
    5SAPS   C34  620   6.228   2.688   6.460 -0.2641  0.1404  0.3760
    5SAPS   H4X  621   6.119   2.679   6.439 -0.3428 -1.0845  1.1926
    5SAPS   H4Y  622   6.267   2.596   6.508  4.1525  2.1647  1.0777
    5SAPS   C35  623   6.303   2.700   6.319 -0.2918 -0.8157  0.0244
    5SAPS   H5X  624   6.283   2.804   6.286 -2.2492 -0.5620  1.8078
    5SAPS   H5Y  625   6.271   2.621   6.247 -0.7705 -2.5031  1.9926
    5SAPS   C36  626   6.457   2.682   6.337  0.3767 -0.0203  0.3602
    5SAPS   H6X  627   6.488   2.575   6.343 -1.8807 -0.9527 -2.3795
    5SAPS   H6Y  628   6.493   2.731   6.429  0.9650  0.2540 -0.0152
    5SAPS   C37  629   6.532   2.725   6.218 -0.1730 -0.5494 -0.5157
    5SAPS   H7X  630   6.525   2.834   6.195  1.6656 -0.3060 -0.1128
    5SAPS   H7Y  631   6.485   2.677   6.129  0.3726 -1.3403 -0.3937
    5SAPS   C38  632   6.676   2.682   6.212 -0.6914  0.4710 -0.2497
    5SAPS   H8X  633   6.691   2.581   6.256  1.0498  0.1696 -1.4227
    5SAPS   H8Y  634   6.739   2.745   6.279  1.9128 -2.5251  0.3590
    5SAPS   C39  635   6.746   2.690   6.072 -0.3150 -0.4291 -0.4459
    5SAPS   H9X  636   6.855   2.672   6.085  0.0788  2.2592  0.5632
    5SAPS   H9Y  637   6.717   2.790   6.032 -0.4937  0.1040  0.9748
    5SAPS  C310  638   6.684   2.585   5.979  0.0230  0.7483  0.6678
    5SAPS  H10X  639   6.589   2.621   5.934  0.2515 -1.8429 -2.3042
    5SAPS  H10Y  640   6.670   2.490   6.035  0.2021  1.0945  1.3058
    5SAPS  C311  641   6.781   2.552   5.863 -0.3008 -0.0081  0.8911
    5SAPS  H11X  642   6.752   2.456   5.815 -1.0969  0.9857 -0.7081
    5SAPS  H11Y  643   6.883   2.527   5.899 -0.2738 -1.2732  0.0188
    5SAPS  C312  644   6.786   2.663   5.754  0.0555  1.3974 -0.7535
    5SAPS  H12X  645   6.828   2.748   5.811  1.2238 -1.0226  2.3483
    5SAPS  H12Y  646   6.681   2.684   5.724 -0.1205  1.7085  0.0758
    5SAPS  C313  647   6.859   2.627   5.627  0.1291  0.4823  0.2215
    5SAPS  H13X  648   6.804   2.551   5.567  1.5943 -1.0551  0.7333
    5SAPS  H13Y  649   6.959   2.606   5.672  1.1430  1.9300 -1.2145
    5SAPS  C314  650   6.889   2.747   5.534  1.4088 -0.3352 -0.2328
    5SAPS  H14X  651   6.932   2.828   5.596 -1.7849  0.0613  1.7148
    5SAPS  H14Y  652   6.789   2.780   5.499  0.9252 -0.8449  0.6107
    5SAPS  C315  653   6.980   2.722   5.423  0.6277  0.2251 -0.2750
    5SAPS  H15X  654   7.074   2.675   5.458  1.9893  2.3019 -0.9407
    5SAPS  H15Y  655   7.007   2.821   5.381  0.7577 -0.3695 -1.6496
    5SAPS  C316  656   6.911   2.643   5.314  0.2617 -0.2630 -0.5089
    5SAPS  H16X  657   6.809   2.685   5.300 -0.6246 -2.4283 -0.9643
    5SAPS  H16Y  658   6.898   2.540   5.353  2.1334  0.0382  1.0304
    5SAPS  C317  659   6.979   2.638   5.168  0.7793 -0.4528 -0.2766
    5SAPS  H17X  660   7.022   2.740   5.157 -2.1518  1.0442  1.0483
    5SAPS  H17Y  661   6.889   2.632   5.103  1.4402 -1.6278 -1.1235
    5SAPS  C318  662   7.075   2.525   5.136 -0.1004  0.0037 -0.0788
    5SAPS  H18X  663   7.163   2.527   5.203 -0.4821  0.7267  0.4077
    5SAPS  H18Y  664   7.100   2.534   5.028 -0.5408 -1.1499 -0.2937
    5SAPS  H18Z  665   7.032   2.422   5.141  0.0568 -0.1354 -1.3404
    6SAPS     N  666   3.658   2.716   6.966 -0.1916  0.1205  0.1901
    6SAPS   HN1  667   3.716   2.662   7.033  0.3707  0.6026  0.0981
    6SAPS   HN2  668   3.654   2.813   7.003  0.9093 -0.1115  0.9723
    6SAPS   HN3  669   3.563   2.675   6.957  0.1735 -0.2735 -2.6258
    6SAPS   C12  670   3.725   2.718   6.830 -0.6059  1.1491 -0.3191
    6SAPS  H12A  671   3.685   2.797   6.768  0.0299  2.0205  0.3572
    6SAPS   C13  672   3.879   2.755   6.832  0.7086 -0.3859 -0.5807
    6SAPS  O13A  673   3.940   2.763   6.941 -0.2848 -0.8050  0.5985
    6SAPS  O13B  674   3.935   2.765   6.718 -0.4450 -0.1613 -0.0580
    6SAPS   C11  675   3.694   2.591   6.746 -0.0735 -0.1842 -0.7607
    6SAPS  H11A  676   3.756   2.510   6.791 -0.2420  0.6780  1.1104
    6SAPS  H11B  677   3.730   2.617   6.644  0.0994  2.7787 -0.0281
    6SAPS     P  678   3.439   2.582   6.660 -0.1692  0.3525  0.3915
    6SAPS   O13  679   3.306   2.549   6.717 -0.4083 -0.3517  0.1359
    6SAPS   O14  680   3.461   2.716   6.599  0.2858 -0.0548 -0.1808
    6SAPS   O12  681   3.555   2.562   6.763  0.4498  0.5413  0.9249
    6SAPS   O11  682   3.484   2.473   6.559 -0.4886  0.7840 -0.2231
    6SAPS    C1  683   3.480   2.334   6.587  0.0280  0.5561  0.4349
    6SAPS    HA  684   3.581   2.291   6.606 -0.6810 -2.3889 -1.6989
    6SAPS    HB  685   3.413   2.305   6.671  0.3874 -2.1157 -0.0956
    6SAPS    C2  686   3.419   2.257   6.462  0.0717  0.2008 -0.4221
    6SAPS    HS  687   3.428   2.149   6.487 -3.2381 -0.0418  0.2173
    6SAPS   O21  688   3.495   2.292   6.349 -0.0619  0.2651 -0.5017
    6SAPS   C21  689   3.509   2.194   6.259 -0.0922 -0.5184  0.2067
    6SAPS   O22  690   3.462   2.083   6.265  1.3366 -0.1572 -0.7660
    6SAPS   C22  691   3.586   2.251   6.134  0.2169 -0.2793  0.8641
    6SAPS   H2R  692   3.571   2.362   6.137  0.9637 -0.1790  1.0268
    6SAPS   H2S  693   3.695   2.237   6.147  0.8826  0.7270 -2.5488
    6SAPS    C3  694   3.265   2.305   6.444  0.1335 -0.5002  0.1067
    6SAPS    HX  695   3.249   2.412   6.467 -0.4416 -0.5817  0.1082
    6SAPS    HY  696   3.221   2.262   6.537 -2.0515 -1.0517 -1.1178
    6SAPS   O31  697   3.195   2.251   6.331 -0.1026 -0.3230  0.1950
    6SAPS   C31  698   3.114   2.337   6.262 -0.5885 -0.2738 -0.2646
    6SAPS   O32  699   3.120   2.456   6.269  0.1326 -0.6541  0.0587
    6SAPS   C32  700   3.033   2.261   6.159 -0.0903 -0.2521 -0.0910
    6SAPS   H2X  701   2.952   2.203   6.208 -0.7325 -0.4284 -1.3150
    6SAPS   H2Y  702   3.105   2.189   6.115  2.1071  1.0249  1.2492
    6SAPS   C23  703   3.541   2.197   5.994  0.1151  0.1840 -0.1406
    6SAPS   H3R  704   3.548   2.086   5.987  0.8457  0.2105  0.1251
    6SAPS   H3S  705   3.604   2.234   5.909 -0.6756 -0.3027 -0.9560
    6SAPS   C24  706   3.396   2.230   5.966  0.3373  0.4377 -0.9533
    6SAPS   H4R  707   3.372   2.338   5.975 -1.2657 -0.0621  1.6662
    6SAPS   H4S  708   3.327   2.185   6.040  0.6211  1.1055 -0.2762
    6SAPS   C25  709   3.363   2.183   5.823  0.7420  0.2716  0.1597
    6SAPS   H5R  710   3.324   2.080   5.821  1.9253 -0.1865  0.4635
    6SAPS   C26  711   3.364   2.250   5.708 -0.3780  0.6491 -0.9854
    6SAPS   H6R  712   3.335   2.194   5.618  0.2425 -1.1147 -0.1275
    6SAPS   C27  713   3.402   2.387   5.686 -0.5545 -0.1715  0.0188
    6SAPS   H7R  714   3.474   2.383   5.601 -0.6035 -0.6246 -0.0019
    6SAPS   H7S  715   3.458   2.431   5.771 -1.3106  1.1771 -0.1489
    6SAPS   C28  716   3.289   2.485   5.666 -0.0938  0.6397  0.2494
    6SAPS   H8R  717   3.258   2.533   5.761 -1.3938  0.8574 -0.2622
    6SAPS   C29  718   3.217   2.494   5.554 -0.7507  0.0189  0.1525
    6SAPS   H9R  719   3.133   2.565   5.556 -0.8726  0.0615 -2.6467
    6SAPS  C210  720   3.257   2.423   5.423  0.4748 -0.6586  0.3839
    6SAPS  H10R  721   3.201   2.471   5.340  4.0886  0.3474 -1.6876
    6SAPS  H10S  722   3.243   2.314   5.437  0.9922 -0.7076  0.5442
    6SAPS  C211  723   3.399   2.423   5.357  0.5075 -0.0920  0.0604
    6SAPS  H11R  724   3.484   2.435   5.426 -0.8585  0.9611  1.6275
    6SAPS  C212  725   3.418   2.375   5.235 -0.3658 -0.4034 -0.5060
    6SAPS  H12R  726   3.521   2.361   5.199 -0.4841 -0.1602 -0.9446
    6SAPS  C213  727   3.311   2.344   5.135  0.2222 -0.0337 -0.0181
    6SAPS  H13R  728   3.211   2.334   5.182  0.2001  0.6656  0.1010
    6SAPS  H13S  729   3.330   2.242   5.096  0.2698 -0.2203  0.4787
    6SAPS  C214  730   3.289   2.441   5.028  0.0023  0.6274  0.1866
    6SAPS  H14R  731   3.237   2.532   5.061 -3.1151 -0.9961  0.0594
    6SAPS  C215  732   3.303   2.427   4.895 -0.7717 -0.3962  0.1346
    6SAPS  H15R  733   3.286   2.522   4.843  0.4702  1.0667  2.2363
    6SAPS  C216  734   3.359   2.313   4.822 -0.6073  0.3049 -0.2281
    6SAPS  H16R  735   3.397   2.236   4.892  0.3078 -1.0909 -2.1479
    6SAPS  H16S  736   3.455   2.342   4.772  0.0908  1.8842  1.8725
    6SAPS  C217  737   3.256   2.243   4.733  0.3080 -0.9075  0.2392
    6SAPS  H17R  738   3.161   2.221   4.787  1.0790 -3.3471  0.7624
    6SAPS  H17S  739   3.307   2.147   4.708  0.4532 -0.5139 -1.0305
    6SAPS  C218  740   3.229   2.317   4.607  0.5392 -0.4202 -0.1625
    6SAPS  H18R  741   3.320   2.361   4.561  0.7614  0.5112  1.1260
    6SAPS  H18S  742   3.167   2.403   4.640 -0.8212 -2.3307  2.6626
    6SAPS  C219  743   3.159   2.243   4.494 -0.5613  0.2926  0.2299
    6SAPS  H19R  744   3.215   2.153   4.459  0.6136  0.9638  0.3410
    6SAPS  H19S  745   3.151   2.314   4.409 -1.4265  0.2382  0.2604
    6SAPS  C220  746   3.019   2.187   4.528  0.6681  0.3316  0.4122
    6SAPS  H20R  747   2.955   2.271   4.563  1.5979  1.3960 -0.3729
    6SAPS  H20S  748   3.027   2.097   4.592 -1.6920 -2.3092 -2.6601
    6SAPS  H20T  749   2.982   2.142   4.433 -0.9625  0.6686  0.8640
    6SAPS   C33  750   2.975   2.351   6.047  0.8960  0.0604  0.1469
    6SAPS   H3X  751   3.041   2.429   6.003 -1.4266  1.5054 -1.0331
    6SAPS   H3Y  752   2.883   2.410   6.071 -0.0632 -0.9950 -0.7927
    6SAPS   C34  753   2.928   2.258   5.936 -0.2715  0.4555  0.1908
    6SAPS   H4X  754   2.843   2.194   5.968  1.0042 -1.5243 -0.1762
    6SAPS   H4Y  755   3.013   2.191   5.911 -1.6924 -0.8898 -1.2529
    6SAPS   C35  756   2.904   2.321   5.799  0.1578 -0.6025  0.6123
    6SAPS   H5X  757   2.980   2.402   5.794  0.1261 -0.5474  0.9702
    6SAPS   H5Y  758   2.805   2.370   5.803  0.7745  0.6792  0.7416
    6SAPS   C36  759   2.907   2.226   5.684 -0.2354 -0.2729 -0.3662
    6SAPS   H6X  760   2.840   2.137   5.692  1.7220 -1.7544  0.4605
    6SAPS   H6Y  761   3.008   2.179   5.678  0.1387  0.4078  0.5133
    6SAPS   C37  762   2.882   2.302   5.553 -0.5242  0.6670  0.2898
    6SAPS   H7X  763   2.966   2.374   5.540 -0.1514  0.3083  0.7006
    6SAPS   H7Y  764   2.791   2.366   5.551 -1.5575 -0.7729 -0.4070
    6SAPS   C38  765   2.876   2.207   5.436 -0.1243  0.1859 -0.7125
    6SAPS   H8X  766   2.788   2.147   5.467  1.4655 -1.3290  1.0948
    6SAPS   H8Y  767   2.970   2.149   5.431 -1.1397 -1.8356  1.8670
    6SAPS   C39  768   2.856   2.271   5.301  0.1358  0.0910 -0.1842
    6SAPS   H9X  769   2.956   2.307   5.269  0.1010 -0.8366 -1.3991
    6SAPS   H9Y  770   2.789   2.360   5.299 -3.2910 -2.2783  0.4455
    6SAPS  C310  771   2.794   2.176   5.201  0.3528  1.0321 -0.6220
    6SAPS  H10X  772   2.688   2.153   5.226  0.1114  0.2878 -2.2333
    6SAPS  H10Y  773   2.842   2.077   5.212 -1.6486  0.1771  1.1416
    6SAPS  C311  774   2.782   2.231   5.058  0.5031  0.0379 -0.2850
    6SAPS  H11X  775   2.882   2.280   5.048 -0.2173  1.5936 -0.2811
    6SAPS  H11Y  776   2.708   2.314   5.057  0.3101 -0.1220  0.4629
    6SAPS  C312  777   2.749   2.120   4.957 -0.4470 -0.3930 -0.1673
    6SAPS  H12X  778   2.639   2.106   4.960 -0.3136 -1.9676 -1.3925
    6SAPS  H12Y  779   2.804   2.035   5.002 -0.6658 -0.2631  0.3585
    6SAPS  C313  780   2.799   2.160   4.817 -0.0369 -0.3165  0.1490
    6SAPS  H13X  781   2.908   2.159   4.798 -0.1976 -1.4475 -0.8436
    6SAPS  H13Y  782   2.767   2.266   4.815  3.0018  0.7255  1.2205
    6SAPS  C314  783   2.746   2.051   4.709 -0.2671  0.2669 -0.5203
    6SAPS  H14X  784   2.758   2.086   4.604  0.1625 -1.2220 -0.9977
    6SAPS  H14Y  785   2.639   2.025   4.723  0.1511 -0.4055  1.9307
    6SAPS  C315  786   2.821   1.915   4.729  0.3470 -0.3738 -0.4326
    6SAPS  H15X  787   2.807   1.883   4.834  2.7830 -0.9615 -0.2359
    6SAPS  H15Y  788   2.930   1.917   4.709  0.7511  4.6536  0.9301
    6SAPS  C316  789   2.758   1.818   4.627 -0.1391 -0.5441 -0.1648
    6SAPS  H16X  790   2.648   1.826   4.639  0.0237 -1.3129  2.3576
    6SAPS  H16Y  791   2.787   1.714   4.655 -0.2846 -0.6744 -0.4877
    6SAPS  C317  792   2.806   1.849   4.482 -1.0756 -1.1227 -0.3712
    6SAPS  H17X  793   2.916   1.840   4.476 -1.0846 -1.7298  0.2923
    6SAPS  H17Y  794   2.775   1.950   4.445  1.8190  0.4228  1.0888
    6SAPS  C318  795   2.747   1.754   4.378  0.1028  0.2216 -0.1423
    6SAPS  H18X  796   2.781   1.770   4.273  0.4747 -0.4678 -0.1341
    6SAPS  H18Y  797   2.638   1.771   4.389 -0.1799 -2.0644  1.0812
    6SAPS  H18Z  798   2.776   1.650   4.405  0.8250  0.2112 -0.8910
    7SAPS     N  799   4.551   3.756   7.006 -0.2105 -0.6532 -0.8625
    7SAPS   HN1  800   4.634   3.796   7.054  0.6602 -0.8332 -2.1581
    7SAPS   HN2  801   4.550   3.654   7.028  0.8157 -0.5110 -0.1060
    7SAPS   HN3  802   4.571   3.769   6.905  1.0989 -0.1145 -0.5569
    7SAPS   C12  803   4.429   3.829   7.051 -0.6631 -0.0650 -0.0961
    7SAPS  H12A  804   4.344   3.776   7.011 -0.5514 -0.7215  0.5036
    7SAPS   C13  805   4.403   3.841   7.198 -0.7618 -0.1459  0.1228
    7SAPS  O13A  806   4.487   3.801   7.282 -0.6192  0.1307  0.3663
    7SAPS  O13B  807   4.313   3.915   7.240  0.1328  0.3881 -0.0873
    7SAPS   C11  808   4.428   3.979   6.991 -0.1727  0.1193  0.9347
    7SAPS  H11A  809   4.517   4.023   7.040  0.0042  1.2451 -0.3337
    7SAPS  H11B  810   4.340   4.039   7.025  1.1102  1.3834  2.1665
    7SAPS     P  811   4.554   4.004   6.763  0.1592 -0.1535  0.0094
    7SAPS   O13  812   4.593   4.141   6.790 -0.4224  0.3152 -0.2547
    7SAPS   O14  813   4.653   3.897   6.796 -0.3751  0.1804  0.3260
    7SAPS   O12  814   4.425   3.974   6.850  0.5128  0.0805 -0.2291
    7SAPS   O11  815   4.495   3.980   6.625  0.1974 -0.3106 -0.0289
    7SAPS    C1  816   4.370   4.022   6.567 -0.1653 -0.1402  0.2211
    7SAPS    HA  817   4.310   3.935   6.533  0.4883 -0.1930 -0.8408
    7SAPS    HB  818   4.301   4.079   6.633 -1.3411  1.4063 -2.1799
    7SAPS    C2  819   4.399   4.111   6.440 -1.3776 -0.1488 -0.7252
    7SAPS    HS  820   4.312   4.154   6.385 -0.4267 -0.0160 -2.1746
    7SAPS   O21  821   4.482   4.035   6.343  0.1545  0.1029  0.0616
    7SAPS   C21  822   4.413   3.987   6.241 -0.2330 -0.8030 -0.5824
    7SAPS   O22  823   4.291   3.982   6.237  0.9359  0.3743  0.4628
    7SAPS   C22  824   4.501   3.923   6.138 -0.8748  0.1681  0.8482
    7SAPS   H2R  825   4.606   3.951   6.158 -0.5983 -1.7683  2.3891
    7SAPS   H2S  826   4.493   3.813   6.154  2.7807 -0.2704  0.3750
    7SAPS    C3  827   4.483   4.242   6.489  0.7096  0.0067 -0.3133
    7SAPS    HX  828   4.580   4.210   6.535  0.7326  2.2149  1.3552
    7SAPS    HY  829   4.422   4.289   6.569  1.2289 -2.2202  1.5147
    7SAPS   O31  830   4.496   4.323   6.374  0.1997  0.4646 -0.3627
    7SAPS   C31  831   4.589   4.427   6.384 -0.1787  0.0553 -0.1585
    7SAPS   O32  832   4.682   4.430   6.461 -0.2607 -0.1508  0.0228
    7SAPS   C32  833   4.558   4.533   6.269 -0.0709  0.6060  0.3010
    7SAPS   H2X  834   4.587   4.637   6.296  0.8503  0.6727 -0.9076
    7SAPS   H2Y  835   4.447   4.538   6.266 -0.1176  1.2862  1.8475
    7SAPS   C23  836   4.460   3.955   5.997 -0.3651  0.0984 -0.2955
    7SAPS   H3R  837   4.442   4.064   5.987  1.9948  0.4986 -0.7807
    7SAPS   H3S  838   4.366   3.899   5.976  1.7648 -4.3360  0.6097
    7SAPS   C24  839   4.555   3.896   5.888  0.4827 -0.1470  0.3860
    7SAPS   H4R  840   4.493   3.906   5.796 -0.0612  0.5641  0.8204
    7SAPS   H4S  841   4.569   3.788   5.912  0.9276 -0.3274 -0.6351
    7SAPS   C25  842   4.685   3.966   5.887 -0.2919  0.4842  0.2428
    7SAPS   H5R  843   4.746   3.979   5.977 -1.2094 -1.5968  1.2314
    7SAPS   C26  844   4.736   4.028   5.780  0.5176  0.5269  0.1415
    7SAPS   H6R  845   4.835   4.075   5.792  0.4060  0.4041  1.7328
    7SAPS   C27  846   4.686   4.021   5.642  1.0356  0.3204  0.2133
    7SAPS   H7R  847   4.576   4.007   5.634  1.1368 -0.0812 -0.5542
    7SAPS   H7S  848   4.729   3.927   5.602 -1.9587 -0.7195 -0.8659
    7SAPS   C28  849   4.717   4.131   5.544 -0.2734  0.0211 -0.3351
    7SAPS   H8R  850   4.741   4.227   5.592 -1.4533  0.9078 -1.4382
    7SAPS   C29  851   4.717   4.122   5.409 -1.0980 -0.3854  0.5029
    7SAPS   H9R  852   4.766   4.209   5.361  2.6591 -0.2982  3.9227
    7SAPS  C210  853   4.665   4.014   5.328  0.1177 -0.2186 -0.8603
    7SAPS  H10R  854   4.556   4.026   5.312 -0.0744 -0.0690  0.3971
    7SAPS  H10S  855   4.679   3.920   5.386 -1.5335  0.7033  1.1604
    7SAPS  C211  856   4.735   4.004   5.194  0.0188  0.0010  0.0751
    7SAPS  H11R  857   4.830   3.949   5.201 -0.0733 -0.1296  0.3305
    7SAPS  C212  858   4.690   4.044   5.076  0.5085  0.2406 -0.8466
    7SAPS  H12R  859   4.742   4.012   4.984  0.2701  0.8314 -1.1933
    7SAPS  C213  860   4.552   4.095   5.054  0.9755 -0.9451  0.1842
    7SAPS  H13R  861   4.553   4.187   4.992 -1.7423  0.3829  1.9111
    7SAPS  H13S  862   4.490   4.128   5.140  0.3664  1.6340 -1.1425
    7SAPS  C214  863   4.472   3.999   4.979 -0.1883  0.3704 -0.2646
    7SAPS  H14R  864   4.413   3.928   5.040 -1.6871 -1.9335 -4.0520
    7SAPS  C215  865   4.459   3.986   4.848 -0.9331  0.8005  0.3884
    7SAPS  H15R  866   4.392   3.908   4.808  0.9606 -0.2920 -0.8719
    7SAPS  C216  867   4.533   4.070   4.746  0.7082 -0.0667 -0.4152
    7SAPS  H16R  868   4.606   4.015   4.684  1.8647 -0.3413  1.1268
    7SAPS  H16S  869   4.606   4.137   4.796  0.1508 -0.6587  1.2793
    7SAPS  C217  870   4.452   4.150   4.644 -0.4604 -0.1807 -0.4651
    7SAPS  H17R  871   4.401   4.080   4.574 -0.3550  0.7106 -1.4614
    7SAPS  H17S  872   4.534   4.203   4.590  0.9620  0.4567  2.1731
    7SAPS  C218  873   4.352   4.259   4.699 -0.4498 -0.5202  0.2361
    7SAPS  H18R  874   4.394   4.334   4.771 -0.1180  1.0296 -1.4933
    7SAPS  H18S  875   4.268   4.211   4.754 -0.2224  0.5779  1.6143
    7SAPS  C219  876   4.286   4.341   4.588  1.0190  0.7017 -0.3533
    7SAPS  H19R  877   4.363   4.406   4.540  0.5291  2.6013  1.2736
    7SAPS  H19S  878   4.209   4.404   4.637  0.9117  0.7097 -0.5301
    7SAPS  C220  879   4.202   4.260   4.486  0.1928 -0.4415  0.3736
    7SAPS  H20R  880   4.139   4.324   4.420 -1.9970 -1.5728  1.2587
    7SAPS  H20S  881   4.140   4.179   4.531  0.6475 -1.1454 -0.2375
    7SAPS  H20T  882   4.280   4.210   4.425 -1.1526 -3.2484  0.8048
    7SAPS   C33  883   4.625   4.492   6.135  0.2746 -0.7328 -0.5530
    7SAPS   H3X  884   4.709   4.420   6.144  1.5442  0.6867 -0.5425
    7SAPS   H3Y  885   4.679   4.584   6.101 -0.4401 -0.4737 -1.0163
    7SAPS   C34  886   4.533   4.458   6.018 -0.8177  0.4180  0.8560
    7SAPS   H4X  887   4.443   4.523   6.012 -1.0808 -0.0757 -1.6445
    7SAPS   H4Y  888   4.490   4.356   6.011  1.1535 -0.4419  0.6225
    7SAPS   C35  889   4.609   4.465   5.888 -0.0680 -0.4055 -0.2466
    7SAPS   H5X  890   4.680   4.380   5.892 -0.5860 -1.0087 -2.4434
    7SAPS   H5Y  891   4.668   4.558   5.882  0.2800 -0.4589  1.8109
    7SAPS   C36  892   4.516   4.453   5.765 -0.2416 -0.7086  0.1416
    7SAPS   H6X  893   4.432   4.521   5.791 -2.3481 -2.8583 -0.6811
    7SAPS   H6Y  894   4.486   4.346   5.763  0.4941 -0.9400  0.9062
    7SAPS   C37  895   4.592   4.493   5.629  0.8938  0.2052 -0.2133
    7SAPS   H7X  896   4.671   4.415   5.627 -0.3218 -1.1248  0.8864
    7SAPS   H7Y  897   4.631   4.595   5.646 -2.8906  1.4383  2.5114
    7SAPS   C38  898   4.513   4.465   5.504  0.0055 -0.2565  0.2916
    7SAPS   H8X  899   4.422   4.528   5.500  1.0990  1.3726  0.2792
    7SAPS   H8Y  900   4.484   4.359   5.490  1.4184 -0.5136 -0.9524
    7SAPS   C39  901   4.594   4.512   5.383 -0.5637  0.6318 -0.5165
    7SAPS   H9X  902   4.674   4.435   5.375 -1.4357 -0.1469 -2.7583
    7SAPS   H9Y  903   4.630   4.617   5.385 -0.4859  0.6523 -1.9550
    7SAPS  C310  904   4.507   4.509   5.249 -0.1550  0.0243  0.3613
    7SAPS  H10X  905   4.425   4.584   5.251 -0.0136  0.2307 -0.7730
    7SAPS  H10Y  906   4.469   4.405   5.247  0.7005 -0.3286  1.4083
    7SAPS  C311  907   4.598   4.548   5.128  0.2158 -0.1733  0.2905
    7SAPS  H11X  908   4.674   4.467   5.128 -1.5278 -1.9063 -0.8035
    7SAPS  H11Y  909   4.653   4.644   5.137  1.7154 -0.9530 -0.1337
    7SAPS  C312  910   4.540   4.522   4.989  0.2070 -0.1624  0.6865
    7SAPS  H12X  911   4.452   4.586   4.965 -0.0545  0.2872  2.6622
    7SAPS  H12Y  912   4.505   4.417   4.978  0.1072 -0.0675  0.0671
    7SAPS  C313  913   4.654   4.542   4.877  0.2118 -0.6898 -0.2917
    7SAPS  H13X  914   4.740   4.482   4.915 -0.0226 -0.8890 -0.0737
    7SAPS  H13Y  915   4.688   4.647   4.882 -2.4077  0.2051  3.4197
    7SAPS  C314  916   4.606   4.501   4.745  0.1638 -0.4161 -0.0653
    7SAPS  H14X  917   4.498   4.526   4.732  0.0352 -0.8010  0.2417
    7SAPS  H14Y  918   4.612   4.392   4.722 -0.8317 -0.6712  0.7607
    7SAPS  C315  919   4.680   4.563   4.628 -0.2848  0.4904  0.7189
    7SAPS  H15X  920   4.656   4.503   4.537 -0.4437  0.6634  0.6466
    7SAPS  H15Y  921   4.790   4.555   4.642 -0.3659 -1.3518  0.4980
    7SAPS  C316  922   4.648   4.706   4.607 -0.0946 -0.4010 -0.1938
    7SAPS  H16X  923   4.626   4.740   4.710 -0.5749 -0.7308 -0.1817
    7SAPS  H16Y  924   4.550   4.712   4.555 -0.7717  3.2212  1.2299
    7SAPS  C317  925   4.763   4.788   4.554 -0.5061 -0.3193  0.1568
    7SAPS  H17X  926   4.807   4.732   4.469  1.2101 -1.1829  1.5483
    7SAPS  H17Y  927   4.847   4.796   4.626 -1.4922 -1.4756  1.5077
    7SAPS  C318  928   4.724   4.918   4.499  1.0186 -0.0380 -0.5787
    7SAPS  H18X  929   4.817   4.965   4.459  0.0374  1.3211 -1.3530
    7SAPS  H18Y  930   4.683   4.988   4.575 -5.2899 -1.1597 -2.3715
    7SAPS  H18Z  931   4.649   4.919   4.417  0.1568 -2.2850  0.1178
    8SAPS     N  932   4.843   5.491   7.037  0.2356 -0.2400 -0.5825
    8SAPS   HN1  933   4.936   5.536   7.053 -0.4434  1.1654 -0.5194
    8SAPS   HN2  934   4.840   5.404   7.094  1.2141  0.5640  0.7451
    8SAPS   HN3  935   4.833   5.474   6.935  0.5503  0.7946 -0.7945
    8SAPS   C12  936   4.723   5.577   7.089  0.4922  0.4936  0.4862
    8SAPS  H12A  937   4.632   5.545   7.041  1.4508 -0.7560 -0.5423
    8SAPS   C13  938   4.696   5.576   7.241 -0.2241  0.1233  0.3505
    8SAPS  O13A  939   4.782   5.536   7.322  0.3293  0.5037  1.0051
    8SAPS  O13B  940   4.599   5.641   7.283  0.2711  0.5814 -0.0932
    8SAPS   C11  941   4.754   5.725   7.056 -1.0026 -0.0611  0.1267
    8SAPS  H11A  942   4.858   5.749   7.087 -0.8173  0.0453 -0.5654
    8SAPS  H11B  943   4.681   5.786   7.113 -0.4029  0.8447 -0.0534
    8SAPS     P  944   4.727   5.854   6.819  0.3486 -0.0273  0.0978
    8SAPS   O13  945   4.607   5.928   6.859 -0.2802 -0.7626  0.1398
    8SAPS   O14  946   4.856   5.925   6.808 -0.2960  0.2104 -0.1713
    8SAPS   O12  947   4.748   5.729   6.911  0.2814  0.4933 -0.5928
    8SAPS   O11  948   4.695   5.796   6.675  0.6548 -0.2179  0.1540
    8SAPS    C1  949   4.569   5.723   6.666 -0.0993 -0.2250  0.5057
    8SAPS    HA  950   4.514   5.711   6.762  0.2981  1.9008  1.0535
    8SAPS    HB  951   4.497   5.777   6.600 -1.7678 -0.9733  1.6417
    8SAPS    C2  952   4.592   5.575   6.608 -0.4875 -0.0816  0.4412
    8SAPS    HS  953   4.558   5.503   6.686 -2.4323 -1.1976 -1.3354
    8SAPS   O21  954   4.725   5.548   6.571  1.1396  0.6965  0.1204
    8SAPS   C21  955   4.785   5.457   6.645  0.4790  0.6749 -0.1177
    8SAPS   O22  956   4.736   5.408   6.747  0.4071  0.2384  0.2026
    8SAPS   C22  957   4.928   5.427   6.590  0.3381  0.2251 -0.2303
    8SAPS   H2R  958   4.925   5.471   6.487 -1.8358  1.6820  0.3693
    8SAPS   H2S  959   4.998   5.479   6.658  0.0432 -0.2360  0.4332
    8SAPS    C3  960   4.499   5.558   6.489 -0.1318  0.3919 -0.0615
    8SAPS    HX  961   4.520   5.644   6.421  0.5662 -1.5616 -2.4735
    8SAPS    HY  962   4.394   5.568   6.525  0.6142 -1.1425  2.7538
    8SAPS   O31  963   4.525   5.428   6.430 -0.0791  0.1557 -0.1621
    8SAPS   C31  964   4.447   5.329   6.482  0.2621 -0.3225 -0.5837
    8SAPS   O32  965   4.385   5.329   6.586 -0.1378 -0.7603  0.3598
    8SAPS   C32  966   4.446   5.210   6.385 -1.0869  0.2364  0.5240
    8SAPS   H2X  967   4.469   5.115   6.439 -0.9626  0.3379  0.6493
    8SAPS   H2Y  968   4.529   5.225   6.313  1.4368  0.0879  3.1878
    8SAPS   C23  969   4.969   5.272   6.604  0.1880  0.1662  0.1108
    8SAPS   H3R  970   4.915   5.223   6.688 -0.2638 -0.4347 -0.5169
    8SAPS   H3S  971   5.080   5.275   6.605  0.1563  1.5886  0.3669
    8SAPS   C24  972   4.926   5.193   6.475  1.1392 -0.4478  0.7023
    8SAPS   H4R  973   4.821   5.213   6.446  1.2338  0.7543  1.1150
    8SAPS   H4S  974   4.923   5.085   6.501 -1.1244 -1.0991 -1.7687
    8SAPS   C25  975   5.013   5.213   6.359  0.9257 -0.0237  0.4099
    8SAPS   H5R  976   5.116   5.176   6.372  1.6046  1.8428  0.6762
    8SAPS   C26  977   4.966   5.257   6.235 -0.4132  0.6309  0.3239
    8SAPS   H6R  978   5.041   5.276   6.156 -0.5689  0.6413  0.1780
    8SAPS   C27  979   4.823   5.299   6.201  0.6016 -0.4782  0.2919
    8SAPS   H7R  980   4.828   5.383   6.128 -2.5908  0.4629  0.9664
    8SAPS   H7S  981   4.762   5.333   6.288 -0.9284 -2.0748 -0.0997
    8SAPS   C28  982   4.775   5.175   6.137  0.5520 -1.2030  0.1944
    8SAPS   H8R  983   4.734   5.100   6.206 -0.1051  0.5026  1.7403
    8SAPS   C29  984   4.760   5.138   6.008 -0.5004  0.4275 -0.0458
    8SAPS   H9R  985   4.721   5.036   5.989  0.5717  0.1258 -0.7589
    8SAPS  C210  986   4.799   5.214   5.887  0.5582  0.3286  0.3577
    8SAPS  H10R  987   4.755   5.314   5.906 -0.5187 -0.3616  1.6488
    8SAPS  H10S  988   4.748   5.181   5.794  0.7161  0.5240  0.1999
    8SAPS  C211  989   4.942   5.233   5.875 -0.5628  0.6705 -0.2916
    8SAPS  H11R  990   5.000   5.206   5.964 -1.2069 -0.1247 -0.0924
    8SAPS  C212  991   5.010   5.265   5.761 -1.0027  0.5434  0.3195
    8SAPS  H12R  992   5.120   5.265   5.769 -0.8694 -1.8749 -0.6773
    8SAPS  C213  993   4.965   5.306   5.622  0.0691 -0.1034  0.4998
    8SAPS  H13R  994   5.006   5.406   5.596 -0.5333 -0.1430 -0.6447
    8SAPS  H13S  995   4.855   5.315   5.623  0.1909  1.6867  0.3557
    8SAPS  C214  996   5.018   5.201   5.532 -0.7381 -0.1124  0.4301
    8SAPS  H14R  997   5.016   5.096   5.564 -0.8970 -1.5590 -3.7180
    8SAPS  C215  998   5.083   5.219   5.411  0.4051 -0.3554  0.4067
    8SAPS  H15R  999   5.109   5.125   5.360  3.4523  0.4515  0.2554
    8SAPS  C216 1000   5.100   5.350   5.333 -0.0953  0.2631 -0.2546
    8SAPS  H16R 1001   5.074   5.441   5.391 -2.1276 -1.2556  1.3798
    8SAPS  H16S 1002   5.027   5.339   5.250 -2.5962 -1.9793  2.0185
    8SAPS  C217 1003   5.247   5.362   5.287 -0.8307  0.1091 -0.2583
    8SAPS  H17R 1004   5.270   5.290   5.206 -2.2381  0.1547 -0.7403
    8SAPS  H17S 1005   5.318   5.352   5.372 -0.2852 -0.3822 -0.7668
    8SAPS  C218 1006   5.275   5.502   5.235 -0.4444 -0.2378 -0.4546
    8SAPS  H18R 1007   5.386   5.502   5.236 -0.3843 -2.5348 -0.8971
    8SAPS  H18S 1008   5.234   5.578   5.304 -0.2622 -0.7900  0.2752
    8SAPS  C219 1009   5.217   5.514   5.097  0.7822 -0.1916  0.4809
    8SAPS  H19R 1010   5.107   5.499   5.093  0.4581  1.9575 -3.2008
    8SAPS  H19S 1011   5.255   5.429   5.037 -0.9837  0.3031 -1.4357
    8SAPS  C220 1012   5.255   5.649   5.030 -0.0391 -0.2039  0.5935
    8SAPS  H20R 1013   5.365   5.665   5.023 -0.4288  2.9780 -0.0885
    8SAPS  H20S 1014   5.210   5.738   5.079  1.2771  0.6113  0.3852
    8SAPS  H20T 1015   5.220   5.644   4.925  0.8283 -0.0445  0.2873
    8SAPS   C33 1016   4.320   5.194   6.298 -0.6383 -0.1115  0.5760
    8SAPS   H3X 1017   4.225   5.177   6.354 -0.9183 -1.2116 -0.1844
    8SAPS   H3Y 1018   4.322   5.106   6.229  1.2990  0.1584  0.2426
    8SAPS   C34 1019   4.297   5.316   6.207 -0.1957 -0.3390 -0.0645
    8SAPS   H4X 1020   4.293   5.409   6.266  0.3112 -0.0376 -0.4943
    8SAPS   H4Y 1021   4.199   5.301   6.156  0.9609 -3.2853 -1.6850
    8SAPS   C35 1022   4.394   5.334   6.093 -0.9894 -0.7506  0.2171
    8SAPS   H5X 1023   4.433   5.234   6.066  1.2572  0.6548 -2.1685
    8SAPS   H5Y 1024   4.483   5.395   6.120  0.2291 -1.8196 -1.1935
    8SAPS   C36 1025   4.333   5.401   5.967 -0.2668 -0.0265 -0.2182
    8SAPS   H6X 1026   4.421   5.425   5.903  0.1890 -1.0435  0.0084
    8SAPS   H6Y 1027   4.284   5.500   5.977 -2.6937 -0.9225 -2.0670
    8SAPS   C37 1028   4.240   5.308   5.880 -0.2479  0.4834  0.0276
    8SAPS   H7X 1029   4.150   5.281   5.939  0.4124 -1.0097  0.4179
    8SAPS   H7Y 1030   4.294   5.213   5.858 -1.2217  0.0018 -0.3322
    8SAPS   C38 1031   4.221   5.365   5.736 -0.3619 -0.1121 -0.2200
    8SAPS   H8X 1032   4.202   5.475   5.739 -1.0972 -0.1701 -1.6686
    8SAPS   H8Y 1033   4.138   5.306   5.693 -0.6189 -0.7776  1.1473
    8SAPS   C39 1034   4.342   5.333   5.637  0.0774  0.6778 -0.4704
    8SAPS   H9X 1035   4.354   5.223   5.633  0.6758  0.7632 -1.0765
    8SAPS   H9Y 1036   4.430   5.378   5.688  0.1489 -0.1677  0.1715
    8SAPS  C310 1037   4.349   5.398   5.502 -0.3063 -0.1352  0.5089
    8SAPS  H10X 1038   4.452   5.389   5.461 -0.1149  5.1111 -0.7920
    8SAPS  H10Y 1039   4.336   5.508   5.511 -0.0265 -0.1479  1.1341
    8SAPS  C311 1040   4.243   5.334   5.414  0.1817  0.2047 -0.2391
    8SAPS  H11X 1041   4.151   5.370   5.466  0.9413 -1.8632  2.8436
    8SAPS  H11Y 1042   4.239   5.223   5.425  0.8419  0.2867  1.1080
    8SAPS  C312 1043   4.250   5.378   5.268 -0.1900  0.3999 -0.4081
    8SAPS  H12X 1044   4.351   5.367   5.225  0.3394  1.4139  0.5174
    8SAPS  H12Y 1045   4.213   5.483   5.262  3.6239  1.8510 -1.0907
    8SAPS  C313 1046   4.156   5.292   5.180 -0.0642  0.6545 -0.0606
    8SAPS  H13X 1047   4.063   5.283   5.241 -1.8520  2.8656 -2.2434
    8SAPS  H13Y 1048   4.204   5.192   5.186  1.6950  1.4394 -0.3688
    8SAPS  C314 1049   4.123   5.329   5.038 -0.4656 -0.6582 -0.4154
    8SAPS  H14X 1050   4.217   5.334   4.980  1.1979  0.4028  2.1917
    8SAPS  H14Y 1051   4.072   5.426   5.060 -2.9073 -2.1392  0.9425
    8SAPS  C315 1052   4.019   5.236   4.991  0.0337  0.4035  1.0383
    8SAPS  H15X 1053   3.932   5.251   5.059 -0.6435 -0.2727  0.3497
    8SAPS  H15Y 1054   4.062   5.134   5.002 -0.9718 -0.8486 -3.9925
    8SAPS  C316 1055   3.976   5.242   4.841  0.1105 -0.0512 -0.8573
    8SAPS  H16X 1056   4.068   5.235   4.780  2.3553  0.4243  2.2233
    8SAPS  H16Y 1057   3.939   5.346   4.827  1.0769  0.2868 -0.9550
    8SAPS  C317 1058   3.866   5.148   4.791 -0.6629 -0.0186  0.4429
    8SAPS  H17X 1059   3.790   5.136   4.871 -2.7112 -2.6337 -1.6985
    8SAPS  H17Y 1060   3.910   5.049   4.771 -1.2390 -0.2849  0.4653
    8SAPS  C318 1061   3.789   5.210   4.671  0.0587  0.0462  0.8335
    8SAPS  H18X 1062   3.846   5.221   4.577 -2.9032 -0.5370 -1.1817
    8SAPS  H18Y 1063   3.763   5.314   4.700  0.8026 -0.1384  2.2184
    8SAPS  H18Z 1064   3.693   5.157   4.650 -1.1345  2.3433  0.1198
    9SAPS     N 1065   2.577   3.110   6.834  0.1694 -0.2306  0.4573
    9SAPS   HN1 1066   2.546   3.074   6.742 -0.4242 -0.6442  0.8148
    9SAPS   HN2 1067   2.635   3.194   6.815 -1.5041  0.4515 -2.0474
    9SAPS   HN3 1068   2.632   3.032   6.875 -1.5811 -0.6768  2.1309
    9SAPS   C12 1069   2.473   3.140   6.933  0.3492  0.0324 -0.0727
    9SAPS  H12A 1070   2.402   3.060   6.915  1.1863 -0.6283 -0.5340
    9SAPS   C13 1071   2.519   3.141   7.080 -0.9177 -0.4802  0.2473
    9SAPS  O13A 1072   2.641   3.118   7.113  0.1601  0.6221  0.0324
    9SAPS  O13B 1073   2.435   3.145   7.168  1.0026  0.7125 -0.5192
    9SAPS   C11 1074   2.407   3.280   6.898  0.2961 -0.3085  0.0629
    9SAPS  H11A 1075   2.320   3.289   6.966  0.5228  2.3858  0.1216
    9SAPS  H11B 1076   2.368   3.283   6.794 -0.4335  0.5876  0.3473
    9SAPS     P 1077   2.489   3.517   6.843  0.1203 -0.3926 -0.2207
    9SAPS   O13 1078   2.364   3.590   6.859 -0.2731  0.0685  0.1340
    9SAPS   O14 1079   2.602   3.603   6.874 -0.7235  0.4947 -0.0822
    9SAPS   O12 1080   2.496   3.389   6.927 -0.1550  0.7700  0.2753
    9SAPS   O11 1081   2.507   3.461   6.700  0.0852 -0.1429 -0.7934
    9SAPS    C1 1082   2.626   3.436   6.630 -0.0673 -0.1808  0.4213
    9SAPS    HA 1083   2.717   3.459   6.690 -1.1136 -0.5065  2.1957
    9SAPS    HB 1084   2.626   3.329   6.600  4.2129 -0.8147  1.9533
    9SAPS    C2 1085   2.627   3.538   6.512 -0.2728 -0.1617 -0.3009
    9SAPS    HS 1086   2.642   3.633   6.568  0.1988 -0.8068  0.6983
    9SAPS   O21 1087   2.504   3.528   6.447 -0.5658  0.1590 -0.1097
    9SAPS   C21 1088   2.459   3.643   6.397  0.3790  0.6883  0.3084
    9SAPS   O22 1089   2.500   3.753   6.427 -0.2038  0.5285 -0.4303
    9SAPS   C22 1090   2.339   3.612   6.309 -0.2976 -0.3811  0.4242
    9SAPS   H2R 1091   2.303   3.509   6.328 -1.5114 -0.1457 -0.5226
    9SAPS   H2S 1092   2.252   3.676   6.334  0.8604  2.1422 -1.4968
    9SAPS    C3 1093   2.743   3.508   6.414 -0.4911 -0.0626  0.1767
    9SAPS    HX 1094   2.728   3.405   6.376 -2.4578  0.3595 -0.2856
    9SAPS    HY 1095   2.840   3.519   6.468 -0.7730  1.2865  0.4485
    9SAPS   O31 1096   2.737   3.591   6.297  0.0597  0.0749 -0.0597
    9SAPS   C31 1097   2.805   3.705   6.304  0.1003  0.1202 -0.4053
    9SAPS   O32 1098   2.874   3.742   6.398  0.5533 -0.8300 -0.4346
    9SAPS   C32 1099   2.759   3.790   6.184  0.3370 -0.3254  0.1863
    9SAPS   H2X 1100   2.672   3.748   6.129 -0.0961 -2.4492  2.3228
    9SAPS   H2Y 1101   2.833   3.798   6.102 -0.0044 -0.5896 -0.1502
    9SAPS   C23 1102   2.371   3.612   6.155 -0.2871 -0.7023  0.6949
    9SAPS   H3R 1103   2.451   3.536   6.137 -0.6874 -1.3647  1.6354
    9SAPS   H3S 1104   2.398   3.715   6.124  0.6196 -0.7806  1.1718
    9SAPS   C24 1105   2.245   3.573   6.083 -0.4658  0.0163  0.8098
    9SAPS   H4R 1106   2.175   3.655   6.110  0.8377  0.9262  1.5535
    9SAPS   H4S 1107   2.192   3.486   6.127  0.1368 -2.6590 -3.2592
    9SAPS   C25 1108   2.231   3.568   5.933  0.1425  0.5141  0.2928
    9SAPS   H5R 1109   2.162   3.486   5.908 -0.0752  1.0171 -0.8063
    9SAPS   C26 1110   2.296   3.633   5.838  0.0933  0.3324  0.2420
    9SAPS   H6R 1111   2.270   3.605   5.735 -0.7817 -0.0862  0.5661
    9SAPS   C27 1112   2.391   3.745   5.843  0.6028  0.4640  0.3427
    9SAPS   H7R 1113   2.345   3.815   5.915 -1.9959  1.8365 -2.4162
    9SAPS   H7S 1114   2.380   3.803   5.749 -0.2412 -1.6918 -0.9640
    9SAPS   C28 1115   2.534   3.724   5.878  0.6728 -0.3305 -0.7916
    9SAPS   H8R 1116   2.557   3.712   5.985  1.0510  2.7319 -0.4217
    9SAPS   C29 1117   2.634   3.714   5.788  0.8131 -0.1954 -0.0980
    9SAPS   H9R 1118   2.733   3.693   5.832  0.2808  1.9924  2.4436
    9SAPS  C210 1119   2.617   3.724   5.641  0.2775  0.1749 -0.0317
    9SAPS  H10R 1120   2.705   3.771   5.591 -0.2150  0.1405 -0.9543
    9SAPS  H10S 1121   2.532   3.784   5.602  0.7072  0.7833 -0.0500
    9SAPS  C211 1122   2.602   3.580   5.582  0.1987 -0.1774 -0.4503
    9SAPS  H11R 1123   2.621   3.500   5.654  0.0227  0.4003  0.2473
    9SAPS  C212 1124   2.588   3.552   5.451  0.6517 -0.2195 -0.4489
    9SAPS  H12R 1125   2.578   3.446   5.424 -0.6419 -0.0694 -0.6472
    9SAPS  C213 1126   2.570   3.644   5.333 -1.1773 -0.4993 -0.2176
    9SAPS  H13R 1127   2.517   3.740   5.351 -0.1654 -0.0061  0.1704
    9SAPS  H13S 1128   2.507   3.596   5.255  0.8408 -1.5500 -1.2607
    9SAPS  C214 1129   2.705   3.678   5.283  0.0514  0.3266  0.1006
    9SAPS  H14R 1130   2.770   3.731   5.354  0.3173  0.8319 -0.5211
    9SAPS  C215 1131   2.747   3.668   5.156  1.1666 -0.2200  0.2413
    9SAPS  H15R 1132   2.849   3.692   5.123  1.2538 -3.1308 -2.0167
    9SAPS  C216 1133   2.669   3.613   5.042  0.1363  0.4089  0.3679
    9SAPS  H16R 1134   2.569   3.661   5.039  0.1596  0.4978  0.9584
    9SAPS  H16S 1135   2.644   3.505   5.050 -0.7523  0.5114 -0.8321
    9SAPS  C217 1136   2.745   3.614   4.905 -0.0744 -0.5504 -0.2456
    9SAPS  H17R 1137   2.851   3.583   4.905 -0.2767 -1.2729 -0.9752
    9SAPS  H17S 1138   2.737   3.712   4.852  2.3574 -0.3689 -0.3921
    9SAPS  C218 1139   2.684   3.510   4.816  0.0593  0.0894 -0.8458
    9SAPS  H18R 1140   2.578   3.532   4.793  0.4376  0.0958 -2.7153
    9SAPS  H18S 1141   2.698   3.410   4.862  0.3438  0.0142 -1.0912
    9SAPS  C219 1142   2.753   3.499   4.688  0.4108 -0.0861  0.7442
    9SAPS  H19R 1143   2.846   3.440   4.700 -0.4323 -1.5036  0.5268
    9SAPS  H19S 1144   2.762   3.601   4.646  1.4254 -0.6793 -0.5591
    9SAPS  C220 1145   2.678   3.419   4.580  0.7657 -0.2597  0.5820
    9SAPS  H20R 1146   2.667   3.312   4.607 -0.9423 -1.1813 -3.1335
    9SAPS  H20S 1147   2.709   3.426   4.473  0.2481 -1.0828  0.3699
    9SAPS  H20T 1148   2.574   3.460   4.583  0.6460 -0.5246  0.1243
    9SAPS   C33 1149   2.735   3.939   6.212 -0.7681 -0.0624  0.0038
    9SAPS   H3X 1150   2.821   3.999   6.250 -3.1305  2.4801  1.6829
    9SAPS   H3Y 1151   2.671   3.931   6.302  0.7124 -0.2760  1.0755
    9SAPS   C34 1152   2.664   4.005   6.096 -0.0865  0.1812 -0.6271
    9SAPS   H4X 1153   2.631   4.106   6.126  1.0125  0.1169  0.9207
    9SAPS   H4Y 1154   2.565   3.956   6.088 -0.1381 -0.0213  0.9837
    9SAPS   C35 1155   2.742   4.020   5.960 -0.0706  0.7740 -0.6893
    9SAPS   H5X 1156   2.774   3.914   5.947  3.3153  1.2562  2.3168
    9SAPS   H5Y 1157   2.828   4.090   5.961  2.3133 -1.9559 -0.9689
    9SAPS   C36 1158   2.634   4.059   5.860 -0.1676  0.2786  0.1612
    9SAPS   H6X 1159   2.597   4.159   5.890  0.8388  0.5565  0.5067
    9SAPS   H6Y 1160   2.549   3.987   5.863  0.3030 -0.3086 -0.2232
    9SAPS   C37 1161   2.690   4.072   5.723 -0.1179 -0.3747 -0.7217
    9SAPS   H7X 1162   2.750   3.983   5.696  1.3322  0.8573 -1.7571
    9SAPS   H7Y 1163   2.765   4.153   5.730  1.2041 -1.6799  0.9764
    9SAPS   C38 1164   2.588   4.099   5.615  0.2445 -0.1401  0.3010
    9SAPS   H8X 1165   2.528   4.183   5.656  1.6050  0.1429  1.8040
    9SAPS   H8Y 1166   2.520   4.011   5.609  1.0316 -0.9328  2.2429
    9SAPS   C39 1167   2.641   4.135   5.472 -0.0968  0.1957  0.6544
    9SAPS   H9X 1168   2.695   4.047   5.431 -0.4682  1.1177 -2.0384
    9SAPS   H9Y 1169   2.718   4.215   5.470  1.6327 -1.3713  1.4690
    9SAPS  C310 1170   2.529   4.169   5.364 -0.0952  0.1450 -1.0507
    9SAPS  H10X 1171   2.474   4.263   5.387 -2.2476 -1.3362  0.2356
    9SAPS  H10Y 1172   2.455   4.086   5.374  0.7056 -0.4375  0.6021
    9SAPS  C311 1173   2.581   4.186   5.220  0.2752 -0.0418  0.2245
    9SAPS  H11X 1174   2.649   4.274   5.228 -0.2384  0.2676  1.2554
    9SAPS  H11Y 1175   2.500   4.220   5.152 -0.4993 -1.2702  0.5118
    9SAPS  C312 1176   2.649   4.060   5.159 -0.1617 -0.1657 -0.2960
    9SAPS  H12X 1177   2.597   3.965   5.186  0.1364 -0.3410 -0.3270
    9SAPS  H12Y 1178   2.748   4.055   5.209  0.3048  2.3578 -0.8635
    9SAPS  C313 1179   2.679   4.066   5.002  0.0526  0.6177  0.2172
    9SAPS  H13X 1180   2.749   3.985   4.976 -0.2546 -0.2438  1.9204
    9SAPS  H13Y 1181   2.714   4.170   4.982 -0.4060  0.6995 -0.1829
    9SAPS  C314 1182   2.549   4.017   4.935 -0.3738 -0.4390 -0.6412
    9SAPS  H14X 1183   2.472   4.089   4.972 -1.8369 -2.3158  0.1025
    9SAPS  H14Y 1184   2.520   3.913   4.961  0.1186 -1.2025 -2.9212
    9SAPS  C315 1185   2.555   4.023   4.784 -0.0695 -0.0659  0.1132
    9SAPS  H15X 1186   2.470   3.974   4.734  0.4630 -0.4622 -0.4221
    9SAPS  H15Y 1187   2.645   3.976   4.739  1.1837  0.7774  1.5812
    9SAPS  C316 1188   2.552   4.166   4.715  0.2014 -0.2277 -0.4560
    9SAPS  H16X 1189   2.570   4.146   4.607  1.3883  1.4195 -0.6099
    9SAPS  H16Y 1190   2.642   4.220   4.753 -0.0223 -1.4681  1.9899
    9SAPS  C317 1191   2.415   4.231   4.747 -0.6477  0.0648  0.0147
    9SAPS  H17X 1192   2.395   4.241   4.856 -0.4797 -2.0116  0.2696
    9SAPS  H17Y 1193   2.326   4.174   4.713 -0.8154 -1.2843  2.4911
    9SAPS  C318 1194   2.408   4.372   4.679 -0.1071  0.0721 -0.0636
    9SAPS  H18X 1195   2.303   4.409   4.680  0.5051  1.8538  0.6923
    9SAPS  H18Y 1196   2.442   4.363   4.573 -2.1248  0.5176 -0.7909
    9SAPS  H18Z 1197   2.459   4.444   4.746 -2.6902  1.8830  0.1179
   10SAPS     N 1198   2.402   2.648   6.762  0.0651 -0.0274 -0.1201
   10SAPS   HN1 1199   2.318   2.629   6.704  0.7621 -1.7068 -0.6246
   10SAPS   HN2 1200   2.378   2.699   6.849  0.7796 -0.4339  0.3210
   10SAPS   HN3 1201   2.470   2.704   6.707 -0.4595  3.6731  2.6396
   10SAPS   C12 1202   2.463   2.516   6.803  0.5274  0.6534  0.7873
   10SAPS  H12A 1203   2.520   2.491   6.715 -1.5331 -1.7873  0.0110
   10SAPS   C13 1204   2.552   2.533   6.923  0.5793 -0.3077 -0.0311
   10SAPS  O13A 1205   2.561   2.645   6.987 -0.2877  0.6332  0.1120
   10SAPS  O13B 1206   2.628   2.438   6.956  0.0676  0.0164 -0.1562
   10SAPS   C11 1207   2.355   2.417   6.837 -0.0452  0.2422  0.0875
   10SAPS  H11A 1208   2.288   2.452   6.918 -0.8186 -0.3136 -0.2857
   10SAPS  H11B 1209   2.410   2.332   6.882 -1.5099 -1.1025 -0.5597
   10SAPS     P 1210   2.274   2.240   6.650  0.1439 -0.0749 -0.0311
   10SAPS   O13 1211   2.382   2.218   6.551  0.0703  0.7174 -0.0650
   10SAPS   O14 1212   2.253   2.136   6.752 -0.2922  0.3223 -0.2106
   10SAPS   O12 1213   2.280   2.381   6.713  0.4373 -0.0552  0.2111
   10SAPS   O11 1214   2.140   2.242   6.572  0.1527 -0.3171  0.0701
   10SAPS    C1 1215   2.061   2.354   6.541 -0.5000  0.1724 -0.3967
   10SAPS    HA 1216   1.955   2.323   6.526 -1.3705  2.1173  1.2753
   10SAPS    HB 1217   2.048   2.416   6.633 -0.9078  0.5562 -0.7096
   10SAPS    C2 1218   2.125   2.417   6.415  0.3160 -0.4401  0.2932
   10SAPS    HS 1219   2.236   2.419   6.417  0.3339 -0.4338 -0.5566
   10SAPS   O21 1220   2.064   2.549   6.403 -0.4377  0.3453  0.0359
   10SAPS   C21 1221   2.143   2.639   6.470  0.3314  0.1991  0.1124
   10SAPS   O22 1222   2.243   2.616   6.531  0.5184 -0.3907 -0.4268
   10SAPS   C22 1223   2.085   2.784   6.459  0.6151 -0.0633  0.2933
   10SAPS   H2R 1224   2.038   2.780   6.358 -1.5152 -1.9577  1.2724
   10SAPS   H2S 1225   2.001   2.782   6.532 -0.6101  0.0266 -1.0577
   10SAPS    C3 1226   2.093   2.339   6.282  0.2145  0.0776 -0.6168
   10SAPS    HX 1227   1.983   2.336   6.273  0.1644 -1.8610  0.1987
   10SAPS    HY 1228   2.128   2.234   6.292 -0.8474 -0.2819 -0.6170
   10SAPS   O31 1229   2.151   2.393   6.168  0.2331 -0.2501 -0.1343
   10SAPS   C31 1230   2.283   2.391   6.142 -0.4373  1.0840 -0.4974
   10SAPS   O32 1231   2.370   2.331   6.200  0.8000  0.5674 -0.2004
   10SAPS   C32 1232   2.315   2.490   6.036  0.3643 -0.2760  0.7815
   10SAPS   H2X 1233   2.256   2.582   6.056  0.1689  0.4719 -2.7039
   10SAPS   H2Y 1234   2.285   2.450   5.937  1.9064 -0.8200  0.5185
   10SAPS   C23 1235   2.182   2.901   6.486  0.1616 -1.0539 -0.3263
   10SAPS   H3R 1236   2.254   2.876   6.566 -1.8774  1.7394  2.6470
   10SAPS   H3S 1237   2.117   2.986   6.516 -1.3358 -0.9991 -3.3226
   10SAPS   C24 1238   2.250   2.965   6.359  0.3767  0.0487  0.4331
   10SAPS   H4R 1239   2.302   3.060   6.384 -0.6512  0.7096  0.1215
   10SAPS   H4S 1240   2.179   2.991   6.277  2.2796  1.8080 -0.7736
   10SAPS   C25 1241   2.362   2.877   6.316  0.7719  0.7088  0.0943
   10SAPS   H5R 1242   2.423   2.830   6.395 -1.2379 -1.4081  0.4800
   10SAPS   C26 1243   2.390   2.851   6.187 -0.1794  0.1668  0.3660
   10SAPS   H6R 1244   2.479   2.792   6.163  1.5126  1.4160  3.0850
   10SAPS   C27 1245   2.321   2.911   6.067  0.1901 -0.1823  0.2120
   10SAPS   H7R 1246   2.383   2.892   5.977  0.5975  0.5298  0.3303
   10SAPS   H7S 1247   2.314   3.022   6.075 -2.7501 -0.2085 -0.9726
   10SAPS   C28 1248   2.179   2.871   6.029 -0.2177 -0.5845 -0.1551
   10SAPS   H8R 1249   2.117   2.845   6.116  1.3851  0.5139  1.3776
   10SAPS   C29 1250   2.123   2.830   5.915  0.0914 -0.7384 -0.6018
   10SAPS   H9R 1251   2.020   2.791   5.916 -0.1021 -0.4086 -2.8566
   10SAPS  C210 1252   2.200   2.851   5.778  0.7602  0.5764  0.1611
   10SAPS  H10R 1253   2.302   2.893   5.790  0.9792  0.1355 -0.1075
   10SAPS  H10S 1254   2.140   2.929   5.728  0.0413 -0.1786 -0.1773
   10SAPS  C211 1255   2.190   2.723   5.702  0.0426 -0.2116  0.0769
   10SAPS  H11R 1256   2.234   2.640   5.759  0.3393  0.3120  0.6251
   10SAPS  C212 1257   2.168   2.719   5.566 -0.0749  0.3101  0.2942
   10SAPS  H12R 1258   2.165   2.615   5.529 -2.8370 -0.4592  2.2922
   10SAPS  C213 1259   2.136   2.831   5.475  0.3726  0.3561 -0.3629
   10SAPS  H13R 1260   2.239   2.869   5.454  0.7989 -0.6058 -0.0741
   10SAPS  H13S 1261   2.085   2.914   5.528 -1.9605 -0.5561 -1.0871
   10SAPS  C214 1262   2.066   2.797   5.349 -0.2151  0.0432 -0.0839
   10SAPS  H14R 1263   2.062   2.690   5.324  1.1899  0.1978 -1.1101
   10SAPS  C215 1264   2.026   2.888   5.261  0.3675  0.6466 -0.2203
   10SAPS  H15R 1265   1.987   2.846   5.167 -3.9458 -1.7818  2.3495
   10SAPS  C216 1266   2.063   3.038   5.276  0.2742 -0.8433 -0.0892
   10SAPS  H16R 1267   2.165   3.052   5.319  0.7886 -0.7385 -1.2986
   10SAPS  H16S 1268   1.987   3.101   5.327  1.2668 -0.0688  0.4693
   10SAPS  C217 1269   2.071   3.095   5.129 -0.5289 -0.0044  0.0835
   10SAPS  H17R 1270   2.125   3.023   5.064 -1.9256 -1.0121 -0.0064
   10SAPS  H17S 1271   2.115   3.196   5.127 -1.3067  0.3291 -0.7364
   10SAPS  C218 1272   1.929   3.129   5.083 -0.1520 -0.2483  0.3725
   10SAPS  H18R 1273   1.874   3.182   5.164  0.2407  0.2509  0.3210
   10SAPS  H18S 1274   1.863   3.040   5.074 -0.6138  0.1179  0.0896
   10SAPS  C219 1275   1.930   3.205   4.948  0.4144  1.1697  0.3784
   10SAPS  H19R 1276   1.989   3.298   4.965  2.3652 -0.0059  0.4242
   10SAPS  H19S 1277   1.830   3.229   4.907  0.1537 -1.0481 -0.4242
   10SAPS  C220 1278   2.006   3.121   4.842  0.2437 -0.1953  0.2478
   10SAPS  H20R 1279   2.115   3.145   4.844 -0.0804  1.3572  0.1693
   10SAPS  H20S 1280   1.959   3.132   4.742  0.2832  1.4723  0.3981
   10SAPS  H20T 1281   2.007   3.011   4.859  1.7656 -0.6480 -2.2290
   10SAPS   C33 1282   2.468   2.523   6.035 -0.4681 -0.6492  0.4737
   10SAPS   H3X 1283   2.536   2.435   6.028  1.3221  0.7841 -1.1871
   10SAPS   H3Y 1284   2.503   2.578   6.124  2.0546  0.2145 -0.9509
   10SAPS   C34 1285   2.510   2.608   5.910 -0.0019 -0.0029  0.1079
   10SAPS   H4X 1286   2.460   2.707   5.912  0.7033  0.3536  0.5255
   10SAPS   H4Y 1287   2.477   2.557   5.817 -0.8504  4.6738 -2.4357
   10SAPS   C35 1288   2.663   2.627   5.916 -0.4639 -0.1544 -0.2900
   10SAPS   H5X 1289   2.715   2.529   5.918  1.6416  0.8948  1.5807
   10SAPS   H5Y 1290   2.683   2.667   6.017 -0.3925 -2.4854  0.6859
   10SAPS   C36 1291   2.720   2.721   5.805  0.1356  0.1754  0.2423
   10SAPS   H6X 1292   2.828   2.738   5.826  0.6676 -3.0054  0.5815
   10SAPS   H6Y 1293   2.663   2.816   5.809  0.3452  0.4480 -1.9704
   10SAPS   C37 1294   2.714   2.659   5.665  0.3095  0.1640 -0.0926
   10SAPS   H7X 1295   2.616   2.610   5.649  0.0835  0.3306  0.7095
   10SAPS   H7Y 1296   2.774   2.565   5.665 -0.0556 -0.0996  1.4192
   10SAPS   C38 1297   2.758   2.758   5.555 -0.7909  0.3139 -0.0916
   10SAPS   H8X 1298   2.862   2.785   5.584 -0.3305 -0.7291 -0.7283
   10SAPS   H8Y 1299   2.696   2.850   5.564 -0.0915  0.6131  2.6772
   10SAPS   C39 1300   2.765   2.696   5.416 -0.0536 -0.2430  0.1280
   10SAPS   H9X 1301   2.671   2.643   5.388  0.3894 -1.3027  0.6033
   10SAPS   H9Y 1302   2.846   2.621   5.428 -0.0508  0.1591  3.8599
   10SAPS  C310 1303   2.795   2.796   5.301  0.0107 -0.2433  0.0093
   10SAPS  H10X 1304   2.893   2.847   5.311 -0.0867 -0.0748  0.1207
   10SAPS  H10Y 1305   2.722   2.880   5.306  0.4679  0.2685 -1.4454
   10SAPS  C311 1306   2.779   2.734   5.166 -0.0600 -0.1933  0.2430
   10SAPS  H11X 1307   2.675   2.700   5.144  0.0857 -0.2745 -0.3402
   10SAPS  H11Y 1308   2.842   2.643   5.164  0.0500 -0.1264  0.7398
   10SAPS  C312 1309   2.821   2.831   5.058 -0.5917  0.3427  0.5050
   10SAPS  H12X 1310   2.918   2.870   5.097 -0.5348 -0.1367  0.8596
   10SAPS  H12Y 1311   2.742   2.908   5.059  0.4838  1.5455 -1.5533
   10SAPS  C313 1312   2.828   2.775   4.913  0.2000  0.0566 -0.8770
   10SAPS  H13X 1313   2.838   2.855   4.837  0.3007  0.8088 -0.0889
   10SAPS  H13Y 1314   2.721   2.750   4.900  0.1308  0.8033 -1.8282
   10SAPS  C314 1315   2.916   2.649   4.896 -0.2321  0.2491 -0.0398
   10SAPS  H14X 1316   2.900   2.574   4.977 -1.1156  1.3996  0.8970
   10SAPS  H14Y 1317   3.023   2.676   4.907 -0.4457  1.2146 -0.1960
   10SAPS  C315 1318   2.905   2.588   4.753 -0.0349 -0.2684 -0.2818
   10SAPS  H15X 1319   2.809   2.630   4.716  1.2460  0.5936 -2.9026
   10SAPS  H15Y 1320   2.896   2.478   4.754 -3.0572 -0.3074 -4.5169
   10SAPS  C316 1321   3.029   2.635   4.665  0.3533 -0.9498  0.1529
   10SAPS  H16X 1322   3.117   2.588   4.715  0.8869 -0.9080 -0.7355
   10SAPS  H16Y 1323   3.056   2.741   4.683 -2.0097 -0.2232 -0.3305
   10SAPS  C317 1324   3.013   2.618   4.516 -0.3413  0.9540  0.7363
   10SAPS  H17X 1325   2.924   2.674   4.483 -1.0196 -0.4115  0.1631
   10SAPS  H17Y 1326   2.993   2.511   4.492  3.1358  0.2109  0.5545
   10SAPS  C318 1327   3.131   2.660   4.424  0.3824 -0.1632 -0.0512
   10SAPS  H18X 1328   3.099   2.668   4.318 -0.5850 -1.4188  0.1164
   10SAPS  H18Y 1329   3.214   2.587   4.430  1.6965  1.2265 -0.6236
   10SAPS  H18Z 1330   3.160   2.764   4.452 -1.8273  1.0783 -1.9510
   11SAPS     N 1331   1.050   1.201   2.585 -0.0276  0.0851  0.2303
   11SAPS   HN1 1332   0.960   1.149   2.577  0.2790 -0.8392  2.3090
   11SAPS   HN2 1333   1.120   1.128   2.608 -0.6561 -0.8620 -0.7472
   11SAPS   HN3 1334   1.039   1.265   2.666  0.7158 -1.2191  1.3889
   11SAPS   C12 1335   1.078   1.284   2.459  0.0481 -0.5116 -0.8422
   11SAPS  H12A 1336   1.186   1.291   2.460  0.1889 -2.1885  0.3186
   11SAPS   C13 1337   1.040   1.208   2.331  0.4584 -0.0452  0.2003
   11SAPS  O13A 1338   0.987   1.090   2.339  0.1098 -0.0724 -0.1697
   11SAPS  O13B 1339   1.063   1.264   2.220 -0.3170 -0.3248 -0.0987
   11SAPS   C11 1340   1.024   1.432   2.461  0.2058  0.2003 -0.4770
   11SAPS  H11A 1341   0.923   1.437   2.506  1.5381  2.1019  2.6388
   11SAPS  H11B 1342   1.010   1.484   2.364 -0.6680  0.6784 -0.1071
   11SAPS     P 1343   1.227   1.604   2.510 -0.1723  0.0823  0.0156
   11SAPS   O13 1344   1.306   1.543   2.400  0.1522  0.4705 -0.5748
   11SAPS   O14 1345   1.170   1.743   2.482 -0.6967  0.1828 -0.0109
   11SAPS   O12 1346   1.103   1.516   2.551 -0.0043  0.0614  0.8674
   11SAPS   O11 1347   1.318   1.605   2.636 -0.0864 -0.6799 -0.0025
   11SAPS    C1 1348   1.306   1.514   2.741  0.7052 -0.7157  0.8723
   11SAPS    HA 1349   1.254   1.420   2.711  0.1257 -0.3221  0.6308
   11SAPS    HB 1350   1.410   1.484   2.767  0.7645 -0.4197  0.9825
   11SAPS    C2 1351   1.231   1.565   2.872  0.6891  0.0932 -0.4556
   11SAPS    HS 1352   1.244   1.485   2.948 -0.9465  1.6524  1.5595
   11SAPS   O21 1353   1.091   1.594   2.851 -0.2362 -0.2214  0.0188
   11SAPS   C21 1354   1.011   1.493   2.821  0.4591 -0.1934  0.1482
   11SAPS   O22 1355   1.041   1.376   2.799  0.0980 -0.3339 -0.1869
   11SAPS   C22 1356   0.869   1.547   2.815  0.0596  0.3645 -0.1376
   11SAPS   H2R 1357   0.857   1.615   2.727  0.6963  2.2676  1.1801
   11SAPS   H2S 1358   0.800   1.461   2.829 -1.0114  1.3398  0.8651
   11SAPS    C3 1359   1.300   1.693   2.929 -0.8013  0.2630 -0.1824
   11SAPS    HX 1360   1.279   1.771   2.853  1.3063 -1.8403 -3.1782
   11SAPS    HY 1361   1.409   1.674   2.938 -0.5869  2.2788  2.5983
   11SAPS   O31 1362   1.249   1.723   3.060  0.8916  0.2120  0.1111
   11SAPS   C31 1363   1.294   1.658   3.175  0.1873  0.0096 -0.5958
   11SAPS   O32 1364   1.390   1.582   3.172 -0.3930  0.0510 -0.1586
   11SAPS   C32 1365   1.214   1.703   3.294  0.6722  0.5125  0.0952
   11SAPS   H2X 1366   1.252   1.803   3.324  1.4211  0.8843 -1.9324
   11SAPS   H2Y 1367   1.227   1.628   3.374 -3.0428  0.3602  0.7148
   11SAPS   C23 1368   0.851   1.617   2.949  0.0530  0.2837 -0.0119
   11SAPS   H3R 1369   0.916   1.707   2.952 -0.8193  0.9063  0.9846
   11SAPS   H3S 1370   0.883   1.549   3.031  1.9972  0.6075 -0.4465
   11SAPS   C24 1371   0.711   1.676   2.964  0.0252 -0.3247  0.2727
   11SAPS   H4R 1372   0.701   1.752   2.884 -0.9967 -2.2323 -1.4876
   11SAPS   H4S 1373   0.703   1.723   3.064 -0.5614 -0.1328  0.1392
   11SAPS   C25 1374   0.595   1.578   2.949  1.1365 -0.5342  0.3925
   11SAPS   H5R 1375   0.531   1.589   2.860 -3.0607 -0.5400  3.1013
   11SAPS   C26 1376   0.559   1.483   3.043  0.2975 -0.2555 -0.3379
   11SAPS   H6R 1377   0.462   1.431   3.037  0.9532 -1.7124  0.8296
   11SAPS   C27 1378   0.613   1.454   3.186  0.0646  0.3921  0.3079
   11SAPS   H7R 1379   0.692   1.525   3.219  2.6864 -2.4224  0.5640
   11SAPS   H7S 1380   0.661   1.353   3.185 -0.2004  0.2155 -2.1626
   11SAPS   C28 1381   0.500   1.446   3.287  0.6986  0.6285  0.0370
   11SAPS   H8R 1382   0.407   1.403   3.248 -0.5849  3.3409 -0.1257
   11SAPS   C29 1383   0.494   1.478   3.420 -0.0230 -0.0978  0.2403
   11SAPS   H9R 1384   0.400   1.465   3.475  1.1423  0.0249  2.3391
   11SAPS  C210 1385   0.606   1.538   3.506  1.3379 -0.3781  0.4129
   11SAPS  H10R 1386   0.565   1.614   3.576 -2.2617  0.4558 -2.3088
   11SAPS  H10S 1387   0.690   1.571   3.443 -1.2151  1.1164 -2.4898
   11SAPS  C211 1388   0.656   1.425   3.587  0.2247 -0.2113 -0.1517
   11SAPS  H11R 1389   0.675   1.333   3.529  2.4552  0.3745 -0.4273
   11SAPS  C212 1390   0.679   1.425   3.719 -0.1931 -0.3392  0.0947
   11SAPS  H12R 1391   0.711   1.335   3.772  1.6886  0.7682  0.9435
   11SAPS  C213 1392   0.652   1.535   3.818  0.6352  1.3850 -0.3513
   11SAPS  H13R 1393   0.546   1.526   3.849  1.3570  0.8838  2.2028
   11SAPS  H13S 1394   0.668   1.634   3.771  4.3871  0.6312 -0.9589
   11SAPS  C214 1395   0.755   1.533   3.922  0.4296  0.3214  0.1933
   11SAPS  H14R 1396   0.856   1.560   3.889  0.1752 -1.1202 -1.8944
   11SAPS  C215 1397   0.744   1.502   4.053 -0.0984  0.1296  0.9150
   11SAPS  H15R 1398   0.834   1.513   4.116 -0.5753 -1.0970  1.8584
   11SAPS  C216 1399   0.620   1.451   4.130  0.0881 -0.2680 -0.0420
   11SAPS  H16R 1400   0.566   1.388   4.055 -2.2021  0.5356  0.8397
   11SAPS  H16S 1401   0.558   1.536   4.164 -0.8204 -1.6014  1.7761
   11SAPS  C217 1402   0.661   1.379   4.252  0.1404  1.3090 -0.2853
   11SAPS  H17R 1403   0.691   1.449   4.333 -1.1795  0.4505  1.0024
   11SAPS  H17S 1404   0.750   1.318   4.225 -0.0146  1.7780 -1.9908
   11SAPS  C218 1405   0.540   1.307   4.308  0.3478  0.8844  0.0355
   11SAPS  H18R 1406   0.478   1.253   4.233  1.3877 -0.4339  0.1015
   11SAPS  H18S 1407   0.470   1.380   4.356 -2.0686  0.2495 -2.2526
   11SAPS  C219 1408   0.594   1.195   4.406 -0.2036  0.0458  0.1469
   11SAPS  H19R 1409   0.646   1.250   4.487  0.1234  1.4863 -0.9990
   11SAPS  H19S 1410   0.667   1.134   4.348 -0.8101  0.1869 -0.7937
   11SAPS  C220 1411   0.488   1.111   4.469 -0.3993 -0.1792 -0.0577
   11SAPS  H20R 1412   0.440   1.041   4.397  0.5535  0.8293 -1.7471
   11SAPS  H20S 1413   0.403   1.168   4.511  1.5399  0.8104  2.9326
   11SAPS  H20T 1414   0.526   1.052   4.555 -0.7118 -1.6917 -0.9233
   11SAPS   C33 1415   1.058   1.729   3.274  0.0078 -0.5722 -0.5253
   11SAPS   H3X 1416   1.010   1.628   3.276  0.8841 -1.0379 -1.6014
   11SAPS   H3Y 1417   1.029   1.768   3.174 -1.7820 -0.9609 -0.1808
   11SAPS   C34 1418   0.986   1.812   3.386  0.2820  0.0539  0.6018
   11SAPS   H4X 1419   0.878   1.812   3.360  0.4970 -0.1642 -0.3389
   11SAPS   H4Y 1420   1.020   1.917   3.371 -2.3153  1.5414  3.9808
   11SAPS   C35 1421   1.006   1.766   3.532  0.3800  0.2846  0.2090
   11SAPS   H5X 1422   0.936   1.834   3.585  1.1026  0.5889  0.7787
   11SAPS   H5Y 1423   1.112   1.791   3.552  0.7809 -1.8722  1.0807
   11SAPS   C36 1424   0.985   1.616   3.553  0.5439 -0.1209 -0.5391
   11SAPS   H6X 1425   1.036   1.543   3.487  2.4415  1.8141 -1.2823
   11SAPS   H6Y 1426   0.874   1.602   3.554  0.8564 -3.3057 -0.4008
   11SAPS   C37 1427   1.041   1.574   3.692  0.4006  0.8146 -0.4937
   11SAPS   H7X 1428   0.984   1.494   3.744  0.3851  1.5013  0.5638
   11SAPS   H7Y 1429   1.037   1.655   3.768 -3.0861 -1.3424  1.8900
   11SAPS   C38 1430   1.184   1.522   3.669 -0.7780  0.3248  0.3227
   11SAPS   H8X 1431   1.235   1.591   3.599 -1.8294 -0.5956 -1.4290
   11SAPS   H8Y 1432   1.172   1.430   3.606  0.2565  0.9125 -0.7685
   11SAPS   C39 1433   1.268   1.486   3.792  0.1651  0.2222 -0.1181
   11SAPS   H9X 1434   1.370   1.473   3.752 -0.6038 -0.6011 -1.9604
   11SAPS   H9Y 1435   1.233   1.387   3.830  3.7026 -1.0586  0.1829
   11SAPS  C310 1436   1.270   1.584   3.909 -0.1299 -0.0450 -0.1624
   11SAPS  H10X 1437   1.161   1.597   3.929  0.1186  1.1736  0.4993
   11SAPS  H10Y 1438   1.317   1.676   3.868  2.3255 -0.3807  1.6731
   11SAPS  C311 1439   1.350   1.536   4.036  0.1643 -0.2075  0.6662
   11SAPS  H11X 1440   1.325   1.621   4.103  2.0954  2.1836 -1.4225
   11SAPS  H11Y 1441   1.456   1.544   4.004 -0.9075  1.5975 -3.1015
   11SAPS  C312 1442   1.317   1.401   4.092 -0.1867 -0.0157 -0.2006
   11SAPS  H12X 1443   1.329   1.320   4.018  1.5570 -1.6520  1.7683
   11SAPS  H12Y 1444   1.208   1.389   4.114 -0.6877 -1.4970 -3.0548
   11SAPS  C313 1445   1.405   1.369   4.215 -0.4809  0.1494  0.4362
   11SAPS  H13X 1446   1.345   1.336   4.302  1.6334  0.4035  2.0759
   11SAPS  H13Y 1447   1.453   1.465   4.244 -1.5029  0.8980 -0.2957
   11SAPS  C314 1448   1.522   1.272   4.179 -0.8943 -0.6945 -0.1523
   11SAPS  H14X 1449   1.575   1.302   4.086 -1.4439 -1.5143 -0.7387
   11SAPS  H14Y 1450   1.491   1.166   4.165  1.1585 -0.9937 -3.5042
   11SAPS  C315 1451   1.631   1.269   4.294  0.6646  0.0846  0.0701
   11SAPS  H15X 1452   1.575   1.285   4.389  1.7917  0.4281  0.7071
   11SAPS  H15Y 1453   1.698   1.358   4.290  0.7411  0.0728  0.8702
   11SAPS  C316 1454   1.714   1.135   4.315 -0.7660 -0.3518 -0.9383
   11SAPS  H16X 1455   1.780   1.121   4.226 -1.3404  1.8494 -1.7827
   11SAPS  H16Y 1456   1.643   1.050   4.321 -2.7513  1.3363  0.9646
   11SAPS  C317 1457   1.815   1.147   4.430  0.0832 -0.4112 -0.2929
   11SAPS  H17X 1458   1.892   1.220   4.399 -0.2959  0.6256  1.1170
   11SAPS  H17Y 1459   1.872   1.051   4.424  0.7940 -0.2341  2.2950
   11SAPS  C318 1460   1.759   1.169   4.576 -0.5118  0.0933 -0.4028
   11SAPS  H18X 1461   1.841   1.161   4.651 -1.2414 -0.9705  0.3060
   11SAPS  H18Y 1462   1.696   1.080   4.596 -1.7941  0.2759 -3.1935
   11SAPS  H18Z 1463   1.716   1.269   4.600  1.1243  0.9435 -0.8044
   12SAPS     N 1464   1.842   0.459   2.163  0.6417  0.4550  0.1684
   12SAPS   HN1 1465   1.819   0.543   2.105 -1.2974 -1.0358 -1.3276
   12SAPS   HN2 1466   1.887   0.481   2.254  0.4645 -1.1346  0.6657
   12SAPS   HN3 1467   1.894   0.385   2.111  0.7574 -0.1762  1.1724
   12SAPS   C12 1468   1.711   0.396   2.205 -0.5002 -0.1896  0.1093
   12SAPS  H12A 1469   1.637   0.475   2.205 -0.0438  0.2780 -1.8592
   12SAPS   C13 1470   1.665   0.274   2.119 -0.7796 -0.4208 -0.2488
   12SAPS  O13A 1471   1.720   0.245   2.012  0.2700 -0.6447 -0.5258
   12SAPS  O13B 1472   1.555   0.226   2.152  0.2044 -0.5711 -0.6249
   12SAPS   C11 1473   1.740   0.346   2.350  0.0023  0.2094 -0.3161
   12SAPS  H11A 1474   1.795   0.249   2.347 -0.9557 -0.4415  1.5136
   12SAPS  H11B 1475   1.641   0.325   2.395 -0.1445 -0.4887 -0.9472
   12SAPS     P 1476   1.817   0.464   2.591 -0.2662  0.0372 -0.1239
   12SAPS   O13 1477   1.922   0.363   2.640  0.3314 -0.7244 -0.1469
   12SAPS   O14 1478   1.837   0.605   2.633 -0.2088  0.3987  0.7384
   12SAPS   O12 1479   1.804   0.448   2.428 -0.1427 -0.4029 -0.0303
   12SAPS   O11 1480   1.678   0.425   2.644 -0.0205  0.3635  0.7002
   12SAPS    C1 1481   1.640   0.289   2.670  0.2453 -0.0522  0.0953
   12SAPS    HA 1482   1.665   0.220   2.586  0.5122 -0.4754  0.5216
   12SAPS    HB 1483   1.703   0.264   2.758 -2.0803  0.4803  2.0028
   12SAPS    C2 1484   1.497   0.263   2.722  0.1409  0.0256  0.1639
   12SAPS    HS 1485   1.427   0.277   2.637 -1.5867  0.1894  1.5648
   12SAPS   O21 1486   1.473   0.366   2.820 -0.7466  0.7605  0.1930
   12SAPS   C21 1487   1.352   0.377   2.858  0.6496  0.2600  0.7152
   12SAPS   O22 1488   1.257   0.321   2.800 -0.8439  0.0063  0.2554
   12SAPS   C22 1489   1.347   0.463   2.979 -0.3524 -0.4443 -0.4809
   12SAPS   H2R 1490   1.404   0.412   3.060  0.4308  1.1316 -0.0078
   12SAPS   H2S 1491   1.400   0.557   2.953  1.3045 -1.3253 -0.5030
   12SAPS    C3 1492   1.465   0.120   2.769 -0.3072 -0.4811 -0.1171
   12SAPS    HX 1493   1.488   0.050   2.686  0.3722  1.4392 -1.6250
   12SAPS    HY 1494   1.355   0.121   2.785 -0.3727  0.7127 -0.5542
   12SAPS   O31 1495   1.544   0.082   2.887  0.4036  0.6769 -0.0907
   12SAPS   C31 1496   1.494  -0.026   2.954 -1.0298 -0.5338  0.5317
   12SAPS   O32 1497   1.390  -0.081   2.933  0.2481  0.3796 -0.2682
   12SAPS   C32 1498   1.582  -0.072   3.075  0.4800 -0.4535 -0.8503
   12SAPS   H2X 1499   1.557  -0.007   3.162 -0.2948 -0.3272 -1.1590
   12SAPS   H2Y 1500   1.687  -0.061   3.041  1.0613  1.0206  1.2126
   12SAPS   C23 1501   1.208   0.484   3.045  0.0957  0.2506  0.4419
   12SAPS   H3R 1502   1.168   0.383   3.067  1.5400 -0.9401 -2.0298
   12SAPS   H3S 1503   1.134   0.544   2.987 -0.9270 -0.0408  1.4072
   12SAPS   C24 1504   1.230   0.552   3.182 -0.5392 -0.3430 -0.3028
   12SAPS   H4R 1505   1.290   0.637   3.142  1.2442 -1.1433  0.5755
   12SAPS   H4S 1506   1.298   0.502   3.253 -0.0366 -0.2620 -0.7205
   12SAPS   C25 1507   1.096   0.601   3.241  0.5493 -0.8466  0.7562
   12SAPS   H5R 1508   1.024   0.633   3.165  1.0435 -0.5819  0.3873
   12SAPS   C26 1509   1.065   0.595   3.377  0.6328  1.0998  0.2537
   12SAPS   H6R 1510   0.961   0.619   3.404  0.8178  0.6708  1.3739
   12SAPS   C27 1511   1.145   0.526   3.484 -0.2279  0.2123  0.0017
   12SAPS   H7R 1512   1.118   0.567   3.584  0.5782 -0.8816  0.6867
   12SAPS   H7S 1513   1.256   0.537   3.480 -0.0165 -1.8593 -0.6767
   12SAPS   C28 1514   1.125   0.377   3.492 -0.2312 -0.3318 -0.3283
   12SAPS   H8R 1515   1.110   0.330   3.394  1.4184  0.2765 -0.8980
   12SAPS   C29 1516   1.146   0.304   3.606 -0.5255 -0.6275 -0.0360
   12SAPS   H9R 1517   1.118   0.198   3.599  0.7582 -0.9616 -0.1752
   12SAPS  C210 1518   1.184   0.365   3.735  0.6307  0.2691 -0.1706
   12SAPS  H10R 1519   1.105   0.434   3.771  1.8168  1.3981  0.3300
   12SAPS  H10S 1520   1.282   0.416   3.738  0.4949  0.5324 -0.1869
   12SAPS  C211 1521   1.198   0.253   3.843 -0.3184 -0.5560  0.3250
   12SAPS  H11R 1522   1.190   0.155   3.795 -0.9499 -0.6650  0.6539
   12SAPS  C212 1523   1.214   0.268   3.975  0.0801  0.3486  0.5393
   12SAPS  H12R 1524   1.239   0.181   4.036 -1.0742  0.0986  0.6784
   12SAPS  C213 1525   1.214   0.400   4.052 -0.1971  0.0601  0.2831
   12SAPS  H13R 1526   1.252   0.487   3.995 -1.5318  1.1188  0.9633
   12SAPS  H13S 1527   1.274   0.378   4.143  0.9156  1.0000 -0.1981
   12SAPS  C214 1528   1.080   0.445   4.101  0.2244  0.5096  0.3693
   12SAPS  H14R 1529   1.023   0.510   4.033  0.9059  0.0007 -0.7304
   12SAPS  C215 1530   1.012   0.403   4.211  0.5857 -0.3318 -0.3025
   12SAPS  H15R 1531   0.914   0.447   4.237  1.6448  1.1326  1.4676
   12SAPS  C216 1532   1.052   0.308   4.316 -0.6662  0.1721  0.2392
   12SAPS  H16R 1533   0.985   0.325   4.403 -0.5155 -0.3171  0.4520
   12SAPS  H16S 1534   1.155   0.323   4.354  0.2045  1.8506 -2.5245
   12SAPS  C217 1535   1.036   0.159   4.276  0.0208  0.3233 -0.4245
   12SAPS  H17R 1536   1.122   0.107   4.230 -0.5890 -1.6047  0.5289
   12SAPS  H17S 1537   0.949   0.154   4.207 -0.8298 -0.9787  0.6854
   12SAPS  C218 1538   0.998   0.079   4.405 -0.0042 -0.1327  0.2907
   12SAPS  H18R 1539   1.057   0.122   4.489  1.2046 -0.2962 -0.4611
   12SAPS  H18S 1540   1.035  -0.024   4.393  0.4995  0.0218  0.4934
   12SAPS  C219 1541   0.853   0.082   4.441 -0.5857 -0.2212  0.2655
   12SAPS  H19R 1542   0.790   0.030   4.366  0.0695 -0.5010 -0.1008
   12SAPS  H19S 1543   0.818   0.187   4.447 -1.2769 -0.4472  0.2419
   12SAPS  C220 1544   0.819   0.037   4.584 -0.3557 -0.3209  0.0453
   12SAPS  H20R 1545   0.714   0.055   4.615 -0.0941 -1.1034  1.4951
   12SAPS  H20S 1546   0.883   0.097   4.654 -0.0658  0.2069 -0.6619
   12SAPS  H20T 1547   0.846  -0.069   4.601 -0.8789 -0.4037  0.3810
   12SAPS   C33 1548   1.540  -0.214   3.104 -0.2214 -0.0274  0.1089
   12SAPS   H3X 1549   1.566  -0.277   3.017  3.1501 -0.7321  1.4821
   12SAPS   H3Y 1550   1.434  -0.219   3.135 -0.0292  0.5465  0.8964
   12SAPS   C34 1551   1.627  -0.275   3.216 -0.5172 -0.4474 -0.0785
   12SAPS   H4X 1552   1.734  -0.273   3.186 -0.3861 -0.7215  0.3763
   12SAPS   H4Y 1553   1.588  -0.377   3.237 -3.7569  0.9058  1.0437
   12SAPS   C35 1554   1.620  -0.205   3.353  0.4684  0.4179  0.2875
   12SAPS   H5X 1555   1.525  -0.157   3.385 -0.0424 -0.8292  0.6950
   12SAPS   H5Y 1556   1.692  -0.121   3.347  0.5335  0.3831  0.5582
   12SAPS   C36 1557   1.669  -0.298   3.463  0.0754 -0.2597  0.6695
   12SAPS   H6X 1558   1.745  -0.373   3.430  1.0807  0.5447  1.0849
   12SAPS   H6Y 1559   1.579  -0.349   3.502 -2.2873  0.9004 -2.7269
   12SAPS   C37 1560   1.738  -0.223   3.572  0.1490  0.2429 -0.7095
   12SAPS   H7X 1561   1.667  -0.147   3.611  1.5329  0.3261  1.8600
   12SAPS   H7Y 1562   1.828  -0.178   3.524 -0.3441  0.4479 -1.4637
   12SAPS   C38 1563   1.798  -0.318   3.675  0.4218 -0.3017 -0.1244
   12SAPS   H8X 1564   1.908  -0.306   3.683  0.1902  1.5039  1.0105
   12SAPS   H8Y 1565   1.800  -0.422   3.637 -1.1388  0.0148 -1.1742
   12SAPS   C39 1566   1.734  -0.298   3.813 -0.1295 -0.2435  0.0979
   12SAPS   H9X 1567   1.624  -0.315   3.812 -0.1244 -0.3393  0.9001
   12SAPS   H9Y 1568   1.748  -0.191   3.839 -1.9920  0.1964 -0.5561
   12SAPS  C310 1569   1.793  -0.402   3.912 -0.4987 -0.9331 -0.5813
   12SAPS  H10X 1570   1.900  -0.382   3.937 -0.9009 -0.5740  0.9947
   12SAPS  H10Y 1571   1.787  -0.501   3.861 -1.3685 -1.1263 -0.1085
   12SAPS  C311 1572   1.716  -0.408   4.045  0.3713  0.0953 -0.8059
   12SAPS  H11X 1573   1.610  -0.426   4.016 -0.2982 -0.0935  1.5004
   12SAPS  H11Y 1574   1.714  -0.308   4.092 -0.8692 -0.6231  0.7939
   12SAPS  C312 1575   1.779  -0.519   4.134  0.1932 -0.4828  0.6180
   12SAPS  H12X 1576   1.889  -0.503   4.131  0.3824 -1.7263  0.6218
   12SAPS  H12Y 1577   1.774  -0.621   4.090 -1.1540 -0.0039 -0.4162
   12SAPS  C313 1578   1.728  -0.520   4.279  0.0122  0.2470  0.5480
   12SAPS  H13X 1579   1.767  -0.443   4.349  2.0552 -0.2389  0.0251
   12SAPS  H13Y 1580   1.755  -0.622   4.315 -0.7135 -0.8047 -1.7338
   12SAPS  C314 1581   1.571  -0.506   4.300  0.0084 -0.1807  0.9186
   12SAPS  H14X 1582   1.536  -0.594   4.241  2.9995 -0.2024 -1.0955
   12SAPS  H14Y 1583   1.535  -0.417   4.244  0.8270 -0.6814 -0.4500
   12SAPS  C315 1584   1.507  -0.516   4.438 -0.2782 -0.2885  0.1123
   12SAPS  H15X 1585   1.397  -0.499   4.433 -0.0552  1.3181  0.2465
   12SAPS  H15Y 1586   1.553  -0.433   4.495  0.8431  0.4677 -1.7988
   12SAPS  C316 1587   1.525  -0.645   4.511 -0.1479 -0.0088 -0.4060
   12SAPS  H16X 1588   1.629  -0.669   4.540  0.6334  1.0393 -2.1650
   12SAPS  H16Y 1589   1.485  -0.728   4.450 -0.3686  0.4042 -0.8274
   12SAPS  C317 1590   1.441  -0.640   4.645  0.2315 -0.1352  0.2067
   12SAPS  H17X 1591   1.337  -0.608   4.621  0.1948  1.3519  2.0971
   12SAPS  H17Y 1592   1.479  -0.563   4.716 -0.6607  0.2242  0.3144
   12SAPS  C318 1593   1.435  -0.775   4.703 -0.4008 -0.3304 -0.2822
   12SAPS  H18X 1594   1.394  -0.848   4.629  0.2477 -2.7419  1.5951
   12SAPS  H18Y 1595   1.368  -0.773   4.791  0.4846 -0.4727  0.4054
   12SAPS  H18Z 1596   1.529  -0.826   4.732  0.4036 -0.0649 -2.2737
   13SAPS     N 1597   2.790   0.470   2.257 -0.0142 -0.2367 -0.4038
   13SAPS   HN1 1598   2.882   0.434   2.225 -0.0930 -1.0255  0.2356
   13SAPS   HN2 1599   2.802   0.560   2.308 -0.3671 -0.5043  0.1461
   13SAPS   HN3 1600   2.744   0.396   2.312  0.0932 -0.7872 -1.0440
   13SAPS   C12 1601   2.695   0.504   2.139 -0.7543 -0.4346 -0.3315
   13SAPS  H12A 1602   2.766   0.555   2.075 -0.1277  0.7768  1.2498
   13SAPS   C13 1603   2.627   0.384   2.065 -0.4644 -0.1648 -0.6116
   13SAPS  O13A 1604   2.674   0.266   2.083 -0.3425 -0.6767 -0.9538
   13SAPS  O13B 1605   2.545   0.410   1.977  0.7236  0.4132  0.0273
   13SAPS   C11 1606   2.602   0.622   2.163  0.7184 -0.0529 -0.3014
   13SAPS  H11A 1607   2.509   0.588   2.213  0.3488 -0.7032 -1.4024
   13SAPS  H11B 1608   2.566   0.654   2.063  2.0587  0.1144 -0.7570
   13SAPS     P 1609   2.635   0.878   2.236  0.0669  0.2300  0.2577
   13SAPS   O13 1610   2.747   0.963   2.292 -0.1336 -0.4454 -0.3871
   13SAPS   O14 1611   2.594   0.914   2.100  0.3893  0.0244  0.1010
   13SAPS   O12 1612   2.673   0.726   2.237 -0.7646  0.1297 -0.0903
   13SAPS   O11 1613   2.518   0.904   2.339 -0.1075 -0.9903 -0.7700
   13SAPS    C1 1614   2.502   0.824   2.459 -0.3601 -0.7957 -0.1395
   13SAPS    HA 1615   2.400   0.841   2.500 -0.4629 -0.5986 -0.4672
   13SAPS    HB 1616   2.507   0.717   2.429 -1.2479 -0.2715 -2.3995
   13SAPS    C2 1617   2.609   0.860   2.564  0.5655 -0.1626 -0.1576
   13SAPS    HS 1618   2.712   0.844   2.525  0.8787 -0.4135  0.7435
   13SAPS   O21 1619   2.594   0.786   2.686  0.0128  0.8081 -0.3275
   13SAPS   C21 1620   2.658   0.674   2.687 -1.1443  0.4663  0.1552
   13SAPS   O22 1621   2.714   0.623   2.590  0.2490  0.5951  0.0767
   13SAPS   C22 1622   2.653   0.612   2.828 -0.5627  0.5936  0.2799
   13SAPS   H2R 1623   2.634   0.690   2.905 -2.5064  1.9599 -1.4521
   13SAPS   H2S 1624   2.567   0.542   2.837 -0.9577  1.2097  1.5026
   13SAPS    C3 1625   2.618   1.008   2.607  0.2612 -0.0358  0.3781
   13SAPS    HX 1626   2.511   1.033   2.620 -0.6615 -1.9836 -2.6060
   13SAPS    HY 1627   2.652   1.072   2.523 -2.2728 -1.3168 -1.7640
   13SAPS   O31 1628   2.694   1.030   2.726 -0.2119 -0.3277 -0.0071
   13SAPS   C31 1629   2.831   1.015   2.720 -0.0620  0.2402  0.0605
   13SAPS   O32 1630   2.883   0.949   2.636 -0.2844  0.3636 -0.0405
   13SAPS   C32 1631   2.911   1.095   2.826 -0.0668 -0.3599  0.0511
   13SAPS   H2X 1632   2.849   1.185   2.847 -0.0056 -0.4998  0.8834
   13SAPS   H2Y 1633   3.006   1.123   2.775  0.3812 -0.4481  0.8193
   13SAPS   C23 1634   2.782   0.535   2.877  0.3971  0.0500  0.1964
   13SAPS   H3R 1635   2.781   0.434   2.830 -2.8921  0.1625 -0.2179
   13SAPS   H3S 1636   2.750   0.517   2.982  2.2948  0.1419  0.8265
   13SAPS   C24 1637   2.916   0.617   2.888  1.0946  0.8283  0.2060
   13SAPS   H4R 1638   2.899   0.693   2.966 -1.7296  1.0857 -0.5429
   13SAPS   H4S 1639   2.932   0.672   2.793  1.1603  0.3188 -0.0831
   13SAPS   C25 1640   3.041   0.538   2.906 -0.1247 -0.1095 -0.0862
   13SAPS   H5R 1641   3.088   0.499   2.815 -1.0233 -2.2013  0.2811
   13SAPS   C26 1642   3.092   0.495   3.028  0.9849  0.2243  0.5118
   13SAPS   H6R 1643   3.188   0.442   3.018  0.3512 -0.6789 -1.2648
   13SAPS   C27 1644   3.051   0.537   3.166  0.0375  1.1046  0.3033
   13SAPS   H7R 1645   2.978   0.619   3.150 -0.3536  0.2455 -3.0138
   13SAPS   H7S 1646   3.139   0.588   3.210  1.2839  0.4653 -1.3481
   13SAPS   C28 1647   3.010   0.416   3.260 -0.7554 -0.0939 -0.2378
   13SAPS   H8R 1648   3.027   0.322   3.206  1.6133 -0.7244  1.4088
   13SAPS   C29 1649   2.962   0.417   3.389  0.1054  0.3293  0.3430
   13SAPS   H9R 1650   2.953   0.320   3.440  0.1425  0.1912  0.0866
   13SAPS  C210 1651   2.958   0.534   3.478  0.4518 -0.9471 -1.0623
   13SAPS  H10R 1652   2.946   0.632   3.428  1.0010 -0.4194 -0.1890
   13SAPS  H10S 1653   3.055   0.551   3.530 -0.5535  1.9223  0.0671
   13SAPS  C211 1654   2.837   0.519   3.579  0.2989 -0.0766  0.2702
   13SAPS  H11R 1655   2.737   0.533   3.537  0.4476 -2.0582 -0.8344
   13SAPS  C212 1656   2.850   0.482   3.708 -0.4043 -0.0222 -0.7030
   13SAPS  H12R 1657   2.761   0.463   3.769 -0.4062  0.7550 -0.4596
   13SAPS  C213 1658   2.985   0.468   3.779  0.7937  0.2331  0.7303
   13SAPS  H13R 1659   3.051   0.531   3.716 -1.4562 -0.2660 -2.4241
   13SAPS  H13S 1660   3.019   0.362   3.782 -0.1027 -0.0735  0.4032
   13SAPS  C214 1661   2.992   0.519   3.922  0.4800 -0.1793 -0.4593
   13SAPS  H14R 1662   2.898   0.505   3.978 -0.8737  1.3832 -2.2171
   13SAPS  C215 1663   3.096   0.570   3.990  0.7272 -0.6527  0.9063
   13SAPS  H15R 1664   3.081   0.599   4.095 -0.8593 -0.8056  0.7481
   13SAPS  C216 1665   3.238   0.605   3.934  0.0101  0.4137  0.2400
   13SAPS  H16R 1666   3.237   0.715   3.923 -0.9849  0.5469  1.4939
   13SAPS  H16S 1667   3.256   0.553   3.837 -1.8903 -2.6941  1.3962
   13SAPS  C217 1668   3.355   0.574   4.031 -0.1661  0.0448  0.2814
   13SAPS  H17R 1669   3.448   0.573   3.971 -0.6920  0.7871 -0.5869
   13SAPS  H17S 1670   3.328   0.482   4.087  0.8490 -0.3611  0.1170
   13SAPS  C218 1671   3.365   0.677   4.145 -0.1104  0.2823 -0.5147
   13SAPS  H18R 1672   3.272   0.693   4.203  0.2783  2.0567 -0.3084
   13SAPS  H18S 1673   3.392   0.775   4.100  0.8673 -0.7995 -2.4036
   13SAPS  C219 1674   3.482   0.642   4.237 -0.4878  0.1240 -0.5571
   13SAPS  H19R 1675   3.476   0.536   4.271  4.0735 -0.7833 -1.9705
   13SAPS  H19S 1676   3.474   0.700   4.332  2.1946  0.9485 -0.7647
   13SAPS  C220 1677   3.620   0.680   4.187 -0.4096 -0.2873  0.0559
   13SAPS  H20R 1678   3.634   0.647   4.081 -1.1012  0.4663 -0.2854
   13SAPS  H20S 1679   3.702   0.631   4.244  1.2387  2.2974  0.0640
   13SAPS  H20T 1680   3.641   0.789   4.194  2.0936 -0.5693 -1.6519
   13SAPS   C33 1681   2.949   1.029   2.956  0.2053  0.3271 -0.2952
   13SAPS   H3X 1682   3.004   1.101   3.020  1.1381  0.1994 -0.9353
   13SAPS   H3Y 1683   3.016   0.942   2.942  2.9606  2.1737  0.6423
   13SAPS   C34 1684   2.827   0.982   3.039 -0.4796  0.4224  0.0480
   13SAPS   H4X 1685   2.764   0.922   2.970  0.3648  1.8879 -2.1199
   13SAPS   H4Y 1686   2.771   1.068   3.082 -1.2320 -1.7411  3.7734
   13SAPS   C35 1687   2.872   0.896   3.155  0.2284 -0.2620 -0.2835
   13SAPS   H5X 1688   2.976   0.856   3.154  0.5710  0.4945  1.5451
   13SAPS   H5Y 1689   2.805   0.807   3.160 -0.2039 -0.0093 -1.3596
   13SAPS   C36 1690   2.856   0.967   3.289 -0.3395 -0.7010 -0.1150
   13SAPS   H6X 1691   2.750   0.999   3.296 -0.4379  0.3369 -3.9396
   13SAPS   H6Y 1692   2.924   1.056   3.291 -1.1529 -0.0842  0.7597
   13SAPS   C37 1693   2.892   0.896   3.421 -0.0604  0.1354 -0.1963
   13SAPS   H7X 1694   3.003   0.890   3.424  0.0551  0.6028 -2.1214
   13SAPS   H7Y 1695   2.855   0.791   3.415 -0.0452  0.1505 -0.5700
   13SAPS   C38 1696   2.842   0.968   3.544 -0.1185  0.4452  0.3107
   13SAPS   H8X 1697   2.731   0.974   3.545 -0.6292 -4.7667  0.2648
   13SAPS   H8Y 1698   2.902   1.062   3.547 -1.0105  1.0498 -0.2789
   13SAPS   C39 1699   2.877   0.882   3.672  0.6564 -0.1797  1.2328
   13SAPS   H9X 1700   2.984   0.855   3.680  0.2043 -2.8096 -0.3789
   13SAPS   H9Y 1701   2.824   0.784   3.683 -0.2252 -0.3019 -2.4570
   13SAPS  C310 1702   2.858   0.967   3.803 -0.0118  0.5566 -0.7191
   13SAPS  H10X 1703   2.754   1.006   3.803 -0.8061 -1.4226  0.4591
   13SAPS  H10Y 1704   2.923   1.056   3.811 -1.2020  1.3236  1.3993
   13SAPS  C311 1705   2.904   0.871   3.921  0.2559  0.4981 -0.2122
   13SAPS  H11X 1706   3.009   0.850   3.893  0.1982 -0.2068  0.0786
   13SAPS  H11Y 1707   2.851   0.775   3.907 -2.3267  1.9652 -1.2842
   13SAPS  C312 1708   2.897   0.927   4.062  0.2111 -0.0594  0.1327
   13SAPS  H12X 1709   2.940   1.028   4.048  1.0722 -0.6653 -2.1575
   13SAPS  H12Y 1710   2.949   0.866   4.139 -1.8265 -4.1198 -1.3743
   13SAPS  C313 1711   2.749   0.929   4.120 -0.0126 -0.1883  0.7841
   13SAPS  H13X 1712   2.717   0.829   4.157  0.6538 -0.8332 -0.3240
   13SAPS  H13Y 1713   2.684   0.955   4.034  0.7460  2.1931  0.8767
   13SAPS  C314 1714   2.737   1.036   4.234 -0.6564  0.0034  0.0816
   13SAPS  H14X 1715   2.626   1.038   4.248 -0.5502  1.4099  0.9677
   13SAPS  H14Y 1716   2.763   1.142   4.210 -0.7725 -0.2908 -1.4060
   13SAPS  C315 1717   2.820   1.004   4.357 -0.2491  0.3908  0.0203
   13SAPS  H15X 1718   2.924   0.999   4.319  0.2979 -2.4414  1.5596
   13SAPS  H15Y 1719   2.797   0.899   4.383  0.6616  0.1638 -0.0634
   13SAPS  C316 1720   2.790   1.116   4.462 -0.6384  0.0161  0.5636
   13SAPS  H16X 1721   2.688   1.108   4.504 -0.1566 -0.1312  1.7513
   13SAPS  H16Y 1722   2.809   1.225   4.448  0.3001 -0.0686  1.0850
   13SAPS  C317 1723   2.872   1.094   4.594  0.1688 -0.1597  0.6578
   13SAPS  H17X 1724   2.981   1.112   4.581 -0.1348  1.4142  0.1167
   13SAPS  H17Y 1725   2.855   0.989   4.627 -1.3317 -0.5234 -1.1065
   13SAPS  C318 1726   2.839   1.193   4.708 -0.6795  0.9683 -0.3572
   13SAPS  H18X 1727   2.731   1.189   4.733 -1.0952  2.9685 -1.5723
   13SAPS  H18Y 1728   2.876   1.295   4.680 -2.1651  1.3577 -0.9864
   13SAPS  H18Z 1729   2.905   1.167   4.793 -0.1236 -1.3012 -1.4009
   14SAPS     N 1730   3.319   0.384   1.838  0.5510  0.7037  0.6668
   14SAPS   HN1 1731   3.312   0.280   1.841  0.3051  0.7169  0.5325
   14SAPS   HN2 1732   3.311   0.423   1.934  1.4866  0.4198  0.8664
   14SAPS   HN3 1733   3.243   0.429   1.783 -1.3962 -3.9137 -0.9463
   14SAPS   C12 1734   3.455   0.428   1.791 -0.1471  0.4431 -0.3445
   14SAPS  H12A 1735   3.532   0.373   1.843 -0.8253  0.2595  0.4829
   14SAPS   C13 1736   3.483   0.410   1.640 -0.0797  0.0915  0.1915
   14SAPS  O13A 1737   3.390   0.388   1.562  0.1822 -0.1615 -0.2714
   14SAPS  O13B 1738   3.603   0.421   1.601  0.1998  0.2044  0.3276
   14SAPS   C11 1739   3.484   0.582   1.827  0.0368 -0.0447 -0.4854
   14SAPS  H11A 1740   3.452   0.655   1.751  0.2319  1.6336  0.9755
   14SAPS  H11B 1741   3.593   0.598   1.813 -0.3261  2.0688 -1.1606
   14SAPS     P 1742   3.499   0.724   2.049  0.5705  0.0760 -0.3178
   14SAPS   O13 1743   3.638   0.675   2.064 -0.2494  0.0914  0.4551
   14SAPS   O14 1744   3.481   0.862   1.996 -0.5156 -0.2493  1.0906
   14SAPS   O12 1745   3.423   0.617   1.954  0.3847  0.5911 -0.4810
   14SAPS   O11 1746   3.417   0.723   2.190  0.4628 -0.0535  0.0827
   14SAPS    C1 1747   3.391   0.608   2.257  0.2090  0.3970 -0.9330
   14SAPS    HA 1748   3.288   0.603   2.298  0.9839 -1.4335  1.0120
   14SAPS    HB 1749   3.417   0.511   2.209  0.2097 -0.9198  1.5210
   14SAPS    C2 1750   3.470   0.589   2.396 -0.1175 -0.0414  0.1919
   14SAPS    HS 1751   3.408   0.535   2.471  0.6480  1.8040  2.2608
   14SAPS   O21 1752   3.493   0.712   2.460  0.1241 -0.0523  0.3564
   14SAPS   C21 1753   3.387   0.763   2.524 -0.4070  0.7203  0.2338
   14SAPS   O22 1754   3.273   0.722   2.510  0.3194  0.6476  0.2253
   14SAPS   C22 1755   3.429   0.892   2.589  0.0122 -0.1106  0.2130
   14SAPS   H2R 1756   3.529   0.874   2.634 -0.8630  0.7826  2.6775
   14SAPS   H2S 1757   3.436   0.972   2.513  1.6708  2.2685  2.6814
   14SAPS    C3 1758   3.602   0.500   2.386 -0.1959  0.3814  0.2624
   14SAPS    HX 1759   3.676   0.556   2.325  0.3863  0.5142  1.0736
   14SAPS    HY 1760   3.577   0.398   2.348 -2.7821  0.8059  0.6261
   14SAPS   O31 1761   3.655   0.477   2.514 -1.0124 -0.1278 -0.0756
   14SAPS   C31 1762   3.784   0.489   2.546 -0.2072  0.0358  0.4907
   14SAPS   O32 1763   3.872   0.508   2.464 -0.0171 -0.7828 -0.4013
   14SAPS   C32 1764   3.802   0.479   2.690  0.1105 -0.1367  0.1833
   14SAPS   H2X 1765   3.722   0.412   2.729  0.4727 -0.6539  0.0536
   14SAPS   H2Y 1766   3.774   0.572   2.743 -0.0501 -0.4892  0.7347
   14SAPS   C23 1767   3.326   0.943   2.683 -0.0431 -0.2753 -0.7682
   14SAPS   H3R 1768   3.231   0.957   2.627  0.3801  0.6519 -1.2853
   14SAPS   H3S 1769   3.360   1.044   2.714 -2.1048 -0.1174  1.2614
   14SAPS   C24 1770   3.302   0.858   2.817  1.2123  0.4172 -0.1493
   14SAPS   H4R 1771   3.227   0.780   2.795  0.9895  0.3067  0.9532
   14SAPS   H4S 1772   3.238   0.918   2.886  0.2876 -0.7131 -0.0015
   14SAPS   C25 1773   3.423   0.812   2.884 -1.1524  0.2162 -0.1218
   14SAPS   H5R 1774   3.480   0.762   2.804  0.5800  2.0452 -0.0891
   14SAPS   C26 1775   3.481   0.842   3.001  0.1959 -0.5453  0.2480
   14SAPS   H6R 1776   3.572   0.793   3.041 -0.2523  0.4131  2.6587
   14SAPS   C27 1777   3.406   0.932   3.099  0.4902 -0.0878 -0.2913
   14SAPS   H7R 1778   3.303   0.892   3.107  1.3501 -2.2725  0.6452
   14SAPS   H7S 1779   3.410   1.037   3.064  2.2169 -0.9222 -2.8460
   14SAPS   C28 1780   3.480   0.929   3.229 -0.7543  0.5440  0.1376
   14SAPS   H8R 1781   3.561   1.002   3.244 -0.9935  0.8456 -0.0291
   14SAPS   C29 1782   3.433   0.868   3.337 -0.7567 -0.4069 -0.7973
   14SAPS   H9R 1783   3.494   0.882   3.427 -0.1880  1.8960 -1.4942
   14SAPS  C210 1784   3.309   0.779   3.352  0.1135  0.8945  0.4935
   14SAPS  H10R 1785   3.334   0.690   3.291  3.4394  2.2348 -0.2782
   14SAPS  H10S 1786   3.225   0.826   3.297  0.4793  0.3129 -0.5956
   14SAPS  C211 1787   3.283   0.743   3.495 -1.0047  0.2039 -0.0989
   14SAPS  H11R 1788   3.286   0.635   3.514  1.5062  0.4209  1.1870
   14SAPS  C212 1789   3.275   0.828   3.600 -0.5425  0.0912 -0.7408
   14SAPS  H12R 1790   3.271   0.772   3.695  1.4077 -0.8685 -1.1566
   14SAPS  C213 1791   3.279   0.980   3.613 -0.4462  0.5467 -0.3349
   14SAPS  H13R 1792   3.194   1.018   3.674  1.2686  2.7537  0.8201
   14SAPS  H13S 1793   3.271   1.026   3.512 -1.7885  1.4083  0.1313
   14SAPS  C214 1794   3.410   1.038   3.670  0.7830  0.1345  0.4823
   14SAPS  H14R 1795   3.486   1.085   3.605  0.9754  0.5732  1.0110
   14SAPS  C215 1796   3.428   1.064   3.799  0.3586 -0.2677  0.4504
   14SAPS  H15R 1797   3.516   1.118   3.836 -1.6705  3.1898  0.6607
   14SAPS  C216 1798   3.330   1.011   3.903 -0.4928  1.0995 -0.0134
   14SAPS  H16R 1799   3.316   0.901   3.893  1.9400  0.7223  0.2022
   14SAPS  H16S 1800   3.230   1.057   3.891 -0.9230 -0.4634 -3.8722
   14SAPS  C217 1801   3.361   1.046   4.054  0.3740 -0.5373  0.5568
   14SAPS  H17R 1802   3.382   1.153   4.075 -0.6480 -0.5137  1.4925
   14SAPS  H17S 1803   3.452   0.986   4.074  0.1499 -1.7067 -1.5733
   14SAPS  C218 1804   3.245   1.016   4.150 -0.7223  0.0460 -0.4408
   14SAPS  H18R 1805   3.212   0.915   4.117 -0.4142 -0.3026  0.2638
   14SAPS  H18S 1806   3.166   1.093   4.141 -2.1887 -1.0128  2.1737
   14SAPS  C219 1807   3.287   0.995   4.296 -0.6811  0.6989  0.8056
   14SAPS  H19R 1808   3.366   0.917   4.304 -0.2422  0.5718 -2.9028
   14SAPS  H19S 1809   3.190   0.970   4.345 -0.9549  0.4307  0.1479
   14SAPS  C220 1810   3.329   1.124   4.367 -0.2655  0.2119  0.5259
   14SAPS  H20R 1811   3.367   1.100   4.469 -0.2797 -1.8832  0.0810
   14SAPS  H20S 1812   3.239   1.188   4.384 -0.2834  0.1877  0.5221
   14SAPS  H20T 1813   3.400   1.175   4.298 -2.0516  2.1756  0.0327
   14SAPS   C33 1814   3.941   0.426   2.743 -0.5919  1.0226 -0.1726
   14SAPS   H3X 1815   4.027   0.491   2.716  1.9222 -1.2170  1.8658
   14SAPS   H3Y 1816   3.947   0.327   2.694 -2.1485  1.5589 -1.5184
   14SAPS   C34 1817   3.958   0.407   2.893  0.1646 -0.0157 -0.6922
   14SAPS   H4X 1818   4.050   0.350   2.921 -0.9967 -1.6816 -0.1399
   14SAPS   H4Y 1819   3.868   0.356   2.932 -0.1061  0.0789 -1.1892
   14SAPS   C35 1820   3.956   0.535   2.981 -0.5185 -0.3230  0.5198
   14SAPS   H5X 1821   3.868   0.590   2.944  0.5592  0.4922 -0.9451
   14SAPS   H5Y 1822   4.053   0.586   2.964 -0.7795 -0.2374 -0.8030
   14SAPS   C36 1823   3.929   0.509   3.133  0.2504  0.2254 -0.1122
   14SAPS   H6X 1824   4.004   0.434   3.165 -0.1621  1.0987  3.2242
   14SAPS   H6Y 1825   3.824   0.473   3.143 -0.5852  2.7217  1.1125
   14SAPS   C37 1826   3.939   0.642   3.211  0.3882  0.6645  0.1436
   14SAPS   H7X 1827   3.875   0.720   3.164  1.8363  2.1219  0.4710
   14SAPS   H7Y 1828   4.046   0.674   3.211  1.3497 -2.1620 -2.1196
   14SAPS   C38 1829   3.885   0.612   3.348 -0.2585 -0.2472 -0.6495
   14SAPS   H8X 1830   3.933   0.524   3.395  0.5209 -0.9272 -2.6136
   14SAPS   H8Y 1831   3.781   0.576   3.330 -0.7031  0.0510  1.1319
   14SAPS   C39 1832   3.873   0.730   3.448 -0.1606 -0.0635  0.0942
   14SAPS   H9X 1833   3.806   0.811   3.411 -1.0658 -0.5651  0.5770
   14SAPS   H9Y 1834   3.975   0.766   3.472  0.6121 -2.0080 -0.0686
   14SAPS  C310 1835   3.813   0.676   3.583  0.0975 -0.0085  0.1022
   14SAPS  H10X 1836   3.859   0.581   3.616 -2.0739 -1.4624 -0.8411
   14SAPS  H10Y 1837   3.702   0.662   3.581 -0.0252  0.8191 -1.7875
   14SAPS  C311 1838   3.838   0.781   3.691 -0.2762  0.1192 -0.0270
   14SAPS  H11X 1839   3.758   0.858   3.693 -2.7899 -2.3478 -0.0736
   14SAPS  H11Y 1840   3.934   0.837   3.683  0.8583 -1.2539  2.5314
   14SAPS  C312 1841   3.856   0.721   3.831 -0.0107  0.4382  1.0057
   14SAPS  H12X 1842   3.788   0.634   3.836  0.8243 -0.2707  0.2854
   14SAPS  H12Y 1843   3.826   0.799   3.905  0.7304 -0.4109  2.2303
   14SAPS  C313 1844   3.988   0.655   3.867  0.4335  0.1167  0.1874
   14SAPS  H13X 1845   4.071   0.727   3.850  0.9836 -0.5141  0.1742
   14SAPS  H13Y 1846   4.001   0.567   3.801  0.3012  1.1695 -1.3045
   14SAPS  C314 1847   4.000   0.607   4.011  0.1682 -0.2241 -0.2149
   14SAPS  H14X 1848   4.104   0.570   4.024  0.2671  0.5231  1.4278
   14SAPS  H14Y 1849   3.935   0.519   4.031  0.5493 -0.5713 -0.4956
   14SAPS  C315 1850   3.980   0.720   4.112  0.7812 -0.3849 -0.3505
   14SAPS  H15X 1851   3.965   0.686   4.217 -0.3877  0.8603 -0.0905
   14SAPS  H15Y 1852   3.894   0.784   4.084  0.3399 -0.3043  1.1106
   14SAPS  C316 1853   4.101   0.816   4.119 -0.1929 -0.8942 -0.5303
   14SAPS  H16X 1854   4.107   0.872   4.024  1.8294  1.5063  0.8949
   14SAPS  H16Y 1855   4.190   0.751   4.128  1.2395  0.9672 -0.7296
   14SAPS  C317 1856   4.086   0.931   4.219  0.4866 -0.2378 -0.1154
   14SAPS  H17X 1857   4.061   0.882   4.316 -0.1215 -1.7115 -0.9677
   14SAPS  H17Y 1858   4.006   1.001   4.185  1.5221  0.4522 -1.1876
   14SAPS  C318 1859   4.218   1.010   4.240 -0.0848  0.0333  0.3292
   14SAPS  H18X 1860   4.211   1.082   4.324  1.9234  1.4648 -0.6599
   14SAPS  H18Y 1861   4.240   1.062   4.145 -0.1215 -3.5935 -1.8312
   14SAPS  H18Z 1862   4.297   0.934   4.259  0.4989  0.6610  0.4541
   15SAPS     N 1863   2.105   1.586   2.197 -0.0454 -0.2288 -0.2765
   15SAPS   HN1 1864   2.204   1.558   2.187 -0.6035 -3.6664  2.0476
   15SAPS   HN2 1865   2.095   1.687   2.221 -0.9515 -0.0353 -1.3847
   15SAPS   HN3 1866   2.074   1.531   2.280  0.2736  1.5287  1.0583
   15SAPS   C12 1867   2.029   1.552   2.073  0.2705 -0.0671 -0.3730
   15SAPS  H12A 1868   2.067   1.614   1.994 -3.2281  0.0974 -2.1460
   15SAPS   C13 1869   2.061   1.401   2.025 -0.8231 -0.6697 -0.1698
   15SAPS  O13A 1870   2.127   1.315   2.093 -1.1064 -0.0299 -0.4173
   15SAPS  O13B 1871   1.988   1.347   1.938  0.6565  0.4125 -0.0378
   15SAPS   C11 1872   1.874   1.582   2.093 -0.3405  0.1571  0.1348
   15SAPS  H11A 1873   1.839   1.505   2.164  0.7357  2.7497  3.7865
   15SAPS  H11B 1874   1.810   1.572   2.003 -0.3842  1.1535  0.0446
   15SAPS     P 1875   1.706   1.745   2.195  0.1851  0.0662  0.3196
   15SAPS   O13 1876   1.638   1.763   2.069 -0.2156 -0.1601 -0.3844
   15SAPS   O14 1877   1.655   1.631   2.269 -0.7069 -0.0857 -0.0008
   15SAPS   O12 1878   1.856   1.707   2.158 -0.1981 -0.9826 -0.0948
   15SAPS   O11 1879   1.720   1.876   2.285  0.3818  0.7318 -0.1093
   15SAPS    C1 1880   1.845   1.894   2.351 -0.5822 -0.6298  0.6053
   15SAPS    HA 1881   1.937   1.872   2.292 -1.1971  0.1423 -0.6710
   15SAPS    HB 1882   1.855   2.000   2.383  0.2063 -0.4399 -0.2155
   15SAPS    C2 1883   1.862   1.808   2.481  1.0578  0.2843  0.4584
   15SAPS    HS 1884   1.863   1.701   2.450 -1.6142 -0.0079  1.1487
   15SAPS   O21 1885   1.748   1.835   2.565 -0.9188 -0.4349 -0.2485
   15SAPS   C21 1886   1.708   1.721   2.628 -0.0157 -0.0477 -0.1942
   15SAPS   O22 1887   1.739   1.609   2.597  0.4635  0.2294  0.9727
   15SAPS   C22 1888   1.609   1.752   2.739  0.6595 -0.0943  0.0930
   15SAPS   H2R 1889   1.516   1.782   2.685  0.8517 -1.2494 -0.9127
   15SAPS   H2S 1890   1.603   1.654   2.790  0.3885 -0.6067 -0.9125
   15SAPS    C3 1891   1.991   1.837   2.552 -0.1510  0.4608  0.2846
   15SAPS    HX 1892   1.980   1.941   2.591  1.1293  1.3896 -1.7091
   15SAPS    HY 1893   2.075   1.833   2.480  1.1158 -2.2029  1.7657
   15SAPS   O31 1894   2.017   1.752   2.666 -0.5286  0.2169  0.4917
   15SAPS   C31 1895   2.084   1.642   2.633  0.3682 -0.4555  0.2853
   15SAPS   O32 1896   2.115   1.606   2.521 -0.0027 -0.0430 -0.1373
   15SAPS   C32 1897   2.093   1.565   2.765 -0.5629  0.5479 -0.1309
   15SAPS   H2X 1898   1.994   1.565   2.814 -0.4253  1.9499  0.1775
   15SAPS   H2Y 1899   2.164   1.622   2.829 -2.3745  0.8043  1.7436
   15SAPS   C23 1900   1.661   1.864   2.833  0.7979 -0.0119 -0.0235
   15SAPS   H3R 1901   1.571   1.890   2.893 -0.2447  0.4094 -1.6955
   15SAPS   H3S 1902   1.688   1.957   2.778  2.1386 -0.1318  0.4132
   15SAPS   C24 1903   1.784   1.829   2.923  0.1706  0.1659  0.7120
   15SAPS   H4R 1904   1.801   1.919   2.986  1.3521  2.1218 -2.1832
   15SAPS   H4S 1905   1.874   1.819   2.858  1.1365  2.6027  1.5707
   15SAPS   C25 1906   1.745   1.702   2.997 -0.1477 -0.6587  0.1672
   15SAPS   H5R 1907   1.741   1.608   2.940 -2.9859 -0.8975  0.5874
   15SAPS   C26 1908   1.724   1.701   3.128 -0.1023  0.2870  0.1121
   15SAPS   H6R 1909   1.717   1.604   3.179  5.3723 -0.0709  0.8230
   15SAPS   C27 1910   1.728   1.815   3.230  0.5562  0.3697  0.2676
   15SAPS   H7R 1911   1.769   1.911   3.192 -0.1215 -0.1219 -1.8544
   15SAPS   H7S 1912   1.800   1.777   3.306  0.9958 -1.7153 -1.1045
   15SAPS   C28 1913   1.595   1.847   3.288  0.8090  0.7202  0.1866
   15SAPS   H8R 1914   1.541   1.922   3.228  1.1469  1.3935  0.7093
   15SAPS   C29 1915   1.561   1.810   3.412  0.8814  0.0361 -0.1691
   15SAPS   H9R 1916   1.462   1.835   3.453  0.2520 -1.9458 -0.3983
   15SAPS  C210 1917   1.630   1.719   3.504 -0.3659 -0.2306  0.0042
   15SAPS  H10R 1918   1.741   1.718   3.499 -0.2990 -0.3232  1.3097
   15SAPS  H10S 1919   1.605   1.616   3.470 -3.8126  0.1823  0.8666
   15SAPS  C211 1920   1.589   1.726   3.650  0.4366  0.0849  0.1107
   15SAPS  H11R 1921   1.510   1.801   3.665  0.6641  0.7671 -1.8408
   15SAPS  C212 1922   1.642   1.665   3.764 -0.0725 -0.0486  0.0817
   15SAPS  H12R 1923   1.581   1.669   3.855 -0.0613 -1.0496  0.1536
   15SAPS  C213 1924   1.747   1.554   3.767  0.1213 -0.1793 -0.5009
   15SAPS  H13R 1925   1.823   1.585   3.842  0.8444 -0.8566 -0.9417
   15SAPS  H13S 1926   1.796   1.543   3.668  1.7646 -1.3921  0.4124
   15SAPS  C214 1927   1.688   1.421   3.805 -0.9364 -0.8117 -0.3999
   15SAPS  H14R 1928   1.579   1.417   3.795 -0.8752 -1.7310 -0.8268
   15SAPS  C215 1929   1.755   1.320   3.862 -0.1377  0.1124 -0.2309
   15SAPS  H15R 1930   1.700   1.240   3.914  0.5320  1.4438  2.7564
   15SAPS  C216 1931   1.901   1.323   3.898  0.5274  0.3043 -0.1819
   15SAPS  H16R 1932   1.948   1.412   3.852  2.5828 -0.8255 -0.3974
   15SAPS  H16S 1933   1.947   1.233   3.850 -1.2239 -1.0085  0.4797
   15SAPS  C217 1934   1.928   1.323   4.045  0.7070 -0.3204 -0.4704
   15SAPS  H17R 1935   1.899   1.222   4.083 -1.4738 -0.2459 -1.7403
   15SAPS  H17S 1936   1.866   1.403   4.091  2.0335  0.0784  0.6704
   15SAPS  C218 1937   2.074   1.345   4.084 -0.9763  0.0210 -0.8906
   15SAPS  H18R 1938   2.091   1.455   4.084 -0.7440 -0.0136 -1.2750
   15SAPS  H18S 1939   2.144   1.303   4.009  0.8473  0.9054  0.2581
   15SAPS  C219 1940   2.107   1.314   4.229  0.1912  0.7141 -0.4498
   15SAPS  H19R 1941   2.218   1.322   4.223  0.1108  1.0729 -1.8437
   15SAPS  H19S 1942   2.099   1.208   4.261  2.4884  0.3814 -0.7428
   15SAPS  C220 1943   2.081   1.414   4.346 -0.4358 -0.7226 -0.3980
   15SAPS  H20R 1944   2.117   1.516   4.320 -1.1934 -0.1937  0.5279
   15SAPS  H20S 1945   2.130   1.390   4.443 -3.7003 -1.8185  1.1317
   15SAPS  H20T 1946   1.972   1.425   4.366 -0.5198 -1.1765 -0.5942
   15SAPS   C33 1947   2.133   1.422   2.729  0.2641 -0.0248  0.0306
   15SAPS   H3X 1948   2.232   1.420   2.678  0.9560 -1.2586  1.3636
   15SAPS   H3Y 1949   2.054   1.376   2.666 -0.2325  0.5484  0.2183
   15SAPS   C34 1950   2.151   1.338   2.853  0.2075  0.5537 -0.0861
   15SAPS   H4X 1951   2.228   1.382   2.920 -0.9673  0.8240  1.1355
   15SAPS   H4Y 1952   2.191   1.241   2.817  0.1898  0.9881 -1.3055
   15SAPS   C35 1953   2.014   1.302   2.924 -1.1201 -0.5179  0.1579
   15SAPS   H5X 1954   1.938   1.274   2.848 -0.4743 -0.2318 -0.6066
   15SAPS   H5Y 1955   1.965   1.391   2.970 -2.7126 -0.8536 -0.7878
   15SAPS   C36 1956   2.028   1.195   3.030 -0.6284  0.8338  0.3046
   15SAPS   H6X 1957   2.055   1.102   2.975 -3.0207  0.9523 -1.1680
   15SAPS   H6Y 1958   1.928   1.191   3.077 -1.6215  0.0451 -1.7691
   15SAPS   C37 1959   2.133   1.220   3.137  0.1233 -0.1255  1.4582
   15SAPS   H7X 1960   2.125   1.324   3.175 -2.1735 -0.3343  1.6418
   15SAPS   H7Y 1961   2.234   1.224   3.090 -0.4831 -2.4658 -0.2440
   15SAPS   C38 1962   2.117   1.113   3.250 -0.2604  0.6227 -0.6687
   15SAPS   H8X 1963   2.198   1.132   3.323 -1.4691  1.7340  0.4313
   15SAPS   H8Y 1964   2.146   1.017   3.202 -1.9379 -0.0729 -0.3538
   15SAPS   C39 1965   1.981   1.104   3.326 -0.2233 -0.5133 -0.1390
   15SAPS   H9X 1966   1.900   1.067   3.259 -0.6189 -1.6703  0.9376
   15SAPS   H9Y 1967   1.955   1.206   3.361  0.8562 -0.5058  0.6735
   15SAPS  C310 1968   1.982   1.008   3.450 -0.5198 -0.6183 -0.0331
   15SAPS  H10X 1969   2.026   0.912   3.416  1.7476  1.5839 -4.0660
   15SAPS  H10Y 1970   1.875   0.991   3.473 -0.6360  1.3332  1.1472
   15SAPS  C311 1971   2.052   1.069   3.575  0.2644 -0.5012 -0.4504
   15SAPS  H11X 1972   2.028   1.177   3.584  2.3434 -0.0829  0.8934
   15SAPS  H11Y 1973   2.159   1.068   3.548  0.7708 -0.6057  1.3789
   15SAPS  C312 1974   2.024   0.994   3.706  1.0541 -0.5879  0.8138
   15SAPS  H12X 1975   1.918   1.017   3.731  1.2288  0.0507  0.9782
   15SAPS  H12Y 1976   2.092   1.038   3.782  0.2009  1.0563  0.6626
   15SAPS  C313 1977   2.035   0.839   3.692 -0.0466 -0.3928 -1.1889
   15SAPS  H13X 1978   2.132   0.823   3.640  0.1837  0.1964 -0.9558
   15SAPS  H13Y 1979   1.947   0.795   3.642  0.6083 -2.4251 -0.6272
   15SAPS  C314 1980   2.055   0.776   3.833 -0.0645  0.4866  0.1217
   15SAPS  H14X 1981   1.964   0.807   3.889 -0.7666 -0.1083 -0.6702
   15SAPS  H14Y 1982   2.150   0.818   3.870  1.1019 -2.6466  1.0600
   15SAPS  C315 1983   2.070   0.623   3.831 -0.1798  0.4083  0.3751
   15SAPS  H15X 1984   2.148   0.602   3.755 -0.4121  1.7912 -0.2849
   15SAPS  H15Y 1985   1.979   0.569   3.798  0.2042 -1.0037  1.5112
   15SAPS  C316 1986   2.104   0.541   3.957 -0.5491  0.0043 -0.2099
   15SAPS  H16X 1987   2.026   0.553   4.034  1.1620 -0.0040  1.5966
   15SAPS  H16Y 1988   2.197   0.585   4.000  1.0348 -2.8259 -0.4835
   15SAPS  C317 1989   2.150   0.390   3.941  0.1909  0.2042 -0.0963
   15SAPS  H17X 1990   2.247   0.391   3.888  1.0143 -0.6703  1.3307
   15SAPS  H17Y 1991   2.071   0.328   3.893 -0.9273 -0.7114  2.7036
   15SAPS  C318 1992   2.163   0.305   4.074  0.2790  0.9071  0.6115
   15SAPS  H18X 1993   2.182   0.197   4.057 -1.3494  0.3582  1.9926
   15SAPS  H18Y 1994   2.065   0.313   4.126 -0.5553  0.2111 -0.7679
   15SAPS  H18Z 1995   2.236   0.359   4.138  0.6050  0.2700  0.7812
   16SAPS     N 1996   2.778   3.564   2.187 -0.5255  0.8100 -0.2259
   16SAPS   HN1 1997   2.831   3.571   2.276 -0.3741 -1.1258 -0.1060
   16SAPS   HN2 1998   2.791   3.652   2.133 -2.3868  0.9481 -0.5201
   16SAPS   HN3 1999   2.681   3.559   2.225 -0.4026 -3.1585  0.0584
   16SAPS   C12 2000   2.811   3.439   2.113  0.1839 -0.5092 -0.1741
   16SAPS  H12A 2001   2.816   3.359   2.185 -2.0524  0.0210  0.6413
   16SAPS   C13 2002   2.707   3.390   2.011 -0.6622  0.0669 -0.1008
   16SAPS  O13A 2003   2.608   3.465   1.985  0.0064  0.0492  0.3882
   16SAPS  O13B 2004   2.734   3.284   1.952 -0.0224 -0.0665 -0.3531
   16SAPS   C11 2005   2.943   3.462   2.036  0.0791 -0.1301  0.5088
   16SAPS  H11A 2006   2.924   3.550   1.972  0.2628 -0.4310  0.0343
   16SAPS  H11B 2007   2.966   3.384   1.960  1.2401  0.8130 -0.1419
   16SAPS     P 2008   3.188   3.421   2.098  0.1202  0.0563 -0.0877
   16SAPS   O13 2009   3.216   3.462   1.964 -0.1512  0.5289  0.3730
   16SAPS   O14 2010   3.290   3.459   2.204 -0.5722  0.9419 -0.7865
   16SAPS   O12 2011   3.046   3.479   2.128  0.0209 -0.3900  0.4384
   16SAPS   O11 2012   3.171   3.271   2.095 -0.2880  0.5970 -0.1490
   16SAPS    C1 2013   3.091   3.203   2.194  0.8504  0.4117  0.4907
   16SAPS    HA 2014   2.991   3.252   2.194  0.6623  0.0309  0.7532
   16SAPS    HB 2015   3.065   3.100   2.160  0.7823 -0.4047  2.8240
   16SAPS    C2 2016   3.151   3.211   2.340  0.3522 -0.1204  0.8917
   16SAPS    HS 2017   3.185   3.316   2.355 -2.1365  0.6556  1.5387
   16SAPS   O21 2018   3.261   3.124   2.339  0.8257 -0.1236  0.5511
   16SAPS   C21 2019   3.348   3.145   2.439  0.2291  0.0334  0.3206
   16SAPS   O22 2020   3.335   3.233   2.521 -0.0957  0.2298 -0.3798
   16SAPS   C22 2021   3.462   3.050   2.423 -0.5345  0.6295  0.7663
   16SAPS   H2R 2022   3.463   2.994   2.327  0.7742  0.9744  0.5559
   16SAPS   H2S 2023   3.555   3.111   2.415 -0.3948  0.3996  0.5932
   16SAPS    C3 2024   3.032   3.178   2.432 -0.1803 -0.4236 -0.3863
   16SAPS    HX 2025   2.988   3.087   2.386  1.5365 -0.2359 -2.5724
   16SAPS    HY 2026   2.954   3.256   2.421 -0.4144 -0.6391 -0.2532
   16SAPS   O31 2027   3.066   3.164   2.569 -0.2936 -0.3563  0.9466
   16SAPS   C31 2028   3.071   3.044   2.626  0.7562 -0.0173  0.1651
   16SAPS   O32 2029   3.026   2.940   2.580 -0.7783 -0.1912  1.0785
   16SAPS   C32 2030   3.140   3.066   2.761 -0.1071  0.5902  0.3823
   16SAPS   H2X 2031   3.070   3.125   2.823 -0.3588  0.1605  0.5076
   16SAPS   H2Y 2032   3.235   3.120   2.740  2.0956 -2.9192  0.5603
   16SAPS   C23 2033   3.489   2.940   2.522 -0.3887  1.0127  0.0606
   16SAPS   H3R 2034   3.541   2.857   2.470  0.7952 -0.6237  3.5934
   16SAPS   H3S 2035   3.390   2.905   2.555  0.7647 -0.6521  1.9691
   16SAPS   C24 2036   3.589   2.971   2.630 -0.0270 -1.1254  0.3561
   16SAPS   H4R 2037   3.681   3.015   2.585 -2.5431  2.9425 -1.3473
   16SAPS   H4S 2038   3.617   2.872   2.672  1.0060 -1.1139 -0.2675
   16SAPS   C25 2039   3.535   3.070   2.733  0.8729 -0.3126  0.2242
   16SAPS   H5R 2040   3.506   3.174   2.710 -1.7431 -0.5601  1.8934
   16SAPS   C26 2041   3.538   3.043   2.863 -0.0708 -0.4868 -0.0194
   16SAPS   H6R 2042   3.498   3.121   2.930 -0.8257 -0.1285 -0.8714
   16SAPS   C27 2043   3.582   2.909   2.927 -0.0540 -0.1088  0.7867
   16SAPS   H7R 2044   3.650   2.848   2.863 -2.2519 -0.1941 -1.6871
   16SAPS   H7S 2045   3.483   2.859   2.936 -0.7200  1.1878  0.9717
   16SAPS   C28 2046   3.652   2.929   3.062 -0.4516  0.1092  0.3456
   16SAPS   H8R 2047   3.761   2.929   3.052 -0.3665 -1.5825  1.0168
   16SAPS   C29 2048   3.592   2.940   3.177  0.1005 -1.1968  0.4315
   16SAPS   H9R 2049   3.654   2.961   3.266 -4.7663  0.4119  3.8200
   16SAPS  C210 2050   3.441   2.951   3.204 -0.0110 -0.3813 -0.5820
   16SAPS  H10R 2051   3.398   2.850   3.218 -4.4760  1.4524  0.7523
   16SAPS  H10S 2052   3.389   2.990   3.114 -1.6198 -0.5677  0.2419
   16SAPS  C211 2053   3.394   3.025   3.330 -0.3889  0.4022  0.4964
   16SAPS  H11R 2054   3.396   3.133   3.315  0.4271  0.4391  0.7855
   16SAPS  C212 2055   3.354   2.977   3.455 -0.2458  0.3079  0.2804
   16SAPS  H12R 2056   3.329   3.059   3.524  0.5442  0.4263  0.4364
   16SAPS  C213 2057   3.353   2.840   3.521 -0.5276  0.2540 -0.5064
   16SAPS  H13R 2058   3.378   2.782   3.430  0.8392  0.5325 -0.3358
   16SAPS  H13S 2059   3.250   2.821   3.559 -0.5050 -1.1592 -1.1279
   16SAPS  C214 2060   3.447   2.812   3.642 -0.1770  0.4456 -0.5389
   16SAPS  H14R 2061   3.552   2.780   3.626  1.0937  4.4098 -1.1695
   16SAPS  C215 2062   3.426   2.848   3.770 -0.2593  0.2680 -0.2981
   16SAPS  H15R 2063   3.502   2.822   3.845  0.2229 -0.0170 -0.8759
   16SAPS  C216 2064   3.301   2.921   3.818 -0.5988  0.6029 -0.0093
   16SAPS  H16R 2065   3.268   3.001   3.748 -1.5020  1.2063  1.0673
   16SAPS  H16S 2066   3.324   2.969   3.916  0.7652 -1.1851  0.6054
   16SAPS  C217 2067   3.173   2.831   3.840 -0.0643  0.6393 -0.9100
   16SAPS  H17R 2068   3.161   2.764   3.752  1.9243 -0.4902 -0.3733
   16SAPS  H17S 2069   3.085   2.897   3.859  1.1861  1.7894  1.3017
   16SAPS  C218 2070   3.205   2.746   3.971  0.2095  0.0129  0.3509
   16SAPS  H18R 2071   3.216   2.817   4.056 -0.0812  0.3031  0.1458
   16SAPS  H18S 2072   3.295   2.684   3.948 -0.3038 -0.0499 -1.6111
   16SAPS  C219 2073   3.089   2.651   3.998 -0.4477 -0.4667  0.4644
   16SAPS  H19R 2074   3.131   2.581   4.074 -0.0386  0.1277  0.7972
   16SAPS  H19S 2075   3.066   2.588   3.910  0.7495 -0.7866  0.3672
   16SAPS  C220 2076   2.961   2.722   4.042  0.7386  0.2502 -0.0400
   16SAPS  H20R 2077   2.915   2.787   3.965 -0.8954  1.8621  2.1547
   16SAPS  H20S 2078   2.972   2.793   4.127 -0.4639  0.2596  0.1263
   16SAPS  H20T 2079   2.888   2.644   4.072 -0.9380  1.4918 -0.7652
   16SAPS   C33 2080   3.190   2.943   2.823 -0.0067 -0.2235 -0.2113
   16SAPS   H3X 2081   3.295   2.952   2.860 -0.0290  0.9580 -0.4120
   16SAPS   H3Y 2082   3.186   2.851   2.760 -0.2312 -1.3753  1.3956
   16SAPS   C34 2083   3.102   2.917   2.945  0.0181  0.8905  0.3802
   16SAPS   H4X 2084   2.996   2.905   2.913 -0.1899  1.1688  0.9428
   16SAPS   H4Y 2085   3.100   3.000   3.020  0.3617 -0.9493  2.5293
   16SAPS   C35 2086   3.130   2.780   3.017 -0.5394  0.2137 -0.1659
   16SAPS   H5X 2087   3.235   2.791   3.050 -0.4297  1.4852 -0.8936
   16SAPS   H5Y 2088   3.120   2.693   2.949 -0.3788 -1.2525  1.6175
   16SAPS   C36 2089   3.031   2.761   3.135  0.2574  0.2815  0.2226
   16SAPS   H6X 2090   2.928   2.750   3.096 -0.7493  1.1391  2.4740
   16SAPS   H6Y 2091   3.047   2.852   3.197  2.2252  0.6310 -0.7276
   16SAPS   C37 2092   3.062   2.644   3.225  0.4381 -0.1956  0.1031
   16SAPS   H7X 2093   3.161   2.647   3.276  0.5337  0.6988 -0.1192
   16SAPS   H7Y 2094   3.068   2.555   3.159 -0.6654  1.2185 -2.0319
   16SAPS   C38 2095   2.972   2.615   3.343 -0.2342  0.2236 -0.1491
   16SAPS   H8X 2096   2.868   2.624   3.305 -0.5427 -0.9445  0.3497
   16SAPS   H8Y 2097   2.977   2.697   3.418  0.4976 -0.4074  0.5255
   16SAPS   C39 2098   3.000   2.487   3.411  0.1465 -0.2084 -0.5309
   16SAPS   H9X 2099   3.107   2.488   3.444  0.2521 -1.5472 -0.7947
   16SAPS   H9Y 2100   2.985   2.401   3.343  1.0693 -0.5512 -0.3266
   16SAPS  C310 2101   2.914   2.464   3.540  0.0330 -1.2757 -0.3657
   16SAPS  H10X 2102   2.806   2.478   3.515  0.5182  2.1684 -1.0618
   16SAPS  H10Y 2103   2.951   2.549   3.601  1.5229 -0.6683 -2.0295
   16SAPS  C311 2104   2.943   2.331   3.614  0.1650 -0.0271  0.8810
   16SAPS  H11X 2105   3.051   2.306   3.615  0.0528 -0.5414  0.3739
   16SAPS  H11Y 2106   2.898   2.248   3.555  2.9506  0.8841 -2.9421
   16SAPS  C312 2107   2.888   2.326   3.754  0.7371  0.4864  0.1699
   16SAPS  H12X 2108   2.779   2.344   3.756  0.7477  0.5674  0.0270
   16SAPS  H12Y 2109   2.936   2.400   3.821  0.3898  1.4137 -0.5914
   16SAPS  C313 2110   2.913   2.191   3.825  0.0373 -0.1010 -0.6327
   16SAPS  H13X 2111   3.022   2.193   3.845  0.0766 -1.3304 -0.6907
   16SAPS  H13Y 2112   2.893   2.123   3.740 -1.0681  2.4092 -2.5267
   16SAPS  C314 2113   2.824   2.158   3.946 -0.0318  0.3554  0.8981
   16SAPS  H14X 2114   2.841   2.058   3.991  0.6184  0.2233  0.3743
   16SAPS  H14Y 2115   2.724   2.166   3.899  0.5977  0.3824 -0.4751
   16SAPS  C315 2116   2.836   2.271   4.048  0.0535  0.0119 -0.9750
   16SAPS  H15X 2117   2.805   2.360   3.989  0.7517 -1.3515 -3.5959
   16SAPS  H15Y 2118   2.946   2.281   4.054 -0.1486  1.7751  0.3411
   16SAPS  C316 2119   2.774   2.255   4.187 -0.3419 -0.0111  0.2466
   16SAPS  H16X 2120   2.844   2.182   4.234  2.1768  1.1444 -1.5057
   16SAPS  H16Y 2121   2.668   2.222   4.178 -0.0963 -0.7616  0.0237
   16SAPS  C317 2122   2.785   2.379   4.276 -0.2042 -0.2886  0.7098
   16SAPS  H17X 2123   2.749   2.472   4.227  1.6125  0.3369  0.5246
   16SAPS  H17Y 2124   2.895   2.391   4.285  0.0163 -0.6991 -1.0148
   16SAPS  C318 2125   2.727   2.355   4.414 -0.1507 -0.1670  0.5872
   16SAPS  H18X 2126   2.748   2.452   4.464 -0.0708  0.6820 -1.0447
   16SAPS  H18Y 2127   2.771   2.270   4.471  1.4755 -0.8236 -1.5424
   16SAPS  H18Z 2128   2.616   2.352   4.404  0.0097 -0.2322 -1.5474
   17SAPS     N 2129   5.631   4.134   1.866  0.4330 -0.1155  0.0591
   17SAPS   HN1 2130   5.582   4.061   1.810  1.3526 -0.8149  0.1443
   17SAPS   HN2 2131   5.594   4.228   1.841  0.2316 -0.1478  0.2357
   17SAPS   HN3 2132   5.730   4.132   1.834 -0.2024  2.9832 -2.6930
   17SAPS   C12 2133   5.622   4.101   2.019 -0.1336  0.3558  0.7079
   17SAPS  H12A 2134   5.518   4.110   2.046 -0.5025  0.7868 -0.7386
   17SAPS   C13 2135   5.665   3.955   2.057 -0.6319  0.3904  1.1184
   17SAPS  O13A 2136   5.702   3.880   1.964 -0.5077  0.5237  0.3873
   17SAPS  O13B 2137   5.685   3.920   2.178  0.2952 -0.4382  0.1425
   17SAPS   C11 2138   5.707   4.211   2.098 -0.5674 -0.4074 -0.3918
   17SAPS  H11A 2139   5.815   4.200   2.072 -0.6080  1.1591 -1.3126
   17SAPS  H11B 2140   5.702   4.193   2.208  2.8705 -0.3551 -0.1109
   17SAPS     P 2141   5.548   4.422   2.124 -0.0140 -0.1772  0.4235
   17SAPS   O13 2142   5.569   4.565   2.121 -0.2925 -0.0727  0.4001
   17SAPS   O14 2143   5.434   4.367   2.044  0.4370  0.0198  0.2075
   17SAPS   O12 2144   5.676   4.347   2.067  0.2563 -0.2919 -0.2274
   17SAPS   O11 2145   5.537   4.387   2.283 -0.6217 -0.4486  0.2907
   17SAPS    C1 2146   5.621   4.472   2.366 -0.2584  0.5001  0.4433
   17SAPS    HA 2147   5.722   4.487   2.322 -0.2930  2.3647  0.9315
   17SAPS    HB 2148   5.572   4.571   2.364 -1.1943  0.0412 -1.4339
   17SAPS    C2 2149   5.638   4.417   2.510  0.2096 -0.2309  0.5237
   17SAPS    HS 2150   5.701   4.327   2.493  0.6490  0.5439 -2.6870
   17SAPS   O21 2151   5.512   4.396   2.573 -0.5358  0.6698  0.2439
   17SAPS   C21 2152   5.513   4.295   2.659 -1.0139  0.4266  0.7897
   17SAPS   O22 2153   5.612   4.220   2.675 -0.1466 -0.2422 -0.1102
   17SAPS   C22 2154   5.384   4.284   2.734  0.3582 -0.5010  0.3609
   17SAPS   H2R 2155   5.375   4.389   2.769  1.9082  0.4730 -1.9253
   17SAPS   H2S 2156   5.313   4.270   2.650  1.4174  0.9000 -0.8354
   17SAPS    C3 2157   5.720   4.518   2.593  0.0155 -0.0064  0.4100
   17SAPS    HX 2158   5.675   4.619   2.608  0.6345  0.7314 -2.1143
   17SAPS    HY 2159   5.812   4.554   2.541  0.5122  1.0473  1.9308
   17SAPS   O31 2160   5.756   4.466   2.727  0.2900  0.6874  0.6675
   17SAPS   C31 2161   5.872   4.502   2.785 -0.2775 -0.6802  0.6120
   17SAPS   O32 2162   5.952   4.587   2.741 -0.3915 -0.2781  0.1612
   17SAPS   C32 2163   5.903   4.418   2.906 -0.0114  0.2397  0.5772
   17SAPS   H2X 2164   5.864   4.466   2.998  2.1321 -0.2512  1.8099
   17SAPS   H2Y 2165   6.011   4.400   2.922 -0.5563 -1.8896  2.4259
   17SAPS   C23 2166   5.384   4.175   2.846 -0.2589 -0.4287 -0.1861
   17SAPS   H3R 2167   5.475   4.197   2.907  1.9927 -1.7905 -2.8364
   17SAPS   H3S 2168   5.400   4.077   2.798  0.1643 -0.7629  0.6129
   17SAPS   C24 2169   5.251   4.171   2.926  0.1794 -0.0543  0.5177
   17SAPS   H4R 2170   5.169   4.165   2.850 -0.0307 -0.3441  0.7663
   17SAPS   H4S 2171   5.232   4.267   2.978  2.3798 -0.3982  2.0429
   17SAPS   C25 2172   5.244   4.050   3.016 -0.1144 -0.0290  0.4278
   17SAPS   H5R 2173   5.212   3.959   2.962 -0.1894  0.7869 -0.9534
   17SAPS   C26 2174   5.275   4.033   3.139  0.0089  0.8141 -0.1555
   17SAPS   H6R 2175   5.243   3.943   3.193  5.6357 -2.3933 -1.3816
   17SAPS   C27 2176   5.312   4.144   3.236  0.3404 -0.6949  0.2967
   17SAPS   H7R 2177   5.263   4.126   3.334  0.1491  0.3465  0.4002
   17SAPS   H7S 2178   5.275   4.244   3.204 -0.2063 -0.7935  0.6084
   17SAPS   C28 2179   5.461   4.145   3.260  0.0119  0.5364  0.3651
   17SAPS   H8R 2180   5.528   4.092   3.191  1.0195  0.1630  1.5849
   17SAPS   C29 2181   5.521   4.202   3.368 -0.0996 -0.1298  0.1191
   17SAPS   H9R 2182   5.631   4.193   3.364 -0.1242 -0.6096  0.4623
   17SAPS  C210 2183   5.462   4.272   3.489 -0.3463 -0.4905 -0.1245
   17SAPS  H10R 2184   5.360   4.313   3.471  0.1959  0.9339 -0.1125
   17SAPS  H10S 2185   5.524   4.364   3.498  0.0784 -0.6124 -1.5724
   17SAPS  C211 2186   5.461   4.183   3.613 -0.6136 -0.4592  0.0022
   17SAPS  H11R 2187   5.408   4.087   3.607  1.2418 -1.4511 -2.0527
   17SAPS  C212 2188   5.521   4.205   3.736  0.7564  0.7081 -0.0532
   17SAPS  H12R 2189   5.504   4.129   3.813  0.0913 -0.1277 -0.9984
   17SAPS  C213 2190   5.598   4.327   3.772 -0.0595  0.5739  0.1009
   17SAPS  H13R 2191   5.546   4.402   3.836  0.7462  1.7054 -0.5409
   17SAPS  H13S 2192   5.628   4.379   3.678  0.6863  1.0444  0.5872
   17SAPS  C214 2193   5.723   4.291   3.850  0.1830  0.3131  0.4739
   17SAPS  H14R 2194   5.811   4.300   3.784 -0.4648 -0.0241 -0.4462
   17SAPS  C215 2195   5.723   4.256   3.980 -0.1387 -0.0081 -0.4754
   17SAPS  H15R 2196   5.817   4.224   4.028  1.0092  2.3696 -0.9777
   17SAPS  C216 2197   5.607   4.249   4.070  0.4309  0.2053 -0.8952
   17SAPS  H16R 2198   5.512   4.263   4.014  1.9821  2.4880 -3.1711
   17SAPS  H16S 2199   5.628   4.323   4.149  2.8211  1.4902 -2.5955
   17SAPS  C217 2200   5.579   4.111   4.134  0.3565 -0.8880 -0.0342
   17SAPS  H17R 2201   5.591   4.030   4.059 -0.4818 -1.8873  0.8768
   17SAPS  H17S 2202   5.476   4.109   4.175  0.2181 -1.4018 -0.3952
   17SAPS  C218 2203   5.674   4.069   4.248 -0.5194 -0.4651 -0.0901
   17SAPS  H18R 2204   5.653   4.132   4.337 -1.5764 -2.7933  1.4159
   17SAPS  H18S 2205   5.778   4.092   4.217 -0.0605 -0.5268  1.3328
   17SAPS  C219 2206   5.662   3.918   4.287 -0.6750  0.0941  0.4302
   17SAPS  H19R 2207   5.688   3.880   4.186 -1.6118  2.6345 -0.8627
   17SAPS  H19S 2208   5.555   3.896   4.309 -0.9751 -1.1924 -2.0000
   17SAPS  C220 2209   5.757   3.870   4.393 -0.5825  1.0283  0.0134
   17SAPS  H20R 2210   5.751   3.760   4.406 -4.7299  1.1203  0.3091
   17SAPS  H20S 2211   5.732   3.933   4.481  1.1037  2.1710 -0.2733
   17SAPS  H20T 2212   5.859   3.903   4.365 -0.5407  1.2041  0.3678
   17SAPS   C33 2213   5.831   4.278   2.899  1.0579  0.6114 -0.1115
   17SAPS   H3X 2214   5.849   4.232   2.800 -3.4715 -1.7773 -0.0630
   17SAPS   H3Y 2215   5.722   4.302   2.902  1.2579  1.4911  0.7119
   17SAPS   C34 2216   5.870   4.187   3.009  0.2803  0.5745 -0.2381
   17SAPS   H4X 2217   5.963   4.137   2.973  0.2228 -1.5532  2.2179
   17SAPS   H4Y 2218   5.798   4.103   3.022  0.4973  0.4233  0.0152
   17SAPS   C35 2219   5.897   4.251   3.141 -0.1609 -0.6571  0.5207
   17SAPS   H5X 2220   5.824   4.327   3.176  0.0136 -0.1791 -0.1291
   17SAPS   H5Y 2221   5.995   4.305   3.143 -1.0963  1.0990  2.5039
   17SAPS   C36 2222   5.906   4.144   3.251 -0.0658 -0.0956  0.2494
   17SAPS   H6X 2223   5.990   4.078   3.221 -0.7152  0.4513 -3.1883
   17SAPS   H6Y 2224   5.811   4.087   3.257  0.1209 -0.4175  0.1566
   17SAPS   C37 2225   5.942   4.209   3.380 -0.1666 -0.8940 -0.1709
   17SAPS   H7X 2226   5.865   4.279   3.417  2.5324  0.7430  2.8506
   17SAPS   H7Y 2227   6.033   4.272   3.372 -0.8329 -0.0104 -1.0081
   17SAPS   C38 2228   5.958   4.105   3.491 -0.0157 -0.7947  0.3656
   17SAPS   H8X 2229   5.998   4.012   3.446  1.6410 -1.1710  2.4545
   17SAPS   H8Y 2230   5.856   4.067   3.511  0.0803 -1.1698  0.1371
   17SAPS   C39 2231   6.033   4.139   3.622  0.7246 -0.3436  0.1785
   17SAPS   H9X 2232   5.983   4.232   3.656  1.1415 -0.0371 -0.0316
   17SAPS   H9Y 2233   6.137   4.164   3.593  0.5102 -0.3598 -0.6322
   17SAPS  C310 2234   6.020   4.028   3.726  0.3203 -0.5785  0.9740
   17SAPS  H10X 2235   6.066   3.939   3.677 -0.8151 -1.0405  0.7273
   17SAPS  H10Y 2236   5.918   4.002   3.760 -0.5580  1.2543 -0.1860
   17SAPS  C311 2237   6.113   4.069   3.841 -0.4197 -0.0242  0.2867
   17SAPS  H11X 2238   6.092   4.176   3.865 -2.0282 -0.3195  0.3457
   17SAPS  H11Y 2239   6.216   4.064   3.801  0.4197  2.4099  1.9451
   17SAPS  C312 2240   6.096   3.983   3.963 -0.2220 -0.2066 -0.5167
   17SAPS  H12X 2241   6.110   3.876   3.934  1.7349 -0.1685  0.1438
   17SAPS  H12Y 2242   5.997   4.003   4.009 -0.4993 -1.1580 -0.6779
   17SAPS  C313 2243   6.195   4.010   4.076  0.4035  0.4127 -0.5265
   17SAPS  H13X 2244   6.201   4.121   4.075  3.3300  0.3865 -3.0094
   17SAPS  H13Y 2245   6.301   3.979   4.059  0.2653 -0.3554 -0.0013
   17SAPS  C314 2246   6.129   3.970   4.210  0.3096  0.1235  0.4330
   17SAPS  H14X 2247   6.112   3.861   4.197  0.5027 -0.0235  1.3282
   17SAPS  H14Y 2248   6.044   4.040   4.225 -0.0604  0.0264 -1.0004
   17SAPS  C315 2249   6.215   3.990   4.332 -0.2564  0.7876  0.1585
   17SAPS  H15X 2250   6.231   4.100   4.328  1.8275  0.4808 -1.4330
   17SAPS  H15Y 2251   6.314   3.941   4.317 -0.5570  0.6908 -1.8142
   17SAPS  C316 2252   6.149   3.959   4.466  0.1469 -0.0610 -0.3375
   17SAPS  H16X 2253   6.046   4.000   4.460 -0.2375 -1.1948 -2.6279
   17SAPS  H16Y 2254   6.210   4.005   4.547  1.2686 -0.3754 -0.9754
   17SAPS  C317 2255   6.141   3.809   4.499  0.1009 -0.4636 -0.3264
   17SAPS  H17X 2256   6.235   3.766   4.458  1.2023  1.5688 -0.0502
   17SAPS  H17Y 2257   6.068   3.758   4.433  2.3238 -0.4727 -2.9817
   17SAPS  C318 2258   6.103   3.775   4.645 -0.1874  0.3035  0.8787
   17SAPS  H18X 2259   6.178   3.819   4.714  0.1118  0.7704  0.2658
   17SAPS  H18Y 2260   6.083   3.667   4.661 -1.6690  0.6738  1.7696
   17SAPS  H18Z 2261   6.010   3.829   4.672  0.4617 -0.1504  4.6183
   18SAPS     N 2262   2.823   0.061   2.190 -0.0289  0.3859  0.7287
   18SAPS   HN1 2263   2.766  -0.024   2.202  1.0580 -0.5026 -0.1572
   18SAPS   HN2 2264   2.868   0.091   2.279  0.5317 -1.0417  0.9418
   18SAPS   HN3 2265   2.761   0.138   2.156  0.6456 -0.0328 -1.6508
   18SAPS   C12 2266   2.910   0.034   2.070  0.0923 -0.1354  0.4137
   18SAPS  H12A 2267   2.967  -0.056   2.089 -0.1219 -1.1100 -2.9320
   18SAPS   C13 2268   2.828  -0.005   1.941  0.0274 -0.6258 -0.3987
   18SAPS  O13A 2269   2.703  -0.020   1.935  0.1944 -0.4432  0.7403
   18SAPS  O13B 2270   2.892  -0.021   1.833  0.5745 -0.3000 -0.1853
   18SAPS   C11 2271   3.002   0.157   2.043 -0.0571  0.0301  1.0320
   18SAPS  H11A 2272   2.944   0.238   1.994 -0.9758 -2.0460 -1.5480
   18SAPS  H11B 2273   3.072   0.123   1.965 -0.0332 -0.5018  1.2773
   18SAPS     P 2274   3.140   0.340   2.176 -0.2116 -0.1560 -0.4650
   18SAPS   O13 2275   3.251   0.355   2.083  0.2923  0.0324 -0.3802
   18SAPS   O14 2276   3.045   0.452   2.172  0.7000  0.2206  0.0038
   18SAPS   O12 2277   3.074   0.196   2.160 -0.3606  0.4562  0.1746
   18SAPS   O11 2278   3.200   0.320   2.327 -0.1627 -0.8493  0.2054
   18SAPS    C1 2279   3.275   0.200   2.354  0.2241  0.4993  0.2580
   18SAPS    HA 2280   3.332   0.170   2.263  2.8473  1.0429  1.6269
   18SAPS    HB 2281   3.356   0.225   2.426 -0.0428 -0.6139  0.9757
   18SAPS    C2 2282   3.195   0.082   2.411 -0.0816  1.2022 -0.1378
   18SAPS    HS 2283   3.121   0.059   2.331  1.5050 -0.4658 -1.2110
   18SAPS   O21 2284   3.144   0.117   2.539 -0.0948 -0.8178 -0.6125
   18SAPS   C21 2285   3.012   0.131   2.546 -0.3328  0.4549 -0.1800
   18SAPS   O22 2286   2.939   0.122   2.446  0.0486 -0.0734  0.2412
   18SAPS   C22 2287   2.948   0.141   2.683 -0.5529 -0.0873 -0.3071
   18SAPS   H2R 2288   2.914   0.245   2.701 -1.5786 -0.2070 -1.4523
   18SAPS   H2S 2289   2.857   0.078   2.675  0.1678 -1.2853  0.4777
   18SAPS    C3 2290   3.275  -0.050   2.439  0.5960  0.1100 -0.3378
   18SAPS    HX 2291   3.350  -0.027   2.518  0.4968 -0.9179  0.0732
   18SAPS    HY 2292   3.333  -0.071   2.347 -2.4071 -1.7147 -1.9655
   18SAPS   O31 2293   3.181  -0.156   2.480 -0.2009  0.5817 -0.1880
   18SAPS   C31 2294   3.113  -0.208   2.384  0.5014  0.4063  0.7754
   18SAPS   O32 2295   3.115  -0.184   2.263 -0.4729  0.7074  0.3990
   18SAPS   C32 2296   3.020  -0.317   2.447  0.4699 -0.7606  0.0337
   18SAPS   H2X 2297   2.945  -0.340   2.369 -1.4073 -0.7268  1.7559
   18SAPS   H2Y 2298   2.974  -0.288   2.544  2.5252  1.7783  0.3810
   18SAPS   C23 2299   3.036   0.122   2.798 -1.1651  0.5158  0.1333
   18SAPS   H3R 2300   2.976   0.154   2.886 -0.7107 -1.6649  1.3005
   18SAPS   H3S 2301   3.129   0.184   2.791  0.6966 -2.2420 -1.0083
   18SAPS   C24 2302   3.071  -0.024   2.826  0.5553  0.5537 -0.1833
   18SAPS   H4R 2303   3.140  -0.022   2.913  1.6003 -0.4358 -0.9607
   18SAPS   H4S 2304   3.125  -0.069   2.740  1.1388  0.5932  0.1638
   18SAPS   C25 2305   2.961  -0.115   2.853  0.5685 -0.0418 -0.1058
   18SAPS   H5R 2306   2.927  -0.176   2.768  0.3039 -1.0065  0.6720
   18SAPS   C26 2307   2.923  -0.156   2.977 -0.5446  0.9326 -0.5626
   18SAPS   H6R 2308   2.838  -0.225   2.987  0.5860 -0.3767  0.5974
   18SAPS   C27 2309   2.983  -0.126   3.109 -0.4597 -0.1293  0.2779
   18SAPS   H7R 2310   3.093  -0.114   3.099 -0.2037 -2.0832  0.4375
   18SAPS   H7S 2311   2.984  -0.216   3.173 -0.5201 -1.7592 -1.8743
   18SAPS   C28 2312   2.937  -0.000   3.173 -0.2148  0.1575 -0.0278
   18SAPS   H8R 2313   2.911   0.077   3.100 -1.2544 -1.4818 -1.4713
   18SAPS   C29 2314   2.902   0.023   3.308 -0.0331  0.2975  0.8951
   18SAPS   H9R 2315   2.866   0.125   3.331  1.3812  0.9837  0.1989
   18SAPS  C210 2316   2.934  -0.061   3.425 -0.4714 -0.2004 -0.3107
   18SAPS  H10R 2317   2.890  -0.160   3.401 -1.0245  0.1204 -0.6634
   18SAPS  H10S 2318   2.866  -0.043   3.510  1.2698 -2.9232  1.8451
   18SAPS  C211 2319   3.080  -0.070   3.472  0.4789 -0.1270 -0.0888
   18SAPS  H11R 2320   3.134  -0.154   3.424  2.5103  1.2122 -0.2875
   18SAPS  C212 2321   3.152   0.011   3.551  0.0366  0.7194  0.6440
   18SAPS  H12R 2322   3.262   0.015   3.540 -0.1579  1.3370 -1.6735
   18SAPS  C213 2323   3.085   0.123   3.613  0.5220  0.2116  0.2409
   18SAPS  H13R 2324   2.989   0.148   3.563 -0.7741  0.1951  2.5824
   18SAPS  H13S 2325   3.149   0.213   3.606 -0.1588  0.7534  0.8109
   18SAPS  C214 2326   3.034   0.095   3.753  0.1121 -0.5739 -0.0309
   18SAPS  H14R 2327   2.925   0.095   3.761  0.1836 -2.7518  1.5282
   18SAPS  C215 2328   3.099   0.079   3.869 -0.1634 -0.9165  0.5759
   18SAPS  H15R 2329   3.036   0.043   3.952 -0.9229  0.6281  0.7260
   18SAPS  C216 2330   3.246   0.062   3.879 -0.8958 -0.3660  0.0963
   18SAPS  H16R 2331   3.303   0.070   3.784  0.0038 -2.5671  0.3869
   18SAPS  H16S 2332   3.274  -0.037   3.923  1.5320 -0.0529 -0.5806
   18SAPS  C217 2333   3.306   0.175   3.964 -0.5735  0.9222 -0.2148
   18SAPS  H17R 2334   3.258   0.184   4.064  0.0750  0.8560  0.1070
   18SAPS  H17S 2335   3.286   0.271   3.913 -1.8618  0.3959 -0.7533
   18SAPS  C218 2336   3.457   0.146   3.988  0.5698  0.0090  0.0373
   18SAPS  H18R 2337   3.509   0.162   3.891 -0.7635  1.3063 -0.5091
   18SAPS  H18S 2338   3.469   0.038   4.011  0.4428 -0.0595 -0.2136
   18SAPS  C219 2339   3.525   0.227   4.098 -0.4501  0.2711  0.4170
   18SAPS  H19R 2340   3.472   0.217   4.194  0.5727 -2.2344  0.7973
   18SAPS  H19S 2341   3.520   0.334   4.067 -0.0503  0.4378  0.8981
   18SAPS  C220 2342   3.675   0.213   4.113 -0.0159  0.0455  0.5882
   18SAPS  H20R 2343   3.723   0.283   4.184  0.6927 -0.1235  0.2846
   18SAPS  H20S 2344   3.716   0.237   4.012 -1.6065 -1.8843 -0.6144
   18SAPS  H20T 2345   3.696   0.106   4.132  0.4574 -0.0711 -0.4877
   18SAPS   C33 2346   3.095  -0.452   2.473  0.5039 -0.0407  0.2232
   18SAPS   H3X 2347   3.178  -0.449   2.548  0.3517  0.5433  0.3722
   18SAPS   H3Y 2348   3.139  -0.488   2.378  0.0507  0.1710 -0.0690
   18SAPS   C34 2349   2.994  -0.557   2.514  0.1371  0.6141  0.1551
   18SAPS   H4X 2350   3.044  -0.656   2.519 -0.2243  0.3782 -0.7694
   18SAPS   H4Y 2351   2.914  -0.566   2.437 -0.2947 -1.5667  0.7792
   18SAPS   C35 2352   2.937  -0.548   2.656  0.3891 -0.1177 -0.5663
   18SAPS   H5X 2353   2.904  -0.646   2.695 -0.0588  0.8292  1.5449
   18SAPS   H5Y 2354   2.851  -0.477   2.647 -0.7492 -1.0105  2.2854
   18SAPS   C36 2355   3.028  -0.508   2.775 -0.1635 -0.4095 -0.0064
   18SAPS   H6X 2356   3.052  -0.400   2.779 -1.4996 -0.1292  1.3338
   18SAPS   H6Y 2357   3.121  -0.569   2.780  0.4394  0.5117  0.1314
   18SAPS   C37 2358   2.965  -0.538   2.915  0.7206 -0.0412  0.0100
   18SAPS   H7X 2359   2.960  -0.647   2.931 -0.5830  0.2297  1.7290
   18SAPS   H7Y 2360   2.861  -0.503   2.933  1.0001  0.5587  0.5123
   18SAPS   C38 2361   3.056  -0.488   3.022  0.3237 -0.5707 -0.6953
   18SAPS   H8X 2362   3.080  -0.380   3.011 -1.6675  0.3204  2.4224
   18SAPS   H8Y 2363   3.144  -0.556   3.029  1.0047  0.3845  0.4142
   18SAPS   C39 2364   2.993  -0.478   3.161  0.0433  1.2576 -0.5454
   18SAPS   H9X 2365   2.953  -0.581   3.171  1.3035  0.8753  0.9393
   18SAPS   H9Y 2366   2.898  -0.420   3.160 -0.6399  0.1615 -1.8537
   18SAPS  C310 2367   3.083  -0.442   3.281 -0.2681 -0.2037  0.1258
   18SAPS  H10X 2368   3.138  -0.348   3.261 -0.1137 -0.1137  0.9236
   18SAPS  H10Y 2369   3.159  -0.523   3.279 -0.5608 -0.4700 -1.2000
   18SAPS  C311 2370   3.012  -0.447   3.417 -0.5121 -0.4210  0.5288
   18SAPS  H11X 2371   2.930  -0.377   3.444 -0.1138 -0.2770  1.3927
   18SAPS  H11Y 2372   3.080  -0.423   3.501 -1.0011 -0.6210  0.9919
   18SAPS  C312 2373   2.954  -0.588   3.453 -0.3448  0.1015  0.1812
   18SAPS  H12X 2374   3.048  -0.646   3.448 -1.0701 -1.2658  1.6582
   18SAPS  H12Y 2375   2.879  -0.619   3.377 -3.1753  0.9583  2.4228
   18SAPS  C313 2376   2.896  -0.577   3.592  0.3116  0.1414 -0.4724
   18SAPS  H13X 2377   2.785  -0.578   3.587  0.1704  1.6554  1.3756
   18SAPS  H13Y 2378   2.905  -0.473   3.629 -0.1878  0.8300 -2.1788
   18SAPS  C314 2379   2.952  -0.685   3.691 -0.1174 -0.3322 -0.5118
   18SAPS  H14X 2380   3.062  -0.683   3.702 -0.1567  0.4345 -0.2427
   18SAPS  H14Y 2381   2.931  -0.783   3.642 -2.0861 -0.3175  0.2314
   18SAPS  C315 2382   2.895  -0.659   3.833 -0.5571 -0.6373 -0.3672
   18SAPS  H15X 2383   2.786  -0.640   3.826 -0.9570 -2.4556  0.1708
   18SAPS  H15Y 2384   2.939  -0.568   3.879  0.0288 -0.0601 -2.0104
   18SAPS  C316 2385   2.938  -0.775   3.916 -0.7502  0.1607 -0.7446
   18SAPS  H16X 2386   3.047  -0.786   3.934 -0.8160  1.5019  0.5762
   18SAPS  H16Y 2387   2.909  -0.870   3.866  0.6221 -1.1462  0.8234
   18SAPS  C317 2388   2.873  -0.775   4.055 -0.1791 -0.6970  0.2426
   18SAPS  H17X 2389   2.765  -0.753   4.041 -0.1269 -0.8589 -0.4547
   18SAPS  H17Y 2390   2.917  -0.682   4.095 -2.1347  0.7674 -0.8434
   18SAPS  C318 2391   2.906  -0.900   4.133  0.8225 -0.1943  0.5322
   18SAPS  H18X 2392   2.843  -0.912   4.223  0.2011  1.2235  0.3206
   18SAPS  H18Y 2393   3.016  -0.900   4.146  1.2745  1.4029 -2.2633
   18SAPS  H18Z 2394   2.877  -0.988   4.072 -1.9740  1.2194 -0.3824
   19SAPS     N 2395   2.252   4.131   1.901 -0.1263 -0.2295 -0.4971
   19SAPS   HN1 2396   2.198   4.084   1.826  0.3933  0.1624 -1.1214
   19SAPS   HN2 2397   2.345   4.083   1.900  0.0346  0.0705 -1.6124
   19SAPS   HN3 2398   2.193   4.117   1.985 -0.5921 -0.2942 -0.8335
   19SAPS   C12 2399   2.266   4.279   1.873 -0.4795  0.0944  0.6776
   19SAPS  H12A 2400   2.353   4.311   1.929  0.5844  0.9251 -1.3729
   19SAPS   C13 2401   2.298   4.313   1.724 -0.3078  0.6705 -0.5945
   19SAPS  O13A 2402   2.309   4.222   1.639  0.2625 -0.2453  0.0938
   19SAPS  O13B 2403   2.339   4.431   1.700 -0.7606  0.5165  0.4593
   19SAPS   C11 2404   2.130   4.354   1.920 -0.2754 -0.5696 -0.3116
   19SAPS  H11A 2405   2.048   4.296   1.873 -0.6588 -0.4171  0.1587
   19SAPS  H11B 2406   2.122   4.457   1.880  1.7384 -0.5747 -0.8645
   19SAPS     P 2407   1.974   4.408   2.113 -0.1472 -0.5646  0.0269
   19SAPS   O13 2408   2.004   4.517   2.205 -0.2117 -0.0091  0.6055
   19SAPS   O14 2409   1.882   4.431   1.995 -0.8219  0.5692  0.1084
   19SAPS   O12 2410   2.112   4.353   2.067  0.5264 -0.2688  0.5136
   19SAPS   O11 2411   1.925   4.283   2.195 -0.0274 -0.2768  0.4166
   19SAPS    C1 2412   1.931   4.294   2.334 -0.3898  0.1986 -0.2401
   19SAPS    HA 2413   1.928   4.392   2.386 -0.1555  0.0330  0.0969
   19SAPS    HB 2414   1.843   4.238   2.373 -1.1314 -0.8284 -3.1586
   19SAPS    C2 2415   2.059   4.223   2.390  0.2447 -0.6643 -0.1482
   19SAPS    HS 2416   2.081   4.145   2.314  3.0727 -1.0479  0.9566
   19SAPS   O21 2417   2.023   4.169   2.521  0.2964 -0.2332 -0.2874
   19SAPS   C21 2418   2.113   4.091   2.582 -0.7471  0.2643  0.0339
   19SAPS   O22 2419   2.209   4.047   2.529  0.5743 -0.1077 -0.5717
   19SAPS   C22 2420   2.077   4.064   2.734 -0.4970 -0.3638 -0.3442
   19SAPS   H2R 2421   1.996   4.128   2.774  0.9338  0.9190  0.6297
   19SAPS   H2S 2422   2.045   3.958   2.733  0.8329 -0.7867 -0.8036
   19SAPS    C3 2423   2.171   4.333   2.408  0.5208  0.0514 -0.1651
   19SAPS    HX 2424   2.188   4.363   2.303 -1.2314 -0.2096 -0.5654
   19SAPS    HY 2425   2.268   4.290   2.440  0.3541 -0.8099 -0.7852
   19SAPS   O31 2426   2.131   4.437   2.496  0.0881 -0.3915  0.0117
   19SAPS   C31 2427   2.228   4.526   2.521 -0.2185  0.1046  0.1419
   19SAPS   O32 2428   2.331   4.543   2.462  0.0711  0.3216 -0.2323
   19SAPS   C32 2429   2.177   4.621   2.627  0.2742  0.3672  0.3431
   19SAPS   H2X 2430   2.110   4.689   2.570  0.1108 -0.5673 -0.6019
   19SAPS   H2Y 2431   2.252   4.693   2.666  0.5075  0.3816 -0.1260
   19SAPS   C23 2432   2.212   4.067   2.825 -0.4614  0.5407  0.0921
   19SAPS   H3R 2433   2.243   4.173   2.836 -1.8946  1.0355 -0.2991
   19SAPS   H3S 2434   2.292   4.010   2.774 -1.2449  0.2390 -0.8400
   19SAPS   C24 2435   2.189   3.989   2.953 -0.5573 -0.7217  0.3338
   19SAPS   H4R 2436   2.286   3.990   3.007  0.1192  1.2234 -0.8235
   19SAPS   H4S 2437   2.166   3.888   2.914 -0.1555 -1.4776  1.9661
   19SAPS   C25 2438   2.072   4.034   3.038 -0.6591  0.3239 -0.2914
   19SAPS   H5R 2439   1.977   4.036   2.981 -0.8939 -0.0910  0.0771
   19SAPS   C26 2440   2.079   4.072   3.165  0.4646  0.0089  0.2008
   19SAPS   H6R 2441   1.983   4.096   3.212 -0.4508 -1.0659 -1.0445
   19SAPS   C27 2442   2.199   4.055   3.256  0.7178 -0.2881 -0.2713
   19SAPS   H7R 2443   2.297   4.074   3.207  0.8673  0.1905  0.2020
   19SAPS   H7S 2444   2.208   3.946   3.275  0.6590 -0.5081 -1.4356
   19SAPS   C28 2445   2.194   4.142   3.380 -0.4963  0.5499 -0.0817
   19SAPS   H8R 2446   2.220   4.248   3.367  1.5252 -0.0677 -1.5958
   19SAPS   C29 2447   2.128   4.105   3.491  0.7878 -0.0863 -0.3620
   19SAPS   H9R 2448   2.122   4.175   3.575  0.4769 -1.6074  0.9392
   19SAPS  C210 2449   2.063   3.970   3.521 -0.1834  0.1624 -0.0567
   19SAPS  H10R 2450   2.085   3.891   3.445 -0.3463  1.3720 -1.4094
   19SAPS  H10S 2451   1.953   3.979   3.520 -0.2546 -0.6495 -0.2024
   19SAPS  C211 2452   2.111   3.923   3.662 -0.1120 -0.5043  0.2820
   19SAPS  H11R 2453   2.197   3.855   3.654  0.0062 -0.2605 -0.5888
   19SAPS  C212 2454   2.064   3.960   3.787  0.7811  0.0308  0.0250
   19SAPS  H12R 2455   2.098   3.917   3.882 -0.8844 -1.3151  0.0685
   19SAPS  C213 2456   1.956   4.063   3.819  0.6469  0.2238  0.4774
   19SAPS  H13R 2457   1.855   4.018   3.813  0.7902 -0.1244  0.6982
   19SAPS  H13S 2458   1.940   4.138   3.738 -0.3309  0.0732  0.5119
   19SAPS  C214 2459   1.992   4.133   3.941  0.5548  0.1145 -0.2512
   19SAPS  H14R 2460   2.098   4.159   3.945  0.0799  2.2053  0.0592
   19SAPS  C215 2461   1.909   4.139   4.052 -0.0145  0.2002  0.3781
   19SAPS  H15R 2462   1.949   4.184   4.144 -0.2465 -0.5731  0.8666
   19SAPS  C216 2463   1.766   4.094   4.072  0.3564 -0.3852  0.1774
   19SAPS  H16R 2464   1.717   4.049   3.983  0.5762  2.4381 -1.5051
   19SAPS  H16S 2465   1.714   4.191   4.084 -0.1780 -0.7861  1.2359
   19SAPS  C217 2466   1.735   4.007   4.190  0.2278 -0.0013 -0.6304
   19SAPS  H17R 2467   1.821   3.942   4.217  0.6764  1.4448  1.6802
   19SAPS  H17S 2468   1.644   3.944   4.178 -2.8079  4.3457 -2.9037
   19SAPS  C218 2469   1.695   4.082   4.324 -0.9787  0.3419  0.3357
   19SAPS  H18R 2470   1.763   4.169   4.335  1.3514 -1.2698 -0.4233
   19SAPS  H18S 2471   1.723   4.011   4.405 -1.5340 -0.2002  0.0552
   19SAPS  C219 2472   1.551   4.131   4.327  0.0672  0.1454  0.3234
   19SAPS  H19R 2473   1.517   4.149   4.223 -0.1276  0.3434  0.4181
   19SAPS  H19S 2474   1.556   4.228   4.382 -0.8226 -1.1091  2.8036
   19SAPS  C220 2475   1.449   4.051   4.410 -0.0607 -0.1077 -0.0604
   19SAPS  H20R 2476   1.435   3.954   4.358  0.9248  1.1690 -2.8951
   19SAPS  H20S 2477   1.349   4.098   4.418 -1.4027 -3.0445  4.0159
   19SAPS  H20T 2478   1.482   4.015   4.510  0.1468 -0.8430 -0.3868
   19SAPS   C33 2479   2.106   4.560   2.751  0.2396  0.0491  0.2152
   19SAPS   H3X 2480   2.011   4.508   2.725  1.0717 -1.4553  0.0277
   19SAPS   H3Y 2481   2.075   4.647   2.812  0.1668  0.4484 -0.3767
   19SAPS   C34 2482   2.208   4.479   2.825 -0.5212  0.3783 -0.7884
   19SAPS   H4X 2483   2.301   4.540   2.832  0.9370 -1.7881  0.0719
   19SAPS   H4Y 2484   2.227   4.389   2.762 -2.1952 -1.4043  1.1044
   19SAPS   C35 2485   2.175   4.425   2.961 -0.4100 -0.0815 -0.2907
   19SAPS   H5X 2486   2.252   4.355   2.997 -0.9024 -0.6666 -0.3588
   19SAPS   H5Y 2487   2.074   4.379   2.966 -0.2433 -0.3156  0.9604
   19SAPS   C36 2488   2.168   4.537   3.063  0.3388  0.2592 -0.2829
   19SAPS   H6X 2489   2.105   4.620   3.026 -2.2254 -1.2632  0.4313
   19SAPS   H6Y 2490   2.269   4.578   3.084  0.6172 -0.8199  0.6000
   19SAPS   C37 2491   2.109   4.496   3.198 -0.6244 -0.0564  0.0782
   19SAPS   H7X 2492   2.134   4.582   3.264 -2.2694  0.6985 -0.2210
   19SAPS   H7Y 2493   2.170   4.404   3.215 -0.8195 -0.6764 -2.2508
   19SAPS   C38 2494   1.956   4.475   3.205  0.2202 -0.0779  0.2639
   19SAPS   H8X 2495   1.920   4.419   3.117  0.4695 -1.0491  0.7711
   19SAPS   H8Y 2496   1.920   4.580   3.199  0.5512  0.0852  0.9456
   19SAPS   C39 2497   1.906   4.425   3.343 -0.3053  0.8477 -0.1705
   19SAPS   H9X 2498   1.933   4.317   3.343 -1.6045  0.5003 -0.3466
   19SAPS   H9Y 2499   1.795   4.431   3.341 -0.6018 -2.6401 -1.8326
   19SAPS  C310 2500   1.973   4.489   3.465 -0.3767 -0.0689 -0.3164
   19SAPS  H10X 2501   1.969   4.599   3.450 -1.1590  0.2620  1.9603
   19SAPS  H10Y 2502   2.082   4.476   3.479 -0.1518 -0.6680 -2.2948
   19SAPS  C311 2503   1.896   4.454   3.597 -0.5838 -0.1887  0.8716
   19SAPS  H11X 2504   1.909   4.347   3.621 -3.2400 -0.1892  2.7130
   19SAPS  H11Y 2505   1.786   4.461   3.589 -0.6147  1.6083  2.1280
   19SAPS  C312 2506   1.937   4.535   3.711 -0.2013  0.3112 -0.4702
   19SAPS  H12X 2507   1.949   4.642   3.685  1.1835  0.1348 -0.6038
   19SAPS  H12Y 2508   2.038   4.511   3.749  0.0330 -0.5057 -1.5822
   19SAPS  C313 2509   1.829   4.509   3.821  0.2254  0.1305 -0.4837
   19SAPS  H13X 2510   1.792   4.404   3.829 -1.7280  0.8678  0.8095
   19SAPS  H13Y 2511   1.741   4.571   3.795 -1.1834 -1.9155 -0.7990
   19SAPS  C314 2512   1.881   4.541   3.958 -0.3573 -0.7905  0.0067
   19SAPS  H14X 2513   1.894   4.649   3.980  2.0711 -0.6981 -1.5074
   19SAPS  H14Y 2514   1.975   4.488   3.984  0.3923  0.7482  0.5665
   19SAPS  C315 2515   1.774   4.504   4.066  0.5265 -0.0764  0.3623
   19SAPS  H15X 2516   1.835   4.506   4.159  0.6324  0.9738  0.2744
   19SAPS  H15Y 2517   1.735   4.400   4.055  2.1234 -0.9900  2.6341
   19SAPS  C316 2518   1.645   4.591   4.064 -0.0356  0.6886 -0.1804
   19SAPS  H16X 2519   1.602   4.565   3.965 -0.0825 -0.2484  0.0764
   19SAPS  H16Y 2520   1.680   4.696   4.051 -2.3130  1.5754  0.4225
   19SAPS  C317 2521   1.553   4.572   4.185 -0.3050  0.1387 -0.5123
   19SAPS  H17X 2522   1.514   4.468   4.188 -1.2322  0.4614  1.9673
   19SAPS  H17Y 2523   1.468   4.644   4.186 -0.0226  0.4727 -0.1645
   19SAPS  C318 2524   1.625   4.593   4.317 -0.5802 -0.4770 -0.4928
   19SAPS  H18X 2525   1.646   4.702   4.330 -0.1367 -0.0090 -4.0773
   19SAPS  H18Y 2526   1.724   4.550   4.343 -0.4884  0.9418  1.7891
   19SAPS  H18Z 2527   1.552   4.574   4.399 -1.8052  3.0398 -0.6118
   20SAPS     N 2528   2.466   3.676   1.900  0.1924  0.7763 -0.3080
   20SAPS   HN1 2529   2.520   3.596   1.938  1.5646  1.8284  0.0568
   20SAPS   HN2 2530   2.365   3.655   1.914  0.5712 -0.9591  0.0137
   20SAPS   HN3 2531   2.488   3.684   1.799  0.4877 -0.4372 -0.3556
   20SAPS   C12 2532   2.519   3.802   1.971  0.2524 -0.5415  0.6370
   20SAPS  H12A 2533   2.627   3.792   1.975  0.3822 -0.2601 -1.1140
   20SAPS   C13 2534   2.482   3.929   1.887 -0.0548 -0.2089 -0.6326
   20SAPS  O13A 2535   2.391   3.920   1.806  0.5156 -0.5183  0.5594
   20SAPS  O13B 2536   2.529   4.041   1.928  0.4633 -0.4598 -0.1120
   20SAPS   C11 2537   2.457   3.806   2.114 -1.1912 -0.6051  0.4417
   20SAPS  H11A 2538   2.349   3.785   2.100 -1.8116  2.0464  0.6816
   20SAPS  H11B 2539   2.474   3.908   2.155  1.6259 -0.9676  0.3874
   20SAPS     P 2540   2.480   3.678   2.339  0.0939 -0.1649  0.1075
   20SAPS   O13 2541   2.332   3.659   2.340  0.0164  0.5062  0.5983
   20SAPS   O14 2542   2.564   3.573   2.391 -0.0553  0.3213  0.0254
   20SAPS   O12 2543   2.529   3.707   2.190 -0.1720  0.2737 -0.1501
   20SAPS   O11 2544   2.518   3.812   2.413  0.1366 -0.0617  0.2942
   20SAPS    C1 2545   2.643   3.886   2.405  0.4375  0.5664 -0.5751
   20SAPS    HA 2546   2.727   3.817   2.426 -0.7621 -0.7739 -0.0426
   20SAPS    HB 2547   2.650   3.930   2.303  0.7805  1.1301 -0.3100
   20SAPS    C2 2548   2.649   4.003   2.502 -0.2723  0.3418  0.2119
   20SAPS    HS 2549   2.752   4.043   2.503 -0.1352 -0.0079  0.4634
   20SAPS   O21 2550   2.616   3.961   2.636  0.3286  0.1989 -0.6722
   20SAPS   C21 2551   2.709   3.890   2.693  0.2845  0.1884 -0.3271
   20SAPS   O22 2552   2.813   3.846   2.642 -0.5137  0.2017  0.1829
   20SAPS   C22 2553   2.665   3.882   2.839 -0.2691  0.7071 -0.4220
   20SAPS   H2R 2554   2.725   3.949   2.905  0.1590  0.9404 -1.0335
   20SAPS   H2S 2555   2.556   3.898   2.843 -0.5399 -0.7997 -1.0138
   20SAPS    C3 2556   2.558   4.116   2.448  0.0672 -0.6700  0.7084
   20SAPS    HX 2557   2.456   4.077   2.427  0.1102 -1.5630  2.0196
   20SAPS    HY 2558   2.594   4.153   2.349 -1.5534 -0.0548  0.3219
   20SAPS   O31 2559   2.547   4.217   2.552  0.2769  0.2917 -0.3352
   20SAPS   C31 2560   2.644   4.310   2.570 -0.0234 -0.2945  0.4960
   20SAPS   O32 2561   2.744   4.322   2.500  0.0332  0.1374 -0.2247
   20SAPS   C32 2562   2.603   4.399   2.687 -0.0368  0.3353  0.8043
   20SAPS   H2X 2563   2.517   4.462   2.656  0.1016  0.5787  0.9201
   20SAPS   H2Y 2564   2.691   4.463   2.705  0.1882 -0.0051  0.9299
   20SAPS   C23 2565   2.705   3.739   2.894  0.1283  0.0062 -0.4340
   20SAPS   H3R 2566   2.812   3.716   2.872  0.3134 -0.6530  1.0963
   20SAPS   H3S 2567   2.651   3.665   2.831  1.3755 -0.9696 -0.4094
   20SAPS   C24 2568   2.670   3.718   3.038 -0.2715 -0.0479 -0.2285
   20SAPS   H4R 2569   2.666   3.610   3.065 -2.3387 -0.2453 -1.1858
   20SAPS   H4S 2570   2.573   3.763   3.065 -0.0595  0.1573  0.2123
   20SAPS   C25 2571   2.780   3.782   3.127  0.3628  0.2365  1.3843
   20SAPS   H5R 2572   2.869   3.821   3.075 -0.1368  1.7049  1.5820
   20SAPS   C26 2573   2.785   3.782   3.259  0.0122  0.2390 -0.3960
   20SAPS   H6R 2574   2.863   3.843   3.306 -1.3505  1.7794 -0.0388
   20SAPS   C27 2575   2.696   3.709   3.356  0.1359  0.6339  0.2160
   20SAPS   H7R 2576   2.594   3.749   3.341  0.3679  0.5769 -1.7500
   20SAPS   H7S 2577   2.728   3.731   3.460  0.8798 -1.2476  0.4353
   20SAPS   C28 2578   2.674   3.559   3.362  0.4117  0.6186 -0.5427
   20SAPS   H8R 2579   2.649   3.503   3.271  0.1828  0.1938 -0.2198
   20SAPS   C29 2580   2.642   3.482   3.471 -0.0745 -0.4582 -0.0095
   20SAPS   H9R 2581   2.637   3.373   3.459 -1.5363 -0.2739 -1.4592
   20SAPS  C210 2582   2.645   3.525   3.618 -0.3572  0.2273 -0.6367
   20SAPS  H10R 2583   2.709   3.613   3.637 -1.1514  0.7058 -0.1642
   20SAPS  H10S 2584   2.700   3.451   3.680 -0.2652 -1.1472 -2.2693
   20SAPS  C211 2585   2.505   3.568   3.674  0.2064 -0.0820 -0.8967
   20SAPS  H11R 2586   2.456   3.631   3.598  2.4418  2.0052 -0.7486
   20SAPS  C212 2587   2.449   3.552   3.796 -0.0315  0.8399 -0.1946
   20SAPS  H12R 2588   2.351   3.597   3.817 -0.5017 -1.5469  3.5649
   20SAPS  C213 2589   2.522   3.488   3.913 -0.3667 -0.5133  0.1437
   20SAPS  H13R 2590   2.506   3.546   4.007  0.7613  0.1392 -0.0424
   20SAPS  H13S 2591   2.629   3.478   3.885 -0.5176 -0.0757 -0.6119
   20SAPS  C214 2592   2.463   3.346   3.921 -0.1325 -0.1508 -0.1492
   20SAPS  H14R 2593   2.430   3.303   3.825 -0.8459 -1.8827  0.8272
   20SAPS  C215 2594   2.415   3.286   4.034  0.6595 -0.0818 -0.5808
   20SAPS  H15R 2595   2.357   3.193   4.019 -1.1167  1.1090 -1.4115
   20SAPS  C216 2596   2.417   3.337   4.179 -0.1700 -0.0728 -0.0072
   20SAPS  H16R 2597   2.475   3.431   4.182  0.9057 -0.7244 -0.0081
   20SAPS  H16S 2598   2.474   3.268   4.245 -1.2508  0.8738  2.0011
   20SAPS  C217 2599   2.271   3.363   4.213  0.2251 -0.1014  0.0017
   20SAPS  H17R 2600   2.221   3.266   4.195  2.1869 -1.1341 -0.1301
   20SAPS  H17S 2601   2.241   3.432   4.131  3.0420 -0.3098 -1.3010
   20SAPS  C218 2602   2.245   3.420   4.349 -0.5400 -0.3457  0.2019
   20SAPS  H18R 2603   2.150   3.478   4.342 -1.3499 -1.5139  1.1355
   20SAPS  H18S 2604   2.327   3.494   4.364 -0.3497 -0.4731 -0.1877
   20SAPS  C219 2605   2.235   3.314   4.454  0.1683  0.2671 -0.3753
   20SAPS  H19R 2606   2.329   3.255   4.446 -0.4884 -0.6291 -2.1049
   20SAPS  H19S 2607   2.146   3.250   4.437 -0.4326  0.6939  1.0443
   20SAPS  C220 2608   2.237   3.354   4.606 -0.0515  0.4625  0.1140
   20SAPS  H20R 2609   2.147   3.415   4.630 -1.6208 -1.3487 -0.9427
   20SAPS  H20S 2610   2.337   3.391   4.636  1.4087 -1.6883 -1.8232
   20SAPS  H20T 2611   2.225   3.271   4.678  0.1846 -1.0305 -1.5138
   20SAPS   C33 2612   2.571   4.317   2.813  0.9591 -0.0940 -0.1266
   20SAPS   H3X 2613   2.484   4.248   2.805 -0.1170  1.2502 -0.4628
   20SAPS   H3Y 2614   2.534   4.400   2.878  1.7287  0.5504 -0.4953
   20SAPS   C34 2615   2.691   4.259   2.888 -0.2979 -0.3112 -1.0875
   20SAPS   H4X 2616   2.774   4.332   2.875 -1.7104  1.7440  0.8347
   20SAPS   H4Y 2617   2.726   4.165   2.839  0.2165 -0.1216 -1.0945
   20SAPS   C35 2618   2.653   4.249   3.033 -0.2991 -1.0553 -0.2276
   20SAPS   H5X 2619   2.572   4.175   3.048  0.1325 -0.9570  3.4209
   20SAPS   H5Y 2620   2.611   4.345   3.068  0.3409 -1.1680  0.8904
   20SAPS   C36 2621   2.777   4.204   3.102  0.1690  0.6086 -0.3088
   20SAPS   H6X 2622   2.864   4.262   3.065 -0.8341  1.9970 -0.5822
   20SAPS   H6Y 2623   2.795   4.098   3.071 -1.7244  1.1122 -3.7072
   20SAPS   C37 2624   2.767   4.201   3.257  0.5168  0.5296 -0.0246
   20SAPS   H7X 2625   2.768   4.306   3.292 -1.7924  1.0251 -1.2795
   20SAPS   H7Y 2626   2.861   4.166   3.307  0.6011  2.7046  1.4794
   20SAPS   C38 2627   2.654   4.127   3.332  0.1643 -0.0128  0.0062
   20SAPS   H8X 2628   2.657   4.018   3.308 -0.5495 -0.0927  0.2703
   20SAPS   H8Y 2629   2.554   4.157   3.295  0.1877  0.8240  0.6038
   20SAPS   C39 2630   2.658   4.157   3.478  0.6945 -0.1797 -0.1790
   20SAPS   H9X 2631   2.672   4.266   3.490  0.8706 -0.1102 -0.9964
   20SAPS   H9Y 2632   2.753   4.112   3.515  0.0975 -4.2656 -2.9826
   20SAPS  C310 2633   2.539   4.098   3.547  0.3477  0.1040 -0.9392
   20SAPS  H10X 2634   2.516   4.004   3.492  0.8591 -0.4752 -0.1917
   20SAPS  H10Y 2635   2.457   4.173   3.542  1.9647  1.8985 -1.4502
   20SAPS  C311 2636   2.582   4.054   3.685  0.0193  0.2750  0.2523
   20SAPS  H11X 2637   2.622   4.136   3.749 -1.4336  0.0150  1.5573
   20SAPS  H11Y 2638   2.659   3.976   3.668  0.6637  1.3621 -2.3594
   20SAPS  C312 2639   2.475   3.983   3.769 -0.2690  0.3749 -0.2091
   20SAPS  H12X 2640   2.462   3.882   3.726  2.8936  0.7985 -2.5834
   20SAPS  H12Y 2641   2.379   4.035   3.749  0.2861  1.7205  0.4795
   20SAPS  C313 2642   2.503   3.998   3.922  0.0127  0.7994  0.1437
   20SAPS  H13X 2643   2.526   4.103   3.953 -0.7752  0.7148  1.0600
   20SAPS  H13Y 2644   2.590   3.932   3.941 -1.0322  0.2250  3.8637
   20SAPS  C314 2645   2.406   3.932   4.018  0.7067 -0.6207  0.0059
   20SAPS  H14X 2646   2.405   3.826   3.985 -0.7398 -0.9053  0.8962
   20SAPS  H14Y 2647   2.307   3.979   3.998  1.3443  0.4584 -0.7811
   20SAPS  C315 2648   2.447   3.967   4.156  0.0873 -0.1073 -0.3862
   20SAPS  H15X 2649   2.458   4.075   4.175  0.3489  0.1558 -1.9265
   20SAPS  H15Y 2650   2.549   3.923   4.171 -0.2662 -2.0430 -2.9272
   20SAPS  C316 2651   2.351   3.899   4.255  0.5387 -1.2579 -0.0167
   20SAPS  H16X 2652   2.391   3.800   4.283 -1.4245 -1.6378  1.7044
   20SAPS  H16Y 2653   2.247   3.878   4.220  0.0390 -0.4434  0.9157
   20SAPS  C317 2654   2.331   3.973   4.388  0.0616  0.5200 -0.5322
   20SAPS  H17X 2655   2.286   4.072   4.366 -2.0412  0.3349  2.3546
   20SAPS  H17Y 2656   2.432   3.986   4.433 -0.3308  1.1586  0.1915
   20SAPS  C318 2657   2.242   3.905   4.490 -0.6446 -0.0267  0.0666
   20SAPS  H18X 2658   2.230   3.970   4.580  0.5028  1.0141 -0.5097
   20SAPS  H18Y 2659   2.272   3.800   4.514  1.0990  0.5905  0.7621
   20SAPS  H18Z 2660   2.140   3.888   4.451 -0.7163 -0.4871  0.4343
   21CHL1    C3 2661   2.300   1.527   6.028 -0.1660 -0.5095  0.4082
   21CHL1    H3 2662   2.392   1.469   6.008  1.2436  1.5385  0.6714
   21CHL1    O3 2663   2.323   1.582   6.158  0.4997  0.1705 -0.1144
   21CHL1   H3' 2664   2.304   1.676   6.162 -0.1453  0.2129 -2.7792
   21CHL1    C4 2665   2.291   1.649   5.939 -0.5565  0.2368 -1.0786
   21CHL1   H4A 2666   2.211   1.719   5.974  0.9870  1.2877  0.5696
   21CHL1   H4B 2667   2.385   1.704   5.960 -2.2020  2.1327  2.2029
   21CHL1    C5 2668   2.260   1.606   5.801 -0.4644  0.6030 -0.6271
   21CHL1    C6 2669   2.342   1.636   5.702  0.0145 -0.3851 -0.5808
   21CHL1    H6 2670   2.427   1.702   5.725 -0.7024  0.3696 -0.0502
   21CHL1    C7 2671   2.313   1.604   5.555 -0.0584 -0.3874 -0.6803
   21CHL1   H7A 2672   2.342   1.686   5.485  0.6704  0.1430  0.2267
   21CHL1   H7B 2673   2.382   1.525   5.518  1.8991  0.3714  1.1683
   21CHL1    C8 2674   2.167   1.555   5.528  1.2746 -0.3335  0.0642
   21CHL1    H8 2675   2.094   1.639   5.524  0.5623 -0.9309  0.3966
   21CHL1   C14 2676   2.174   1.480   5.390  0.6275  0.1652  0.0803
   21CHL1   H14 2677   2.229   1.385   5.408 -0.0549 -0.9283 -3.0603
   21CHL1   C15 2678   2.240   1.546   5.264  0.2622  0.5179  0.1173
   21CHL1  H15A 2679   2.217   1.655   5.258  2.0666  0.9835  0.9326
   21CHL1  H15B 2680   2.349   1.539   5.284  0.0607  0.9763  1.4415
   21CHL1   C16 2681   2.170   1.461   5.146 -0.0896 -0.0962 -0.3518
   21CHL1  H16A 2682   2.105   1.525   5.083 -0.3741 -1.8691 -1.9680
   21CHL1  H16B 2683   2.241   1.415   5.073  1.6675  0.5752  0.8494
   21CHL1   C17 2684   2.086   1.355   5.210 -0.6307 -0.7497  0.4131
   21CHL1   H17 2685   2.157   1.270   5.223  1.2108  0.9172  1.9048
   21CHL1   C13 2686   2.043   1.412   5.350  0.0719  0.1424  0.4186
   21CHL1   C18 2687   1.936   1.525   5.327  0.8876 -0.7725  1.3207
   21CHL1  H18A 2688   1.963   1.580   5.234 -0.0053 -2.3931  0.0497
   21CHL1  H18B 2689   1.837   1.481   5.303  1.2349 -1.7643  1.6391
   21CHL1  H18C 2690   1.922   1.592   5.414  0.3711  0.0645  0.6110
   21CHL1   C12 2691   2.003   1.313   5.455 -0.2834 -0.9779 -0.4950
   21CHL1  H12A 2692   1.899   1.278   5.434  0.2405 -2.3444 -0.9262
   21CHL1  H12B 2693   2.083   1.237   5.465  1.2231  0.6411  0.2758
   21CHL1   C11 2694   2.001   1.375   5.595  0.0374  0.7911 -0.1618
   21CHL1  H11A 2695   1.918   1.448   5.608  0.8003  1.6164  0.2296
   21CHL1  H11B 2696   1.993   1.285   5.659  0.3305  0.1790 -0.9783
   21CHL1    C9 2697   2.128   1.456   5.634 -0.9462  0.3832 -0.2509
   21CHL1    H9 2698   2.216   1.389   5.627 -1.0798  0.4261 -3.3385
   21CHL1   C10 2699   2.134   1.510   5.786  0.0141  0.4256 -0.3885
   21CHL1   C19 2700   2.003   1.598   5.796  0.1947 -0.1888 -0.4027
   21CHL1  H19A 2701   2.000   1.681   5.722 -1.6544 -0.7321 -1.0127
   21CHL1  H19B 2702   1.908   1.542   5.783  1.5496 -3.0024  0.8562
   21CHL1  H19C 2703   1.986   1.648   5.894 -0.1860 -2.8800  1.0074
   21CHL1    C1 2704   2.131   1.396   5.895  0.0248  0.5009 -0.0490
   21CHL1   H1A 2705   2.032   1.346   5.898  0.3494 -0.1076  1.3248
   21CHL1   H1B 2706   2.212   1.329   5.859 -2.1661 -0.2590 -4.1248
   21CHL1    C2 2707   2.162   1.454   6.035 -0.0318 -0.1439  0.0634
   21CHL1   H2A 2708   2.161   1.369   6.107 -0.4079 -1.9974 -2.0170
   21CHL1   H2B 2709   2.082   1.531   6.049  0.2141  0.0620  0.3401
   21CHL1   C20 2710   1.976   1.312   5.116  0.2531 -0.5545  0.6292
   21CHL1   H20 2711   1.906   1.398   5.107 -0.5131 -0.9546  2.3602
   21CHL1   C21 2712   1.902   1.188   5.166  0.3523  0.7932 -0.3059
   21CHL1  H21A 2713   1.852   1.204   5.264  0.7744  0.8081 -0.0878
   21CHL1  H21B 2714   1.968   1.099   5.163  0.0934  0.5747  0.3722
   21CHL1  H21C 2715   1.824   1.166   5.090  0.4266 -0.5381 -0.0093
   21CHL1   C22 2716   2.021   1.312   4.964 -0.4053 -0.3213  0.1044
   21CHL1  H22A 2717   1.927   1.313   4.905 -0.3192 -3.2535 -0.2618
   21CHL1  H22B 2718   2.061   1.408   4.926 -0.9325  0.2142  0.8794
   21CHL1   C23 2719   2.107   1.191   4.919 -0.3684 -0.3841 -0.1041
   21CHL1  H23A 2720   2.205   1.191   4.970  0.0429 -4.1127 -0.6164
   21CHL1  H23B 2721   2.056   1.096   4.947  1.6691 -1.2823  0.7359
   21CHL1   C24 2722   2.133   1.210   4.769 -0.8248  0.3264  0.7638
   21CHL1  H24A 2723   2.035   1.220   4.718 -0.2235  0.4094 -0.4364
   21CHL1  H24B 2724   2.194   1.299   4.741 -0.5465  0.9754  3.1815
   21CHL1   C25 2725   2.205   1.086   4.710  0.0047  0.4093  0.3920
   21CHL1   H25 2726   2.298   1.066   4.768  0.3079  0.2145 -0.1489
   21CHL1   C26 2727   2.117   0.957   4.733 -0.5986  0.4833 -0.5095
   21CHL1  H26A 2728   2.148   0.878   4.660 -1.8104  0.8195 -1.4191
   21CHL1  H26B 2729   2.123   0.923   4.838  1.0116  0.1973 -0.6581
   21CHL1  H26C 2730   2.009   0.968   4.709 -0.4404 -3.7327 -4.4513
   21CHL1   C27 2731   2.238   1.100   4.558  0.8295 -0.5051 -0.2177
   21CHL1  H27A 2732   2.272   1.204   4.540 -2.4814  0.2661 -2.9523
   21CHL1  H27B 2733   2.330   1.045   4.529  1.5111  1.1160 -1.2050
   21CHL1  H27C 2734   2.149   1.076   4.496 -1.1031 -1.1336  2.5881
   22CHL1    C3 2735   5.537   6.765   6.055 -0.3355 -0.6239  0.0256
   22CHL1    H3 2736   5.636   6.777   6.005 -1.0024 -4.2562 -2.6246
   22CHL1    O3 2737   5.548   6.735   6.194  0.1865  0.1464 -0.2129
   22CHL1   H3' 2738   5.611   6.801   6.224  0.6746  0.3026 -1.5258
   22CHL1    C4 2739   5.456   6.895   6.051  0.1445 -0.2085  0.8013
   22CHL1   H4A 2740   5.357   6.882   6.100  0.2487 -1.4248  0.7165
   22CHL1   H4B 2741   5.516   6.972   6.104 -2.8536  3.2407 -0.3612
   22CHL1    C5 2742   5.434   6.939   5.909 -0.1225  0.3429 -0.5354
   22CHL1    C6 2743   5.476   7.058   5.866  0.1783  0.0304 -0.2015
   22CHL1    H6 2744   5.519   7.134   5.932  1.9024  0.7933 -2.1119
   22CHL1    C7 2745   5.438   7.102   5.729 -0.0595 -0.0260 -0.2030
   22CHL1   H7A 2746   5.415   7.210   5.721 -3.1947 -0.5481  0.4265
   22CHL1   H7B 2747   5.523   7.078   5.662  0.3208  1.0712 -0.1367
   22CHL1    C8 2748   5.323   7.019   5.671  0.5729  0.4119  0.8511
   22CHL1    H8 2749   5.234   7.054   5.727  1.0824  1.8318  0.8153
   22CHL1   C14 2750   5.315   7.053   5.525  0.0018  0.1518  0.1319
   22CHL1   H14 2751   5.414   7.035   5.478  1.2530 -2.0701  3.3111
   22CHL1   C15 2752   5.283   7.200   5.495 -0.9853  0.1876 -0.1683
   22CHL1  H15A 2753   5.201   7.228   5.564 -0.8335  0.2613 -0.0177
   22CHL1  H15B 2754   5.366   7.274   5.502  0.5861 -1.5684  0.8898
   22CHL1   C16 2755   5.222   7.207   5.358 -0.5001  0.4207 -0.0434
   22CHL1  H16A 2756   5.127   7.259   5.336 -0.3965  0.1000 -1.2827
   22CHL1  H16B 2757   5.299   7.253   5.293 -0.0948 -0.5063 -0.2391
   22CHL1   C17 2758   5.217   7.053   5.308 -0.0128 -0.3435  0.5056
   22CHL1   H17 2759   5.319   7.024   5.276  0.3243  0.5976  0.6949
   22CHL1   C13 2760   5.209   6.978   5.443 -0.3066 -0.3911  0.7644
   22CHL1   C18 2761   5.065   6.986   5.505 -0.0439 -0.4717  0.0909
   22CHL1  H18A 2762   4.979   6.969   5.437 -1.1699  0.3967  1.2418
   22CHL1  H18B 2763   5.052   6.934   5.603  0.1887 -1.1206 -0.2177
   22CHL1  H18C 2764   5.054   7.093   5.533  0.3316 -0.7242  1.2628
   22CHL1   C12 2765   5.246   6.826   5.441 -0.6870  0.2238  0.4145
   22CHL1  H12A 2766   5.162   6.765   5.400 -0.7257  1.6819 -1.8636
   22CHL1  H12B 2767   5.335   6.804   5.379 -0.1202 -0.1955  1.3643
   22CHL1   C11 2768   5.267   6.775   5.586 -0.1109  0.1126  0.2418
   22CHL1  H11A 2769   5.166   6.764   5.630  0.3373  0.1857  1.3276
   22CHL1  H11B 2770   5.313   6.674   5.586  0.7340  0.4844  0.0083
   22CHL1    C9 2771   5.358   6.868   5.677 -0.3637 -0.3426  0.4002
   22CHL1    H9 2772   5.465   6.858   5.646  0.5697  0.2511  3.1360
   22CHL1   C10 2773   5.360   6.829   5.823  0.2676 -0.0228  0.0605
   22CHL1   C19 2774   5.211   6.824   5.875 -0.5203  0.4592  0.2962
   22CHL1  H19A 2775   5.155   6.920   5.879  1.4337  1.6173  2.8671
   22CHL1  H19B 2776   5.150   6.746   5.824 -2.0603  1.0788  1.1346
   22CHL1  H19C 2777   5.210   6.794   5.982 -0.4491  1.7341  0.6751
   22CHL1    C1 2778   5.425   6.686   5.842  0.6417  0.1918  0.3875
   22CHL1   H1A 2779   5.358   6.601   5.818  0.9585 -0.1834  0.8113
   22CHL1   H1B 2780   5.520   6.678   5.783  2.3606 -1.1036  3.1351
   22CHL1    C2 2781   5.458   6.661   5.989 -0.4518  0.1719  0.3113
   22CHL1   H2A 2782   5.498   6.559   6.006 -3.0295 -1.2677 -1.5740
   22CHL1   H2B 2783   5.358   6.652   6.037 -1.3722  0.1774 -1.5345
   22CHL1   C20 2784   5.121   7.043   5.185 -0.3842 -0.0150 -0.5506
   22CHL1   H20 2785   5.024   7.074   5.228  1.8172  1.9464  3.5653
   22CHL1   C21 2786   5.119   6.903   5.133  0.1597  0.2725  0.0960
   22CHL1  H21A 2787   5.045   6.887   5.052 -1.9506  0.0060  1.9843
   22CHL1  H21B 2788   5.085   6.831   5.210 -0.1686  0.8130  0.4624
   22CHL1  H21C 2789   5.221   6.881   5.095 -0.4115  2.1489 -2.8208
   22CHL1   C22 2790   5.152   7.145   5.075 -0.4848  0.2087  0.2667
   22CHL1  H22A 2791   5.152   7.247   5.120 -1.5580 -0.2991  1.4794
   22CHL1  H22B 2792   5.256   7.128   5.038  0.0098  1.1898  1.1552
   22CHL1   C23 2793   5.058   7.147   4.953  0.4772 -0.3848 -0.9839
   22CHL1  H23A 2794   5.090   7.235   4.894 -1.6349  0.3615 -1.0948
   22CHL1  H23B 2795   5.074   7.050   4.900  1.9634 -0.0278 -1.2332
   22CHL1   C24 2796   4.914   7.178   4.984  0.2920 -0.1134  0.6788
   22CHL1  H24A 2797   4.865   7.093   5.035 -0.1627  0.8997  2.0049
   22CHL1  H24B 2798   4.923   7.245   5.072  4.0564 -0.9220  1.0482
   22CHL1   C25 2799   4.837   7.242   4.868 -0.6705  0.4884  0.0264
   22CHL1   H25 2800   4.903   7.315   4.817  0.7032 -0.3481  0.5760
   22CHL1   C26 2801   4.813   7.135   4.758 -0.8114 -0.0257  0.7378
   22CHL1  H26A 2802   4.911   7.100   4.719 -1.2610 -0.7424  0.2354
   22CHL1  H26B 2803   4.754   7.048   4.794 -0.1011 -1.1725 -0.7769
   22CHL1  H26C 2804   4.766   7.180   4.668 -0.9929 -3.3221 -0.9984
   22CHL1   C27 2805   4.703   7.307   4.905 -0.6072 -0.3663  0.5788
   22CHL1  H27A 2806   4.632   7.225   4.931 -0.5071 -1.1749 -1.5634
   22CHL1  H27B 2807   4.728   7.385   4.980  0.2615  0.1453 -0.2182
   22CHL1  H27C 2808   4.660   7.364   4.820 -2.9120 -2.8403 -0.0694
   23CHL1    C3 2809   2.443   1.034   6.058 -0.6424  0.3819  0.3689
   23CHL1    H3 2810   2.549   1.004   6.044 -1.0874 -0.6496 -1.0925
   23CHL1    O3 2811   2.426   1.052   6.197  0.6303 -0.4166  0.2904
   23CHL1   H3' 2812   2.343   1.100   6.205  0.6230 -0.3994  0.1000
   23CHL1    C4 2813   2.402   1.161   5.979 -0.4446  0.7830  0.0453
   23CHL1   H4A 2814   2.301   1.188   6.016 -1.0102 -1.7726  0.5178
   23CHL1   H4B 2815   2.464   1.245   6.017 -0.9087  1.1385  0.0244
   23CHL1    C5 2816   2.416   1.130   5.829  0.5662  1.1589 -0.2517
   23CHL1    C6 2817   2.493   1.203   5.746  0.4757 -0.6015 -0.4366
   23CHL1    H6 2818   2.551   1.291   5.777 -0.4512  0.3187 -1.2547
   23CHL1    C7 2819   2.493   1.180   5.595  0.4843  0.0018  0.2155
   23CHL1   H7A 2820   2.480   1.276   5.541 -0.9778 -0.6230 -0.5998
   23CHL1   H7B 2821   2.593   1.143   5.564  0.2189  0.5814 -1.4299
   23CHL1    C8 2822   2.391   1.078   5.539 -0.2530 -0.4270 -0.0041
   23CHL1    H8 2823   2.291   1.126   5.536  0.3021  0.8047  0.3700
   23CHL1   C14 2824   2.440   1.034   5.401 -0.3619  0.8536 -0.4576
   23CHL1   H14 2825   2.532   0.978   5.426 -1.1344  0.5827  2.1063
   23CHL1   C15 2826   2.482   1.138   5.306  0.1982  0.3106  0.6771
   23CHL1  H15A 2827   2.415   1.226   5.299 -0.4379 -0.2252 -0.3518
   23CHL1  H15B 2828   2.590   1.158   5.326  0.1474  0.2686  0.9915
   23CHL1   C16 2829   2.483   1.058   5.164  0.6050  0.4343 -0.1546
   23CHL1  H16A 2830   2.399   1.104   5.107  0.3212 -0.1850 -0.2436
   23CHL1  H16B 2831   2.585   1.068   5.121  1.1501 -0.0814  0.9824
   23CHL1   C17 2832   2.439   0.908   5.201  0.4282 -0.0330  0.4986
   23CHL1   H17 2833   2.522   0.847   5.243  0.5520  0.6610  1.3013
   23CHL1   C13 2834   2.352   0.929   5.332  0.6090 -0.5017  0.3551
   23CHL1   C18 2835   2.206   0.980   5.286  0.7695 -0.1286  0.0011
   23CHL1  H18A 2836   2.219   1.065   5.216 -0.7770 -1.3195 -1.8494
   23CHL1  H18B 2837   2.167   0.895   5.226 -0.4553  0.0207  0.5575
   23CHL1  H18C 2838   2.146   1.005   5.376 -0.1636  0.4782 -0.7627
   23CHL1   C12 2839   2.351   0.815   5.433 -0.1586  0.8344  0.4234
   23CHL1  H12A 2840   2.288   0.727   5.406 -0.5786  0.5758  2.1608
   23CHL1  H12B 2841   2.448   0.765   5.449 -0.2950  0.1175 -0.8412
   23CHL1   C11 2842   2.290   0.852   5.569 -0.0569 -0.3648 -0.2762
   23CHL1  H11A 2843   2.198   0.914   5.569  1.2459  1.6846  0.4561
   23CHL1  H11B 2844   2.271   0.764   5.635  0.5017  0.8205  1.5384
   23CHL1    C9 2845   2.382   0.956   5.635 -0.0629 -0.3923  0.1308
   23CHL1    H9 2846   2.472   0.891   5.637  0.0288 -0.2754 -0.1469
   23CHL1   C10 2847   2.340   1.002   5.780 -0.0770 -0.0831  0.5073
   23CHL1   C19 2848   2.187   1.046   5.794  0.7673  0.1574  0.2738
   23CHL1  H19A 2849   2.156   1.075   5.897 -0.4774 -0.9815  0.2430
   23CHL1  H19B 2850   2.164   1.125   5.721 -0.6914  1.1178  1.7162
   23CHL1  H19C 2851   2.124   0.957   5.774  0.2128  0.8380 -1.1158
   23CHL1    C1 2852   2.377   0.880   5.866 -0.3403 -0.3126 -0.0071
   23CHL1   H1A 2853   2.302   0.803   5.839 -0.5344  0.4742 -1.9400
   23CHL1   H1B 2854   2.476   0.836   5.842 -1.3680 -2.7638 -0.0240
   23CHL1    C2 2855   2.357   0.905   6.019  0.2310  0.1987 -0.2650
   23CHL1   H2A 2856   2.386   0.815   6.077  1.6496  0.1027 -1.0611
   23CHL1   H2B 2857   2.250   0.932   6.031 -0.2531 -1.1172 -1.3631
   23CHL1   C20 2858   2.384   0.828   5.082 -0.2621 -0.4426 -0.4208
   23CHL1   H20 2859   2.280   0.859   5.056  0.1408  0.6851 -0.7285
   23CHL1   C21 2860   2.377   0.684   5.132 -0.2145  0.2401 -0.3375
   23CHL1  H21A 2861   2.313   0.672   5.222  2.0086  0.2330  1.3306
   23CHL1  H21B 2862   2.477   0.640   5.152  0.5903  1.4114 -1.6031
   23CHL1  H21C 2863   2.327   0.617   5.059  1.7689 -2.7534  0.8569
   23CHL1   C22 2864   2.477   0.831   4.955 -0.1567 -0.5484  0.1407
   23CHL1  H22A 2865   2.460   0.934   4.917  1.0972 -0.6365 -0.7371
   23CHL1  H22B 2866   2.583   0.805   4.978 -0.1186 -1.0155 -0.5101
   23CHL1   C23 2867   2.419   0.740   4.844 -0.4738  0.0762 -0.2754
   23CHL1  H23A 2868   2.416   0.635   4.878 -0.4626 -0.0795 -0.7512
   23CHL1  H23B 2869   2.319   0.772   4.808 -1.2390 -2.8787 -1.0550
   23CHL1   C24 2870   2.519   0.740   4.727 -0.0057 -0.5574 -0.1438
   23CHL1  H24A 2871   2.534   0.850   4.716  2.4921 -1.0093 -2.0495
   23CHL1  H24B 2872   2.617   0.690   4.742 -0.5737 -1.5159  0.4467
   23CHL1   C25 2873   2.458   0.694   4.591  0.5564  0.4150 -0.0389
   23CHL1   H25 2874   2.352   0.728   4.599  0.5936  0.2317  1.5177
   23CHL1   C26 2875   2.529   0.767   4.478  0.4204  0.2890 -0.2281
   23CHL1  H26A 2876   2.520   0.875   4.503 -0.0109  0.0963  0.4657
   23CHL1  H26B 2877   2.639   0.756   4.475  0.4092 -0.2587  0.8291
   23CHL1  H26C 2878   2.481   0.734   4.383 -0.7264 -1.7258  0.9579
   23CHL1   C27 2879   2.454   0.541   4.587 -0.8143 -0.4238  0.7077
   23CHL1  H27A 2880   2.391   0.502   4.669 -1.0463 -0.0855  0.6925
   23CHL1  H27B 2881   2.406   0.522   4.489  0.0938  1.3730 -0.1396
   23CHL1  H27C 2882   2.557   0.499   4.586 -1.0190 -1.0903  3.2181
   24CHL1    C3 2883   3.327   1.871   6.036  0.2085  0.3364 -0.5415
   24CHL1    H3 2884   3.353   1.978   6.024  0.9658  0.1058 -0.9913
   24CHL1    O3 2885   3.329   1.837   6.175  1.1967 -0.0754 -0.1215
   24CHL1   H3' 2886   3.390   1.900   6.213  0.7805 -0.8272  1.9602
   24CHL1    C4 2887   3.177   1.846   5.984 -0.4073  0.4860  0.1222
   24CHL1   H4A 2888   3.138   1.751   6.027  1.1932  0.4763  1.6955
   24CHL1   H4B 2889   3.113   1.922   6.031 -0.0936  0.4686  0.5835
   24CHL1    C5 2890   3.179   1.853   5.835  0.4089 -0.5116 -0.3547
   24CHL1    C6 2891   3.086   1.913   5.767  0.0045 -0.8230 -0.6155
   24CHL1    H6 2892   3.007   1.960   5.827  0.5856 -1.7462  0.9217
   24CHL1    C7 2893   3.062   1.919   5.623 -0.4354  0.2292  0.5504
   24CHL1   H7A 2894   2.957   1.908   5.590  0.2176 -0.6423 -1.3962
   24CHL1   H7B 2895   3.092   2.020   5.588  1.6150 -0.1477  1.0860
   24CHL1    C8 2896   3.154   1.815   5.549 -0.3520 -0.5556  0.5771
   24CHL1    H8 2897   3.112   1.713   5.564  0.5490 -0.8224  1.4114
   24CHL1   C14 2898   3.148   1.849   5.408  0.1502 -0.5994 -0.2622
   24CHL1   H14 2899   3.177   1.956   5.399  2.5663 -1.0937  0.7939
   24CHL1   C15 2900   3.008   1.842   5.342 -0.4741  0.2914 -0.3594
   24CHL1  H15A 2901   2.949   1.756   5.381 -0.8285  0.3455 -0.7672
   24CHL1  H15B 2902   2.944   1.930   5.361  0.6745  1.7325 -2.7385
   24CHL1   C16 2903   3.043   1.830   5.189  0.0924  0.3215 -0.3433
   24CHL1  H16A 2904   2.999   1.731   5.164 -0.3145  0.0923  1.1649
   24CHL1  H16B 2905   2.994   1.911   5.131 -0.9451  1.8762  2.5302
   24CHL1   C17 2906   3.198   1.829   5.177 -0.4587 -0.2524  0.2648
   24CHL1   H17 2907   3.238   1.933   5.171  2.4156 -1.1606  1.6624
   24CHL1   C13 2908   3.242   1.769   5.312  0.0295  0.8467 -0.4084
   24CHL1   C18 2909   3.207   1.613   5.319  0.0012 -0.5478 -0.6841
   24CHL1  H18A 2910   3.208   1.579   5.425  0.1475  1.6807  0.0791
   24CHL1  H18B 2911   3.114   1.587   5.265 -0.4084 -0.6279  0.0433
   24CHL1  H18C 2912   3.293   1.562   5.271  1.3580  0.8279  0.2004
   24CHL1   C12 2913   3.382   1.787   5.373  0.1802 -0.8289  0.0728
   24CHL1  H12A 2914   3.462   1.737   5.314  0.7791  0.5228 -0.3128
   24CHL1  H12B 2915   3.410   1.895   5.372 -0.1080 -0.7080  2.0198
   24CHL1   C11 2916   3.400   1.749   5.518 -0.0377  0.8963 -0.1879
   24CHL1  H11A 2917   3.404   1.639   5.526  2.5501  0.9320 -0.1502
   24CHL1  H11B 2918   3.505   1.772   5.546  0.4233 -1.1877 -0.1013
   24CHL1    C9 2919   3.299   1.824   5.599  0.3981  0.7709 -0.0963
   24CHL1    H9 2920   3.333   1.930   5.600  2.6674  0.0932  1.1138
   24CHL1   C10 2921   3.298   1.778   5.756  0.6492 -0.4144  0.2213
   24CHL1   C19 2922   3.273   1.625   5.762  0.1378  0.6561  0.0396
   24CHL1  H19A 2923   3.366   1.581   5.720 -0.5852  1.6563 -2.7994
   24CHL1  H19B 2924   3.262   1.590   5.867  1.4282 -0.6227 -0.2292
   24CHL1  H19C 2925   3.191   1.586   5.698  2.7923 -3.0587 -1.4558
   24CHL1    C1 2926   3.439   1.806   5.811 -0.0167  0.4362  0.2686
   24CHL1   H1A 2927   3.503   1.732   5.759 -0.0231  0.7139 -0.1316
   24CHL1   H1B 2928   3.473   1.907   5.778  0.4851  0.3246  0.4343
   24CHL1    C2 2929   3.444   1.797   5.964  0.3318 -0.4206 -0.0525
   24CHL1   H2A 2930   3.541   1.830   6.007  0.2246  0.5758 -0.5397
   24CHL1   H2B 2931   3.443   1.694   6.006 -0.3462  0.5122  2.3967
   24CHL1   C20 2932   3.251   1.770   5.044 -0.0190 -0.4833 -0.7947
   24CHL1   H20 2933   3.233   1.662   5.058 -2.1018  0.2252  3.5660
   24CHL1   C21 2934   3.403   1.797   5.031 -0.0694 -0.9410 -0.0062
   24CHL1  H21A 2935   3.421   1.906   5.033  1.1054 -1.1296  0.3308
   24CHL1  H21B 2936   3.426   1.757   4.930 -2.8929 -0.8875 -0.7690
   24CHL1  H21C 2937   3.456   1.746   5.114 -0.6650  0.0454  1.0025
   24CHL1   C22 2938   3.178   1.808   4.922  0.4272 -0.1952 -0.2290
   24CHL1  H22A 2939   3.069   1.813   4.941  0.4769 -0.9520  0.3158
   24CHL1  H22B 2940   3.199   1.916   4.908  1.9166 -0.4142  0.1314
   24CHL1   C23 2941   3.202   1.729   4.795 -0.4089 -0.3613 -1.0836
   24CHL1  H23A 2942   3.114   1.757   4.732 -1.0911 -2.3444 -1.0672
   24CHL1  H23B 2943   3.296   1.765   4.748  1.3084  1.0160  3.0146
   24CHL1   C24 2944   3.191   1.575   4.817  0.4584  0.1735  0.0138
   24CHL1  H24A 2945   3.288   1.549   4.864 -0.3637 -0.2736  1.5101
   24CHL1  H24B 2946   3.111   1.555   4.892  1.7912  1.3476  1.8069
   24CHL1   C25 2947   3.184   1.479   4.691 -0.3332  0.2353 -0.3729
   24CHL1   H25 2948   3.264   1.494   4.615 -0.7476  2.6961 -0.4141
   24CHL1   C26 2949   3.191   1.341   4.746 -0.6794 -0.3216  0.0743
   24CHL1  H26A 2950   3.239   1.270   4.674  0.6482 -0.2882  0.8981
   24CHL1  H26B 2951   3.260   1.355   4.831 -1.5836  0.7015  0.6650
   24CHL1  H26C 2952   3.095   1.295   4.777 -0.0165 -2.4559 -0.8037
   24CHL1   C27 2953   3.053   1.492   4.611 -0.0407  0.1068 -0.3254
   24CHL1  H27A 2954   3.047   1.584   4.549  0.7511  0.1552 -0.3419
   24CHL1  H27B 2955   3.052   1.407   4.540 -1.4162 -2.5852  2.6378
   24CHL1  H27C 2956   2.961   1.492   4.673 -1.3629 -0.3151 -2.1934
   25CHL1    C3 2957   5.297   2.803   6.312  0.2903 -1.0556  0.5567
   25CHL1    H3 2958   5.306   2.696   6.339  0.0765 -1.0421  0.6798
   25CHL1    O3 2959   5.271   2.890   6.430  0.3197 -0.0846  0.0869
   25CHL1   H3' 2960   5.295   2.980   6.407  5.4693 -1.1553  0.0624
   25CHL1    C4 2961   5.419   2.849   6.237 -0.7470  0.4711 -0.4389
   25CHL1   H4A 2962   5.422   2.960   6.228 -0.2633  0.6965  1.7436
   25CHL1   H4B 2963   5.507   2.833   6.304 -1.5758  0.9987  0.8196
   25CHL1    C5 2964   5.441   2.787   6.095 -0.2512 -0.2125  0.0299
   25CHL1    C6 2965   5.552   2.729   6.066 -0.0711 -0.4811 -0.4357
   25CHL1    H6 2966   5.633   2.740   6.139 -1.6691  2.9395  1.0222
   25CHL1    C7 2967   5.589   2.657   5.938 -0.7446  0.5050 -0.4230
   25CHL1   H7A 2968   5.695   2.677   5.912  0.8212 -2.0580  3.2852
   25CHL1   H7B 2969   5.581   2.548   5.959  4.0770  0.0347 -0.1298
   25CHL1    C8 2970   5.485   2.684   5.829  0.2169 -0.3183  0.1203
   25CHL1    H8 2971   5.514   2.785   5.793 -0.6296  0.3272  1.1831
   25CHL1   C14 2972   5.489   2.588   5.716 -0.2427 -0.3153  0.1458
   25CHL1   H14 2973   5.448   2.494   5.759 -2.0936  0.6201  0.5182
   25CHL1   C15 2974   5.622   2.550   5.670 -0.5815 -0.3522  0.0688
   25CHL1  H15A 2975   5.677   2.646   5.656 -0.4137 -0.3819  0.5164
   25CHL1  H15B 2976   5.685   2.489   5.738 -1.8664 -1.9184 -0.0868
   25CHL1   C16 2977   5.593   2.475   5.535 -0.2869  0.5497  0.6425
   25CHL1  H16A 2978   5.676   2.511   5.470  1.7813  1.1146  3.4142
   25CHL1  H16B 2979   5.607   2.367   5.555 -0.5240  0.2592 -0.6820
   25CHL1   C17 2980   5.451   2.507   5.494 -0.1927 -0.5740  0.5661
   25CHL1   H17 2981   5.394   2.427   5.546 -1.2259 -0.3491 -0.1930
   25CHL1   C13 2982   5.403   2.623   5.592  0.0884  0.0458  0.2367
   25CHL1   C18 2983   5.448   2.755   5.530  0.5847 -0.9764 -0.0812
   25CHL1  H18A 2984   5.556   2.754   5.501  0.4312  0.2026 -0.7514
   25CHL1  H18B 2985   5.390   2.787   5.442  2.3664  0.6141 -0.7310
   25CHL1  H18C 2986   5.435   2.849   5.588 -0.0507 -0.9422 -0.2762
   25CHL1   C12 2987   5.256   2.632   5.647  0.0870 -0.4927  0.0830
   25CHL1  H12A 2988   5.188   2.647   5.560  0.2203 -0.8989 -0.0937
   25CHL1  H12B 2989   5.229   2.533   5.690 -0.4149 -0.7328 -0.7477
   25CHL1   C11 2990   5.248   2.735   5.762  0.4058  0.2741 -0.3590
   25CHL1  H11A 2991   5.273   2.835   5.720  0.0949  0.4386 -0.1522
   25CHL1  H11B 2992   5.143   2.738   5.799  0.4917  0.0884 -0.0945
   25CHL1    C9 2993   5.335   2.694   5.888  0.3205  0.3349  0.6168
   25CHL1    H9 2994   5.306   2.591   5.916  0.5883  0.1638  0.2624
   25CHL1   C10 2995   5.318   2.789   6.012 -0.6789  0.2616  0.8269
   25CHL1   C19 2996   5.310   2.936   5.957  0.0963  0.5360  0.4011
   25CHL1  H19A 2997   5.212   2.947   5.906  0.6823  0.5186 -0.7452
   25CHL1  H19B 2998   5.310   3.012   6.038 -1.2123  0.7962  0.1782
   25CHL1  H19C 2999   5.387   2.967   5.883  0.9045  0.1090  1.0450
   25CHL1    C1 3000   5.187   2.750   6.091 -0.3506  0.1756 -0.6775
   25CHL1   H1A 3001   5.100   2.778   6.028 -0.2085  3.0629  0.2784
   25CHL1   H1B 3002   5.183   2.639   6.104 -0.5308  0.2587  0.0130
   25CHL1    C2 3003   5.168   2.819   6.222  0.3532  0.2370 -1.2871
   25CHL1   H2A 3004   5.070   2.787   6.261  1.0077  0.3160  0.5393
   25CHL1   H2B 3005   5.151   2.926   6.198 -0.0895  0.2261 -1.0298
   25CHL1   C20 3006   5.420   2.505   5.345 -0.2339 -0.5990 -0.2851
   25CHL1   H20 3007   5.314   2.529   5.320 -0.7368 -3.8377 -1.6878
   25CHL1   C21 3008   5.437   2.359   5.305  0.1861 -0.3536 -0.2731
   25CHL1  H21A 3009   5.375   2.290   5.366 -2.1266  3.1288  1.7075
   25CHL1  H21B 3010   5.543   2.335   5.325 -0.3574 -2.9098 -0.1756
   25CHL1  H21C 3011   5.418   2.334   5.199 -0.3973  2.7549 -1.0237
   25CHL1   C22 3012   5.509   2.598   5.252  0.7864  0.7705 -0.5699
   25CHL1  H22A 3013   5.477   2.701   5.280 -1.7897 -0.0265 -0.2616
   25CHL1  H22B 3014   5.615   2.580   5.277  0.6101  0.5236  0.0014
   25CHL1   C23 3015   5.486   2.604   5.102 -0.4705  0.0790 -0.4296
   25CHL1  H23A 3016   5.476   2.498   5.070 -0.6552 -0.7897  2.2676
   25CHL1  H23B 3017   5.384   2.639   5.074 -0.2178  0.1386 -1.3105
   25CHL1   C24 3018   5.592   2.693   5.029 -0.5587 -0.1103  0.2378
   25CHL1  H24A 3019   5.558   2.796   5.057 -1.5608  0.0064 -1.2769
   25CHL1  H24B 3020   5.700   2.677   5.048 -0.2097  0.8823 -0.7901
   25CHL1   C25 3021   5.561   2.676   4.877 -0.2121 -0.5331 -0.1548
   25CHL1   H25 3022   5.451   2.685   4.884 -0.1735 -0.8834  1.1380
   25CHL1   C26 3023   5.637   2.789   4.806 -0.5717  0.1052 -0.5689
   25CHL1  H26A 3024   5.607   2.793   4.699  2.8447 -1.8637 -1.7610
   25CHL1  H26B 3025   5.616   2.887   4.856 -0.2133 -0.7709  1.4163
   25CHL1  H26C 3026   5.747   2.773   4.805 -0.5469 -0.4522  2.1569
   25CHL1   C27 3027   5.596   2.539   4.815 -0.1801 -0.3563 -0.0184
   25CHL1  H27A 3028   5.596   2.459   4.892 -3.5984 -0.7479 -0.2414
   25CHL1  H27B 3029   5.529   2.525   4.728  0.2995  1.6860 -0.7680
   25CHL1  H27C 3030   5.696   2.541   4.767 -0.9228 -1.4219 -1.6937
   26CHL1    C3 3031   3.959   0.960   5.911 -0.2478  0.3123 -0.0030
   26CHL1    H3 3032   4.042   0.886   5.919 -1.3126 -0.9509 -0.2519
   26CHL1    O3 3033   3.926   1.024   6.031  0.6500 -0.0438 -0.6793
   26CHL1   H3' 3034   3.928   0.950   6.093  1.1159 -0.1456 -0.8116
   26CHL1    C4 3035   3.988   1.064   5.796  0.0620  0.5014  0.0119
   26CHL1   H4A 3036   3.902   1.134   5.808  0.2978  0.7153  0.4747
   26CHL1   H4B 3037   4.087   1.107   5.821  0.0782 -0.2119  1.2665
   26CHL1    C5 3038   3.992   0.998   5.656 -0.6060 -0.8708 -0.4560
   26CHL1    C6 3039   4.093   1.019   5.575  0.2286 -0.8795 -0.3528
   26CHL1    H6 3040   4.178   1.074   5.617 -0.9613 -1.1273  2.6860
   26CHL1    C7 3041   4.101   0.977   5.427 -0.0437 -0.1752 -0.2215
   26CHL1   H7A 3042   4.128   1.058   5.356 -0.1074  0.3054  0.2871
   26CHL1   H7B 3043   4.169   0.890   5.414  2.3995  1.6749 -0.5312
   26CHL1    C8 3044   3.953   0.930   5.374 -0.0770 -0.6835  0.6103
   26CHL1    H8 3045   3.885   1.016   5.356  0.7314 -0.5492 -2.2490
   26CHL1   C14 3046   3.966   0.864   5.238  0.2995  0.8980 -0.5007
   26CHL1   H14 3047   4.041   0.784   5.254  0.5140  1.3717  1.0601
   26CHL1   C15 3048   4.004   0.955   5.116 -0.9779  0.1005  0.7457
   26CHL1  H15A 3049   3.960   1.057   5.126  0.2907  0.5948  1.4234
   26CHL1  H15B 3050   4.115   0.959   5.122 -0.6916 -3.1619 -0.4379
   26CHL1   C16 3051   3.959   0.874   5.002  0.1929 -0.0336 -0.1978
   26CHL1  H16A 3052   3.904   0.931   4.924  0.2017 -1.2148 -1.0890
   26CHL1  H16B 3053   4.051   0.836   4.952 -0.7193 -0.8611 -1.3151
   26CHL1   C17 3054   3.858   0.760   5.049  0.2869 -0.1731  0.0437
   26CHL1   H17 3055   3.922   0.670   5.063  1.6429  0.5317 -1.2204
   26CHL1   C13 3056   3.832   0.804   5.194 -0.1544  0.0402  0.0457
   26CHL1   C18 3057   3.718   0.904   5.185 -0.5836 -0.5729 -0.0435
   26CHL1  H18A 3058   3.673   0.934   5.281  2.7695  1.7553  0.9658
   26CHL1  H18B 3059   3.750   0.995   5.131  0.8636 -0.6088  0.7001
   26CHL1  H18C 3060   3.633   0.862   5.127  0.4731 -1.3456 -1.0925
   26CHL1   C12 3061   3.794   0.691   5.291 -0.8560  0.0878 -0.5356
   26CHL1  H12A 3062   3.703   0.638   5.257 -1.4323  1.3114 -0.9489
   26CHL1  H12B 3063   3.875   0.616   5.294 -1.5716 -0.7360 -1.4422
   26CHL1   C11 3064   3.770   0.749   5.433 -0.8354  0.7919  0.3908
   26CHL1  H11A 3065   3.673   0.804   5.434 -1.8648 -0.8664 -1.3981
   26CHL1  H11B 3066   3.754   0.659   5.496 -0.5671 -0.6816 -1.5444
   26CHL1    C9 3067   3.883   0.843   5.484 -0.4446 -0.3157 -0.0824
   26CHL1    H9 3068   3.958   0.766   5.511 -2.4519 -2.2303  0.3239
   26CHL1   C10 3069   3.863   0.919   5.617 -0.5287  0.0133  0.0071
   26CHL1   C19 3070   3.732   1.001   5.601 -0.1328 -0.2543  0.0997
   26CHL1  H19A 3071   3.713   1.071   5.685  0.9385  0.7268 -0.4250
   26CHL1  H19B 3072   3.732   1.058   5.505 -0.3755 -0.5621 -0.0847
   26CHL1  H19C 3073   3.640   0.941   5.587 -2.2353  2.7383 -0.0500
   26CHL1    C1 3074   3.838   0.817   5.734  0.2815  0.4107  0.2891
   26CHL1   H1A 3075   3.747   0.759   5.708 -0.0465  0.4229  1.3747
   26CHL1   H1B 3076   3.917   0.739   5.740  0.0845  0.2855  1.6642
   26CHL1    C2 3077   3.829   0.884   5.875 -0.4599 -0.2210 -0.8495
   26CHL1   H2A 3078   3.813   0.796   5.941  1.7026 -1.2626 -1.6303
   26CHL1   H2B 3079   3.737   0.947   5.876 -1.2359 -1.3244 -0.2660
   26CHL1   C20 3080   3.753   0.730   4.934  0.0891 -0.9046 -0.5511
   26CHL1   H20 3081   3.704   0.828   4.914  0.4471 -1.0162 -2.1235
   26CHL1   C21 3082   3.649   0.631   4.983 -0.0121 -0.8742 -0.4344
   26CHL1  H21A 3083   3.567   0.608   4.912 -0.8497 -0.6837  0.4444
   26CHL1  H21B 3084   3.600   0.651   5.081  1.6621 -1.0807  0.4774
   26CHL1  H21C 3085   3.704   0.535   4.997 -0.7006 -1.4827 -1.8154
   26CHL1   C22 3086   3.829   0.677   4.805 -0.1518  0.0838  0.9299
   26CHL1  H22A 3087   3.897   0.756   4.765 -0.4890  1.0290  2.1500
   26CHL1  H22B 3088   3.889   0.592   4.842 -1.9411 -1.4332  0.4848
   26CHL1   C23 3089   3.743   0.632   4.687  0.1349 -0.5093  0.3604
   26CHL1  H23A 3090   3.807   0.595   4.604  1.9975 -0.6791  1.8172
   26CHL1  H23B 3091   3.674   0.556   4.730 -3.2310  2.3615  0.4683
   26CHL1   C24 3092   3.650   0.747   4.636  0.1515 -0.8055 -0.7043
   26CHL1  H24A 3093   3.586   0.696   4.561 -3.1452 -2.6342  2.9510
   26CHL1  H24B 3094   3.579   0.776   4.717  0.2006  2.5103 -1.6757
   26CHL1   C25 3095   3.713   0.872   4.585 -0.2983 -0.3750 -0.3614
   26CHL1   H25 3096   3.738   0.937   4.671 -2.4697  0.0856 -0.0211
   26CHL1   C26 3097   3.823   0.840   4.480  0.2836 -0.4811  0.6833
   26CHL1  H26A 3098   3.894   0.763   4.517 -1.8506 -2.7752  0.3042
   26CHL1  H26B 3099   3.770   0.804   4.389  0.2201  3.0022 -0.8067
   26CHL1  H26C 3100   3.883   0.929   4.453  1.8828 -1.7620 -0.1849
   26CHL1   C27 3101   3.597   0.944   4.514  0.1480  0.0364 -0.3341
   26CHL1  H27A 3102   3.627   1.043   4.474 -0.9605 -0.1262 -1.6381
   26CHL1  H27B 3103   3.562   0.882   4.428  0.5792 -0.5028 -0.1263
   26CHL1  H27C 3104   3.513   0.965   4.584 -0.3711  2.7167 -1.6331
   27CHL1    C3 3105   2.569   0.330   6.115 -0.3061  0.4437  0.7093
   27CHL1    H3 3106   2.585   0.220   6.120  0.8255  0.4429 -1.6793
   27CHL1    O3 3107   2.572   0.375   6.248 -0.0415  0.3617 -0.6061
   27CHL1   H3' 3108   2.590   0.469   6.250 -0.7438  0.4814  0.7062
   27CHL1    C4 3109   2.685   0.399   6.038  0.2437  0.0917 -0.1351
   27CHL1   H4A 3110   2.681   0.510   6.050 -0.9385  0.5487 -3.5342
   27CHL1   H4B 3111   2.771   0.353   6.091 -0.8476 -0.0657  1.5552
   27CHL1    C5 3112   2.678   0.376   5.886  0.2215 -0.2642  0.9839
   27CHL1    C6 3113   2.791   0.339   5.827  0.0598 -0.3861 -0.6555
   27CHL1    H6 3114   2.879   0.330   5.892  0.0579 -0.3669 -0.6498
   27CHL1    C7 3115   2.794   0.294   5.687  0.1002 -0.4509  0.1548
   27CHL1   H7A 3116   2.879   0.342   5.633 -0.0545 -0.5101 -0.1457
   27CHL1   H7B 3117   2.796   0.183   5.678 -0.5077 -0.3692 -1.3837
   27CHL1    C8 3118   2.672   0.337   5.599 -0.4870 -0.4615  0.3325
   27CHL1    H8 3119   2.674   0.447   5.584  2.4692 -0.5319 -0.4044
   27CHL1   C14 3120   2.661   0.257   5.465 -0.1902 -0.4064  0.3062
   27CHL1   H14 3121   2.642   0.150   5.487 -0.2801 -0.7977 -1.4673
   27CHL1   C15 3122   2.787   0.258   5.375  0.5893  0.1395 -0.3120
   27CHL1  H15A 3123   2.832   0.359   5.364 -0.8085  0.6175 -2.2252
   27CHL1  H15B 3124   2.860   0.185   5.416  1.8479  2.0935  1.0707
   27CHL1   C16 3125   2.730   0.230   5.231  0.0604  0.0009  0.5309
   27CHL1  H16A 3126   2.766   0.314   5.167 -0.6163 -0.2736 -0.2219
   27CHL1  H16B 3127   2.777   0.142   5.182 -1.8081  0.0823 -1.5702
   27CHL1   C17 3128   2.576   0.219   5.243 -0.1478  0.0856  0.0683
   27CHL1   H17 3129   2.551   0.115   5.271  2.9654 -0.4765  1.1979
   27CHL1   C13 3130   2.545   0.302   5.369 -0.9410  0.2429  0.3162
   27CHL1   C18 3131   2.548   0.452   5.334 -0.6633  0.0070  0.9021
   27CHL1  H18A 3132   2.641   0.472   5.276 -1.5174 -0.6953 -0.7752
   27CHL1  H18B 3133   2.466   0.473   5.262  0.8021  0.2783 -0.7625
   27CHL1  H18C 3134   2.560   0.518   5.422  2.6320  0.7507  0.0493
   27CHL1   C12 3135   2.426   0.260   5.447 -0.8287  0.4522 -0.2652
   27CHL1  H12A 3136   2.330   0.298   5.404 -1.5604  0.2462  1.1455
   27CHL1  H12B 3137   2.424   0.149   5.450 -2.6412  0.4899  1.6109
   27CHL1   C11 3138   2.422   0.326   5.591  0.2586 -0.3304  0.6054
   27CHL1  H11A 3139   2.394   0.429   5.561 -1.1078 -1.1258 -1.0574
   27CHL1  H11B 3140   2.339   0.270   5.641  0.4634  0.5799  2.0317
   27CHL1    C9 3141   2.547   0.306   5.675 -0.0458 -0.5362 -0.4785
   27CHL1    H9 3142   2.560   0.198   5.697  2.1764 -0.5008 -1.3780
   27CHL1   C10 3143   2.539   0.378   5.810 -0.7362  0.3851  0.0519
   27CHL1   C19 3144   2.506   0.531   5.795  0.0079 -0.0055  0.4373
   27CHL1  H19A 3145   2.573   0.581   5.721  0.1064  0.4250  0.8167
   27CHL1  H19B 3146   2.405   0.536   5.748 -0.0611  1.1733  0.6874
   27CHL1  H19C 3147   2.513   0.586   5.891 -0.0426  0.0878  0.3884
   27CHL1    C1 3148   2.435   0.311   5.901  0.6264  0.6203 -0.2250
   27CHL1   H1A 3149   2.336   0.318   5.851  0.3450 -0.6043  0.1087
   27CHL1   H1B 3150   2.460   0.203   5.889 -0.9472  0.3949 -1.9508
   27CHL1    C2 3151   2.434   0.361   6.046 -0.1716  0.0920  0.6815
   27CHL1   H2A 3152   2.348   0.313   6.097 -1.5341  0.8724 -0.7663
   27CHL1   H2B 3153   2.405   0.468   6.040 -2.2689 -0.4744 -0.6854
   27CHL1   C20 3154   2.516   0.256   5.109  0.5547  0.2420  0.6715
   27CHL1   H20 3155   2.528   0.365   5.089 -1.3567  0.8314  2.4553
   27CHL1   C21 3156   2.367   0.229   5.129  0.0068 -0.2459  0.3642
   27CHL1  H21A 3157   2.341   0.125   5.159 -1.6796  0.3403  1.0512
   27CHL1  H21B 3158   2.302   0.256   5.043  0.2335 -0.6467  0.0581
   27CHL1  H21C 3159   2.336   0.306   5.202  2.4631  0.7025  0.4933
   27CHL1   C22 3160   2.571   0.182   4.984  0.6985 -0.4627  0.4359
   27CHL1  H22A 3161   2.668   0.229   4.956 -0.5353  1.4226 -0.9185
   27CHL1  H22B 3162   2.570   0.072   4.994 -1.6414 -0.5629 -0.3518
   27CHL1   C23 3163   2.483   0.203   4.859 -0.6849 -0.2030  0.4302
   27CHL1  H23A 3164   2.401   0.128   4.863 -0.3479 -0.9208 -3.0840
   27CHL1  H23B 3165   2.433   0.301   4.842 -0.3344 -0.1131 -0.0902
   27CHL1   C24 3166   2.564   0.189   4.734  1.0163  0.4271  0.2906
   27CHL1  H24A 3167   2.626   0.281   4.724  1.6822  0.0334  0.6645
   27CHL1  H24B 3168   2.636   0.105   4.743  0.4133 -0.1429 -0.1568
   27CHL1   C25 3169   2.484   0.156   4.608  0.3451  0.8801 -0.3353
   27CHL1   H25 3170   2.418   0.246   4.604  0.2645  0.8873  0.7839
   27CHL1   C26 3171   2.580   0.156   4.489 -0.0957 -0.4208 -0.0878
   27CHL1  H26A 3172   2.527   0.138   4.393  0.7717  1.1646 -0.8995
   27CHL1  H26B 3173   2.631   0.253   4.476  1.6064 -1.3412 -0.6509
   27CHL1  H26C 3174   2.655   0.074   4.492 -0.5201 -1.0074 -2.8017
   27CHL1   C27 3175   2.381   0.041   4.629 -0.1768 -0.2032  0.5571
   27CHL1  H27A 3176   2.432  -0.054   4.656 -1.8937 -1.3292  0.0088
   27CHL1  H27B 3177   2.332   0.011   4.535  2.2937 -3.0080  0.0297
   27CHL1  H27C 3178   2.312   0.070   4.711 -0.4931 -0.3337  0.3374
   28CHL1    C3 3179   0.237   0.426   6.270  0.3961  0.0738 -0.1202
   28CHL1    H3 3180   0.304   0.514   6.267  0.6504 -0.1200 -0.1022
   28CHL1    O3 3181   0.224   0.364   6.392 -0.1856  0.0656 -0.6096
   28CHL1   H3' 3182   0.308   0.322   6.410  0.3123  0.1151 -2.5261
   28CHL1    C4 3183   0.086   0.465   6.239  0.0956 -0.3508 -0.3124
   28CHL1   H4A 3184   0.020   0.378   6.260  1.9064 -2.3294 -2.2069
   28CHL1   H4B 3185   0.063   0.548   6.308  0.5632 -0.5493  0.0909
   28CHL1    C5 3186   0.063   0.500   6.095  0.1453  0.2660 -0.0135
   28CHL1    C6 3187   0.009   0.615   6.055 -0.6507  0.2598 -0.3279
   28CHL1    H6 3188  -0.004   0.689   6.136  0.6941  1.7171 -1.3866
   28CHL1    C7 3189  -0.024   0.653   5.915 -0.4359  0.0069  0.3115
   28CHL1   H7A 3190  -0.130   0.687   5.913 -0.6023 -0.4868  0.4590
   28CHL1   H7B 3191   0.027   0.747   5.885  0.4765 -0.4104  0.5188
   28CHL1    C8 3192  -0.004   0.548   5.813 -0.2096  1.0795 -1.1641
   28CHL1    H8 3193  -0.093   0.481   5.806  0.9398 -0.7219  0.5255
   28CHL1   C14 3194  -0.003   0.604   5.671 -0.4700 -0.0669 -0.0842
   28CHL1   H14 3195   0.089   0.667   5.663  0.1550 -0.7962  1.1219
   28CHL1   C15 3196  -0.119   0.689   5.617  0.7570 -0.1736 -0.0170
   28CHL1  H15A 3197  -0.219   0.643   5.632 -0.5852  2.3656 -0.6270
   28CHL1  H15B 3198  -0.110   0.793   5.655 -0.1292  0.1434 -0.6512
   28CHL1   C16 3199  -0.085   0.712   5.467  0.3688  0.3012  0.3127
   28CHL1  H16A 3200  -0.180   0.685   5.416 -0.1127  1.2706  0.6626
   28CHL1  H16B 3201  -0.051   0.814   5.441  0.8851 -0.0772 -0.5029
   28CHL1   C17 3202   0.023   0.602   5.438  0.0517  0.0067 -0.4894
   28CHL1   H17 3203   0.115   0.661   5.459 -0.9842  1.8727 -1.0008
   28CHL1   C13 3204   0.021   0.502   5.563  0.0099 -0.1324 -0.4612
   28CHL1   C18 3205  -0.098   0.399   5.544 -0.4786  0.8783  0.1220
   28CHL1  H18A 3206  -0.116   0.334   5.632  0.4207 -1.2914 -1.2159
   28CHL1  H18B 3207  -0.189   0.452   5.508 -1.1061 -1.0553 -1.3186
   28CHL1  H18C 3208  -0.070   0.334   5.458  5.1619  2.5651  0.2631
   28CHL1   C12 3209   0.155   0.426   5.587 -0.3067 -0.2375 -0.0279
   28CHL1  H12A 3210   0.179   0.352   5.508 -1.2949 -0.7973  0.1810
   28CHL1  H12B 3211   0.239   0.497   5.601  0.0140 -0.9928  2.4726
   28CHL1   C11 3212   0.154   0.352   5.730  0.2014 -0.1054  0.3874
   28CHL1  H11A 3213   0.071   0.279   5.727 -1.1608  1.3028  1.7323
   28CHL1  H11B 3214   0.255   0.306   5.734  0.0315 -1.2021 -3.3929
   28CHL1    C9 3215   0.120   0.459   5.841 -0.1935 -0.4196 -0.1721
   28CHL1    H9 3216   0.201   0.536   5.837 -2.1656  2.1701  3.3780
   28CHL1   C10 3217   0.114   0.399   5.987  0.0867 -0.0745 -0.3089
   28CHL1   C19 3218   0.018   0.276   5.987 -0.5680 -0.3504 -0.4700
   28CHL1  H19A 3219  -0.085   0.314   5.971 -0.6430  0.3375  1.3601
   28CHL1  H19B 3220   0.056   0.193   5.924 -0.9619 -0.3393 -0.7239
   28CHL1  H19C 3221   0.014   0.231   6.089  1.1779 -2.1789 -1.1397
   28CHL1    C1 3222   0.256   0.366   6.028 -0.0333 -0.1424 -0.2288
   28CHL1   H1A 3223   0.293   0.288   5.959  0.0118 -0.8551  0.5913
   28CHL1   H1B 3224   0.324   0.453   6.013  1.4156 -0.1004  4.8269
   28CHL1    C2 3225   0.285   0.327   6.174  0.5718 -0.0908  0.9318
   28CHL1   H2A 3226   0.394   0.307   6.184  0.3204 -3.1212 -0.8318
   28CHL1   H2B 3227   0.238   0.230   6.202  2.0364 -1.1855 -0.1838
   28CHL1   C20 3228   0.019   0.545   5.296 -0.3815 -0.0501 -0.7194
   28CHL1   H20 3229   0.064   0.444   5.303 -3.4135 -1.4744 -0.5156
   28CHL1   C21 3230   0.117   0.636   5.218  0.0445  0.5623  0.3776
   28CHL1  H21A 3231   0.103   0.612   5.110  2.6415  0.5616 -0.0325
   28CHL1  H21B 3232   0.218   0.603   5.249 -0.3317 -0.6743  0.3686
   28CHL1  H21C 3233   0.103   0.745   5.233  1.5568  0.6799  1.0852
   28CHL1   C22 3234  -0.115   0.528   5.224 -0.1728  0.0390 -0.3967
   28CHL1  H22A 3235  -0.186   0.487   5.299  1.4775  1.0652  1.8617
   28CHL1  H22B 3236  -0.157   0.626   5.191  0.1221  1.4628  3.0130
   28CHL1   C23 3237  -0.102   0.439   5.100  0.6867  0.3013  0.0294
   28CHL1  H23A 3238  -0.048   0.480   5.012  2.0170 -1.1829  0.0948
   28CHL1  H23B 3239  -0.054   0.345   5.134  0.8373  1.1371  2.2707
   28CHL1   C24 3240  -0.242   0.411   5.043 -0.0576  0.0517 -0.6858
   28CHL1  H24A 3241  -0.304   0.374   5.127  0.6664 -0.2566 -0.2791
   28CHL1  H24B 3242  -0.284   0.505   5.001 -1.7451 -0.5917 -0.5162
   28CHL1   C25 3243  -0.241   0.309   4.929  1.0991 -0.8630 -0.4577
   28CHL1   H25 3244  -0.175   0.225   4.959 -0.2063 -1.6563  0.2866
   28CHL1   C26 3245  -0.385   0.267   4.903  0.1684 -0.0922 -0.1553
   28CHL1  H26A 3246  -0.376   0.180   4.835  2.0838  0.0928 -0.1999
   28CHL1  H26B 3247  -0.428   0.233   4.999 -0.0821  3.3050  1.0693
   28CHL1  H26C 3248  -0.445   0.351   4.860  0.4646  0.0623 -0.2742
   28CHL1   C27 3249  -0.192   0.365   4.800  0.1402  0.5416  0.4001
   28CHL1  H27A 3250  -0.083   0.374   4.820  0.0346  0.3549  1.0679
   28CHL1  H27B 3251  -0.204   0.292   4.717  0.4045  0.1252  0.7221
   28CHL1  H27C 3252  -0.236   0.464   4.774 -1.7873 -0.4747 -0.4863
   29CHL1    C3 3253   1.418   1.172   5.925 -0.2675 -0.2195 -0.1595
   29CHL1    H3 3254   1.457   1.070   5.904 -3.2733 -1.1910 -1.7041
   29CHL1    O3 3255   1.415   1.199   6.067 -0.0790  0.5279  0.7320
   29CHL1   H3' 3256   1.322   1.201   6.091 -1.1273 -0.9549 -2.6379
   29CHL1    C4 3257   1.503   1.279   5.850 -0.0390  0.1261  0.0956
   29CHL1   H4A 3258   1.452   1.372   5.884 -0.1382  0.5301 -1.1078
   29CHL1   H4B 3259   1.605   1.274   5.893  0.0347 -2.1987 -0.2351
   29CHL1    C5 3260   1.495   1.291   5.699  1.3813  0.2071  0.1395
   29CHL1    C6 3261   1.607   1.286   5.631 -0.9673 -0.2866  0.3723
   29CHL1    H6 3262   1.705   1.295   5.680 -0.0435 -2.5236 -0.9069
   29CHL1    C7 3263   1.609   1.288   5.478  0.0532  0.2498  0.8520
   29CHL1   H7A 3264   1.691   1.360   5.458  0.7153 -0.4832  0.8705
   29CHL1   H7B 3265   1.658   1.193   5.445  0.2005  0.0631  1.5924
   29CHL1    C8 3266   1.479   1.324   5.405  0.1460  0.2139  0.5987
   29CHL1    H8 3267   1.449   1.429   5.423 -2.2899 -0.6622  2.1992
   29CHL1   C14 3268   1.484   1.290   5.260  0.6114 -0.6858  0.0010
   29CHL1   H14 3269   1.517   1.184   5.261 -0.2049 -0.9477  0.1723
   29CHL1   C15 3270   1.577   1.365   5.165 -0.2415  0.0103  0.0093
   29CHL1  H15A 3271   1.558   1.474   5.173  0.0798  0.3427 -2.9224
   29CHL1  H15B 3272   1.682   1.335   5.187 -0.1457  0.8385  0.7564
   29CHL1   C16 3273   1.535   1.317   5.029  0.2626  0.1129 -0.0794
   29CHL1  H16A 3274   1.523   1.398   4.953 -1.5294 -1.8960 -2.0807
   29CHL1  H16B 3275   1.606   1.238   4.997  1.5225  0.8049  0.9101
   29CHL1   C17 3276   1.400   1.242   5.051  0.1493  0.2461  0.1916
   29CHL1   H17 3277   1.425   1.136   5.073 -0.3290 -0.0801 -0.7802
   29CHL1   C13 3278   1.348   1.292   5.186  0.7378 -0.1670  0.1163
   29CHL1   C18 3279   1.293   1.438   5.189 -0.0571  0.2823  0.3971
   29CHL1  H18A 3280   1.287   1.489   5.288  0.6484 -0.6997  0.9617
   29CHL1  H18B 3281   1.352   1.498   5.116  0.5877  0.2558  0.8909
   29CHL1  H18C 3282   1.184   1.446   5.172 -0.4139 -1.0724  1.8305
   29CHL1   C12 3283   1.246   1.196   5.252  0.0773 -0.1135 -0.3460
   29CHL1  H12A 3284   1.154   1.194   5.189  0.4761  1.7915 -1.0335
   29CHL1  H12B 3285   1.293   1.095   5.255 -0.4841 -0.3530  1.4081
   29CHL1   C11 3286   1.221   1.246   5.399  0.3486 -0.6927  0.2357
   29CHL1  H11A 3287   1.180   1.349   5.396  1.4680 -0.2467 -0.6956
   29CHL1  H11B 3288   1.157   1.176   5.455 -0.9375 -0.0848 -0.4350
   29CHL1    C9 3289   1.360   1.248   5.475 -0.4597  0.3364 -0.6002
   29CHL1    H9 3290   1.402   1.145   5.472  2.0129  1.1773  1.5873
   29CHL1   C10 3291   1.356   1.283   5.632  0.0342  0.0554 -0.2683
   29CHL1   C19 3292   1.281   1.418   5.652  0.0551 -0.5001  0.2608
   29CHL1  H19A 3293   1.176   1.402   5.618  0.1470 -1.1878  0.2985
   29CHL1  H19B 3294   1.280   1.450   5.758  1.5949 -0.1578  0.1922
   29CHL1  H19C 3295   1.338   1.490   5.589 -0.2138 -1.1461 -0.7453
   29CHL1    C1 3296   1.277   1.168   5.706  0.1981  0.6792 -1.0116
   29CHL1   H1A 3297   1.169   1.172   5.678  0.5386  1.1122 -2.3165
   29CHL1   H1B 3298   1.320   1.070   5.678  1.7174  0.0456  2.8929
   29CHL1    C2 3299   1.279   1.172   5.867  0.7063  0.2805  0.0044
   29CHL1   H2A 3300   1.218   1.081   5.883  0.6513  0.0343 -1.5193
   29CHL1   H2B 3301   1.222   1.262   5.900  0.5585 -0.0663  0.7074
   29CHL1   C20 3302   1.308   1.221   4.934  0.1567 -0.1916  0.3832
   29CHL1   H20 3303   1.207   1.210   4.978 -0.2779 -1.2362 -0.8123
   29CHL1   C21 3304   1.344   1.077   4.874 -0.7620 -0.6783 -0.2486
   29CHL1  H21A 3305   1.267   1.044   4.802 -1.2477 -0.9460  0.3787
   29CHL1  H21B 3306   1.353   1.000   4.954 -0.9054 -0.5175 -0.0730
   29CHL1  H21C 3307   1.444   1.086   4.827 -1.8820 -1.7115 -3.0028
   29CHL1   C22 3308   1.293   1.333   4.820 -0.3967  0.1470  0.7104
   29CHL1  H22A 3309   1.273   1.429   4.873 -0.3586 -0.4592  1.8497
   29CHL1  H22B 3310   1.391   1.340   4.768  0.1598 -3.2338  1.0515
   29CHL1   C23 3311   1.183   1.297   4.718 -0.0376  0.2165 -0.1743
   29CHL1  H23A 3312   1.209   1.203   4.665 -0.2913  0.7693 -1.3046
   29CHL1  H23B 3313   1.091   1.288   4.779 -0.2612 -1.9317 -0.7572
   29CHL1   C24 3314   1.171   1.396   4.607 -0.3883 -1.2549 -0.1175
   29CHL1  H24A 3315   1.175   1.499   4.648 -0.4887 -2.1580  2.3460
   29CHL1  H24B 3316   1.258   1.398   4.537 -0.1889  0.3432  0.1428
   29CHL1   C25 3317   1.045   1.397   4.527  0.6415  0.4682 -0.0998
   29CHL1   H25 3318   0.966   1.428   4.599 -0.7010  0.5581 -1.5585
   29CHL1   C26 3319   1.048   1.492   4.409 -0.6235 -0.5247  0.6771
   29CHL1  H26A 3320   1.108   1.583   4.429  0.2760 -1.1844  1.0142
   29CHL1  H26B 3321   1.100   1.453   4.319 -0.5498  0.1198  0.4339
   29CHL1  H26C 3322   0.946   1.526   4.380 -0.2173 -0.6769 -1.0844
   29CHL1   C27 3323   1.014   1.252   4.485  0.1624 -1.0113  0.1474
   29CHL1  H27A 3324   1.101   1.184   4.469  0.9966  0.1705 -0.4943
   29CHL1  H27B 3325   0.943   1.202   4.554 -1.7333  0.5924 -0.5568
   29CHL1  H27C 3326   0.962   1.261   4.387  0.4786  1.0634  0.1414
   30CHL1    C3 3327   3.749   1.549   5.988  0.0757 -0.3348 -0.1988
   30CHL1    H3 3328   3.654   1.605   5.996  1.4620  2.3203 -1.2033
   30CHL1    O3 3329   3.798   1.535   6.119 -0.0008 -0.6792 -0.6749
   30CHL1   H3' 3330   3.875   1.479   6.103  0.5787  0.0116 -0.3705
   30CHL1    C4 3331   3.728   1.409   5.926  0.3993  0.1995 -0.3041
   30CHL1   H4A 3332   3.821   1.349   5.936 -0.9024 -1.8363  0.2531
   30CHL1   H4B 3333   3.648   1.357   5.984  0.1831  0.7487 -0.1027
   30CHL1    C5 3334   3.682   1.420   5.790  0.0893  0.3003  0.3383
   30CHL1    C6 3335   3.565   1.364   5.751 -0.9181 -0.9894 -1.1287
   30CHL1    H6 3336   3.501   1.318   5.827 -1.3347 -0.3160 -1.0642
   30CHL1    C7 3337   3.514   1.353   5.608 -0.3071  0.2445 -0.1734
   30CHL1   H7A 3338   3.465   1.255   5.587 -1.0407  0.7788 -1.0485
   30CHL1   H7B 3339   3.429   1.424   5.595 -0.1466  0.3793 -0.4876
   30CHL1    C8 3340   3.634   1.375   5.513 -0.2824  0.1205  0.0253
   30CHL1    H8 3341   3.696   1.285   5.529 -0.2490 -0.0177 -0.8685
   30CHL1   C14 3342   3.582   1.389   5.373  0.5913  0.3126 -0.1583
   30CHL1   H14 3343   3.517   1.479   5.376  0.5972  0.2906  2.2640
   30CHL1   C15 3344   3.497   1.276   5.317 -0.9008 -0.0089 -0.1606
   30CHL1  H15A 3345   3.548   1.180   5.340  0.2444  1.1584  2.5765
   30CHL1  H15B 3346   3.394   1.271   5.359 -1.2671  1.0276 -0.8926
   30CHL1   C16 3347   3.486   1.302   5.166  0.2229 -0.3756 -0.0048
   30CHL1  H16A 3348   3.496   1.208   5.108 -1.2080 -1.7930  1.8936
   30CHL1  H16B 3349   3.389   1.353   5.149  0.4408  0.2779  0.6387
   30CHL1   C17 3350   3.602   1.409   5.137  0.0818  0.0302 -0.3386
   30CHL1   H17 3351   3.552   1.507   5.121  2.6823  1.3799 -0.6988
   30CHL1   C13 3352   3.692   1.421   5.265  0.5515  0.0930  0.1402
   30CHL1   C18 3353   3.802   1.324   5.275  0.1602 -0.1935  0.0596
   30CHL1  H18A 3354   3.753   1.227   5.256 -2.5567  0.9195  0.9515
   30CHL1  H18B 3355   3.875   1.349   5.194 -1.6838  1.6137 -1.1497
   30CHL1  H18C 3356   3.854   1.319   5.373  1.2893 -1.7201 -0.5730
   30CHL1   C12 3357   3.734   1.569   5.305 -0.2971  0.1379 -0.5321
   30CHL1  H12A 3358   3.811   1.597   5.229 -1.4559  0.7561 -1.5198
   30CHL1  H12B 3359   3.669   1.659   5.298  0.0215  0.2464 -3.0631
   30CHL1   C11 3360   3.795   1.575   5.448  0.0511  0.6792  0.9973
   30CHL1  H11A 3361   3.897   1.531   5.442  0.0669  0.8454 -0.3719
   30CHL1  H11B 3362   3.817   1.680   5.478 -2.5089  1.2566  1.0072
   30CHL1    C9 3363   3.714   1.502   5.557 -0.5260 -0.1822  1.0209
   30CHL1    H9 3364   3.633   1.576   5.575 -0.3619  0.4887 -0.7791
   30CHL1   C10 3365   3.779   1.491   5.692 -0.0458  0.2990 -0.6180
   30CHL1   C19 3366   3.912   1.419   5.676 -0.4806 -0.2026  0.5191
   30CHL1  H19A 3367   3.891   1.324   5.621 -1.4143  0.2397  0.0862
   30CHL1  H19B 3368   3.989   1.481   5.625 -0.6997  0.1054  0.5599
   30CHL1  H19C 3369   3.958   1.401   5.775 -0.7159  1.6690  0.9965
   30CHL1    C1 3370   3.795   1.634   5.752 -0.3585  0.0948  0.2689
   30CHL1   H1A 3371   3.862   1.681   5.677  0.0494 -0.6184  0.1781
   30CHL1   H1B 3372   3.695   1.684   5.751 -0.1675  0.6955  3.1231
   30CHL1    C2 3373   3.843   1.627   5.895  0.3476  0.2116 -0.5397
   30CHL1   H2A 3374   3.847   1.736   5.914  3.2382  0.3090 -1.3034
   30CHL1   H2B 3375   3.945   1.583   5.896  1.0517  1.7612  0.7516
   30CHL1   C20 3376   3.670   1.383   4.996  0.4886  0.4935  0.0634
   30CHL1   H20 3377   3.757   1.449   4.980  1.3758 -0.9164 -1.3436
   30CHL1   C21 3378   3.571   1.432   4.895  0.3997  0.5368 -0.0626
   30CHL1  H21A 3379   3.506   1.355   4.850  2.4408 -1.7848  0.7025
   30CHL1  H21B 3380   3.616   1.469   4.800 -0.2291 -1.0509 -1.0115
   30CHL1  H21C 3381   3.515   1.523   4.924  1.0203  0.6289  0.9015
   30CHL1   C22 3382   3.715   1.235   4.957 -0.5297 -0.3259 -0.1286
   30CHL1  H22A 3383   3.781   1.200   5.039 -2.0313 -1.4836  0.6436
   30CHL1  H22B 3384   3.624   1.171   4.954 -2.5992  2.3901  0.5360
   30CHL1   C23 3385   3.795   1.232   4.821  1.4226  0.1645  0.0360
   30CHL1  H23A 3386   3.810   1.124   4.800 -0.1240  0.1754 -1.3354
   30CHL1  H23B 3387   3.735   1.272   4.737  3.1966  0.5327 -1.1213
   30CHL1   C24 3388   3.927   1.307   4.819 -0.7423  0.1512  0.4713
   30CHL1  H24A 3389   3.906   1.411   4.787 -0.1404 -0.1589 -1.0156
   30CHL1  H24B 3390   3.979   1.311   4.917  0.0134 -1.7413  0.1931
   30CHL1   C25 3391   4.026   1.269   4.707 -0.3124  0.2879 -0.4211
   30CHL1   H25 3392   4.120   1.327   4.715  1.0075 -1.7068 -0.7182
   30CHL1   C26 3393   4.092   1.130   4.736  0.3573  0.2683  0.5940
   30CHL1  H26A 3394   4.017   1.048   4.737 -0.8344  1.2266 -2.0371
   30CHL1  H26B 3395   4.163   1.115   4.653 -1.8049 -0.0183 -1.3091
   30CHL1  H26C 3396   4.159   1.132   4.824  0.5850  0.0061  0.4276
   30CHL1   C27 3397   3.964   1.288   4.565  0.0871 -0.1066  0.3957
   30CHL1  H27A 3398   3.890   1.209   4.541  0.7486 -0.6738  0.2170
   30CHL1  H27B 3399   3.935   1.395   4.552 -2.6147 -0.8632 -0.5882
   30CHL1  H27C 3400   4.052   1.277   4.498  0.4666  1.3132  0.6259
   31CHL1    C3 3401   1.483   1.739   5.928 -0.0140  1.2054 -0.6481
   31CHL1    H3 3402   1.498   1.634   5.897  1.8210  1.3690 -0.4350
   31CHL1    O3 3403   1.484   1.735   6.071 -0.4930 -0.0062  0.0879
   31CHL1   H3' 3404   1.488   1.828   6.098  1.7487  0.1852 -0.6602
   31CHL1    C4 3405   1.606   1.821   5.868  0.4763 -0.0121 -0.2083
   31CHL1   H4A 3406   1.593   1.922   5.914  0.7596 -0.5687  1.1575
   31CHL1   H4B 3407   1.707   1.793   5.904  0.8955 -1.4342 -2.3444
   31CHL1    C5 3408   1.600   1.812   5.717 -0.9931 -0.5778  0.2568
   31CHL1    C6 3409   1.706   1.762   5.647 -0.0343  0.5793  0.1437
   31CHL1    H6 3410   1.792   1.718   5.698 -0.1731  0.6917  0.4784
   31CHL1    C7 3411   1.713   1.762   5.498  0.2556 -0.4202  0.5101
   31CHL1   H7A 3412   1.813   1.796   5.464  0.6569  0.7225  2.6375
   31CHL1   H7B 3413   1.689   1.660   5.460  0.4685 -0.0201 -0.7252
   31CHL1    C8 3414   1.598   1.846   5.426 -0.1312  0.4569  0.3314
   31CHL1    H8 3415   1.622   1.955   5.431 -1.8912  0.8080  3.2339
   31CHL1   C14 3416   1.591   1.812   5.276 -0.6768  0.0478 -0.0208
   31CHL1   H14 3417   1.562   1.705   5.278 -0.8295  0.0807  2.0502
   31CHL1   C15 3418   1.718   1.814   5.192  0.3146 -0.5756 -0.0026
   31CHL1  H15A 3419   1.773   1.911   5.196 -0.6247  0.0305 -1.0936
   31CHL1  H15B 3420   1.784   1.727   5.212  2.1651  0.9691  1.0140
   31CHL1   C16 3421   1.664   1.804   5.047 -0.3456  0.1440 -0.4720
   31CHL1  H16A 3422   1.714   1.885   4.990 -0.1996  0.8240  0.5903
   31CHL1  H16B 3423   1.684   1.706   4.998  0.5115  0.6651 -1.2044
   31CHL1   C17 3424   1.507   1.813   5.063  0.4641  0.2385 -0.4648
   31CHL1   H17 3425   1.476   1.708   5.079  0.6643  0.1900 -0.3907
   31CHL1   C13 3426   1.480   1.880   5.199  0.4491 -0.4870 -0.2815
   31CHL1   C18 3427   1.503   2.032   5.185 -0.6852 -0.1470 -0.5023
   31CHL1  H18A 3428   1.489   2.082   5.283 -1.0019 -0.6994 -0.2570
   31CHL1  H18B 3429   1.602   2.045   5.136 -0.5970 -0.8038 -0.5131
   31CHL1  H18C 3430   1.418   2.080   5.132 -0.3720  0.5054 -0.4161
   31CHL1   C12 3431   1.344   1.856   5.271 -0.0267 -0.6088  0.7030
   31CHL1  H12A 3432   1.256   1.908   5.226  1.5702 -0.1722 -2.1416
   31CHL1  H12B 3433   1.320   1.748   5.281  0.9068 -0.8172  0.7757
   31CHL1   C11 3434   1.344   1.887   5.424 -0.2687  0.0369 -0.6551
   31CHL1  H11A 3435   1.342   1.998   5.420  1.1813  0.1589  0.5826
   31CHL1  H11B 3436   1.254   1.850   5.477  0.1459  0.3288  0.2795
   31CHL1    C9 3437   1.466   1.821   5.493 -0.1128  0.2282 -0.0371
   31CHL1    H9 3438   1.449   1.711   5.501 -2.0740  0.6037  2.1535
   31CHL1   C10 3439   1.472   1.867   5.644 -0.1439 -0.4500  0.2333
   31CHL1   C19 3440   1.464   2.020   5.656 -0.0202  0.6880 -0.0510
   31CHL1  H19A 3441   1.365   2.052   5.618  0.0512 -0.4238 -1.2736
   31CHL1  H19B 3442   1.484   2.065   5.755 -0.2474  1.0546 -0.1693
   31CHL1  H19C 3443   1.542   2.060   5.587  0.5629  0.2660  0.3517
   31CHL1    C1 3444   1.355   1.796   5.718  0.3486  0.3053  1.0817
   31CHL1   H1A 3445   1.252   1.826   5.688  1.1652  0.1759 -2.2048
   31CHL1   H1B 3446   1.368   1.687   5.701 -0.1331  0.2260  1.1764
   31CHL1    C2 3447   1.354   1.806   5.876 -0.1576  0.0393 -0.3888
   31CHL1   H2A 3448   1.268   1.747   5.916 -1.8646  1.7795 -1.2898
   31CHL1   H2B 3449   1.336   1.910   5.911  0.1689 -0.3284  0.9236
   31CHL1   C20 3450   1.443   1.866   4.939  0.4424  0.1162  0.0067
   31CHL1   H20 3451   1.441   1.977   4.939 -0.4376  0.1052  0.1892
   31CHL1   C21 3452   1.291   1.823   4.945 -0.3066 -0.1336 -0.4707
   31CHL1  H21A 3453   1.245   1.874   5.032  0.4430 -1.1858  0.5706
   31CHL1  H21B 3454   1.267   1.714   4.940 -1.5567  0.0665  0.7518
   31CHL1  H21C 3455   1.235   1.875   4.864 -0.6520 -0.6414 -0.5647
   31CHL1   C22 3456   1.510   1.825   4.806 -0.8266  0.2846 -0.5966
   31CHL1  H22A 3457   1.620   1.841   4.801 -0.8905  0.8458 -0.2277
   31CHL1  H22B 3458   1.478   1.719   4.795 -0.3966 -0.1367  1.6433
   31CHL1   C23 3459   1.455   1.900   4.691  0.0575  0.1033  0.8222
   31CHL1  H23A 3460   1.345   1.892   4.683  0.2411 -1.9277 -0.6244
   31CHL1  H23B 3461   1.497   2.002   4.696 -0.0493  0.2949 -1.2092
   31CHL1   C24 3462   1.510   1.834   4.562 -0.3317  0.1460 -0.4116
   31CHL1  H24A 3463   1.618   1.857   4.550 -0.4378  1.2074  0.4372
   31CHL1  H24B 3464   1.492   1.725   4.556  1.5744 -0.1881 -0.6611
   31CHL1   C25 3465   1.442   1.893   4.440 -0.2298 -0.1467 -0.4277
   31CHL1   H25 3466   1.425   2.000   4.467  1.7763  0.5144 -1.5908
   31CHL1   C26 3467   1.539   1.878   4.322  0.3556 -0.5940  0.3694
   31CHL1  H26A 3468   1.474   1.929   4.248  0.9495  1.6204  1.2728
   31CHL1  H26B 3469   1.630   1.941   4.331  0.8894 -1.2158 -0.5493
   31CHL1  H26C 3470   1.561   1.772   4.300 -0.7232 -1.0054  1.1917
   31CHL1   C27 3471   1.314   1.818   4.397  0.4879  0.8004  0.4151
   31CHL1  H27A 3472   1.274   1.861   4.302 -0.1273 -0.2766  0.1717
   31CHL1  H27B 3473   1.318   1.709   4.380  0.5690  0.8393  0.1839
   31CHL1  H27C 3474   1.241   1.821   4.481  0.4675 -2.2193  0.6258
   32CHL1    C3 3475   5.026   6.554   6.117  0.7480 -0.2584 -0.5856
   32CHL1    H3 3476   5.098   6.638   6.113  0.7460  0.0144  2.4337
   32CHL1    O3 3477   5.009   6.525   6.256  0.0900  0.3826 -0.5282
   32CHL1   H3' 3478   4.955   6.446   6.260 -0.3350  0.6703 -0.4877
   32CHL1    C4 3479   4.884   6.584   6.058  0.2028 -0.7757 -0.8729
   32CHL1   H4A 3480   4.808   6.513   6.098 -1.0047  1.5603  1.3070
   32CHL1   H4B 3481   4.858   6.684   6.100 -0.2732 -0.2987 -2.2378
   32CHL1    C5 3482   4.875   6.596   5.905 -0.0547  0.0294  0.2509
   32CHL1    C6 3483   4.807   6.704   5.852 -0.4558 -0.1553  0.5122
   32CHL1    H6 3484   4.772   6.791   5.909 -0.1090  1.2316 -1.2812
   32CHL1    C7 3485   4.811   6.733   5.704  1.3474 -0.3789 -0.5358
   32CHL1   H7A 3486   4.712   6.771   5.670 -0.0190 -1.3537  2.1072
   32CHL1   H7B 3487   4.882   6.815   5.680  1.8008  0.2270  2.5023
   32CHL1    C8 3488   4.848   6.609   5.622 -0.5306  0.3655 -0.4705
   32CHL1    H8 3489   4.761   6.541   5.622  0.3095 -0.8581 -3.3961
   32CHL1   C14 3490   4.870   6.635   5.470 -0.4240  0.5880 -0.8044
   32CHL1   H14 3491   4.960   6.700   5.460  1.1248 -1.5355 -1.1825
   32CHL1   C15 3492   4.741   6.701   5.409  0.0203 -0.1882  0.1684
   32CHL1  H15A 3493   4.654   6.638   5.437  0.2994 -0.8743 -0.4919
   32CHL1  H15B 3494   4.716   6.800   5.454  1.4951  0.1541  0.2950
   32CHL1   C16 3495   4.765   6.682   5.255  0.3364  0.4196 -0.3611
   32CHL1  H16A 3496   4.668   6.652   5.208 -1.0812  2.2487  1.2072
   32CHL1  H16B 3497   4.804   6.778   5.215 -1.5704  1.0375 -0.8667
   32CHL1   C17 3498   4.878   6.567   5.246 -0.2165 -0.4800  0.4553
   32CHL1   H17 3499   4.970   6.629   5.254 -0.4844 -0.0276  0.1429
   32CHL1   C13 3500   4.889   6.509   5.387 -0.0599 -0.0276 -0.2487
   32CHL1   C18 3501   4.778   6.397   5.398 -0.0476  0.6105  0.2248
   32CHL1  H18A 3502   4.691   6.437   5.342  2.3240  1.8984 -2.7971
   32CHL1  H18B 3503   4.802   6.300   5.349 -2.7525  0.3093 -0.6649
   32CHL1  H18C 3504   4.747   6.372   5.502 -1.7677  0.6877 -0.2470
   32CHL1   C12 3505   5.023   6.453   5.434 -0.0925  0.2201 -0.2642
   32CHL1  H12A 3506   5.043   6.362   5.373  3.2373  0.4939  0.2461
   32CHL1  H12B 3507   5.101   6.532   5.426  1.0032 -0.6950  0.9486
   32CHL1   C11 3508   5.014   6.416   5.580  0.6513 -0.4866  0.3136
   32CHL1  H11A 3509   4.949   6.326   5.585 -0.4780  0.3275  0.9179
   32CHL1  H11B 3510   5.118   6.397   5.613  0.5477 -2.2457 -0.2751
   32CHL1    C9 3511   4.959   6.531   5.682 -0.9741 -0.6059  0.7737
   32CHL1    H9 3512   5.045   6.602   5.678 -3.6005  2.8005 -0.8431
   32CHL1   C10 3513   4.943   6.489   5.828 -0.6996 -0.1647 -0.3134
   32CHL1   C19 3514   4.859   6.361   5.832  0.1927 -1.0344 -0.1999
   32CHL1  H19A 3515   4.822   6.343   5.935 -3.1233 -1.4199 -1.3501
   32CHL1  H19B 3516   4.772   6.374   5.764 -1.6563  1.8826  2.5040
   32CHL1  H19C 3517   4.920   6.275   5.795  1.9375  0.3143 -0.5783
   32CHL1    C1 3518   5.083   6.458   5.894  0.1365 -0.6297  0.3872
   32CHL1   H1A 3519   5.136   6.377   5.841 -0.9178 -1.1266  0.0540
   32CHL1   H1B 3520   5.142   6.552   5.885  0.3848 -0.9149 -1.2064
   32CHL1    C2 3521   5.084   6.434   6.048 -0.2032  0.6839 -0.5890
   32CHL1   H2A 3522   5.189   6.424   6.084  0.9115  0.3241 -3.5997
   32CHL1   H2B 3523   5.033   6.341   6.082  1.0797  0.4570  0.8117
   32CHL1   C20 3524   4.893   6.477   5.120  0.1090 -0.2852  0.0403
   32CHL1   H20 3525   4.952   6.384   5.134  0.9617 -0.0705 -1.8024
   32CHL1   C21 3526   4.969   6.567   5.015  0.4012  0.5372  0.2328
   32CHL1  H21A 3527   5.065   6.604   5.058  0.3991 -0.5679  1.2204
   32CHL1  H21B 3528   4.896   6.647   4.989 -0.6036 -0.7515 -1.1041
   32CHL1  H21C 3529   4.981   6.511   4.919  1.6766 -0.6750  1.0657
   32CHL1   C22 3530   4.753   6.431   5.064 -0.5241 -0.1455 -0.6869
   32CHL1  H22A 3531   4.693   6.379   5.142  0.6797 -2.1683 -1.0337
   32CHL1  H22B 3532   4.691   6.515   5.029 -1.9090 -1.2623 -0.9980
   32CHL1   C23 3533   4.767   6.353   4.937  0.0789  1.1727  0.6963
   32CHL1  H23A 3534   4.790   6.418   4.849 -0.5843  0.0864 -0.3147
   32CHL1  H23B 3535   4.848   6.278   4.944 -0.3834  0.5765 -0.1264
   32CHL1   C24 3536   4.645   6.277   4.892  0.2634  0.4214 -0.1674
   32CHL1  H24A 3537   4.553   6.328   4.926  0.2862 -0.6909  1.7060
   32CHL1  H24B 3538   4.624   6.270   4.783  1.1641 -0.4105 -0.2996
   32CHL1   C25 3539   4.636   6.137   4.953 -1.3087  0.3637  0.1952
   32CHL1   H25 3540   4.680   6.118   5.053  0.0290  0.3235 -0.3725
   32CHL1   C26 3541   4.488   6.098   4.983  0.1272 -0.2298  0.0610
   32CHL1  H26A 3542   4.422   6.090   4.894  0.1536  0.3052 -0.0121
   32CHL1  H26B 3543   4.490   5.995   5.025 -0.6235 -0.4076 -0.3212
   32CHL1  H26C 3544   4.443   6.176   5.048 -0.8987 -1.3831  0.7926
   32CHL1   C27 3545   4.706   6.031   4.857 -0.4787  0.3268  0.0256
   32CHL1  H27A 3546   4.802   6.074   4.822 -1.1693  0.9677 -1.1497
   32CHL1  H27B 3547   4.721   5.938   4.915 -1.6918 -1.1002 -1.8505
   32CHL1  H27C 3548   4.640   6.011   4.770 -0.5038  0.4512  0.0155
   33CHL1    C3 3549   2.866   5.976   6.143  0.0812 -0.2044  0.9756
   33CHL1    H3 3550   2.756   5.982   6.129  0.3900  2.7147 -1.1504
   33CHL1    O3 3551   2.915   5.968   6.283 -0.1327 -0.1553 -0.1589
   33CHL1   H3' 3552   3.011   5.967   6.276 -0.2384 -1.3067 -2.2339
   33CHL1    C4 3553   2.918   5.849   6.063  0.2182  0.6294 -0.3476
   33CHL1   H4A 3554   3.024   5.820   6.083  0.2674  1.2046  0.2698
   33CHL1   H4B 3555   2.864   5.771   6.121 -1.3608  2.0039  0.0979
   33CHL1    C5 3556   2.873   5.858   5.915  0.0220  0.2763 -0.1744
   33CHL1    C6 3557   2.791   5.769   5.857 -0.8273  0.4262  0.6948
   33CHL1    H6 3558   2.754   5.685   5.919  0.5052 -0.5210  0.2505
   33CHL1    C7 3559   2.752   5.782   5.710  0.1716  0.0451  0.0124
   33CHL1   H7A 3560   2.742   5.680   5.667  0.5614 -0.9509  2.1421
   33CHL1   H7B 3561   2.652   5.828   5.694 -0.4098 -1.2056 -0.0374
   33CHL1    C8 3562   2.855   5.868   5.634  0.2068  0.3353 -0.1731
   33CHL1    H8 3563   2.951   5.813   5.631  1.2568  1.9245  1.6867
   33CHL1   C14 3564   2.796   5.915   5.501  0.2296 -0.1050 -0.1838
   33CHL1   H14 3565   2.712   5.981   5.530  0.2033 -0.0099 -0.4752
   33CHL1   C15 3566   2.735   5.810   5.412  0.2478 -0.2392 -0.0163
   33CHL1  H15A 3567   2.809   5.728   5.407  0.9207  0.2710  1.1333
   33CHL1  H15B 3568   2.634   5.773   5.441  0.0433 -0.1858 -0.6311
   33CHL1   C16 3569   2.722   5.880   5.276 -0.1079 -0.0586  0.2110
   33CHL1  H16A 3570   2.776   5.819   5.200  2.2812  2.7839 -0.5908
   33CHL1  H16B 3571   2.614   5.898   5.261 -0.4207 -1.4610  0.6659
   33CHL1   C17 3572   2.808   6.011   5.284 -0.9890  0.3832  0.2290
   33CHL1   H17 3573   2.732   6.089   5.309 -1.9069  0.0102 -1.2655
   33CHL1   C13 3574   2.882   6.000   5.417 -0.9987  0.1876  0.1503
   33CHL1   C18 3575   3.013   5.920   5.382 -0.5048  0.4675  0.5537
   33CHL1  H18A 3576   3.090   5.991   5.346  0.8524 -0.7021  1.0401
   33CHL1  H18B 3577   3.059   5.871   5.471  2.0352 -0.1119 -0.9769
   33CHL1  H18C 3578   2.987   5.850   5.300 -0.8853  0.6721  0.4960
   33CHL1   C12 3579   2.910   6.139   5.487  0.7073 -0.4398 -0.4596
   33CHL1  H12A 3580   2.985   6.199   5.432  0.5902 -2.2378 -2.7136
   33CHL1  H12B 3581   2.814   6.194   5.488  0.8597 -0.1668 -0.6221
   33CHL1   C11 3582   2.960   6.111   5.625 -0.2504 -0.6180 -0.0564
   33CHL1  H11A 3583   3.059   6.062   5.611 -0.6130 -1.0644 -1.1578
   33CHL1  H11B 3584   2.978   6.198   5.692  4.4269 -1.2994 -0.0753
   33CHL1    C9 3585   2.878   5.999   5.706 -0.3904 -0.1507 -0.9139
   33CHL1    H9 3586   2.786   6.059   5.722  0.1160  0.3592  0.1814
   33CHL1   C10 3587   2.934   5.987   5.854  0.3581 -0.1712  0.2326
   33CHL1   C19 3588   3.087   5.964   5.853  0.4935 -0.1589  0.4621
   33CHL1  H19A 3589   3.125   5.954   5.957  1.1685 -0.7910  0.1620
   33CHL1  H19B 3590   3.100   5.866   5.803 -1.5230 -0.8325  1.1297
   33CHL1  H19C 3591   3.145   6.045   5.805 -0.0275 -0.3148 -0.4453
   33CHL1    C1 3592   2.903   6.110   5.938  0.4940 -0.1497 -0.1703
   33CHL1   H1A 3593   2.963   6.198   5.903  0.2039  0.1714  0.1308
   33CHL1   H1B 3594   2.798   6.137   5.913  0.3477 -0.0474  0.5406
   33CHL1    C2 3595   2.935   6.101   6.090 -0.0952  0.3329  0.1548
   33CHL1   H2A 3596   2.914   6.194   6.146 -1.7923 -0.9507  1.7760
   33CHL1   H2B 3597   3.045   6.095   6.103 -0.3123  1.4498  3.2468
   33CHL1   C20 3598   2.869   6.055   5.143 -0.0338  0.2037 -0.4641
   33CHL1   H20 3599   2.953   5.985   5.122  1.1530  0.9860  1.4655
   33CHL1   C21 3600   2.926   6.191   5.164  0.4207  0.4795  0.0602
   33CHL1  H21A 3601   3.011   6.182   5.234 -0.5685 -0.8530  1.1390
   33CHL1  H21B 3602   2.857   6.261   5.214 -1.1854 -0.1084 -1.2236
   33CHL1  H21C 3603   2.949   6.245   5.069  1.6706 -0.2386 -0.0684
   33CHL1   C22 3604   2.768   6.052   5.026 -0.4927  0.4211 -0.3520
   33CHL1  H22A 3605   2.739   5.946   5.011  0.2985  0.3679 -1.6032
   33CHL1  H22B 3606   2.676   6.105   5.059 -1.0814 -0.7842  0.0030
   33CHL1   C23 3607   2.823   6.104   4.891  0.3755  0.2880  0.0422
   33CHL1  H23A 3608   2.735   6.104   4.824  0.8639  0.5736 -0.6169
   33CHL1  H23B 3609   2.843   6.214   4.889 -2.4376  0.8484 -1.5640
   33CHL1   C24 3610   2.941   6.022   4.839  0.4572 -0.4216  1.1720
   33CHL1  H24A 3611   3.036   6.031   4.895  1.1056  1.8363 -0.1562
   33CHL1  H24B 3612   2.913   5.916   4.851  0.6307 -0.5162  0.7767
   33CHL1   C25 3613   2.973   6.065   4.688 -0.1221 -0.5058  0.3756
   33CHL1   H25 3614   3.017   5.972   4.644  0.4983 -0.0978  0.1133
   33CHL1   C26 3615   2.854   6.114   4.601  0.0236  0.0868  0.5536
   33CHL1  H26A 3616   2.875   6.143   4.496 -0.2564 -1.8923 -0.0851
   33CHL1  H26B 3617   2.774   6.037   4.596 -1.7560  1.9487 -2.4499
   33CHL1  H26C 3618   2.803   6.199   4.651 -1.1177 -1.2629  1.7913
   33CHL1   C27 3619   3.085   6.170   4.670 -0.5592  0.0004  0.2485
   33CHL1  H27A 3620   3.119   6.187   4.566  0.9778 -2.7289  0.2105
   33CHL1  H27B 3621   3.050   6.260   4.726 -1.5707 -1.1832  1.6131
   33CHL1  H27C 3622   3.177   6.135   4.722 -0.8379 -2.0921 -0.5894
   34CHL1    C3 3623   1.878   2.044   6.048 -0.0226  0.2793  0.6390
   34CHL1    H3 3624   1.830   1.945   6.031 -1.8502  1.5786 -2.6008
   34CHL1    O3 3625   1.901   2.061   6.182 -0.2501  0.1479 -0.3881
   34CHL1   H3' 3626   1.820   2.099   6.216  0.5828  0.3603  1.4360
   34CHL1    C4 3627   2.014   2.039   5.969 -0.2448  0.4572  0.1773
   34CHL1   H4A 3628   2.071   2.126   6.008 -0.0051  0.5685 -0.4027
   34CHL1   H4B 3629   2.074   1.950   5.998  0.5262  0.8285 -0.2357
   34CHL1    C5 3630   1.998   2.046   5.817 -0.7545  0.0346 -0.8999
   34CHL1    C6 3631   2.050   1.950   5.737  0.5911 -0.2351  0.2885
   34CHL1    H6 3632   2.118   1.875   5.781  1.4303  0.4348  0.1605
   34CHL1    C7 3633   2.047   1.952   5.583  0.0931  0.4181  1.0822
   34CHL1   H7A 3634   2.149   1.928   5.546 -0.6027  2.7583 -2.9130
   34CHL1   H7B 3635   1.979   1.875   5.543  2.5273 -0.9821 -0.5944
   34CHL1    C8 3636   1.997   2.088   5.527 -0.2114 -0.3402 -0.2342
   34CHL1    H8 3637   2.078   2.163   5.537 -0.2862 -0.1581 -0.9244
   34CHL1   C14 3638   1.958   2.067   5.383 -0.5046  0.7688 -0.2048
   34CHL1   H14 3639   1.876   1.993   5.388 -2.0950  2.2670 -2.4211
   34CHL1   C15 3640   2.058   1.999   5.292 -0.2585  0.1309 -0.1487
   34CHL1  H15A 3641   2.163   2.024   5.317 -0.4060 -1.0628  1.9076
   34CHL1  H15B 3642   2.046   1.889   5.287 -0.8019  0.1319  0.7244
   34CHL1   C16 3643   2.029   2.050   5.154  1.1815 -0.2322 -0.2437
   34CHL1  H16A 3644   2.108   2.109   5.101 -1.3250  2.9919 -0.7288
   34CHL1  H16B 3645   1.982   1.968   5.096  0.3828  1.0013 -1.3944
   34CHL1   C17 3646   1.904   2.152   5.161 -0.0856 -0.6460  0.1247
   34CHL1   H17 3647   1.808   2.103   5.136 -0.2707 -0.0096 -0.4573
   34CHL1   C13 3648   1.901   2.189   5.313 -0.0040  0.5400  0.8183
   34CHL1   C18 3649   1.998   2.306   5.327  0.7679 -0.0221 -0.2160
   34CHL1  H18A 3650   2.025   2.338   5.430 -1.8041 -0.2989  0.6167
   34CHL1  H18B 3651   2.090   2.300   5.265  1.4862 -0.1540  0.8412
   34CHL1  H18C 3652   1.939   2.391   5.287 -0.0039 -0.4645 -0.0436
   34CHL1   C12 3653   1.765   2.210   5.378 -0.0879 -0.1868 -0.0711
   34CHL1  H12A 3654   1.719   2.304   5.341  0.8144 -0.7835 -2.9702
   34CHL1  H12B 3655   1.697   2.126   5.356 -1.9372  0.8128  1.5634
   34CHL1   C11 3656   1.791   2.234   5.533 -0.7674  0.0913  0.7226
   34CHL1  H11A 3657   1.839   2.334   5.531  0.9592 -0.7098 -1.7029
   34CHL1  H11B 3658   1.692   2.252   5.580 -0.9519 -1.5912  1.0513
   34CHL1    C9 3659   1.869   2.125   5.605  0.0408 -0.3615  0.3098
   34CHL1    H9 3660   1.797   2.041   5.599 -2.2137  1.5208 -1.2751
   34CHL1   C10 3661   1.906   2.147   5.763  0.5784 -0.0450  0.2452
   34CHL1   C19 3662   1.979   2.281   5.786 -0.5232 -0.7359 -0.3205
   34CHL1  H19A 3663   1.909   2.355   5.742 -1.7200 -1.3246  0.5500
   34CHL1  H19B 3664   1.999   2.322   5.887 -0.9151 -1.0386 -0.1224
   34CHL1  H19C 3665   2.079   2.282   5.736 -0.1237  0.7160  0.4317
   34CHL1    C1 3666   1.771   2.153   5.833  0.5793 -0.2083  0.4221
   34CHL1   H1A 3667   1.715   2.246   5.809  0.2181 -0.6068 -0.3293
   34CHL1   H1B 3668   1.708   2.062   5.822 -2.0890  1.7466 -1.7159
   34CHL1    C2 3669   1.784   2.149   5.992  0.0547 -1.0052  0.1262
   34CHL1   H2A 3670   1.684   2.136   6.039 -0.2284 -1.1532 -0.4989
   34CHL1   H2B 3671   1.814   2.248   6.032  0.3071 -0.9530 -0.1911
   34CHL1   C20 3672   1.922   2.258   5.052 -0.2412 -0.5988  0.0969
   34CHL1   H20 3673   2.011   2.322   5.073 -0.7334  0.7428 -1.6264
   34CHL1   C21 3674   1.800   2.354   5.055  0.0551  0.0567 -0.1369
   34CHL1  H21A 3675   1.706   2.300   5.031 -0.5781  0.2969  1.6480
   34CHL1  H21B 3676   1.824   2.434   4.982 -0.6073 -0.5459 -1.0368
   34CHL1  H21C 3677   1.779   2.413   5.146 -1.4713 -2.3339  1.1465
   34CHL1   C22 3678   1.949   2.204   4.909 -0.1573 -0.3067  0.6845
   34CHL1  H22A 3679   1.974   2.288   4.841  0.8690  1.3414  2.9676
   34CHL1  H22B 3680   2.040   2.141   4.902 -0.3171 -0.5501  0.8012
   34CHL1   C23 3681   1.827   2.122   4.856  0.0854 -0.0957 -0.5648
   34CHL1  H23A 3682   1.828   2.022   4.903 -0.3963  0.9437  1.8177
   34CHL1  H23B 3683   1.726   2.162   4.880  0.4040  0.3848  0.0174
   34CHL1   C24 3684   1.845   2.093   4.707  0.2980  0.2123 -0.4167
   34CHL1  H24A 3685   1.953   2.065   4.704  0.1331 -0.8169  1.4983
   34CHL1  H24B 3686   1.778   2.013   4.670  2.1858 -2.0408  0.7942
   34CHL1   C25 3687   1.829   2.209   4.614 -0.4875 -0.5549 -0.3316
   34CHL1   H25 3688   1.889   2.298   4.645 -1.5243  0.4473 -1.1166
   34CHL1   C26 3689   1.856   2.170   4.470  0.5855  0.3372 -0.5471
   34CHL1  H26A 3690   1.963   2.149   4.451  0.8715  0.9480  0.3377
   34CHL1  H26B 3691   1.797   2.079   4.447 -0.8680  0.5778  1.9195
   34CHL1  H26C 3692   1.822   2.247   4.397 -1.1078  0.6355  0.4928
   34CHL1   C27 3693   1.679   2.264   4.621 -0.0462 -0.2625 -0.0474
   34CHL1  H27A 3694   1.663   2.355   4.558 -4.5220 -0.8212 -0.0550
   34CHL1  H27B 3695   1.616   2.177   4.595  0.7766 -0.8816 -0.0051
   34CHL1  H27C 3696   1.664   2.298   4.725  0.9052  3.2205 -0.9061
   35CHL1    C3 3697   4.393   2.711   5.993 -0.7774  0.0421  0.0919
   35CHL1    H3 3698   4.460   2.796   6.014 -2.0882  1.2223 -0.3765
   35CHL1    O3 3699   4.356   2.654   6.114  0.8793 -0.0870 -0.0930
   35CHL1   H3' 3700   4.274   2.700   6.132  0.7085 -0.9729  1.6239
   35CHL1    C4 3701   4.267   2.755   5.912 -0.4502  0.3451 -0.0285
   35CHL1   H4A 3702   4.205   2.664   5.897  1.9212 -1.3931  0.0553
   35CHL1   H4B 3703   4.211   2.819   5.984 -1.6389 -0.9939  0.2967
   35CHL1    C5 3704   4.316   2.827   5.785 -0.0352  0.5900 -0.1599
   35CHL1    C6 3705   4.288   2.955   5.771 -0.6688  0.0230  0.0041
   35CHL1    H6 3706   4.222   3.001   5.846 -3.1452 -3.6702  0.3022
   35CHL1    C7 3707   4.334   3.033   5.648 -0.6660  0.0558  0.1830
   35CHL1   H7A 3708   4.247   3.080   5.598  1.4798  0.5556 -3.4631
   35CHL1   H7B 3709   4.416   3.106   5.670  0.0788 -0.3362 -1.1361
   35CHL1    C8 3710   4.392   2.946   5.529  0.0952  0.6933  0.2885
   35CHL1    H8 3711   4.300   2.902   5.483  1.4141  0.7246 -2.5981
   35CHL1   C14 3712   4.465   3.028   5.425  0.6560 -0.0445  0.0189
   35CHL1   H14 3713   4.557   3.068   5.472  0.9402  0.0577 -0.6171
   35CHL1   C15 3714   4.387   3.153   5.374  0.0418  0.5961 -1.0601
   35CHL1  H15A 3715   4.276   3.145   5.377  0.1454 -1.6139 -1.7058
   35CHL1  H15B 3716   4.421   3.240   5.434 -1.6014  1.1020 -0.8119
   35CHL1   C16 3717   4.438   3.170   5.229 -0.2817  0.1929 -0.6776
   35CHL1  H16A 3718   4.348   3.152   5.167 -1.8494  0.6093  1.3606
   35CHL1  H16B 3719   4.474   3.275   5.216 -2.2583  0.8696 -0.9326
   35CHL1   C17 3720   4.559   3.059   5.222  0.2681  0.6193 -0.1652
   35CHL1   H17 3721   4.645   3.099   5.279  0.9026 -2.1678  0.9955
   35CHL1   C13 3722   4.510   2.941   5.311 -0.1339  0.7505 -0.1182
   35CHL1   C18 3723   4.386   2.878   5.246  0.1808 -0.1481 -0.1812
   35CHL1  H18A 3724   4.422   2.836   5.150  0.3532  1.4113 -0.8314
   35CHL1  H18B 3725   4.333   2.798   5.301 -0.3177 -0.5676 -1.2445
   35CHL1  H18C 3726   4.300   2.947   5.233 -1.6084 -2.4434 -1.0890
   35CHL1   C12 3727   4.611   2.838   5.357 -0.1365 -0.7004 -0.4936
   35CHL1  H12A 3728   4.650   2.787   5.266  0.7311  0.6528 -0.9123
   35CHL1  H12B 3729   4.697   2.890   5.404 -1.4488  0.6784  0.4911
   35CHL1   C11 3730   4.547   2.751   5.469  0.2883 -0.1837 -0.0036
   35CHL1  H11A 3731   4.481   2.690   5.404 -0.6755  0.7352  0.0954
   35CHL1  H11B 3732   4.615   2.676   5.516 -0.2384  0.0020  1.0909
   35CHL1    C9 3733   4.477   2.833   5.580 -0.0805  0.5023  0.2874
   35CHL1    H9 3734   4.550   2.893   5.638 -2.4442  2.4167  1.4698
   35CHL1   C10 3735   4.401   2.741   5.684  0.9353  0.0787 -0.6536
   35CHL1   C19 3736   4.294   2.652   5.608  0.6103 -0.4009 -0.0679
   35CHL1  H19A 3737   4.346   2.597   5.526 -0.5719 -2.4534  0.4684
   35CHL1  H19B 3738   4.254   2.571   5.672  1.2463  0.2467  1.1708
   35CHL1  H19C 3739   4.211   2.715   5.570  2.0197  2.3861  1.2440
   35CHL1    C1 3740   4.506   2.663   5.765  0.1466  0.6054  0.1714
   35CHL1   H1A 3741   4.546   2.580   5.703  0.2115  1.0633 -0.4091
   35CHL1   H1B 3742   4.592   2.732   5.785 -1.9961  3.2527  0.8722
   35CHL1    C2 3743   4.463   2.608   5.901 -0.5692  0.7018 -0.3972
   35CHL1   H2A 3744   4.554   2.570   5.953 -0.7358  0.1997 -0.4708
   35CHL1   H2B 3745   4.404   2.518   5.877  1.6680 -1.0934  0.4057
   35CHL1   C20 3746   4.615   3.032   5.081  0.2813 -0.6704  0.6323
   35CHL1   H20 3747   4.663   2.933   5.070  4.9937  1.4749 -0.8691
   35CHL1   C21 3748   4.729   3.123   5.056 -0.3857 -0.4505 -0.1379
   35CHL1  H21A 3749   4.784   3.088   4.966 -0.4741  1.9795 -1.2291
   35CHL1  H21B 3750   4.800   3.118   5.140 -0.8812 -2.0606  0.2235
   35CHL1  H21C 3751   4.704   3.228   5.029 -0.4424 -0.4579 -0.1154
   35CHL1   C22 3752   4.503   3.055   4.974 -0.2008  0.5059 -0.4890
   35CHL1  H22A 3753   4.437   2.968   4.994  0.6530 -1.3756 -4.7493
   35CHL1  H22B 3754   4.463   3.158   4.980 -0.3012  0.5059 -1.1355
   35CHL1   C23 3755   4.556   3.026   4.833 -0.0921  0.6704  0.3641
   35CHL1  H23A 3756   4.464   3.031   4.770  0.7074  1.4905 -0.7863
   35CHL1  H23B 3757   4.629   3.106   4.810  0.4572  0.1159  0.1627
   35CHL1   C24 3758   4.640   2.891   4.816 -0.4269 -0.5472  0.0170
   35CHL1  H24A 3759   4.733   2.910   4.873 -0.5054  2.3024 -0.6492
   35CHL1  H24B 3760   4.586   2.805   4.861  0.2476 -0.8428  0.2749
   35CHL1   C25 3761   4.676   2.870   4.660  0.3891 -0.1213 -0.4029
   35CHL1   H25 3762   4.577   2.861   4.612 -0.8019  1.1582  1.6632
   35CHL1   C26 3763   4.753   2.997   4.596 -0.0047 -0.7645 -0.2577
   35CHL1  H26A 3764   4.768   2.993   4.486 -2.9392  1.6793 -0.8920
   35CHL1  H26B 3765   4.700   3.092   4.620 -0.5139 -1.0368 -0.3004
   35CHL1  H26C 3766   4.847   3.005   4.655  0.3262 -0.5799 -0.8096
   35CHL1   C27 3767   4.751   2.740   4.639 -0.4125 -0.0513 -0.2078
   35CHL1  H27A 3768   4.792   2.738   4.536  1.0913  0.1563  0.3708
   35CHL1  H27B 3769   4.837   2.745   4.709 -0.0042  1.3968 -0.7737
   35CHL1  H27C 3770   4.687   2.650   4.650  0.3745 -0.6549 -0.4509
   36CHL1    C3 3771   0.955   1.083   6.312  0.3729 -0.0708 -0.3007
   36CHL1    H3 3772   0.988   1.189   6.306 -0.2291  0.1698  0.5560
   36CHL1    O3 3773   0.993   1.037   6.443  0.3590 -0.0949  0.1230
   36CHL1   H3' 3774   0.935   1.076   6.508  2.9142 -0.5702  2.9336
   36CHL1    C4 3775   0.803   1.088   6.282  0.5628  0.0306  0.1684
   36CHL1   H4A 3776   0.749   0.997   6.315  0.4386 -0.5097 -1.4816
   36CHL1   H4B 3777   0.772   1.162   6.360 -2.3196 -1.0304  0.1473
   36CHL1    C5 3778   0.757   1.122   6.142  0.1062 -0.3428 -0.2719
   36CHL1    C6 3779   0.669   1.220   6.118  0.4317  0.5766  0.5509
   36CHL1    H6 3780   0.639   1.283   6.203  0.4171 -1.0151  1.7593
   36CHL1    C7 3781   0.627   1.262   5.975 -0.0563 -0.0581 -0.0088
   36CHL1   H7A 3782   0.520   1.288   5.960  0.1302  0.7063 -0.0560
   36CHL1   H7B 3783   0.676   1.361   5.965  0.4844 -0.0879  1.9232
   36CHL1    C8 3784   0.673   1.168   5.862 -0.0006  0.6057 -0.1680
   36CHL1    H8 3785   0.604   1.081   5.854  0.7603 -0.0402  0.0879
   36CHL1   C14 3786   0.687   1.246   5.728 -0.7280  0.1976 -0.1948
   36CHL1   H14 3787   0.761   1.328   5.742 -0.8552  0.5808 -1.6024
   36CHL1   C15 3788   0.556   1.315   5.666  0.0070 -0.1403 -0.3912
   36CHL1  H15A 3789   0.473   1.243   5.684  1.4094 -2.4529 -2.5627
   36CHL1  H15B 3790   0.531   1.409   5.719  3.5003 -1.0127  3.3220
   36CHL1   C16 3791   0.585   1.333   5.519  0.1467  0.2292  0.6050
   36CHL1  H16A 3792   0.499   1.286   5.466  1.4754 -0.8509 -0.6677
   36CHL1  H16B 3793   0.599   1.439   5.490  0.4621 -0.0193 -0.1555
   36CHL1   C17 3794   0.719   1.262   5.488 -0.5929 -0.5140 -0.6765
   36CHL1   H17 3795   0.803   1.335   5.491  0.3621 -1.5910 -0.1995
   36CHL1   C13 3796   0.746   1.167   5.608 -0.3590 -0.3156  0.0478
   36CHL1   C18 3797   0.646   1.049   5.579  0.0248 -0.0483 -0.1642
   36CHL1  H18A 3798   0.669   0.976   5.499 -1.9107 -1.2442  0.2958
   36CHL1  H18B 3799   0.637   0.981   5.667 -2.1042  2.5366  1.7899
   36CHL1  H18C 3800   0.542   1.082   5.559  0.3326  0.3948 -1.0842
   36CHL1   C12 3801   0.886   1.109   5.638  0.2927  0.7758  0.4945
   36CHL1  H12A 3802   0.913   1.039   5.556 -1.0162 -0.4670  1.0872
   36CHL1  H12B 3803   0.957   1.191   5.661  1.7150 -0.3186  0.1169
   36CHL1   C11 3804   0.874   1.035   5.776 -0.5596  0.2846 -0.0878
   36CHL1  H11A 3805   0.810   0.945   5.767  0.1249 -0.3141  0.8667
   36CHL1  H11B 3806   0.973   0.989   5.799 -2.3078 -3.4632  0.6349
   36CHL1    C9 3807   0.817   1.118   5.892  0.3084 -0.1453  1.1529
   36CHL1    H9 3808   0.876   1.212   5.891 -1.3761  0.9495  1.4210
   36CHL1   C10 3809   0.836   1.052   6.028 -0.4118  0.0225  0.2772
   36CHL1   C19 3810   0.784   0.909   6.014  0.5649  0.1107  0.6454
   36CHL1  H19A 3811   0.854   0.838   5.965 -4.0680 -3.1107 -2.0797
   36CHL1  H19B 3812   0.761   0.865   6.113 -2.4209  1.1235  0.4950
   36CHL1  H19C 3813   0.685   0.900   5.964  0.8110  0.0995  0.1469
   36CHL1    C1 3814   0.984   1.041   6.066  0.1623 -0.4194 -0.5618
   36CHL1   H1A 3815   1.040   0.979   5.993  1.1611 -0.1793 -0.0239
   36CHL1   H1B 3816   1.015   1.147   6.055  1.5317 -0.3246  3.0240
   36CHL1    C2 3817   1.013   0.993   6.203  0.6109  0.6545 -0.4843
   36CHL1   H2A 3818   1.123   0.994   6.219  0.5737 -1.0916  0.0931
   36CHL1   H2B 3819   0.968   0.893   6.220 -0.1306  1.0694  0.0218
   36CHL1   C20 3820   0.720   1.204   5.347  0.4168 -0.3634  0.5364
   36CHL1   H20 3821   0.676   1.102   5.337 -0.5584 -0.0474  1.4872
   36CHL1   C21 3822   0.862   1.183   5.298  0.1473 -0.2149  0.5906
   36CHL1  H21A 3823   0.850   1.130   5.201 -0.3088  0.1985  0.4135
   36CHL1  H21B 3824   0.937   1.117   5.347  1.6249 -0.6101 -2.0038
   36CHL1  H21C 3825   0.910   1.283   5.292  0.9643 -0.6401 -0.2382
   36CHL1   C22 3826   0.645   1.289   5.239  0.6018  0.7331 -0.1660
   36CHL1  H22A 3827   0.538   1.278   5.265  0.7842  1.7648  1.1528
   36CHL1  H22B 3828   0.663   1.399   5.240  1.5950  0.5970 -1.0772
   36CHL1   C23 3829   0.662   1.246   5.092 -0.5797  0.2339 -0.2402
   36CHL1  H23A 3830   0.766   1.272   5.064 -0.0467 -1.9979 -0.5727
   36CHL1  H23B 3831   0.658   1.135   5.090  1.0543  0.0817  1.9786
   36CHL1   C24 3832   0.566   1.318   5.000  0.4643  0.3252 -0.0480
   36CHL1  H24A 3833   0.461   1.299   5.028  1.6715 -2.3826  3.3038
   36CHL1  H24B 3834   0.590   1.427   5.005 -2.0021  1.0346 -1.8000
   36CHL1   C25 3835   0.577   1.278   4.848  0.4427 -0.3658 -0.3704
   36CHL1   H25 3836   0.558   1.170   4.829  0.4926 -0.3025 -0.8002
   36CHL1   C26 3837   0.467   1.343   4.767  0.1956  0.0328  0.3524
   36CHL1  H26A 3838   0.467   1.330   4.657 -1.6196  1.9877  0.0363
   36CHL1  H26B 3839   0.367   1.300   4.789  0.6152 -1.4047 -0.4779
   36CHL1  H26C 3840   0.466   1.454   4.779 -0.4159  0.0052  0.6099
   36CHL1   C27 3841   0.719   1.321   4.798  0.0963 -0.7935 -0.0015
   36CHL1  H27A 3842   0.728   1.432   4.800 -1.3304 -0.6441 -0.7383
   36CHL1  H27B 3843   0.800   1.271   4.856  0.1611 -0.1562  0.4724
   36CHL1  H27C 3844   0.725   1.297   4.690 -0.3969  1.5374 -0.6106
   37CHL1    C3 3845   3.981   4.294   5.998 -0.2328  0.3324 -0.0234
   37CHL1    H3 3846   3.870   4.296   6.006 -0.1798  0.0539  0.8718
   37CHL1    O3 3847   4.026   4.283   6.135  0.7337  0.0369  0.2502
   37CHL1   H3' 3848   4.038   4.188   6.144 -1.1625 -0.1977  0.8009
   37CHL1    C4 3849   4.021   4.166   5.919  0.7721 -0.0703 -0.7901
   37CHL1   H4A 3850   4.127   4.139   5.935  0.0586 -1.8522  1.4143
   37CHL1   H4B 3851   3.963   4.082   5.962  1.1940  0.1731  0.2880
   37CHL1    C5 3852   3.990   4.179   5.770 -0.7440  0.1936 -0.4260
   37CHL1    C6 3853   3.937   4.074   5.701  0.3527 -0.0696 -0.1774
   37CHL1    H6 3854   3.903   3.990   5.763 -0.4313 -0.2725 -0.8693
   37CHL1    C7 3855   3.938   4.067   5.556 -0.3021 -0.0490  0.1266
   37CHL1   H7A 3856   3.978   3.971   5.519  1.0251 -0.4624  2.3765
   37CHL1   H7B 3857   3.835   4.087   5.521  0.0953  0.7001 -0.6574
   37CHL1    C8 3858   4.027   4.176   5.482  0.5279 -0.3244 -0.1926
   37CHL1    H8 3859   4.130   4.134   5.495  0.4785 -0.1292  0.9444
   37CHL1   C14 3860   3.973   4.190   5.342 -1.0564  0.2347  0.4393
   37CHL1   H14 3861   3.885   4.257   5.352  0.3571  2.1446  0.5514
   37CHL1   C15 3862   3.913   4.074   5.250 -0.5735 -0.1576 -1.0003
   37CHL1  H15A 3863   3.985   3.990   5.263  0.3780  0.8284  0.4089
   37CHL1  H15B 3864   3.811   4.039   5.278  0.2041 -2.1827 -0.4959
   37CHL1   C16 3865   3.934   4.131   5.108  0.3495 -0.4230  0.3198
   37CHL1  H16A 3866   3.991   4.064   5.040 -1.5801 -1.3249 -0.4929
   37CHL1  H16B 3867   3.831   4.144   5.068 -0.1694 -1.6840  1.1669
   37CHL1   C17 3868   4.001   4.270   5.114  0.0184  0.2742 -0.0209
   37CHL1   H17 3869   3.924   4.350   5.127 -1.6851 -0.7499 -2.9068
   37CHL1   C13 3870   4.075   4.272   5.250  0.0861  0.6090  0.3773
   37CHL1   C18 3871   4.205   4.189   5.236 -0.0373 -0.0284 -0.1070
   37CHL1  H18A 3872   4.260   4.203   5.332 -2.8004 -0.1067  1.5763
   37CHL1  H18B 3873   4.192   4.080   5.221  1.8734 -0.3146  0.0521
   37CHL1  H18C 3874   4.273   4.223   5.155  1.2427 -1.9656  0.0754
   37CHL1   C12 3875   4.094   4.414   5.316 -0.2048 -0.6392 -0.4061
   37CHL1  H12A 3876   4.163   4.485   5.265 -0.0363  0.4308  1.2158
   37CHL1  H12B 3877   3.989   4.451   5.310  0.6189  2.7721  2.4150
   37CHL1   C11 3878   4.124   4.413   5.470 -0.2245  0.2835  0.1185
   37CHL1  H11A 3879   4.228   4.375   5.465 -0.6842 -0.8726 -2.1301
   37CHL1  H11B 3880   4.137   4.512   5.519  0.6985  0.3313 -0.2063
   37CHL1    C9 3881   4.028   4.314   5.543  0.2091  0.3462 -0.5761
   37CHL1    H9 3882   3.926   4.358   5.537  0.9182  2.0437 -0.8240
   37CHL1   C10 3883   4.052   4.305   5.701 -0.4397 -0.8097 -0.5373
   37CHL1   C19 3884   4.208   4.301   5.708  0.2324  0.3533  0.1324
   37CHL1  H19A 3885   4.256   4.229   5.638 -1.2073  0.4521 -1.0154
   37CHL1  H19B 3886   4.246   4.402   5.682  0.9800  0.1336  0.3449
   37CHL1  H19C 3887   4.250   4.283   5.809 -1.0289  1.3917  0.8678
   37CHL1    C1 3888   3.996   4.433   5.782 -0.2996  0.5313 -0.0713
   37CHL1   H1A 3889   4.043   4.528   5.747 -1.6448  1.3250  0.1780
   37CHL1   H1B 3890   3.886   4.450   5.784 -0.0720  2.1999 -0.0161
   37CHL1    C2 3891   4.027   4.430   5.932 -0.0721  0.3151  0.0698
   37CHL1   H2A 3892   3.977   4.514   5.985 -0.0291 -0.4264  1.3192
   37CHL1   H2B 3893   4.138   4.437   5.940 -0.2296  2.6797  0.9825
   37CHL1   C20 3894   4.078   4.301   4.984  0.1772  0.1478 -0.2031
   37CHL1   H20 3895   4.161   4.229   4.972 -0.1674 -0.1684 -0.7449
   37CHL1   C21 3896   4.139   4.443   4.982 -0.5142 -0.6236  0.0146
   37CHL1  H21A 3897   4.183   4.450   4.880  3.2013  2.8096  1.5617
   37CHL1  H21B 3898   4.224   4.464   5.051 -1.9575  3.3104  0.8777
   37CHL1  H21C 3899   4.068   4.527   4.996 -1.4604 -1.3904 -0.1389
   37CHL1   C22 3900   3.999   4.281   4.850  0.3438 -0.8005 -0.5527
   37CHL1  H22A 3901   4.070   4.278   4.765  0.8486  0.3704 -0.1840
   37CHL1  H22B 3902   3.958   4.178   4.863  2.2310 -1.4516  0.5667
   37CHL1   C23 3903   3.888   4.380   4.824  0.4153  0.0745 -0.3927
   37CHL1  H23A 3904   3.838   4.408   4.919  1.4269 -1.3047  0.5950
   37CHL1  H23B 3905   3.933   4.464   4.768 -0.5151  0.6558 -0.2820
   37CHL1   C24 3906   3.776   4.333   4.720 -0.2600 -0.3305  0.0639
   37CHL1  H24A 3907   3.733   4.241   4.765 -0.9272 -0.3081 -0.5101
   37CHL1  H24B 3908   3.696   4.410   4.712 -1.0297 -1.0917  0.3191
   37CHL1   C25 3909   3.836   4.306   4.583  0.4693  0.1558  0.1632
   37CHL1   H25 3910   3.932   4.250   4.590  1.8261  2.4791  1.0648
   37CHL1   C26 3911   3.725   4.218   4.518  0.3598  0.2068 -0.0408
   37CHL1  H26A 3912   3.626   4.259   4.546  0.6674 -0.3425  2.0067
   37CHL1  H26B 3913   3.742   4.215   4.408  0.0084  1.1925 -0.1341
   37CHL1  H26C 3914   3.743   4.116   4.559  1.0844  0.4436  0.2317
   37CHL1   C27 3915   3.862   4.433   4.501  0.6821 -1.0025  0.2711
   37CHL1  H27A 3916   3.943   4.487   4.556  0.7695 -1.1221  0.2587
   37CHL1  H27B 3917   3.902   4.427   4.398  0.3645 -1.3277  0.1676
   37CHL1  H27C 3918   3.773   4.496   4.480  0.6958 -0.9774  0.2865
   38CHL1    C3 3919   4.247   5.797   6.417 -0.4922 -0.0475  0.6841
   38CHL1    H3 3920   4.358   5.807   6.413 -0.4362 -0.5148  1.1119
   38CHL1    O3 3921   4.215   5.781   6.556 -0.3819  0.0025 -0.0744
   38CHL1   H3' 3922   4.132   5.829   6.568  0.3658  0.9528  1.5411
   38CHL1    C4 3923   4.203   5.938   6.372  0.9128  0.1375  0.1824
   38CHL1   H4A 3924   4.100   5.957   6.410  0.6376 -1.2584  0.1888
   38CHL1   H4B 3925   4.264   6.000   6.442 -0.2151  1.5700 -0.0559
   38CHL1    C5 3926   4.236   5.948   6.220  0.1208  0.7109  0.7554
   38CHL1    C6 3927   4.299   6.049   6.163 -0.6484 -0.1316 -0.6724
   38CHL1    H6 3928   4.329   6.133   6.228 -2.0458 -1.7980  2.2961
   38CHL1    C7 3929   4.318   6.067   6.013  0.3410 -0.8461 -0.2046
   38CHL1   H7A 3930   4.288   6.171   5.985 -0.1707 -1.5416 -2.4219
   38CHL1   H7B 3931   4.419   6.043   5.974 -0.3909  0.7897 -3.4991
   38CHL1    C8 3932   4.221   5.984   5.927 -0.2690  0.1598 -0.4980
   38CHL1    H8 3933   4.124   6.033   5.948 -0.0458  0.5455 -0.3615
   38CHL1   C14 3934   4.271   5.986   5.782  0.3462  0.7390  0.1194
   38CHL1   H14 3935   4.369   5.936   5.794  0.1256  0.6330  1.8074
   38CHL1   C15 3936   4.309   6.123   5.717  1.0806  0.2086  0.4264
   38CHL1  H15A 3937   4.243   6.209   5.743  1.8613  0.9327  0.0675
   38CHL1  H15B 3938   4.414   6.138   5.748  0.4845 -0.6371  3.0821
   38CHL1   C16 3939   4.298   6.089   5.567 -0.2582 -0.5838  0.3965
   38CHL1  H16A 3940   4.208   6.140   5.525  0.2371 -0.3648 -0.4288
   38CHL1  H16B 3941   4.391   6.125   5.519 -0.4100  2.3787  2.1048
   38CHL1   C17 3942   4.262   5.937   5.561 -0.7636  0.4671  0.5801
   38CHL1   H17 3943   4.365   5.894   5.565 -1.0401 -0.1861  0.7999
   38CHL1   C13 3944   4.185   5.913   5.688 -0.5412 -0.1713 -0.0328
   38CHL1   C18 3945   4.042   5.971   5.668 -0.1553  0.3158 -0.0334
   38CHL1  H18A 3946   4.033   6.081   5.656 -0.9162  0.5308  2.1078
   38CHL1  H18B 3947   3.987   5.920   5.586 -0.6700 -1.7733  1.5299
   38CHL1  H18C 3948   3.977   5.943   5.753 -0.8771 -2.0431 -1.2559
   38CHL1   C12 3949   4.174   5.767   5.741 -0.7075 -0.4592 -0.5823
   38CHL1  H12A 3950   4.094   5.716   5.683 -1.1763  0.2891 -0.6126
   38CHL1  H12B 3951   4.267   5.712   5.720  0.0072  0.6950 -0.5297
   38CHL1   C11 3952   4.132   5.754   5.889  0.9318  0.1363 -0.0771
   38CHL1  H11A 3953   4.026   5.788   5.882  1.2252  0.9463 -0.8447
   38CHL1  H11B 3954   4.143   5.649   5.922 -0.5018  0.2636  0.9114
   38CHL1    C9 3955   4.209   5.841   5.982 -0.6742  0.1331 -0.6003
   38CHL1    H9 3956   4.313   5.802   5.977 -0.6246  0.3052 -0.9338
   38CHL1   C10 3957   4.171   5.838   6.132 -0.1710  0.0169  0.2938
   38CHL1   C19 3958   4.017   5.868   6.142  0.6714  0.4457  0.6386
   38CHL1  H19A 3959   3.974   5.801   6.064  0.4622  2.0877 -0.7353
   38CHL1  H19B 3960   3.971   5.837   6.238 -3.6387 -0.4452 -1.4752
   38CHL1  H19C 3961   3.997   5.976   6.122  2.1778  0.9541  1.6871
   38CHL1    C1 3962   4.209   5.697   6.191  0.5129  0.0506 -0.2233
   38CHL1   H1A 3963   4.139   5.625   6.144 -1.6166  1.0058  1.3306
   38CHL1   H1B 3964   4.313   5.674   6.161  0.0123 -3.2862  0.2120
   38CHL1    C2 3965   4.188   5.682   6.340  0.4094 -0.2773 -0.2895
   38CHL1   H2A 3966   4.242   5.590   6.371 -0.9440 -0.5609  1.3950
   38CHL1   H2B 3967   4.081   5.659   6.362  0.7594 -1.5413  0.2303
   38CHL1   C20 3968   4.197   5.888   5.421 -0.5876 -0.2920  0.1937
   38CHL1   H20 3969   4.087   5.902   5.416 -0.7431 -1.0236  1.1753
   38CHL1   C21 3970   4.237   5.736   5.414 -0.5670 -0.0732  0.7928
   38CHL1  H21A 3971   4.173   5.681   5.486  0.2980 -3.0960 -0.6063
   38CHL1  H21B 3972   4.343   5.724   5.444 -0.1470 -0.5848 -0.8315
   38CHL1  H21C 3973   4.222   5.695   5.312  0.0760  0.2304  0.5749
   38CHL1   C22 3974   4.258   5.959   5.296  0.9319 -0.3830  0.6070
   38CHL1  H22A 3975   4.363   5.978   5.325  1.4629 -2.5392  0.3145
   38CHL1  H22B 3976   4.259   5.876   5.222  1.7948 -0.8330  1.1048
   38CHL1   C23 3977   4.160   6.076   5.252 -0.3823 -0.0069  0.2990
   38CHL1  H23A 3978   4.120   6.131   5.340  0.7459 -1.9148  2.0975
   38CHL1  H23B 3979   4.203   6.151   5.182 -1.4158  0.3480  0.0149
   38CHL1   C24 3980   4.037   6.014   5.181  0.2646 -0.3345 -0.2909
   38CHL1  H24A 3981   4.070   5.954   5.093  0.5007 -0.5247 -0.0727
   38CHL1  H24B 3982   3.971   5.957   5.250  1.1860  0.7509  1.5458
   38CHL1   C25 3983   3.938   6.123   5.123 -0.3989 -0.8564  0.5440
   38CHL1   H25 3984   3.994   6.168   5.039 -0.3169  0.4015  1.2490
   38CHL1   C26 3985   3.813   6.061   5.067  0.3566 -0.0332 -0.1947
   38CHL1  H26A 3986   3.764   6.006   5.150 -0.3762  0.3676 -0.3531
   38CHL1  H26B 3987   3.747   6.138   5.021 -2.7718 -3.1854 -1.4451
   38CHL1  H26C 3988   3.837   5.994   4.982 -2.0796  0.2107 -1.1544
   38CHL1   C27 3989   3.897   6.231   5.218 -0.5241  0.5728 -0.0821
   38CHL1  H27A 3990   3.838   6.304   5.158 -0.6712 -0.7275 -1.5739
   38CHL1  H27B 3991   3.834   6.182   5.294  1.1567  0.6256  1.4147
   38CHL1  H27C 3992   3.980   6.280   5.274  0.0326  1.5615 -1.6771
   39CHL1    C3 3993   4.909   5.872   6.367  0.1374  0.2665 -0.0675
   39CHL1    H3 3994   4.997   5.913   6.314 -0.1144  0.5687 -0.2504
   39CHL1    O3 3995   4.916   5.887   6.504  0.3387 -0.4360 -0.6595
   39CHL1   H3' 3996   4.832   5.847   6.528 -0.1360  0.0620 -1.4527
   39CHL1    C4 3997   4.776   5.928   6.321 -0.1028 -0.0367  0.2154
   39CHL1   H4A 3998   4.684   5.889   6.370  1.2766 -0.1265  2.9303
   39CHL1   H4B 3999   4.761   6.036   6.341  0.6140  0.2099 -0.5262
   39CHL1    C5 4000   4.765   5.915   6.170  0.2950 -0.1553 -0.0311
   39CHL1    C6 4001   4.748   6.023   6.092  0.3845  0.0199 -0.2440
   39CHL1    H6 4002   4.760   6.121   6.140  1.9452 -1.0586  1.7101
   39CHL1    C7 4003   4.712   6.015   5.947 -0.3046  0.4850 -0.1338
   39CHL1   H7A 4004   4.619   6.074   5.930  0.6821  2.2251  0.2847
   39CHL1   H7B 4005   4.786   6.070   5.885 -0.7715  0.1572 -1.0055
   39CHL1    C8 4006   4.696   5.871   5.890 -0.2199 -0.8030  0.2095
   39CHL1    H8 4007   4.587   5.856   5.904 -0.0844 -0.6574  1.5360
   39CHL1   C14 4008   4.736   5.870   5.745  0.5636  0.0539 -0.1522
   39CHL1   H14 4009   4.846   5.880   5.734  0.6949 -1.9194 -1.0797
   39CHL1   C15 4010   4.667   5.972   5.646 -0.4838  0.7997  0.0580
   39CHL1  H15A 4011   4.560   5.979   5.673 -0.6806 -0.8745 -0.2233
   39CHL1  H15B 4012   4.701   6.078   5.653 -2.7615  1.5849  0.0724
   39CHL1   C16 4013   4.675   5.910   5.502 -0.5558  0.3425  0.9977
   39CHL1  H16A 4014   4.574   5.909   5.455  0.7921 -1.3091 -2.1576
   39CHL1  H16B 4015   4.747   5.968   5.440  2.4993 -1.1322  2.8960
   39CHL1   C17 4016   4.724   5.764   5.520 -0.3004  0.7057 -0.5708
   39CHL1   H17 4017   4.833   5.761   5.500 -0.1458  0.8225  0.1881
   39CHL1   C13 4018   4.710   5.735   5.679  0.4252  0.8341  0.0240
   39CHL1   C18 4019   4.570   5.686   5.697  0.1417 -0.0195  0.0473
   39CHL1  H18A 4020   4.488   5.746   5.652  0.2522 -0.3188 -0.5508
   39CHL1  H18B 4021   4.549   5.583   5.663 -1.3221 -0.7116  2.7148
   39CHL1  H18C 4022   4.543   5.694   5.805  1.5403  2.2123  0.2954
   39CHL1   C12 4023   4.807   5.635   5.744  0.1897  0.1117 -0.0990
   39CHL1  H12A 4024   4.802   5.537   5.692  1.2296  0.5114 -0.9966
   39CHL1  H12B 4025   4.910   5.672   5.723  0.5836 -0.4046  0.8631
   39CHL1   C11 4026   4.787   5.624   5.893  0.0826  0.4224  0.2101
   39CHL1  H11A 4027   4.698   5.558   5.904  0.6288  0.1102  4.0761
   39CHL1  H11B 4028   4.864   5.554   5.931 -2.5918 -3.1433 -0.3206
   39CHL1    C9 4029   4.788   5.771   5.959  0.1940  0.5894 -0.0718
   39CHL1    H9 4030   4.889   5.810   5.937 -0.2871  2.1807  0.3699
   39CHL1   C10 4031   4.764   5.772   6.113  0.0640  0.5224 -0.3357
   39CHL1   C19 4032   4.632   5.714   6.147 -0.5990 -0.1332  0.2503
   39CHL1  H19A 4033   4.611   5.617   6.098  0.9599 -0.2528 -0.2344
   39CHL1  H19B 4034   4.624   5.708   6.258 -1.6835 -0.4031  0.1658
   39CHL1  H19C 4035   4.551   5.785   6.120  0.2873  0.5164 -0.8016
   39CHL1    C1 4036   4.880   5.701   6.186  0.5014  0.4709  0.6711
   39CHL1   H1A 4037   4.866   5.593   6.163 -0.9085  0.4820  1.3699
   39CHL1   H1B 4038   4.974   5.736   6.139  0.0461  0.5778 -0.1799
   39CHL1    C2 4039   4.894   5.725   6.337  0.5273  0.4306  0.3497
   39CHL1   H2A 4040   4.981   5.665   6.371 -0.3740  0.4326  2.8732
   39CHL1   H2B 4041   4.806   5.675   6.385  1.1384 -1.3509 -0.3285
   39CHL1   C20 4042   4.665   5.668   5.415 -0.8166  0.0213 -0.6132
   39CHL1   H20 4043   4.560   5.646   5.441 -0.6489 -0.7008 -0.5349
   39CHL1   C21 4044   4.741   5.530   5.422  0.5856  0.2661 -0.0141
   39CHL1  H21A 4045   4.696   5.473   5.338 -1.4073  1.2305  0.3284
   39CHL1  H21B 4046   4.732   5.472   5.516 -0.3750  0.6913  0.1762
   39CHL1  H21C 4047   4.848   5.544   5.396  0.2761  1.4328 -0.7553
   39CHL1   C22 4048   4.657   5.723   5.272 -0.7752 -0.0047 -0.3716
   39CHL1  H22A 4049   4.592   5.813   5.269 -2.8580 -1.4630 -0.5892
   39CHL1  H22B 4050   4.759   5.750   5.238 -0.0562  0.0227  1.6602
   39CHL1   C23 4051   4.591   5.623   5.168 -0.2726 -0.3625 -0.0786
   39CHL1  H23A 4052   4.648   5.528   5.160 -0.8979 -1.0314  2.5078
   39CHL1  H23B 4053   4.486   5.602   5.200 -0.1111 -2.3245 -0.6913
   39CHL1   C24 4054   4.587   5.696   5.033  0.3922  0.9867  0.2462
   39CHL1  H24A 4055   4.537   5.795   5.032  0.2466  0.9132 -0.2574
   39CHL1  H24B 4056   4.692   5.715   5.002 -0.3962  3.0038 -1.4106
   39CHL1   C25 4057   4.505   5.613   4.933  0.6031  0.4754  0.7118
   39CHL1   H25 4058   4.526   5.662   4.836 -2.5793  0.1290 -0.2658
   39CHL1   C26 4059   4.533   5.462   4.925 -0.3786  0.1651  0.1503
   39CHL1  H26A 4060   4.643   5.445   4.913  0.0682  1.9653  1.3704
   39CHL1  H26B 4061   4.486   5.415   5.014 -0.8354 -0.7715 -0.5712
   39CHL1  H26C 4062   4.486   5.420   4.833 -2.5269  2.2078  0.2333
   39CHL1   C27 4063   4.353   5.629   4.958  0.1324 -0.3552  0.0402
   39CHL1  H27A 4064   4.321   5.558   5.036 -2.1377  0.0661 -0.4342
   39CHL1  H27B 4065   4.325   5.734   4.984  1.0696 -0.4196  1.4129
   39CHL1  H27C 4066   4.292   5.607   4.868 -1.2467  2.9108  0.0299
   40CHL1    C3 4067   3.931   2.375   5.969  0.5274  0.6184  0.0835
   40CHL1    H3 4068   3.825   2.373   6.003  0.3345  1.4289 -0.4622
   40CHL1    O3 4069   4.012   2.410   6.084  0.0325 -0.4374 -0.6040
   40CHL1   H3' 4070   3.973   2.489   6.121 -0.5434 -0.7208 -0.5895
   40CHL1    C4 4071   3.976   2.233   5.929  0.1837 -0.0140 -0.0658
   40CHL1   H4A 4072   4.086   2.249   5.922  0.7828 -2.8750  1.2931
   40CHL1   H4B 4073   3.956   2.165   6.015 -1.0481  1.9739  1.2995
   40CHL1    C5 4074   3.905   2.200   5.796  0.4614  0.2540  0.1646
   40CHL1    C6 4075   3.825   2.087   5.788 -0.1859  0.5250 -0.8129
   40CHL1    H6 4076   3.823   2.013   5.870  0.0941 -1.2471 -2.3380
   40CHL1    C7 4077   3.757   2.043   5.662  0.3263 -0.9809 -0.1208
   40CHL1   H7A 4078   3.759   1.932   5.654 -1.4448 -1.0961  0.6684
   40CHL1   H7B 4079   3.650   2.068   5.646 -0.0903 -2.0814  0.8009
   40CHL1    C8 4080   3.824   2.111   5.541  0.3882 -1.4594 -0.3580
   40CHL1    H8 4081   3.929   2.076   5.545  1.4293  1.4480  0.0835
   40CHL1   C14 4082   3.754   2.085   5.415  0.1430  0.2208  0.2326
   40CHL1   H14 4083   3.651   2.120   5.438  0.5362  1.3554  0.3456
   40CHL1   C15 4084   3.733   1.943   5.372 -0.6207  0.4966  0.1458
   40CHL1  H15A 4085   3.822   1.883   5.400 -0.1111  1.6426  1.0808
   40CHL1  H15B 4086   3.642   1.913   5.429 -0.5799  1.8389  0.9686
   40CHL1   C16 4087   3.702   1.943   5.218  0.2672 -0.8581 -0.2017
   40CHL1  H16A 4088   3.781   1.878   5.175  2.2186  1.0439  0.3170
   40CHL1  H16B 4089   3.601   1.897   5.207  2.1533 -5.8528  0.5782
   40CHL1   C17 4090   3.712   2.094   5.170 -0.3773  0.1332 -0.1200
   40CHL1   H17 4091   3.608   2.131   5.172 -1.2252 -1.8828 -2.1854
   40CHL1   C13 4092   3.797   2.164   5.284  0.0404  0.2452  0.8511
   40CHL1   C18 4093   3.945   2.116   5.253 -0.3377 -0.0491 -0.6169
   40CHL1  H18A 4094   3.970   2.162   5.155 -2.0776 -0.3076 -1.2079
   40CHL1  H18B 4095   4.017   2.150   5.331 -0.7186  2.9983 -1.4354
   40CHL1  H18C 4096   3.952   2.007   5.234  0.7686  0.0597 -0.9121
   40CHL1   C12 4097   3.793   2.318   5.306 -0.0564  0.3239  0.7390
   40CHL1  H12A 4098   3.841   2.368   5.219 -0.6573  0.3327  0.4123
   40CHL1  H12B 4099   3.689   2.353   5.325  0.0553  0.4200  1.1679
   40CHL1   C11 4100   3.872   2.359   5.435 -1.0698  0.5506 -0.3294
   40CHL1  H11A 4101   3.979   2.346   5.407 -1.4386 -1.7004 -0.8540
   40CHL1  H11B 4102   3.857   2.469   5.447  0.5670  0.6896  0.8324
   40CHL1    C9 4103   3.833   2.265   5.565  0.0324  0.1269  0.4549
   40CHL1    H9 4104   3.733   2.301   5.598 -0.3779  1.0926 -1.6559
   40CHL1   C10 4105   3.922   2.295   5.684 -0.5380 -0.2962 -0.0221
   40CHL1   C19 4106   4.072   2.283   5.638 -0.0647  0.2103 -0.5471
   40CHL1  H19A 4107   4.138   2.307   5.725 -0.0010  0.6492 -0.7169
   40CHL1  H19B 4108   4.098   2.188   5.587 -2.9964 -0.7090 -0.4629
   40CHL1  H19C 4109   4.085   2.363   5.563 -3.7060  0.9893 -0.5250
   40CHL1    C1 4110   3.889   2.441   5.724  0.4478  0.8648 -0.3623
   40CHL1   H1A 4111   3.931   2.514   5.651  0.5168  1.4664  0.2690
   40CHL1   H1B 4112   3.779   2.451   5.737  0.3266 -1.5281  0.9890
   40CHL1    C2 4113   3.952   2.481   5.865 -0.2780 -0.1492 -0.5123
   40CHL1   H2A 4114   3.926   2.580   5.907  0.2181 -0.6668  1.1167
   40CHL1   H2B 4115   4.058   2.507   5.846 -1.0003  3.8506  0.0929
   40CHL1   C20 4116   3.747   2.102   5.019 -0.2384  0.1130 -0.3644
   40CHL1   H20 4117   3.845   2.050   5.006 -0.0228  0.1100  1.0722
   40CHL1   C21 4118   3.783   2.251   4.974 -0.3303  0.2143 -0.2938
   40CHL1  H21A 4119   3.872   2.297   5.023  1.2528 -2.0437 -0.9011
   40CHL1  H21B 4120   3.688   2.303   4.996  1.0880  2.5775  0.7471
   40CHL1  H21C 4121   3.815   2.239   4.868 -0.1897 -0.2424 -0.2006
   40CHL1   C22 4122   3.648   2.020   4.931  0.7026  0.6307 -0.0460
   40CHL1  H22A 4123   3.651   1.910   4.946  0.5010  0.1817 -2.8316
   40CHL1  H22B 4124   3.543   2.053   4.947  0.9209  0.2295  2.7564
   40CHL1   C23 4125   3.671   2.038   4.780 -0.3011  0.3532  0.2316
   40CHL1  H23A 4126   3.669   2.147   4.757  0.5587  0.2322 -0.4929
   40CHL1  H23B 4127   3.772   2.005   4.748 -0.6204  0.7938 -1.3117
   40CHL1   C24 4128   3.567   1.953   4.698 -0.3483  0.2704  0.3442
   40CHL1  H24A 4129   3.568   1.848   4.735  0.7204  0.3832  0.6726
   40CHL1  H24B 4130   3.464   1.980   4.729 -0.1958 -0.3346  1.4311
   40CHL1   C25 4131   3.596   1.955   4.544  0.1291  0.1575 -0.2715
   40CHL1   H25 4132   3.697   1.910   4.528 -0.3622 -0.9256 -0.4500
   40CHL1   C26 4133   3.488   1.868   4.470 -0.7428  0.8232 -0.3647
   40CHL1  H26A 4134   3.493   1.765   4.511  1.6537  0.8964 -0.3430
   40CHL1  H26B 4135   3.382   1.903   4.474 -0.3225  2.7473 -3.0731
   40CHL1  H26C 4136   3.520   1.878   4.364  0.2215 -0.6137 -0.2426
   40CHL1   C27 4137   3.592   2.098   4.490 -0.0162 -0.3318 -0.0614
   40CHL1  H27A 4138   3.677   2.153   4.535  0.7539 -0.9777 -0.6847
   40CHL1  H27B 4139   3.599   2.088   4.379  0.6522 -2.8770  0.1328
   40CHL1  H27C 4140   3.497   2.149   4.516 -1.4335 -1.6310 -2.2743
   41CHL1    C3 4141   0.827   3.503   6.292  0.2802  0.3757 -0.7568
   41CHL1    H3 4142   0.844   3.407   6.239  1.5295  0.4548 -0.5296
   41CHL1    O3 4143   0.845   3.476   6.427 -0.1340  0.0522 -0.4378
   41CHL1   H3' 4144   0.940   3.467   6.438 -0.0082  0.8413 -0.8177
   41CHL1    C4 4145   0.931   3.605   6.240 -0.2512 -1.3931  0.7967
   41CHL1   H4A 4146   0.913   3.692   6.307 -0.7845 -0.2480 -0.7869
   41CHL1   H4B 4147   1.031   3.561   6.259 -0.1299 -2.5025 -1.9930
   41CHL1    C5 4148   0.904   3.662   6.095  0.0251 -0.8111 -0.1919
   41CHL1    C6 4149   1.006   3.652   6.014  0.2005 -0.3193  0.4874
   41CHL1    H6 4150   1.106   3.621   6.048  0.9463  2.0395  0.6230
   41CHL1    C7 4151   0.997   3.697   5.869  0.7844 -0.3429 -0.2279
   41CHL1   H7A 4152   1.080   3.764   5.840  1.6304 -0.1007  2.4497
   41CHL1   H7B 4153   1.002   3.606   5.805 -0.4511  0.2531 -1.2206
   41CHL1    C8 4154   0.868   3.778   5.842  0.8123  0.6460 -0.9720
   41CHL1    H8 4155   0.864   3.883   5.877 -1.1591 -0.0646  1.1440
   41CHL1   C14 4156   0.843   3.768   5.690 -0.1019  0.3170  0.0932
   41CHL1   H14 4157   0.839   3.662   5.659  0.9634  0.0155  0.9158
   41CHL1   C15 4158   0.958   3.828   5.602 -0.0818 -0.1748  0.1755
   41CHL1  H15A 4159   0.998   3.926   5.637  1.6205 -1.0079  0.6545
   41CHL1  H15B 4160   1.050   3.765   5.605  0.1876  0.1802 -0.3136
   41CHL1   C16 4161   0.889   3.839   5.461  0.3844  0.2161 -0.2131
   41CHL1  H16A 4162   0.915   3.941   5.429  1.0045 -0.0643 -0.6148
   41CHL1  H16B 4163   0.936   3.767   5.390  0.8897  1.4366 -1.1439
   41CHL1   C17 4164   0.734   3.807   5.485 -0.6298  0.7290  0.0918
   41CHL1   H17 4165   0.728   3.698   5.462  0.6501  0.1181  2.3583
   41CHL1   C13 4166   0.718   3.830   5.637  0.0374 -0.6644  0.0149
   41CHL1   C18 4167   0.714   3.980   5.658  0.3106 -0.2062 -0.3941
   41CHL1  H18A 4168   0.728   4.007   5.764 -0.0455  2.1354 -0.8998
   41CHL1  H18B 4169   0.787   4.042   5.601 -1.2464  2.4186  0.3196
   41CHL1  H18C 4170   0.614   4.024   5.639  0.6307  2.5289  3.2610
   41CHL1   C12 4171   0.607   3.753   5.706 -0.1915 -0.9896 -1.0302
   41CHL1  H12A 4172   0.511   3.808   5.692 -1.2250 -2.4341  0.0618
   41CHL1  H12B 4173   0.602   3.649   5.669  0.7177 -1.4501  0.0827
   41CHL1   C11 4174   0.618   3.765   5.859  0.4042 -0.3540 -0.5187
   41CHL1  H11A 4175   0.616   3.873   5.884  1.3013 -0.5900  0.6760
   41CHL1  H11B 4176   0.537   3.718   5.919  0.3687 -0.8451 -0.9388
   41CHL1    C9 4177   0.752   3.712   5.915 -0.1892  0.3689 -0.0378
   41CHL1    H9 4178   0.745   3.607   5.879  1.2854  1.3143 -3.5202
   41CHL1   C10 4179   0.761   3.704   6.069  0.2613 -0.1634  0.3714
   41CHL1   C19 4180   0.729   3.842   6.131 -0.5384  0.6243 -0.3539
   41CHL1  H19A 4181   0.803   3.920   6.103 -0.8180  0.6418 -1.0609
   41CHL1  H19B 4182   0.628   3.880   6.106 -0.7297  0.4538  0.1550
   41CHL1  H19C 4183   0.739   3.838   6.241  1.1372  2.3244 -0.3909
   41CHL1    C1 4184   0.662   3.603   6.124  0.8279 -0.0043 -0.4889
   41CHL1   H1A 4185   0.559   3.641   6.105  1.2011  1.6581  0.6357
   41CHL1   H1B 4186   0.678   3.517   6.056  0.4827  0.2010 -0.8338
   41CHL1    C2 4187   0.683   3.547   6.266 -0.1173  0.3315  0.3138
   41CHL1   H2A 4188   0.617   3.462   6.295 -1.8601  1.5191 -0.0804
   41CHL1   H2B 4189   0.661   3.627   6.340 -0.9831  1.8830 -1.5509
   41CHL1   C20 4190   0.657   3.889   5.379  0.3090 -0.7083  0.3756
   41CHL1   H20 4191   0.679   3.993   5.408  2.2495 -1.5852  2.3150
   41CHL1   C21 4192   0.504   3.847   5.382 -0.6281  0.3071  0.9244
   41CHL1  H21A 4193   0.452   3.911   5.308 -1.7464 -1.7103 -0.1157
   41CHL1  H21B 4194   0.463   3.865   5.484 -3.8470 -2.3523  0.2925
   41CHL1  H21C 4195   0.500   3.739   5.357 -0.3051  0.0471  1.9183
   41CHL1   C22 4196   0.723   3.888   5.237  1.1892  0.1606  0.1125
   41CHL1  H22A 4197   0.826   3.928   5.234  2.5036 -2.7807  1.9654
   41CHL1  H22B 4198   0.734   3.783   5.202  3.3913  0.4844 -0.2963
   41CHL1   C23 4199   0.631   3.957   5.133 -0.1138 -0.3732  0.1282
   41CHL1  H23A 4200   0.526   3.920   5.130 -0.5900  0.4229  3.3347
   41CHL1  H23B 4201   0.624   4.068   5.141 -3.8922 -0.2891 -1.8532
   41CHL1   C24 4202   0.688   3.920   5.002  0.4027  0.1085  0.2081
   41CHL1  H24A 4203   0.795   3.952   5.005  0.2297  0.6507  2.4360
   41CHL1  H24B 4204   0.675   3.814   4.974  2.9734 -0.2849  0.2632
   41CHL1   C25 4205   0.627   3.994   4.876  0.5765  0.0352  0.6728
   41CHL1   H25 4206   0.617   4.104   4.891  0.4274  0.0775  0.2691
   41CHL1   C26 4207   0.710   3.974   4.749  0.2161  0.2608  0.2779
   41CHL1  H26A 4208   0.662   4.024   4.662 -2.8129  0.0523  1.7019
   41CHL1  H26B 4209   0.807   4.023   4.772  0.9444 -0.7143 -0.6374
   41CHL1  H26C 4210   0.744   3.869   4.733 -0.2495 -0.1724  2.0034
   41CHL1   C27 4211   0.481   3.943   4.848  0.8030  0.3068  0.0389
   41CHL1  H27A 4212   0.436   3.987   4.757  0.8790  0.4608  0.0748
   41CHL1  H27B 4213   0.478   3.833   4.854  1.9545  0.2593 -0.0780
   41CHL1  H27C 4214   0.420   3.978   4.935  0.7651 -2.6520  1.3109
   42CHL1    C3 4215   5.219   3.426   6.187  0.3265 -0.2766 -0.0299
   42CHL1    H3 4216   5.146   3.496   6.140 -2.6970 -3.8894 -1.2105
   42CHL1    O3 4217   5.166   3.363   6.299 -0.4255 -0.1717 -0.0667
   42CHL1   H3' 4218   5.098   3.313   6.254 -2.2429  2.1052 -0.0127
   42CHL1    C4 4219   5.230   3.317   6.079  0.4786 -0.7561 -0.5288
   42CHL1   H4A 4220   5.301   3.235   6.104 -2.1012 -2.8621  0.4390
   42CHL1   H4B 4221   5.129   3.272   6.066  0.9060 -2.0724  0.4673
   42CHL1    C5 4222   5.280   3.370   5.947  0.3377 -0.1362  0.3387
   42CHL1    C6 4223   5.205   3.354   5.831  0.1028 -0.4854  0.4758
   42CHL1    H6 4224   5.107   3.304   5.830 -0.4006  0.4552 -1.5170
   42CHL1    C7 4225   5.255   3.400   5.694  0.2512  0.3136  1.1115
   42CHL1   H7A 4226   5.234   3.325   5.614 -1.2430  2.3236 -0.4781
   42CHL1   H7B 4227   5.205   3.496   5.669 -1.1714 -0.5000  0.7262
   42CHL1    C8 4228   5.405   3.431   5.695  0.6190 -0.1823 -0.7047
   42CHL1    H8 4229   5.450   3.329   5.692  1.8017  0.3258 -0.8273
   42CHL1   C14 4230   5.440   3.503   5.569  0.3684  0.3108  0.4737
   42CHL1   H14 4231   5.384   3.599   5.572 -0.7159 -0.3108  0.8461
   42CHL1   C15 4232   5.385   3.445   5.437  0.5689 -0.6126  0.0369
   42CHL1  H15A 4233   5.407   3.338   5.415  1.8366 -0.1332 -1.1556
   42CHL1  H15B 4234   5.282   3.468   5.403  0.3570  0.8725  1.5713
   42CHL1   C16 4235   5.471   3.512   5.327 -0.2651  0.6055 -1.1640
   42CHL1  H16A 4236   5.507   3.442   5.248 -1.3340  2.4751 -3.4187
   42CHL1  H16B 4237   5.407   3.583   5.271 -1.7668  0.9488  0.8628
   42CHL1   C17 4238   5.586   3.597   5.399 -0.6274 -0.3576 -0.8517
   42CHL1   H17 4239   5.542   3.698   5.408  3.6200  1.5279  1.7156
   42CHL1   C13 4240   5.583   3.543   5.546  0.0337  0.3366  0.7872
   42CHL1   C18 4241   5.665   3.409   5.536  0.6910  0.4122  0.3428
   42CHL1  H18A 4242   5.635   3.344   5.451 -0.0941  0.3600  0.6501
   42CHL1  H18B 4243   5.775   3.423   5.545  0.7925 -1.2833  2.3684
   42CHL1  H18C 4244   5.644   3.345   5.624 -0.9645  2.8158  1.7911
   42CHL1   C12 4245   5.629   3.632   5.661  0.5078 -0.0607 -1.2938
   42CHL1  H12A 4246   5.735   3.664   5.668  0.5840 -0.2924 -1.4036
   42CHL1  H12B 4247   5.568   3.724   5.649  1.0473  1.1925  3.5514
   42CHL1   C11 4248   5.592   3.568   5.798 -0.5173 -0.1866 -0.1687
   42CHL1  H11A 4249   5.667   3.486   5.801 -0.2876 -0.1212 -2.3381
   42CHL1  H11B 4250   5.609   3.636   5.884 -2.0442  1.0620 -0.8032
   42CHL1    C9 4251   5.450   3.517   5.820  0.4916  0.3139 -0.4403
   42CHL1    H9 4252   5.380   3.603   5.820 -1.6082 -1.2478  1.8532
   42CHL1   C10 4253   5.420   3.446   5.959  0.1226 -0.2611 -0.3752
   42CHL1   C19 4254   5.533   3.338   5.983  0.0023  0.4113 -0.9963
   42CHL1  H19A 4255   5.524   3.284   6.080  0.2187 -0.0313 -1.2179
   42CHL1  H19B 4256   5.535   3.262   5.903 -2.2025 -0.4765 -0.2617
   42CHL1  H19C 4257   5.636   3.380   5.981  1.2294 -2.3599 -1.0851
   42CHL1    C1 4258   5.406   3.547   6.079 -0.5310 -0.2194 -0.4814
   42CHL1   H1A 4259   5.500   3.602   6.100 -0.6731  0.1102 -0.7052
   42CHL1   H1B 4260   5.330   3.620   6.043 -1.7554 -1.4103 -0.3849
   42CHL1    C2 4261   5.347   3.496   6.216  0.2854 -0.3939 -0.0990
   42CHL1   H2A 4262   5.340   3.580   6.289 -1.7078 -0.5191 -0.0893
   42CHL1   H2B 4263   5.416   3.415   6.247 -1.2371 -1.8703 -0.4395
   42CHL1   C20 4264   5.714   3.612   5.316  0.3238 -0.2046  0.3149
   42CHL1   H20 4265   5.777   3.522   5.327  1.2516  0.5906  2.0714
   42CHL1   C21 4266   5.791   3.733   5.377 -0.7011  0.0960  0.0688
   42CHL1  H21A 4267   5.733   3.825   5.356  1.2267  0.9562 -1.9247
   42CHL1  H21B 4268   5.894   3.738   5.335 -0.0191 -2.3085  1.2543
   42CHL1  H21C 4269   5.802   3.733   5.487 -0.8815 -2.4729  0.1493
   42CHL1   C22 4270   5.691   3.649   5.170  0.2019  0.3660  0.1653
   42CHL1  H22A 4271   5.620   3.577   5.125  0.7137  1.4951 -2.6979
   42CHL1  H22B 4272   5.643   3.749   5.156  0.1956  0.1171 -1.9707
   42CHL1   C23 4273   5.814   3.655   5.078  0.2416 -0.4248 -0.4216
   42CHL1  H23A 4274   5.795   3.707   4.982 -1.4298  0.1090  0.1567
   42CHL1  H23B 4275   5.880   3.728   5.131 -1.1557 -0.1495  1.0164
   42CHL1   C24 4276   5.873   3.523   5.071  0.2312  0.3086  0.3742
   42CHL1  H24A 4277   5.939   3.489   5.154  0.2053  1.5389  0.9334
   42CHL1  H24B 4278   5.786   3.456   5.058 -1.9195  3.0647 -0.5555
   42CHL1   C25 4279   5.952   3.512   4.937  0.1176  0.5674 -0.0938
   42CHL1   H25 4280   5.906   3.583   4.864 -1.9116 -1.5315 -0.9595
   42CHL1   C26 4281   6.091   3.545   4.975  0.3687 -0.7586 -0.8578
   42CHL1  H26A 4282   6.129   3.454   5.027 -2.6614 -2.1917 -0.9277
   42CHL1  H26B 4283   6.154   3.562   4.885  0.1720  0.7485 -0.7306
   42CHL1  H26C 4284   6.101   3.627   5.049  2.6335  0.9794 -2.9396
   42CHL1   C27 4285   5.945   3.375   4.870  0.2939 -0.0774 -0.2486
   42CHL1  H27A 4286   6.002   3.372   4.775 -0.3886 -4.0445 -0.7158
   42CHL1  H27B 4287   5.995   3.308   4.943  2.0196  1.0645 -0.3337
   42CHL1  H27C 4288   5.839   3.349   4.848  0.9107 -1.5151 -1.7322
   43CHL1    C3 4289   2.111   6.706   6.160  0.6371 -0.3083 -0.1270
   43CHL1    H3 4290   2.000   6.697   6.153  0.6896 -0.3885 -0.9289
   43CHL1    O3 4291   2.164   6.734   6.290 -0.4735  0.6833  0.0957
   43CHL1   H3' 4292   2.256   6.759   6.283 -0.8586  3.0811  2.0598
   43CHL1    C4 4293   2.166   6.578   6.107 -0.4168  0.0742  0.5258
   43CHL1   H4A 4294   2.277   6.576   6.111  0.0201  4.2463 -3.0024
   43CHL1   H4B 4295   2.117   6.509   6.180 -1.8881  0.7477  0.2182
   43CHL1    C5 4296   2.135   6.552   5.963  0.4398 -0.3521  0.5235
   43CHL1    C6 4297   2.070   6.442   5.931 -0.5843  0.2256  0.1253
   43CHL1    H6 4298   2.049   6.369   6.011 -0.4700 -1.1710 -1.0711
   43CHL1    C7 4299   2.029   6.406   5.789 -0.9105 -1.1511  0.6724
   43CHL1   H7A 4300   2.053   6.300   5.766 -3.1335 -1.0961 -2.5669
   43CHL1   H7B 4301   1.920   6.424   5.775 -0.6854 -0.3617 -0.1211
   43CHL1    C8 4302   2.109   6.490   5.688 -0.1407  0.7101  0.4221
   43CHL1    H8 4303   2.212   6.450   5.681 -0.4174  0.1855 -0.9711
   43CHL1   C14 4304   2.054   6.468   5.542  0.1586  0.4216 -0.6919
   43CHL1   H14 4305   1.949   6.504   5.545 -0.6073 -1.6749  0.1325
   43CHL1   C15 4306   2.050   6.320   5.491 -0.1758  0.3164  0.4072
   43CHL1  H15A 4307   2.146   6.269   5.515  0.6454  0.7708 -1.7378
   43CHL1  H15B 4308   1.960   6.272   5.536  0.2320 -0.2107  0.6697
   43CHL1   C16 4309   2.033   6.338   5.340  0.3643  0.3095 -0.0946
   43CHL1  H16A 4310   2.109   6.274   5.290 -0.2874 -1.1497  0.7015
   43CHL1  H16B 4311   1.934   6.299   5.306 -1.4972  1.5802  3.3891
   43CHL1   C17 4312   2.058   6.488   5.305  0.6331 -0.3529 -1.0465
   43CHL1   H17 4313   1.962   6.543   5.302  1.1312  0.5311 -1.0413
   43CHL1   C13 4314   2.123   6.554   5.431  0.0560 -0.4050  0.0933
   43CHL1   C18 4315   2.274   6.520   5.418 -0.3507 -0.1237 -0.2763
   43CHL1  H18A 4316   2.327   6.588   5.348  3.0450 -0.0563  2.0970
   43CHL1  H18B 4317   2.333   6.539   5.510  0.7111  1.6588 -1.2737
   43CHL1  H18C 4318   2.287   6.416   5.382 -2.9468 -0.3893 -0.6989
   43CHL1   C12 4319   2.105   6.705   5.464 -0.2630 -0.3547 -0.0534
   43CHL1  H12A 4320   2.160   6.774   5.397 -0.5268 -0.2348 -0.1480
   43CHL1  H12B 4321   1.997   6.732   5.465  0.0120  0.8130 -0.2605
   43CHL1   C11 4322   2.162   6.728   5.605  0.3841 -0.8306  1.0103
   43CHL1  H11A 4323   2.273   6.732   5.597  0.3765  1.1754  1.3445
   43CHL1  H11B 4324   2.132   6.832   5.629  0.0643 -0.7818  0.4060
   43CHL1    C9 4325   2.108   6.637   5.716 -0.0411 -0.5948 -0.3080
   43CHL1    H9 4326   2.007   6.683   5.721  0.8848  1.5274 -0.1208
   43CHL1   C10 4327   2.169   6.661   5.860 -0.0488 -0.7030 -0.6278
   43CHL1   C19 4328   2.326   6.658   5.849 -0.1677  0.0746  0.0142
   43CHL1  H19A 4329   2.354   6.749   5.791  1.0974 -0.4626 -0.2638
   43CHL1  H19B 4330   2.382   6.642   5.944 -0.2357  0.9818  0.2146
   43CHL1  H19C 4331   2.354   6.573   5.783 -0.7271 -0.3572  0.3293
   43CHL1    C1 4332   2.123   6.802   5.924  0.3735  0.0142 -0.3069
   43CHL1   H1A 4333   2.174   6.883   5.868  1.5234  0.4301  1.2544
   43CHL1   H1B 4334   2.014   6.814   5.907  0.5677  0.5050 -1.2284
   43CHL1    C2 4335   2.155   6.827   6.071  0.6842 -0.2296 -0.4757
   43CHL1   H2A 4336   2.110   6.925   6.098 -0.4538 -0.5721 -1.0642
   43CHL1   H2B 4337   2.265   6.837   6.088  0.6917 -1.7221  0.5396
   43CHL1   C20 4338   2.110   6.524   5.163  0.4916  0.7710  0.0783
   43CHL1   H20 4339   2.213   6.483   5.153  0.8495  1.7249 -0.2656
   43CHL1   C21 4340   2.120   6.673   5.134 -0.2168 -0.0177 -0.0064
   43CHL1  H21A 4341   2.159   6.686   5.031  0.8554 -1.5271  0.1893
   43CHL1  H21B 4342   2.199   6.730   5.188  0.4629 -1.3739  0.4648
   43CHL1  H21C 4343   2.019   6.720   5.136 -1.0389 -1.6736 -0.5048
   43CHL1   C22 4344   2.019   6.455   5.062  0.4894 -0.2651  0.2006
   43CHL1  H22A 4345   1.990   6.350   5.086  1.0467 -0.1927  1.2194
   43CHL1  H22B 4346   1.923   6.510   5.070  1.0845  0.8945 -0.3423
   43CHL1   C23 4347   2.075   6.449   4.924  0.1433  0.1512  0.0214
   43CHL1  H23A 4348   2.094   6.549   4.879  0.9945 -0.4232 -0.9562
   43CHL1  H23B 4349   2.178   6.408   4.931  0.2186  0.5803  2.1734
   43CHL1   C24 4350   1.985   6.377   4.821  0.0376  0.0622  0.1674
   43CHL1  H24A 4351   1.979   6.269   4.847  2.1457  0.3595  2.2314
   43CHL1  H24B 4352   1.882   6.419   4.811 -1.3354 -2.7359  1.4189
   43CHL1   C25 4353   2.044   6.381   4.678  0.0178  0.1278 -0.3943
   43CHL1   H25 4354   2.146   6.338   4.690  0.2024  1.0865  1.9933
   43CHL1   C26 4355   1.973   6.275   4.587 -0.5796 -0.2380 -0.4821
   43CHL1  H26A 4356   2.004   6.290   4.481 -1.0851  0.4353 -0.5377
   43CHL1  H26B 4357   2.007   6.173   4.615  2.0838  0.8091  0.4570
   43CHL1  H26C 4358   1.863   6.285   4.591 -0.4985  0.5091  0.3545
   43CHL1   C27 4359   2.055   6.521   4.615  0.5960  0.0199  0.0450
   43CHL1  H27A 4360   2.132   6.509   4.536  0.1168  0.2123 -0.4582
   43CHL1  H27B 4361   1.961   6.559   4.570  0.8649  0.4964 -0.1195
   43CHL1  H27C 4362   2.089   6.606   4.678  1.2876 -0.6513  0.6009
   44CHL1    C3 4363   1.961   0.593   5.973  0.7430 -0.6236  0.2946
   44CHL1    H3 4364   1.925   0.689   5.929  1.5981 -1.3626 -2.1899
   44CHL1    O3 4365   1.975   0.598   6.114  0.0552 -0.1847  0.0150
   44CHL1   H3' 4366   2.020   0.518   6.142  2.2004  1.4072  1.3894
   44CHL1    C4 4367   1.858   0.477   5.932  0.1383 -0.3905 -0.6008
   44CHL1   H4A 4368   1.898   0.377   5.962  2.1111 -0.1193 -2.1282
   44CHL1   H4B 4369   1.761   0.501   5.980  1.1582  1.3470  0.7074
   44CHL1    C5 4370   1.856   0.472   5.779  0.2395 -0.2463 -0.0310
   44CHL1    C6 4371   1.738   0.476   5.719 -0.0340  0.1894  0.3279
   44CHL1    H6 4372   1.650   0.492   5.784  1.1101  2.8471  1.3362
   44CHL1    C7 4373   1.709   0.451   5.576 -0.3672 -0.4701  0.8221
   44CHL1   H7A 4374   1.632   0.373   5.562 -0.3634 -0.0802 -1.6932
   44CHL1   H7B 4375   1.661   0.537   5.526  1.9965 -1.1951 -3.0929
   44CHL1    C8 4376   1.834   0.403   5.494 -0.0591  0.2376 -0.4687
   44CHL1    H8 4377   1.832   0.292   5.501 -1.4011  0.1008 -2.3796
   44CHL1   C14 4378   1.820   0.419   5.342 -0.7594 -0.6496  0.4945
   44CHL1   H14 4379   1.819   0.529   5.331 -1.7554 -0.4395  2.3077
   44CHL1   C15 4380   1.698   0.370   5.266  0.5035  0.2836 -0.5227
   44CHL1  H15A 4381   1.662   0.268   5.291 -2.1203  1.6240  1.7978
   44CHL1  H15B 4382   1.615   0.441   5.285 -1.6897 -2.6389  1.8534
   44CHL1   C16 4383   1.739   0.372   5.120 -0.2896 -0.4756 -0.2406
   44CHL1  H16A 4384   1.726   0.268   5.083 -3.3641  0.0830 -0.9633
   44CHL1  H16B 4385   1.684   0.419   5.036  0.5049 -0.5451 -0.8167
   44CHL1   C17 4386   1.888   0.414   5.121 -0.8407  0.2964  0.0368
   44CHL1   H17 4387   1.880   0.524   5.115 -0.4913  0.4116  1.4291
   44CHL1   C13 4388   1.947   0.376   5.265  0.1872 -0.1218  0.2126
   44CHL1   C18 4389   1.975   0.226   5.282 -0.1323 -0.5926  0.4395
   44CHL1  H18A 4390   2.069   0.197   5.231  1.0937  1.1602  1.6045
   44CHL1  H18B 4391   1.999   0.197   5.387 -1.2435  1.1835  1.2312
   44CHL1  H18C 4392   1.896   0.159   5.241  1.6192 -2.5057  0.0100
   44CHL1   C12 4393   2.065   0.460   5.311  0.3501  0.4600  0.0309
   44CHL1  H12A 4394   2.157   0.431   5.256  0.0936  1.2567 -0.8394
   44CHL1  H12B 4395   2.046   0.566   5.285 -0.1824  0.4397  0.3070
   44CHL1   C11 4396   2.090   0.443   5.458 -0.4518  0.2519  0.4180
   44CHL1  H11A 4397   2.125   0.338   5.464  0.8288  0.5717 -0.8857
   44CHL1  H11B 4398   2.174   0.504   5.496 -1.6093  2.3484 -0.2275
   44CHL1    C9 4399   1.964   0.471   5.548  0.0223 -0.0850  0.2907
   44CHL1    H9 4400   1.935   0.578   5.549  0.6685  0.1028 -0.0715
   44CHL1   C10 4401   1.989   0.455   5.699  0.1415 -0.2648  0.2785
   44CHL1   C19 4402   2.047   0.313   5.726 -0.0509  0.2216  0.2368
   44CHL1  H19A 4403   2.145   0.311   5.675 -0.1493 -3.3385 -0.0398
   44CHL1  H19B 4404   2.074   0.303   5.833  1.9897 -1.5036 -0.3784
   44CHL1  H19C 4405   1.974   0.239   5.687 -1.8095  1.1467  1.6297
   44CHL1    C1 4406   2.086   0.565   5.755 -0.8383 -0.7010  0.0848
   44CHL1   H1A 4407   2.185   0.545   5.709 -1.4541  1.1629 -2.2499
   44CHL1   H1B 4408   2.052   0.660   5.710  0.5254 -0.0065  0.4765
   44CHL1    C2 4409   2.098   0.572   5.909 -0.1175  0.1696  0.5287
   44CHL1   H2A 4410   2.168   0.653   5.936  1.8483 -1.0535 -0.6339
   44CHL1   H2B 4411   2.154   0.479   5.933 -1.5611 -0.7639  0.3859
   44CHL1   C20 4412   1.977   0.367   5.004 -0.2291 -0.7149 -0.7290
   44CHL1   H20 4413   2.043   0.280   5.028  1.0348  0.6708  1.1114
   44CHL1   C21 4414   2.075   0.486   4.966 -0.2730  0.1931 -0.9602
   44CHL1  H21A 4415   2.027   0.573   4.917  0.9959  1.6369  0.2491
   44CHL1  H21B 4416   2.154   0.450   4.896 -1.2009 -1.5957 -1.1530
   44CHL1  H21C 4417   2.116   0.531   5.059 -1.1923 -0.8530 -0.0157
   44CHL1   C22 4418   1.898   0.323   4.880 -0.2259 -0.4072 -0.0939
   44CHL1  H22A 4419   1.807   0.259   4.884 -0.4161 -0.3493 -2.3282
   44CHL1  H22B 4420   1.863   0.422   4.842  1.8626 -0.0890 -1.3110
   44CHL1   C23 4421   1.984   0.249   4.770 -0.7175  0.5850 -0.1215
   44CHL1  H23A 4422   2.068   0.317   4.745 -0.4985  1.0050  1.6074
   44CHL1  H23B 4423   2.026   0.163   4.826 -2.5958  0.0635  0.5964
   44CHL1   C24 4424   1.907   0.217   4.644 -0.1911 -0.0434  0.0039
   44CHL1  H24A 4425   1.832   0.137   4.662 -0.2995  0.4133  1.8160
   44CHL1  H24B 4426   1.837   0.301   4.624 -1.0730 -1.1197 -1.6478
   44CHL1   C25 4427   1.990   0.195   4.520 -0.3540 -0.3394  0.1598
   44CHL1   H25 4428   2.061   0.114   4.547 -0.9215 -0.9257 -0.0689
   44CHL1   C26 4429   1.902   0.153   4.402 -0.0112  0.4062  0.2186
   44CHL1  H26A 4430   1.835   0.235   4.371  1.4696  1.0705 -1.3388
   44CHL1  H26B 4431   1.966   0.124   4.316 -1.0349 -1.3838  0.0133
   44CHL1  H26C 4432   1.840   0.062   4.417  2.7422 -1.9234 -1.3200
   44CHL1   C27 4433   2.082   0.310   4.481  0.0240 -0.2789  1.0812
   44CHL1  H27A 4434   2.015   0.398   4.468  0.0014 -0.0223  2.7152
   44CHL1  H27B 4435   2.166   0.326   4.552 -0.2733  1.0442  1.1682
   44CHL1  H27C 4436   2.124   0.284   4.382 -1.1747 -0.7840  0.6893
   45CHL1    C3 4437   1.069   0.352   6.051  0.1792 -0.6738  0.0366
   45CHL1    H3 4438   1.050   0.256   5.998  0.9286 -0.3157 -0.8919
   45CHL1    O3 4439   1.059   0.325   6.193  0.6369  0.3189  0.8248
   45CHL1   H3' 4440   1.054   0.411   6.236 -1.2399  0.6801  0.0221
   45CHL1    C4 4441   1.206   0.414   6.009 -0.0387  0.2586  0.0821
   45CHL1   H4A 4442   1.227   0.492   6.085  1.8983 -0.8061  0.7125
   45CHL1   H4B 4443   1.282   0.334   6.018  2.0708  1.9045 -1.9642
   45CHL1    C5 4444   1.213   0.465   5.867 -0.1166  0.1559 -0.3582
   45CHL1    C6 4445   1.305   0.414   5.779 -0.3415  0.4727  0.2472
   45CHL1    H6 4446   1.379   0.342   5.816  0.9348  1.1151 -0.9698
   45CHL1    C7 4447   1.324   0.460   5.636 -0.2244  0.3713  0.1514
   45CHL1   H7A 4448   1.422   0.508   5.616 -0.5084  1.0660  0.3859
   45CHL1   H7B 4449   1.318   0.376   5.564 -0.3622  1.1225 -0.7312
   45CHL1    C8 4450   1.235   0.589   5.599  0.0329  0.7337 -0.1904
   45CHL1    H8 4451   1.286   0.675   5.647  0.1374 -0.1799  1.4081
   45CHL1   C14 4452   1.218   0.606   5.455 -0.5261  0.1555  0.1415
   45CHL1   H14 4453   1.149   0.521   5.433 -1.2909  0.7140  0.3563
   45CHL1   C15 4454   1.340   0.588   5.362 -0.8147  0.1200 -0.5659
   45CHL1  H15A 4455   1.413   0.657   5.410 -1.1332 -0.8704  1.4795
   45CHL1  H15B 4456   1.376   0.483   5.370  0.8575  0.7692  1.4163
   45CHL1   C16 4457   1.296   0.636   5.227  0.6214 -0.6143 -0.4278
   45CHL1  H16A 4458   1.371   0.716   5.211 -1.4465  2.0845  2.2408
   45CHL1  H16B 4459   1.289   0.554   5.153 -0.8039 -0.8045 -0.1092
   45CHL1   C17 4460   1.154   0.698   5.254 -0.0242 -1.0249  0.5236
   45CHL1   H17 4461   1.077   0.619   5.245  0.0354 -1.1413  0.9697
   45CHL1   C13 4462   1.147   0.724   5.404  1.0027 -0.0575 -0.1449
   45CHL1   C18 4463   1.221   0.861   5.450 -0.3640  0.1688  0.3920
   45CHL1  H18A 4464   1.328   0.863   5.420 -0.3765 -0.4742  0.2774
   45CHL1  H18B 4465   1.166   0.947   5.405 -0.4046 -0.0438  0.0267
   45CHL1  H18C 4466   1.220   0.863   5.561  0.2011  0.6423  0.3923
   45CHL1   C12 4467   1.003   0.723   5.466 -0.6391  0.1863  0.5827
   45CHL1  H12A 4468   0.951   0.809   5.419  0.6596 -0.4169 -2.1346
   45CHL1  H12B 4469   0.959   0.636   5.413 -0.3497 -0.3779  1.2363
   45CHL1   C11 4470   1.001   0.701   5.618 -0.3328  0.3485  0.1081
   45CHL1  H11A 4471   1.021   0.799   5.667 -2.6220  0.4340  1.0272
   45CHL1  H11B 4472   0.894   0.687   5.646 -0.3083 -1.2738 -0.5056
   45CHL1    C9 4473   1.102   0.595   5.668  0.1420 -0.0598 -0.5901
   45CHL1    H9 4474   1.055   0.503   5.627 -1.2623 -0.1003  0.9879
   45CHL1   C10 4475   1.104   0.569   5.825  0.5088  0.1211 -0.1915
   45CHL1   C19 4476   1.124   0.707   5.897 -0.5908 -0.6758 -0.0723
   45CHL1  H19A 4477   1.120   0.687   6.006 -0.0600  1.6410  0.4240
   45CHL1  H19B 4478   1.225   0.748   5.876 -0.1266 -1.0998  1.2266
   45CHL1  H19C 4479   1.048   0.785   5.874  0.1549  1.0862  2.8607
   45CHL1    C1 4480   0.977   0.504   5.868  0.2063  0.0858  0.2936
   45CHL1   H1A 4481   0.887   0.561   5.835  0.2856  1.7517  2.6733
   45CHL1   H1B 4482   0.962   0.409   5.813 -2.0380  1.1098 -0.9820
   45CHL1    C2 4483   0.959   0.461   6.010  0.1344 -0.1547 -0.4936
   45CHL1   H2A 4484   0.855   0.425   6.029 -0.2941  1.5557  0.5869
   45CHL1   H2B 4485   0.978   0.547   6.077  1.7628 -0.6874 -0.2154
   45CHL1   C20 4486   1.121   0.805   5.151 -0.3494  0.4988  0.0600
   45CHL1   H20 4487   1.181   0.893   5.184 -0.3985  0.3822  0.4636
   45CHL1   C21 4488   0.973   0.857   5.166 -0.0525 -0.1490  0.5127
   45CHL1  H21A 4489   0.962   0.943   5.236 -0.4999  0.0880  0.1552
   45CHL1  H21B 4490   0.912   0.768   5.196  0.5032 -0.1494  1.7037
   45CHL1  H21C 4491   0.936   0.890   5.067 -1.2882 -0.0102  1.0030
   45CHL1   C22 4492   1.153   0.770   5.003 -0.3492  0.6157 -0.1903
   45CHL1  H22A 4493   1.135   0.861   4.943  0.1966  0.4883 -0.5581
   45CHL1  H22B 4494   1.255   0.731   4.982 -0.8680 -1.8272  1.3613
   45CHL1   C23 4495   1.059   0.655   4.960 -0.6362 -0.2567 -0.0399
   45CHL1  H23A 4496   1.084   0.556   5.005 -0.6760  0.9862  2.9574
   45CHL1  H23B 4497   0.954   0.679   4.988 -0.2113  1.2244  0.3897
   45CHL1   C24 4498   1.054   0.634   4.806  0.8664 -0.4287 -0.3878
   45CHL1  H24A 4499   1.019   0.735   4.777  2.1323  0.4337  0.9186
   45CHL1  H24B 4500   1.153   0.614   4.759  0.5971 -1.8259 -0.4229
   45CHL1   C25 4501   0.952   0.528   4.753  0.1662 -0.7147 -0.7560
   45CHL1   H25 4502   0.871   0.536   4.829 -0.1900  0.6733 -1.2493
   45CHL1   C26 4503   0.880   0.568   4.617 -0.1948 -0.5628 -0.3919
   45CHL1  H26A 4504   0.774   0.538   4.630 -0.8406  2.4232  2.5645
   45CHL1  H26B 4505   0.863   0.676   4.600 -1.9230 -0.6730  0.3955
   45CHL1  H26C 4506   0.926   0.528   4.524 -0.3441 -1.6904  0.0030
   45CHL1   C27 4507   1.019   0.387   4.750  0.7374 -0.2413  0.6225
   45CHL1  H27A 4508   0.937   0.311   4.748  0.9969 -0.5260  0.6212
   45CHL1  H27B 4509   1.078   0.382   4.656  0.4212  0.7489  0.3669
   45CHL1  H27C 4510   1.082   0.362   4.838 -0.3972  0.7731  1.7609
   46CHL1    C3 4511   1.624   2.726   6.450  0.5035  0.8923 -0.5745
   46CHL1    H3 4512   1.531   2.666   6.443 -0.7027  2.3845  1.4215
   46CHL1    O3 4513   1.661   2.747   6.583  0.4718 -0.0098  0.1088
   46CHL1   H3' 4514   1.696   2.667   6.622 -1.7031  0.2156  2.8309
   46CHL1    C4 4515   1.734   2.656   6.372 -0.3780  0.5711 -0.2228
   46CHL1   H4A 4516   1.827   2.711   6.397  0.4910 -0.5342 -0.9047
   46CHL1   H4B 4517   1.740   2.553   6.415  0.9646 -0.0293 -1.7507
   46CHL1    C5 4518   1.720   2.652   6.219 -0.3387  0.1818  0.5697
   46CHL1    C6 4519   1.733   2.540   6.153 -0.2649  0.0497  0.1583
   46CHL1    H6 4520   1.754   2.445   6.206 -0.1267 -0.1505 -0.2498
   46CHL1    C7 4521   1.718   2.534   6.002  0.8331 -0.3549 -0.7598
   46CHL1   H7A 4522   1.797   2.468   5.959 -0.7950 -1.8162 -1.6380
   46CHL1   H7B 4523   1.622   2.481   5.982  1.5303 -1.5668 -0.9999
   46CHL1    C8 4524   1.718   2.676   5.931  0.8668  0.0921 -0.5647
   46CHL1    H8 4525   1.821   2.720   5.930 -0.1506  2.7223  0.6716
   46CHL1   C14 4526   1.669   2.658   5.787  0.0402  0.3922  0.2553
   46CHL1   H14 4527   1.563   2.629   5.804  0.1925  0.4471  1.3710
   46CHL1   C15 4528   1.740   2.556   5.694 -0.1247  0.3113 -0.8116
   46CHL1  H15A 4529   1.851   2.563   5.698 -0.1978  1.2097  1.9179
   46CHL1  H15B 4530   1.710   2.454   5.729  0.9278  0.6708  1.3202
   46CHL1   C16 4531   1.686   2.595   5.568 -0.1683  0.0642 -0.2191
   46CHL1  H16A 4532   1.761   2.573   5.488 -1.4111 -0.6123 -1.2319
   46CHL1  H16B 4533   1.604   2.525   5.542 -0.2440 -0.5746  1.6169
   46CHL1   C17 4534   1.629   2.739   5.579  0.4804  0.4797 -0.6383
   46CHL1   H17 4535   1.519   2.730   5.587  0.5066  1.3485  1.3232
   46CHL1   C13 4536   1.674   2.790   5.713 -0.8677 -0.4823  0.8528
   46CHL1   C18 4537   1.821   2.844   5.711  0.0781  0.3414 -0.9863
   46CHL1  H18A 4538   1.892   2.764   5.680 -1.5287 -2.5904  2.2310
   46CHL1  H18B 4539   1.829   2.926   5.636 -1.2147 -0.0792 -1.6110
   46CHL1  H18C 4540   1.852   2.881   5.811  0.8950  1.5707 -1.6728
   46CHL1   C12 4541   1.580   2.880   5.784  0.4877  0.7094  0.8123
   46CHL1  H12A 4542   1.570   2.974   5.725  0.4646 -1.2899 -2.6443
   46CHL1  H12B 4543   1.476   2.841   5.782  0.8317 -0.3445  2.2362
   46CHL1   C11 4544   1.617   2.905   5.931  0.2729 -0.0842 -0.3971
   46CHL1  H11A 4545   1.700   2.978   5.940 -0.0188  0.0500  1.7520
   46CHL1  H11B 4546   1.535   2.966   5.976 -0.0255 -0.4959 -0.3793
   46CHL1    C9 4547   1.630   2.772   6.010  0.8351 -1.2320 -0.6779
   46CHL1    H9 4548   1.528   2.730   6.014  0.0566  0.6516  1.5397
   46CHL1   C10 4549   1.680   2.786   6.158  0.0682 -0.0632  0.1915
   46CHL1   C19 4550   1.806   2.874   6.164 -0.0158  0.2695 -0.4912
   46CHL1  H19A 4551   1.860   2.873   6.261  2.2789  0.6034 -1.6862
   46CHL1  H19B 4552   1.868   2.849   6.075 -1.5629  1.9851 -2.1255
   46CHL1  H19C 4553   1.791   2.984   6.164  0.7323  0.3790 -0.1921
   46CHL1    C1 4554   1.569   2.844   6.240 -0.2720 -0.9742  0.2421
   46CHL1   H1A 4555   1.564   2.949   6.206  2.1151 -1.4824 -2.0225
   46CHL1   H1B 4556   1.473   2.791   6.222  0.7900 -1.8264 -3.7583
   46CHL1    C2 4557   1.596   2.866   6.389  0.1626 -0.1700 -0.1972
   46CHL1   H2A 4558   1.507   2.914   6.436 -1.3518 -2.9361 -0.0322
   46CHL1   H2B 4559   1.684   2.931   6.405  1.3278 -1.5672 -0.6760
   46CHL1   C20 4560   1.675   2.819   5.456  0.7540  0.3055 -0.3761
   46CHL1   H20 4561   1.785   2.820   5.449  0.7211  1.3879 -1.0218
   46CHL1   C21 4562   1.623   2.964   5.448  0.0903 -0.4277 -0.6617
   46CHL1  H21A 4563   1.658   3.008   5.353  0.6511  0.7498  0.0597
   46CHL1  H21B 4564   1.685   3.026   5.517 -1.0250  0.2174 -0.1959
   46CHL1  H21C 4565   1.513   2.972   5.461  0.0609  2.1312 -1.9324
   46CHL1   C22 4566   1.611   2.750   5.325  0.3765 -0.7690 -0.4399
   46CHL1  H22A 4567   1.585   2.643   5.342 -0.7288 -0.3009  1.0298
   46CHL1  H22B 4568   1.515   2.800   5.298  0.2855 -0.3550  0.6101
   46CHL1   C23 4569   1.709   2.761   5.199 -0.5400  0.1334  0.0146
   46CHL1  H23A 4570   1.737   2.869   5.190 -1.5879  0.2788 -2.0765
   46CHL1  H23B 4571   1.796   2.697   5.224 -0.0664 -0.0833 -2.0463
   46CHL1   C24 4572   1.647   2.709   5.071 -0.0795 -0.3368 -0.3544
   46CHL1  H24A 4573   1.645   2.600   5.053  2.9409 -0.5454  0.1332
   46CHL1  H24B 4574   1.541   2.742   5.058 -0.8080 -1.5448  1.9449
   46CHL1   C25 4575   1.705   2.776   4.945  0.1089 -0.3384  0.1436
   46CHL1   H25 4576   1.704   2.886   4.960 -0.6229 -0.3280  0.0378
   46CHL1   C26 4577   1.855   2.738   4.917  0.1626  0.0956 -0.1674
   46CHL1  H26A 4578   1.906   2.741   5.016  1.1945  0.5535 -0.6973
   46CHL1  H26B 4579   1.873   2.636   4.878  0.4086 -0.5771  1.6059
   46CHL1  H26C 4580   1.901   2.815   4.851 -0.7716  0.3869 -0.5015
   46CHL1   C27 4581   1.627   2.743   4.816  0.5519  0.3055  0.4189
   46CHL1  H27A 4582   1.630   2.636   4.787  3.3632  0.9132 -2.0203
   46CHL1  H27B 4583   1.520   2.772   4.820 -0.3180 -2.2086 -1.6976
   46CHL1  H27C 4584   1.677   2.793   4.730 -1.2482  2.9536  0.8140
   47CHL1    C3 4585   3.688   2.764   5.983  0.0627  0.1345 -0.4067
   47CHL1    H3 4586   3.743   2.668   5.997  0.9486  0.6790 -0.1243
   47CHL1    O3 4587   3.641   2.802   6.112 -0.1845  0.3087 -0.4226
   47CHL1   H3' 4588   3.713   2.819   6.173 -1.5982  1.0759  1.1234
   47CHL1    C4 4589   3.767   2.873   5.915  0.4923 -0.7091  0.6311
   47CHL1   H4A 4590   3.697   2.959   5.916  0.2086 -0.8459 -1.6208
   47CHL1   H4B 4591   3.853   2.913   5.972  0.1957 -1.9060  1.9961
   47CHL1    C5 4592   3.792   2.857   5.765  0.1887  0.2247 -0.5959
   47CHL1    C6 4593   3.921   2.854   5.722  0.1686  0.1358 -0.0960
   47CHL1    H6 4594   3.999   2.876   5.796  0.9951  2.0272 -1.4497
   47CHL1    C7 4595   3.958   2.828   5.582 -0.0692 -0.6185  0.5985
   47CHL1   H7A 4596   4.034   2.895   5.536  0.2174 -1.0480  0.4371
   47CHL1   H7B 4597   3.981   2.720   5.571 -1.6846 -0.8211 -1.1835
   47CHL1    C8 4598   3.839   2.847   5.476  0.6016 -0.0624 -0.1703
   47CHL1    H8 4599   3.817   2.954   5.455 -0.7080 -0.0522  1.0988
   47CHL1   C14 4600   3.876   2.789   5.339  0.0823  0.5576 -0.4444
   47CHL1   H14 4601   3.905   2.683   5.350  0.8008  0.2940 -3.8094
   47CHL1   C15 4602   4.004   2.843   5.264  0.4856 -0.2961  0.2385
   47CHL1  H15A 4603   4.020   2.952   5.258 -2.8590  0.2015 -1.9646
   47CHL1  H15B 4604   4.091   2.806   5.323  1.8083  0.3499 -1.2575
   47CHL1   C16 4605   3.992   2.783   5.127 -1.0192  0.1234 -0.3790
   47CHL1  H16A 4606   3.997   2.867   5.054  2.9801  2.4608  2.1814
   47CHL1  H16B 4607   4.080   2.717   5.114  1.1032  2.3882  1.3972
   47CHL1   C17 4608   3.865   2.708   5.121 -0.0877  1.1085 -0.0246
   47CHL1   H17 4609   3.876   2.605   5.162 -0.9358  1.6334  1.6299
   47CHL1   C13 4610   3.769   2.777   5.227 -1.0169 -0.0623  0.2630
   47CHL1   C18 4611   3.727   2.908   5.176  0.0106 -0.4766  0.0056
   47CHL1  H18A 4612   3.642   2.918   5.105  0.5310  0.8786 -0.4490
   47CHL1  H18B 4613   3.700   2.974   5.262  0.7943 -0.9272  0.6071
   47CHL1  H18C 4614   3.804   2.967   5.122 -1.5602  0.3728 -1.4432
   47CHL1   C12 4615   3.648   2.714   5.296  0.4733 -0.5440 -0.1444
   47CHL1  H12A 4616   3.563   2.716   5.224 -0.6107 -2.6441  0.9704
   47CHL1  H12B 4617   3.676   2.609   5.321  3.2759 -0.1685 -1.2896
   47CHL1   C11 4618   3.602   2.771   5.426  0.4210 -0.5751 -0.3620
   47CHL1  H11A 4619   3.555   2.871   5.416  0.7622 -0.2693  0.9772
   47CHL1  H11B 4620   3.528   2.709   5.481  0.6012 -0.2461  0.2567
   47CHL1    C9 4621   3.714   2.772   5.535  0.3749 -0.2456 -0.1752
   47CHL1    H9 4622   3.756   2.669   5.538  1.1601  0.0295 -1.1950
   47CHL1   C10 4623   3.674   2.825   5.675 -0.1452 -0.2294  0.4707
   47CHL1   C19 4624   3.586   2.956   5.658 -0.1527  0.5582  0.5633
   47CHL1  H19A 4625   3.593   3.025   5.744  0.2530  1.7101 -0.3679
   47CHL1  H19B 4626   3.641   3.012   5.579 -1.1948 -0.5911 -1.0497
   47CHL1  H19C 4627   3.478   2.933   5.642 -0.0619 -1.4696  2.4128
   47CHL1    C1 4628   3.590   2.720   5.750  0.1729 -0.1396  0.5119
   47CHL1   H1A 4629   3.496   2.703   5.694  0.4356 -2.2669  0.6400
   47CHL1   H1B 4630   3.648   2.625   5.745  2.6037  1.1006  2.9094
   47CHL1    C2 4631   3.560   2.742   5.906 -0.5688  0.0865  0.3392
   47CHL1   H2A 4632   3.500   2.654   5.936  0.9830 -1.0325  0.2335
   47CHL1   H2B 4633   3.495   2.832   5.920  1.5760  1.5567  1.4482
   47CHL1   C20 4634   3.816   2.680   4.977 -0.5424  0.7439  0.0703
   47CHL1   H20 4635   3.793   2.781   4.938  2.2669  1.0268 -1.1345
   47CHL1   C21 4636   3.688   2.596   4.974 -0.7901 -0.5692 -0.7062
   47CHL1  H21A 4637   3.700   2.499   5.027  0.1166 -0.2648 -0.3438
   47CHL1  H21B 4638   3.664   2.573   4.868  2.3527  1.8539 -2.1319
   47CHL1  H21C 4639   3.604   2.661   5.009  0.5847  0.7179  0.3260
   47CHL1   C22 4640   3.919   2.606   4.881 -0.9945 -0.9947  0.6550
   47CHL1  H22A 4641   4.013   2.661   4.904 -3.0454  1.0612  5.5395
   47CHL1  H22B 4642   3.944   2.503   4.916  0.6681 -0.8531 -0.0109
   47CHL1   C23 4643   3.886   2.606   4.729 -0.1732 -0.7149  0.3077
   47CHL1  H23A 4644   3.799   2.537   4.722  0.0548 -0.8497 -1.8945
   47CHL1  H23B 4645   3.861   2.709   4.694 -2.3943 -1.1329  0.5137
   47CHL1   C24 4646   3.991   2.545   4.640 -0.5614 -0.2143 -0.4566
   47CHL1  H24A 4647   3.981   2.435   4.647 -2.1263 -0.2260 -2.2814
   47CHL1  H24B 4648   3.957   2.564   4.536 -0.4758 -0.4411 -0.5264
   47CHL1   C25 4649   4.139   2.577   4.661  0.5107  0.2536  0.4765
   47CHL1   H25 4650   4.170   2.554   4.766  0.5281  1.7371  0.8271
   47CHL1   C26 4651   4.228   2.485   4.565 -0.3903 -1.1775  0.6450
   47CHL1  H26A 4652   4.336   2.487   4.591  0.8108 -0.1930 -3.6589
   47CHL1  H26B 4653   4.194   2.381   4.580 -3.6140  0.0084  2.6486
   47CHL1  H26C 4654   4.206   2.512   4.460  1.4899 -1.2815  0.1785
   47CHL1   C27 4655   4.190   2.722   4.632 -0.0104  0.4605 -0.0837
   47CHL1  H27A 4656   4.148   2.791   4.708  2.7719  1.6721  0.4740
   47CHL1  H27B 4657   4.301   2.720   4.642  0.1432 -3.1314 -0.9421
   47CHL1  H27C 4658   4.150   2.742   4.531  1.2157  1.1191 -0.4688
   48CHL1    C3 4659   6.647   3.593   6.343 -0.5361  0.0984 -0.2235
   48CHL1    H3 4660   6.738   3.528   6.347  0.2013  1.0995 -0.3482
   48CHL1    O3 4661   6.597   3.597   6.475 -0.8415 -0.3653 -0.0461
   48CHL1   H3' 4662   6.640   3.670   6.521 -2.9946  1.4891 -0.7933
   48CHL1    C4 4663   6.705   3.726   6.282 -0.1268 -0.0644  0.2649
   48CHL1   H4A 4664   6.623   3.801   6.279 -0.4593 -0.4432 -0.9885
   48CHL1   H4B 4665   6.783   3.764   6.350  2.0265 -1.7280 -1.1472
   48CHL1    C5 4666   6.754   3.704   6.143  0.1328  0.1438 -0.1736
   48CHL1    C6 4667   6.885   3.719   6.117  0.5995 -0.3287  0.2890
   48CHL1    H6 4668   6.953   3.764   6.191  1.5015  3.3604 -2.4524
   48CHL1    C7 4669   6.935   3.712   5.973  0.5442  0.2670  0.2031
   48CHL1   H7A 4670   7.017   3.785   5.958  1.7039 -0.9048  0.6518
   48CHL1   H7B 4671   6.976   3.609   5.968 -1.0574 -0.4774  1.4256
   48CHL1    C8 4672   6.821   3.725   5.862  0.6822  1.1500 -0.1114
   48CHL1    H8 4673   6.778   3.827   5.861 -0.0200  0.9468  2.3063
   48CHL1   C14 4674   6.862   3.678   5.720 -0.0444 -0.7188 -0.6872
   48CHL1   H14 4675   6.887   3.571   5.732 -0.9853 -0.9460 -0.6170
   48CHL1   C15 4676   6.990   3.745   5.673 -0.7955  0.7377 -0.6396
   48CHL1  H15A 4677   6.987   3.851   5.706  1.4167  0.4894  0.5911
   48CHL1  H15B 4678   7.079   3.691   5.714 -1.9256  1.2394  2.8508
   48CHL1   C16 4679   6.976   3.730   5.522 -0.2916  0.4749  0.9007
   48CHL1  H16A 4680   6.989   3.827   5.470 -0.6271 -1.1754 -2.5026
   48CHL1  H16B 4681   7.050   3.668   5.467  0.2020  2.7427 -1.1762
   48CHL1   C17 4682   6.843   3.664   5.488  0.0120 -0.2659 -0.1316
   48CHL1   H17 4683   6.853   3.553   5.492  0.8947 -0.2132 -0.7022
   48CHL1   C13 4684   6.758   3.694   5.608 -0.1398  0.7616 -0.0922
   48CHL1   C18 4685   6.713   3.834   5.603  0.6286  0.0240  0.3554
   48CHL1  H18A 4686   6.675   3.867   5.702 -3.0428 -1.1680 -0.4702
   48CHL1  H18B 4687   6.791   3.902   5.563  0.1873 -0.0017 -0.5798
   48CHL1  H18C 4688   6.632   3.841   5.527  0.9233 -1.0282 -0.0734
   48CHL1   C12 4689   6.646   3.599   5.644 -0.0048 -0.0197  0.3716
   48CHL1  H12A 4690   6.551   3.614   5.588  0.3932  0.5974 -0.1459
   48CHL1  H12B 4691   6.679   3.493   5.633  1.2332  0.4530 -0.5942
   48CHL1   C11 4692   6.590   3.622   5.791  0.5856 -0.1637  0.0599
   48CHL1  H11A 4693   6.531   3.715   5.784  2.4922  1.0344 -0.8160
   48CHL1  H11B 4694   6.528   3.531   5.809  1.1670 -0.6191 -0.1860
   48CHL1    C9 4695   6.699   3.632   5.904  0.5318  0.5496  0.2388
   48CHL1    H9 4696   6.745   3.531   5.912  0.8719  0.7894  1.6142
   48CHL1   C10 4697   6.643   3.663   6.046  0.4311 -0.2783  0.0724
   48CHL1   C19 4698   6.526   3.765   6.025 -0.2715  0.6166 -0.4360
   48CHL1  H19A 4699   6.554   3.851   5.961 -0.7806  1.7019  0.7575
   48CHL1  H19B 4700   6.443   3.708   5.978  0.9576 -1.5971 -0.0359
   48CHL1  H19C 4701   6.496   3.811   6.122 -0.3682  1.9315 -1.0679
   48CHL1    C1 4702   6.585   3.530   6.096 -0.0669  0.8193 -0.2623
   48CHL1   H1A 4703   6.492   3.506   6.040  0.3637  2.1537 -1.6199
   48CHL1   H1B 4704   6.659   3.447   6.100 -0.0782  0.8340  0.3387
   48CHL1    C2 4705   6.541   3.534   6.247  0.7732  0.2368  0.2952
   48CHL1   H2A 4706   6.495   3.439   6.282 -1.5343  0.8182 -0.9604
   48CHL1   H2B 4707   6.459   3.608   6.246 -0.1618 -0.7781  0.3575
   48CHL1   C20 4708   6.787   3.679   5.345  0.3323 -0.1287  0.2192
   48CHL1   H20 4709   6.769   3.786   5.322  0.8950  0.7140  3.2547
   48CHL1   C21 4710   6.657   3.602   5.333  0.5122 -0.0834 -0.3885
   48CHL1  H21A 4711   6.666   3.497   5.366  1.1820  0.4871  1.3555
   48CHL1  H21B 4712   6.576   3.642   5.398 -1.2348 -3.5749 -0.2034
   48CHL1  H21C 4713   6.612   3.595   5.232  1.9498  3.6776 -1.4816
   48CHL1   C22 4714   6.879   3.632   5.230 -0.6334  0.5999 -1.1581
   48CHL1  H22A 4715   6.982   3.665   5.257 -1.2997  1.9149 -0.0658
   48CHL1  H22B 4716   6.882   3.521   5.237 -3.5299  0.4485 -0.9513
   48CHL1   C23 4717   6.855   3.690   5.088 -0.4325 -0.2839  0.2234
   48CHL1  H23A 4718   6.754   3.660   5.052 -1.5440  1.8985  1.3274
   48CHL1  H23B 4719   6.849   3.801   5.088 -2.2663 -0.3165 -1.5593
   48CHL1   C24 4720   6.954   3.642   4.979 -0.6195  0.2732 -0.6366
   48CHL1  H24A 4721   7.054   3.687   4.997  0.2190 -1.1898 -1.4784
   48CHL1  H24B 4722   6.969   3.537   5.012  0.4279  0.9795  1.3347
   48CHL1   C25 4723   6.913   3.649   4.835  0.0586 -0.9977  0.3032
   48CHL1   H25 4724   6.823   3.584   4.845 -0.6490  0.2772  2.9915
   48CHL1   C26 4725   6.865   3.786   4.788 -0.3062  0.1683 -0.0095
   48CHL1  H26A 4726   6.839   3.783   4.680 -0.7165  0.4323  0.0787
   48CHL1  H26B 4727   6.786   3.826   4.855  0.4523 -2.2739  2.5568
   48CHL1  H26C 4728   6.957   3.849   4.795 -0.0633  0.0147 -1.4532
   48CHL1   C27 4729   7.017   3.584   4.746  0.5330 -0.0941  0.0423
   48CHL1  H27A 4730   6.975   3.581   4.643  0.1856  1.2025  0.1371
   48CHL1  H27B 4731   7.113   3.638   4.753  0.0845  1.0735 -1.9669
   48CHL1  H27C 4732   7.023   3.477   4.777 -0.1326 -0.0413  0.3733
   49CHL1    C3 4733   2.614   3.130   2.588  1.1580 -0.2274 -0.5543
   49CHL1    H3 4734   2.560   3.034   2.574  1.4091 -0.2529 -1.4486
   49CHL1    O3 4735   2.633   3.209   2.470  0.3114  0.2382 -0.1013
   49CHL1   H3' 4736   2.688   3.280   2.503 -0.6526  0.9092  0.0931
   49CHL1    C4 4737   2.530   3.214   2.691 -0.6578  0.5493  0.7876
   49CHL1   H4A 4738   2.579   3.312   2.704  1.3026 -0.6399  2.9519
   49CHL1   H4B 4739   2.435   3.239   2.638  0.2272  0.4377 -0.9517
   49CHL1    C5 4740   2.523   3.150   2.821 -0.0516  0.6234  0.0248
   49CHL1    C6 4741   2.400   3.123   2.875 -0.1617 -0.3174 -0.6780
   49CHL1    H6 4742   2.308   3.146   2.820 -2.4867 -2.3100  2.0496
   49CHL1    C7 4743   2.369   3.065   3.011  0.1990 -0.0692  0.0464
   49CHL1   H7A 4744   2.295   3.124   3.070  0.4073  0.2793 -0.0358
   49CHL1   H7B 4745   2.320   2.967   2.996 -0.0252 -0.2428  1.6725
   49CHL1    C8 4746   2.500   3.064   3.098  0.1868  0.2797 -0.0405
   49CHL1    H8 4747   2.514   3.169   3.130  1.7981  0.4584 -1.2346
   49CHL1   C14 4748   2.488   2.973   3.216 -0.0007  0.2065  0.3311
   49CHL1   H14 4749   2.488   2.866   3.185 -1.1717 -0.2501  1.7635
   49CHL1   C15 4750   2.365   2.985   3.301 -0.1888 -0.5006 -0.9128
   49CHL1  H15A 4751   2.324   3.085   3.327 -1.6932 -1.1775 -0.6004
   49CHL1  H15B 4752   2.275   2.941   3.255 -3.2978  0.7804  3.2972
   49CHL1   C16 4753   2.402   2.923   3.433  0.3904 -0.6802 -0.1621
   49CHL1  H16A 4754   2.387   3.000   3.511 -0.7217  0.0853 -1.1080
   49CHL1  H16B 4755   2.333   2.836   3.433 -1.6074  0.8078 -1.6457
   49CHL1   C17 4756   2.555   2.880   3.422  0.2597 -0.4330  0.3191
   49CHL1   H17 4757   2.556   2.779   3.374 -0.5865 -0.7616  0.9638
   49CHL1   C13 4758   2.614   2.972   3.307 -0.5047  0.3634 -0.3797
   49CHL1   C18 4759   2.640   3.113   3.379  0.1605  0.5494 -0.6252
   49CHL1  H18A 4760   2.717   3.109   3.460 -1.5802 -0.4531  1.0639
   49CHL1  H18B 4761   2.673   3.191   3.307  2.2454 -0.4781 -0.8575
   49CHL1  H18C 4762   2.551   3.145   3.437  0.4434  0.9026 -0.3762
   49CHL1   C12 4763   2.735   2.930   3.231  0.4317  0.3483 -0.3033
   49CHL1  H12A 4764   2.823   2.941   3.298  0.6152  0.0493 -0.4886
   49CHL1  H12B 4765   2.711   2.826   3.197 -0.7907  0.2834  0.6985
   49CHL1   C11 4766   2.753   3.011   3.103  0.3040 -0.1605 -0.2070
   49CHL1  H11A 4767   2.792   3.105   3.150  0.1140 -0.5006  0.6547
   49CHL1  H11B 4768   2.838   2.975   3.040  1.4548  1.5278  0.2869
   49CHL1    C9 4769   2.625   3.021   3.013  0.1491 -0.2468 -1.2749
   49CHL1    H9 4770   2.597   2.924   2.967 -0.4474  0.2361 -1.9343
   49CHL1   C10 4771   2.655   3.110   2.884 -0.6076 -0.3105 -0.4464
   49CHL1   C19 4772   2.723   3.247   2.930 -0.7288  0.2412  0.1308
   49CHL1  H19A 4773   2.723   3.321   2.847 -0.0039  1.2365  0.9962
   49CHL1  H19B 4774   2.678   3.288   3.023 -0.6351  0.1643  0.2100
   49CHL1  H19C 4775   2.833   3.239   2.942 -0.8352 -0.9005  0.4656
   49CHL1    C1 4776   2.746   3.035   2.785  0.1698  0.0946 -0.6399
   49CHL1   H1A 4777   2.848   3.032   2.828  0.4127  1.4548 -1.0574
   49CHL1   H1B 4778   2.713   2.930   2.767 -2.6023  0.9278 -0.8818
   49CHL1    C2 4779   2.754   3.098   2.645 -0.1753  0.4223 -0.0749
   49CHL1   H2A 4780   2.799   3.028   2.572 -0.2056 -0.1749  0.4677
   49CHL1   H2B 4781   2.818   3.189   2.651  0.5962 -0.0584 -0.8957
   49CHL1   C20 4782   2.621   2.860   3.554  0.0666  0.1851 -0.5652
   49CHL1   H20 4783   2.632   2.953   3.615 -1.9487  0.6976 -0.9303
   49CHL1   C21 4784   2.768   2.809   3.541 -0.2716  0.2503 -0.2204
   49CHL1  H21A 4785   2.811   2.800   3.642 -1.8948  1.6451  0.6557
   49CHL1  H21B 4786   2.837   2.879   3.488 -2.3809  0.6937 -2.5981
   49CHL1  H21C 4787   2.764   2.714   3.483 -1.1239  0.4929 -0.5840
   49CHL1   C22 4788   2.539   2.763   3.636  0.2103  0.7056 -0.1495
   49CHL1  H22A 4789   2.430   2.781   3.633 -0.6528 -3.2445  1.4410
   49CHL1  H22B 4790   2.548   2.660   3.594  0.7231  0.8044 -0.2949
   49CHL1   C23 4791   2.586   2.759   3.788  0.3350 -0.6261  0.3971
   49CHL1  H23A 4792   2.688   2.716   3.791  1.3446  1.6676  1.7543
   49CHL1  H23B 4793   2.575   2.861   3.832 -0.9231 -1.1336  1.3175
   49CHL1   C24 4794   2.500   2.668   3.871  0.2923 -0.4989  0.0725
   49CHL1  H24A 4795   2.398   2.713   3.879  0.5688  0.5351 -1.6920
   49CHL1  H24B 4796   2.489   2.568   3.825 -1.2000  0.4827 -1.8752
   49CHL1   C25 4797   2.541   2.645   4.019 -0.7745 -0.1883  0.3194
   49CHL1   H25 4798   2.635   2.588   4.011 -1.6511 -1.4248 -2.6522
   49CHL1   C26 4799   2.566   2.772   4.089  0.4526  0.4983  0.1780
   49CHL1  H26A 4800   2.485   2.848   4.081  1.0211  0.9394 -1.8805
   49CHL1  H26B 4801   2.593   2.755   4.196  1.9136  1.5637  0.0122
   49CHL1  H26C 4802   2.649   2.825   4.038  1.1809 -1.8144 -1.1341
   49CHL1   C27 4803   2.433   2.566   4.094  0.3130  0.8007  1.2450
   49CHL1  H27A 4804   2.453   2.560   4.203  0.9198 -2.6578  1.0381
   49CHL1  H27B 4805   2.335   2.616   4.080 -0.2530 -0.3579  0.9289
   49CHL1  H27C 4806   2.409   2.466   4.053  2.5604  0.6988  0.0494
   50CHL1    C3 4807   1.899   0.664   2.973 -0.3994 -0.0936 -1.1023
   50CHL1    H3 4808   1.987   0.596   2.971  0.0274  0.2011  2.3774
   50CHL1    O3 4809   1.916   0.736   2.856 -0.0803 -0.1639 -0.5767
   50CHL1   H3' 4810   1.895   0.673   2.787  0.5953 -1.7953  0.6235
   50CHL1    C4 4811   1.771   0.586   2.963  0.2760 -0.4702 -0.1633
   50CHL1   H4A 4812   1.690   0.654   2.929  0.8718  0.5138  0.3674
   50CHL1   H4B 4813   1.766   0.511   2.881  0.1282 -1.0680  0.3767
   50CHL1    C5 4814   1.738   0.516   3.098  0.0894  0.8108  0.1691
   50CHL1    C6 4815   1.704   0.383   3.097  0.0416  0.5332  0.0579
   50CHL1    H6 4816   1.692   0.329   3.003  2.8891 -0.9755  0.4444
   50CHL1    C7 4817   1.671   0.310   3.218  1.1852 -0.2894 -0.5280
   50CHL1   H7A 4818   1.579   0.248   3.210  1.0009 -0.0319 -0.4265
   50CHL1   H7B 4819   1.756   0.241   3.232  2.5398  1.5348  0.8000
   50CHL1    C8 4820   1.656   0.389   3.349  0.2137 -0.6481 -0.2213
   50CHL1    H8 4821   1.556   0.434   3.361 -0.5261 -2.5383  1.2781
   50CHL1   C14 4822   1.687   0.295   3.471  0.3278 -0.2115 -0.5428
   50CHL1   H14 4823   1.793   0.262   3.464  0.5698  0.3412  0.3665
   50CHL1   C15 4824   1.613   0.168   3.496 -0.3836  0.4826 -0.4522
   50CHL1  H15A 4825   1.504   0.188   3.489 -0.4921 -0.1885 -0.8412
   50CHL1  H15B 4826   1.629   0.078   3.432  0.2569  1.9910 -2.5550
   50CHL1   C16 4827   1.648   0.120   3.638  0.3562 -0.4708  0.1904
   50CHL1  H16A 4828   1.558   0.077   3.685  0.4065 -0.4797  0.2789
   50CHL1  H16B 4829   1.730   0.045   3.648 -0.0926 -0.8022  1.4532
   50CHL1   C17 4830   1.700   0.246   3.710 -0.5719 -0.4642 -0.5135
   50CHL1   H17 4831   1.811   0.238   3.709 -0.4742  0.3776  1.0596
   50CHL1   C13 4832   1.671   0.367   3.610 -0.0344 -0.4447  0.3609
   50CHL1   C18 4833   1.529   0.420   3.641 -0.9821  0.8767  0.6170
   50CHL1  H18A 4834   1.486   0.507   3.588 -1.2545  0.4767  0.1761
   50CHL1  H18B 4835   1.464   0.331   3.628 -1.0304  0.9329  0.4746
   50CHL1  H18C 4836   1.520   0.462   3.744 -1.6449 -1.5043  1.6070
   50CHL1   C12 4837   1.772   0.488   3.612  0.6689  0.3383  0.1753
   50CHL1  H12A 4838   1.762   0.546   3.707  1.7758 -0.1929  0.6340
   50CHL1  H12B 4839   1.872   0.441   3.604  1.1505  1.5247 -1.2746
   50CHL1   C11 4840   1.756   0.583   3.484 -0.4400  0.4684 -0.5749
   50CHL1  H11A 4841   1.671   0.653   3.489 -2.4342 -1.6782 -2.1951
   50CHL1  H11B 4842   1.846   0.648   3.486 -1.3213  1.8002 -1.9205
   50CHL1    C9 4843   1.761   0.509   3.350  0.4313 -0.2871 -0.3856
   50CHL1    H9 4844   1.859   0.457   3.342  2.1937  3.0880 -3.4248
   50CHL1   C10 4845   1.758   0.601   3.225 -0.9523 -0.7399 -0.0327
   50CHL1   C19 4846   1.641   0.704   3.244  0.1569  0.1463  0.0315
   50CHL1  H19A 4847   1.676   0.780   3.317  0.9818 -0.9132  0.7723
   50CHL1  H19B 4848   1.609   0.744   3.146  1.3488  0.6343 -0.1715
   50CHL1  H19C 4849   1.554   0.651   3.289 -0.5957 -0.6061 -2.1476
   50CHL1    C1 4850   1.891   0.683   3.229 -0.1278 -0.2872 -0.0845
   50CHL1   H1A 4851   1.897   0.753   3.315  2.4129  1.0656 -1.2547
   50CHL1   H1B 4852   1.977   0.613   3.238  0.2947  0.1838 -0.4004
   50CHL1    C2 4853   1.917   0.758   3.098  0.1439  0.5862  0.4989
   50CHL1   H2A 4854   2.016   0.807   3.090  0.5205 -0.0613  1.1289
   50CHL1   H2B 4855   1.843   0.839   3.076 -0.0672  0.0373 -0.9681
   50CHL1   C20 4856   1.662   0.258   3.860  0.1677 -0.5770 -0.2818
   50CHL1   H20 4857   1.553   0.276   3.869 -0.0061 -0.9818 -1.3800
   50CHL1   C21 4858   1.731   0.380   3.923  0.1057  0.8200 -0.0034
   50CHL1  H21A 4859   1.723   0.360   4.032 -0.0862  3.0628  0.4306
   50CHL1  H21B 4860   1.697   0.482   3.897  3.0958  2.4441  1.9303
   50CHL1  H21C 4861   1.835   0.370   3.885 -0.1130 -0.7227 -0.2760
   50CHL1   C22 4862   1.684   0.137   3.951 -0.8893 -0.0988  0.3789
   50CHL1  H22A 4863   1.655   0.040   3.904 -0.8655 -0.2653  0.7045
   50CHL1  H22B 4864   1.788   0.125   3.988 -0.5963 -1.2976 -0.7257
   50CHL1   C23 4865   1.601   0.131   4.078 -0.2342  0.1653 -0.0587
   50CHL1  H23A 4866   1.633   0.213   4.145  2.0719 -0.1232 -0.7483
   50CHL1  H23B 4867   1.491   0.137   4.060 -0.8336 -2.5985  1.8948
   50CHL1   C24 4868   1.616  -0.007   4.156 -0.2260  0.6971 -0.3407
   50CHL1  H24A 4869   1.583  -0.091   4.092  0.7140 -3.7219  4.3068
   50CHL1  H24B 4870   1.725  -0.018   4.176 -0.1831 -0.5458 -1.1595
   50CHL1   C25 4871   1.547  -0.007   4.294  0.3209 -1.1899  0.2132
   50CHL1   H25 4872   1.606   0.076   4.339 -0.4262  0.0031 -0.8982
   50CHL1   C26 4873   1.401   0.040   4.283 -0.0391 -0.4153 -0.6313
   50CHL1  H26A 4874   1.391   0.150   4.291  0.8146 -0.2694 -1.4343
   50CHL1  H26B 4875   1.349   0.006   4.190 -2.0317 -0.6228  0.4965
   50CHL1  H26C 4876   1.339  -0.003   4.365 -1.8301 -0.8698 -2.1524
   50CHL1   C27 4877   1.564  -0.140   4.356 -0.1862 -0.3435 -0.2384
   50CHL1  H27A 4878   1.672  -0.166   4.357  0.1310  0.9385  0.2949
   50CHL1  H27B 4879   1.532  -0.134   4.462  1.0593  1.4998  0.0675
   50CHL1  H27C 4880   1.503  -0.219   4.306  0.4077 -0.3109 -1.0348
   51CHL1    C3 4881   1.572   1.298   3.160 -0.7223  0.4074 -0.1411
   51CHL1    H3 4882   1.620   1.207   3.119 -0.8759  0.5850 -0.7270
   51CHL1    O3 4883   1.565   1.400   3.063 -0.0425  0.6973  0.4522
   51CHL1   H3' 4884   1.495   1.458   3.094 -2.2600  0.4431 -3.4154
   51CHL1    C4 4885   1.430   1.258   3.204 -0.2536  0.6566 -0.4322
   51CHL1   H4A 4886   1.367   1.341   3.243  0.2140  0.5054  0.6979
   51CHL1   H4B 4887   1.363   1.230   3.119  0.0385 -0.9734 -0.1709
   51CHL1    C5 4888   1.431   1.157   3.315  0.7184 -0.2860  0.0115
   51CHL1    C6 4889   1.354   1.047   3.307  0.0853 -0.4377  0.8497
   51CHL1    H6 4890   1.303   1.023   3.213 -0.8031  0.2135  1.1573
   51CHL1    C7 4891   1.339   0.952   3.422 -0.1306  0.0581 -0.5494
   51CHL1   H7A 4892   1.231   0.942   3.448  0.3247  0.2560  1.6084
   51CHL1   H7B 4893   1.380   0.850   3.408 -0.9539 -0.2312 -0.9764
   51CHL1    C8 4894   1.397   1.008   3.552  0.4533  0.2422 -0.7791
   51CHL1    H8 4895   1.323   1.075   3.601 -0.3220 -1.5440  0.6123
   51CHL1   C14 4896   1.413   0.883   3.653  0.3650 -0.1692 -0.1744
   51CHL1   H14 4897   1.470   0.800   3.605 -0.9254 -0.5174 -1.1577
   51CHL1   C15 4898   1.275   0.808   3.701  0.0244 -0.6811  0.3904
   51CHL1  H15A 4899   1.198   0.880   3.738 -0.4505 -0.1242 -1.5475
   51CHL1  H15B 4900   1.230   0.742   3.623  1.1987 -1.2246  0.1488
   51CHL1   C16 4901   1.332   0.728   3.825  0.3585  0.0641  0.7625
   51CHL1  H16A 4902   1.258   0.743   3.906 -0.3082  0.5362  0.0878
   51CHL1  H16B 4903   1.354   0.621   3.801  1.6533  0.3689  0.5128
   51CHL1   C17 4904   1.478   0.779   3.853  0.1673 -0.0490 -0.0381
   51CHL1   H17 4905   1.546   0.720   3.788 -0.4339 -1.9030  0.9644
   51CHL1   C13 4906   1.487   0.920   3.783 -0.4727  0.8102 -0.0974
   51CHL1   C18 4907   1.404   1.021   3.869 -0.1083  0.6298 -0.3123
   51CHL1  H18A 4908   1.464   1.040   3.961 -0.8059 -0.3197  0.3474
   51CHL1  H18B 4909   1.385   1.113   3.808 -0.4500  0.3212 -0.6776
   51CHL1  H18C 4910   1.298   1.005   3.895  0.2178 -1.5839 -0.1636
   51CHL1   C12 4911   1.622   0.961   3.735  0.1206  0.0382 -0.4033
   51CHL1  H12A 4912   1.681   0.978   3.828 -1.4960 -1.8014  1.0455
   51CHL1  H12B 4913   1.673   0.877   3.683 -0.8088 -1.3949  0.9244
   51CHL1   C11 4914   1.623   1.094   3.648  0.5653 -0.2516  0.1059
   51CHL1  H11A 4915   1.580   1.175   3.711 -1.1323 -1.2334  0.2483
   51CHL1  H11B 4916   1.726   1.130   3.625  0.8172 -2.2712 -2.3662
   51CHL1    C9 4917   1.537   1.072   3.524 -0.0145  0.0491 -0.0132
   51CHL1    H9 4918   1.581   0.989   3.464 -1.9805 -0.5383 -0.7217
   51CHL1   C10 4919   1.516   1.193   3.430 -0.0687 -0.2974 -0.5802
   51CHL1   C19 4920   1.443   1.312   3.508  0.5080 -0.4964  0.1994
   51CHL1  H19A 4921   1.344   1.270   3.533 -0.2068  0.1705 -1.3693
   51CHL1  H19B 4922   1.493   1.344   3.602  0.1747  0.2235  0.1410
   51CHL1  H19C 4923   1.431   1.411   3.459  1.3925  0.1945  1.3128
   51CHL1    C1 4924   1.666   1.239   3.387  1.0251  1.1398  0.0025
   51CHL1   H1A 4925   1.726   1.282   3.470  0.4540  2.3670 -0.2026
   51CHL1   H1B 4926   1.719   1.150   3.346  1.2522  1.2222  0.1151
   51CHL1    C2 4927   1.661   1.345   3.278  0.2633  0.1318  0.0011
   51CHL1   H2A 4928   1.760   1.374   3.236  0.3402 -0.5413 -0.2912
   51CHL1   H2B 4929   1.634   1.443   3.324  0.5126  0.8627 -1.3463
   51CHL1   C20 4930   1.527   0.769   3.997 -0.2440  0.8142  0.2963
   51CHL1   H20 4931   1.485   0.856   4.052  2.4486  0.7594  2.6640
   51CHL1   C21 4932   1.679   0.783   4.000  0.2633 -0.3658  0.1267
   51CHL1  H21A 4933   1.721   0.728   3.913 -0.1030 -1.3033  0.5186
   51CHL1  H21B 4934   1.725   0.745   4.094  0.5469 -0.5667 -0.0903
   51CHL1  H21C 4935   1.706   0.890   4.007 -0.2376 -0.3411  2.3847
   51CHL1   C22 4936   1.471   0.641   4.067 -0.2473  0.1344  0.1590
   51CHL1  H22A 4937   1.457   0.558   3.995  0.8076  1.0453 -1.1604
   51CHL1  H22B 4938   1.558   0.604   4.126 -0.1440  1.2863  0.7581
   51CHL1   C23 4939   1.377   0.675   4.181  0.0233  0.0332 -1.0465
   51CHL1  H23A 4940   1.286   0.708   4.127 -0.2530 -2.1077 -1.9925
   51CHL1  H23B 4941   1.335   0.582   4.224  0.5356 -0.1947 -1.0341
   51CHL1   C24 4942   1.425   0.781   4.287  1.3215  0.1031 -0.0203
   51CHL1  H24A 4943   1.508   0.735   4.344 -1.0157 -1.3860  2.4065
   51CHL1  H24B 4944   1.454   0.878   4.241  0.2085 -0.5058 -2.1871
   51CHL1   C25 4945   1.318   0.824   4.386 -0.3359  0.2428  0.4751
   51CHL1   H25 4946   1.230   0.825   4.318  0.5556  0.3898 -0.7090
   51CHL1   C26 4947   1.300   0.703   4.486  0.2899 -0.0367  0.3012
   51CHL1  H26A 4948   1.229   0.735   4.565  0.4157  1.8997 -0.3194
   51CHL1  H26B 4949   1.279   0.609   4.430  0.5017  1.8756 -3.3271
   51CHL1  H26C 4950   1.396   0.682   4.536  0.2645  2.2694  1.4819
   51CHL1   C27 4951   1.346   0.958   4.458 -0.2709  0.2817  0.3443
   51CHL1  H27A 4952   1.440   0.956   4.517 -0.0738 -0.0477  0.0265
   51CHL1  H27B 4953   1.363   1.029   4.374 -0.4514 -1.0666 -0.8835
   51CHL1  H27C 4954   1.266   0.997   4.524  0.0035  0.5759  0.5096
   52CHL1    C3 4955   1.126   2.212   2.759  0.4222 -0.3464 -0.7248
   52CHL1    H3 4956   1.128   2.323   2.759 -1.8705 -0.2383  0.9425
   52CHL1    O3 4957   1.128   2.177   2.624  0.0608  0.3085  0.0136
   52CHL1   H3' 4958   1.081   2.244   2.574  0.2898 -0.0883 -0.7389
   52CHL1    C4 4959   1.245   2.144   2.835 -0.3215  0.3600  0.1177
   52CHL1   H4A 4960   1.236   2.033   2.835  2.3176  0.0335  2.0432
   52CHL1   H4B 4961   1.342   2.164   2.784 -0.5587  1.5451  0.0991
   52CHL1    C5 4962   1.227   2.196   2.980  0.1874  0.0697 -0.3531
   52CHL1    C6 4963   1.327   2.260   3.043  0.3923 -0.0022 -0.1352
   52CHL1    H6 4964   1.423   2.272   2.991  1.2558 -1.0528  1.1461
   52CHL1    C7 4965   1.325   2.278   3.192  0.3264 -0.3006  0.1384
   52CHL1   H7A 4966   1.408   2.216   3.233  1.6361 -0.2704 -2.3321
   52CHL1   H7B 4967   1.341   2.386   3.216 -2.4143  0.2559 -0.1611
   52CHL1    C8 4968   1.191   2.240   3.269 -0.5250  0.2278 -0.6312
   52CHL1    H8 4969   1.208   2.135   3.302  3.0089  1.1910  1.0679
   52CHL1   C14 4970   1.173   2.324   3.392 -0.0485 -0.1206 -0.4356
   52CHL1   H14 4971   1.145   2.427   3.364  0.5724  0.4635  0.9913
   52CHL1   C15 4972   1.290   2.344   3.494 -0.7513  0.0777  0.5643
   52CHL1  H15A 4973   1.333   2.245   3.520  0.0481  0.7461  1.9261
   52CHL1  H15B 4974   1.376   2.401   3.453  0.8223 -1.8000  1.1106
   52CHL1   C16 4975   1.223   2.400   3.618  0.0969 -0.4539 -0.0706
   52CHL1  H16A 4976   1.243   2.332   3.704 -0.0931 -0.2613  0.1282
   52CHL1  H16B 4977   1.253   2.504   3.643 -0.8274 -0.5858  1.8177
   52CHL1   C17 4978   1.073   2.396   3.591 -0.0563 -0.0466  0.2007
   52CHL1   H17 4979   1.038   2.492   3.549 -0.0285 -0.8329 -1.7321
   52CHL1   C13 4980   1.050   2.292   3.481 -0.6587  0.2407 -0.2322
   52CHL1   C18 4981   1.072   2.144   3.542 -0.5271  0.2827  0.0054
   52CHL1  H18A 4982   0.972   2.113   3.579  0.0597 -2.6602 -0.6080
   52CHL1  H18B 4983   1.112   2.071   3.468 -0.7602  0.9844 -0.8431
   52CHL1  H18C 4984   1.133   2.135   3.633 -0.5412  0.7366  0.0612
   52CHL1   C12 4985   0.925   2.311   3.393 -0.5388  0.2484 -0.1651
   52CHL1  H12A 4986   0.828   2.291   3.443 -0.0109  1.1731  1.2920
   52CHL1  H12B 4987   0.920   2.418   3.363 -0.7061  1.2634  3.0617
   52CHL1   C11 4988   0.932   2.220   3.262  0.3076  0.1995 -0.0793
   52CHL1  H11A 4989   0.941   2.114   3.296  1.7368  0.1111 -0.7021
   52CHL1  H11B 4990   0.840   2.239   3.202  0.6741  2.0945 -0.1000
   52CHL1    C9 4991   1.064   2.249   3.185 -0.0950  0.3509  0.4930
   52CHL1    H9 4992   1.059   2.349   3.138 -0.7836 -0.7236 -1.8513
   52CHL1   C10 4993   1.084   2.168   3.052  0.0398  0.5784 -0.4134
   52CHL1   C19 4994   1.057   2.023   3.083 -0.9242  0.0537  0.3833
   52CHL1  H19A 4995   1.118   1.996   3.171  0.3822  3.5044  0.6814
   52CHL1  H19B 4996   0.951   2.005   3.108 -0.4576 -0.7840  1.8496
   52CHL1  H19C 4997   1.101   1.949   3.012  0.0183  1.5935 -0.7129
   52CHL1    C1 4998   0.969   2.211   2.955 -0.2899  0.0494  0.5802
   52CHL1   H1A 4999   0.876   2.166   2.996 -0.2516 -1.6085 -0.9822
   52CHL1   H1B 5000   0.955   2.320   2.965 -3.5518 -0.1062 -0.9120
   52CHL1    C2 5001   0.990   2.161   2.813 -0.4936 -0.7528  0.9551
   52CHL1   H2A 5002   0.908   2.188   2.743  0.3540  1.4914  0.7515
   52CHL1   H2B 5003   1.006   2.051   2.815 -0.7677 -0.8263 -0.3910
   52CHL1   C20 5004   1.001   2.374   3.725 -0.8509 -0.0906 -0.6720
   52CHL1   H20 5005   1.047   2.291   3.782  1.9905  0.8685 -1.4286
   52CHL1   C21 5006   0.853   2.347   3.722  0.5467 -0.0972  0.5788
   52CHL1  H21A 5007   0.844   2.248   3.672  2.9995 -0.6315  1.0650
   52CHL1  H21B 5008   0.798   2.421   3.659  1.1968 -0.8671 -0.9354
   52CHL1  H21C 5009   0.793   2.343   3.815 -0.7555 -1.3922 -0.2706
   52CHL1   C22 5010   1.031   2.492   3.816  0.0822 -0.5716  0.8647
   52CHL1  H22A 5011   1.140   2.515   3.822 -0.1656  1.0077 -0.0871
   52CHL1  H22B 5012   0.979   2.583   3.781 -1.6313 -1.7187  0.3308
   52CHL1   C23 5013   0.990   2.473   3.967  0.2533  0.1048  0.1330
   52CHL1  H23A 5014   0.882   2.448   3.965  0.3480 -0.3624 -2.0183
   52CHL1  H23B 5015   1.055   2.391   4.005  0.8688  1.2527  1.6862
   52CHL1   C24 5016   1.024   2.593   4.054  0.0800  0.6764 -0.5193
   52CHL1  H24A 5017   1.135   2.601   4.050  0.3272 -1.7107 -0.3226
   52CHL1  H24B 5018   0.969   2.682   4.018 -3.4830 -1.3142 -0.3921
   52CHL1   C25 5019   1.013   2.559   4.203  0.2678 -0.1020 -0.1603
   52CHL1   H25 5020   1.090   2.481   4.218 -0.0970 -0.6070 -0.8003
   52CHL1   C26 5021   1.052   2.695   4.270 -0.3993  0.5835  0.4605
   52CHL1  H26A 5022   1.155   2.730   4.248 -0.5483  0.7387 -0.0078
   52CHL1  H26B 5023   0.981   2.773   4.236 -0.1567 -0.2220 -2.1000
   52CHL1  H26C 5024   1.042   2.686   4.380  1.9781  2.8118  0.9429
   52CHL1   C27 5025   0.869   2.520   4.245  0.6382 -0.1425  0.2092
   52CHL1  H27A 5026   0.801   2.605   4.222  2.8615  2.0094  1.2108
   52CHL1  H27B 5027   0.835   2.428   4.193  0.3729 -0.0802  0.2692
   52CHL1  H27C 5028   0.875   2.509   4.355 -1.8102 -2.4498  0.2306
   53CHL1    C3 5029   0.499   2.219   2.759  0.6482  0.1646  0.0109
   53CHL1    H3 5030   0.601   2.254   2.785 -0.2445  1.3426  2.2417
   53CHL1    O3 5031   0.482   2.196   2.622  0.5124 -1.0415 -0.4076
   53CHL1   H3' 5032   0.399   2.149   2.619  0.3503 -0.7708 -0.2065
   53CHL1    C4 5033   0.480   2.089   2.832 -0.2968  0.4177  0.2088
   53CHL1   H4A 5034   0.383   2.039   2.810  0.0440  0.5561 -1.8729
   53CHL1   H4B 5035   0.559   2.020   2.793  0.8188  0.9202  1.5346
   53CHL1    C5 5036   0.489   2.105   2.983 -0.2429  0.6257  0.0970
   53CHL1    C6 5037   0.583   2.036   3.057  0.2649  0.2285  0.0887
   53CHL1    H6 5038   0.628   1.949   3.008 -0.6675 -0.0851 -0.2243
   53CHL1    C7 5039   0.598   2.046   3.206  0.0279  0.6155 -0.4607
   53CHL1   H7A 5040   0.606   1.942   3.245 -1.7880 -0.7946 -3.4736
   53CHL1   H7B 5041   0.695   2.096   3.224  0.3424 -0.3702  0.7076
   53CHL1    C8 5042   0.483   2.132   3.268  0.5231  0.1738  0.7372
   53CHL1    H8 5043   0.390   2.073   3.274 -0.4510  1.5401 -0.1745
   53CHL1   C14 5044   0.528   2.176   3.407  0.4663  1.4722 -0.7440
   53CHL1   H14 5045   0.619   2.240   3.404  0.2008  2.3816  3.6608
   53CHL1   C15 5046   0.561   2.057   3.504  0.9263  0.0887  1.3901
   53CHL1  H15A 5047   0.494   1.969   3.497 -0.9395  1.4817  1.0167
   53CHL1  H15B 5048   0.669   2.034   3.492  1.1506  0.1277  3.0482
   53CHL1   C16 5049   0.534   2.119   3.643 -0.3257 -0.2184  0.4303
   53CHL1  H16A 5050   0.463   2.057   3.700  0.0913 -0.8335  0.2894
   53CHL1  H16B 5051   0.629   2.120   3.702 -0.2916 -0.0027  0.3740
   53CHL1   C17 5052   0.484   2.265   3.625  0.4198 -0.3730  0.4695
   53CHL1   H17 5053   0.574   2.329   3.616  0.5839 -0.4698  1.3570
   53CHL1   C13 5054   0.426   2.266   3.484  0.1960 -0.0005  0.1066
   53CHL1   C18 5055   0.289   2.195   3.494 -0.4307  0.2495 -0.2404
   53CHL1  H18A 5056   0.301   2.091   3.531 -0.2063  0.5857  0.6596
   53CHL1  H18B 5057   0.217   2.258   3.550  0.6749  1.0022  0.3735
   53CHL1  H18C 5058   0.250   2.202   3.390 -1.3778 -0.7498  0.0288
   53CHL1   C12 5059   0.415   2.399   3.401 -0.1251  0.0364 -0.2667
   53CHL1  H12A 5060   0.354   2.481   3.445 -1.3183 -1.3859  0.8366
   53CHL1  H12B 5061   0.519   2.438   3.395  0.0995 -0.7881 -2.3115
   53CHL1   C11 5062   0.369   2.366   3.261 -0.4032 -0.3792 -0.1971
   53CHL1  H11A 5063   0.262   2.363   3.232 -0.2713  1.4746 -1.0125
   53CHL1  H11B 5064   0.395   2.462   3.212 -0.8363  1.1282  2.3224
   53CHL1    C9 5065   0.452   2.252   3.185 -0.0751  0.1578  0.3132
   53CHL1    H9 5066   0.546   2.311   3.175  0.9874 -1.3299  1.0903
   53CHL1   C10 5067   0.400   2.215   3.040  0.6278 -0.1347  0.3222
   53CHL1   C19 5068   0.256   2.163   3.048 -0.1460  0.4088 -0.0134
   53CHL1  H19A 5069   0.229   2.122   2.949  0.1963  1.4788 -0.5681
   53CHL1  H19B 5070   0.255   2.069   3.106  2.0572  0.8799  0.9185
   53CHL1  H19C 5071   0.178   2.228   3.093 -0.9967  0.5066 -1.5775
   53CHL1    C1 5072   0.413   2.343   2.956 -0.1197  0.1406 -0.0810
   53CHL1   H1A 5073   0.333   2.415   2.983 -0.5147  0.4385 -1.9406
   53CHL1   H1B 5074   0.509   2.394   2.977  0.4503 -0.8385 -0.2484
   53CHL1    C2 5075   0.402   2.323   2.809  0.1935  0.0849 -0.1658
   53CHL1   H2A 5076   0.425   2.423   2.765 -2.1367 -0.0357 -1.8047
   53CHL1   H2B 5077   0.305   2.283   2.773  1.3770  0.2652 -4.0042
   53CHL1   C20 5078   0.400   2.311   3.740 -0.7903 -0.3846 -0.2337
   53CHL1   H20 5079   0.320   2.236   3.756 -1.9194  0.0938 -2.9630
   53CHL1   C21 5080   0.337   2.454   3.716  0.1349  0.3221 -0.2621
   53CHL1  H21A 5081   0.414   2.534   3.712 -1.0196  1.3993 -2.1196
   53CHL1  H21B 5082   0.266   2.482   3.797  2.6449  0.1612  2.1371
   53CHL1  H21C 5083   0.277   2.455   3.623  1.9634  0.0410 -1.5023
   53CHL1   C22 5084   0.489   2.310   3.868 -0.0454  0.2075 -0.0267
   53CHL1  H22A 5085   0.513   2.206   3.898 -0.3473  0.9068  2.9263
   53CHL1  H22B 5086   0.575   2.380   3.862  0.2497 -0.2494 -2.1406
   53CHL1   C23 5087   0.406   2.348   3.994 -0.2714  0.3189  0.1691
   53CHL1  H23A 5088   0.397   2.458   3.981  2.2841  0.5691 -0.0609
   53CHL1  H23B 5089   0.301   2.312   3.985 -0.9029  2.3955 -1.7986
   53CHL1   C24 5090   0.475   2.338   4.134  0.6209 -0.2848 -0.3862
   53CHL1  H24A 5091   0.511   2.235   4.157 -1.9697 -1.3251 -0.5929
   53CHL1  H24B 5092   0.565   2.403   4.132 -0.1466  0.9231  1.9154
   53CHL1   C25 5093   0.391   2.402   4.248  1.1625  0.8905  0.3145
   53CHL1   H25 5094   0.333   2.488   4.208 -0.7313  0.3561  1.7811
   53CHL1   C26 5095   0.275   2.307   4.285 -0.0848  0.0798  0.2689
   53CHL1  H26A 5096   0.222   2.286   4.189  1.3263  1.1771 -0.7933
   53CHL1  H26B 5097   0.295   2.210   4.336 -0.2743 -0.3421 -0.4391
   53CHL1  H26C 5098   0.200   2.358   4.350 -1.4936 -1.2916 -0.2052
   53CHL1   C27 5099   0.478   2.433   4.372  0.1080 -0.0975 -0.1200
   53CHL1  H27A 5100   0.415   2.482   4.449  1.5528  2.0289 -0.1992
   53CHL1  H27B 5101   0.525   2.341   4.413 -0.1908 -0.0829  0.2602
   53CHL1  H27C 5102   0.560   2.506   4.350 -0.6077  0.1728 -2.1060
   54CHL1    C3 5103   0.683   3.216   3.132  0.7168 -0.2093 -0.8982
   54CHL1    H3 5104   0.759   3.296   3.139  0.4418  0.2088 -2.2959
   54CHL1    O3 5105   0.694   3.166   2.997  0.0986 -0.1917 -0.4633
   54CHL1   H3' 5106   0.626   3.098   2.992 -2.0603  1.7331  0.8051
   54CHL1    C4 5107   0.732   3.108   3.224  0.3477  0.1928 -0.1517
   54CHL1   H4A 5108   0.665   3.020   3.227 -1.3101  1.3298 -2.0523
   54CHL1   H4B 5109   0.831   3.073   3.187 -1.0801 -1.7325 -2.4333
   54CHL1    C5 5110   0.738   3.148   3.372  0.5534 -0.4492  0.0255
   54CHL1    C6 5111   0.850   3.139   3.445 -0.7077  0.0786 -0.4463
   54CHL1    H6 5112   0.937   3.087   3.404  0.1581  0.5682  0.7222
   54CHL1    C7 5113   0.854   3.186   3.585  0.0943  0.1342  0.7484
   54CHL1   H7A 5114   0.920   3.125   3.651  0.8434  0.6850  0.5223
   54CHL1   H7B 5115   0.903   3.285   3.588 -1.1527  0.7502  2.5721
   54CHL1    C8 5116   0.719   3.211   3.648  0.9936 -0.4516 -0.4569
   54CHL1    H8 5117   0.668   3.116   3.673  1.3884 -0.6843 -0.5303
   54CHL1   C14 5118   0.721   3.298   3.771 -0.0703  0.3836  0.1760
   54CHL1   H14 5119   0.762   3.395   3.736  0.8693  0.3897  1.2370
   54CHL1   C15 5120   0.824   3.261   3.882 -0.5255 -0.6715  0.2240
   54CHL1  H15A 5121   0.812   3.151   3.900  5.7452 -1.6127  0.6398
   54CHL1  H15B 5122   0.929   3.277   3.850 -0.0089  0.1932  2.2132
   54CHL1   C16 5123   0.772   3.342   4.006 -0.0832 -0.0036  0.3427
   54CHL1  H16A 5124   0.758   3.267   4.087 -2.1584  0.1848  0.2102
   54CHL1  H16B 5125   0.853   3.413   4.033  0.6000 -0.8756  0.6510
   54CHL1   C17 5126   0.639   3.417   3.956 -0.6350  0.0318 -0.2516
   54CHL1   H17 5127   0.668   3.514   3.910  3.8374 -0.8396  0.2678
   54CHL1   C13 5128   0.586   3.333   3.839  0.0078 -0.0503 -0.3101
   54CHL1   C18 5129   0.511   3.202   3.874 -0.0537 -0.5057  0.0294
   54CHL1  H18A 5130   0.582   3.148   3.942  0.0660  0.1153  0.4086
   54CHL1  H18B 5131   0.414   3.225   3.923  0.2664  1.2600 -0.1075
   54CHL1  H18C 5132   0.491   3.140   3.784  0.9421 -1.1952  0.2614
   54CHL1   C12 5133   0.500   3.411   3.748 -0.6046  0.2764  0.3125
   54CHL1  H12A 5134   0.406   3.436   3.801 -2.1163 -1.6319 -1.3183
   54CHL1  H12B 5135   0.555   3.503   3.718 -2.7201  1.9042  1.1568
   54CHL1   C11 5136   0.476   3.337   3.618  0.1104 -0.2144  1.3346
   54CHL1  H11A 5137   0.398   3.257   3.623 -0.3466 -0.0188 -1.2572
   54CHL1  H11B 5138   0.443   3.415   3.546  1.7629 -0.9226 -0.2431
   54CHL1    C9 5139   0.617   3.287   3.546  0.4601 -0.1594  0.1721
   54CHL1    H9 5140   0.677   3.379   3.529 -0.1323  0.0717 -0.7394
   54CHL1   C10 5141   0.605   3.215   3.421 -0.0027  0.3114  0.6516
   54CHL1   C19 5142   0.506   3.099   3.437 -0.2817  0.7088  0.5190
   54CHL1  H19A 5143   0.413   3.159   3.427 -0.6680 -0.3083 -3.7894
   54CHL1  H19B 5144   0.494   3.033   3.348 -0.2758  1.5192 -0.0999
   54CHL1  H19C 5145   0.526   3.035   3.526  1.3071  0.9593  0.3595
   54CHL1    C1 5146   0.554   3.316   3.317  0.2444 -0.2535  0.4058
   54CHL1   H1A 5147   0.458   3.356   3.355 -0.4004  0.6938 -2.0664
   54CHL1   H1B 5148   0.623   3.402   3.305  0.2948 -0.5633 -2.1643
   54CHL1    C2 5149   0.544   3.263   3.174  0.6550  0.0099 -0.0932
   54CHL1   H2A 5150   0.499   3.337   3.104 -3.6586 -2.9832 -0.8758
   54CHL1   H2B 5151   0.466   3.184   3.175 -0.7481  1.3279 -0.2074
   54CHL1   C20 5152   0.544   3.442   4.069 -0.1512  0.0051 -0.5309
   54CHL1   H20 5153   0.439   3.455   4.036 -0.0630 -1.0092 -1.2580
   54CHL1   C21 5154   0.589   3.579   4.133  0.6716 -0.9055 -0.1806
   54CHL1  H21A 5155   0.693   3.575   4.172  0.2868  0.6672  1.1059
   54CHL1  H21B 5156   0.529   3.606   4.222  2.0432 -0.9765  0.8085
   54CHL1  H21C 5157   0.577   3.649   4.048 -1.6017 -1.2487 -0.2060
   54CHL1   C22 5158   0.543   3.333   4.185  0.2638 -0.7160  1.2389
   54CHL1  H22A 5159   0.536   3.227   4.151  0.0211 -0.6219  0.9969
   54CHL1  H22B 5160   0.641   3.336   4.237  2.0830  0.9328 -2.0054
   54CHL1   C23 5161   0.436   3.347   4.299  0.6041 -0.3652  0.6157
   54CHL1  H23A 5162   0.439   3.445   4.351 -0.9907 -0.0087  0.0723
   54CHL1  H23B 5163   0.339   3.338   4.246  1.8088 -1.2023 -1.5554
   54CHL1   C24 5164   0.447   3.240   4.408 -0.1206  0.1317  0.3098
   54CHL1  H24A 5165   0.430   3.141   4.361  0.5978 -0.4903  1.3004
   54CHL1  H24B 5166   0.546   3.250   4.457 -0.9686  3.2978  1.5911
   54CHL1   C25 5167   0.350   3.263   4.533 -0.1145  0.8723  0.9437
   54CHL1   H25 5168   0.362   3.367   4.570 -0.1310  1.1578  0.1661
   54CHL1   C26 5169   0.207   3.256   4.489  0.3571 -0.7023 -0.5070
   54CHL1  H26A 5170   0.177   3.348   4.434 -0.2317  0.6094  1.9109
   54CHL1  H26B 5171   0.189   3.158   4.438  0.1320 -1.4998  1.0592
   54CHL1  H26C 5172   0.129   3.251   4.568  0.5667 -2.4419 -0.3796
   54CHL1   C27 5173   0.370   3.160   4.643 -0.3213 -0.1241  0.3467
   54CHL1  H27A 5174   0.325   3.064   4.608  0.1500 -0.7273  1.3573
   54CHL1  H27B 5175   0.473   3.140   4.678 -0.6867  0.0541  1.5794
   54CHL1  H27C 5176   0.305   3.187   4.729  0.6169  1.8889  0.4911
   55CHL1    C3 5177   2.635   4.921   2.702 -0.0432  0.4910  0.3513
   55CHL1    H3 5178   2.543   4.982   2.719  0.2481  0.8711  0.5943
   55CHL1    O3 5179   2.679   4.941   2.574  0.0724  0.3333 -0.1154
   55CHL1   H3' 5180   2.726   4.859   2.555 -1.8693 -1.3079  1.6521
   55CHL1    C4 5181   2.747   4.956   2.809  0.4952  0.0023 -0.6136
   55CHL1   H4A 5182   2.834   4.893   2.781 -0.4354 -0.4847 -2.6011
   55CHL1   H4B 5183   2.771   5.064   2.800 -0.5630  0.2302 -0.7525
   55CHL1    C5 5184   2.700   4.918   2.949 -0.1307 -0.5611  0.2116
   55CHL1    C6 5185   2.689   5.014   3.044  0.4558 -0.3656  0.1379
   55CHL1    H6 5186   2.707   5.119   3.016 -2.0958 -0.5040 -2.4965
   55CHL1    C7 5187   2.644   4.994   3.189  0.0995 -0.0468  0.3071
   55CHL1   H7A 5188   2.706   5.055   3.257 -0.8611  1.6933 -0.3240
   55CHL1   H7B 5189   2.539   5.027   3.204 -0.1289 -1.0286  1.0285
   55CHL1    C8 5190   2.639   4.835   3.226  0.4019 -0.6993  0.5114
   55CHL1    H8 5191   2.746   4.802   3.224  0.2578 -1.1605 -1.4696
   55CHL1   C14 5192   2.574   4.799   3.360  0.2176 -0.0007 -0.0008
   55CHL1   H14 5193   2.470   4.837   3.357  0.5241  1.1999  2.1942
   55CHL1   C15 5194   2.634   4.868   3.483 -0.2920  0.1887  0.1787
   55CHL1  H15A 5195   2.745   4.867   3.486 -0.2871 -1.6047  2.1074
   55CHL1  H15B 5196   2.592   4.971   3.490  0.7179  0.6090  0.2368
   55CHL1   C16 5197   2.582   4.784   3.595  0.3192  0.3631  0.0562
   55CHL1  H16A 5198   2.660   4.741   3.661 -0.3838 -1.2514 -0.1305
   55CHL1  H16B 5199   2.521   4.846   3.665  0.5281  2.5891 -1.6397
   55CHL1   C17 5200   2.504   4.662   3.535  0.2134 -0.2393  0.5249
   55CHL1   H17 5201   2.401   4.704   3.525 -0.3817 -1.1466  2.3452
   55CHL1   C13 5202   2.566   4.651   3.396 -0.8567  0.3711 -1.0217
   55CHL1   C18 5203   2.704   4.583   3.420 -0.1316 -0.2585 -0.5387
   55CHL1  H18A 5204   2.777   4.590   3.337 -0.2247  1.1912 -0.5328
   55CHL1  H18B 5205   2.757   4.625   3.508  0.3501 -0.6553 -0.6308
   55CHL1  H18C 5206   2.686   4.476   3.442 -1.3175  0.3626  1.8189
   55CHL1   C12 5207   2.492   4.580   3.284 -0.2139  0.0902  0.5707
   55CHL1  H12A 5208   2.494   4.470   3.302  3.8116  0.1772  1.5305
   55CHL1  H12B 5209   2.384   4.605   3.276 -0.5397 -1.6681 -1.3700
   55CHL1   C11 5210   2.563   4.605   3.148 -0.3438 -0.2778  0.3190
   55CHL1  H11A 5211   2.668   4.573   3.161 -0.0762 -0.4270 -1.8508
   55CHL1  H11B 5212   2.511   4.546   3.069  0.0809  0.5107 -0.5703
   55CHL1    C9 5213   2.578   4.758   3.113  0.7202  0.5437 -0.0346
   55CHL1    H9 5214   2.478   4.806   3.107  0.5265  0.1838  0.2868
   55CHL1   C10 5215   2.644   4.779   2.970 -0.2445  0.4670  0.3056
   55CHL1   C19 5216   2.766   4.680   2.954 -0.2079  0.1355  0.7079
   55CHL1  H19A 5217   2.850   4.701   3.024  0.5988  2.2342 -0.7710
   55CHL1  H19B 5218   2.745   4.573   2.971 -1.1469  0.3433  0.8764
   55CHL1  H19C 5219   2.801   4.695   2.849 -1.6898 -0.5513  0.0950
   55CHL1    C1 5220   2.544   4.741   2.859  0.2968 -0.3411  0.6581
   55CHL1   H1A 5221   2.513   4.635   2.871  0.2398 -0.2836  1.0520
   55CHL1   H1B 5222   2.459   4.809   2.883  1.6460  0.5187  3.4061
   55CHL1    C2 5223   2.581   4.775   2.716  0.4518  0.1556  0.2751
   55CHL1   H2A 5224   2.491   4.760   2.652 -1.3201 -1.0181  2.8858
   55CHL1   H2B 5225   2.653   4.698   2.681 -3.7437 -3.6059 -1.0254
   55CHL1   C20 5226   2.486   4.540   3.626  0.7880  0.5646  0.2247
   55CHL1   H20 5227   2.570   4.468   3.618  0.3202 -0.1608  1.5729
   55CHL1   C21 5228   2.377   4.454   3.568  0.4300  0.8801 -0.3220
   55CHL1  H21A 5229   2.412   4.421   3.468  2.2980  3.2764 -0.5638
   55CHL1  H21B 5230   2.289   4.521   3.561  0.0659  0.4675  0.2494
   55CHL1  H21C 5231   2.341   4.366   3.625 -0.2906  1.4231  0.0839
   55CHL1   C22 5232   2.465   4.569   3.780  0.0446 -0.3277  0.6264
   55CHL1  H22A 5233   2.555   4.610   3.831  1.1918 -1.1917 -0.6395
   55CHL1  H22B 5234   2.404   4.662   3.771 -1.7312 -1.6291 -2.2140
   55CHL1   C23 5235   2.400   4.462   3.862 -0.0242 -0.3043 -0.0718
   55CHL1  H23A 5236   2.292   4.457   3.834 -0.7247  0.3658  2.2683
   55CHL1  H23B 5237   2.444   4.362   3.841 -2.6259 -1.3027 -1.2802
   55CHL1   C24 5238   2.424   4.506   4.002 -0.4797 -0.3348 -0.1060
   55CHL1  H24A 5239   2.535   4.512   4.012 -0.3532  1.0820 -1.8267
   55CHL1  H24B 5240   2.380   4.607   4.020  0.2351 -0.3612  2.1308
   55CHL1   C25 5241   2.367   4.415   4.111  0.6416 -0.6411 -0.2178
   55CHL1   H25 5242   2.414   4.315   4.099 -0.5657 -1.2658  0.0922
   55CHL1   C26 5243   2.396   4.465   4.254 -0.1876 -0.4844  0.4049
   55CHL1  H26A 5244   2.360   4.389   4.328 -0.0219 -1.1349 -0.1719
   55CHL1  H26B 5245   2.505   4.485   4.264 -0.0827  0.0303 -1.4991
   55CHL1  H26C 5246   2.348   4.565   4.258 -2.8601 -1.6387 -0.5190
   55CHL1   C27 5247   2.215   4.385   4.089 -0.6434 -0.1097 -0.0201
   55CHL1  H27A 5248   2.189   4.342   3.990  2.2497 -1.9683 -0.0881
   55CHL1  H27B 5249   2.180   4.309   4.162  0.6554 -0.6453  0.0714
   55CHL1  H27C 5250   2.157   4.478   4.108  2.1051  2.1298 -1.8249
   56CHL1    C3 5251   4.870   1.202   2.780  0.9252 -0.4517  0.2637
   56CHL1    H3 5252   4.979   1.214   2.801  1.0071  0.8511 -0.7882
   56CHL1    O3 5253   4.839   1.194   2.641  0.1371 -0.0345  0.2189
   56CHL1   H3' 5254   4.768   1.129   2.641 -0.2690  0.4005  0.2867
   56CHL1    C4 5255   4.837   1.077   2.867 -0.2737  0.0148 -0.0122
   56CHL1   H4A 5256   4.726   1.071   2.863 -0.2738 -0.3135  0.4418
   56CHL1   H4B 5257   4.883   0.990   2.816 -1.5273  0.2623 -1.6715
   56CHL1    C5 5258   4.859   1.089   3.013  0.2005 -0.5627 -0.1295
   56CHL1    C6 5259   4.925   0.994   3.079  0.6603  0.4821  0.2458
   56CHL1    H6 5260   4.951   0.908   3.015  1.0187  0.6425  0.1716
   56CHL1    C7 5261   4.953   0.995   3.225  0.1792  0.6265 -0.2423
   56CHL1   H7A 5262   4.930   0.906   3.287 -0.7197  2.0728  1.5854
   56CHL1   H7B 5263   5.061   1.013   3.241  0.9797 -2.9190 -0.7973
   56CHL1    C8 5264   4.861   1.102   3.297 -0.4785  0.3135 -0.4048
   56CHL1    H8 5265   4.759   1.058   3.299 -0.8879  1.1895  2.4938
   56CHL1   C14 5266   4.908   1.119   3.439 -0.4426 -0.5876 -0.5042
   56CHL1   H14 5267   5.013   1.151   3.429 -0.5693 -0.3236 -1.0107
   56CHL1   C15 5268   4.913   1.000   3.537  0.1078  0.3419 -0.5540
   56CHL1  H15A 5269   4.826   0.938   3.506 -0.4959  1.3945 -1.0206
   56CHL1  H15B 5270   5.011   0.948   3.522 -1.2738 -3.2582  1.6736
   56CHL1   C16 5271   4.906   1.063   3.676 -0.0755 -0.0928 -0.0941
   56CHL1  H16A 5272   4.818   1.021   3.729 -0.5270  1.4610  0.4266
   56CHL1  H16B 5273   4.997   1.043   3.736 -0.9515 -2.2970  0.6388
   56CHL1   C17 5274   4.883   1.219   3.656 -0.8096 -0.1498  0.2647
   56CHL1   H17 5275   4.987   1.259   3.659 -1.0519  0.4630  0.6153
   56CHL1   C13 5276   4.830   1.239   3.510  0.0862  0.5112 -0.6251
   56CHL1   C18 5277   4.685   1.205   3.525  0.1226  1.0594 -0.0111
   56CHL1  H18A 5278   4.666   1.124   3.599  2.8931  0.7034  0.3932
   56CHL1  H18B 5279   4.635   1.298   3.561 -0.8645  0.8606 -0.8133
   56CHL1  H18C 5280   4.636   1.185   3.427 -0.0892  1.0131  0.1032
   56CHL1   C12 5281   4.865   1.367   3.444  0.3150 -0.5433  1.0879
   56CHL1  H12A 5282   4.804   1.443   3.497 -0.2321 -1.9084  2.5005
   56CHL1  H12B 5283   4.973   1.395   3.449  0.1456  0.9850 -1.9541
   56CHL1   C11 5284   4.833   1.364   3.291 -0.1233  0.7186 -0.2029
   56CHL1  H11A 5285   4.724   1.386   3.283 -0.1513  0.7253  0.1585
   56CHL1  H11B 5286   4.889   1.448   3.247 -0.8610  1.8892  1.0059
   56CHL1    C9 5287   4.868   1.235   3.217 -0.4146  0.4793 -0.0278
   56CHL1    H9 5288   4.976   1.257   3.204 -0.0045 -1.2758  0.2347
   56CHL1   C10 5289   4.806   1.220   3.078  0.0302  0.2417 -0.1157
   56CHL1   C19 5290   4.650   1.212   3.082  0.0899  0.6787  0.1511
   56CHL1  H19A 5291   4.604   1.188   2.984  0.5356  0.1426  0.0653
   56CHL1  H19B 5292   4.614   1.142   3.161 -1.1594  1.7196  0.5345
   56CHL1  H19C 5293   4.620   1.316   3.106  2.6463  0.9888  2.5550
   56CHL1    C1 5294   4.846   1.340   2.987  0.3785 -0.4817 -0.1045
   56CHL1   H1A 5295   4.803   1.430   3.035  1.0690  1.0701 -2.2429
   56CHL1   H1B 5296   4.957   1.352   2.987  0.1412  2.7576 -1.4382
   56CHL1    C2 5297   4.801   1.332   2.838  0.6826  0.0144 -0.0814
   56CHL1   H2A 5298   4.825   1.422   2.776 -0.7033  1.0112  0.7708
   56CHL1   H2B 5299   4.695   1.310   2.817  0.9366 -0.1719 -1.2311
   56CHL1   C20 5300   4.812   1.273   3.779  0.0734 -0.1285 -0.5092
   56CHL1   H20 5301   4.710   1.228   3.779 -0.1241  0.3043 -0.0022
   56CHL1   C21 5302   4.795   1.422   3.771 -0.2006 -0.2364  0.3205
   56CHL1  H21A 5303   4.731   1.455   3.855  0.7096  3.1280 -0.1634
   56CHL1  H21B 5304   4.741   1.455   3.680 -1.0299 -1.4646  0.3534
   56CHL1  H21C 5305   4.891   1.478   3.783 -0.1485 -0.0673 -0.7545
   56CHL1   C22 5306   4.870   1.217   3.919  0.1187  0.2082  0.3478
   56CHL1  H22A 5307   4.803   1.244   4.003  0.2504  0.4195  0.3856
   56CHL1  H22B 5308   4.861   1.106   3.915  1.1175  0.1073  0.5878
   56CHL1   C23 5309   5.020   1.269   3.939  0.4880  0.9836 -0.0969
   56CHL1  H23A 5310   5.079   1.249   3.847 -1.1132 -1.7822 -0.6291
   56CHL1  H23B 5311   5.000   1.377   3.956 -0.9125  0.4631  1.9614
   56CHL1   C24 5312   5.089   1.216   4.069 -0.8692 -0.1008  0.0846
   56CHL1  H24A 5313   5.146   1.126   4.038 -1.2020  0.0662 -1.0610
   56CHL1  H24B 5314   5.167   1.292   4.093 -0.7850 -0.3371  0.5625
   56CHL1   C25 5315   5.001   1.183   4.186 -0.3090 -0.8014 -0.0768
   56CHL1   H25 5316   4.916   1.115   4.165 -1.1388  0.2555 -0.1915
   56CHL1   C26 5317   5.073   1.105   4.297  0.1057  0.2588  0.2668
   56CHL1  H26A 5318   5.087   1.007   4.245  1.4767  0.5165  0.1247
   56CHL1  H26B 5319   5.171   1.153   4.320 -0.9707  2.4656  0.4918
   56CHL1  H26C 5320   4.999   1.093   4.379 -1.0225  2.1187 -0.4130
   56CHL1   C27 5321   4.949   1.316   4.246  0.1096  0.0627  0.4037
   56CHL1  H27A 5322   5.034   1.384   4.266 -1.6225  2.2746  0.5643
   56CHL1  H27B 5323   4.881   1.369   4.176 -1.1611 -1.5878  0.3122
   56CHL1  H27C 5324   4.894   1.300   4.342  0.4351  0.4822  0.6620
   57CHL1    C3 5325   3.894   5.411   2.781  0.1375 -0.2864 -0.4217
   57CHL1    H3 5326   3.786   5.392   2.798 -0.3153 -2.1591 -4.4101
   57CHL1    O3 5327   3.916   5.394   2.640  0.2853 -0.1354  0.3524
   57CHL1   H3' 5328   3.865   5.317   2.615  0.8688 -0.2244 -0.6335
   57CHL1    C4 5329   3.918   5.554   2.829  0.0241  0.0380 -1.3083
   57CHL1   H4A 5330   4.020   5.584   2.796  1.1033 -0.7312  1.0555
   57CHL1   H4B 5331   3.852   5.628   2.780  0.1375  0.7702 -0.3905
   57CHL1    C5 5332   3.919   5.571   2.978  0.0616 -0.5238  0.6192
   57CHL1    C6 5333   3.847   5.667   3.037  0.5769 -0.7205 -0.6362
   57CHL1    H6 5334   3.792   5.748   2.986  2.8068  1.6999  0.5397
   57CHL1    C7 5335   3.834   5.696   3.183  0.2529 -0.2439 -0.8662
   57CHL1   H7A 5336   3.877   5.799   3.184 -2.3025  0.9139  1.0240
   57CHL1   H7B 5337   3.728   5.698   3.215  0.2230 -0.7811 -0.9310
   57CHL1    C8 5338   3.915   5.601   3.272  0.0510 -0.3997 -0.7637
   57CHL1    H8 5339   4.017   5.643   3.279  0.1176 -0.7946  1.2620
   57CHL1   C14 5340   3.860   5.594   3.414  0.0648 -0.2600  0.0992
   57CHL1   H14 5341   3.767   5.534   3.415  0.1991 -0.4983  2.0905
   57CHL1   C15 5342   3.833   5.733   3.485  0.0308  0.5592 -0.2766
   57CHL1  H15A 5343   3.920   5.799   3.465  0.4114  0.3948  0.7323
   57CHL1  H15B 5344   3.735   5.762   3.443  0.8520  1.4488 -1.6766
   57CHL1   C16 5345   3.829   5.686   3.632 -0.3221  0.1007  0.9160
   57CHL1  H16A 5346   3.908   5.750   3.676  0.6231 -0.4293  0.0204
   57CHL1  H16B 5347   3.730   5.701   3.681 -0.1434  0.0708  1.2882
   57CHL1   C17 5348   3.869   5.535   3.638 -0.9234  0.2722  0.0389
   57CHL1   H17 5349   3.785   5.462   3.636  0.8718 -2.0164  2.0151
   57CHL1   C13 5350   3.945   5.515   3.507  0.7608  0.1159  0.1688
   57CHL1   C18 5351   4.080   5.577   3.526 -0.6371  0.5675 -0.0904
   57CHL1  H18A 5352   4.130   5.598   3.429 -1.0506 -2.4685 -1.0614
   57CHL1  H18B 5353   4.083   5.677   3.574  1.0810 -0.1652  1.4726
   57CHL1  H18C 5354   4.152   5.519   3.588  0.6016 -0.2541 -2.1912
   57CHL1   C12 5355   3.943   5.371   3.455 -0.1798 -0.1723 -0.9299
   57CHL1  H12A 5356   4.007   5.314   3.526 -0.1191  1.0912  0.0609
   57CHL1  H12B 5357   3.836   5.340   3.457 -0.3271  0.3845  0.5054
   57CHL1   C11 5358   4.013   5.365   3.316 -0.3359  0.1317  0.2601
   57CHL1  H11A 5359   4.120   5.396   3.318 -0.4068  0.3602  1.8557
   57CHL1  H11B 5360   4.004   5.262   3.275  0.3911  0.7320 -1.5127
   57CHL1    C9 5361   3.930   5.460   3.214 -0.0691  0.1214  0.2130
   57CHL1    H9 5362   3.828   5.416   3.220  0.5758 -1.3512  1.0827
   57CHL1   C10 5363   3.980   5.459   3.065  0.7324  0.6606 -0.5958
   57CHL1   C19 5364   4.127   5.483   3.070 -0.3368 -0.5314  0.4723
   57CHL1  H19A 5365   4.180   5.397   3.116  2.0502 -0.2078 -1.4910
   57CHL1  H19B 5366   4.159   5.485   2.964 -1.2701 -0.7808  0.1759
   57CHL1  H19C 5367   4.169   5.574   3.116 -0.1503 -0.2615 -0.2240
   57CHL1    C1 5368   3.957   5.315   3.014  0.2252 -0.2792 -0.1306
   57CHL1   H1A 5369   4.035   5.246   3.051  1.1895 -0.7803 -2.8295
   57CHL1   H1B 5370   3.853   5.283   3.035  0.6964 -3.7647 -2.2675
   57CHL1    C2 5371   3.976   5.308   2.862  0.9772 -0.0469  0.3851
   57CHL1   H2A 5372   3.960   5.209   2.812  1.6798  0.8073 -1.6543
   57CHL1   H2B 5373   4.082   5.335   2.845  1.0179 -0.5907 -0.2834
   57CHL1   C20 5374   3.937   5.495   3.769 -0.3291 -0.1584 -0.0151
   57CHL1   H20 5375   4.039   5.539   3.778 -1.3749  2.5196 -0.1836
   57CHL1   C21 5376   3.947   5.343   3.776 -0.1678  0.3486 -0.2299
   57CHL1  H21A 5377   4.032   5.314   3.711 -0.4722  2.5831 -1.7325
   57CHL1  H21B 5378   3.857   5.286   3.743 -0.6115  0.5565  0.6064
   57CHL1  H21C 5379   3.968   5.313   3.881 -1.4937  1.2121  0.3138
   57CHL1   C22 5380   3.863   5.552   3.894 -0.0816 -0.8046  0.3934
   57CHL1  H22A 5381   3.850   5.661   3.877  1.2430 -0.7128 -0.1180
   57CHL1  H22B 5382   3.759   5.512   3.893  0.1078 -1.3415  1.1615
   57CHL1   C23 5383   3.932   5.526   4.030 -0.0903  0.5310  0.5030
   57CHL1  H23A 5384   3.915   5.420   4.060 -2.8781  0.7445 -0.0690
   57CHL1  H23B 5385   4.043   5.539   4.030  0.3516 -1.9972 -2.6813
   57CHL1   C24 5386   3.863   5.627   4.123 -0.5251 -0.4841 -0.2789
   57CHL1  H24A 5387   3.873   5.735   4.099  1.4067 -0.0102  2.2533
   57CHL1  H24B 5388   3.757   5.604   4.099  0.2490 -2.0922 -2.4187
   57CHL1   C25 5389   3.898   5.619   4.276 -1.0185 -0.1850  0.1875
   57CHL1   H25 5390   4.008   5.629   4.283 -0.9779 -0.8694  0.6860
   57CHL1   C26 5391   3.835   5.726   4.365 -0.3065 -0.3482 -0.0761
   57CHL1  H26A 5392   3.860   5.718   4.473  1.4205 -4.5687 -0.5994
   57CHL1  H26B 5393   3.859   5.826   4.324 -1.3916 -1.1755 -3.0133
   57CHL1  H26C 5394   3.727   5.711   4.342 -0.4893  0.1633  0.4297
   57CHL1   C27 5395   3.869   5.475   4.331 -0.2387 -0.6940 -0.5612
   57CHL1  H27A 5396   3.906   5.389   4.270 -2.1800 -1.1668 -1.1477
   57CHL1  H27B 5397   3.916   5.463   4.431  0.6407  1.4338 -0.6845
   57CHL1  H27C 5398   3.759   5.465   4.340 -0.7161  2.2956 -1.8615
   58CHL1    C3 5399   1.360   5.438   3.458  1.1806 -0.5274 -0.3597
   58CHL1    H3 5400   1.363   5.328   3.472 -3.5382 -0.7580  0.6865
   58CHL1    O3 5401   1.385   5.451   3.320 -0.3935 -0.1715  0.0758
   58CHL1   H3' 5402   1.456   5.515   3.327  0.0314 -0.8044  3.3143
   58CHL1    C4 5403   1.224   5.490   3.485 -0.0296 -0.1221  0.4168
   58CHL1   H4A 5404   1.215   5.600   3.474 -0.7233 -0.2101  0.1113
   58CHL1   H4B 5405   1.154   5.444   3.413  2.5284 -1.8287 -1.1267
   58CHL1    C5 5406   1.182   5.456   3.622  0.1530 -0.6095 -0.2729
   58CHL1    C6 5407   1.075   5.374   3.644 -0.1414 -0.1791  0.2450
   58CHL1    H6 5408   1.028   5.335   3.553  2.8214  1.5790 -2.2606
   58CHL1    C7 5409   1.011   5.365   3.779 -0.2187 -0.1935 -0.5488
   58CHL1   H7A 5410   0.903   5.392   3.779  0.0365  0.9378  0.9136
   58CHL1   H7B 5411   1.005   5.259   3.812 -3.1583  0.2249  0.5386
   58CHL1    C8 5412   1.080   5.460   3.892  0.8201 -0.4219  0.4673
   58CHL1    H8 5413   1.029   5.558   3.891 -0.0182 -0.8128 -1.5730
   58CHL1   C14 5414   1.057   5.399   4.026  0.0543  0.4066  0.0100
   58CHL1   H14 5415   1.126   5.313   4.039  1.4836  1.8510  3.2722
   58CHL1   C15 5416   0.923   5.348   4.064  0.3345  0.3832  0.2636
   58CHL1  H15A 5417   0.847   5.423   4.033  1.0165  0.8757 -0.2386
   58CHL1  H15B 5418   0.909   5.251   4.011  2.5908 -0.8477  1.7269
   58CHL1   C16 5419   0.916   5.333   4.209 -0.5546  0.6489  0.0107
   58CHL1  H16A 5420   0.823   5.382   4.246 -0.3395  0.5802  0.6439
   58CHL1  H16B 5421   0.917   5.226   4.238  0.1331  0.9713  1.2244
   58CHL1   C17 5422   1.049   5.399   4.262  0.0755 -0.7644 -0.3228
   58CHL1   H17 5423   1.120   5.313   4.262  0.4312 -0.4761 -0.1232
   58CHL1   C13 5424   1.100   5.480   4.144 -0.1827  1.0199 -0.1360
   58CHL1   C18 5425   1.039   5.628   4.160 -0.4068  0.4346  0.1734
   58CHL1  H18A 5426   1.076   5.673   4.255  0.2461  2.3856 -0.9377
   58CHL1  H18B 5427   1.069   5.694   4.075  0.0388 -1.3024 -1.0749
   58CHL1  H18C 5428   0.929   5.619   4.167 -0.4701  1.3411  0.5676
   58CHL1   C12 5429   1.256   5.499   4.132  0.1647  0.1658  0.0157
   58CHL1  H12A 5430   1.286   5.572   4.210 -2.6271 -1.0306  2.3966
   58CHL1  H12B 5431   1.293   5.399   4.163  0.3761  0.0812 -0.4978
   58CHL1   C11 5432   1.302   5.540   3.989 -0.1763  0.4789 -0.2423
   58CHL1  H11A 5433   1.274   5.647   3.980 -0.4326  0.5343  1.0099
   58CHL1  H11B 5434   1.413   5.540   3.982 -0.2287  1.4754 -1.2597
   58CHL1    C9 5435   1.228   5.471   3.866  0.2929  0.7903 -0.4522
   58CHL1    H9 5436   1.259   5.365   3.865  0.3452  0.8069 -0.9344
   58CHL1   C10 5437   1.273   5.525   3.728  0.3208  1.1310 -0.6733
   58CHL1   C19 5438   1.240   5.672   3.724  0.6162  0.3621  1.0959
   58CHL1  H19A 5439   1.307   5.726   3.794  1.8957  0.1049  0.0904
   58CHL1  H19B 5440   1.254   5.715   3.623 -3.2625 -1.4519 -0.4219
   58CHL1  H19C 5441   1.134   5.696   3.750 -0.0740 -1.4981  0.1592
   58CHL1    C1 5442   1.417   5.493   3.696  0.2497  0.7959 -0.1841
   58CHL1   H1A 5443   1.475   5.560   3.763  0.9743  0.2446 -0.2551
   58CHL1   H1B 5444   1.446   5.391   3.728 -3.2086 -0.6796 -1.2834
   58CHL1    C2 5445   1.456   5.516   3.552  0.3110 -0.4716 -0.1847
   58CHL1   H2A 5446   1.561   5.481   3.541 -0.2391 -1.5576 -3.0386
   58CHL1   H2B 5447   1.444   5.622   3.521 -0.2546 -0.2771  0.6744
   58CHL1   C20 5448   1.031   5.464   4.403  0.3520  0.3437  0.0319
   58CHL1   H20 5449   0.949   5.539   4.397 -1.8233 -1.9904 -2.3491
   58CHL1   C21 5450   1.157   5.520   4.465 -0.0932  0.0026 -0.8125
   58CHL1  H21A 5451   1.210   5.598   4.405  2.4819  1.3519  2.8172
   58CHL1  H21B 5452   1.228   5.442   4.499  0.7754  0.5073 -1.4174
   58CHL1  H21C 5453   1.132   5.581   4.555  0.4075 -0.2841 -0.4709
   58CHL1   C22 5454   0.971   5.355   4.502 -0.3537 -0.4876  0.4382
   58CHL1  H22A 5455   0.873   5.332   4.454 -0.9180  1.0076  0.8092
   58CHL1  H22B 5456   1.031   5.262   4.494 -0.0035 -0.1941 -0.4877
   58CHL1   C23 5457   0.947   5.410   4.648 -0.2310  0.0008  0.2921
   58CHL1  H23A 5458   1.043   5.424   4.701 -0.4728  1.6195  0.3460
   58CHL1  H23B 5459   0.897   5.508   4.639  0.4081  0.2619 -0.5607
   58CHL1   C24 5460   0.862   5.321   4.736  0.2234  0.4279 -0.4763
   58CHL1  H24A 5461   0.776   5.280   4.679  0.7762  0.6828 -1.5045
   58CHL1  H24B 5462   0.924   5.232   4.759 -1.7077 -1.3672 -1.8327
   58CHL1   C25 5463   0.802   5.381   4.862  0.4237  0.6075  0.5282
   58CHL1   H25 5464   0.734   5.466   4.840 -0.1956 -0.1209 -0.4824
   58CHL1   C26 5465   0.710   5.269   4.925  0.7374  0.5335  0.1475
   58CHL1  H26A 5466   0.759   5.171   4.905  0.6977  0.5408  0.0175
   58CHL1  H26B 5467   0.696   5.288   5.034 -0.3923  2.2942 -0.2607
   58CHL1  H26C 5468   0.613   5.279   4.873  1.4870 -0.5409 -1.5156
   58CHL1   C27 5469   0.909   5.411   4.960  0.4837  0.4726 -0.6592
   58CHL1  H27A 5470   0.872   5.478   5.040  0.8744 -0.1931  0.1017
   58CHL1  H27B 5471   0.970   5.326   4.999  0.3122  0.2254 -0.9246
   58CHL1  H27C 5472   0.997   5.458   4.911  1.4166 -0.9601 -0.4222
   59CHL1    C3 5473   1.511   4.836   2.891 -0.5013  0.2127 -0.2389
   59CHL1    H3 5474   1.579   4.924   2.885  2.0795 -1.7449 -1.2454
   59CHL1    O3 5475   1.490   4.793   2.759  0.6924  0.1084  0.3000
   59CHL1   H3' 5476   1.420   4.729   2.773 -1.0674  1.8322 -0.1711
   59CHL1    C4 5477   1.580   4.727   2.978 -0.0499 -0.0811  0.2241
   59CHL1   H4A 5478   1.517   4.636   2.976 -0.9087  0.4987 -1.9808
   59CHL1   H4B 5479   1.677   4.704   2.929  0.2911  2.3514 -0.3741
   59CHL1    C5 5480   1.593   4.783   3.115  0.1877  0.4724  0.2952
   59CHL1    C6 5481   1.704   4.796   3.184 -0.4914  1.0040  0.3932
   59CHL1    H6 5482   1.799   4.761   3.141 -1.2542 -1.2991  0.4138
   59CHL1    C7 5483   1.711   4.837   3.326  0.5165  0.4831 -0.5175
   59CHL1   H7A 5484   1.775   4.763   3.378  0.6351  0.6441 -0.4314
   59CHL1   H7B 5485   1.762   4.936   3.321  1.3358  0.0189 -1.9400
   59CHL1    C8 5486   1.584   4.835   3.404  0.0342 -0.2542 -0.2930
   59CHL1    H8 5487   1.549   4.732   3.427 -0.6253  0.4854  2.3514
   59CHL1   C14 5488   1.595   4.905   3.533 -0.1559 -0.0733  0.3824
   59CHL1   H14 5489   1.607   5.011   3.505  0.0450 -0.2379 -0.1644
   59CHL1   C15 5490   1.704   4.858   3.623  0.3492 -0.1778 -0.1790
   59CHL1  H15A 5491   1.719   4.749   3.615  3.1583  0.1046  0.1746
   59CHL1  H15B 5492   1.799   4.904   3.587 -0.4579 -0.1343 -2.3853
   59CHL1   C16 5493   1.646   4.901   3.760 -0.2129  0.3461 -0.0115
   59CHL1  H16A 5494   1.638   4.811   3.825 -0.2547  0.1705 -0.2571
   59CHL1  H16B 5495   1.707   4.972   3.821 -2.4547  1.0594  1.5253
   59CHL1   C17 5496   1.508   4.963   3.745  1.1772 -0.3479 -0.5710
   59CHL1   H17 5497   1.531   5.071   3.733 -1.8727  0.5350  0.4183
   59CHL1   C13 5498   1.460   4.905   3.614 -0.1363  0.1311  0.3773
   59CHL1   C18 5499   1.401   4.763   3.642 -0.7631 -0.1326 -0.0044
   59CHL1  H18A 5500   1.303   4.772   3.694  0.1425  1.1113  1.5382
   59CHL1  H18B 5501   1.392   4.699   3.551  1.1072 -0.5397  0.0697
   59CHL1  H18C 5502   1.470   4.702   3.704 -0.4003 -0.1330 -0.4056
   59CHL1   C12 5503   1.361   4.995   3.529 -0.6124 -0.3217  0.3027
   59CHL1  H12A 5504   1.262   5.000   3.578 -1.0768  3.2712 -0.7056
   59CHL1  H12B 5505   1.408   5.096   3.523 -0.3052 -0.4665  0.2151
   59CHL1   C11 5506   1.334   4.931   3.392 -0.3384 -0.1336 -0.6417
   59CHL1  H11A 5507   1.290   4.836   3.428 -0.6218  1.0689  2.5194
   59CHL1  H11B 5508   1.263   4.999   3.340 -0.1397  0.9549  0.4557
   59CHL1    C9 5509   1.474   4.904   3.319  0.8030 -0.3213  0.4881
   59CHL1    H9 5510   1.516   5.005   3.299  0.5595 -0.2539  0.3110
   59CHL1   C10 5511   1.458   4.839   3.176  0.4293  0.1695  0.4452
   59CHL1   C19 5512   1.360   4.721   3.202 -0.4891  0.5082 -0.1351
   59CHL1  H19A 5513   1.339   4.675   3.104 -1.5589 -2.7779  1.4897
   59CHL1  H19B 5514   1.408   4.649   3.272  0.5755 -0.6322 -1.9731
   59CHL1  H19C 5515   1.259   4.742   3.245  0.2265  0.6517  1.5769
   59CHL1    C1 5516   1.373   4.928   3.087 -0.2731  0.1402  0.3465
   59CHL1   H1A 5517   1.269   4.948   3.123 -0.4237  0.8672 -0.4748
   59CHL1   H1B 5518   1.432   5.022   3.083  0.5536 -0.3656  0.4531
   59CHL1    C2 5519   1.371   4.886   2.944 -0.1499  0.3646 -0.1188
   59CHL1   H2A 5520   1.338   4.972   2.882 -3.9758 -0.6828  0.1811
   59CHL1   H2B 5521   1.298   4.803   2.931 -1.0481  0.9172  1.2023
   59CHL1   C20 5522   1.417   4.954   3.861  0.2298 -0.8987  0.0753
   59CHL1   H20 5523   1.367   4.855   3.873  0.4179 -1.1595 -1.1526
   59CHL1   C21 5524   1.306   5.058   3.836  0.5328 -0.0114 -0.2778
   59CHL1  H21A 5525   1.338   5.160   3.804 -0.4341  0.8148  1.2852
   59CHL1  H21B 5526   1.254   5.084   3.931  0.6939  0.7352 -0.3848
   59CHL1  H21C 5527   1.229   5.024   3.763 -0.7057  2.6881 -0.3818
   59CHL1   C22 5528   1.481   4.980   3.998  0.0348 -0.0279  0.0100
   59CHL1  H22A 5529   1.408   4.963   4.079  0.3101 -1.4653 -0.0114
   59CHL1  H22B 5530   1.563   4.907   4.015  0.2243 -0.0182 -0.8014
   59CHL1   C23 5531   1.541   5.122   4.021 -0.4809 -0.0162 -0.0039
   59CHL1  H23A 5532   1.619   5.159   3.951  0.4738 -0.0975  1.0042
   59CHL1  H23B 5533   1.458   5.196   4.024 -0.0701  0.4868 -0.7087
   59CHL1   C24 5534   1.605   5.131   4.159  0.5027  0.6478 -0.4665
   59CHL1  H24A 5535   1.533   5.118   4.243 -0.1445  1.3983 -0.8931
   59CHL1  H24B 5536   1.679   5.048   4.169  1.2711  1.4681  0.9488
   59CHL1   C25 5537   1.671   5.263   4.189  0.3420  0.6562 -0.6745
   59CHL1   H25 5538   1.721   5.242   4.286 -1.4210 -1.4107 -0.1288
   59CHL1   C26 5539   1.771   5.309   4.084 -0.4114 -0.0043  0.1879
   59CHL1  H26A 5540   1.720   5.353   3.996 -1.7284  0.6723  1.2528
   59CHL1  H26B 5541   1.856   5.370   4.123 -1.9014  1.4530  1.2892
   59CHL1  H26C 5542   1.825   5.228   4.030 -0.0083 -0.5777  1.3933
   59CHL1   C27 5543   1.578   5.383   4.216  0.2565 -0.8087 -0.1540
   59CHL1  H27A 5544   1.643   5.460   4.263  1.1022 -2.0035  0.7071
   59CHL1  H27B 5545   1.535   5.411   4.118  1.1158  0.9396 -0.0587
   59CHL1  H27C 5546   1.508   5.347   4.295 -0.8219  0.6540 -0.4061
   60CHL1    C3 5547   3.367   4.068   2.905 -0.0941  0.2825  0.5006
   60CHL1    H3 5548   3.313   4.163   2.928 -0.8821 -0.1494  0.4760
   60CHL1    O3 5549   3.432   4.065   2.774 -0.4573  0.2061 -1.1022
   60CHL1   H3' 5550   3.379   4.025   2.705  0.2129 -2.0157 -0.3921
   60CHL1    C4 5551   3.473   4.056   3.017 -0.5672  0.4359  0.1402
   60CHL1   H4A 5552   3.535   3.966   3.000  1.0448  1.5306  0.0354
   60CHL1   H4B 5553   3.532   4.149   3.003  0.7790 -0.7022 -2.5571
   60CHL1    C5 5554   3.418   4.047   3.158 -0.5163  0.1736  0.6215
   60CHL1    C6 5555   3.441   4.134   3.259  0.0584  0.5326  0.1864
   60CHL1    H6 5556   3.511   4.216   3.241  1.4871 -1.1416 -2.5585
   60CHL1    C7 5557   3.379   4.130   3.397 -0.3947 -0.3063  0.0389
   60CHL1   H7A 5558   3.456   4.143   3.475  0.1408  0.2096 -0.5618
   60CHL1   H7B 5559   3.303   4.212   3.400 -0.3871 -0.1861 -1.6530
   60CHL1    C8 5560   3.314   3.992   3.428 -0.8462 -0.0470 -0.4732
   60CHL1    H8 5561   3.391   3.917   3.455  1.0669  1.5347 -1.3346
   60CHL1   C14 5562   3.225   4.007   3.548  0.0152 -0.2364  0.1071
   60CHL1   H14 5563   3.147   4.080   3.516  0.2952  0.0207  0.0098
   60CHL1   C15 5564   3.289   4.066   3.669  0.0039  0.0625 -0.8444
   60CHL1  H15A 5565   3.392   4.024   3.665  0.0941 -0.0831  1.4678
   60CHL1  H15B 5566   3.287   4.176   3.652 -1.8181  0.4876  1.6210
   60CHL1   C16 5567   3.213   4.014   3.795  0.7999 -0.5604 -0.2214
   60CHL1  H16A 5568   3.275   3.941   3.851  0.5585 -1.0097 -0.5308
   60CHL1  H16B 5569   3.181   4.093   3.866  3.0689  0.0846  0.1830
   60CHL1   C17 5570   3.087   3.944   3.728  1.1795  0.3936 -0.0167
   60CHL1   H17 5571   3.010   4.020   3.702  0.1775 -1.1008 -1.6241
   60CHL1   C13 5572   3.141   3.883   3.593  0.8562 -0.0762 -0.8973
   60CHL1   C18 5573   3.239   3.765   3.627  0.3685 -0.1575  0.1236
   60CHL1  H18A 5574   3.172   3.678   3.641 -2.1867  1.5977 -0.5066
   60CHL1  H18B 5575   3.302   3.743   3.538 -2.5930 -0.3536 -2.0686
   60CHL1  H18C 5576   3.291   3.780   3.724  1.5483  1.7765 -0.7472
   60CHL1   C12 5577   3.057   3.843   3.465  0.3268 -0.1423  0.1296
   60CHL1  H12A 5578   2.996   3.754   3.491  0.0983  0.2374  0.9200
   60CHL1  H12B 5579   2.983   3.925   3.453  1.2321  0.7226  0.3005
   60CHL1   C11 5580   3.154   3.820   3.342 -0.5292  0.1231  0.0760
   60CHL1  H11A 5581   3.213   3.729   3.364  0.3896  0.6440 -0.1624
   60CHL1  H11B 5582   3.096   3.795   3.251 -0.1684 -0.2316 -0.0549
   60CHL1    C9 5583   3.235   3.940   3.310 -0.1507  0.1104 -0.2906
   60CHL1    H9 5584   3.158   4.018   3.292 -0.6906 -0.6634 -1.4522
   60CHL1   C10 5585   3.313   3.937   3.178 -0.0607  0.6513  0.0983
   60CHL1   C19 5586   3.395   3.803   3.179 -0.4606  0.1833 -0.3519
   60CHL1  H19A 5587   3.415   3.774   3.284 -0.7127 -0.6344 -0.5155
   60CHL1  H19B 5588   3.349   3.710   3.139 -0.2339 -0.9626  1.8863
   60CHL1  H19C 5589   3.490   3.819   3.124  2.0034  1.5867  3.9177
   60CHL1    C1 5590   3.215   3.939   3.058  0.3058 -0.5387  0.4595
   60CHL1   H1A 5591   3.149   3.850   3.061 -0.2960 -0.0874  2.7300
   60CHL1   H1B 5592   3.149   4.026   3.074  0.8930  0.3697 -1.6935
   60CHL1    C2 5593   3.274   3.944   2.917  0.6571 -0.1886 -0.1715
   60CHL1   H2A 5594   3.192   3.931   2.843 -0.1615 -1.3226  0.8841
   60CHL1   H2B 5595   3.333   3.855   2.887  2.8248  1.4271 -0.9368
   60CHL1   C20 5596   3.026   3.838   3.822 -0.5550 -0.6841 -0.1699
   60CHL1   H20 5597   3.083   3.744   3.831 -0.9447 -1.1694 -2.3026
   60CHL1   C21 5598   2.889   3.811   3.760  0.5893  0.4984 -0.6521
   60CHL1  H21A 5599   2.889   3.775   3.655  1.0761 -1.0473 -0.1457
   60CHL1  H21B 5600   2.832   3.907   3.758 -2.3246 -1.1259 -0.2607
   60CHL1  H21C 5601   2.821   3.751   3.823 -2.0447  0.0678 -3.6526
   60CHL1   C22 5602   3.010   3.891   3.967  0.6117 -0.0736  0.2595
   60CHL1  H22A 5603   3.107   3.927   4.008  2.1698 -0.2708 -2.9231
   60CHL1  H22B 5604   2.945   3.981   3.960  2.0360  0.9619 -0.2449
   60CHL1   C23 5605   2.973   3.776   4.068  0.4363  0.4095 -0.0119
   60CHL1  H23A 5606   2.931   3.689   4.013 -1.2006  0.3301  1.2728
   60CHL1  H23B 5607   3.057   3.730   4.124 -0.6602 -2.3896 -0.5178
   60CHL1   C24 5608   2.872   3.827   4.166  0.0028 -0.3150  0.1633
   60CHL1  H24A 5609   2.921   3.911   4.219 -1.5100 -0.2148  1.4952
   60CHL1  H24B 5610   2.789   3.868   4.105 -1.7380 -1.2458  1.7626
   60CHL1   C25 5611   2.811   3.729   4.270 -1.1060 -0.1671 -0.0724
   60CHL1   H25 5612   2.894   3.677   4.322 -1.9758 -0.1417  1.3883
   60CHL1   C26 5613   2.733   3.802   4.377  0.3493  0.4603 -0.0094
   60CHL1  H26A 5614   2.725   3.727   4.459 -1.3685  0.1485 -0.4310
   60CHL1  H26B 5615   2.784   3.897   4.402  0.0265  1.1175 -1.7204
   60CHL1  H26C 5616   2.633   3.843   4.350  1.1219  0.7903 -2.6063
   60CHL1   C27 5617   2.719   3.625   4.202  0.8483  0.5914 -0.2883
   60CHL1  H27A 5618   2.621   3.664   4.166  1.1665 -1.1665 -3.4126
   60CHL1  H27B 5619   2.764   3.588   4.107  0.6915 -0.8792  0.1739
   60CHL1  H27C 5620   2.700   3.547   4.279 -1.8729  1.6418  0.2278
   61CHL1    C3 5621   2.491   5.978   2.963  0.2526 -0.2374 -0.3419
   61CHL1    H3 5622   2.453   5.875   2.942 -2.3452  0.8180 -1.2576
   61CHL1    O3 5623   2.480   6.060   2.842 -0.1344  0.7409  0.0788
   61CHL1   H3' 5624   2.386   6.077   2.832 -0.6344 -1.3189  0.9501
   61CHL1    C4 5625   2.386   6.036   3.072 -0.2680 -0.1804  0.1813
   61CHL1   H4A 5626   2.408   6.145   3.077  2.1132 -0.6118  0.2279
   61CHL1   H4B 5627   2.284   6.026   3.029  1.0657 -2.2716 -2.7975
   61CHL1    C5 5628   2.403   5.961   3.198  0.6831 -0.2068 -0.0929
   61CHL1    C6 5629   2.303   5.893   3.260  0.0836 -0.2567 -0.2921
   61CHL1    H6 5630   2.200   5.904   3.222  0.3488  2.3114 -0.4341
   61CHL1    C7 5631   2.313   5.821   3.386  0.3268  0.5840 -0.4595
   61CHL1   H7A 5632   2.218   5.847   3.436 -0.8855 -2.3551 -1.0245
   61CHL1   H7B 5633   2.307   5.715   3.351  0.0172 -0.1152  1.5700
   61CHL1    C8 5634   2.444   5.856   3.465  0.2026  0.4185  0.3188
   61CHL1    H8 5635   2.432   5.963   3.494 -0.2124  1.0572 -2.0274
   61CHL1   C14 5636   2.463   5.760   3.582  0.0896 -0.0886 -0.0078
   61CHL1   H14 5637   2.470   5.657   3.540 -0.6732 -0.2257  0.1822
   61CHL1   C15 5638   2.345   5.744   3.687  0.0900 -0.5797 -0.2901
   61CHL1  H15A 5639   2.295   5.839   3.716  1.3927 -0.1891  0.7458
   61CHL1  H15B 5640   2.279   5.670   3.637 -1.6458  1.4158 -1.1357
   61CHL1   C16 5641   2.417   5.692   3.808 -0.3199 -0.1654  0.1542
   61CHL1  H16A 5642   2.410   5.759   3.896  3.3173 -0.7826  1.0729
   61CHL1  H16B 5643   2.371   5.600   3.851 -0.1166  0.3353  1.4886
   61CHL1   C17 5644   2.562   5.677   3.768  0.0106 -1.0872 -0.0549
   61CHL1   H17 5645   2.575   5.577   3.722 -0.0411 -1.1238  0.0092
   61CHL1   C13 5646   2.588   5.778   3.659 -0.3714  0.1953  0.0865
   61CHL1   C18 5647   2.587   5.920   3.718 -0.3216 -0.2636  0.1398
   61CHL1  H18A 5648   2.603   5.997   3.640  2.7002 -0.2256  0.6442
   61CHL1  H18B 5649   2.486   5.948   3.753 -0.1851 -0.0670  0.3819
   61CHL1  H18C 5650   2.661   5.938   3.799  0.5276 -0.5305 -0.5481
   61CHL1   C12 5651   2.710   5.767   3.569 -0.4216  0.2736  0.0542
   61CHL1  H12A 5652   2.792   5.791   3.639 -0.9378  0.6795  0.5253
   61CHL1  H12B 5653   2.727   5.661   3.541  0.4653  0.0370  1.4160
   61CHL1   C11 5654   2.694   5.854   3.441 -0.9198  0.6406  0.1890
   61CHL1  H11A 5655   2.728   5.957   3.464  0.3155  0.1758  0.5338
   61CHL1  H11B 5656   2.779   5.822   3.378  0.1587  3.0434  0.3115
   61CHL1    C9 5657   2.563   5.858   3.365  0.3050 -0.0370 -0.3766
   61CHL1    H9 5658   2.557   5.757   3.320 -1.5803 -0.0015 -0.2758
   61CHL1   C10 5659   2.549   5.958   3.253 -0.3263  0.7826  1.1826
   61CHL1   C19 5660   2.566   6.099   3.312  0.2639 -0.1479 -0.2185
   61CHL1  H19A 5661   2.572   6.164   3.222  0.4828  0.8826  0.5181
   61CHL1  H19B 5662   2.485   6.138   3.377 -0.2701  2.3176 -2.1939
   61CHL1  H19C 5663   2.663   6.117   3.362 -0.4319  0.0922  1.0850
   61CHL1    C1 5664   2.653   5.923   3.140 -0.7772 -0.0620 -0.6201
   61CHL1   H1A 5665   2.751   5.961   3.178 -0.3849 -0.2432 -1.4235
   61CHL1   H1B 5666   2.669   5.814   3.126  0.8505  0.2155 -1.1404
   61CHL1    C2 5667   2.635   5.987   3.003  0.9469  0.2233  0.8033
   61CHL1   H2A 5668   2.708   5.939   2.933  0.0576  0.8595 -0.6018
   61CHL1   H2B 5669   2.670   6.092   3.008  1.7988  0.0343 -0.5391
   61CHL1   C20 5670   2.643   5.676   3.895 -0.1652 -0.5239 -0.8069
   61CHL1   H20 5671   2.661   5.783   3.917  2.2296 -0.7100 -1.6528
   61CHL1   C21 5672   2.772   5.603   3.854  0.0339  0.2482 -0.4505
   61CHL1  H21A 5673   2.850   5.600   3.933 -1.2370 -0.0792  0.8196
   61CHL1  H21B 5674   2.829   5.660   3.778  1.6683  0.7787  1.1176
   61CHL1  H21C 5675   2.746   5.505   3.808  1.8805  0.2163 -1.5039
   61CHL1   C22 5676   2.576   5.597   4.014 -0.5910 -0.1397 -0.0518
   61CHL1  H22A 5677   2.488   5.650   4.055 -0.0134 -0.8208  2.2241
   61CHL1  H22B 5678   2.534   5.502   3.973  0.9358 -0.9958  0.2723
   61CHL1   C23 5679   2.660   5.575   4.141 -0.3320  0.0449  0.1236
   61CHL1  H23A 5680   2.752   5.514   4.129 -0.8677 -1.0168  1.2608
   61CHL1  H23B 5681   2.694   5.677   4.170  0.1830  1.1512 -3.7068
   61CHL1   C24 5682   2.582   5.524   4.258  0.5263 -0.4684  0.2935
   61CHL1  H24A 5683   2.503   5.598   4.280  0.6490 -0.7801  1.9567
   61CHL1  H24B 5684   2.525   5.433   4.229  0.7596 -0.5254  0.0052
   61CHL1   C25 5685   2.663   5.486   4.385  0.5013  0.9618  0.0110
   61CHL1   H25 5686   2.733   5.402   4.367 -1.4543 -0.1010 -4.0319
   61CHL1   C26 5687   2.745   5.607   4.448  0.3884  0.9020  1.0977
   61CHL1  H26A 5688   2.774   5.583   4.552  1.5736 -2.2395  0.1627
   61CHL1  H26B 5689   2.832   5.638   4.386 -0.2209 -0.9594 -0.8134
   61CHL1  H26C 5690   2.667   5.687   4.448 -4.2409 -3.0804 -0.3326
   61CHL1   C27 5691   2.564   5.434   4.496 -0.0811  0.2443  0.7789
   61CHL1  H27A 5692   2.625   5.396   4.581  1.2921  0.0891 -0.2402
   61CHL1  H27B 5693   2.493   5.511   4.533  0.5361  0.6996  1.0462
   61CHL1  H27C 5694   2.500   5.361   4.442  1.5903  0.3298 -1.4625
   62CHL1    C3 5695   5.266   0.541   3.141  0.8410  0.1373 -0.2589
   62CHL1    H3 5696   5.303   0.635   3.186  0.2528 -0.8176  2.4083
   62CHL1    O3 5697   5.225   0.571   3.011 -0.1307  0.0487  0.2781
   62CHL1   H3' 5698   5.235   0.485   2.971 -2.0363 -0.0186 -0.1343
   62CHL1    C4 5699   5.357   0.428   3.143 -0.4478 -0.2181 -0.5844
   62CHL1   H4A 5700   5.315   0.348   3.079  1.5229 -0.9258 -1.0675
   62CHL1   H4B 5701   5.450   0.447   3.086  1.7136  0.7641  2.9380
   62CHL1    C5 5702   5.390   0.387   3.288 -0.0456 -0.1364  0.2532
   62CHL1    C6 5703   5.515   0.368   3.323  0.4375  0.6719 -0.4180
   62CHL1    H6 5704   5.600   0.379   3.254  2.3984 -1.8356  1.3875
   62CHL1    C7 5705   5.560   0.335   3.461  1.1299 -0.1989  0.1096
   62CHL1   H7A 5706   5.631   0.249   3.457 -0.1004 -1.2039 -1.4233
   62CHL1   H7B 5707   5.620   0.412   3.514 -0.6187  1.3351 -0.0415
   62CHL1    C8 5708   5.443   0.297   3.558 -0.4902  0.6127  0.1850
   62CHL1    H8 5709   5.412   0.194   3.529 -0.0803  0.3203  0.7582
   62CHL1   C14 5710   5.480   0.295   3.703 -0.1524  0.4916 -0.2750
   62CHL1   H14 5711   5.504   0.398   3.738 -1.6748  0.8410 -0.1935
   62CHL1   C15 5712   5.603   0.207   3.732  0.5293 -0.3420  0.0061
   62CHL1  H15A 5713   5.602   0.107   3.683  0.2590 -1.8441  2.8562
   62CHL1  H15B 5714   5.697   0.262   3.711  0.3456 -0.6356 -1.7924
   62CHL1   C16 5715   5.586   0.187   3.883 -1.1243  0.1407 -0.1139
   62CHL1  H16A 5716   5.599   0.078   3.903 -1.1564  0.5159  2.2556
   62CHL1  H16B 5717   5.666   0.242   3.937 -3.3557  1.9846  1.5707
   62CHL1   C17 5718   5.448   0.240   3.928 -0.2933 -0.6277 -0.2868
   62CHL1   H17 5719   5.464   0.348   3.951  0.7196 -0.7030 -0.5850
   62CHL1   C13 5720   5.373   0.240   3.796  0.4653 -0.0229 -0.3865
   62CHL1   C18 5721   5.335   0.097   3.765  0.1750  0.4409 -0.0337
   62CHL1  H18A 5722   5.415   0.028   3.797  0.6657  0.7436 -0.5836
   62CHL1  H18B 5723   5.255   0.070   3.838  0.0745  1.9819  0.4713
   62CHL1  H18C 5724   5.290   0.073   3.666 -0.1807 -1.0719  0.4754
   62CHL1   C12 5725   5.257   0.346   3.781  0.2628 -0.0302  0.3283
   62CHL1  H12A 5726   5.164   0.327   3.840  0.0335  1.8280  0.6229
   62CHL1  H12B 5727   5.286   0.446   3.818  2.0440 -0.5550  0.4164
   62CHL1   C11 5728   5.210   0.350   3.635 -0.4553  0.0099  0.4477
   62CHL1  H11A 5729   5.150   0.258   3.613 -0.5551 -0.5252  2.7328
   62CHL1  H11B 5730   5.134   0.430   3.621 -1.0305 -0.7518 -1.1214
   62CHL1    C9 5731   5.321   0.375   3.530 -0.1325  0.3363  0.5140
   62CHL1    H9 5732   5.351   0.480   3.551 -2.3728  1.3588 -1.0207
   62CHL1   C10 5733   5.274   0.375   3.381 -0.4465 -0.1616  1.2058
   62CHL1   C19 5734   5.199   0.243   3.348 -0.3009 -0.2215  0.0496
   62CHL1  H19A 5735   5.107   0.234   3.410 -1.1019  0.7531 -0.9568
   62CHL1  H19B 5736   5.170   0.247   3.241 -0.3209 -0.1031  0.0599
   62CHL1  H19C 5737   5.264   0.154   3.365  1.7368  0.8358 -1.6942
   62CHL1    C1 5738   5.168   0.495   3.363  0.1549 -0.4829  0.0165
   62CHL1   H1A 5739   5.075   0.459   3.412 -0.6062 -0.5186 -1.3999
   62CHL1   H1B 5740   5.206   0.582   3.420 -1.3237 -1.6348  2.9561
   62CHL1    C2 5741   5.137   0.527   3.218 -0.1735 -0.1736  1.1119
   62CHL1   H2A 5742   5.080   0.621   3.228  1.7225  0.9047  2.5161
   62CHL1   H2B 5743   5.065   0.457   3.170 -0.4909  0.9521 -0.0992
   62CHL1   C20 5744   5.398   0.171   4.054 -0.2016  0.3085 -0.0467
   62CHL1   H20 5745   5.394   0.060   4.049 -0.2833  0.2608  0.9356
   62CHL1   C21 5746   5.252   0.203   4.086 -0.1065 -0.1241  0.4317
   62CHL1  H21A 5747   5.217   0.190   4.190  0.5740 -0.2517  0.6533
   62CHL1  H21B 5748   5.176   0.155   4.020 -1.7733  0.7381  1.6695
   62CHL1  H21C 5749   5.243   0.313   4.073 -0.3621 -0.1376  0.4924
   62CHL1   C22 5750   5.488   0.198   4.174 -0.5672 -0.7507 -0.4095
   62CHL1  H22A 5751   5.594   0.199   4.141 -0.2110  0.6091  0.6901
   62CHL1  H22B 5752   5.469   0.301   4.210  1.4848 -0.4886  0.0203
   62CHL1   C23 5753   5.482   0.111   4.301 -0.2629  0.8492 -0.6275
   62CHL1  H23A 5754   5.382   0.130   4.346 -1.0791 -1.9463 -1.0165
   62CHL1  H23B 5755   5.490   0.003   4.275  0.3373 -0.2154  3.3438
   62CHL1   C24 5756   5.602   0.133   4.391  0.0903 -0.1334 -0.2227
   62CHL1  H24A 5757   5.694   0.146   4.331  2.0088  1.3347  2.7649
   62CHL1  H24B 5758   5.589   0.237   4.429 -1.1002  0.7087 -2.7392
   62CHL1   C25 5759   5.604   0.032   4.514  0.7571  0.0016 -0.6169
   62CHL1   H25 5760   5.603  -0.072   4.472 -1.4801 -1.4561  2.6606
   62CHL1   C26 5761   5.723   0.058   4.607  0.2796 -0.1416 -0.5319
   62CHL1  H26A 5762   5.719  -0.014   4.692  0.6264 -2.2597 -2.2276
   62CHL1  H26B 5763   5.817   0.034   4.554  0.1811 -1.4126 -0.1571
   62CHL1  H26C 5764   5.727   0.167   4.630  0.3818 -0.4429  1.0040
   62CHL1   C27 5765   5.491   0.026   4.607 -0.8194 -0.0923  0.0340
   62CHL1  H27A 5766   5.516  -0.044   4.690  2.0852  1.1885  0.3748
   62CHL1  H27B 5767   5.450   0.126   4.632  1.3777  1.1398 -1.0302
   62CHL1  H27C 5768   5.407  -0.019   4.550  0.0595 -0.6802 -0.8359
   63CHL1    C3 5769   4.993   2.787   2.581  0.5829  0.1728  0.1914
   63CHL1    H3 5770   5.049   2.881   2.600  1.6304  0.4444 -3.5261
   63CHL1    O3 5771   4.988   2.773   2.442 -0.1861 -0.2408 -0.0589
   63CHL1   H3' 5772   4.934   2.694   2.427  1.0527 -1.6431  2.3485
   63CHL1    C4 5773   5.076   2.670   2.638  0.5562 -0.1189 -0.7600
   63CHL1   H4A 5774   5.042   2.571   2.601  0.2002 -0.6995  1.0226
   63CHL1   H4B 5775   5.173   2.677   2.585  1.3704 -2.3658  0.2866
   63CHL1    C5 5776   5.073   2.671   2.790 -0.1831 -0.6567  0.0913
   63CHL1    C6 5777   5.189   2.661   2.852 -0.5275 -0.4861  0.2282
   63CHL1    H6 5778   5.285   2.644   2.802 -0.0232  2.2416  0.1131
   63CHL1    C7 5779   5.201   2.667   2.998 -0.0100 -0.0618 -0.5220
   63CHL1   H7A 5780   5.263   2.583   3.036  1.2391  0.9868 -0.1628
   63CHL1   H7B 5781   5.244   2.765   3.029  0.1614 -0.5120  0.7297
   63CHL1    C8 5782   5.062   2.647   3.082  0.7203  0.9055 -0.3879
   63CHL1    H8 5783   5.047   2.537   3.082 -1.1389  1.0242  3.0215
   63CHL1   C14 5784   5.070   2.701   3.226  0.5944 -0.8521 -0.2408
   63CHL1   H14 5785   5.091   2.810   3.216 -3.1273  0.0330  0.2695
   63CHL1   C15 5786   5.176   2.652   3.321  0.2856  0.2613 -0.6967
   63CHL1  H15A 5787   5.180   2.541   3.321  1.1128  0.1993  2.4289
   63CHL1  H15B 5788   5.279   2.687   3.298  0.0757  2.1451  0.9927
   63CHL1   C16 5789   5.126   2.678   3.461  0.3038  0.4564 -0.0643
   63CHL1  H16A 5790   5.132   2.581   3.515  1.5847  1.5693  1.9281
   63CHL1  H16B 5791   5.183   2.754   3.519 -0.0294 -0.0841  1.0129
   63CHL1   C17 5792   4.983   2.729   3.446  0.0495  0.1319  0.0238
   63CHL1   H17 5793   4.978   2.840   3.443  1.1649  0.2237  0.7626
   63CHL1   C13 5794   4.943   2.687   3.303  0.0754  0.2049 -0.2360
   63CHL1   C18 5795   4.904   2.537   3.312  0.0348 -0.2111  0.6370
   63CHL1  H18A 5796   4.986   2.480   3.362  0.3528 -0.9454 -0.6499
   63CHL1  H18B 5797   4.819   2.539   3.383  0.6504  2.2801  1.3903
   63CHL1  H18C 5798   4.874   2.496   3.213 -2.4489 -0.9485  1.6432
   63CHL1   C12 5799   4.837   2.773   3.231  0.1114 -0.4479  0.1229
   63CHL1  H12A 5800   4.733   2.768   3.271 -0.9522  0.1208 -2.3974
   63CHL1  H12B 5801   4.871   2.878   3.237  1.3180 -0.8857  1.6718
   63CHL1   C11 5802   4.815   2.727   3.088 -0.0175 -0.5168  0.2959
   63CHL1  H11A 5803   4.771   2.625   3.092 -0.5633 -0.2601  0.9687
   63CHL1  H11B 5804   4.740   2.782   3.027  1.6364  0.6443 -0.7753
   63CHL1    C9 5805   4.952   2.724   3.006 -0.2737  0.0680  0.0273
   63CHL1    H9 5806   4.982   2.831   3.014  0.2234  0.0340 -1.1587
   63CHL1   C10 5807   4.938   2.690   2.860 -0.4731 -0.7375 -0.4790
   63CHL1   C19 5808   4.878   2.547   2.850  0.4317  0.4332 -0.2704
   63CHL1  H19A 5809   4.937   2.469   2.903  2.7289  1.8830 -0.5934
   63CHL1  H19B 5810   4.777   2.549   2.897 -0.1811 -1.2947 -1.4034
   63CHL1  H19C 5811   4.864   2.511   2.746 -1.8573 -1.9458  0.7370
   63CHL1    C1 5812   4.852   2.796   2.785  0.3549 -0.0998 -0.1116
   63CHL1   H1A 5813   4.746   2.792   2.818  0.7360 -0.0289  1.1598
   63CHL1   H1B 5814   4.885   2.895   2.821 -1.4856  1.6477 -2.8486
   63CHL1    C2 5815   4.854   2.796   2.633  0.0578  0.8290  0.8967
   63CHL1   H2A 5816   4.795   2.879   2.587  0.3627  2.2730  2.9865
   63CHL1   H2B 5817   4.797   2.707   2.598  1.8950 -0.1736  0.3335
   63CHL1   C20 5818   4.882   2.699   3.562  0.1180 -0.2594 -0.3164
   63CHL1   H20 5819   4.880   2.589   3.577  2.8784 -0.4041 -0.6285
   63CHL1   C21 5820   4.735   2.740   3.542  0.4896 -0.1371  0.3732
   63CHL1  H21A 5821   4.688   2.697   3.451  0.8225 -0.7830  0.5013
   63CHL1  H21B 5822   4.742   2.849   3.521  1.3630 -0.0528  1.0628
   63CHL1  H21C 5823   4.668   2.716   3.628  0.2121 -0.9918 -0.0741
   63CHL1   C22 5824   4.938   2.765   3.685  0.1586  1.0871 -0.1415
   63CHL1  H22A 5825   5.042   2.731   3.702 -0.0632  1.5172  2.4228
   63CHL1  H22B 5826   4.947   2.876   3.686 -3.5324  1.5774  2.7602
   63CHL1   C23 5827   4.863   2.730   3.815  0.5296  0.1829 -0.0676
   63CHL1  H23A 5828   4.774   2.795   3.831  1.0035  0.2617  2.6716
   63CHL1  H23B 5829   4.825   2.627   3.796 -1.9405  1.2281 -1.2319
   63CHL1   C24 5830   4.943   2.765   3.933 -0.0594  0.2200 -0.2336
   63CHL1  H24A 5831   5.040   2.712   3.921 -0.1232  0.1802 -0.6063
   63CHL1  H24B 5832   4.976   2.870   3.921  1.3100 -0.0153  1.1279
   63CHL1   C25 5833   4.880   2.739   4.069 -0.0240  1.2088  0.0252
   63CHL1   H25 5834   4.804   2.658   4.066 -0.8832  2.0122 -0.4114
   63CHL1   C26 5835   4.993   2.712   4.171 -0.4328 -0.4732  0.5361
   63CHL1  H26A 5836   4.953   2.684   4.271 -0.8449 -0.2126  0.4494
   63CHL1  H26B 5837   5.035   2.613   4.146 -2.3852 -1.0213 -0.8399
   63CHL1  H26C 5838   5.070   2.793   4.169 -2.8514  2.0345  1.5373
   63CHL1   C27 5839   4.813   2.863   4.127  0.1925 -0.4881 -0.1005
   63CHL1  H27A 5840   4.885   2.946   4.141 -0.3441  0.3158 -1.7727
   63CHL1  H27B 5841   4.740   2.896   4.050  2.7791  1.9385 -1.7269
   63CHL1  H27C 5842   4.758   2.835   4.220  0.9580 -1.5653  0.0439
   64CHL1    C3 5843   6.498   3.687   3.052  0.2475  0.8719  0.3191
   64CHL1    H3 5844   6.445   3.595   3.086 -2.1498  2.9176  2.6424
   64CHL1    O3 5845   6.463   3.702   2.915  0.0298 -0.1878 -0.2601
   64CHL1   H3' 5846   6.506   3.628   2.871  3.3603  0.0851  2.1980
   64CHL1    C4 5847   6.441   3.808   3.132 -0.7056 -1.2812  0.6065
   64CHL1   H4A 5848   6.492   3.892   3.079 -0.0927 -2.9291 -1.5482
   64CHL1   H4B 5849   6.337   3.833   3.101 -0.3847 -2.1498 -1.3298
   64CHL1    C5 5850   6.468   3.799   3.279  0.1320 -0.2047 -0.8420
   64CHL1    C6 5851   6.365   3.803   3.367  0.2761 -0.5674 -0.3579
   64CHL1    H6 5852   6.264   3.818   3.326 -0.1643 -3.0576 -0.3329
   64CHL1    C7 5853   6.375   3.799   3.519  0.6865  1.0551 -0.5881
   64CHL1   H7A 5854   6.322   3.881   3.571  0.5273  0.9906 -0.6479
   64CHL1   H7B 5855   6.328   3.707   3.561 -0.3838  1.5812 -0.5950
   64CHL1    C8 5856   6.526   3.794   3.564  0.2068 -0.3323 -0.3353
   64CHL1    H8 5857   6.559   3.900   3.563  2.1935 -0.8844 -2.1403
   64CHL1   C14 5858   6.529   3.747   3.712  0.4078 -0.4953  0.2313
   64CHL1   H14 5859   6.501   3.640   3.701  0.3695 -0.4391 -0.2649
   64CHL1   C15 5860   6.431   3.803   3.813  0.8971 -0.4308  0.3072
   64CHL1  H15A 5861   6.433   3.914   3.818  2.0330 -0.4184 -0.2213
   64CHL1  H15B 5862   6.326   3.766   3.802 -0.2684  2.2350  1.6225
   64CHL1   C16 5863   6.503   3.753   3.942 -0.0369  0.4301  0.3176
   64CHL1  H16A 5864   6.534   3.843   4.001  0.4177  0.6790 -0.2883
   64CHL1  H16B 5865   6.441   3.677   3.994  0.8269 -2.6895 -2.8132
   64CHL1   C17 5866   6.644   3.691   3.904  0.2686 -0.3679 -0.4922
   64CHL1   H17 5867   6.630   3.580   3.905  1.9145 -0.6186  1.6203
   64CHL1   C13 5868   6.671   3.748   3.765 -0.2343  0.3582 -0.4047
   64CHL1   C18 5869   6.741   3.897   3.781  0.1399 -0.4987  0.5652
   64CHL1  H18A 5870   6.683   3.966   3.846 -1.4713  0.1253 -1.4219
   64CHL1  H18B 5871   6.843   3.890   3.825  1.9357  0.4216 -3.0422
   64CHL1  H18C 5872   6.746   3.942   3.679 -0.4728  0.4384  0.9322
   64CHL1   C12 5873   6.746   3.649   3.678 -0.3187  0.7647 -0.4137
   64CHL1  H12A 5874   6.846   3.645   3.726 -0.6670 -0.1733  0.2716
   64CHL1  H12B 5875   6.713   3.547   3.707  0.2472  1.2152  2.0851
   64CHL1   C11 5876   6.747   3.693   3.534 -0.0499  0.4792 -0.2600
   64CHL1  H11A 5877   6.801   3.790   3.534 -0.1878  0.5673 -1.0842
   64CHL1  H11B 5878   6.801   3.608   3.487 -0.3189 -0.2578  0.7342
   64CHL1    C9 5879   6.605   3.713   3.468 -0.0157 -0.2446 -0.9775
   64CHL1    H9 5880   6.559   3.612   3.461 -2.3096  0.8303 -2.3225
   64CHL1   C10 5881   6.611   3.768   3.321 -0.0414  0.1537 -0.3737
   64CHL1   C19 5882   6.689   3.902   3.317  0.3783  0.2199 -0.5407
   64CHL1  H19A 5883   6.697   3.941   3.214  1.1051 -0.9350 -0.9392
   64CHL1  H19B 5884   6.640   3.980   3.380  1.2694  1.2091 -1.0416
   64CHL1  H19C 5885   6.789   3.891   3.364 -0.3764  2.4043  1.8811
   64CHL1    C1 5886   6.677   3.656   3.229  0.6440  0.8644  0.0051
   64CHL1   H1A 5887   6.785   3.641   3.253  0.6469  0.2786 -0.3601
   64CHL1   H1B 5888   6.625   3.561   3.252  0.0574  0.8699 -1.2372
   64CHL1    C2 5889   6.654   3.681   3.075  0.1265 -0.1107 -0.5731
   64CHL1   H2A 5890   6.702   3.594   3.025 -1.2105 -0.6742 -0.9246
   64CHL1   H2B 5891   6.702   3.778   3.050 -0.5724  1.0947  2.4008
   64CHL1   C20 5892   6.740   3.709   4.017 -0.0283  0.1112  0.4980
   64CHL1   H20 5893   6.747   3.817   4.040 -3.4100  0.4260  0.5254
   64CHL1   C21 5894   6.883   3.651   3.983 -0.2924 -0.5826  0.0445
   64CHL1  H21A 5895   6.882   3.560   3.920 -1.1472 -0.1056 -0.6544
   64CHL1  H21B 5896   6.931   3.615   4.077 -3.8261 -0.1034  2.2330
   64CHL1  H21C 5897   6.953   3.723   3.935 -0.0806 -1.3709 -0.8525
   64CHL1   C22 5898   6.695   3.638   4.157  0.1439 -0.0737  1.0545
   64CHL1  H22A 5899   6.584   3.644   4.159 -0.0766 -2.4876 -0.3340
   64CHL1  H22B 5900   6.716   3.529   4.159  0.5880 -0.0259 -0.1911
   64CHL1   C23 5901   6.758   3.703   4.278 -0.1034  0.3624  0.1704
   64CHL1  H23A 5902   6.866   3.677   4.275 -0.4778 -1.2766  0.2521
   64CHL1  H23B 5903   6.767   3.813   4.267 -0.3793  0.2860 -0.9505
   64CHL1   C24 5904   6.704   3.655   4.419  0.2008 -0.0256  0.7083
   64CHL1  H24A 5905   6.702   3.544   4.413  0.3273  0.0084 -0.0178
   64CHL1  H24B 5906   6.787   3.673   4.492  0.8802 -1.4332  0.3117
   64CHL1   C25 5907   6.573   3.709   4.460  0.6264  0.0447 -0.1816
   64CHL1   H25 5908   6.490   3.689   4.389 -0.7993  0.1012  1.4079
   64CHL1   C26 5909   6.536   3.649   4.601 -0.4356 -0.3842 -0.0709
   64CHL1  H26A 5910   6.539   3.538   4.591 -0.7860 -0.4558  0.5560
   64CHL1  H26B 5911   6.613   3.680   4.675  0.6983  0.3633 -1.5084
   64CHL1  H26C 5912   6.434   3.688   4.624  0.1654  0.0632  2.0807
   64CHL1   C27 5913   6.585   3.864   4.485 -0.0401 -0.7853 -0.2031
   64CHL1  H27A 5914   6.666   3.897   4.553  0.2522  1.1647 -1.4318
   64CHL1  H27B 5915   6.591   3.918   4.389 -1.4195 -0.8289 -0.3445
   64CHL1  H27C 5916   6.485   3.889   4.527 -0.0535 -0.6348 -0.3263
   65CHL1    C3 5917   5.673   1.219   2.921 -0.2291 -0.0726  1.7116
   65CHL1    H3 5918   5.593   1.145   2.940 -0.4510 -1.0241 -2.0330
   65CHL1    O3 5919   5.650   1.275   2.794  0.5110  0.0844  0.1077
   65CHL1   H3' 5920   5.718   1.248   2.732  0.8310  0.3389  0.3440
   65CHL1    C4 5921   5.684   1.328   3.030  0.1850 -0.0661 -1.0034
   65CHL1   H4A 5922   5.748   1.408   2.988  1.3224  0.0100  0.7614
   65CHL1   H4B 5923   5.584   1.371   3.049  0.2892 -0.4201  0.5051
   65CHL1    C5 5924   5.738   1.274   3.162 -0.2562  0.6994  0.2440
   65CHL1    C6 5925   5.671   1.286   3.280  0.6058 -0.4088 -0.2970
   65CHL1    H6 5926   5.584   1.353   3.284  1.3997  0.6290  3.3374
   65CHL1    C7 5927   5.726   1.241   3.411 -0.0544 -0.6830 -0.1699
   65CHL1   H7A 5928   5.721   1.325   3.483 -0.3805 -0.8945  0.0578
   65CHL1   H7B 5929   5.671   1.156   3.457  1.4791 -0.7209  1.6881
   65CHL1    C8 5930   5.878   1.205   3.405  0.2156 -0.0270  0.0308
   65CHL1    H8 5931   5.935   1.300   3.392  0.5034  0.0681  1.7971
   65CHL1   C14 5932   5.921   1.142   3.535 -0.4140  0.4406 -0.2469
   65CHL1   H14 5933   5.855   1.052   3.542  1.2164 -0.8243 -0.6022
   65CHL1   C15 5934   5.898   1.218   3.666  0.3506  0.2199 -0.5182
   65CHL1  H15A 5935   5.931   1.323   3.648  0.3387 -0.2647 -4.0252
   65CHL1  H15B 5936   5.800   1.219   3.719  0.7953 -1.2902  0.3758
   65CHL1   C16 5937   5.992   1.159   3.767 -0.4348 -0.6287  0.5284
   65CHL1  H16A 5938   6.047   1.241   3.819  0.6107  0.1428 -1.6764
   65CHL1  H16B 5939   5.944   1.107   3.853  1.1979  1.4806  2.8778
   65CHL1   C17 5940   6.089   1.066   3.695 -0.4569 -0.0474  1.3003
   65CHL1   H17 5941   6.059   0.959   3.703 -0.3900 -0.0213  1.9859
   65CHL1   C13 5942   6.072   1.105   3.543  0.5060  0.4255 -0.7015
   65CHL1   C18 5943   6.156   1.236   3.512  0.5952 -0.7986 -0.3352
   65CHL1  H18A 5944   6.142   1.266   3.405 -0.8079  1.4504  0.4054
   65CHL1  H18B 5945   6.140   1.322   3.580  0.3669 -0.0126 -1.3530
   65CHL1  H18C 5946   6.264   1.213   3.519  0.8985  0.3689 -0.9402
   65CHL1   C12 5947   6.098   0.996   3.430  0.7209 -0.3664 -1.0695
   65CHL1  H12A 5948   6.201   0.955   3.430  0.9955  0.3152 -1.5255
   65CHL1  H12B 5949   6.013   0.928   3.450 -2.5762  3.0553 -2.1537
   65CHL1   C11 5950   6.053   1.056   3.290 -0.2451  0.0190  0.2503
   65CHL1  H11A 5951   6.138   1.118   3.253  0.3616 -1.1296 -0.3488
   65CHL1  H11B 5952   6.058   0.965   3.227  0.1676  1.7475 -2.3525
   65CHL1    C9 5953   5.905   1.118   3.286 -0.0460 -0.3308  0.1709
   65CHL1    H9 5954   5.838   1.029   3.287 -1.3362  0.6294  0.7520
   65CHL1   C10 5955   5.871   1.194   3.153  0.5154  0.2395  0.0893
   65CHL1   C19 5956   5.981   1.290   3.116 -0.3379 -0.2186  0.0454
   65CHL1  H19A 5957   6.071   1.229   3.098  0.2793  0.2297  1.4773
   65CHL1  H19B 5958   5.954   1.344   3.023  1.3067 -0.5271 -0.6268
   65CHL1  H19C 5959   5.997   1.373   3.189  0.0852  0.7153 -1.0837
   65CHL1    C1 5960   5.859   1.088   3.040  0.4354 -0.0523  0.0620
   65CHL1   H1A 5961   5.947   1.024   3.020  1.3708  1.1187  0.3211
   65CHL1   H1B 5962   5.783   1.011   3.066  1.3431 -0.6509  1.0402
   65CHL1    C2 5963   5.804   1.139   2.907 -0.3966  0.5492 -0.5100
   65CHL1   H2A 5964   5.791   1.045   2.849 -0.3245  0.4948 -0.4373
   65CHL1   H2B 5965   5.880   1.197   2.852 -0.2256 -0.3522 -1.2451
   65CHL1   C20 5966   6.231   1.078   3.750 -0.7216  0.7756  0.3384
   65CHL1   H20 5967   6.274   1.180   3.741  0.2172  0.4476  0.9302
   65CHL1   C21 5968   6.324   0.969   3.682 -0.4882  0.3158 -0.5331
   65CHL1  H21A 5969   6.272   0.872   3.673  1.8930 -0.9829 -1.0407
   65CHL1  H21B 5970   6.419   0.964   3.739 -0.6403  3.0924  0.1263
   65CHL1  H21C 5971   6.346   1.000   3.578 -0.0191  1.1255 -0.2052
   65CHL1   C22 5972   6.236   1.052   3.899 -0.0682 -0.1242  0.8528
   65CHL1  H22A 5973   6.177   1.136   3.941 -0.9119 -0.6858  0.8167
   65CHL1  H22B 5974   6.191   0.956   3.932 -1.6517 -0.3262 -1.6547
   65CHL1   C23 5975   6.367   1.075   3.981 -0.0795  0.0198 -0.3547
   65CHL1  H23A 5976   6.417   0.978   3.959  0.4004 -0.4493  2.3571
   65CHL1  H23B 5977   6.423   1.165   3.949 -0.0364 -0.1293 -0.7059
   65CHL1   C24 5978   6.348   1.079   4.137 -0.0704  0.6739 -0.4502
   65CHL1  H24A 5979   6.316   1.181   4.166  4.6487  1.9046  1.3288
   65CHL1  H24B 5980   6.267   1.008   4.167  0.4015  0.1823 -0.3060
   65CHL1   C25 5981   6.477   1.044   4.214 -0.3762  0.5428  0.2082
   65CHL1   H25 5982   6.517   0.950   4.168 -2.5965 -0.8527  0.9897
   65CHL1   C26 5983   6.590   1.138   4.201  0.1918  0.5877 -0.1665
   65CHL1  H26A 5984   6.627   1.143   4.096  1.3186  3.0585  0.2748
   65CHL1  H26B 5985   6.564   1.240   4.235  1.1904  0.4253  1.1714
   65CHL1  H26C 5986   6.678   1.106   4.261  1.3123  0.5533 -1.7594
   65CHL1   C27 5987   6.452   1.010   4.361 -0.4805  0.3102 -1.1840
   65CHL1  H27A 5988   6.391   1.081   4.421 -0.5450 -1.0730  0.4696
   65CHL1  H27B 5989   6.387   0.920   4.365 -1.3064  0.9418  0.7529
   65CHL1  H27C 5990   6.544   1.005   4.423 -1.6746 -0.4668  0.6275
   66CHL1    C3 5991   3.373   5.876   2.600 -0.5261  0.0174 -0.3857
   66CHL1    H3 5992   3.322   5.778   2.596 -2.7131  0.9000  2.5105
   66CHL1    O3 5993   3.396   5.922   2.470  0.1682 -0.1801 -0.3490
   66CHL1   H3' 5994   3.408   6.016   2.481 -0.1436 -0.2057  0.2222
   66CHL1    C4 5995   3.272   5.973   2.663  0.0022 -0.7383  0.7276
   66CHL1   H4A 5996   3.304   6.080   2.655  0.2511 -0.8555 -0.0199
   66CHL1   H4B 5997   3.173   5.974   2.613 -0.5364 -0.2471  1.7684
   66CHL1    C5 5998   3.261   5.933   2.809 -0.4651 -0.0230 -0.1603
   66CHL1    C6 5999   3.139   5.897   2.863 -0.0876 -0.4162 -0.1252
   66CHL1    H6 6000   3.055   5.890   2.793  0.5323 -2.9688 -0.7076
   66CHL1    C7 6001   3.114   5.864   3.004 -0.4075  0.3404 -1.1297
   66CHL1   H7A 6002   3.023   5.906   3.052  0.1470 -1.1285  1.3870
   66CHL1   H7B 6003   3.095   5.754   2.998 -1.6307  0.4145  0.5913
   66CHL1    C8 6004   3.236   5.901   3.094 -1.2324 -0.4573 -0.8465
   66CHL1    H8 6005   3.232   6.012   3.096 -0.0889 -0.4026 -0.5155
   66CHL1   C14 6006   3.219   5.827   3.241  0.5339 -0.6792  0.0042
   66CHL1   H14 6007   3.228   5.718   3.219 -0.6959 -0.7834 -0.0699
   66CHL1   C15 6008   3.084   5.843   3.303  0.1884 -0.0084  0.7236
   66CHL1  H15A 6009   3.039   5.943   3.290 -3.0671 -1.5622 -1.0076
   66CHL1  H15B 6010   3.004   5.783   3.255 -0.1919  1.5907 -0.7589
   66CHL1   C16 6011   3.114   5.817   3.447  0.0847  0.2182 -0.6955
   66CHL1  H16A 6012   3.092   5.910   3.502  1.5986  0.8910 -1.1759
   66CHL1  H16B 6013   3.072   5.722   3.487  0.8888  0.5693  1.0646
   66CHL1   C17 6014   3.278   5.800   3.465 -0.5233  0.2263  0.8694
   66CHL1   H17 6015   3.290   5.690   3.456 -0.5336  0.1514  1.6873
   66CHL1   C13 6016   3.332   5.870   3.338 -0.6406  0.2354 -0.8604
   66CHL1   C18 6017   3.334   6.021   3.368  0.7524 -0.1265 -0.1717
   66CHL1  H18A 6018   3.417   6.040   3.438  0.2918  1.1867  0.0370
   66CHL1  H18B 6019   3.341   6.074   3.271 -1.8786  0.5483 -0.0663
   66CHL1  H18C 6020   3.245   6.065   3.417  1.7544  1.7850  0.0041
   66CHL1   C12 6021   3.458   5.818   3.266 -0.5679  0.2890 -0.7153
   66CHL1  H12A 6022   3.547   5.839   3.330  0.0799 -1.3935 -1.0001
   66CHL1  H12B 6023   3.456   5.707   3.255  0.5814  0.1563  0.1452
   66CHL1   C11 6024   3.484   5.881   3.122 -0.3446  0.5453 -0.4816
   66CHL1  H11A 6025   3.503   5.990   3.136  0.3807  0.5367 -1.3228
   66CHL1  H11B 6026   3.571   5.832   3.074 -0.3974  1.3618 -1.4414
   66CHL1    C9 6027   3.366   5.862   3.025  0.3913 -0.5486 -1.3096
   66CHL1    H9 6028   3.348   5.753   3.015 -2.2543 -0.3559  0.2946
   66CHL1   C10 6029   3.386   5.919   2.891 -0.5974  0.1961  0.0287
   66CHL1   C19 6030   3.430   6.068   2.912  0.1191 -0.0162  0.4690
   66CHL1  H19A 6031   3.345   6.119   2.962  1.7006  0.6670  2.5925
   66CHL1  H19B 6032   3.518   6.085   2.977 -0.1210  0.8873  0.5734
   66CHL1  H19C 6033   3.460   6.111   2.814 -0.0519 -1.9538 -0.4819
   66CHL1    C1 6034   3.490   5.832   2.818 -0.0640 -0.0369  0.6716
   66CHL1   H1A 6035   3.591   5.857   2.858  0.7280  2.2163 -2.3341
   66CHL1   H1B 6036   3.462   5.726   2.832  0.6673 -0.3992 -0.4899
   66CHL1    C2 6037   3.511   5.870   2.673  0.5319  0.3440 -0.1592
   66CHL1   H2A 6038   3.571   5.792   2.623  0.2473 -1.0848  1.6268
   66CHL1   H2B 6039   3.569   5.965   2.668 -1.7042  1.9285  1.5989
   66CHL1   C20 6040   3.330   5.839   3.600  0.8741  0.1289  0.3610
   66CHL1   H20 6041   3.341   5.948   3.618  1.6114 -0.2111  2.2087
   66CHL1   C21 6042   3.470   5.781   3.610  0.0149  0.1938 -0.8975
   66CHL1  H21A 6043   3.497   5.782   3.718 -1.1195  1.5625 -0.6065
   66CHL1  H21B 6044   3.543   5.838   3.550 -0.7847 -0.2820 -2.3617
   66CHL1  H21C 6045   3.467   5.672   3.590 -0.7303 -0.0489  0.4114
   66CHL1   C22 6046   3.237   5.793   3.716  0.1958 -0.3875  0.0667
   66CHL1  H22A 6047   3.290   5.830   3.806  1.9101  0.3394 -1.2003
   66CHL1  H22B 6048   3.147   5.858   3.708  0.5787  0.1582  0.2136
   66CHL1   C23 6049   3.216   5.645   3.739  0.6007  0.2157 -0.7738
   66CHL1  H23A 6050   3.165   5.585   3.661 -2.4170  2.3698 -0.6411
   66CHL1  H23B 6051   3.307   5.584   3.755 -0.6586 -1.6473 -0.4317
   66CHL1   C24 6052   3.125   5.623   3.860 -0.2557  0.3681 -0.4008
   66CHL1  H24A 6053   3.035   5.689   3.852 -0.1167  0.5434 -0.5085
   66CHL1  H24B 6054   3.097   5.517   3.847  2.3749 -0.7044  1.7237
   66CHL1   C25 6055   3.177   5.648   4.003 -0.0611 -0.2481  0.2429
   66CHL1   H25 6056   3.153   5.755   4.021 -0.5280 -0.2422 -0.3714
   66CHL1   C26 6057   3.092   5.566   4.105  0.4760  0.7001  0.6320
   66CHL1  H26A 6058   3.117   5.462   4.077  1.0680  1.9360 -4.4911
   66CHL1  H26B 6059   3.126   5.587   4.209 -0.6176  1.2823  0.8904
   66CHL1  H26C 6060   2.981   5.577   4.106  0.3044 -0.7630  2.4047
   66CHL1   C27 6061   3.330   5.607   4.011  0.4131 -0.3445  0.1983
   66CHL1  H27A 6062   3.362   5.616   4.117 -4.6153  1.9772  1.8667
   66CHL1  H27B 6063   3.390   5.680   3.953 -0.8215  1.2380  0.8183
   66CHL1  H27C 6064   3.349   5.506   3.971  0.5877 -0.0891 -0.3707
   67CHL1    C3 6065   1.729   4.169   3.007 -0.2438 -0.4769  0.0390
   67CHL1    H3 6066   1.809   4.233   3.051 -1.0026  0.5596 -0.0349
   67CHL1    O3 6067   1.771   4.119   2.880  0.4360  0.0283  0.6244
   67CHL1   H3' 6068   1.714   4.045   2.855  1.0194  0.2377 -1.5292
   67CHL1    C4 6069   1.694   4.058   3.100 -0.1985  0.0869  0.2034
   67CHL1   H4A 6070   1.622   3.993   3.046  0.8398  0.6398 -1.9413
   67CHL1   H4B 6071   1.775   3.986   3.122  0.4337  0.9573  0.8005
   67CHL1    C5 6072   1.644   4.115   3.232  0.5311 -0.2749 -0.1334
   67CHL1    C6 6073   1.710   4.079   3.337  0.4833  0.2543 -0.4718
   67CHL1    H6 6074   1.797   4.013   3.335  0.1405 -0.1782 -2.2243
   67CHL1    C7 6075   1.675   4.135   3.473  0.0007 -0.0222 -0.0442
   67CHL1   H7A 6076   1.701   4.061   3.551  1.6542 -2.7743 -2.9588
   67CHL1   H7B 6077   1.733   4.225   3.504  0.2649 -0.1822 -0.0666
   67CHL1    C8 6078   1.525   4.182   3.476  0.8117  0.6063  0.1778
   67CHL1    H8 6079   1.455   4.096   3.487 -0.9318  1.4955 -2.8316
   67CHL1   C14 6080   1.506   4.266   3.602  1.1844  0.2019  0.0144
   67CHL1   H14 6081   1.563   4.362   3.601 -0.4555  1.2318  1.1184
   67CHL1   C15 6082   1.565   4.212   3.741 -0.3824  0.9990 -0.0377
   67CHL1  H15A 6083   1.543   4.103   3.748  0.4392  0.8839  1.0472
   67CHL1  H15B 6084   1.673   4.230   3.758 -0.2543  1.7904 -1.5737
   67CHL1   C16 6085   1.477   4.273   3.848  0.2028 -0.2876 -0.5014
   67CHL1  H16A 6086   1.418   4.192   3.897 -1.1087  1.8370  1.6962
   67CHL1  H16B 6087   1.532   4.325   3.929 -1.2331  1.7295 -0.7433
   67CHL1   C17 6088   1.375   4.363   3.772  0.3952  1.2023 -0.0712
   67CHL1   H17 6089   1.422   4.461   3.748 -1.5221  3.2244  3.4534
   67CHL1   C13 6090   1.361   4.303   3.632 -0.1717 -0.2316  0.7441
   67CHL1   C18 6091   1.261   4.184   3.635  0.0184  0.3956 -0.3979
   67CHL1  H18A 6092   1.288   4.112   3.714 -0.6434 -1.6566 -1.9496
   67CHL1  H18B 6093   1.161   4.223   3.663 -0.3618  0.3897 -1.6702
   67CHL1  H18C 6094   1.262   4.131   3.537 -1.4108 -1.4595  0.5254
   67CHL1   C12 6095   1.340   4.405   3.513 -0.0022  0.8182 -0.3944
   67CHL1  H12A 6096   1.240   4.454   3.509  0.1963  1.2189 -0.5448
   67CHL1  H12B 6097   1.422   4.480   3.516  1.1889 -0.4456  0.0334
   67CHL1   C11 6098   1.352   4.342   3.372  0.3512 -0.0883  0.2216
   67CHL1  H11A 6099   1.276   4.262   3.359 -0.5775  0.5536  1.4700
   67CHL1  H11B 6100   1.340   4.421   3.295 -0.0545 -1.0768 -0.7637
   67CHL1    C9 6101   1.488   4.270   3.361 -0.1177 -0.0408  0.3849
   67CHL1    H9 6102   1.561   4.352   3.381 -0.5772  0.4071  0.2663
   67CHL1   C10 6103   1.523   4.209   3.223  0.2306  0.0605  0.1896
   67CHL1   C19 6104   1.402   4.125   3.175 -0.1023 -0.2129 -0.0751
   67CHL1  H19A 6105   1.327   4.187   3.122 -1.7673 -1.4878  0.6934
   67CHL1  H19B 6106   1.434   4.049   3.100 -1.1418 -0.3916 -0.3563
   67CHL1  H19C 6107   1.365   4.067   3.262 -0.8386  0.5440  0.1291
   67CHL1    C1 6108   1.545   4.318   3.112 -0.5559  0.0090 -1.3085
   67CHL1   H1A 6109   1.451   4.370   3.085 -1.5059 -0.8254  0.2557
   67CHL1   H1B 6110   1.610   4.399   3.152 -1.4583  0.2801 -0.3537
   67CHL1    C2 6111   1.610   4.268   2.985 -0.6761  0.3423 -0.4444
   67CHL1   H2A 6112   1.640   4.359   2.929  2.7607  0.1580  0.8762
   67CHL1   H2B 6113   1.530   4.221   2.923 -0.5428 -2.9065  1.5992
   67CHL1   C20 6114   1.250   4.398   3.849 -0.3763  0.4481 -0.4200
   67CHL1   H20 6115   1.186   4.308   3.864  0.0110  0.2545  0.1380
   67CHL1   C21 6116   1.169   4.506   3.768 -0.2188  0.3825 -0.2600
   67CHL1  H21A 6117   1.244   4.587   3.759 -0.5211  0.8910  1.3954
   67CHL1  H21B 6118   1.075   4.536   3.819  1.0976  0.1242  2.4880
   67CHL1  H21C 6119   1.140   4.467   3.668  0.2710 -2.5253  0.6470
   67CHL1   C22 6120   1.267   4.458   3.989  0.6219  0.5324  0.0672
   67CHL1  H22A 6121   1.339   4.403   4.054 -1.0803 -1.2792  0.5090
   67CHL1  H22B 6122   1.316   4.557   3.979  1.2836  0.3623  1.3676
   67CHL1   C23 6123   1.139   4.466   4.077 -0.0218 -0.3190  0.1346
   67CHL1  H23A 6124   1.082   4.551   4.034  0.8653  0.1398 -0.1581
   67CHL1  H23B 6125   1.068   4.382   4.063 -1.4849  1.2030 -2.2464
   67CHL1   C24 6126   1.173   4.491   4.222  0.0490 -0.5558  0.3454
   67CHL1  H24A 6127   1.250   4.571   4.225 -0.4946  0.1303 -1.9574
   67CHL1  H24B 6128   1.080   4.533   4.266  0.1705 -1.1416  1.1815
   67CHL1   C25 6129   1.222   4.374   4.311 -0.0349 -0.2861 -0.0333
   67CHL1   H25 6130   1.283   4.303   4.251  2.1706  0.7511  0.9121
   67CHL1   C26 6131   1.307   4.418   4.438  0.0345 -0.2292  0.1471
   67CHL1  H26A 6132   1.237   4.473   4.504 -1.0581 -0.2952 -0.9337
   67CHL1  H26B 6133   1.344   4.326   4.489  1.4727 -0.3197 -1.0102
   67CHL1  H26C 6134   1.397   4.466   4.394 -1.5242  0.9810 -1.8773
   67CHL1   C27 6135   1.101   4.291   4.357 -0.6510 -0.1367 -0.1378
   67CHL1  H27A 6136   1.148   4.218   4.426  0.5721  1.8378  1.2391
   67CHL1  H27B 6137   1.036   4.349   4.426 -0.8140  1.9086 -1.8985
   67CHL1  H27C 6138   1.051   4.234   4.275 -3.0117  1.3178  0.1933
   68CHL1    C3 6139   0.694   5.533   2.874 -0.3219 -0.1691 -0.4281
   68CHL1    H3 6140   0.634   5.440   2.865  0.3223 -0.7427  0.8813
   68CHL1    O3 6141   0.764   5.555   2.754  0.4034 -0.4847  0.5105
   68CHL1   H3' 6142   0.821   5.630   2.772  1.1180 -1.3078  1.8858
   68CHL1    C4 6143   0.607   5.657   2.893  0.4664 -0.2222  0.0719
   68CHL1   H4A 6144   0.662   5.754   2.886  0.9428 -0.3692  1.4912
   68CHL1   H4B 6145   0.536   5.662   2.808  0.9543 -3.2635 -0.6080
   68CHL1    C5 6146   0.535   5.641   3.027  0.4871 -0.2331  0.0668
   68CHL1    C6 6147   0.403   5.627   3.034  0.1978 -0.0526 -0.2993
   68CHL1    H6 6148   0.339   5.657   2.950  1.2272 -0.1547 -1.1290
   68CHL1    C7 6149   0.326   5.620   3.162 -1.0351  0.0907  0.3130
   68CHL1   H7A 6150   0.240   5.690   3.154 -1.0332 -0.1225 -2.1484
   68CHL1   H7B 6151   0.297   5.518   3.195 -1.2473  0.0915  0.1279
   68CHL1    C8 6152   0.411   5.667   3.286  0.4846 -0.0010  0.1913
   68CHL1    H8 6153   0.432   5.776   3.278  1.0362 -0.2062 -2.0230
   68CHL1   C14 6154   0.332   5.652   3.411 -1.1902 -0.3661 -0.3810
   68CHL1   H14 6155   0.316   5.543   3.428 -0.6275 -0.2824  0.8278
   68CHL1   C15 6156   0.194   5.711   3.416 -0.2201 -0.1671  0.0188
   68CHL1  H15A 6157   0.198   5.814   3.375 -0.9192  0.8918  2.4563
   68CHL1  H15B 6158   0.108   5.649   3.381 -2.1268  2.3685 -0.1035
   68CHL1   C16 6159   0.168   5.713   3.567  0.1993 -0.2280 -0.9022
   68CHL1  H16A 6160   0.149   5.815   3.608  3.1078  0.7431 -1.7359
   68CHL1  H16B 6161   0.073   5.658   3.584  0.1862  0.7120  2.8233
   68CHL1   C17 6162   0.295   5.651   3.636  0.0499  0.4819  0.0626
   68CHL1   H17 6163   0.278   5.542   3.651 -1.2948  0.6757  0.0957
   68CHL1   C13 6164   0.406   5.681   3.544 -0.1641  0.1606  0.9975
   68CHL1   C18 6165   0.449   5.833   3.547 -0.7452  0.0225 -1.3051
   68CHL1  H18A 6166   0.485   5.853   3.651 -0.0186  0.0447 -1.5563
   68CHL1  H18B 6167   0.541   5.850   3.487  1.4096  2.0658  2.1964
   68CHL1  H18C 6168   0.366   5.906   3.541  0.6713  1.8150 -0.2981
   68CHL1   C12 6169   0.533   5.586   3.546  0.0893 -0.8695 -0.4143
   68CHL1  H12A 6170   0.603   5.603   3.631 -3.9616 -2.3290  3.6125
   68CHL1  H12B 6171   0.496   5.482   3.562 -0.6125 -0.6261 -0.4321
   68CHL1   C11 6172   0.627   5.598   3.421  0.5755 -0.9282  0.8172
   68CHL1  H11A 6173   0.675   5.698   3.419 -0.4213 -0.4498 -0.1301
   68CHL1  H11B 6174   0.704   5.518   3.422 -1.2822 -2.8966 -1.2754
   68CHL1    C9 6175   0.547   5.592   3.286  0.6095 -0.1716 -0.3357
   68CHL1    H9 6176   0.529   5.484   3.268 -0.6384  0.2753 -2.0645
   68CHL1   C10 6177   0.622   5.626   3.152  0.3178  0.2245  0.1229
   68CHL1   C19 6178   0.710   5.755   3.174 -0.0460  0.4537  0.1792
   68CHL1  H19A 6179   0.795   5.740   3.244  0.0746 -2.4028 -0.4206
   68CHL1  H19B 6180   0.762   5.781   3.079  0.2736  1.4796  0.6280
   68CHL1  H19C 6181   0.645   5.835   3.214  0.3173 -0.2512  2.3009
   68CHL1    C1 6182   0.715   5.500   3.125  0.3897  0.0710  0.4459
   68CHL1   H1A 6183   0.789   5.480   3.205  1.0815 -0.2410 -0.2534
   68CHL1   H1B 6184   0.657   5.405   3.116 -0.1529  0.4348  0.0778
   68CHL1    C2 6185   0.795   5.519   2.993  0.6852  0.1422 -0.7403
   68CHL1   H2A 6186   0.862   5.431   2.977 -1.9976 -2.5817  1.6859
   68CHL1   H2B 6187   0.851   5.614   2.997  1.3565 -0.2566 -0.5827
   68CHL1   C20 6188   0.305   5.701   3.786 -0.3644 -0.8835  1.0462
   68CHL1   H20 6189   0.324   5.810   3.786 -0.1515 -0.9195  0.8402
   68CHL1   C21 6190   0.424   5.630   3.847  0.1642  0.4071 -0.7321
   68CHL1  H21A 6191   0.523   5.662   3.806  0.9065 -1.5721 -0.5720
   68CHL1  H21B 6192   0.413   5.520   3.842 -2.3007  0.4659  1.4723
   68CHL1  H21C 6193   0.436   5.647   3.956  0.6001 -0.7846 -0.5783
   68CHL1   C22 6194   0.165   5.672   3.863 -0.3381  0.3044  0.0512
   68CHL1  H22A 6195   0.083   5.736   3.824 -1.3569 -0.6732  0.5446
   68CHL1  H22B 6196   0.142   5.565   3.845 -1.8803  0.7806 -1.0027
   68CHL1   C23 6197   0.176   5.693   4.010 -0.6307 -0.8386  0.3282
   68CHL1  H23A 6198   0.254   5.625   4.051  0.3162 -0.3662 -0.6443
   68CHL1  H23B 6199   0.197   5.795   4.046 -0.9363 -0.6834  0.0750
   68CHL1   C24 6200   0.047   5.645   4.080 -0.5541 -0.1112 -0.2708
   68CHL1  H24A 6201  -0.034   5.716   4.054 -1.0224 -0.4161  0.3470
   68CHL1  H24B 6202   0.016   5.550   4.030 -0.4579  0.5276 -1.6068
   68CHL1   C25 6203   0.075   5.629   4.232 -0.5250 -0.1492 -0.2972
   68CHL1   H25 6204   0.152   5.549   4.243 -0.3482 -0.2533 -1.9787
   68CHL1   C26 6205   0.126   5.755   4.313  0.2892  0.0949 -0.2716
   68CHL1  H26A 6206   0.062   5.845   4.308  0.3235  0.1168 -0.3203
   68CHL1  H26B 6207   0.143   5.726   4.419 -0.9630 -3.0930 -0.8113
   68CHL1  H26C 6208   0.220   5.796   4.271 -1.1589  1.3840 -2.4083
   68CHL1   C27 6209  -0.056   5.569   4.290 -0.1538  0.0655 -0.0713
   68CHL1  H27A 6210  -0.064   5.462   4.263 -2.0722 -0.7400  3.1366
   68CHL1  H27B 6211  -0.056   5.568   4.401 -0.2760  0.5055 -0.0652
   68CHL1  H27C 6212  -0.151   5.622   4.267 -0.1836  0.1575  0.2564
   69CHL1    C3 6213   4.694   5.312   3.060  0.8772 -0.9278 -0.8276
   69CHL1    H3 6214   4.793   5.350   3.094 -0.6767  1.2103  1.7315
   69CHL1    O3 6215   4.692   5.302   2.918 -0.1772 -0.3534 -0.2682
   69CHL1   H3' 6216   4.673   5.213   2.888  0.2091 -0.5498  0.0527
   69CHL1    C4 6217   4.657   5.170   3.115 -0.1190  0.0606  0.4402
   69CHL1   H4A 6218   4.558   5.137   3.077 -1.0442 -0.6883  3.2320
   69CHL1   H4B 6219   4.723   5.084   3.092  0.3183 -0.3106  2.8095
   69CHL1    C5 6220   4.628   5.183   3.264  0.9625  0.8817  0.0189
   69CHL1    C6 6221   4.692   5.095   3.339 -0.6563  0.1630  0.5637
   69CHL1    H6 6222   4.763   5.025   3.292 -0.6499  0.3241  0.3329
   69CHL1    C7 6223   4.689   5.090   3.484 -0.5693  0.2267 -0.1896
   69CHL1   H7A 6224   4.689   4.984   3.517 -0.2763  0.9489  2.3047
   69CHL1   H7B 6225   4.783   5.127   3.531  0.9217  0.8847 -3.3852
   69CHL1    C8 6226   4.570   5.171   3.537  0.0343  0.3016  0.7199
   69CHL1    H8 6227   4.475   5.116   3.519  0.1425 -0.0430  1.1638
   69CHL1   C14 6228   4.585   5.181   3.684  0.1512 -0.2380  0.1209
   69CHL1   H14 6229   4.670   5.250   3.701 -0.0697 -0.4286  2.2040
   69CHL1   C15 6230   4.614   5.061   3.770  0.0331  1.5296 -0.2209
   69CHL1  H15A 6231   4.556   4.969   3.744  0.5338  0.8330  1.0337
   69CHL1  H15B 6232   4.721   5.037   3.757 -0.0088  1.5337 -0.5877
   69CHL1   C16 6233   4.571   5.112   3.910 -0.2514  0.2126  0.2020
   69CHL1  H16A 6234   4.501   5.040   3.958  0.9662 -0.4495  1.0502
   69CHL1  H16B 6235   4.664   5.126   3.970  0.2826  2.7017 -1.0619
   69CHL1   C17 6236   4.504   5.253   3.895  0.3008 -0.3624  0.1123
   69CHL1   H17 6237   4.587   5.326   3.906  1.3457 -1.7460  1.9984
   69CHL1   C13 6238   4.462   5.250   3.746  0.0052 -0.1965 -0.6114
   69CHL1   C18 6239   4.332   5.165   3.725  0.0222  0.1742 -0.6007
   69CHL1  H18A 6240   4.356   5.058   3.742  0.2048  0.4994  1.4366
   69CHL1  H18B 6241   4.248   5.191   3.794 -0.5091 -1.3739 -0.6246
   69CHL1  H18C 6242   4.289   5.179   3.624 -1.1262 -2.0175 -0.4813
   69CHL1   C12 6243   4.458   5.394   3.686 -0.0361 -0.2682  0.0632
   69CHL1  H12A 6244   4.369   5.445   3.729  0.6842  1.0027  0.0814
   69CHL1  H12B 6245   4.547   5.454   3.716  0.8109 -1.4839  0.0524
   69CHL1   C11 6246   4.441   5.395   3.535 -0.2727  0.2644 -0.1984
   69CHL1  H11A 6247   4.344   5.347   3.511 -0.1494 -0.3986  0.5893
   69CHL1  H11B 6248   4.439   5.496   3.489  1.2537  0.7934  0.8034
   69CHL1    C9 6249   4.557   5.313   3.470  0.5446  0.2145  0.1848
   69CHL1    H9 6250   4.649   5.368   3.498  0.7254  0.2352 -0.4374
   69CHL1   C10 6251   4.540   5.299   3.317  0.2941 -0.5448  0.0800
   69CHL1   C19 6252   4.392   5.262   3.276 -0.2968 -0.2519  0.3474
   69CHL1  H19A 6253   4.321   5.345   3.296 -1.7937 -1.1502 -0.9756
   69CHL1  H19B 6254   4.392   5.240   3.167 -1.9183  0.8547  0.0903
   69CHL1  H19C 6255   4.360   5.170   3.329 -0.4387 -0.3292  0.1279
   69CHL1    C1 6256   4.575   5.446   3.251  0.4532  0.3783 -0.5635
   69CHL1   H1A 6257   4.499   5.520   3.283 -1.5935 -1.7630 -0.2162
   69CHL1   H1B 6258   4.673   5.469   3.298  0.2132 -1.1673  0.7336
   69CHL1    C2 6259   4.593   5.427   3.099 -0.8712  0.5930 -0.2127
   69CHL1   H2A 6260   4.634   5.522   3.058  0.3011  0.4538  0.5829
   69CHL1   H2B 6261   4.502   5.383   3.053  0.5124 -1.5010 -1.0915
   69CHL1   C20 6262   4.413   5.270   4.016  0.2992  0.4176  0.1477
   69CHL1   H20 6263   4.334   5.192   4.012 -0.6712  1.3971 -2.9809
   69CHL1   C21 6264   4.337   5.403   3.994  0.0590  0.4567  0.1858
   69CHL1  H21A 6265   4.282   5.442   4.082 -0.7721 -0.5577  0.1354
   69CHL1  H21B 6266   4.262   5.400   3.912  0.7243  0.9624 -0.4595
   69CHL1  H21C 6267   4.415   5.480   3.972  0.5116 -0.5412 -2.0731
   69CHL1   C22 6268   4.474   5.263   4.163 -0.1399 -0.3308  0.1836
   69CHL1  H22A 6269   4.551   5.183   4.163 -0.0689 -0.2663  0.7659
   69CHL1  H22B 6270   4.527   5.358   4.182  0.3538 -0.5736  0.0399
   69CHL1   C23 6271   4.372   5.219   4.264 -0.3730  0.1121  0.6357
   69CHL1  H23A 6272   4.292   5.293   4.284  0.3062  0.6155  1.5235
   69CHL1  H23B 6273   4.329   5.123   4.227  1.4240 -0.0536 -1.1938
   69CHL1   C24 6274   4.435   5.199   4.397  0.2045  0.2813  0.4583
   69CHL1  H24A 6275   4.526   5.137   4.379 -1.5646 -1.8336 -2.0459
   69CHL1  H24B 6276   4.479   5.293   4.436 -0.1719  0.7209 -0.1489
   69CHL1   C25 6277   4.355   5.120   4.501 -0.6662  0.8689  0.4126
   69CHL1   H25 6278   4.354   5.013   4.468 -1.3942  0.8605  0.4369
   69CHL1   C26 6279   4.403   5.125   4.650  0.1887  0.2812  0.6658
   69CHL1  H26A 6280   4.378   5.223   4.697 -2.2761 -0.2677  0.6452
   69CHL1  H26B 6281   4.342   5.052   4.708 -0.2696 -1.5194 -1.9121
   69CHL1  H26C 6282   4.510   5.104   4.668  0.2143  1.1908  1.6679
   69CHL1   C27 6283   4.209   5.166   4.504 -0.6559  0.1950  0.2642
   69CHL1  H27A 6284   4.151   5.104   4.577  1.3179 -0.2023  1.5759
   69CHL1  H27B 6285   4.213   5.271   4.540 -3.4788  1.8511 -3.5570
   69CHL1  H27C 6286   4.154   5.175   4.408 -2.1262  0.9984  1.1458
   70CHL1    C3 6287   0.186   0.384   2.733  0.1116 -0.0715  0.1664
   70CHL1    H3 6288   0.084   0.426   2.734  1.0013  2.2552  0.9417
   70CHL1    O3 6289   0.230   0.376   2.600 -0.4689 -1.1820  0.1833
   70CHL1   H3' 6290   0.303   0.314   2.604 -0.4919 -1.3987 -1.7207
   70CHL1    C4 6291   0.286   0.472   2.809 -0.3475  0.4476  0.1801
   70CHL1   H4A 6292   0.386   0.424   2.802 -1.0150 -0.8715 -0.6410
   70CHL1   H4B 6293   0.291   0.572   2.761 -3.1368  0.2197 -0.7485
   70CHL1    C5 6294   0.254   0.487   2.955 -0.3951 -1.1419 -0.0268
   70CHL1    C6 6295   0.230   0.609   3.007 -0.8104 -0.5226  0.1365
   70CHL1    H6 6296   0.246   0.697   2.941 -0.4004 -0.6565  0.0555
   70CHL1    C7 6297   0.197   0.624   3.148 -0.2224 -0.1986 -0.4672
   70CHL1   H7A 6298   0.253   0.711   3.187 -1.7559 -0.6136  3.0599
   70CHL1   H7B 6299   0.090   0.653   3.151 -0.4554 -1.0630 -0.0367
   70CHL1    C8 6300   0.225   0.497   3.235 -0.3655  0.1542  0.1902
   70CHL1    H8 6301   0.336   0.507   3.245 -0.5180  3.3243 -0.2904
   70CHL1   C14 6302   0.180   0.511   3.383 -0.0626  0.4145  0.4156
   70CHL1   H14 6303   0.070   0.522   3.386  0.1229  2.5545  2.2101
   70CHL1   C15 6304   0.241   0.639   3.459 -0.2821 -0.5633  0.3609
   70CHL1  H15A 6305   0.346   0.667   3.438 -0.8957  1.4219 -0.3512
   70CHL1  H15B 6306   0.173   0.723   3.432 -0.3861 -0.2093  1.6578
   70CHL1   C16 6307   0.215   0.601   3.607  0.6330  0.3807 -0.1552
   70CHL1  H16A 6308   0.311   0.612   3.662  1.5345 -0.0003 -1.5831
   70CHL1  H16B 6309   0.149   0.683   3.642  2.0510  2.4764 -2.1087
   70CHL1   C17 6310   0.160   0.457   3.613  0.0082 -0.1894  0.3168
   70CHL1   H17 6311   0.050   0.470   3.622  0.0616 -0.8957  2.4828
   70CHL1   C13 6312   0.210   0.397   3.474  0.5314  0.2908 -0.5651
   70CHL1   C18 6313   0.362   0.381   3.484  0.2031 -0.0384  0.5620
   70CHL1  H18A 6314   0.379   0.301   3.559 -0.0844  1.6414  2.5060
   70CHL1  H18B 6315   0.409   0.351   3.389 -2.4142 -0.0106 -0.8381
   70CHL1  H18C 6316   0.425   0.467   3.514 -1.2067  1.8455 -1.5389
   70CHL1   C12 6317   0.132   0.272   3.421 -0.3604  0.0599 -0.6269
   70CHL1  H12A 6318   0.153   0.185   3.487 -0.1700 -1.3814 -2.5160
   70CHL1  H12B 6319   0.024   0.298   3.412 -0.3078  0.6765  0.3764
   70CHL1   C11 6320   0.186   0.249   3.268  0.5121  0.6345  0.1120
   70CHL1  H11A 6321   0.290   0.213   3.286 -0.7764 -2.8521  1.2898
   70CHL1  H11B 6322   0.132   0.164   3.222  0.5733  1.1008 -0.8485
   70CHL1    C9 6323   0.175   0.373   3.173 -0.3831  0.5585  0.4400
   70CHL1    H9 6324   0.065   0.381   3.157 -0.4271 -2.5137 -1.5627
   70CHL1   C10 6325   0.240   0.354   3.035 -0.1325  0.3439  0.4568
   70CHL1   C19 6326   0.372   0.281   3.050 -0.4083  0.1981 -0.2484
   70CHL1  H19A 6327   0.358   0.182   3.099  0.4813  0.5593  0.7750
   70CHL1  H19B 6328   0.422   0.274   2.951 -3.0627  1.4612 -1.7598
   70CHL1  H19C 6329   0.436   0.339   3.120  1.5604 -2.0592 -0.0324
   70CHL1    C1 6330   0.157   0.248   2.953  0.0838 -0.2688  0.4152
   70CHL1   H1A 6331   0.163   0.140   2.977 -1.1238 -0.3026  0.6492
   70CHL1   H1B 6332   0.052   0.286   2.952 -0.1892 -1.0201 -1.0774
   70CHL1    C2 6333   0.193   0.240   2.800  0.1545  0.6168 -0.6567
   70CHL1   H2A 6334   0.126   0.174   2.739  1.3377 -1.6350  0.3373
   70CHL1   H2B 6335   0.295   0.199   2.786  0.0436 -0.7211  1.8544
   70CHL1   C20 6336   0.186   0.375   3.745 -0.9105  0.2366  0.0667
   70CHL1   H20 6337   0.188   0.265   3.728 -1.0320  0.4844 -1.7918
   70CHL1   C21 6338   0.069   0.414   3.844  0.4323 -0.1333 -0.2355
   70CHL1  H21A 6339   0.081   0.520   3.874  2.5012  0.1376 -1.7568
   70CHL1  H21B 6340   0.075   0.366   3.945 -1.0951 -1.2849 -0.6604
   70CHL1  H21C 6341  -0.030   0.400   3.797 -0.8025 -0.7661  2.3582
   70CHL1   C22 6342   0.324   0.406   3.812 -0.3364 -0.1464 -0.2323
   70CHL1  H22A 6343   0.409   0.411   3.740  0.4604 -1.2093  0.5843
   70CHL1  H22B 6344   0.314   0.507   3.857 -0.1147 -1.5262  3.2710
   70CHL1   C23 6345   0.368   0.308   3.927  0.3603 -0.4770  0.4195
   70CHL1  H23A 6346   0.313   0.345   4.016  1.1743  1.3102  0.2204
   70CHL1  H23B 6347   0.332   0.207   3.898 -0.5296 -0.0411 -0.0099
   70CHL1   C24 6348   0.524   0.322   3.936  0.4497 -0.7772  0.7387
   70CHL1  H24A 6349   0.569   0.256   3.859 -0.3934 -0.8837  0.3270
   70CHL1  H24B 6350   0.554   0.429   3.933 -2.5532  0.1555 -0.8118
   70CHL1   C25 6351   0.571   0.263   4.071  0.1242  0.6772 -0.2672
   70CHL1   H25 6352   0.513   0.310   4.153 -0.9143  0.5081 -0.8825
   70CHL1   C26 6353   0.543   0.113   4.073  0.2962 -0.3838  0.8576
   70CHL1  H26A 6354   0.575   0.069   4.170  0.0782  0.9795  1.5762
   70CHL1  H26B 6355   0.437   0.088   4.050  0.5207  0.6506 -1.5295
   70CHL1  H26C 6356   0.607   0.064   3.997 -1.8955  1.6009 -2.4847
   70CHL1   C27 6357   0.717   0.283   4.097 -0.4161  0.0183  0.1130
   70CHL1  H27A 6358   0.776   0.201   4.052  1.1180 -0.1441  2.2982
   70CHL1  H27B 6359   0.751   0.382   4.060  1.2989 -0.4323  0.4222
   70CHL1  H27C 6360   0.740   0.284   4.205  3.4383 -1.3609 -0.5501
   71CHL1    C3 6361   5.328   6.194   3.146  0.2405  0.5566 -0.2348
   71CHL1    H3 6362   5.437   6.182   3.167 -0.3201 -0.9260  2.1891
   71CHL1    O3 6363   5.323   6.229   3.009  0.4882  0.2821 -0.4328
   71CHL1   H3' 6364   5.335   6.145   2.965 -1.5632  0.3542 -1.2402
   71CHL1    C4 6365   5.238   6.069   3.173  0.4862 -0.8729  0.2288
   71CHL1   H4A 6366   5.140   6.103   3.133  0.6823 -0.6687 -0.0812
   71CHL1   H4B 6367   5.277   5.990   3.106  1.8463  1.3471 -1.8010
   71CHL1    C5 6368   5.211   6.030   3.317 -0.1607 -0.8721  0.0008
   71CHL1    C6 6369   5.229   5.906   3.361  0.1114 -0.4022 -0.2980
   71CHL1    H6 6370   5.262   5.821   3.299 -0.4075 -0.2081 -0.8531
   71CHL1    C7 6371   5.215   5.860   3.506 -0.2538 -0.0650  0.4409
   71CHL1   H7A 6372   5.150   5.770   3.514 -0.2425 -0.5325 -3.1445
   71CHL1   H7B 6373   5.317   5.831   3.541 -0.9353 -2.2677  0.7681
   71CHL1    C8 6374   5.155   5.971   3.599 -0.6063  0.3008  0.5676
   71CHL1    H8 6375   5.044   5.968   3.589 -0.4107 -0.4260 -2.8657
   71CHL1   C14 6376   5.200   5.937   3.740 -0.1669 -0.1252  0.5070
   71CHL1   H14 6377   5.308   5.962   3.747 -0.8842  2.9871  2.3908
   71CHL1   C15 6378   5.177   5.802   3.815 -0.3065  0.1423  0.5841
   71CHL1  H15A 6379   5.075   5.765   3.791 -0.6365 -1.3398  3.8247
   71CHL1  H15B 6380   5.256   5.730   3.785  2.1374  2.5624  0.8117
   71CHL1   C16 6381   5.190   5.833   3.963 -0.4001  0.4625  0.4719
   71CHL1  H16A 6382   5.099   5.795   4.015 -2.0407  0.8138 -1.9858
   71CHL1  H16B 6383   5.287   5.785   3.991  0.0737 -0.5419 -2.4864
   71CHL1   C17 6384   5.208   5.986   3.970  0.2143 -0.2177  0.4403
   71CHL1   H17 6385   5.318   6.003   3.965 -0.0997  2.0269 -0.2676
   71CHL1   C13 6386   5.153   6.043   3.843  0.1555 -0.0655  0.6859
   71CHL1   C18 6387   4.999   6.042   3.846  0.2106  0.1570 -0.0651
   71CHL1  H18A 6388   4.966   5.944   3.887  1.1788  0.5616  1.7994
   71CHL1  H18B 6389   4.960   6.124   3.909 -1.0722 -1.4042  1.2738
   71CHL1  H18C 6390   4.950   6.065   3.750 -0.5288  1.8320  0.6771
   71CHL1   C12 6391   5.211   6.181   3.809  0.0419 -0.0024 -0.0561
   71CHL1  H12A 6392   5.175   6.255   3.884 -0.0206  0.3876 -0.4685
   71CHL1  H12B 6393   5.321   6.189   3.817 -0.0519  1.7848 -0.1220
   71CHL1   C11 6394   5.171   6.221   3.667  0.2607 -0.3385 -0.1023
   71CHL1  H11A 6395   5.062   6.238   3.664  0.0735 -1.2724  0.8406
   71CHL1  H11B 6396   5.218   6.318   3.641  0.6403 -0.1302  1.3074
   71CHL1    C9 6397   5.203   6.110   3.562 -0.1835  0.6608  0.2086
   71CHL1    H9 6398   5.314   6.099   3.558 -0.3066 -0.2672 -2.0186
   71CHL1   C10 6399   5.180   6.149   3.410 -0.0319 -0.0095 -0.5290
   71CHL1   C19 6400   5.034   6.184   3.391  0.3441 -0.1249  0.6310
   71CHL1  H19A 6401   5.008   6.275   3.450  0.5545  0.3769 -0.0365
   71CHL1  H19B 6402   5.016   6.208   3.284  1.0374  0.0517  0.5529
   71CHL1  H19C 6403   4.962   6.104   3.420  0.5447  0.1499  1.9615
   71CHL1    C1 6404   5.274   6.269   3.378  0.4178  0.2845  0.1592
   71CHL1   H1A 6405   5.249   6.366   3.426  0.1772 -0.9565  2.7255
   71CHL1   H1B 6406   5.381   6.241   3.395  0.5547  0.4684 -0.3797
   71CHL1    C2 6407   5.279   6.307   3.228  0.1009  0.6123  0.4216
   71CHL1   H2A 6408   5.346   6.394   3.211  0.1124  0.9641  2.0413
   71CHL1   H2B 6409   5.176   6.332   3.195  0.3315  0.3825 -0.4767
   71CHL1   C20 6410   5.173   6.054   4.101 -0.2958 -0.1581 -0.0248
   71CHL1   H20 6411   5.178   6.164   4.089  1.3804 -0.0408  1.3929
   71CHL1   C21 6412   5.292   6.029   4.205  0.4207  0.0230  0.1660
   71CHL1  H21A 6413   5.268   6.074   4.304 -1.2256 -1.1342  0.3411
   71CHL1  H21B 6414   5.384   6.079   4.168  0.2281 -0.3372 -0.8342
   71CHL1  H21C 6415   5.314   5.922   4.226  1.3953  0.5022  1.8259
   71CHL1   C22 6416   5.041   6.009   4.162  0.3762 -0.1330  0.0415
   71CHL1  H22A 6417   4.962   5.990   4.087  0.4351 -1.6874  0.3277
   71CHL1  H22B 6418   5.055   5.910   4.211  1.4825 -0.2490 -0.4740
   71CHL1   C23 6419   4.997   6.107   4.267 -0.2138  0.1803 -0.1305
   71CHL1  H23A 6420   5.076   6.118   4.344 -1.3043  1.7728  0.8122
   71CHL1  H23B 6421   4.977   6.207   4.222 -1.1460  1.0855  2.1676
   71CHL1   C24 6422   4.870   6.053   4.321 -0.4024  0.5347 -0.4017
   71CHL1  H24A 6423   4.793   6.025   4.246  0.2271  0.5182 -1.0502
   71CHL1  H24B 6424   4.885   5.959   4.378  0.8344  0.4074 -0.9181
   71CHL1   C25 6425   4.798   6.148   4.428  0.3999  0.7291 -0.2870
   71CHL1   H25 6426   4.765   6.242   4.380 -0.2655  0.4113 -0.4677
   71CHL1   C26 6427   4.673   6.075   4.487  0.0145  0.2247  0.1512
   71CHL1  H26A 6428   4.689   5.971   4.524 -2.2896 -0.0067  0.6975
   71CHL1  H26B 6429   4.614   6.135   4.560 -1.3431 -0.4550 -0.3478
   71CHL1  H26C 6430   4.598   6.058   4.407  0.7846 -1.3375 -0.2759
   71CHL1   C27 6431   4.893   6.179   4.539 -0.1080  0.0920  0.1856
   71CHL1  H27A 6432   4.856   6.253   4.612  0.0878 -0.4190  0.8145
   71CHL1  H27B 6433   4.927   6.087   4.591  2.0773  0.3580 -0.6432
   71CHL1  H27C 6434   4.982   6.223   4.488 -1.0469 -1.8592 -3.5133
   72CHL1    C3 6435   4.692   3.247   2.863 -0.0932 -0.4272  0.2368
   72CHL1    H3 6436   4.739   3.347   2.878 -2.3183  0.4235  1.9957
   72CHL1    O3 6437   4.715   3.204   2.728 -0.0921 -0.0282  0.0819
   72CHL1   H3' 6438   4.632   3.162   2.703  0.5243 -0.6665 -0.9296
   72CHL1    C4 6439   4.762   3.139   2.951 -0.0415  0.1983  0.6519
   72CHL1   H4A 6440   4.718   3.042   2.920  1.1149  0.2447 -1.2795
   72CHL1   H4B 6441   4.872   3.136   2.932  0.4355 -5.4200  2.6152
   72CHL1    C5 6442   4.755   3.165   3.100 -0.4418  0.1046  0.1908
   72CHL1    C6 6443   4.861   3.173   3.184  0.0157  0.6784  0.0636
   72CHL1    H6 6444   4.964   3.174   3.146 -0.1452  1.6825 -0.3774
   72CHL1    C7 6445   4.842   3.189   3.333 -0.0563 -0.0547 -0.4637
   72CHL1   H7A 6446   4.910   3.125   3.394  0.4080 -1.5316 -2.4151
   72CHL1   H7B 6447   4.868   3.294   3.357  0.5529  0.2937 -2.4238
   72CHL1    C8 6448   4.698   3.162   3.389 -0.4942 -0.3672  0.1115
   72CHL1    H8 6449   4.697   3.051   3.394  0.8932 -0.4890 -1.5124
   72CHL1   C14 6450   4.685   3.241   3.522 -0.0363  0.5874  1.1466
   72CHL1   H14 6451   4.679   3.348   3.493  0.1020  0.5276  0.8954
   72CHL1   C15 6452   4.795   3.242   3.628  0.0646  0.0212  0.0922
   72CHL1  H15A 6453   4.830   3.140   3.655  3.8657  1.1023 -0.1660
   72CHL1  H15B 6454   4.885   3.299   3.596  0.1051 -1.5446 -2.9137
   72CHL1   C16 6455   4.720   3.294   3.752 -0.9084 -0.2826 -0.4168
   72CHL1  H16A 6456   4.726   3.218   3.833 -2.8599  1.2551  1.2940
   72CHL1  H16B 6457   4.737   3.399   3.785  0.9613 -0.1922 -1.5578
   72CHL1   C17 6458   4.564   3.294   3.719 -0.0974 -0.2573 -1.2040
   72CHL1   H17 6459   4.548   3.401   3.695  0.7651 -0.0694 -0.9446
   72CHL1   C13 6460   4.551   3.214   3.589 -0.1098 -0.3808 -0.5397
   72CHL1   C18 6461   4.548   3.065   3.636 -0.7419  0.2398  0.3427
   72CHL1  H18A 6462   4.450   3.037   3.681 -0.7205 -0.6077 -0.1151
   72CHL1  H18B 6463   4.571   3.001   3.548  1.1808 -0.6589  1.4505
   72CHL1  H18C 6464   4.629   3.039   3.707 -0.1295  2.1647  0.4139
   72CHL1   C12 6465   4.428   3.261   3.497  0.3679  0.3672 -0.1019
   72CHL1  H12A 6466   4.330   3.237   3.544  0.8817 -0.2025  0.6993
   72CHL1  H12B 6467   4.426   3.368   3.467 -0.4441 -0.3844 -2.9686
   72CHL1   C11 6468   4.450   3.188   3.363  0.4169 -0.8141 -0.4233
   72CHL1  H11A 6469   4.438   3.083   3.395 -1.0485 -0.1147  1.5921
   72CHL1  H11B 6470   4.373   3.187   3.283  0.4664  1.1502 -0.5426
   72CHL1    C9 6471   4.589   3.215   3.297 -0.4006 -0.5018  0.3318
   72CHL1    H9 6472   4.603   3.325   3.288 -0.8915 -0.5583 -1.8721
   72CHL1   C10 6473   4.602   3.171   3.145  0.0900 -0.0913  0.0448
   72CHL1   C19 6474   4.540   3.030   3.134  0.0462  0.4176 -0.2134
   72CHL1  H19A 6475   4.535   2.991   3.030 -1.0852 -1.1389  0.3769
   72CHL1  H19B 6476   4.600   2.958   3.193  0.5837 -1.0075 -2.3880
   72CHL1  H19C 6477   4.435   3.022   3.172  0.6782  1.3757  1.8596
   72CHL1    C1 6478   4.538   3.280   3.057  0.1638  0.2522 -0.5327
   72CHL1   H1A 6479   4.431   3.290   3.085 -0.2236  0.7208 -2.0430
   72CHL1   H1B 6480   4.582   3.381   3.060  1.6741 -0.3819 -0.4937
   72CHL1    C2 6481   4.548   3.252   2.906  0.4013 -0.1073 -0.2378
   72CHL1   H2A 6482   4.491   3.328   2.848 -1.3401 -0.4616  0.9186
   72CHL1   H2B 6483   4.487   3.162   2.884 -0.9458  0.5321  0.7368
   72CHL1   C20 6484   4.476   3.268   3.845  0.1135 -0.0914  0.0198
   72CHL1   H20 6485   4.486   3.164   3.882  0.6991  0.0988  0.4223
   72CHL1   C21 6486   4.320   3.303   3.819 -0.7538 -0.1437 -1.0961
   72CHL1  H21A 6487   4.309   3.407   3.783 -2.9174 -0.1556 -0.6021
   72CHL1  H21B 6488   4.259   3.294   3.912 -2.0276 -1.2286 -2.0138
   72CHL1  H21C 6489   4.270   3.229   3.753  0.3984 -0.5011 -1.5861
   72CHL1   C22 6490   4.522   3.368   3.959  0.1429 -0.3658 -0.6762
   72CHL1  H22A 6491   4.632   3.374   3.976  0.1160 -0.7916 -0.3290
   72CHL1  H22B 6492   4.493   3.469   3.923  0.3030 -0.5730 -1.4112
   72CHL1   C23 6493   4.470   3.329   4.096  0.7395  0.7159 -0.2521
   72CHL1  H23A 6494   4.359   3.325   4.099  0.7002  0.9274 -1.2107
   72CHL1  H23B 6495   4.507   3.230   4.129 -1.3630  0.7343  2.5090
   72CHL1   C24 6496   4.516   3.413   4.217 -0.5773 -0.5849  0.6429
   72CHL1  H24A 6497   4.627   3.412   4.227 -0.2340 -0.9586 -2.2329
   72CHL1  H24B 6498   4.485   3.517   4.197  0.1360 -0.5496 -0.3892
   72CHL1   C25 6499   4.456   3.371   4.352  0.3800 -1.0054 -0.2781
   72CHL1   H25 6500   4.512   3.426   4.430 -0.5876 -1.2875  0.6392
   72CHL1   C26 6501   4.309   3.412   4.371  0.1418 -0.5032 -0.2485
   72CHL1  H26A 6502   4.292   3.512   4.325 -1.5996 -0.8972 -0.5569
   72CHL1  H26B 6503   4.236   3.350   4.315 -0.2957  0.3300 -0.6150
   72CHL1  H26C 6504   4.285   3.428   4.479  3.8129 -0.1570  0.6591
   72CHL1   C27 6505   4.468   3.223   4.389  0.0593 -1.2292 -0.2989
   72CHL1  H27A 6506   4.405   3.158   4.325 -0.6046  0.6221 -1.5983
   72CHL1  H27B 6507   4.572   3.184   4.395  0.4330 -0.2090  0.0703
   72CHL1  H27C 6508   4.424   3.214   4.491 -0.1078 -1.3600 -0.3832
   73CHL1    C3 6509   0.109   6.341   3.053  0.2044  0.7079  0.0474
   73CHL1    H3 6510   0.204   6.305   3.097  0.3457  2.7766  1.5871
   73CHL1    O3 6511   0.121   6.381   2.920 -0.1814 -0.3911 -0.0996
   73CHL1   H3' 6512   0.032   6.396   2.889 -0.2150  0.2854  0.3044
   73CHL1    C4 6513   0.015   6.216   3.073  0.3651  0.1748  0.4805
   73CHL1   H4A 6514  -0.076   6.255   3.023  1.2374 -0.1740 -1.4797
   73CHL1   H4B 6515   0.057   6.129   3.017  2.0070  0.0417  1.8166
   73CHL1    C5 6516  -0.013   6.193   3.218 -0.4646  0.7241  0.1110
   73CHL1    C6 6517   0.009   6.077   3.268  0.0143  0.6564  0.4932
   73CHL1    H6 6518   0.043   5.992   3.207 -0.1129  1.1910 -0.3420
   73CHL1    C7 6519  -0.021   6.027   3.404  0.3713 -0.3815  0.5684
   73CHL1   H7A 6520  -0.084   5.937   3.419 -0.4207  0.3928  2.0987
   73CHL1   H7B 6521   0.074   6.009   3.460  0.4612  0.6970  0.7952
   73CHL1    C8 6522  -0.105   6.131   3.490  0.7453  0.3679  0.0366
   73CHL1    H8 6523  -0.212   6.114   3.465  0.9203  0.1816 -0.6009
   73CHL1   C14 6524  -0.091   6.095   3.638 -0.0083  0.1903  1.0707
   73CHL1   H14 6525   0.012   6.122   3.668 -0.4207  2.3128  0.7347
   73CHL1   C15 6526  -0.118   5.959   3.695  0.2128 -0.1181 -0.3936
   73CHL1  H15A 6527  -0.206   5.904   3.654 -2.3832  3.0606  0.4904
   73CHL1  H15B 6528  -0.032   5.894   3.667  0.5620 -0.4644  1.3850
   73CHL1   C16 6529  -0.133   5.977   3.844  0.2480  0.0924 -0.1835
   73CHL1  H16A 6530  -0.226   5.917   3.856  0.2313 -0.2635 -1.8440
   73CHL1  H16B 6531  -0.040   5.939   3.892  0.1921 -1.6293 -1.3815
   73CHL1   C17 6532  -0.146   6.132   3.862  0.8614 -0.0586  0.6448
   73CHL1   H17 6533  -0.050   6.171   3.901  0.9928  1.1725 -0.8668
   73CHL1   C13 6534  -0.178   6.187   3.722 -0.1108 -0.5755 -0.3433
   73CHL1   C18 6535  -0.326   6.177   3.696  0.6649  0.3810  0.1622
   73CHL1  H18A 6536  -0.388   6.236   3.768 -0.1956 -1.2581  0.8316
   73CHL1  H18B 6537  -0.358   6.203   3.593 -0.2729  0.0157  0.3475
   73CHL1  H18C 6538  -0.364   6.073   3.706 -1.1101  0.7298 -2.2040
   73CHL1   C12 6539  -0.125   6.328   3.700  0.5647 -0.3081 -0.3657
   73CHL1  H12A 6540  -0.180   6.402   3.761  0.6719 -0.3183 -0.2568
   73CHL1  H12B 6541  -0.021   6.328   3.740  0.8468  1.2900 -1.0372
   73CHL1   C11 6542  -0.133   6.375   3.554 -0.2631  0.5875  0.3943
   73CHL1  H11A 6543  -0.239   6.392   3.525  0.3755  0.6688 -2.1557
   73CHL1  H11B 6544  -0.092   6.478   3.563 -0.4490  0.5613  1.6403
   73CHL1    C9 6545  -0.065   6.280   3.454 -0.1491  0.1585 -0.4584
   73CHL1    H9 6546   0.041   6.286   3.485 -0.8462  2.1275  1.8996
   73CHL1   C10 6547  -0.067   6.308   3.305  0.2469  0.1513 -0.4642
   73CHL1   C19 6548  -0.208   6.331   3.257 -0.0364  0.1418 -0.2392
   73CHL1  H19A 6549  -0.227   6.357   3.151 -0.2902 -0.9180 -0.4704
   73CHL1  H19B 6550  -0.280   6.248   3.274 -2.6631  2.4099  0.4370
   73CHL1  H19C 6551  -0.252   6.412   3.320 -3.6344 -2.7299  1.3410
   73CHL1    C1 6552   0.033   6.426   3.280  0.3833  0.0913  0.5333
   73CHL1   H1A 6553  -0.014   6.507   3.340 -0.3592 -1.1269  1.6593
   73CHL1   H1B 6554   0.133   6.401   3.322 -0.0676  0.6484  1.9980
   73CHL1    C2 6555   0.058   6.462   3.132 -0.0497 -0.1243 -0.1355
   73CHL1   H2A 6556   0.142   6.533   3.117  2.0342 -2.7004 -1.3724
   73CHL1   H2B 6557  -0.031   6.507   3.084 -0.1290  1.1655  1.1459
   73CHL1   C20 6558  -0.226   6.166   3.992 -0.0257 -0.6603 -0.3416
   73CHL1   H20 6559  -0.327   6.121   3.983 -1.2066  1.8189 -0.2692
   73CHL1   C21 6560  -0.249   6.316   4.005  0.6089  0.1449  0.3500
   73CHL1  H21A 6561  -0.309   6.328   4.098 -1.0768 -1.0451 -0.5161
   73CHL1  H21B 6562  -0.316   6.365   3.932  0.4959 -0.5746 -0.0405
   73CHL1  H21C 6563  -0.158   6.378   4.018  2.7158 -2.5020 -0.8331
   73CHL1   C22 6564  -0.171   6.104   4.116 -0.1402  0.0009 -0.3692
   73CHL1  H22A 6565  -0.119   6.006   4.107  0.0761 -0.1460  1.8944
   73CHL1  H22B 6566  -0.096   6.173   4.159  2.0702 -2.1449 -0.5670
   73CHL1   C23 6567  -0.270   6.090   4.231  0.1283  1.0200  0.3341
   73CHL1  H23A 6568  -0.311   6.186   4.269 -2.2059 -0.5122  1.9422
   73CHL1  H23B 6569  -0.357   6.045   4.179  0.2687  1.3195 -0.1678
   73CHL1   C24 6570  -0.222   5.997   4.340 -0.1700  0.2577 -0.3660
   73CHL1  H24A 6571  -0.227   5.895   4.294 -0.8980 -0.1439  0.5642
   73CHL1  H24B 6572  -0.119   6.016   4.376  0.0512 -0.6567 -0.4874
   73CHL1   C25 6573  -0.314   5.983   4.459  0.0302 -0.5113  0.9660
   73CHL1   H25 6574  -0.417   5.961   4.426  1.4223 -3.4055 -1.9450
   73CHL1   C26 6575  -0.265   5.871   4.554 -0.0069 -0.1664 -0.0880
   73CHL1  H26A 6576  -0.166   5.898   4.599  1.1161  2.6763 -3.7538
   73CHL1  H26B 6577  -0.341   5.864   4.634  1.9637 -2.1348  1.7699
   73CHL1  H26C 6578  -0.258   5.774   4.502 -1.6376  0.1430 -0.9260
   73CHL1   C27 6579  -0.323   6.121   4.539  0.1692  0.1807 -0.2364
   73CHL1  H27A 6580  -0.226   6.167   4.567  0.2164 -0.5241  0.8402
   73CHL1  H27B 6581  -0.382   6.193   4.479 -2.1668 -1.2155  0.2865
   73CHL1  H27C 6582  -0.371   6.095   4.636  1.4497  2.3973  1.0666
   74CHL1    C3 6583   6.466   4.414   2.570 -0.2120  0.2398  0.1688
   74CHL1    H3 6584   6.532   4.325   2.574 -0.7412 -0.1086  2.5355
   74CHL1    O3 6585   6.429   4.451   2.436  0.0249  0.5244 -0.2681
   74CHL1   H3' 6586   6.377   4.532   2.443 -1.0231 -0.1718  0.2162
   74CHL1    C4 6587   6.343   4.366   2.648  0.2283 -0.0247 -0.6091
   74CHL1   H4A 6588   6.265   4.444   2.643 -0.1219 -0.3274  0.0740
   74CHL1   H4B 6589   6.306   4.274   2.598 -1.6734  0.5122 -0.2620
   74CHL1    C5 6590   6.347   4.350   2.797  0.6185 -0.1070  0.1270
   74CHL1    C6 6591   6.296   4.241   2.858  0.0459 -0.4404 -0.3613
   74CHL1    H6 6592   6.251   4.158   2.802 -2.2755  1.8778 -2.1921
   74CHL1    C7 6593   6.296   4.223   3.005 -0.2264  0.2020 -0.1225
   74CHL1   H7A 6594   6.189   4.201   3.026 -0.4536  0.4737 -0.9853
   74CHL1   H7B 6595   6.337   4.122   3.029 -1.4694 -0.4398 -0.6269
   74CHL1    C8 6596   6.364   4.326   3.092 -0.4672  0.1068 -0.1841
   74CHL1    H8 6597   6.292   4.408   3.106  0.1855  0.6249  0.2014
   74CHL1   C14 6598   6.422   4.276   3.227  0.3446 -0.2447  0.8710
   74CHL1   H14 6599   6.509   4.209   3.212 -0.1121 -1.0762  1.8072
   74CHL1   C15 6600   6.338   4.189   3.317 -0.4788 -0.1685 -0.1423
   74CHL1  H15A 6601   6.236   4.231   3.332 -0.4715 -0.4985  0.9683
   74CHL1  H15B 6602   6.320   4.089   3.273  0.1380  0.5020 -2.0024
   74CHL1   C16 6603   6.412   4.196   3.447  0.3394  0.0666 -0.8585
   74CHL1  H16A 6604   6.349   4.207   3.537  2.0557 -0.5522  0.4752
   74CHL1  H16B 6605   6.469   4.102   3.458 -0.5424 -0.5758 -1.5831
   74CHL1   C17 6606   6.519   4.313   3.441 -0.5637 -0.2938  0.0441
   74CHL1   H17 6607   6.618   4.270   3.419 -1.5948 -3.1328  0.6232
   74CHL1   C13 6608   6.483   4.389   3.320  0.2507 -0.3101 -0.0000
   74CHL1   C18 6609   6.371   4.492   3.352 -0.1563  0.9515  0.0372
   74CHL1  H18A 6610   6.292   4.449   3.417 -2.1068  0.2791 -2.5723
   74CHL1  H18B 6611   6.409   4.582   3.406 -2.1342  0.7239  1.9523
   74CHL1  H18C 6612   6.336   4.527   3.252 -1.4105 -1.8457 -0.6063
   74CHL1   C12 6613   6.592   4.448   3.239 -0.2480 -0.4630  0.5353
   74CHL1  H12A 6614   6.638   4.532   3.295 -0.0768  0.8841 -1.5047
   74CHL1  H12B 6615   6.679   4.380   3.226  0.1739  0.2966 -0.8319
   74CHL1   C11 6616   6.546   4.504   3.099 -0.0156  0.4405 -0.2934
   74CHL1  H11A 6617   6.486   4.591   3.132 -0.2480  0.1944 -0.0602
   74CHL1  H11B 6618   6.631   4.547   3.042 -1.5890 -1.2343 -4.2416
   74CHL1    C9 6619   6.472   4.400   3.005  0.0563  0.5081 -0.3533
   74CHL1    H9 6620   6.551   4.324   2.991  0.5660  0.7951  0.8525
   74CHL1   C10 6621   6.426   4.458   2.874 -0.5207 -0.0083  0.1755
   74CHL1   C19 6622   6.328   4.573   2.899  0.5151  0.5105  0.3771
   74CHL1  H19A 6623   6.387   4.654   2.947  0.8690  1.1973 -1.1510
   74CHL1  H19B 6624   6.298   4.622   2.804  1.7806 -1.5706 -1.1980
   74CHL1  H19C 6625   6.242   4.540   2.960  0.4789  1.7965  1.0424
   74CHL1    C1 6626   6.548   4.505   2.790 -1.0726  0.1999 -0.1293
   74CHL1   H1A 6627   6.607   4.587   2.834  0.1093 -0.8474  0.2926
   74CHL1   H1B 6628   6.622   4.422   2.788 -1.3946 -0.2072  2.4254
   74CHL1    C2 6629   6.528   4.529   2.639  0.4601  0.4696  0.1695
   74CHL1   H2A 6630   6.626   4.552   2.592  2.0297 -2.4917  1.7126
   74CHL1   H2B 6631   6.462   4.618   2.628 -1.6070 -0.7445  1.9562
   74CHL1   C20 6632   6.530   4.386   3.581 -0.1101 -0.9354  0.8488
   74CHL1   H20 6633   6.433   4.433   3.609  0.0265 -1.2171  1.8126
   74CHL1   C21 6634   6.627   4.497   3.573  0.2602 -0.2333  0.4935
   74CHL1  H21A 6635   6.612   4.573   3.494  0.6362 -0.3367  0.3170
   74CHL1  H21B 6636   6.733   4.471   3.550  0.1138  0.3513 -1.0135
   74CHL1  H21C 6637   6.633   4.547   3.671  0.5571  0.0741  0.3237
   74CHL1   C22 6638   6.569   4.286   3.686 -0.0746 -0.1053 -0.2245
   74CHL1  H22A 6639   6.498   4.201   3.679  0.1393 -0.2050 -1.2542
   74CHL1  H22B 6640   6.670   4.240   3.678  0.3455  1.0304 -1.8639
   74CHL1   C23 6641   6.546   4.335   3.836  0.2261 -0.0375 -0.6394
   74CHL1  H23A 6642   6.620   4.412   3.868 -0.1574  0.6810 -1.4288
   74CHL1  H23B 6643   6.444   4.381   3.842 -0.6412 -1.5815 -2.5993
   74CHL1   C24 6644   6.562   4.223   3.943  0.4169  0.4370  0.1051
   74CHL1  H24A 6645   6.484   4.151   3.911 -0.1547  1.3880 -0.7102
   74CHL1  H24B 6646   6.666   4.186   3.931  1.1857  2.1644  1.0705
   74CHL1   C25 6647   6.548   4.272   4.082  0.1375  0.0884 -0.9246
   74CHL1   H25 6648   6.653   4.302   4.102  0.7412 -0.9783 -2.3761
   74CHL1   C26 6649   6.457   4.396   4.102  0.0908 -0.1324  0.0388
   74CHL1  H26A 6650   6.348   4.374   4.090 -0.2167  0.4909  1.4509
   74CHL1  H26B 6651   6.461   4.429   4.208  0.3790 -0.6132  0.1829
   74CHL1  H26C 6652   6.490   4.485   4.045 -0.6922 -1.0281 -1.9052
   74CHL1   C27 6653   6.519   4.156   4.189  0.4634 -0.1986  0.2352
   74CHL1  H27A 6654   6.414   4.127   4.169  1.0819 -2.4167  0.0028
   74CHL1  H27B 6655   6.586   4.068   4.178 -1.6949 -1.9811  0.5873
   74CHL1  H27C 6656   6.511   4.190   4.295 -0.2809  1.8750 -0.4381
   75CHL1    C3 6657   0.216   3.788   2.735 -0.3187 -0.4212 -0.1364
   75CHL1    H3 6658   0.167   3.887   2.748  0.6103  0.2502 -1.5252
   75CHL1    O3 6659   0.192   3.750   2.600 -0.0029  0.0231  0.0378
   75CHL1   H3' 6660   0.223   3.660   2.592 -0.2093 -0.0177 -0.3583
   75CHL1    C4 6661   0.372   3.794   2.755  0.2489  0.1641 -0.0364
   75CHL1   H4A 6662   0.419   3.701   2.717  0.1158 -0.5419  1.4542
   75CHL1   H4B 6663   0.418   3.874   2.692 -0.4430  1.5135  1.1118
   75CHL1    C5 6664   0.408   3.812   2.901 -0.2963 -0.0561  0.4586
   75CHL1    C6 6665   0.488   3.913   2.938  0.6427  0.3175 -0.0158
   75CHL1    H6 6666   0.526   3.986   2.865  0.3776  2.1996  1.6665
   75CHL1    C7 6667   0.528   3.937   3.082  0.0501  0.2632 -0.0864
   75CHL1   H7A 6668   0.638   3.953   3.078  0.3320 -1.6693 -2.1956
   75CHL1   H7B 6669   0.483   4.032   3.116 -0.1837 -0.3740  1.4878
   75CHL1    C8 6670   0.492   3.819   3.176 -0.4266 -0.7326  0.2425
   75CHL1    H8 6671   0.581   3.757   3.155  1.7054  2.3895 -0.6503
   75CHL1   C14 6672   0.486   3.867   3.318 -0.1871 -0.8330  0.5188
   75CHL1   H14 6673   0.406   3.944   3.325  0.3604 -0.1434 -0.6071
   75CHL1   C15 6674   0.613   3.950   3.362  0.2800 -0.1044 -0.4364
   75CHL1  H15A 6675   0.704   3.897   3.327  0.3962 -1.2266  1.4546
   75CHL1  H15B 6676   0.599   4.054   3.324  1.9700  0.1606 -0.4420
   75CHL1   C16 6677   0.612   3.937   3.513  0.0383  1.0101  0.6826
   75CHL1  H16A 6678   0.701   3.881   3.547  0.6749  0.4011 -1.8190
   75CHL1  H16B 6679   0.619   4.039   3.557  0.5979  0.6537  1.4334
   75CHL1   C17 6680   0.483   3.847   3.555  0.4112  0.3969 -0.2711
   75CHL1   H17 6681   0.392   3.911   3.564  0.3917  0.2697  0.5906
   75CHL1   C13 6682   0.465   3.770   3.422 -0.6168  0.2086 -0.2468
   75CHL1   C18 6683   0.581   3.661   3.418 -0.2367  0.2461 -0.2223
   75CHL1  H18A 6684   0.680   3.682   3.464 -0.1696 -2.2050  0.9403
   75CHL1  H18B 6685   0.535   3.585   3.485  2.1871 -0.6445  0.5507
   75CHL1  H18C 6686   0.604   3.617   3.319  4.5179  1.2871  0.1811
   75CHL1   C12 6687   0.325   3.714   3.395  0.3314 -0.7119  0.1897
   75CHL1  H12A 6688   0.304   3.642   3.477 -0.0989 -0.4722  0.2947
   75CHL1  H12B 6689   0.261   3.804   3.405  0.7779 -0.5224  1.5860
   75CHL1   C11 6690   0.319   3.653   3.252  0.1021 -0.3113  0.2321
   75CHL1  H11A 6691   0.396   3.573   3.260 -1.0462 -1.3089  2.4508
   75CHL1  H11B 6692   0.220   3.611   3.223  0.0180 -0.6127  0.9328
   75CHL1    C9 6693   0.359   3.752   3.143 -0.4293  0.0257  0.0405
   75CHL1    H9 6694   0.289   3.838   3.150  0.4574  0.8140 -0.5375
   75CHL1   C10 6695   0.344   3.712   2.999  0.4340  0.1920  0.1350
   75CHL1   C19 6696   0.422   3.578   2.977 -0.1056  0.2069  0.3236
   75CHL1  H19A 6697   0.527   3.566   3.012  0.0309 -0.0480 -0.1743
   75CHL1  H19B 6698   0.357   3.505   3.028 -2.1887  0.7724 -1.3913
   75CHL1  H19C 6699   0.426   3.549   2.870 -3.6835  0.5870 -0.0183
   75CHL1    C1 6700   0.194   3.687   2.975 -0.5216 -0.1188  0.1339
   75CHL1   H1A 6701   0.168   3.596   3.033  1.3487  0.1722  1.5114
   75CHL1   H1B 6702   0.129   3.764   3.021 -1.8597 -0.2337 -1.4426
   75CHL1    C2 6703   0.143   3.675   2.824 -0.4177  0.2721  0.0130
   75CHL1   H2A 6704   0.033   3.689   2.812 -0.2718  0.3484 -1.3426
   75CHL1   H2B 6705   0.175   3.576   2.787  1.0170  0.7376 -0.0463
   75CHL1   C20 6706   0.494   3.776   3.691  0.6985  0.6040 -0.5115
   75CHL1   H20 6707   0.580   3.707   3.681 -0.7281 -1.0268 -2.1764
   75CHL1   C21 6708   0.359   3.708   3.730 -0.7144  0.2132  0.0647
   75CHL1  H21A 6709   0.346   3.611   3.678  1.4031  0.2317 -0.6041
   75CHL1  H21B 6710   0.275   3.770   3.692  1.7696  2.9150 -1.3394
   75CHL1  H21C 6711   0.360   3.696   3.840 -1.3764 -0.0691  0.0438
   75CHL1   C22 6712   0.522   3.883   3.804  0.3909  0.8771  0.0720
   75CHL1  H22A 6713   0.471   3.975   3.770  0.1235  0.6677 -0.1062
   75CHL1  H22B 6714   0.462   3.849   3.892 -0.0686 -0.7254 -0.8141
   75CHL1   C23 6715   0.665   3.900   3.836  0.0003 -0.2477 -0.0645
   75CHL1  H23A 6716   0.719   3.805   3.854  0.9241 -0.2162 -2.3455
   75CHL1  H23B 6717   0.716   3.943   3.747 -0.5000 -2.4781 -1.4914
   75CHL1   C24 6718   0.678   3.996   3.954 -1.0042 -0.4280 -0.5946
   75CHL1  H24A 6719   0.616   4.087   3.945 -1.6285 -0.8208 -0.3463
   75CHL1  H24B 6720   0.647   3.946   4.048  3.0603  0.0877  1.2278
   75CHL1   C25 6721   0.825   4.053   3.978  0.1347  0.6388 -0.1590
   75CHL1   H25 6722   0.895   3.967   3.982  0.2187  0.6602 -0.9772
   75CHL1   C26 6723   0.866   4.158   3.874  0.0488 -0.8024  0.0520
   75CHL1  H26A 6724   0.953   4.217   3.911 -0.2475 -0.5487  0.3506
   75CHL1  H26B 6725   0.890   4.115   3.775 -1.1568 -2.0005  0.2555
   75CHL1  H26C 6726   0.788   4.236   3.856  0.0555 -1.0019 -0.8547
   75CHL1   C27 6727   0.835   4.113   4.125 -0.0767 -0.3460 -0.2565
   75CHL1  H27A 6728   0.931   4.167   4.133  0.4104 -1.4758  2.8471
   75CHL1  H27B 6729   0.748   4.180   4.142 -0.3769 -0.9198  0.5281
   75CHL1  H27C 6730   0.824   4.028   4.196  2.8843 -0.1311  0.5747
   76CHL1    C3 6731   5.106   5.145   3.049 -0.1501  0.3042  0.4441
   76CHL1    H3 6732   4.997   5.141   3.071  0.0560 -0.9899  1.3197
   76CHL1    O3 6733   5.120   5.146   2.908  0.3424  0.5287  0.0690
   76CHL1   H3' 6734   5.058   5.075   2.886 -0.3656  1.5958 -1.6243
   76CHL1    C4 6735   5.156   5.275   3.114  0.4374  0.0968  0.3432
   76CHL1   H4A 6736   5.266   5.276   3.096  0.5259  0.6108  0.8785
   76CHL1   H4B 6737   5.129   5.359   3.046  1.1123  1.0931  1.2699
   76CHL1    C5 6738   5.123   5.290   3.258  0.1701 -0.1522  0.0883
   76CHL1    C6 6739   5.060   5.397   3.307 -0.0118 -0.0784  0.3915
   76CHL1    H6 6740   5.035   5.481   3.240  2.1080  0.8982  0.7223
   76CHL1    C7 6741   5.026   5.414   3.454 -0.2623 -0.5423  0.4865
   76CHL1   H7A 6742   5.067   5.512   3.486  2.9373 -1.1807 -1.2332
   76CHL1   H7B 6743   4.915   5.415   3.460 -0.4808  4.2997 -0.2047
   76CHL1    C8 6744   5.090   5.299   3.543 -0.3234  0.3555 -0.2088
   76CHL1    H8 6745   5.198   5.319   3.560  0.2824 -1.2763 -1.8093
   76CHL1   C14 6746   5.014   5.296   3.678  0.2141 -0.1054  0.5331
   76CHL1   H14 6747   4.914   5.262   3.647 -0.4226  2.1920 -0.1200
   76CHL1   C15 6748   4.994   5.427   3.755  0.4122 -0.2100  0.0407
   76CHL1  H15A 6749   5.092   5.473   3.777 -0.2922  1.9181 -1.0374
   76CHL1  H15B 6750   4.940   5.502   3.693  3.4131  1.0143 -1.2808
   76CHL1   C16 6751   4.946   5.379   3.892  0.0015  0.0878 -0.1680
   76CHL1  H16A 6752   4.996   5.437   3.973  0.9514 -0.8504 -0.0551
   76CHL1  H16B 6753   4.837   5.398   3.901  0.2029  2.4351 -1.7708
   76CHL1   C17 6754   4.968   5.219   3.896  0.4891 -0.5014  0.4416
   76CHL1   H17 6755   4.866   5.181   3.876  1.2119 -1.8449 -0.8968
   76CHL1   C13 6756   5.059   5.189   3.781  0.5059  0.3000 -0.1431
   76CHL1   C18 6757   5.205   5.217   3.823  0.0823 -0.1114  0.1364
   76CHL1  H18A 6758   5.246   5.134   3.884  1.6166  0.0448 -0.6489
   76CHL1  H18B 6759   5.267   5.223   3.731 -0.5049 -0.7329 -0.3063
   76CHL1  H18C 6760   5.212   5.312   3.881 -0.7546  0.1480 -0.1591
   76CHL1   C12 6761   5.060   5.049   3.707 -0.3956  0.1105 -0.6431
   76CHL1  H12A 6762   5.108   4.975   3.774 -1.3307 -0.1526 -0.2492
   76CHL1  H12B 6763   4.953   5.021   3.695  0.0962 -2.6182  0.6259
   76CHL1   C11 6764   5.136   5.047   3.569 -0.2695 -0.8191 -0.8924
   76CHL1  H11A 6765   5.243   5.056   3.598 -0.7931 -1.7064  1.5813
   76CHL1  H11B 6766   5.118   4.947   3.524 -0.3215 -0.8048 -0.9042
   76CHL1    C9 6767   5.086   5.166   3.473 -0.2468  0.3014 -0.2186
   76CHL1    H9 6768   4.977   5.148   3.462  0.1476 -2.6063 -0.2548
   76CHL1   C10 6769   5.155   5.162   3.336 -0.1604 -0.3363 -0.2237
   76CHL1   C19 6770   5.312   5.150   3.364 -0.7518  0.6249 -0.2709
   76CHL1  H19A 6771   5.343   5.230   3.434 -0.4962  1.9807 -1.8530
   76CHL1  H19B 6772   5.329   5.052   3.414  1.2715  0.8748 -0.4006
   76CHL1  H19C 6773   5.370   5.139   3.270  1.7592  1.0111  1.1522
   76CHL1    C1 6774   5.123   5.027   3.260 -0.3174 -0.4242 -0.4037
   76CHL1   H1A 6775   5.187   4.946   3.301  4.2064  2.9600  0.0013
   76CHL1   H1B 6776   5.012   5.021   3.272 -0.3502  0.7366  0.0603
   76CHL1    C2 6777   5.168   5.028   3.111 -0.0194 -0.0406 -0.3204
   76CHL1   H2A 6778   5.132   4.929   3.076  2.5639 -1.1690 -0.0164
   76CHL1   H2B 6779   5.279   5.030   3.106  0.0664  0.4047  1.1522
   76CHL1   C20 6780   5.003   5.178   4.043  0.5359 -0.2098  0.1322
   76CHL1   H20 6781   5.103   5.216   4.071 -0.3891  0.8835  2.1622
   76CHL1   C21 6782   5.008   5.025   4.050  0.4233  0.7457 -0.1575
   76CHL1  H21A 6783   5.089   4.979   3.988  0.3643 -2.4351  1.8645
   76CHL1  H21B 6784   4.919   4.964   4.021  0.7222 -0.0451  0.5297
   76CHL1  H21C 6785   5.041   4.984   4.148  0.0266  2.2246  0.6235
   76CHL1   C22 6786   4.916   5.248   4.155  0.1955  0.1691  1.1267
   76CHL1  H22A 6787   4.891   5.352   4.126  1.4105  0.1287 -0.1892
   76CHL1  H22B 6788   4.827   5.181   4.160  0.3681 -0.6313 -2.8387
   76CHL1   C23 6789   4.998   5.249   4.291 -0.0027 -0.0030 -0.4950
   76CHL1  H23A 6790   5.027   5.147   4.325 -0.7833  0.2682  1.0773
   76CHL1  H23B 6791   5.093   5.307   4.285  1.4296 -2.1501  0.3157
   76CHL1   C24 6792   4.921   5.308   4.408 -0.7555  1.0703  0.5363
   76CHL1  H24A 6793   4.876   5.401   4.368 -0.9041  1.1936  0.9826
   76CHL1  H24B 6794   4.847   5.241   4.457  0.8122 -1.2168 -0.0750
   76CHL1   C25 6795   5.021   5.338   4.530 -0.0345  0.3090  0.3436
   76CHL1   H25 6796   4.951   5.362   4.613 -1.7763 -0.5811 -0.8082
   76CHL1   C26 6797   5.105   5.219   4.593  0.0791 -1.0127  0.2756
   76CHL1  H26A 6798   5.166   5.165   4.517 -0.0835  0.1525 -0.7043
   76CHL1  H26B 6799   5.185   5.264   4.655  1.3108  1.5044 -2.9088
   76CHL1  H26C 6800   5.039   5.153   4.654  1.9948 -1.1449  2.3454
   76CHL1   C27 6801   5.110   5.457   4.502  0.4824 -0.0556 -0.1585
   76CHL1  H27A 6802   5.177   5.431   4.417 -0.7905  0.3308 -1.3333
   76CHL1  H27B 6803   5.050   5.547   4.474  1.4810  0.5034 -0.5579
   76CHL1  H27C 6804   5.177   5.490   4.584  1.0046 -0.0759 -0.5690
   77SOPE     N 6805   3.793   1.233   6.435 -0.2176  0.6901  0.1489
   77SOPE   HN1 6806   3.729   1.302   6.479 -2.0813 -0.7979 -0.1490
   77SOPE   HN2 6807   3.750   1.196   6.348  0.5004  0.5440 -0.1496
   77SOPE   HN3 6808   3.788   1.155   6.503 -1.6795 -0.4617 -1.2202
   77SOPE   C12 6809   3.938   1.275   6.431  0.1141  0.0394 -0.3775
   77SOPE  H12A 6810   3.957   1.335   6.522 -0.7250 -0.5547  0.2063
   77SOPE  H12B 6811   3.951   1.324   6.332 -1.2438 -1.5161 -1.3870
   77SOPE   C11 6812   4.018   1.140   6.443 -0.3851  0.0397 -0.8143
   77SOPE  H11A 6813   4.123   1.176   6.434  0.1591  0.3856  4.2899
   77SOPE  H11B 6814   4.002   1.069   6.359  0.7221 -1.0258 -0.1615
   77SOPE     P 6815   4.076   1.061   6.687  0.4396 -0.2090 -0.4330
   77SOPE   O13 6816   4.054   0.932   6.756 -0.0494  0.7092  0.1323
   77SOPE   O14 6817   4.062   1.186   6.773  0.0442 -0.0582  0.4292
   77SOPE   O12 6818   3.982   1.070   6.556 -0.1611 -0.1595 -0.1434
   77SOPE   O11 6819   4.224   1.064   6.623  0.2250 -0.0916  0.0824
   77SOPE    C1 6820   4.281   0.938   6.585 -0.2210  0.4315  0.0416
   77SOPE    HA 6821   4.228   0.890   6.500  0.8971 -0.3413 -0.2505
   77SOPE    HB 6822   4.277   0.866   6.670  0.5793  0.6603  0.2773
   77SOPE    C2 6823   4.427   0.953   6.543 -0.5442  0.2473  0.1607
   77SOPE    HS 6824   4.480   1.000   6.629  0.4491 -0.7055  0.0942
   77SOPE   O21 6825   4.433   1.051   6.433  0.6737  0.5540  0.3179
   77SOPE   C21 6826   4.554   1.091   6.405 -0.6914 -0.2662 -0.4968
   77SOPE   O22 6827   4.654   1.062   6.473  0.3702  0.0603 -0.1339
   77SOPE   C22 6828   4.565   1.174   6.276  0.2725 -0.2211 -0.2056
   77SOPE   H2R 6829   4.541   1.280   6.297 -1.2413 -0.1114 -2.2016
   77SOPE   H2S 6830   4.479   1.153   6.208 -1.6994  2.6307  1.2148
   77SOPE    C3 6831   4.496   0.820   6.506  0.1168 -0.2829 -0.0082
   77SOPE    HX 6832   4.489   0.769   6.604  0.8068  0.0406  0.2110
   77SOPE    HY 6833   4.604   0.828   6.482 -0.0452 -2.7635 -1.9706
   77SOPE   O31 6834   4.414   0.754   6.403 -0.0103 -0.0529 -0.0756
   77SOPE   C31 6835   4.449   0.770   6.285  0.7049 -0.1339 -0.4729
   77SOPE   O32 6836   4.566   0.794   6.247 -0.3600 -0.5457  0.2826
   77SOPE   C32 6837   4.328   0.761   6.196  0.5413 -0.2551 -0.1522
   77SOPE   H2X 6838   4.233   0.789   6.246 -1.3194 -2.2528 -2.3274
   77SOPE   H2Y 6839   4.296   0.656   6.178 -1.1964  0.4142 -1.2186
   77SOPE   C23 6840   4.701   1.164   6.202  0.4234 -0.2077 -0.1760
   77SOPE   H3R 6841   4.786   1.154   6.272  0.8020 -0.4724 -0.6689
   77SOPE   H3S 6842   4.713   1.267   6.161 -3.7611  0.9837  1.1066
   77SOPE   C24 6843   4.703   1.063   6.087 -0.0782  0.1865  0.1203
   77SOPE   H4R 6844   4.669   0.962   6.120 -0.0092  0.2373  0.3484
   77SOPE   H4S 6845   4.625   1.110   6.024 -1.8013 -1.4835  0.8952
   77SOPE   C25 6846   4.837   1.062   6.011 -0.7567 -0.9931  0.2423
   77SOPE   H5R 6847   4.876   1.165   5.999 -0.6515 -0.7436  2.3798
   77SOPE   H5S 6848   4.903   0.995   6.071 -0.5875 -3.7544 -2.7279
   77SOPE   C26 6849   4.819   0.993   5.877  0.0772 -0.1243  0.3718
   77SOPE   H6R 6850   4.912   0.939   5.852  0.2681  0.4308 -0.1496
   77SOPE   H6S 6851   4.733   0.923   5.881 -0.4673  0.3979 -1.3630
   77SOPE   C27 6852   4.772   1.094   5.760 -0.1298  0.3877 -0.0417
   77SOPE   H7R 6853   4.747   1.034   5.670 -1.2698  0.2701  0.3353
   77SOPE   H7S 6854   4.682   1.150   5.792  0.6662  0.9927  1.2254
   77SOPE   C28 6855   4.861   1.212   5.725  0.3583  0.2964 -0.1723
   77SOPE   H8R 6856   4.820   1.266   5.637  2.4969  0.9917 -0.7807
   77SOPE   H8S 6857   4.859   1.284   5.810  0.0551  0.9669 -0.7385
   77SOPE   C29 6858   4.992   1.156   5.687 -0.4099  0.1973  0.6926
   77SOPE   H91 6859   5.053   1.121   5.772  0.0649  0.6310  0.5354
   77SOPE  C210 6860   5.046   1.133   5.566 -0.0905 -0.1036  0.6384
   77SOPE  H101 6861   5.145   1.085   5.560 -1.1585 -2.3132 -0.9930
   77SOPE  C211 6862   4.974   1.166   5.433 -0.2277 -0.6733  0.4796
   77SOPE  H11R 6863   4.863   1.170   5.440 -0.3605 -0.0346 -1.4113
   77SOPE  H11S 6864   4.996   1.098   5.348 -1.0202  0.5298 -0.7375
   77SOPE  C212 6865   5.027   1.308   5.383  0.2970 -0.1887  0.3015
   77SOPE  H12R 6866   5.136   1.304   5.361  0.2444 -1.5732  0.1836
   77SOPE  H12S 6867   5.011   1.379   5.466  0.3228 -1.3052  1.2897
   77SOPE  C213 6868   4.955   1.341   5.257  0.4699  0.0385 -0.2214
   77SOPE  H13R 6869   4.861   1.394   5.284  0.2103 -0.6154  0.1857
   77SOPE  H13S 6870   4.930   1.256   5.189 -2.5865  0.6225  0.0289
   77SOPE  C214 6871   5.042   1.441   5.176 -0.2304  0.0621  0.2599
   77SOPE  H14R 6872   5.140   1.390   5.168 -1.2860 -1.9906 -0.1590
   77SOPE  H14S 6873   5.059   1.538   5.229  1.7096  0.3009 -0.7053
   77SOPE  C215 6874   4.978   1.462   5.037  0.5954 -0.7626 -0.7448
   77SOPE  H15R 6875   5.037   1.546   4.993  0.3615 -0.9138 -1.3541
   77SOPE  H15S 6876   4.874   1.499   5.052  1.3538  2.2154 -2.0121
   77SOPE  C216 6877   4.980   1.350   4.939 -0.6708  0.7199  0.1840
   77SOPE  H16R 6878   4.877   1.310   4.928 -0.3624 -1.2641  3.2849
   77SOPE  H16S 6879   5.041   1.271   4.989 -0.8171  0.9631  0.7529
   77SOPE  C217 6880   5.052   1.378   4.807  0.1622  0.1104  0.2753
   77SOPE  H17R 6881   5.162   1.377   4.827 -0.0249 -0.3536  1.3729
   77SOPE  H17S 6882   5.020   1.470   4.754 -1.1467 -0.0824  0.7013
   77SOPE  C218 6883   5.012   1.269   4.712 -0.0160 -0.1957  0.4857
   77SOPE  H18R 6884   4.907   1.232   4.718 -0.6333  1.4466  0.5539
   77SOPE  H18S 6885   5.078   1.181   4.723  0.7246  0.3565  0.5077
   77SOPE  H18T 6886   5.024   1.300   4.606  0.9773 -1.2540  0.2799
   77SOPE   C33 6887   4.329   0.829   6.059  0.2288 -0.4577 -0.8056
   77SOPE   H3X 6888   4.361   0.934   6.078 -0.4174 -0.3919 -0.0186
   77SOPE   H3Y 6889   4.228   0.820   6.016 -0.3834  1.1461  0.2018
   77SOPE   C34 6890   4.424   0.763   5.958  0.3776 -0.2943 -0.8891
   77SOPE   H4X 6891   4.384   0.660   5.948 -0.4315  0.0684 -1.5117
   77SOPE   H4Y 6892   4.526   0.753   6.001 -0.7935 -0.8526  2.0401
   77SOPE   C35 6893   4.415   0.835   5.825  0.0500  0.4912 -0.3269
   77SOPE   H5X 6894   4.456   0.937   5.833  1.5251 -0.1611  0.8993
   77SOPE   H5Y 6895   4.311   0.832   5.784 -0.4610  1.5151  0.8483
   77SOPE   C36 6896   4.512   0.774   5.716 -0.7040 -0.1724  0.4654
   77SOPE   H6X 6897   4.484   0.668   5.702 -3.3981  0.7347 -2.1482
   77SOPE   H6Y 6898   4.620   0.789   5.736 -0.6768  0.8528 -0.3342
   77SOPE   C37 6899   4.476   0.840   5.573 -0.2309  0.0470 -0.5068
   77SOPE   H7X 6900   4.466   0.950   5.586  1.6326  0.1924 -0.1281
   77SOPE   H7Y 6901   4.377   0.790   5.559 -0.4770 -0.3202  2.0889
   77SOPE   C38 6902   4.575   0.799   5.467  0.3944  0.2989  0.6452
   77SOPE   H8X 6903   4.592   0.690   5.456 -0.3682  0.2515 -0.1942
   77SOPE   H8Y 6904   4.667   0.860   5.478  0.1526  0.9102 -0.5428
   77SOPE   C39 6905   4.534   0.837   5.319 -0.2292  0.7450  0.2746
   77SOPE   H9X 6906   4.609   0.839   5.237 -0.6590  1.3946 -0.1084
   77SOPE   H9Y 6907   4.488   0.938   5.330 -0.0292  0.7039  1.7605
   77SOPE  C310 6908   4.417   0.744   5.276  0.4998  0.0170  0.3434
   77SOPE  H10X 6909   4.338   0.800   5.221  0.7896 -1.2549 -1.4537
   77SOPE  H10Y 6910   4.375   0.680   5.357  3.1041 -0.1036  1.6986
   77SOPE  C311 6911   4.450   0.644   5.157  0.5856 -0.3079 -0.1444
   77SOPE  H11X 6912   4.486   0.545   5.195 -0.5643 -1.0175 -0.8461
   77SOPE  H11Y 6913   4.534   0.673   5.091 -1.8697  1.7676 -2.5857
   77SOPE  C312 6914   4.333   0.612   5.065  0.4157 -0.0100  0.2764
   77SOPE  H12X 6915   4.371   0.541   4.988 -1.5478 -0.3557 -0.4111
   77SOPE  H12Y 6916   4.307   0.708   5.016  1.1993 -0.1663 -0.4691
   77SOPE  C313 6917   4.225   0.533   5.146  0.0625 -0.0096 -0.4063
   77SOPE  H13X 6918   4.172   0.604   5.213 -0.9217 -1.8327  0.8464
   77SOPE  H13Y 6919   4.285   0.474   5.219  3.8630  4.5417  0.6273
   77SOPE  C314 6920   4.132   0.439   5.068  0.0073 -0.4299 -0.6406
   77SOPE  H14X 6921   4.085   0.491   4.981 -0.2519  0.2932 -0.0757
   77SOPE  H14Y 6922   4.053   0.407   5.139 -1.8161  2.2480 -1.2955
   77SOPE  C315 6923   4.202   0.321   4.999 -0.0122  0.6532  0.0364
   77SOPE  H15X 6924   4.280   0.284   5.069  0.9145  1.7528 -0.3900
   77SOPE  H15Y 6925   4.257   0.364   4.912  0.1435 -1.9207 -1.2386
   77SOPE  C316 6926   4.103   0.215   4.940  0.4135 -0.3493 -0.4341
   77SOPE  H16X 6927   4.052   0.160   5.022 -0.9435  0.1089 -0.9596
   77SOPE  H16Y 6928   4.160   0.142   4.878 -1.4534 -0.9731 -1.4754
   77SOPE  C317 6929   3.986   0.271   4.856  0.0714 -0.1182  0.1638
   77SOPE  H17X 6930   3.922   0.329   4.927 -1.0892  0.0876 -1.0106
   77SOPE  H17Y 6931   3.921   0.184   4.832 -1.0907  0.1945  1.9806
   77SOPE  C318 6932   4.029   0.347   4.739 -0.5486  0.3894 -0.2422
   77SOPE  H18X 6933   4.082   0.277   4.672 -1.3605 -2.5348  1.9213
   77SOPE  H18Y 6934   4.089   0.439   4.754  0.0805 -0.3210  2.1653
   77SOPE  H18Z 6935   3.931   0.365   4.691 -1.3862 -0.1750  1.1754
   78SOPE     N 6936   2.503   1.619   6.680 -0.1738  0.1843  0.3569
   78SOPE   HN1 6937   2.448   1.579   6.758 -0.6985  1.3475  0.5984
   78SOPE   HN2 6938   2.520   1.721   6.694  0.5787 -0.1483  2.0880
   78SOPE   HN3 6939   2.446   1.600   6.595 -1.3168 -0.8340  1.3105
   78SOPE   C12 6940   2.640   1.563   6.645 -0.9122  0.4249 -0.6074
   78SOPE  H12A 6941   2.644   1.452   6.635  1.6515  0.5453 -1.7231
   78SOPE  H12B 6942   2.702   1.598   6.730 -1.6811 -0.1609  0.2152
   78SOPE   C11 6943   2.702   1.621   6.515  0.0203 -0.4509 -0.4708
   78SOPE  H11A 6944   2.639   1.603   6.425  1.6803  0.4671 -1.8681
   78SOPE  H11B 6945   2.794   1.566   6.487  0.1719 -0.4785  0.0682
   78SOPE     P 6946   2.640   1.879   6.495  0.1135  0.3188 -0.3144
   78SOPE   O13 6947   2.715   2.003   6.458 -0.1998  0.3379 -0.4670
   78SOPE   O14 6948   2.542   1.901   6.600  0.6119 -0.1093  0.3930
   78SOPE   O12 6949   2.734   1.762   6.541 -0.7070  0.9794  0.2751
   78SOPE   O11 6950   2.569   1.827   6.369 -0.2623  0.2847 -0.3281
   78SOPE    C1 6951   2.648   1.790   6.248  0.1804 -0.1352  0.4637
   78SOPE    HA 6952   2.605   1.714   6.179  0.3924  2.2298 -2.4651
   78SOPE    HB 6953   2.754   1.765   6.270 -0.4426 -6.3085 -1.5436
   78SOPE    C2 6954   2.661   1.919   6.161 -0.4603 -0.3500  0.2796
   78SOPE    HS 6955   2.671   2.009   6.225 -0.5214  0.2903 -0.5962
   78SOPE   O21 6956   2.547   1.919   6.074 -0.2834  0.6856 -0.1174
   78SOPE   C21 6957   2.511   2.042   6.043 -0.4834  0.4152 -0.5738
   78SOPE   O22 6958   2.575   2.142   6.075  0.6323 -0.6476  0.1390
   78SOPE   C22 6959   2.373   2.046   5.964  0.3928 -0.2228 -0.7774
   78SOPE   H2R 6960   2.301   2.050   6.048 -0.2502 -0.2138 -1.3170
   78SOPE   H2S 6961   2.360   1.943   5.923 -2.1290 -0.4650  0.4370
   78SOPE    C3 6962   2.785   1.906   6.068 -0.5984  0.4426  0.1013
   78SOPE    HX 6963   2.873   1.924   6.133 -1.6040  0.2006  1.5673
   78SOPE    HY 6964   2.771   1.988   5.994  0.1889  0.3415 -0.1732
   78SOPE   O31 6965   2.798   1.769   6.012 -0.5606 -0.5990 -0.5223
   78SOPE   C31 6966   2.776   1.748   5.885 -0.2490  0.1283 -0.5009
   78SOPE   O32 6967   2.727   1.827   5.806  0.9532  0.0530  0.1977
   78SOPE   C32 6968   2.833   1.614   5.858  0.5668  0.0776  0.0099
   78SOPE   H2X 6969   2.776   1.542   5.920 -2.5522  0.2314 -2.4354
   78SOPE   H2Y 6970   2.939   1.604   5.890 -0.5405  0.4001  4.3970
   78SOPE   C23 6971   2.363   2.157   5.860  0.1590 -0.0568 -0.6473
   78SOPE   H3R 6972   2.410   2.250   5.897  0.4379 -0.9341  1.3202
   78SOPE   H3S 6973   2.254   2.176   5.851 -0.0564 -0.7810  0.2520
   78SOPE   C24 6974   2.432   2.123   5.729  0.8931 -0.0973 -0.0142
   78SOPE   H4R 6975   2.537   2.095   5.749  0.8973 -1.1820 -1.4004
   78SOPE   H4S 6976   2.373   2.040   5.683  1.1822 -1.0328  1.2474
   78SOPE   C25 6977   2.418   2.238   5.638 -0.1698  0.0318 -0.1409
   78SOPE   H5R 6978   2.312   2.273   5.633 -0.3373 -0.3271  0.6584
   78SOPE   H5S 6979   2.487   2.315   5.679  2.6419 -2.7354  0.6925
   78SOPE   C26 6980   2.463   2.224   5.495 -1.0192 -0.0059  0.7189
   78SOPE   H6R 6981   2.564   2.178   5.499 -1.7999 -2.1191 -1.6558
   78SOPE   H6S 6982   2.406   2.145   5.442  0.5107 -2.3714  2.4138
   78SOPE   C27 6983   2.495   2.359   5.429  0.4498 -0.6260 -0.6237
   78SOPE   H7R 6984   2.546   2.420   5.507  3.0384 -1.0632 -1.8521
   78SOPE   H7S 6985   2.581   2.351   5.359  0.8516  3.1527 -0.7591
   78SOPE   C28 6986   2.373   2.436   5.390 -0.0401  0.0378  0.0794
   78SOPE   H8R 6987   2.313   2.368   5.326  1.4392 -1.4454  0.1661
   78SOPE   H8S 6988   2.318   2.461   5.483 -0.6011  1.0801 -0.5285
   78SOPE   C29 6989   2.406   2.568   5.329 -0.3608  0.0836 -0.2266
   78SOPE   H91 6990   2.424   2.645   5.406  0.2808 -1.0779  0.8300
   78SOPE  C210 6991   2.435   2.589   5.200  0.0031  0.2946 -0.1751
   78SOPE  H101 6992   2.446   2.693   5.166 -0.1457 -0.3725 -2.4283
   78SOPE  C211 6993   2.417   2.484   5.092 -0.5878 -0.3465  0.3925
   78SOPE  H11R 6994   2.394   2.383   5.133 -0.1670 -0.1102  1.2388
   78SOPE  H11S 6995   2.514   2.482   5.038 -0.7902  2.6053 -0.2560
   78SOPE  C212 6996   2.301   2.507   4.995  0.4270 -0.4825  0.3408
   78SOPE  H12R 6997   2.307   2.591   4.923 -0.3973 -0.4522  0.3017
   78SOPE  H12S 6998   2.208   2.519   5.055  0.5561 -0.8184  0.6139
   78SOPE  C213 6999   2.284   2.369   4.912 -0.4819  0.0183  0.5269
   78SOPE  H13R 7000   2.177   2.364   4.881  0.1715 -1.9442 -1.7016
   78SOPE  H13S 7001   2.290   2.284   4.983  0.3780  1.2107  1.9333
   78SOPE  C214 7002   2.378   2.373   4.796  0.1184 -0.5268 -0.4073
   78SOPE  H14R 7003   2.482   2.375   4.837 -0.2427  1.4009  0.5142
   78SOPE  H14S 7004   2.377   2.467   4.737 -0.6377 -1.1758 -1.4568
   78SOPE  C215 7005   2.367   2.254   4.696 -0.8341 -0.0777  0.2060
   78SOPE  H15R 7006   2.376   2.162   4.757  0.0753 -0.1973 -0.0945
   78SOPE  H15S 7007   2.454   2.250   4.627 -1.4083 -0.8355 -0.4985
   78SOPE  C216 7008   2.236   2.249   4.621  0.1409 -0.0283  1.1171
   78SOPE  H16R 7009   2.163   2.228   4.702  1.8403 -1.1839  2.4249
   78SOPE  H16S 7010   2.230   2.172   4.541 -1.1837  0.7642  0.4275
   78SOPE  C217 7011   2.209   2.381   4.539 -0.6351 -0.1823 -0.0880
   78SOPE  H17R 7012   2.187   2.465   4.608 -1.5815  2.1508 -3.0343
   78SOPE  H17S 7013   2.119   2.364   4.477 -1.0970 -0.8040  0.7288
   78SOPE  C218 7014   2.333   2.417   4.446  0.4824 -0.7020  0.4578
   78SOPE  H18R 7015   2.361   2.332   4.380  0.8567 -0.4208  0.2511
   78SOPE  H18S 7016   2.421   2.439   4.510  0.4081  2.5042 -0.3743
   78SOPE  H18T 7017   2.310   2.499   4.375 -1.2896 -1.9415 -0.4804
   78SOPE   C33 7018   2.851   1.587   5.707  0.7172  0.1588 -0.6282
   78SOPE   H3X 7019   2.938   1.522   5.684  1.5149  0.4361  1.3695
   78SOPE   H3Y 7020   2.886   1.682   5.660  5.0966 -0.9436 -0.0158
   78SOPE   C34 7021   2.720   1.529   5.645 -0.6773  0.1788  0.4561
   78SOPE   H4X 7022   2.636   1.570   5.704 -1.6866  0.0878 -0.8635
   78SOPE   H4Y 7023   2.714   1.418   5.643  0.4353  0.1111  0.0084
   78SOPE   C35 7024   2.699   1.571   5.500 -0.0961  0.0698 -0.2138
   78SOPE   H5X 7025   2.625   1.501   5.455 -2.0662  0.9142  1.5021
   78SOPE   H5Y 7026   2.789   1.558   5.437 -0.7294  0.6762 -1.2736
   78SOPE   C36 7027   2.658   1.714   5.474 -0.8044  0.4748  0.4228
   78SOPE   H6X 7028   2.736   1.790   5.496 -1.1921  0.8128  0.6716
   78SOPE   H6Y 7029   2.573   1.747   5.538  2.0389  0.4651  4.5241
   78SOPE   C37 7030   2.643   1.745   5.318 -0.1193 -0.4085 -0.5460
   78SOPE   H7X 7031   2.595   1.666   5.256 -3.2037  1.8644 -1.3177
   78SOPE   H7Y 7032   2.744   1.773   5.281 -0.3117  0.6884 -0.2789
   78SOPE   C38 7033   2.556   1.866   5.295 -0.0794 -0.2834  0.2932
   78SOPE   H8X 7034   2.604   1.958   5.334  1.0474  0.0908 -1.8095
   78SOPE   H8Y 7035   2.459   1.850   5.348 -1.8929 -2.5530 -3.2830
   78SOPE   C39 7036   2.538   1.891   5.139  0.1213 -1.5521  0.0650
   78SOPE   H9X 7037   2.623   1.856   5.077  0.5278  2.6849 -2.1118
   78SOPE   H9Y 7038   2.530   2.001   5.129  1.0047 -1.5204 -0.4396
   78SOPE  C310 7039   2.404   1.839   5.090  0.3913  0.3307  0.3787
   78SOPE  H10X 7040   2.317   1.879   5.145  0.3267 -0.6949  1.0590
   78SOPE  H10Y 7041   2.411   1.728   5.101  0.8789  0.1764 -1.2070
   78SOPE  C311 7042   2.375   1.871   4.941 -0.2616  0.6972 -0.4031
   78SOPE  H11X 7043   2.452   1.820   4.881  0.1949 -0.2253  0.9150
   78SOPE  H11Y 7044   2.367   1.980   4.919  1.1656  0.7731 -0.6395
   78SOPE  C312 7045   2.242   1.806   4.901  0.0807  0.1114 -0.7156
   78SOPE  H12X 7046   2.168   1.842   4.976 -0.4326  0.2576 -1.2839
   78SOPE  H12Y 7047   2.250   1.696   4.914 -0.6812 -0.0034 -1.1431
   78SOPE  C313 7048   2.202   1.843   4.757  0.6333  0.0517 -0.0284
   78SOPE  H13X 7049   2.273   1.808   4.680  0.3066 -0.2624 -0.1903
   78SOPE  H13Y 7050   2.203   1.954   4.750  0.0869  0.0657  0.0346
   78SOPE  C314 7051   2.062   1.792   4.725  0.2045  0.1463 -0.1324
   78SOPE  H14X 7052   2.016   1.857   4.648 -0.6807 -0.2163  0.0871
   78SOPE  H14Y 7053   2.003   1.803   4.819  0.8832  3.8476  0.0170
   78SOPE  C315 7054   2.073   1.639   4.674 -0.0508  0.2718 -1.0794
   78SOPE  H15X 7055   2.137   1.584   4.745  0.3243 -0.4651 -1.9610
   78SOPE  H15Y 7056   2.120   1.631   4.573  0.4731 -2.9472 -0.6665
   78SOPE  C316 7057   1.932   1.570   4.677 -0.1130 -0.3069  0.6026
   78SOPE  H16X 7058   1.903   1.563   4.784  0.7532  2.5089  1.0879
   78SOPE  H16Y 7059   1.934   1.465   4.642 -0.4876  0.2076 -1.0496
   78SOPE  C317 7060   1.822   1.647   4.599 -0.9125  1.0305 -0.8033
   78SOPE  H17X 7061   1.871   1.701   4.515  0.4725 -3.1094 -2.9781
   78SOPE  H17Y 7062   1.763   1.721   4.656  0.4678  1.5163  0.0534
   78SOPE  C318 7063   1.721   1.549   4.532 -0.6134 -0.3939 -0.9088
   78SOPE  H18X 7064   1.635   1.597   4.480  0.2043 -0.6255 -2.5388
   78SOPE  H18Y 7065   1.681   1.487   4.615 -1.2619 -0.5397 -1.3229
   78SOPE  H18Z 7066   1.778   1.480   4.467 -3.0500 -1.1400 -2.3544
   79SOPE     N 7067   5.099   5.996   6.885  0.2804 -0.2560  0.0097
   79SOPE   HN1 7068   5.009   5.954   6.852  0.7449 -0.3210 -1.2329
   79SOPE   HN2 7069   5.112   5.949   6.977  0.5186 -1.4266 -0.5934
   79SOPE   HN3 7070   5.103   6.099   6.898  1.0050 -0.4862  2.0030
   79SOPE   C12 7071   5.203   5.947   6.782  0.5209 -0.9372 -0.0476
   79SOPE  H12A 7072   5.299   5.994   6.811  0.6516 -0.6460 -0.9264
   79SOPE  H12B 7073   5.172   5.973   6.679 -0.4410  1.7567  0.8411
   79SOPE   C11 7074   5.214   5.790   6.784 -0.3499 -0.3309 -0.2180
   79SOPE  H11A 7075   5.291   5.744   6.718 -0.3007  0.3937 -0.6747
   79SOPE  H11B 7076   5.119   5.750   6.742 -0.1283  0.4955 -1.5588
   79SOPE     P 7077   5.216   5.598   6.968 -0.2443 -0.0652  0.0761
   79SOPE   O13 7078   5.091   5.592   7.047 -0.2940 -1.1495 -0.2771
   79SOPE   O14 7079   5.343   5.558   7.031 -0.1367 -0.1757  0.4533
   79SOPE   O12 7080   5.234   5.746   6.921  0.5691  0.4752  0.0541
   79SOPE   O11 7081   5.194   5.520   6.827 -0.0517  0.5615  0.3211
   79SOPE    C1 7082   5.273   5.401   6.807 -0.0008  0.0311  0.1949
   79SOPE    HA 7083   5.202   5.317   6.793  0.6166 -0.3360 -0.8591
   79SOPE    HB 7084   5.345   5.358   6.881 -0.6039  1.1656  1.4851
   79SOPE    C2 7085   5.361   5.407   6.675 -0.2849 -0.5230  0.1138
   79SOPE    HS 7086   5.428   5.494   6.688 -0.7240 -0.0150 -0.8942
   79SOPE   O21 7087   5.277   5.433   6.558  0.6395  0.0911 -0.6361
   79SOPE   C21 7088   5.328   5.498   6.457 -0.1267 -0.1006  0.0657
   79SOPE   O22 7089   5.436   5.554   6.465  0.3622 -0.2123 -0.4004
   79SOPE   C22 7090   5.232   5.505   6.338 -0.0598 -0.0181  1.2110
   79SOPE   H2R 7091   5.135   5.532   6.384 -1.3181 -1.4118 -0.5022
   79SOPE   H2S 7092   5.228   5.398   6.310  1.6748 -0.1185  1.2063
   79SOPE    C3 7093   5.462   5.286   6.654 -0.1292  0.4213  0.1368
   79SOPE    HX 7094   5.407   5.190   6.642  0.1329  0.3547 -0.5738
   79SOPE    HY 7095   5.516   5.268   6.749  1.1432 -2.6346 -1.0403
   79SOPE   O31 7096   5.565   5.303   6.553  0.2543  0.1530  0.5323
   79SOPE   C31 7097   5.657   5.392   6.581 -0.8185 -0.0340 -0.3024
   79SOPE   O32 7098   5.673   5.454   6.683  0.2845 -0.0807  0.3824
   79SOPE   C32 7099   5.758   5.398   6.467 -0.1642 -0.5495 -0.3718
   79SOPE   H2X 7100   5.807   5.299   6.461  0.1032 -0.4002 -0.7006
   79SOPE   H2Y 7101   5.826   5.478   6.504 -1.9103  1.6741 -1.7179
   79SOPE   C23 7102   5.289   5.591   6.223 -0.0731  0.0387  0.4064
   79SOPE   H3R 7103   5.395   5.564   6.208  0.9290  2.5669  2.2176
   79SOPE   H3S 7104   5.278   5.701   6.239 -2.4667 -0.1551  0.4943
   79SOPE   C24 7105   5.221   5.547   6.090  0.0278 -0.0977 -0.1005
   79SOPE   H4R 7106   5.257   5.443   6.076 -1.8452 -1.0549  1.6572
   79SOPE   H4S 7107   5.110   5.548   6.103  0.0903 -0.4229  0.4922
   79SOPE   C25 7108   5.262   5.631   5.970  0.1175 -0.8792 -0.2494
   79SOPE   H5R 7109   5.236   5.739   5.982  1.2580 -0.5068 -0.9328
   79SOPE   H5S 7110   5.373   5.639   5.970  0.0821  0.3187  1.4429
   79SOPE   C26 7111   5.217   5.563   5.843  0.2464 -0.1611  0.6239
   79SOPE   H6R 7112   5.251   5.458   5.831 -1.0447 -0.6128  0.7631
   79SOPE   H6S 7113   5.106   5.569   5.842  0.3044  2.7081  1.9459
   79SOPE   C27 7114   5.255   5.627   5.708 -0.2598 -0.4995  0.8021
   79SOPE   H7R 7115   5.222   5.569   5.619  1.1060 -1.4328  0.8617
   79SOPE   H7S 7116   5.188   5.715   5.704  0.1154 -0.2395 -0.0171
   79SOPE   C28 7117   5.400   5.661   5.681  0.2420 -0.6908 -0.1105
   79SOPE   H8R 7118   5.431   5.746   5.746 -0.0719  0.7051 -1.7104
   79SOPE   H8S 7119   5.459   5.572   5.710  0.4551 -0.5554 -0.1253
   79SOPE   C29 7120   5.430   5.701   5.538  0.4667 -0.7038  0.0491
   79SOPE   H91 7121   5.352   5.651   5.479 -2.7244  2.9472  0.7481
   79SOPE  C210 7122   5.521   5.773   5.491 -0.4815  0.0186  0.1917
   79SOPE  H101 7123   5.535   5.775   5.382 -0.3266  0.3282  0.2184
   79SOPE  C211 7124   5.640   5.833   5.559  0.1564 -0.8527  0.3348
   79SOPE  H11R 7125   5.712   5.837   5.475 -0.5241  1.6596 -0.1997
   79SOPE  H11S 7126   5.685   5.765   5.635  2.2219 -1.5149 -1.3871
   79SOPE  C212 7127   5.618   5.975   5.610  0.1057 -0.0230  0.2541
   79SOPE  H12R 7128   5.592   6.034   5.519  0.3443 -0.8262 -0.3515
   79SOPE  H12S 7129   5.713   6.015   5.652 -0.8393  3.1885 -0.4229
   79SOPE  C213 7130   5.508   6.001   5.713 -0.2206  0.4396 -0.1692
   79SOPE  H13R 7131   5.531   5.927   5.793  2.6618  0.0545 -1.2277
   79SOPE  H13S 7132   5.410   5.978   5.667  0.4869 -2.5959 -0.3693
   79SOPE  C214 7133   5.510   6.141   5.766 -0.1876  0.2980 -0.6026
   79SOPE  H14R 7134   5.407   6.153   5.807 -0.0631  1.6643 -0.6495
   79SOPE  H14S 7135   5.515   6.215   5.683  2.8560  0.6840 -0.1854
   79SOPE  C215 7136   5.615   6.166   5.877  0.6117 -0.0550 -0.1805
   79SOPE  H15R 7137   5.581   6.250   5.941 -2.0089 -1.4124  0.3941
   79SOPE  H15S 7138   5.710   6.198   5.830  1.7987 -0.1832  2.0240
   79SOPE  C216 7139   5.641   6.060   5.982 -1.1239  0.2250 -0.4613
   79SOPE  H16R 7140   5.697   5.974   5.939 -1.0140 -0.3514  0.7659
   79SOPE  H16S 7141   5.540   6.028   6.017 -1.5103  0.9478 -0.8981
   79SOPE  C217 7142   5.717   6.108   6.110 -0.5998 -0.0214 -0.2655
   79SOPE  H17R 7143   5.640   6.172   6.159  1.2373  2.3399 -0.2832
   79SOPE  H17S 7144   5.797   6.173   6.069  1.4437 -0.6002  2.5640
   79SOPE  C218 7145   5.753   5.999   6.204 -0.1500  0.5850 -0.1580
   79SOPE  H18R 7146   5.811   5.927   6.142 -0.8932  0.1887 -0.4138
   79SOPE  H18S 7147   5.669   5.941   6.249  0.0980 -0.6668 -1.2431
   79SOPE  H18T 7148   5.808   6.049   6.286  0.0905 -0.6534  0.4578
   79SOPE   C33 7149   5.710   5.451   6.331  0.3758 -0.0927  0.6000
   79SOPE   H3X 7150   5.706   5.561   6.322  3.2043  0.0355 -0.1531
   79SOPE   H3Y 7151   5.605   5.418   6.318  0.2753 -0.1521  1.4767
   79SOPE   C34 7152   5.787   5.402   6.206  0.3430 -0.1864  0.6365
   79SOPE   H4X 7153   5.772   5.293   6.187 -1.0622  0.2481 -0.9441
   79SOPE   H4Y 7154   5.898   5.405   6.206  0.4347 -2.0919  1.3586
   79SOPE   C35 7155   5.735   5.474   6.075 -0.3846 -0.1167 -0.5554
   79SOPE   H5X 7156   5.758   5.580   6.097  1.0484 -0.5583  0.1977
   79SOPE   H5Y 7157   5.627   5.448   6.066 -0.0000 -2.2584  0.4253
   79SOPE   C36 7158   5.792   5.411   5.950 -0.5786  0.5350  0.3915
   79SOPE   H6X 7159   5.763   5.304   5.951  0.4499  0.1798 -1.7179
   79SOPE   H6Y 7160   5.903   5.411   5.959 -0.6100 -2.1588  1.8161
   79SOPE   C37 7161   5.750   5.478   5.823  0.5325  0.2612  0.4044
   79SOPE   H7X 7162   5.796   5.579   5.821  0.4143  0.3011 -1.0122
   79SOPE   H7Y 7163   5.639   5.487   5.829  0.3683 -1.6118  0.9003
   79SOPE   C38 7164   5.794   5.403   5.694 -0.1674  0.8485 -0.0594
   79SOPE   H8X 7165   5.747   5.303   5.682 -0.1201  0.9524 -1.1964
   79SOPE   H8Y 7166   5.904   5.391   5.700 -0.1397  0.6740 -0.8178
   79SOPE   C39 7167   5.755   5.480   5.571 -0.1142 -0.6394 -0.0387
   79SOPE   H9X 7168   5.812   5.575   5.568  2.6660 -2.1052  1.6199
   79SOPE   H9Y 7169   5.649   5.507   5.590 -0.2230  0.1962 -1.6416
   79SOPE  C310 7170   5.777   5.426   5.430  0.3291 -0.3096 -0.1235
   79SOPE  H10X 7171   5.771   5.316   5.413  2.7103 -0.2082 -2.1151
   79SOPE  H10Y 7172   5.882   5.449   5.404  0.3617  0.6235  0.7733
   79SOPE  C311 7173   5.676   5.491   5.329  0.2183 -0.1476  0.0831
   79SOPE  H11X 7174   5.684   5.601   5.340  0.1907 -0.0230 -1.0468
   79SOPE  H11Y 7175   5.569   5.468   5.346  0.2231 -0.3313 -0.1286
   79SOPE  C312 7176   5.718   5.454   5.187  0.6241 -1.0113 -0.6643
   79SOPE  H12X 7177   5.643   5.484   5.110 -0.0288 -1.2858 -0.1499
   79SOPE  H12Y 7178   5.749   5.348   5.173 -1.5438 -1.6171 -1.2558
   79SOPE  C313 7179   5.849   5.532   5.138 -0.6180  0.2006  0.1606
   79SOPE  H13X 7180   5.935   5.503   5.203  0.8553  0.3275 -1.6452
   79SOPE  H13Y 7181   5.825   5.640   5.143 -1.7430 -0.0595  0.8212
   79SOPE  C314 7182   5.888   5.497   4.991  0.2805  0.7097 -0.4435
   79SOPE  H14X 7183   5.891   5.387   4.977  1.4431  0.4415  1.6946
   79SOPE  H14Y 7184   5.988   5.536   4.964  0.6497  1.0507  1.3052
   79SOPE  C315 7185   5.787   5.543   4.887  0.4455 -0.0301 -0.6258
   79SOPE  H15X 7186   5.780   5.652   4.906 -0.3642 -0.2369  0.3076
   79SOPE  H15Y 7187   5.691   5.490   4.905 -0.3399  1.1092 -1.3028
   79SOPE  C316 7188   5.844   5.525   4.747  0.0660  0.5205  0.6121
   79SOPE  H16X 7189   5.942   5.576   4.735  0.0967  0.2338 -0.4879
   79SOPE  H16Y 7190   5.792   5.589   4.672  0.8308 -2.2498 -2.5169
   79SOPE  C317 7191   5.846   5.377   4.695 -0.0118 -0.5640 -0.4219
   79SOPE  H17X 7192   5.903   5.308   4.761 -0.3602 -1.7893 -1.3521
   79SOPE  H17Y 7193   5.903   5.388   4.600  3.6148  1.0847  1.7470
   79SOPE  C318 7194   5.708   5.322   4.660 -0.3528  0.9015 -0.2091
   79SOPE  H18X 7195   5.659   5.293   4.755  0.5884  0.7032  0.2290
   79SOPE  H18Y 7196   5.727   5.230   4.600 -1.2255  0.6826 -0.1567
   79SOPE  H18Z 7197   5.647   5.388   4.594  2.7215  2.6949 -1.5093
   80SOPE     N 7198   1.777   0.310   6.679  0.6799  0.4124 -0.7437
   80SOPE   HN1 7199   1.699   0.334   6.615 -0.1291 -0.3600 -0.0713
   80SOPE   HN2 7200   1.870   0.349   6.654  0.1697  2.4765  0.3447
   80SOPE   HN3 7201   1.790   0.207   6.689 -0.1159  0.4959  2.2348
   80SOPE   C12 7202   1.755   0.368   6.816 -0.1165  0.2299  0.1046
   80SOPE  H12A 7203   1.850   0.364   6.873 -0.4628  1.1876  0.7667
   80SOPE  H12B 7204   1.668   0.319   6.865 -0.6001 -1.3552 -2.1688
   80SOPE   C11 7205   1.721   0.514   6.807 -0.2232  0.3454 -0.5874
   80SOPE  H11A 7206   1.807   0.562   6.755 -0.2380 -1.6023 -2.5777
   80SOPE  H11B 7207   1.707   0.561   6.907 -0.2204 -1.0191  0.0784
   80SOPE     P 7208   1.502   0.654   6.748  0.2335 -0.2123 -0.0641
   80SOPE   O13 7209   1.563   0.774   6.692  0.0549 -0.1027 -0.2534
   80SOPE   O14 7210   1.466   0.667   6.890  0.1320  0.0938 -0.1000
   80SOPE   O12 7211   1.599   0.531   6.726  0.4424 -0.5119  0.3124
   80SOPE   O11 7212   1.382   0.603   6.664  0.0037 -0.4699 -0.4841
   80SOPE    C1 7213   1.366   0.476   6.615 -0.3724 -0.9117  0.4433
   80SOPE    HA 7214   1.259   0.461   6.592 -0.4308  3.0896 -3.2779
   80SOPE    HB 7215   1.404   0.399   6.685 -0.7055  0.1236  1.8176
   80SOPE    C2 7216   1.428   0.470   6.471 -0.0104  0.2063 -0.5845
   80SOPE    HS 7217   1.538   0.466   6.483 -0.1084 -0.4540  0.2409
   80SOPE   O21 7218   1.382   0.582   6.396  0.6608 -0.4527  0.4861
   80SOPE   C21 7219   1.477   0.641   6.325  0.1671 -0.2661 -0.4160
   80SOPE   O22 7220   1.593   0.613   6.327 -0.4863 -0.4524  0.4689
   80SOPE   C22 7221   1.416   0.756   6.244  0.0063 -0.5737  0.6811
   80SOPE   H2R 7222   1.383   0.837   6.313 -1.7052 -1.5490  1.0669
   80SOPE   H2S 7223   1.332   0.710   6.187 -1.4852  3.3372 -0.6238
   80SOPE    C3 7224   1.394   0.341   6.394 -0.4700 -0.3602 -0.0632
   80SOPE    HX 7225   1.289   0.344   6.359  0.0678 -0.6693 -1.8214
   80SOPE    HY 7226   1.389   0.262   6.472  0.2010  0.8806  1.2662
   80SOPE   O31 7227   1.493   0.313   6.291  0.3645 -0.0375  0.5877
   80SOPE   C31 7228   1.600   0.265   6.344 -0.4955  0.0110  0.1479
   80SOPE   O32 7229   1.633   0.246   6.458  0.2328 -0.3064 -0.4202
   80SOPE   C32 7230   1.706   0.263   6.229 -0.7085  0.7018  1.0204
   80SOPE   H2X 7231   1.797   0.302   6.280 -0.6551 -0.2272  1.6610
   80SOPE   H2Y 7232   1.672   0.326   6.143  3.2740  1.6341 -0.0871
   80SOPE   C23 7233   1.509   0.825   6.136  0.7080  0.5152 -0.2600
   80SOPE   H3R 7234   1.593   0.860   6.199 -1.0506  0.8306  2.0349
   80SOPE   H3S 7235   1.452   0.906   6.088 -0.9524 -0.3732  0.1324
   80SOPE   C24 7236   1.565   0.722   6.034 -0.1014  0.5225 -0.0501
   80SOPE   H4R 7237   1.635   0.647   6.077  1.0511  0.8521 -1.2856
   80SOPE   H4S 7238   1.485   0.664   5.983  1.5181  0.0998 -2.2769
   80SOPE   C25 7239   1.648   0.789   5.918  0.3815 -0.1873  0.1825
   80SOPE   H5R 7240   1.682   0.889   5.953  0.2880 -0.6642  1.7018
   80SOPE   H5S 7241   1.731   0.722   5.886  1.4713  1.0812  0.2752
   80SOPE   C26 7242   1.549   0.822   5.803 -0.5225  0.1962  0.0293
   80SOPE   H6R 7243   1.502   0.729   5.764 -3.1658  0.8915  1.3302
   80SOPE   H6S 7244   1.463   0.887   5.830 -0.1690  0.6257  0.1276
   80SOPE   C27 7245   1.607   0.891   5.680 -0.1639  0.0121 -0.1369
   80SOPE   H7R 7246   1.528   0.925   5.609  0.6445 -2.1121 -2.2062
   80SOPE   H7S 7247   1.650   0.987   5.715 -1.0699 -0.0278  1.1372
   80SOPE   C28 7248   1.710   0.818   5.600  0.3710  0.8386 -0.0865
   80SOPE   H8R 7249   1.777   0.765   5.671  1.4330 -0.4163 -1.9501
   80SOPE   H8S 7250   1.651   0.741   5.546 -2.2909  1.5818  1.5578
   80SOPE   C29 7251   1.809   0.901   5.522 -0.1495  0.5074 -0.0914
   80SOPE   H91 7252   1.879   0.959   5.584 -1.1872  0.2781  1.3547
   80SOPE  C210 7253   1.804   0.928   5.394 -0.8505  0.4353  0.0201
   80SOPE  H101 7254   1.876   0.999   5.350 -0.3098 -1.0072 -1.5448
   80SOPE  C211 7255   1.703   0.868   5.292  0.0726 -0.7798  0.2329
   80SOPE  H11R 7256   1.644   0.953   5.252 -0.7309 -0.3167  2.2989
   80SOPE  H11S 7257   1.639   0.789   5.335 -0.7438 -1.2683 -1.8009
   80SOPE  C212 7258   1.785   0.810   5.169 -0.3887  0.4325 -0.1028
   80SOPE  H12R 7259   1.864   0.737   5.198 -1.4250 -1.1926 -1.1796
   80SOPE  H12S 7260   1.837   0.891   5.113  3.3028  0.6726  3.2298
   80SOPE  C213 7261   1.683   0.743   5.072 -0.3693  0.6684  0.0528
   80SOPE  H13R 7262   1.605   0.817   5.045  0.6651  1.7812  0.0279
   80SOPE  H13S 7263   1.650   0.654   5.130  0.9541  0.9609  1.3209
   80SOPE  C214 7264   1.746   0.698   4.936  0.2791 -0.1055 -1.1342
   80SOPE  H14R 7265   1.794   0.598   4.950 -2.1730 -1.3687 -1.2283
   80SOPE  H14S 7266   1.830   0.765   4.907 -1.0583  2.2989  0.2478
   80SOPE  C215 7267   1.647   0.687   4.823  0.4383  0.1155 -0.1487
   80SOPE  H15R 7268   1.586   0.779   4.816 -1.0174 -0.5717  2.3664
   80SOPE  H15S 7269   1.583   0.602   4.854 -1.2209  1.5285  0.4209
   80SOPE  C216 7270   1.700   0.639   4.679  0.0231  0.0070  0.4321
   80SOPE  H16R 7271   1.616   0.624   4.608  1.2329 -0.6330 -0.9361
   80SOPE  H16S 7272   1.735   0.534   4.690  0.4754 -0.0324 -1.1157
   80SOPE  C217 7273   1.806   0.733   4.625 -0.1069  0.0484 -0.3482
   80SOPE  H17R 7274   1.892   0.746   4.695 -2.2362 -0.2063  2.4709
   80SOPE  H17S 7275   1.766   0.837   4.626  2.5946  1.1752  1.3881
   80SOPE  C218 7276   1.855   0.706   4.478 -0.5938  0.0539  0.0776
   80SOPE  H18R 7277   1.772   0.689   4.406 -0.4554  1.9870 -0.6156
   80SOPE  H18S 7278   1.923   0.619   4.472 -0.0035  0.5004  0.1631
   80SOPE  H18T 7279   1.914   0.796   4.449 -1.1141  0.0122 -1.1733
   80SOPE   C33 7280   1.755   0.131   6.174  0.4652  0.3348  0.1188
   80SOPE   H3X 7281   1.778   0.056   6.252 -0.2189 -1.3781 -1.2441
   80SOPE   H3Y 7282   1.846   0.139   6.111  0.0831 -1.5273 -0.7671
   80SOPE   C34 7283   1.656   0.057   6.078 -0.3423 -0.8329  0.3842
   80SOPE   H4X 7284   1.576   0.020   6.146 -3.0966  2.8072 -0.5199
   80SOPE   H4Y 7285   1.706  -0.033   6.036 -0.8360 -0.9173 -0.0319
   80SOPE   C35 7286   1.585   0.139   5.969 -0.2078  0.8721 -0.6362
   80SOPE   H5X 7287   1.569   0.247   5.989  0.3841  0.8261  0.1173
   80SOPE   H5Y 7288   1.485   0.094   5.951  0.2169  0.0339 -0.9601
   80SOPE   C36 7289   1.667   0.135   5.842 -0.0393 -0.2245 -0.0555
   80SOPE   H6X 7290   1.773   0.159   5.862 -0.8226  3.5423  0.2315
   80SOPE   H6Y 7291   1.633   0.216   5.773  1.7804 -0.7279 -1.6258
   80SOPE   C37 7292   1.644   0.002   5.771  0.5093 -0.0378 -0.3617
   80SOPE   H7X 7293   1.536  -0.023   5.773  0.3830  0.4373 -0.9387
   80SOPE   H7Y 7294   1.689  -0.088   5.818 -0.8975 -1.1641 -1.0944
   80SOPE   C38 7295   1.682   0.029   5.621  0.2354  0.7878 -0.2097
   80SOPE   H8X 7296   1.791   0.048   5.618  0.1998  1.2718 -4.4447
   80SOPE   H8Y 7297   1.649   0.128   5.583  1.6514  1.6368  0.6851
   80SOPE   C39 7298   1.651  -0.094   5.520 -0.1916 -0.4866  0.0136
   80SOPE   H9X 7299   1.549  -0.132   5.541 -0.6373  0.2557 -0.7559
   80SOPE   H9Y 7300   1.718  -0.180   5.543 -1.2364 -1.8886 -1.9162
   80SOPE  C310 7301   1.689  -0.067   5.377  0.4401  0.7462 -0.2300
   80SOPE  H10X 7302   1.798  -0.050   5.362  0.5295 -0.4375 -1.0686
   80SOPE  H10Y 7303   1.633   0.025   5.352 -2.0846 -0.2624  1.3220
   80SOPE  C311 7304   1.638  -0.181   5.291  0.2021 -0.3149 -0.1485
   80SOPE  H11X 7305   1.534  -0.213   5.315  0.8572 -0.8880  2.1614
   80SOPE  H11Y 7306   1.701  -0.268   5.321  1.2229 -0.3918 -2.2866
   80SOPE  C312 7307   1.652  -0.146   5.144  0.3781 -0.5468  0.9506
   80SOPE  H12X 7308   1.751  -0.173   5.102 -0.4927 -2.5699  0.0653
   80SOPE  H12Y 7309   1.648  -0.036   5.135 -0.4173 -0.6870 -1.0920
   80SOPE  C313 7310   1.553  -0.202   5.049  0.0882 -0.1363  0.3247
   80SOPE  H13X 7311   1.455  -0.153   5.069  0.7712  1.7452 -0.7051
   80SOPE  H13Y 7312   1.531  -0.310   5.067  0.9858 -0.3989 -0.1034
   80SOPE  C314 7313   1.578  -0.171   4.898 -0.6190  0.3475  0.1715
   80SOPE  H14X 7314   1.671  -0.225   4.872 -0.3851  0.5275  0.6402
   80SOPE  H14Y 7315   1.569  -0.061   4.883  0.1241  0.0546 -3.5305
   80SOPE  C315 7316   1.476  -0.237   4.806 -0.0546 -0.0675  0.0550
   80SOPE  H15X 7317   1.429  -0.324   4.857  1.4642 -0.8563  0.1614
   80SOPE  H15Y 7318   1.526  -0.275   4.714 -1.4122 -1.5213 -0.1281
   80SOPE  C316 7319   1.373  -0.138   4.743  0.4799 -0.5489  0.5280
   80SOPE  H16X 7320   1.338  -0.189   4.651  1.4836 -1.1159  0.4433
   80SOPE  H16Y 7321   1.436  -0.049   4.724  1.1181 -0.5441  2.4962
   80SOPE  C317 7322   1.253  -0.106   4.842  0.1849  0.2089  0.3287
   80SOPE  H17X 7323   1.297  -0.057   4.932  4.5005  0.1182 -1.4791
   80SOPE  H17Y 7324   1.207  -0.200   4.877 -2.9833  1.3171 -0.5651
   80SOPE  C318 7325   1.146  -0.015   4.776  0.0851 -0.3892  0.8059
   80SOPE  H18X 7326   1.102  -0.070   4.690 -0.0039 -2.9238  2.3533
   80SOPE  H18Y 7327   1.185   0.081   4.736  0.6953 -1.6397 -1.8230
   80SOPE  H18Z 7328   1.066  -0.002   4.852  1.0145  1.9881  1.4752
   81SOPE     N 7329   5.247   3.436   6.545 -0.4258 -0.0403 -0.4464
   81SOPE   HN1 7330   5.219   3.450   6.446 -0.8765  1.7697 -0.0876
   81SOPE   HN2 7331   5.342   3.393   6.536 -0.3666  0.3742 -2.2316
   81SOPE   HN3 7332   5.187   3.376   6.605  3.0440 -0.8835  2.5911
   81SOPE   C12 7333   5.282   3.568   6.608 -0.6545 -0.5131 -0.4042
   81SOPE  H12A 7334   5.268   3.553   6.718  3.1808 -1.9403  0.0523
   81SOPE  H12B 7335   5.226   3.646   6.553 -0.1798  0.5785  0.6331
   81SOPE   C11 7336   5.430   3.607   6.601 -0.2705 -0.1973 -0.6113
   81SOPE  H11A 7337   5.436   3.707   6.649  0.7108 -0.5477  0.0257
   81SOPE  H11B 7338   5.469   3.634   6.500 -0.3147  1.3988 -0.2299
   81SOPE     P 7339   5.585   3.389   6.604  0.2951 -0.6273  0.0084
   81SOPE   O13 7340   5.474   3.309   6.546  0.2558 -0.8681  0.0035
   81SOPE   O14 7341   5.672   3.326   6.707  0.0617  1.3051  0.4128
   81SOPE   O12 7342   5.513   3.516   6.668  0.3968  0.2225 -0.5713
   81SOPE   O11 7343   5.666   3.452   6.486  0.1050  0.6245 -0.4462
   81SOPE    C1 7344   5.762   3.550   6.527  0.3842 -0.6048  0.2118
   81SOPE    HA 7345   5.861   3.507   6.551  1.9215  2.6316  0.2627
   81SOPE    HB 7346   5.733   3.609   6.617  1.9929  0.1156  0.2979
   81SOPE    C2 7347   5.782   3.652   6.414 -0.0945 -0.6493 -0.0174
   81SOPE    HS 7348   5.882   3.698   6.435 -0.5142  0.0135  0.5651
   81SOPE   O21 7349   5.673   3.753   6.416 -0.6638 -0.0229 -0.3431
   81SOPE   C21 7350   5.709   3.882   6.386 -0.0608 -0.2396  0.3459
   81SOPE   O22 7351   5.824   3.922   6.380  0.2554 -0.3886 -0.0516
   81SOPE   C22 7352   5.586   3.975   6.377 -0.0504 -0.8626  0.4260
   81SOPE   H2R 7353   5.612   4.058   6.308 -0.2726 -1.2574 -0.1367
   81SOPE   H2S 7354   5.574   4.007   6.483 -1.5546 -1.0505  0.3270
   81SOPE    C3 7355   5.798   3.587   6.272  0.5690 -0.1292  0.2404
   81SOPE    HX 7356   5.705   3.531   6.248  1.6573 -2.0111  0.1743
   81SOPE    HY 7357   5.881   3.512   6.270  0.5546 -0.1604  0.6788
   81SOPE   O31 7358   5.831   3.698   6.183  0.3770 -0.3482 -0.5549
   81SOPE   C31 7359   5.852   3.649   6.062  0.2411  0.5829  0.0438
   81SOPE   O32 7360   5.833   3.530   6.031 -0.6892  0.3422  0.2218
   81SOPE   C32 7361   5.913   3.758   5.973 -0.3221 -0.2172 -0.0510
   81SOPE   H2X 7362   5.986   3.822   6.026  1.5404 -0.8158 -1.7578
   81SOPE   H2Y 7363   5.831   3.825   5.938 -0.1310 -0.6245 -1.3251
   81SOPE   C23 7364   5.450   3.912   6.334 -0.2201  0.8138  0.3661
   81SOPE   H3R 7365   5.368   3.985   6.349 -1.0281 -0.3155  1.6800
   81SOPE   H3S 7366   5.430   3.826   6.401 -0.7510  0.4334 -0.2672
   81SOPE   C24 7367   5.451   3.869   6.182 -0.0727 -0.2145  0.0634
   81SOPE   H4R 7368   5.530   3.791   6.183  0.1347 -0.0835  2.9251
   81SOPE   H4S 7369   5.350   3.827   6.164  0.9448 -2.2074 -1.3883
   81SOPE   C25 7370   5.477   3.978   6.079 -0.8762 -0.0901 -0.5521
   81SOPE   H5R 7371   5.390   4.047   6.070 -1.4263 -0.8132 -0.7967
   81SOPE   H5S 7372   5.558   4.050   6.106 -2.3673  1.4855 -0.1310
   81SOPE   C26 7373   5.500   3.932   5.937 -0.2653  0.6470  0.7568
   81SOPE   H6R 7374   5.599   3.882   5.942 -0.7667 -0.5835 -0.7650
   81SOPE   H6S 7375   5.428   3.850   5.912  1.1638 -0.8938  1.4638
   81SOPE   C27 7376   5.496   4.039   5.828  0.1442 -0.1993 -0.7718
   81SOPE   H7R 7377   5.397   4.088   5.818 -0.0764 -0.0114  1.7994
   81SOPE   H7S 7378   5.573   4.115   5.853 -0.5873  0.6206 -0.9946
   81SOPE   C28 7379   5.535   3.982   5.686 -0.2723 -0.0426 -0.0972
   81SOPE   H8R 7380   5.637   3.941   5.703 -0.3554 -0.4876 -0.6238
   81SOPE   H8S 7381   5.455   3.907   5.665 -0.6531  0.6501 -1.2292
   81SOPE   C29 7382   5.532   4.085   5.580 -0.3206  0.4662  0.4094
   81SOPE   H91 7383   5.586   4.176   5.610  0.7019 -0.6426  2.1191
   81SOPE  C210 7384   5.464   4.091   5.461  0.2172  0.3726 -0.2807
   81SOPE  H101 7385   5.471   4.185   5.403 -2.6110  0.0616 -1.2799
   81SOPE  C211 7386   5.387   3.970   5.402 -0.1079  0.0255 -0.5241
   81SOPE  H11R 7387   5.278   3.990   5.395 -0.8846 -3.3250  0.1420
   81SOPE  H11S 7388   5.399   3.876   5.459  1.6423  0.9602  0.7526
   81SOPE  C212 7389   5.442   3.944   5.260  0.0882 -0.0235  0.8560
   81SOPE  H12R 7390   5.411   3.842   5.231  1.9244 -0.4096  0.1078
   81SOPE  H12S 7391   5.553   3.936   5.260  0.0112 -1.5123  1.3631
   81SOPE  C213 7392   5.387   4.040   5.155  0.1726 -0.0908 -0.3174
   81SOPE  H13R 7393   5.419   4.147   5.159 -0.9424  0.2525 -0.1714
   81SOPE  H13S 7394   5.276   4.045   5.160  0.0553 -2.2403 -0.2120
   81SOPE  C214 7395   5.416   3.991   5.014  0.3774  0.3909  0.3732
   81SOPE  H14R 7396   5.360   3.897   4.990 -2.5501  1.5803  1.9707
   81SOPE  H14S 7397   5.523   3.961   5.023  1.3649  2.9878 -1.5775
   81SOPE  C215 7398   5.396   4.094   4.904  0.2365 -0.5279  0.1230
   81SOPE  H15R 7399   5.472   4.176   4.905  0.3309 -0.5546  2.6660
   81SOPE  H15S 7400   5.300   4.147   4.922  1.4403  1.8841 -0.1699
   81SOPE  C216 7401   5.405   4.033   4.767 -0.0413 -0.0801  0.9001
   81SOPE  H16R 7402   5.329   3.954   4.750  0.5184 -0.4927  0.2790
   81SOPE  H16S 7403   5.506   3.987   4.760 -1.0712 -2.6305  1.7676
   81SOPE  C217 7404   5.385   4.143   4.656 -0.7559  0.3211  0.1984
   81SOPE  H17R 7405   5.399   4.097   4.556 -1.0906  0.9162 -0.1348
   81SOPE  H17S 7406   5.484   4.192   4.649  0.3429 -2.0409 -2.9839
   81SOPE  C218 7407   5.267   4.241   4.655  0.2930 -0.2018 -0.0367
   81SOPE  H18R 7408   5.280   4.315   4.736  1.1764 -0.7050  0.3020
   81SOPE  H18S 7409   5.175   4.183   4.673 -0.7975  1.2529 -0.7240
   81SOPE  H18T 7410   5.272   4.291   4.556 -1.4304 -0.2318 -0.1575
   81SOPE   C33 7411   5.993   3.690   5.863 -0.5557 -0.2925 -0.0044
   81SOPE   H3X 7412   5.928   3.634   5.793  1.7005  0.6059 -3.0073
   81SOPE   H3Y 7413   6.065   3.622   5.913 -1.2234  0.3136  1.8753
   81SOPE   C34 7414   6.055   3.809   5.785 -0.4367 -0.5434 -0.2898
   81SOPE   H4X 7415   6.125   3.865   5.851 -1.0802 -1.3188  1.1104
   81SOPE   H4Y 7416   5.970   3.878   5.764 -0.6571 -0.8179 -0.3010
   81SOPE   C35 7417   6.122   3.769   5.651  0.3671  0.8951  0.0522
   81SOPE   H5X 7418   6.051   3.708   5.591  3.1687 -1.0116 -1.5674
   81SOPE   H5Y 7419   6.210   3.715   5.691  0.3713  0.6796 -0.2456
   81SOPE   C36 7420   6.174   3.883   5.571 -0.0581 -0.3854  0.8842
   81SOPE   H6X 7421   6.216   3.962   5.637  0.9175  0.4070 -0.6193
   81SOPE   H6Y 7422   6.094   3.942   5.520 -0.4343 -3.2201 -2.1358
   81SOPE   C37 7423   6.271   3.843   5.458 -0.5508 -0.5977  0.3369
   81SOPE   H7X 7424   6.359   3.788   5.500 -1.1033 -0.6850  1.4349
   81SOPE   H7Y 7425   6.313   3.937   5.416 -2.1823 -1.2973 -3.2203
   81SOPE   C38 7426   6.212   3.766   5.339  0.4276 -1.0972  1.2172
   81SOPE   H8X 7427   6.118   3.814   5.304  2.0070  1.9870  0.8990
   81SOPE   H8Y 7428   6.192   3.663   5.376 -0.3059 -1.3487  0.1560
   81SOPE   C39 7429   6.304   3.758   5.215 -0.0753 -0.2633  0.2784
   81SOPE   H9X 7430   6.254   3.703   5.133  1.0306  1.2067 -1.4598
   81SOPE   H9Y 7431   6.400   3.710   5.244  1.2406  2.4436  0.7088
   81SOPE  C310 7432   6.339   3.895   5.159  0.4140 -0.9818  0.7084
   81SOPE  H10X 7433   6.433   3.937   5.200 -0.3943  2.1257 -0.3045
   81SOPE  H10Y 7434   6.257   3.968   5.177  0.6796 -0.3877 -0.4194
   81SOPE  C311 7435   6.364   3.888   5.002  0.5470  0.5535  0.4204
   81SOPE  H11X 7436   6.261   3.869   4.963  0.7156 -1.5147  0.8619
   81SOPE  H11Y 7437   6.427   3.803   4.969  2.0436  0.4027  3.3077
   81SOPE  C312 7438   6.413   4.021   4.950 -0.5001 -0.1006  0.6676
   81SOPE  H12X 7439   6.516   4.042   4.987  0.1486 -0.3814 -0.8622
   81SOPE  H12Y 7440   6.340   4.093   4.991  2.2589  3.0642  0.4995
   81SOPE  C313 7441   6.404   4.035   4.799 -1.4101  0.1685  0.1508
   81SOPE  H13X 7442   6.298   4.023   4.770 -1.4490  0.3332  0.2201
   81SOPE  H13Y 7443   6.472   3.962   4.750 -0.2107  0.9093  0.6753
   81SOPE  C314 7444   6.453   4.176   4.756  0.2317 -0.1955  0.5908
   81SOPE  H14X 7445   6.561   4.188   4.779  0.0212  1.8591  0.7405
   81SOPE  H14Y 7446   6.406   4.261   4.810  1.4717  0.9402 -0.0422
   81SOPE  C315 7447   6.421   4.211   4.605  0.6053 -0.4642  0.1697
   81SOPE  H15X 7448   6.312   4.202   4.587  0.2282  3.9915 -0.9892
   81SOPE  H15Y 7449   6.472   4.145   4.531 -0.5905 -0.8490 -0.3233
   81SOPE  C316 7450   6.446   4.362   4.584 -0.2670  0.0809 -0.2059
   81SOPE  H16X 7451   6.418   4.426   4.670 -2.0860  1.3459 -1.6550
   81SOPE  H16Y 7452   6.371   4.400   4.511 -0.6345  0.7258  0.4984
   81SOPE  C317 7453   6.594   4.383   4.544  0.2222 -0.5138  0.9483
   81SOPE  H17X 7454   6.630   4.316   4.463 -0.4028 -1.1951  1.2271
   81SOPE  H17Y 7455   6.654   4.351   4.632 -1.1376 -2.3214  1.2841
   81SOPE  C318 7456   6.631   4.532   4.522  0.6083  0.4959  0.3938
   81SOPE  H18X 7457   6.640   4.587   4.618  0.2534 -0.2521  0.8678
   81SOPE  H18Y 7458   6.543   4.573   4.467  1.7352  0.2683 -1.6595
   81SOPE  H18Z 7459   6.721   4.549   4.460  0.8829  2.2767  1.2143
   82SOPE     N 7460   3.118   4.274   7.458  0.5064  0.1526 -0.5718
   82SOPE   HN1 7461   3.175   4.233   7.535 -0.7709  0.1539  0.3923
   82SOPE   HN2 7462   3.059   4.354   7.489 -0.8487 -1.1522  0.3184
   82SOPE   HN3 7463   3.059   4.193   7.433  4.9546 -2.5334 -4.0479
   82SOPE   C12 7464   3.208   4.297   7.338  0.2195  0.3147 -0.0700
   82SOPE  H12A 7465   3.308   4.333   7.369  0.9287 -1.9385  0.4216
   82SOPE  H12B 7466   3.169   4.376   7.270  1.3970  0.5216 -0.5171
   82SOPE   C11 7467   3.197   4.164   7.253  0.2570 -0.3677  0.2077
   82SOPE  H11A 7468   3.217   4.083   7.327  0.9272  1.5040  2.1600
   82SOPE  H11B 7469   3.277   4.154   7.176  0.6194 -0.5380  0.6079
   82SOPE     P 7470   3.009   4.041   7.095  0.6873  0.2047 -0.0204
   82SOPE   O13 7471   2.876   3.996   7.146 -0.0591  0.3296 -0.1132
   82SOPE   O14 7472   3.113   3.935   7.070 -0.6743  0.3391 -0.4868
   82SOPE   O12 7473   3.062   4.154   7.195 -0.0941 -0.0584 -0.4470
   82SOPE   O11 7474   2.988   4.125   6.965 -0.5763  0.2535 -0.4350
   82SOPE    C1 7475   2.908   4.244   6.963 -0.4675  1.2070  0.3281
   82SOPE    HA 7476   2.967   4.325   7.012 -0.6235  0.1274  2.4129
   82SOPE    HB 7477   2.815   4.235   7.024  0.1828 -1.4470  1.0258
   82SOPE    C2 7478   2.895   4.289   6.818 -0.0748 -0.6940 -0.0182
   82SOPE    HS 7479   2.864   4.395   6.810  0.0009 -0.6679  0.0348
   82SOPE   O21 7480   2.811   4.204   6.737  0.6090 -0.1555  0.0098
   82SOPE   C21 7481   2.676   4.219   6.759 -0.7365  0.4367  0.3074
   82SOPE   O22 7482   2.632   4.302   6.839 -0.8070  0.2160  0.3089
   82SOPE   C22 7483   2.592   4.141   6.654  0.9758 -0.1946  0.5310
   82SOPE   H2R 7484   2.530   4.078   6.721  0.6747 -0.2932  0.1658
   82SOPE   H2S 7485   2.660   4.067   6.606  2.0668  0.9473  0.2794
   82SOPE    C3 7486   3.031   4.290   6.742 -0.4395 -0.8716 -0.3656
   82SOPE    HX 7487   3.071   4.187   6.743 -1.2246 -1.1974  1.1916
   82SOPE    HY 7488   3.099   4.362   6.794 -1.6438 -0.3323  0.5075
   82SOPE   O31 7489   2.997   4.348   6.619 -0.1931 -0.0368  0.0534
   82SOPE   C31 7490   3.073   4.316   6.518 -0.9578  0.5148 -1.5410
   82SOPE   O32 7491   3.187   4.266   6.529  0.5536 -0.1140  0.3889
   82SOPE   C32 7492   2.996   4.341   6.391  0.3038  0.4014 -0.2816
   82SOPE   H2X 7493   2.935   4.430   6.417  1.2552  1.2485 -0.8631
   82SOPE   H2Y 7494   2.923   4.257   6.382  1.0328 -0.1610 -1.2059
   82SOPE   C23 7495   2.520   4.221   6.546  0.5718 -0.0238  0.0565
   82SOPE   H3R 7496   2.458   4.305   6.583  2.0141  2.1910 -2.2498
   82SOPE   H3S 7497   2.451   4.150   6.496 -1.2852  1.5895  0.2247
   82SOPE   C24 7498   2.616   4.277   6.437  0.2710 -0.3312 -0.5622
   82SOPE   H4R 7499   2.697   4.338   6.485  0.0671  0.1217 -0.7885
   82SOPE   H4S 7500   2.655   4.190   6.380  0.2466 -1.2033  0.6903
   82SOPE   C25 7501   2.539   4.371   6.348 -0.6281  0.1166 -0.2342
   82SOPE   H5R 7502   2.465   4.312   6.290 -0.2717 -0.2395 -0.3389
   82SOPE   H5S 7503   2.484   4.454   6.397 -0.7539  0.5435 -1.0752
   82SOPE   C26 7504   2.608   4.426   6.227 -0.8124 -0.4185  0.2029
   82SOPE   H6R 7505   2.697   4.482   6.263 -0.2973 -1.1976  0.1454
   82SOPE   H6S 7506   2.660   4.342   6.177 -0.1316  0.8343 -1.2583
   82SOPE   C27 7507   2.515   4.499   6.125 -0.0956  0.2795 -0.5442
   82SOPE   H7R 7508   2.442   4.429   6.079 -0.5507 -0.2967  0.9790
   82SOPE   H7S 7509   2.465   4.577   6.185  0.5981  0.0467  0.3567
   82SOPE   C28 7510   2.609   4.581   6.033 -0.2213 -0.4898  0.1100
   82SOPE   H8R 7511   2.531   4.640   5.981 -0.5215 -1.3613 -0.4568
   82SOPE   H8S 7512   2.679   4.643   6.094  0.7570  0.4723 -1.9105
   82SOPE   C29 7513   2.693   4.496   5.944 -0.1496  0.2317 -0.3732
   82SOPE   H91 7514   2.792   4.479   5.990 -0.9018  0.0135  1.2220
   82SOPE  C210 7515   2.660   4.447   5.817 -0.4696 -1.2455 -0.0667
   82SOPE  H101 7516   2.733   4.383   5.765  1.4519  0.8692 -0.1146
   82SOPE  C211 7517   2.534   4.473   5.739  0.8757 -1.0376 -0.1669
   82SOPE  H11R 7518   2.452   4.519   5.797  1.2651 -3.0066  2.0983
   82SOPE  H11S 7519   2.484   4.380   5.706 -1.2479  0.1239 -0.4017
   82SOPE  C212 7520   2.568   4.565   5.626  0.6157 -0.0184 -0.0574
   82SOPE  H12R 7521   2.650   4.530   5.561  1.1941  1.9191 -0.4321
   82SOPE  H12S 7522   2.615   4.663   5.650  3.2039  0.2562 -5.0100
   82SOPE  C213 7523   2.441   4.577   5.542  0.0601 -0.5924  0.0790
   82SOPE  H13R 7524   2.351   4.611   5.598 -2.7733 -2.4016 -2.9673
   82SOPE  H13S 7525   2.421   4.471   5.513  0.8146 -0.6053 -0.4022
   82SOPE  C214 7526   2.463   4.648   5.401 -0.4358 -0.0435 -0.1348
   82SOPE  H14R 7527   2.491   4.753   5.424  2.2413 -0.7745  0.2645
   82SOPE  H14S 7528   2.369   4.644   5.343  0.7964  1.0305 -2.3212
   82SOPE  C215 7529   2.571   4.581   5.306  0.2082  0.3905 -0.0882
   82SOPE  H15R 7530   2.554   4.474   5.281  3.1481  0.0279 -1.0344
   82SOPE  H15S 7531   2.671   4.592   5.355  1.1900  0.4508 -1.9949
   82SOPE  C216 7532   2.590   4.664   5.176 -0.4275  0.3726  0.4030
   82SOPE  H16R 7533   2.610   4.768   5.209 -3.0057  0.4467  2.0135
   82SOPE  H16S 7534   2.495   4.662   5.119 -1.6492  1.0815  2.3154
   82SOPE  C217 7535   2.697   4.606   5.080  0.1924  0.0853 -1.4476
   82SOPE  H17R 7536   2.676   4.498   5.071  0.7121 -0.5059  2.4481
   82SOPE  H17S 7537   2.791   4.611   5.140 -0.6182 -1.1965  0.0030
   82SOPE  C218 7538   2.694   4.678   4.942 -0.1861  0.3273 -0.2077
   82SOPE  H18R 7539   2.691   4.788   4.958  0.6179  0.9410 -3.4429
   82SOPE  H18S 7540   2.615   4.630   4.880 -0.5412 -0.8688  1.1252
   82SOPE  H18T 7541   2.789   4.642   4.897 -1.4098 -2.3498 -0.8153
   82SOPE   C33 7542   3.087   4.352   6.265  0.1017 -0.4033  0.9808
   82SOPE   H3X 7543   3.151   4.261   6.267 -1.2313 -1.3747  0.8544
   82SOPE   H3Y 7544   3.150   4.443   6.267 -1.4389  0.6911  1.4690
   82SOPE   C34 7545   3.013   4.339   6.134 -0.0859 -0.6486  0.2494
   82SOPE   H4X 7546   2.946   4.427   6.120  1.8481  0.5987 -1.9295
   82SOPE   H4Y 7547   2.944   4.252   6.138  0.0162 -0.7084  0.7683
   82SOPE   C35 7548   3.107   4.337   6.017 -0.5359  0.7166  0.4643
   82SOPE   H5X 7549   3.171   4.246   6.014 -0.6036  0.6858  0.0313
   82SOPE   H5Y 7550   3.162   4.433   6.005 -0.7433  0.9145  1.0605
   82SOPE   C36 7551   3.029   4.323   5.884  0.2064  0.4049  0.1101
   82SOPE   H6X 7552   2.953   4.404   5.881  1.5690  1.7411  0.1996
   82SOPE   H6Y 7553   2.979   4.224   5.880  0.0813  0.5037 -1.1326
   82SOPE   C37 7554   3.118   4.332   5.757 -0.0933 -0.0508 -0.4469
   82SOPE   H7X 7555   3.191   4.249   5.767  1.5227  1.5310  2.1193
   82SOPE   H7Y 7556   3.159   4.435   5.756 -1.2285  0.4172 -0.6641
   82SOPE   C38 7557   3.034   4.328   5.631  0.3068  0.3590  0.2909
   82SOPE   H8X 7558   2.944   4.393   5.636 -0.0083 -0.0834  0.4346
   82SOPE   H8Y 7559   3.012   4.220   5.621 -0.2781  0.5858 -0.9861
   82SOPE   C39 7560   3.101   4.368   5.497 -0.4546 -0.2224 -0.3418
   82SOPE   H9X 7561   3.187   4.298   5.485 -0.5223 -0.9894  2.8799
   82SOPE   H9Y 7562   3.143   4.471   5.503  0.5940 -0.7127  1.5614
   82SOPE  C310 7563   3.003   4.336   5.385 -0.5554 -0.0517 -1.2260
   82SOPE  H10X 7564   2.924   4.414   5.388 -0.1609  0.3680 -1.6474
   82SOPE  H10Y 7565   2.944   4.246   5.414  1.1389 -0.6249  0.6298
   82SOPE  C311 7566   3.059   4.331   5.244 -0.5275 -0.1240 -0.2877
   82SOPE  H11X 7567   3.131   4.248   5.231  0.6099  0.7885  0.0679
   82SOPE  H11Y 7568   3.103   4.427   5.212  1.2547 -1.1665 -1.1068
   82SOPE  C312 7569   2.954   4.309   5.136  0.4819 -0.4477  0.0722
   82SOPE  H12X 7570   2.875   4.384   5.157  0.2735 -0.4676 -0.6428
   82SOPE  H12Y 7571   2.910   4.207   5.146 -3.6621  1.2005  0.5361
   82SOPE  C313 7572   3.001   4.347   4.993 -0.1150 -0.7698 -0.0200
   82SOPE  H13X 7573   3.083   4.276   4.969 -0.3443 -0.2152 -2.6808
   82SOPE  H13Y 7574   3.048   4.447   5.002 -3.0976  0.8115 -0.6337
   82SOPE  C314 7575   2.900   4.336   4.872  0.1044  0.9511 -0.8777
   82SOPE  H14X 7576   2.798   4.363   4.907 -0.4783  1.5482 -2.8952
   82SOPE  H14Y 7577   2.905   4.230   4.839 -1.2606  0.2518  0.9572
   82SOPE  C315 7578   2.932   4.431   4.755  0.1992 -0.1308 -0.7585
   82SOPE  H15X 7579   3.020   4.405   4.692  0.3604 -0.4836 -0.3913
   82SOPE  H15Y 7580   2.973   4.523   4.802  2.6774 -1.1905 -0.6684
   82SOPE  C316 7581   2.821   4.432   4.657  1.0041 -0.1839  0.5886
   82SOPE  H16X 7582   2.727   4.436   4.716  1.1177 -0.2185  0.7705
   82SOPE  H16Y 7583   2.829   4.332   4.610 -0.4202 -0.4157  0.7716
   82SOPE  C317 7584   2.829   4.531   4.546  0.3670  1.3348 -0.2655
   82SOPE  H17X 7585   2.915   4.502   4.482 -0.1225 -0.6309 -0.0912
   82SOPE  H17Y 7586   2.848   4.630   4.594 -4.1425  1.5883  1.4762
   82SOPE  C318 7587   2.699   4.547   4.468  1.2129 -0.3034  0.3772
   82SOPE  H18X 7588   2.682   4.456   4.407  2.5555  0.3347 -0.9952
   82SOPE  H18Y 7589   2.714   4.630   4.396 -0.0077 -1.5182 -1.3450
   82SOPE  H18Z 7590   2.614   4.572   4.536  1.0346  2.3366 -0.6957
   83SOPE     N 7591   0.716   3.516   2.540 -0.5992 -0.0722 -0.3127
   83SOPE   HN1 7592   0.642   3.587   2.525  0.5143  0.7677 -2.1074
   83SOPE   HN2 7593   0.809   3.560   2.554 -1.5834  1.7015  0.9659
   83SOPE   HN3 7594   0.723   3.455   2.456 -0.9446  1.7205 -1.6892
   83SOPE   C12 7595   0.709   3.449   2.677 -0.2853 -0.4524  0.4956
   83SOPE  H12A 7596   0.719   3.523   2.758  0.5403 -1.1472  1.0433
   83SOPE  H12B 7597   0.782   3.366   2.686  0.9185  0.5717  0.3177
   83SOPE   C11 7598   0.571   3.378   2.684  0.6161  0.9966  0.1344
   83SOPE  H11A 7599   0.549   3.342   2.786  2.4337 -2.2236 -0.4802
   83SOPE  H11B 7600   0.589   3.291   2.618  1.0080  0.5331  0.8378
   83SOPE     P 7601   0.342   3.397   2.548  0.5800 -0.0810 -0.0682
   83SOPE   O13 7602   0.399   3.345   2.426 -0.3314  0.1277  0.2207
   83SOPE   O14 7603   0.241   3.504   2.529 -0.5352  0.6753  0.5607
   83SOPE   O12 7604   0.466   3.458   2.633  0.4435 -0.2177  0.0045
   83SOPE   O11 7605   0.284   3.286   2.633  0.3906  0.0489 -0.6793
   83SOPE    C1 7606   0.237   3.300   2.765  0.2064 -0.5836  0.0075
   83SOPE    HA 7607   0.136   3.346   2.769  0.0621 -0.9758  1.4167
   83SOPE    HB 7608   0.304   3.364   2.828 -0.6875  0.9404 -0.5299
   83SOPE    C2 7609   0.244   3.169   2.849 -0.1223 -0.5284  0.1678
   83SOPE    HS 7610   0.148   3.113   2.844  0.3170 -1.2824  0.0328
   83SOPE   O21 7611   0.254   3.204   2.990  0.4040  0.0481 -0.0013
   83SOPE   C21 7612   0.140   3.252   3.045  0.8159 -0.7042  0.8935
   83SOPE   O22 7613   0.037   3.270   2.981 -0.3258  0.0040 -0.2041
   83SOPE   C22 7614   0.153   3.245   3.198 -0.1798 -0.1865  0.4996
   83SOPE   H2R 7615   0.255   3.282   3.222 -0.2920  2.1930 -2.1826
   83SOPE   H2S 7616   0.153   3.138   3.227  2.7833 -0.1641  0.8842
   83SOPE    C3 7617   0.353   3.063   2.801  0.0236  0.2886  0.6033
   83SOPE    HX 7618   0.455   3.104   2.813  2.3634 -4.4945 -0.3185
   83SOPE    HY 7619   0.336   3.055   2.691 -3.3229  0.8652  0.9663
   83SOPE   O31 7620   0.341   2.924   2.853  0.0882 -0.4143  0.2768
   83SOPE   C31 7621   0.431   2.885   2.931 -0.4147 -0.9338 -0.3999
   83SOPE   O32 7622   0.527   2.952   2.962 -0.5638 -0.4580 -0.0340
   83SOPE   C32 7623   0.393   2.745   2.971 -0.0499 -0.2056 -0.2061
   83SOPE   H2X 7624   0.477   2.696   3.024  0.6352  1.5920  0.4223
   83SOPE   H2Y 7625   0.369   2.689   2.878  1.0068 -1.0664  0.0233
   83SOPE   C23 7626   0.057   3.312   3.301  0.4605 -0.4977  0.0975
   83SOPE   H3R 7627  -0.041   3.259   3.297  0.8642 -1.2455 -0.2016
   83SOPE   H3S 7628   0.032   3.417   3.277  1.0578  0.0238  1.6876
   83SOPE   C24 7629   0.100   3.321   3.445 -0.0705  0.1078  0.7703
   83SOPE   H4R 7630   0.189   3.377   3.481 -0.8364  0.7257  1.7390
   83SOPE   H4S 7631   0.016   3.375   3.492 -0.3187  0.7416 -0.3528
   83SOPE   C25 7632   0.109   3.180   3.509  0.6369  0.1317  0.2697
   83SOPE   H5R 7633   0.031   3.118   3.461  0.8871 -0.8165  1.0757
   83SOPE   H5S 7634   0.197   3.123   3.472  1.0446  0.9432 -0.0489
   83SOPE   C26 7635   0.089   3.178   3.660  0.6170  0.5625  0.5491
   83SOPE   H6R 7636   0.111   3.080   3.708  1.9444  0.7129  0.2954
   83SOPE   H6S 7637   0.159   3.250   3.707  0.7604  0.8947 -0.1634
   83SOPE   C27 7638  -0.055   3.219   3.696  0.1118 -0.3518 -0.2096
   83SOPE   H7R 7639  -0.070   3.322   3.657  1.0234 -0.8064 -1.8419
   83SOPE   H7S 7640  -0.134   3.158   3.649 -2.5933  1.5066  1.6176
   83SOPE   C28 7641  -0.072   3.239   3.847 -0.0283 -0.5968 -0.4881
   83SOPE   H8R 7642   0.008   3.311   3.876  0.0383 -0.1867 -1.6689
   83SOPE   H8S 7643  -0.168   3.293   3.860 -0.0581 -0.5403 -0.9512
   83SOPE   C29 7644  -0.068   3.112   3.921 -0.2162  0.2008 -0.0510
   83SOPE   H91 7645  -0.079   3.019   3.863 -0.3135 -0.4270  0.9582
   83SOPE  C210 7646  -0.060   3.096   4.055 -1.2279  0.0460 -0.0515
   83SOPE  H101 7647  -0.054   2.990   4.086 -1.0903  0.2085  0.5016
   83SOPE  C211 7648  -0.054   3.202   4.163  0.0822  0.3002  0.6501
   83SOPE  H11R 7649  -0.064   3.304   4.121 -1.0760 -0.0187  0.1226
   83SOPE  H11S 7650   0.050   3.194   4.203  0.7321  0.6323 -0.8624
   83SOPE  C212 7651  -0.163   3.177   4.270  0.2951  0.0418 -0.1863
   83SOPE  H12R 7652  -0.135   3.248   4.351 -0.3023  0.3786 -0.2688
   83SOPE  H12S 7653  -0.172   3.072   4.305  2.1903 -0.9977 -2.5479
   83SOPE  C213 7654  -0.300   3.214   4.203  0.5562 -0.0980 -0.6857
   83SOPE  H13R 7655  -0.318   3.148   4.115 -2.2417 -1.4120  0.7421
   83SOPE  H13S 7656  -0.301   3.318   4.164  0.0800 -0.0413 -0.5303
   83SOPE  C214 7657  -0.412   3.195   4.305  0.3351 -0.1678 -0.7119
   83SOPE  H14R 7658  -0.418   3.084   4.317 -0.5371  0.0621  1.4531
   83SOPE  H14S 7659  -0.510   3.234   4.269  0.3624 -0.5963 -1.2649
   83SOPE  C215 7660  -0.380   3.259   4.436  0.3329  0.2564 -0.1838
   83SOPE  H15R 7661  -0.353   3.365   4.417 -0.7633  0.7712  1.0007
   83SOPE  H15S 7662  -0.293   3.209   4.486  0.3564 -0.6546 -1.1022
   83SOPE  C216 7663  -0.492   3.246   4.531 -0.3963 -0.5805  0.2956
   83SOPE  H16R 7664  -0.593   3.262   4.489 -2.0075 -0.5522  3.8504
   83SOPE  H16S 7665  -0.487   3.322   4.612 -1.1215 -1.3635  1.0893
   83SOPE  C217 7666  -0.494   3.109   4.587  0.6224  0.7350 -1.0078
   83SOPE  H17R 7667  -0.411   3.077   4.653  0.3024  0.1241 -0.8890
   83SOPE  H17S 7668  -0.488   3.037   4.502 -1.2077  1.4826 -1.8275
   83SOPE  C218 7669  -0.620   3.078   4.670  0.6212 -0.1841  0.0008
   83SOPE  H18R 7670  -0.603   3.013   4.758  0.0017 -0.8015 -0.3242
   83SOPE  H18S 7671  -0.703   3.041   4.605  0.9312  0.5563 -0.8411
   83SOPE  H18T 7672  -0.657   3.178   4.701  2.0354  0.5629 -0.6099
   83SOPE   C33 7673   0.277   2.734   3.070 -0.0101 -0.2348  0.1097
   83SOPE   H3X 7674   0.248   2.628   3.087  1.2898 -0.9656 -1.8475
   83SOPE   H3Y 7675   0.191   2.786   3.024 -0.8566 -1.5945  0.1110
   83SOPE   C34 7676   0.312   2.802   3.208  0.8589 -0.2020  0.3530
   83SOPE   H4X 7677   0.319   2.911   3.190  0.6244 -0.0692  1.0494
   83SOPE   H4Y 7678   0.413   2.776   3.246 -0.0413 -2.0026  1.7070
   83SOPE   C35 7679   0.212   2.768   3.314 -0.3138 -0.7017  0.0746
   83SOPE   H5X 7680   0.199   2.659   3.302 -0.2173 -0.6661 -0.3926
   83SOPE   H5Y 7681   0.116   2.817   3.287  0.5853  1.1364  0.0416
   83SOPE   C36 7682   0.263   2.797   3.449  1.0019  0.2118 -0.6694
   83SOPE   H6X 7683   0.300   2.901   3.462 -0.5117  0.5931  1.1554
   83SOPE   H6Y 7684   0.357   2.740   3.465 -0.2172 -1.4641  0.9540
   83SOPE   C37 7685   0.159   2.772   3.561 -0.0257 -0.0596  0.4059
   83SOPE   H7X 7686   0.132   2.665   3.558  1.3410 -0.4136 -1.3287
   83SOPE   H7Y 7687   0.066   2.829   3.542 -0.8391 -1.4767  0.0116
   83SOPE   C38 7688   0.213   2.811   3.699  0.4267 -0.1710 -0.4542
   83SOPE   H8X 7689   0.239   2.918   3.707  1.0188 -0.4258  3.0028
   83SOPE   H8Y 7690   0.306   2.757   3.727  1.0115  0.5934 -0.8993
   83SOPE   C39 7691   0.120   2.777   3.816  0.4464 -0.2720 -0.5591
   83SOPE   H9X 7692   0.081   2.674   3.802  0.5405 -0.3369 -0.3482
   83SOPE   H9Y 7693   0.024   2.833   3.820 -0.3421 -1.5939  0.0218
   83SOPE  C310 7694   0.192   2.778   3.950 -0.3932 -0.4825 -0.1743
   83SOPE  H10X 7695   0.234   2.878   3.973 -1.2950 -0.0731 -0.2628
   83SOPE  H10Y 7696   0.282   2.713   3.940  1.9378  2.5547 -0.3660
   83SOPE  C311 7697   0.106   2.723   4.071 -0.1651  0.4455 -0.1257
   83SOPE  H11X 7698   0.093   2.615   4.051  0.9962  0.3614 -0.5125
   83SOPE  H11Y 7699   0.009   2.777   4.061 -1.4221 -1.4453  1.2052
   83SOPE  C312 7700   0.162   2.747   4.211  0.0277  1.2916 -0.3772
   83SOPE  H12X 7701   0.167   2.857   4.218 -4.6186  1.6207  1.3067
   83SOPE  H12Y 7702   0.263   2.701   4.214  0.7143  2.6144 -1.8056
   83SOPE  C313 7703   0.072   2.699   4.328  0.8599  0.0560 -0.3227
   83SOPE  H13X 7704   0.130   2.733   4.416  1.4751  3.2137 -1.7808
   83SOPE  H13Y 7705   0.046   2.592   4.316 -0.9691  0.3491  0.6689
   83SOPE  C314 7706  -0.062   2.769   4.333 -0.3280 -0.6484 -0.3117
   83SOPE  H14X 7707  -0.128   2.709   4.266 -1.2944  0.1393 -0.0750
   83SOPE  H14Y 7708  -0.050   2.867   4.283  1.3034 -0.6593 -0.0148
   83SOPE  C315 7709  -0.121   2.787   4.475  0.2737  0.3504  0.1303
   83SOPE  H15X 7710  -0.103   2.699   4.541  0.2610 -0.1230 -0.4862
   83SOPE  H15Y 7711  -0.231   2.797   4.472  0.1975  0.2575  1.5851
   83SOPE  C316 7712  -0.058   2.913   4.540 -0.7552  0.5359  0.0904
   83SOPE  H16X 7713  -0.079   3.006   4.484 -1.7186 -0.2273 -0.8806
   83SOPE  H16Y 7714   0.052   2.897   4.543 -0.9998 -2.5845 -1.9962
   83SOPE  C317 7715  -0.101   2.933   4.690  0.0685  0.4345 -0.2579
   83SOPE  H17X 7716  -0.155   2.840   4.717  1.7237 -1.1093 -1.9572
   83SOPE  H17Y 7717  -0.172   3.016   4.711 -1.1461 -0.6127 -0.0736
   83SOPE  C318 7718   0.023   2.944   4.782  1.0516  0.1039  0.8386
   83SOPE  H18X 7719   0.102   2.878   4.739  1.0361  2.3526 -3.1588
   83SOPE  H18Y 7720  -0.007   2.929   4.888 -3.2238  0.9908 -0.0811
   83SOPE  H18Z 7721   0.074   3.042   4.769  1.8449 -0.2964  0.8194
   84SOPE     N 7722   6.401   1.580   1.983 -0.1943  0.1363  0.4722
   84SOPE   HN1 7723   6.452   1.557   1.895 -4.1173  0.3757 -2.1100
   84SOPE   HN2 7724   6.344   1.662   1.953  0.7296  0.9113  0.7884
   84SOPE   HN3 7725   6.467   1.611   2.057 -0.9403  1.5624  0.5879
   84SOPE   C12 7726   6.341   1.458   2.054  0.5597  0.3782 -0.0112
   84SOPE  H12A 7727   6.424   1.414   2.115  0.5839  1.6139  0.8827
   84SOPE  H12B 7728   6.311   1.388   1.973  1.5945 -0.8164  0.5935
   84SOPE   C11 7729   6.221   1.499   2.142 -0.3939  0.1628 -0.7143
   84SOPE  H11A 7730   6.254   1.576   2.215  0.3243  0.1791 -1.0466
   84SOPE  H11B 7731   6.210   1.409   2.207  2.0480  1.1945  1.3089
   84SOPE     P 7732   5.950   1.510   2.143 -0.1133 -0.1004 -0.1391
   84SOPE   O13 7733   5.945   1.374   2.200  0.5096  0.1382  0.0462
   84SOPE   O14 7734   5.850   1.533   2.038 -0.3876  0.7761  0.5369
   84SOPE   O12 7735   6.094   1.537   2.079 -0.0376  0.2107 -0.0337
   84SOPE   O11 7736   5.956   1.624   2.241  0.0548  0.3692 -0.2341
   84SOPE    C1 7737   5.977   1.589   2.378  0.2589  0.7829 -0.8038
   84SOPE    HA 7738   6.021   1.666   2.444 -1.8435  1.3064  0.0550
   84SOPE    HB 7739   6.039   1.497   2.388 -0.2640  0.3928 -1.0746
   84SOPE    C2 7740   5.845   1.562   2.441  0.4465 -0.1205 -0.3476
   84SOPE    HS 7741   5.804   1.469   2.397 -0.8491  1.5769 -3.0003
   84SOPE   O21 7742   5.750   1.667   2.414 -0.4805 -0.0164  0.8139
   84SOPE   C21 7743   5.627   1.655   2.464 -0.2370  0.1856  0.6795
   84SOPE   O22 7744   5.583   1.551   2.515 -0.0744  0.4451  0.0747
   84SOPE   C22 7745   5.552   1.783   2.457 -0.0015  0.1439  1.0227
   84SOPE   H2R 7746   5.446   1.759   2.478 -0.2704 -0.0504 -0.4606
   84SOPE   H2S 7747   5.569   1.827   2.356  0.9592 -0.4796  0.8962
   84SOPE    C3 7748   5.858   1.530   2.591  0.3767  0.5584  0.0439
   84SOPE    HX 7749   5.940   1.456   2.597  1.5568  1.8217 -0.1189
   84SOPE    HY 7750   5.762   1.494   2.635 -1.0475  3.1888 -0.6849
   84SOPE   O31 7751   5.893   1.643   2.674 -0.6229  0.6434  0.2125
   84SOPE   C31 7752   6.015   1.645   2.735  0.3710  0.4334 -0.4885
   84SOPE   O32 7753   6.092   1.552   2.735 -0.2538 -0.0209 -0.3222
   84SOPE   C32 7754   6.010   1.774   2.817 -0.1424  0.0010 -0.4186
   84SOPE   H2X 7755   5.914   1.777   2.873  0.6730 -1.5934  1.1740
   84SOPE   H2Y 7756   6.001   1.862   2.750 -0.5103  1.4457  1.4522
   84SOPE   C23 7757   5.612   1.893   2.551 -0.0941  0.2974  0.0577
   84SOPE   H3R 7758   5.587   1.999   2.532  2.9962  0.9414 -0.8718
   84SOPE   H3S 7759   5.722   1.892   2.562  0.0225  1.2346 -0.9297
   84SOPE   C24 7760   5.547   1.879   2.689 -0.3031  0.2771 -0.2032
   84SOPE   H4R 7761   5.550   1.983   2.728 -0.2816  0.2093 -0.0227
   84SOPE   H4S 7762   5.437   1.864   2.693 -0.1992 -1.5731 -2.3501
   84SOPE   C25 7763   5.612   1.796   2.798 -1.0802 -0.9960  0.6877
   84SOPE   H5R 7764   5.635   1.689   2.779  4.0017  0.1514 -1.3898
   84SOPE   H5S 7765   5.712   1.844   2.811 -1.5498 -0.2225  1.4917
   84SOPE   C26 7766   5.537   1.798   2.936 -0.7325  0.0847  0.7992
   84SOPE   H6R 7767   5.520   1.900   2.976 -0.7766  0.0649  0.8301
   84SOPE   H6S 7768   5.447   1.735   2.921 -1.8355  2.1525 -2.2544
   84SOPE   C27 7769   5.629   1.743   3.035  0.2155  0.4554 -0.2086
   84SOPE   H7R 7770   5.682   1.660   2.985 -3.2150 -1.9020 -0.2494
   84SOPE   H7S 7771   5.706   1.822   3.049  0.2582  0.2985  0.4984
   84SOPE   C28 7772   5.559   1.686   3.164 -0.9182 -0.6463 -0.1310
   84SOPE   H8R 7773   5.490   1.766   3.199 -1.0959 -0.4857 -0.8227
   84SOPE   H8S 7774   5.502   1.606   3.112  1.6938 -1.9572 -1.1158
   84SOPE   C29 7775   5.654   1.628   3.262  0.2621 -0.1365  0.3424
   84SOPE   H91 7776   5.707   1.538   3.227  3.6484  0.6308  2.9920
   84SOPE  C210 7777   5.680   1.672   3.385 -0.2216 -0.6636 -0.0143
   84SOPE  H101 7778   5.745   1.609   3.447 -0.7868 -0.8970  0.3508
   84SOPE  C211 7779   5.633   1.798   3.454 -0.5390 -0.0969 -0.0298
   84SOPE  H11R 7780   5.591   1.870   3.381  0.9752  0.5575 -0.2977
   84SOPE  H11S 7781   5.713   1.848   3.513  0.5770 -1.3509 -0.4321
   84SOPE  C212 7782   5.514   1.778   3.554 -0.4391 -0.2490 -0.5764
   84SOPE  H12R 7783   5.438   1.711   3.507  0.1241 -1.8961  0.7402
   84SOPE  H12S 7784   5.471   1.878   3.575  1.2695  0.3073  0.4351
   84SOPE  C213 7785   5.560   1.711   3.690  0.1127 -0.5655  0.2442
   84SOPE  H13R 7786   5.607   1.617   3.655  3.1561 -0.1316  2.7669
   84SOPE  H13S 7787   5.478   1.686   3.761 -0.4076 -0.0933 -0.1813
   84SOPE  C214 7788   5.681   1.792   3.767  0.5519  0.2038  0.0527
   84SOPE  H14R 7789   5.649   1.897   3.749 -0.2826 -0.4689 -2.9765
   84SOPE  H14S 7790   5.781   1.780   3.719  0.6309  0.3869  0.1707
   84SOPE  C215 7791   5.681   1.759   3.922  0.2687 -0.3856 -0.0841
   84SOPE  H15R 7792   5.584   1.792   3.965 -0.1032 -0.8120 -0.5860
   84SOPE  H15S 7793   5.752   1.829   3.972  1.4109 -0.7868 -1.1140
   84SOPE  C216 7794   5.718   1.619   3.961 -0.1813  0.1772 -0.7235
   84SOPE  H16R 7795   5.828   1.601   3.964 -0.1525  0.1812 -1.4093
   84SOPE  H16S 7796   5.682   1.547   3.884  1.5722 -1.3952 -0.1401
   84SOPE  C217 7797   5.654   1.582   4.095 -0.1530 -0.3496  0.0794
   84SOPE  H17R 7798   5.654   1.471   4.096  1.2109 -0.3734 -0.3021
   84SOPE  H17S 7799   5.546   1.608   4.096  0.1409  1.0188 -0.4728
   84SOPE  C218 7800   5.721   1.645   4.219  0.1307 -0.0117  0.4747
   84SOPE  H18R 7801   5.828   1.667   4.200  0.2900  0.7289  2.0826
   84SOPE  H18S 7802   5.708   1.590   4.315  3.2017  0.1099  1.0345
   84SOPE  H18T 7803   5.666   1.740   4.239  2.6092  1.4666  0.5985
   84SOPE   C33 7804   6.132   1.811   2.897  0.5127  0.4341 -0.1071
   84SOPE   H3X 7805   6.114   1.909   2.946 -0.4089 -0.7749  2.1228
   84SOPE   H3Y 7806   6.222   1.814   2.832 -0.9789 -0.3293 -2.3258
   84SOPE   C34 7807   6.145   1.721   3.021 -0.3818 -0.6773  0.3291
   84SOPE   H4X 7808   6.247   1.736   3.062  0.3930 -0.3162 -1.6111
   84SOPE   H4Y 7809   6.131   1.613   3.000 -0.7191 -0.5919  0.1044
   84SOPE   C35 7810   6.048   1.743   3.142  0.1159 -0.1065 -0.6753
   84SOPE   H5X 7811   5.945   1.753   3.103  0.2415  1.2532 -0.7203
   84SOPE   H5Y 7812   6.074   1.842   3.186  4.3784 -1.4324  0.2737
   84SOPE   C36 7813   6.073   1.639   3.254  0.4147 -0.4018  0.1883
   84SOPE   H6X 7814   6.121   1.554   3.201  0.5695 -0.9749  1.2099
   84SOPE   H6Y 7815   5.974   1.596   3.280 -2.5414  4.2469 -2.0887
   84SOPE   C37 7816   6.158   1.683   3.377  0.1615 -0.0718  0.3609
   84SOPE   H7X 7817   6.240   1.755   3.357 -0.4242  0.7282  0.7803
   84SOPE   H7Y 7818   6.206   1.594   3.424  2.3486  0.8749  0.0328
   84SOPE   C38 7819   6.066   1.749   3.473  0.4615 -0.2901  0.6673
   84SOPE   H8X 7820   5.967   1.699   3.463  0.3313  0.4016 -3.2808
   84SOPE   H8Y 7821   6.050   1.851   3.432 -0.0686 -0.1866  1.1287
   84SOPE   C39 7822   6.115   1.744   3.617  0.1310 -0.1334 -0.1905
   84SOPE   H9X 7823   6.061   1.821   3.677 -0.0702 -0.1544 -0.3402
   84SOPE   H9Y 7824   6.225   1.758   3.613  0.2283 -0.0535  1.8345
   84SOPE  C310 7825   6.090   1.609   3.685 -0.0867 -0.9802 -0.8363
   84SOPE  H10X 7826   6.146   1.536   3.623  1.3752 -0.5273 -0.0904
   84SOPE  H10Y 7827   5.980   1.596   3.686 -0.0404 -1.9151 -2.8143
   84SOPE  C311 7828   6.157   1.615   3.823 -0.6133  0.5099  0.1966
   84SOPE  H11X 7829   6.129   1.714   3.866  0.5698  2.0113 -2.2407
   84SOPE  H11Y 7830   6.268   1.608   3.810 -0.7426 -1.9349 -0.0590
   84SOPE  C312 7831   6.110   1.508   3.923 -0.2458 -0.3800  0.4639
   84SOPE  H12X 7832   6.167   1.413   3.918  1.9566  0.8898 -0.1827
   84SOPE  H12Y 7833   6.000   1.512   3.907 -0.1055  1.9972 -0.1991
   84SOPE  C313 7834   6.132   1.558   4.069  0.4680 -0.0368  0.2851
   84SOPE  H13X 7835   6.098   1.663   4.083 -0.0992 -0.2217  0.3218
   84SOPE  H13Y 7836   6.241   1.576   4.081  0.6657 -0.2577 -1.0706
   84SOPE  C314 7837   6.068   1.461   4.173 -0.0140 -0.1470 -0.4322
   84SOPE  H14X 7838   6.105   1.358   4.152 -2.1500 -0.8554 -1.0221
   84SOPE  H14Y 7839   5.958   1.459   4.153 -0.1501 -3.6795  0.0631
   84SOPE  C315 7840   6.095   1.518   4.308 -0.9285 -0.1906  0.2646
   84SOPE  H15X 7841   6.041   1.614   4.321  0.9228  0.8636  0.5315
   84SOPE  H15Y 7842   6.203   1.537   4.326 -0.3817  1.4943 -3.7031
   84SOPE  C316 7843   6.034   1.417   4.415 -0.3668 -1.1770 -0.1365
   84SOPE  H16X 7844   6.093   1.323   4.414  1.8982  0.1768 -0.5782
   84SOPE  H16Y 7845   5.929   1.406   4.379 -1.1826  1.9919  1.0163
   84SOPE  C317 7846   6.037   1.482   4.554 -0.0778  0.5831  0.4199
   84SOPE  H17X 7847   5.956   1.438   4.616  0.3490 -0.1401  0.4716
   84SOPE  H17Y 7848   6.040   1.592   4.538  1.6256  0.3482 -1.2753
   84SOPE  C318 7849   6.181   1.464   4.616 -0.4033 -0.6015 -0.1004
   84SOPE  H18X 7850   6.187   1.522   4.711  0.3903  0.6120 -0.8600
   84SOPE  H18Y 7851   6.253   1.497   4.539  0.6629 -3.6351 -0.5369
   84SOPE  H18Z 7852   6.214   1.358   4.622  0.8965 -0.1983  0.1089
   85SOPE     N 7853   2.814   2.702   2.139  0.3478  0.3444 -0.1233
   85SOPE   HN1 7854   2.882   2.719   2.216  1.1167 -0.2214 -0.6702
   85SOPE   HN2 7855   2.748   2.783   2.141 -2.3893 -1.7561 -0.0050
   85SOPE   HN3 7856   2.757   2.617   2.155 -0.8761  1.4987  2.2796
   85SOPE   C12 7857   2.898   2.704   2.014  0.6547  0.0965  0.2077
   85SOPE  H12A 7858   2.962   2.795   2.019 -0.9242  1.2499  0.5829
   85SOPE  H12B 7859   2.830   2.716   1.927  0.8855 -2.3742 -0.3734
   85SOPE   C11 7860   2.988   2.574   1.998  0.5434  0.5364  0.0197
   85SOPE  H11A 7861   3.036   2.557   2.096  1.1122  0.2522 -0.3029
   85SOPE  H11B 7862   3.061   2.606   1.920  1.7032 -0.2048  0.7848
   85SOPE     P 7863   2.969   2.317   1.964 -0.2861 -0.0080  0.5224
   85SOPE   O13 7864   3.099   2.331   1.887  0.4862 -0.1528 -0.1328
   85SOPE   O14 7865   2.871   2.219   1.911 -0.7305 -0.0967  0.1592
   85SOPE   O12 7866   2.903   2.462   1.962 -0.1389 -0.7691 -0.0888
   85SOPE   O11 7867   3.003   2.288   2.121 -0.3486 -0.5630  0.2407
   85SOPE    C1 7868   2.913   2.289   2.229  0.6953 -0.2049 -0.3195
   85SOPE    HA 7869   2.901   2.185   2.268  1.1114 -0.1355 -0.0067
   85SOPE    HB 7870   2.812   2.329   2.208  0.3249 -2.0795 -2.5184
   85SOPE    C2 7871   2.953   2.377   2.354  0.0087  0.4640 -0.5762
   85SOPE    HS 7872   2.947   2.474   2.300 -1.5015  0.3715 -0.6076
   85SOPE   O21 7873   3.084   2.336   2.398 -0.0044 -0.5727 -0.1043
   85SOPE   C21 7874   3.150   2.448   2.431  0.3592  0.4697 -0.5944
   85SOPE   O22 7875   3.108   2.561   2.414 -0.6545  0.4912 -0.2026
   85SOPE   C22 7876   3.279   2.411   2.506  0.5103 -0.1535 -0.7612
   85SOPE   H2R 7877   3.352   2.355   2.443  1.0477 -0.7054  0.3159
   85SOPE   H2S 7878   3.257   2.334   2.583 -2.8572  1.2826 -0.0878
   85SOPE    C3 7879   2.849   2.376   2.466 -0.4691 -0.3339 -0.1543
   85SOPE    HX 7880   2.841   2.274   2.510 -2.0237  0.7431  2.2070
   85SOPE    HY 7881   2.749   2.400   2.424 -0.0174  1.1225 -0.4459
   85SOPE   O31 7882   2.882   2.473   2.567  0.3109 -0.6038  0.5668
   85SOPE   C31 7883   2.830   2.599   2.565 -0.1374  0.0602  0.0562
   85SOPE   O32 7884   2.759   2.643   2.473 -0.0428 -0.2537  0.2676
   85SOPE   C32 7885   2.881   2.672   2.693  0.3546  0.1157  0.4273
   85SOPE   H2X 7886   2.847   2.778   2.682 -0.4676 -0.2531 -0.8859
   85SOPE   H2Y 7887   2.991   2.674   2.683  0.2494 -0.9346 -1.4182
   85SOPE   C23 7888   3.356   2.541   2.562  0.4661  0.7992  0.3868
   85SOPE   H3R 7889   3.350   2.614   2.478 -0.6689  0.7679  0.4195
   85SOPE   H3S 7890   3.464   2.515   2.562  0.5718  1.2380  0.2167
   85SOPE   C24 7891   3.304   2.598   2.694  0.0615 -1.0090  0.6375
   85SOPE   H4R 7892   3.360   2.690   2.722  0.2260 -0.8850 -0.0568
   85SOPE   H4S 7893   3.200   2.635   2.679  0.8828  1.1267 -0.2141
   85SOPE   C25 7894   3.297   2.488   2.803  0.4264 -0.3570 -0.3531
   85SOPE   H5R 7895   3.278   2.539   2.900  0.7162  1.1574 -1.0620
   85SOPE   H5S 7896   3.210   2.420   2.793 -1.3531  1.4089  1.9163
   85SOPE   C26 7897   3.426   2.415   2.809 -0.2502  0.1356 -0.2240
   85SOPE   H6R 7898   3.441   2.352   2.719 -2.6168 -0.8223 -0.0208
   85SOPE   H6S 7899   3.505   2.492   2.796 -0.0029 -0.0545  0.1043
   85SOPE   C27 7900   3.457   2.332   2.936 -0.0412  0.1020  1.5422
   85SOPE   H7R 7901   3.356   2.317   2.981 -1.6629 -0.1663 -1.8837
   85SOPE   H7S 7902   3.510   2.237   2.913 -1.3955 -0.5466  0.9661
   85SOPE   C28 7903   3.539   2.403   3.043 -0.2949 -0.2830 -0.0411
   85SOPE   H8R 7904   3.569   2.333   3.124  0.4039 -0.1761 -0.1997
   85SOPE   H8S 7905   3.635   2.424   2.991 -0.6937  0.7392 -0.4038
   85SOPE   C29 7906   3.472   2.522   3.105  0.3777 -0.9318  0.2178
   85SOPE   H91 7907   3.496   2.617   3.056  3.6826 -0.2437  2.8238
   85SOPE  C210 7908   3.388   2.523   3.206 -1.1472  0.4467  0.0176
   85SOPE  H101 7909   3.357   2.624   3.236 -0.8609  0.6558 -0.3739
   85SOPE  C211 7910   3.344   2.406   3.289  0.0537 -0.0416  0.4491
   85SOPE  H11R 7911   3.387   2.309   3.255 -1.5115 -0.3708 -0.7338
   85SOPE  H11S 7912   3.235   2.388   3.276  0.4493 -0.6124 -2.9007
   85SOPE  C212 7913   3.390   2.435   3.432 -0.0351 -0.3332 -0.0368
   85SOPE  H12R 7914   3.323   2.518   3.465  0.0686  0.2698 -1.2661
   85SOPE  H12S 7915   3.495   2.471   3.441 -1.0079  2.9839 -0.6363
   85SOPE  C213 7916   3.366   2.318   3.530  0.0496  0.5209  0.2903
   85SOPE  H13R 7917   3.416   2.238   3.471  0.2601  0.8585  0.0050
   85SOPE  H13S 7918   3.259   2.292   3.545  0.8381 -1.5874  3.1717
   85SOPE  C214 7919   3.439   2.327   3.665 -0.1388 -0.7014 -0.5151
   85SOPE  H14R 7920   3.547   2.349   3.654 -0.2196 -0.6725 -1.2617
   85SOPE  H14S 7921   3.434   2.226   3.711  0.2564 -0.4920 -0.0008
   85SOPE  C215 7922   3.368   2.405   3.774  0.1609 -0.5052 -0.3468
   85SOPE  H15R 7923   3.257   2.401   3.780  0.0179  0.9401 -1.4223
   85SOPE  H15S 7924   3.386   2.514   3.763 -0.1379 -0.5050 -0.8922
   85SOPE  C216 7925   3.411   2.371   3.918 -0.1058  0.0531 -0.4439
   85SOPE  H16R 7926   3.393   2.459   3.985 -2.1234  0.6486 -1.6882
   85SOPE  H16S 7927   3.513   2.328   3.917 -0.9632 -2.0822 -0.1313
   85SOPE  C217 7928   3.332   2.269   3.990 -0.0129 -0.3939 -0.3004
   85SOPE  H17R 7929   3.327   2.188   3.914 -2.5888 -0.9445  0.3839
   85SOPE  H17S 7930   3.226   2.301   3.997 -0.3294 -1.7667  1.8789
   85SOPE  C218 7931   3.373   2.232   4.133 -0.5586  0.6114 -0.5546
   85SOPE  H18R 7932   3.316   2.291   4.209 -0.0772 -0.0105  0.3015
   85SOPE  H18S 7933   3.481   2.240   4.155  0.1981 -1.0123 -3.2582
   85SOPE  H18T 7934   3.329   2.131   4.146 -1.4645  1.0610  0.0167
   85SOPE   C33 7935   2.828   2.614   2.818  0.3894 -0.1277 -0.2197
   85SOPE   H3X 7936   2.889   2.648   2.905 -0.8540 -0.2982  0.7548
   85SOPE   H3Y 7937   2.840   2.504   2.828 -1.3284 -0.3362 -0.1678
   85SOPE   C34 7938   2.684   2.645   2.855  0.4370 -0.4032 -0.1018
   85SOPE   H4X 7939   2.627   2.660   2.760  3.0330 -1.3717 -1.9339
   85SOPE   H4Y 7940   2.670   2.726   2.929  0.6688  0.8739 -1.4309
   85SOPE   C35 7941   2.615   2.531   2.936  0.0351 -0.2510  0.4568
   85SOPE   H5X 7942   2.631   2.434   2.882 -1.5202 -0.6134  0.6069
   85SOPE   H5Y 7943   2.504   2.532   2.935  0.0297 -0.6667  0.0957
   85SOPE   C36 7944   2.656   2.525   3.088 -0.4333  0.9453 -0.0820
   85SOPE   H6X 7945   2.625   2.614   3.147  1.2243  1.1962  0.4609
   85SOPE   H6Y 7946   2.766   2.517   3.081 -0.6523 -1.1984 -2.1075
   85SOPE   C37 7947   2.586   2.407   3.163 -0.7004  0.3732 -0.3534
   85SOPE   H7X 7948   2.612   2.305   3.128 -1.5608  0.4174 -1.1483
   85SOPE   H7Y 7949   2.478   2.395   3.138 -0.8323  0.0873  0.3236
   85SOPE   C38 7950   2.610   2.409   3.316  0.7263 -0.0619  0.0170
   85SOPE   H8X 7951   2.603   2.515   3.347  2.1402  0.2205 -0.5577
   85SOPE   H8Y 7952   2.713   2.372   3.337  1.0706  0.0836 -1.2951
   85SOPE   C39 7953   2.506   2.333   3.395  0.2809 -0.2309  0.3736
   85SOPE   H9X 7954   2.490   2.232   3.354  0.8903 -0.1140 -0.1723
   85SOPE   H9Y 7955   2.409   2.386   3.387 -1.0984 -2.7693 -0.4123
   85SOPE  C310 7956   2.539   2.318   3.542  0.6193  0.1897  0.5398
   85SOPE  H10X 7957   2.577   2.409   3.592  0.9746  1.7246 -2.3196
   85SOPE  H10Y 7958   2.612   2.236   3.557 -0.9549 -1.0439  1.8295
   85SOPE  C311 7959   2.417   2.267   3.621  0.6281 -0.3325 -0.5772
   85SOPE  H11X 7960   2.382   2.174   3.572 -0.5335  0.7827 -1.9455
   85SOPE  H11Y 7961   2.346   2.352   3.612  0.8834  0.6836  4.0604
   85SOPE  C312 7962   2.460   2.252   3.768  0.8482  0.2299 -0.4617
   85SOPE  H12X 7963   2.461   2.345   3.828 -0.0859  0.3107 -0.5532
   85SOPE  H12Y 7964   2.560   2.205   3.762 -0.5504 -2.8742 -1.8224
   85SOPE  C313 7965   2.367   2.154   3.851  0.7424  0.3984  0.1270
   85SOPE  H13X 7966   2.369   2.051   3.809  2.3519  0.5748 -0.2709
   85SOPE  H13Y 7967   2.260   2.185   3.861 -0.1572 -2.6939  1.5277
   85SOPE  C314 7968   2.430   2.131   3.989  0.1839  0.2785 -1.3284
   85SOPE  H14X 7969   2.400   2.220   4.048 -1.9038 -0.1650 -1.6221
   85SOPE  H14Y 7970   2.539   2.109   3.990 -0.0083 -0.7845 -0.2835
   85SOPE  C315 7971   2.346   2.029   4.068  0.2917 -0.3034 -0.2145
   85SOPE  H15X 7972   2.352   1.932   4.014 -1.7072  0.3247 -1.6849
   85SOPE  H15Y 7973   2.243   2.071   4.061  1.0063  1.6675  0.4181
   85SOPE  C316 7974   2.381   2.019   4.224  0.0633  0.0399  0.6058
   85SOPE  H16X 7975   2.391   2.116   4.278  1.5821 -0.8331  1.9955
   85SOPE  H16Y 7976   2.477   1.963   4.232  0.1220  0.0552  0.0344
   85SOPE  C317 7977   2.268   1.937   4.295  0.5241  0.5414  0.3735
   85SOPE  H17X 7978   2.167   1.975   4.270  0.6255 -0.4014 -1.6239
   85SOPE  H17Y 7979   2.271   1.947   4.406 -1.4113 -1.2757  0.6572
   85SOPE  C318 7980   2.277   1.786   4.257 -0.1610  0.2087 -0.5825
   85SOPE  H18X 7981   2.380   1.753   4.283 -1.0131 -2.5356 -0.4373
   85SOPE  H18Y 7982   2.275   1.772   4.147 -0.5295  0.4044 -0.6043
   85SOPE  H18Z 7983   2.197   1.727   4.307  0.3333 -0.7215 -0.8714
   86SOPE     N 7984   3.725   5.639   1.868  0.3562  0.1861  0.5637
   86SOPE   HN1 7985   3.812   5.595   1.904  1.5758  0.6904 -1.6009
   86SOPE   HN2 7986   3.744   5.681   1.775  1.2742 -0.8099  0.2726
   86SOPE   HN3 7987   3.711   5.720   1.931  1.2593  0.1311  0.8592
   86SOPE   C12 7988   3.612   5.545   1.866  0.0002 -0.6243 -0.0971
   86SOPE  H12A 7989   3.640   5.468   1.791  0.5133  1.3013 -2.0135
   86SOPE  H12B 7990   3.522   5.594   1.824 -0.3049 -0.8037  0.3460
   86SOPE   C11 7991   3.593   5.468   1.999  0.2815 -0.1493  0.5250
   86SOPE  H11A 7992   3.533   5.383   1.961  0.7130  0.6280 -2.1264
   86SOPE  H11B 7993   3.530   5.528   2.068 -1.2655 -0.9232 -0.1711
   86SOPE     P 7994   3.746   5.391   2.204 -0.5647  0.3885 -0.1485
   86SOPE   O13 7995   3.795   5.509   2.274 -0.4637 -0.0806  0.1193
   86SOPE   O14 7996   3.830   5.272   2.200  0.1356 -0.2152  0.7604
   86SOPE   O12 7997   3.717   5.426   2.052  0.3914  0.3962  0.1280
   86SOPE   O11 7998   3.606   5.350   2.248 -0.0830 -0.6510  0.1592
   86SOPE    C1 7999   3.530   5.412   2.348  0.2759  0.2219 -0.1622
   86SOPE    HA 8000   3.424   5.383   2.336 -0.3441  2.6640 -1.2446
   86SOPE    HB 8001   3.531   5.523   2.348 -2.0027  0.3040  1.2475
   86SOPE    C2 8002   3.572   5.367   2.488 -0.1286  0.0916 -0.3462
   86SOPE    HS 8003   3.678   5.399   2.501  0.7245 -3.0623  1.6810
   86SOPE   O21 8004   3.555   5.224   2.508  0.0232 -0.1233  0.1348
   86SOPE   C21 8005   3.674   5.154   2.515 -0.7995  0.1343 -0.1156
   86SOPE   O22 8006   3.787   5.201   2.514  0.2892  0.1172 -0.0321
   86SOPE   C22 8007   3.633   5.008   2.508 -0.4784  0.0834  0.0074
   86SOPE   H2R 8008   3.688   4.970   2.419  1.3689  1.2101  0.6043
   86SOPE   H2S 8009   3.523   4.992   2.505 -0.0489 -3.5477 -1.7317
   86SOPE    C3 8010   3.475   5.438   2.593  0.3944  0.4338  0.8887
   86SOPE    HX 8011   3.384   5.375   2.592  0.0135  0.9782  0.1580
   86SOPE    HY 8012   3.464   5.547   2.570  1.0104 -0.0718 -2.2025
   86SOPE   O31 8013   3.535   5.426   2.722  0.2692  0.3559 -0.8717
   86SOPE   C31 8014   3.456   5.465   2.820 -0.4513 -0.3552  0.5725
   86SOPE   O32 8015   3.339   5.492   2.807  0.1454  0.4046  0.3642
   86SOPE   C32 8016   3.537   5.472   2.947 -0.2283 -0.2100  0.0440
   86SOPE   H2X 8017   3.570   5.576   2.967 -1.6145  0.2422  0.1198
   86SOPE   H2Y 8018   3.624   5.405   2.935 -0.7417 -1.1187  1.1571
   86SOPE   C23 8019   3.691   4.926   2.624  0.4425 -0.5520  0.0529
   86SOPE   H3R 8020   3.797   4.914   2.590  0.5077  0.7535 -0.2634
   86SOPE   H3S 8021   3.643   4.826   2.629  0.5492 -0.5516  1.3039
   86SOPE   C24 8022   3.679   4.983   2.763  0.0104 -0.4227 -0.6542
   86SOPE   H4R 8023   3.735   5.078   2.751 -0.3332 -0.2710 -1.0920
   86SOPE   H4S 8024   3.574   5.006   2.793  0.2869 -1.2220  1.0162
   86SOPE   C25 8025   3.737   4.904   2.882 -0.0105  0.2970  0.1086
   86SOPE   H5R 8026   3.686   4.810   2.912  1.5736 -0.1089  1.7417
   86SOPE   H5S 8027   3.840   4.873   2.853  0.1695 -1.2830  2.1940
   86SOPE   C26 8028   3.759   4.986   3.014  0.0789 -0.5152  0.0593
   86SOPE   H6R 8029   3.856   4.952   3.056 -1.3354 -1.9807  2.3427
   86SOPE   H6S 8030   3.769   5.094   2.990 -1.7955 -0.6883 -1.7362
   86SOPE   C27 8031   3.651   4.952   3.119 -0.0853  0.1640 -0.5781
   86SOPE   H7R 8032   3.553   5.000   3.096 -0.1312  0.5873  0.4528
   86SOPE   H7S 8033   3.637   4.844   3.137  1.7942  0.3105  2.5609
   86SOPE   C28 8034   3.699   5.014   3.259  0.0821  0.1448 -0.3703
   86SOPE   H8R 8035   3.810   5.001   3.261  0.1228  0.4983 -0.3518
   86SOPE   H8S 8036   3.675   5.121   3.245 -0.5405  0.0384 -0.1320
   86SOPE   C29 8037   3.623   4.965   3.382 -0.8805 -0.4881  0.1783
   86SOPE   H91 8038   3.535   4.910   3.346 -0.2977 -0.3920 -1.4908
   86SOPE  C210 8039   3.655   4.962   3.513  0.6957  0.1669  0.1615
   86SOPE  H101 8040   3.579   4.921   3.580 -0.1063 -0.0798 -0.8786
   86SOPE  C211 8041   3.787   5.013   3.568  0.2332  0.3975 -0.3518
   86SOPE  H11R 8042   3.773   5.102   3.633  1.5884  0.6007 -0.2919
   86SOPE  H11S 8043   3.864   5.053   3.498  0.2963  0.5593 -0.1904
   86SOPE  C212 8044   3.851   4.890   3.644 -0.5844 -0.2799 -0.0057
   86SOPE  H12R 8045   3.772   4.841   3.704 -0.5591  0.2548  0.4725
   86SOPE  H12S 8046   3.926   4.927   3.718  0.4893 -0.4052 -1.0089
   86SOPE  C213 8047   3.926   4.798   3.549  0.7204  0.3489 -0.0181
   86SOPE  H13R 8048   3.875   4.802   3.450  0.9068  0.7669 -0.1006
   86SOPE  H13S 8049   3.930   4.695   3.590  2.3499  0.1273 -0.6868
   86SOPE  C214 8050   4.072   4.842   3.547  0.4257  0.7979 -0.9474
   86SOPE  H14R 8051   4.107   4.859   3.651 -0.4653 -0.6414 -0.3801
   86SOPE  H14S 8052   4.078   4.943   3.501 -0.1944  0.5081 -1.6981
   86SOPE  C215 8053   4.179   4.757   3.481 -0.0378  0.2727  0.6588
   86SOPE  H15R 8054   4.236   4.813   3.405  1.5815 -2.7802 -0.5690
   86SOPE  H15S 8055   4.132   4.680   3.416  1.7134 -0.0472 -0.2971
   86SOPE  C216 8056   4.275   4.684   3.579 -0.3834 -0.1685 -0.8044
   86SOPE  H16R 8057   4.320   4.769   3.636 -0.6211 -0.7177  0.2417
   86SOPE  H16S 8058   4.353   4.636   3.517  0.3822  1.6401 -1.3160
   86SOPE  C217 8059   4.206   4.597   3.680  0.3308 -1.0527 -0.1858
   86SOPE  H17R 8060   4.149   4.518   3.625  0.2228 -1.8709  1.0767
   86SOPE  H17S 8061   4.141   4.668   3.736  1.7773 -0.0464  0.2495
   86SOPE  C218 8062   4.296   4.527   3.776  0.2645 -0.4095  0.1447
   86SOPE  H18R 8063   4.359   4.595   3.838  1.1551  0.7404 -1.9070
   86SOPE  H18S 8064   4.368   4.461   3.724 -0.2408 -0.0888 -0.9872
   86SOPE  H18T 8065   4.235   4.472   3.850 -0.5137  0.3224  0.0587
   86SOPE   C33 8066   3.453   5.424   3.067  0.7223  0.4583 -0.6200
   86SOPE   H3X 8067   3.401   5.329   3.043 -0.2913  1.6264 -3.3624
   86SOPE   H3Y 8068   3.370   5.494   3.091  1.3737  1.2805 -0.7110
   86SOPE   C34 8069   3.531   5.422   3.199 -0.3641  0.2910 -0.6669
   86SOPE   H4X 8070   3.568   5.523   3.227 -0.6945  0.5248 -1.0537
   86SOPE   H4Y 8071   3.624   5.361   3.208 -0.8756 -0.4551 -0.3502
   86SOPE   C35 8072   3.449   5.372   3.325  0.3048  0.4897 -0.7866
   86SOPE   H5X 8073   3.427   5.263   3.322  1.1729  0.1961  1.3999
   86SOPE   H5Y 8074   3.353   5.426   3.337 -0.3487 -0.8488  0.2877
   86SOPE   C36 8075   3.512   5.394   3.466 -0.2685  0.4928 -0.2674
   86SOPE   H6X 8076   3.530   5.501   3.493 -0.7486  0.3217  0.7675
   86SOPE   H6Y 8077   3.614   5.350   3.462 -0.0269  1.0390 -0.2314
   86SOPE   C37 8078   3.438   5.335   3.584 -1.5316 -0.5156 -0.2062
   86SOPE   H7X 8079   3.429   5.226   3.566  0.1105 -0.7350  0.0854
   86SOPE   H7Y 8080   3.339   5.380   3.606 -1.4903 -0.0701 -0.8976
   86SOPE   C38 8081   3.517   5.356   3.716 -0.1447 -0.3519 -0.0718
   86SOPE   H8X 8082   3.499   5.464   3.732 -0.6124 -0.3067 -0.8577
   86SOPE   H8Y 8083   3.622   5.337   3.687 -0.4981 -2.6464 -0.0964
   86SOPE   C39 8084   3.457   5.279   3.839  0.0648  1.0740 -0.1998
   86SOPE   H9X 8085   3.446   5.179   3.793  2.2775  0.9863 -0.6317
   86SOPE   H9Y 8086   3.352   5.303   3.868  0.1766 -0.0227  1.2610
   86SOPE  C310 8087   3.544   5.285   3.968 -0.6914  0.0650  0.2321
   86SOPE  H10X 8088   3.481   5.264   4.057 -0.9529  0.7830  0.2263
   86SOPE  H10Y 8089   3.584   5.388   3.979 -2.6016  0.7901  0.8827
   86SOPE  C311 8090   3.655   5.180   3.977  0.8543  0.2178 -0.5614
   86SOPE  H11X 8091   3.727   5.211   3.898  0.1384 -0.1170 -1.3631
   86SOPE  H11Y 8092   3.610   5.086   3.936 -0.9398  0.5337  0.5541
   86SOPE  C312 8093   3.722   5.171   4.109 -0.0348  0.3881 -0.7419
   86SOPE  H12X 8094   3.670   5.121   4.194  2.1031  0.0564  0.4393
   86SOPE  H12Y 8095   3.738   5.277   4.140 -0.1476  0.1186  0.2738
   86SOPE  C313 8096   3.870   5.105   4.108 -0.3861  0.4053 -0.9081
   86SOPE  H13X 8097   3.918   5.119   4.207  1.7817  0.2967 -1.8716
   86SOPE  H13Y 8098   3.926   5.181   4.049  1.1191  1.5729  1.8506
   86SOPE  C314 8099   3.877   4.966   4.046 -0.9059 -0.2028  0.2624
   86SOPE  H14X 8100   3.962   4.957   3.976  0.7159  3.0170  1.6082
   86SOPE  H14Y 8101   3.780   4.947   3.996 -0.4496 -0.5349 -0.5044
   86SOPE  C315 8102   3.913   4.860   4.146 -0.0865  0.4553 -0.6159
   86SOPE  H15X 8103   3.835   4.860   4.224 -0.7820 -0.8883 -1.2756
   86SOPE  H15Y 8104   4.007   4.879   4.202  0.2373 -0.9199 -0.6601
   86SOPE  C316 8105   3.945   4.717   4.085  0.6911  0.3472 -0.3138
   86SOPE  H16X 8106   3.976   4.650   4.167 -2.1909 -0.3806  0.3163
   86SOPE  H16Y 8107   4.044   4.728   4.036  1.7657  0.1777  1.7302
   86SOPE  C317 8108   3.835   4.649   4.009  0.0902  0.5801  0.6227
   86SOPE  H17X 8109   3.780   4.712   3.936 -2.3313 -1.8186  0.2308
   86SOPE  H17Y 8110   3.762   4.619   4.087  0.9367 -3.5700  0.0439
   86SOPE  C318 8111   3.878   4.511   3.946  0.9380  0.2485  0.1896
   86SOPE  H18X 8112   3.949   4.513   3.860 -0.0398 -0.2883 -0.6643
   86SOPE  H18Y 8113   3.785   4.461   3.909  0.8762  0.2444  0.3521
   86SOPE  H18Z 8114   3.911   4.448   4.030 -1.0586  0.3587  1.1129
   87SOPE     N 8115   4.675   5.406   2.069  0.4720  0.4232  0.4871
   87SOPE   HN1 8116   4.765   5.361   2.040  0.5987  1.5627 -0.9612
   87SOPE   HN2 8117   4.608   5.327   2.078  0.5982  0.3139  0.4678
   87SOPE   HN3 8118   4.644   5.469   1.993 -2.5893 -1.3661  0.1115
   87SOPE   C12 8119   4.703   5.494   2.188  0.1236 -0.2084  0.9531
   87SOPE  H12A 8120   4.799   5.548   2.175 -0.9421  1.7179  0.7899
   87SOPE  H12B 8121   4.721   5.419   2.269  0.1464 -0.9534  0.2667
   87SOPE   C11 8122   4.583   5.579   2.225  0.3298 -0.1578 -0.6475
   87SOPE  H11A 8123   4.609   5.646   2.309  0.7593 -1.2781  0.1296
   87SOPE  H11B 8124   4.507   5.508   2.264 -0.3075  1.7749  1.9137
   87SOPE     P 8125   4.434   5.762   2.127  0.2929  0.0131  0.5696
   87SOPE   O13 8126   4.396   5.819   1.997  0.2579  0.4673  0.3106
   87SOPE   O14 8127   4.493   5.856   2.219  0.5215 -0.0994  0.3018
   87SOPE   O12 8128   4.530   5.644   2.110 -0.1486 -0.1293 -0.8337
   87SOPE   O11 8129   4.301   5.691   2.173 -0.8446  0.1341 -0.7869
   87SOPE    C1 8130   4.224   5.748   2.278  0.0833 -0.3161 -0.2766
   87SOPE    HA 8131   4.116   5.724   2.270  0.0530 -0.2335 -0.0948
   87SOPE    HB 8132   4.230   5.858   2.269  0.1607 -0.3028 -0.0618
   87SOPE    C2 8133   4.271   5.709   2.426 -0.6413  0.2468  0.3823
   87SOPE    HS 8134   4.369   5.758   2.444  0.0587 -0.5179 -1.1893
   87SOPE   O21 8135   4.273   5.569   2.441 -0.1120  0.6101 -0.3157
   87SOPE   C21 8136   4.372   5.535   2.519 -0.3003 -0.3141  0.0748
   87SOPE   O22 8137   4.444   5.606   2.588  0.1298 -0.5985  0.8907
   87SOPE   C22 8138   4.375   5.385   2.525 -0.3637  0.5960  0.0191
   87SOPE   H2R 8139   4.483   5.358   2.536 -0.5485  0.7430  3.0792
   87SOPE   H2S 8140   4.330   5.336   2.436  0.1023 -3.0757  1.6418
   87SOPE    C3 8141   4.166   5.766   2.524  0.5616 -0.1277 -0.2498
   87SOPE    HX 8142   4.062   5.733   2.507 -0.0601  0.9530  1.2119
   87SOPE    HY 8143   4.158   5.876   2.509  0.0076  0.0522  1.2106
   87SOPE   O31 8144   4.199   5.735   2.668 -0.6072 -0.5670  0.1931
   87SOPE   C31 8145   4.280   5.823   2.734 -0.2191 -0.2950  0.1236
   87SOPE   O32 8146   4.330   5.920   2.687  0.1501 -0.2272 -0.1586
   87SOPE   C32 8147   4.311   5.765   2.867  0.4240  0.0062 -0.0822
   87SOPE   H2X 8148   4.387   5.687   2.846  0.6209  0.1638  0.0445
   87SOPE   H2Y 8149   4.221   5.714   2.909 -0.5576 -1.2492 -3.4456
   87SOPE   C23 8150   4.326   5.339   2.667 -0.5736  0.0610  0.6100
   87SOPE   H3R 8151   4.216   5.350   2.675 -0.5923  0.5876 -0.3038
   87SOPE   H3S 8152   4.386   5.404   2.734  2.1178 -1.5753 -0.0595
   87SOPE   C24 8153   4.376   5.190   2.690 -0.4512 -0.2646 -0.1374
   87SOPE   H4R 8154   4.338   5.116   2.616 -0.4767  1.5293 -2.0028
   87SOPE   H4S 8155   4.487   5.193   2.681 -0.3843 -0.4741  0.5813
   87SOPE   C25 8156   4.322   5.130   2.822 -0.2006  0.1224 -1.0750
   87SOPE   H5R 8157   4.370   5.181   2.909  0.8369  0.8456 -2.0458
   87SOPE   H5S 8158   4.214   5.154   2.830  0.2439  1.7611  1.3458
   87SOPE   C26 8159   4.322   4.973   2.831 -0.4028 -0.9362  0.3539
   87SOPE   H6R 8160   4.273   4.930   2.741 -0.5815 -0.9661  0.4652
   87SOPE   H6S 8161   4.430   4.948   2.830  0.0543  0.7995 -1.1551
   87SOPE   C27 8162   4.271   4.923   2.967  0.1473 -0.2916  0.5601
   87SOPE   H7R 8163   4.278   4.813   2.950  1.5806 -0.0102 -0.9747
   87SOPE   H7S 8164   4.336   4.951   3.052 -0.0431  3.5639 -0.3704
   87SOPE   C28 8165   4.128   4.966   3.000  0.0642  0.8985 -0.1525
   87SOPE   H8R 8166   4.123   5.075   3.016  1.7386  0.7037  2.2800
   87SOPE   H8S 8167   4.063   4.927   2.918  1.4716  0.5582 -1.1474
   87SOPE   C29 8168   4.085   4.906   3.133 -0.3715 -0.1227  0.5190
   87SOPE   H91 8169   4.096   4.981   3.213  1.1990 -0.8084  0.9770
   87SOPE  C210 8170   4.039   4.786   3.160  0.4803 -0.2689  1.0442
   87SOPE  H101 8171   4.014   4.755   3.262  1.1462 -1.8860  0.7499
   87SOPE  C211 8172   4.015   4.677   3.058 -0.1663  0.8690  0.2293
   87SOPE  H11R 8173   4.015   4.722   2.957 -2.3451  0.2525 -0.0990
   87SOPE  H11S 8174   3.914   4.636   3.078 -0.6547  0.1007 -3.1974
   87SOPE  C212 8175   4.119   4.570   3.053 -0.3100  0.0681  0.4180
   87SOPE  H12R 8176   4.217   4.621   3.043  0.8632 -1.8251  1.5844
   87SOPE  H12S 8177   4.106   4.497   2.970 -0.1658  2.2970 -1.6597
   87SOPE  C213 8178   4.141   4.489   3.189  0.3272 -0.1688  0.3930
   87SOPE  H13R 8179   4.158   4.563   3.271  0.6868  0.4119 -0.1964
   87SOPE  H13S 8180   4.220   4.414   3.168  1.7205  1.2698  0.2255
   87SOPE  C214 8181   4.021   4.409   3.238  0.0658  0.0101 -0.0957
   87SOPE  H14R 8182   3.999   4.330   3.163  0.6663 -1.5576  1.3269
   87SOPE  H14S 8183   3.930   4.467   3.263  0.4073 -0.5571  2.8122
   87SOPE  C215 8184   4.046   4.322   3.363 -0.1843  0.0429 -0.2431
   87SOPE  H15R 8185   4.087   4.395   3.436 -1.3750 -0.5175  1.0202
   87SOPE  H15S 8186   4.119   4.245   3.329 -0.2020  0.3973 -1.1226
   87SOPE  C216 8187   3.919   4.260   3.416  0.3630  0.1655  0.6937
   87SOPE  H16R 8188   3.891   4.182   3.342 -2.5575  2.4628 -0.8456
   87SOPE  H16S 8189   3.831   4.329   3.422 -0.3839 -0.6535 -0.4283
   87SOPE  C217 8190   3.940   4.169   3.540  0.3617  0.6158 -0.5414
   87SOPE  H17R 8191   4.018   4.095   3.513  0.6434 -0.0498  1.8938
   87SOPE  H17S 8192   3.845   4.114   3.559  0.8121  0.6063  2.0988
   87SOPE  C218 8193   3.961   4.246   3.668 -0.0629  1.1083 -0.5573
   87SOPE  H18R 8194   4.067   4.279   3.668  1.2149 -2.5300 -0.5707
   87SOPE  H18S 8195   3.962   4.172   3.751  2.7838 -1.3877 -2.6017
   87SOPE  H18T 8196   3.889   4.330   3.679 -0.8159  0.5073 -0.8034
   87SOPE   C33 8197   4.367   5.872   2.963  1.0364 -0.5748 -0.3689
   87SOPE   H3X 8198   4.297   5.958   2.974  0.7577 -0.9751  1.2225
   87SOPE   H3Y 8199   4.469   5.897   2.928  0.8242 -0.0227 -0.6064
   87SOPE   C34 8200   4.386   5.814   3.105  0.3388 -0.3206 -0.4611
   87SOPE   H4X 8201   4.490   5.787   3.134 -0.1506 -1.8797 -0.0272
   87SOPE   H4Y 8202   4.331   5.717   3.103 -1.4902  0.6713 -0.2250
   87SOPE   C35 8203   4.319   5.903   3.214  0.2303 -0.1411  0.8443
   87SOPE   H5X 8204   4.213   5.907   3.180  1.4839 -0.4435 -3.9318
   87SOPE   H5Y 8205   4.357   6.006   3.222  2.0987 -0.7124 -0.1043
   87SOPE   C36 8206   4.323   5.853   3.359 -0.2761 -0.7969  0.6094
   87SOPE   H6X 8207   4.428   5.838   3.393 -0.2491 -0.6324  0.6023
   87SOPE   H6Y 8208   4.260   5.762   3.360 -0.9175 -0.4258 -1.4792
   87SOPE   C37 8209   4.257   5.950   3.457 -0.1601 -0.0549  0.8100
   87SOPE   H7X 8210   4.154   5.970   3.419 -0.8671 -1.5497  1.8397
   87SOPE   H7Y 8211   4.294   6.053   3.440 -0.7744 -0.2227 -2.2157
   87SOPE   C38 8212   4.273   5.914   3.599  1.2226  0.6273  0.1657
   87SOPE   H8X 8213   4.376   5.888   3.629  0.7372  0.1222  1.4950
   87SOPE   H8Y 8214   4.220   5.822   3.633  0.9377  1.2736  1.5510
   87SOPE   C39 8215   4.219   6.037   3.676 -0.2032  0.2479  0.2971
   87SOPE   H9X 8216   4.111   6.056   3.658 -0.3618 -0.5711  0.3141
   87SOPE   H9Y 8217   4.274   6.131   3.655 -1.2430  0.6052 -0.9930
   87SOPE  C310 8218   4.228   6.019   3.826  0.1516 -0.1623 -0.7853
   87SOPE  H10X 8219   4.203   6.114   3.876 -0.0441 -1.1358  1.0634
   87SOPE  H10Y 8220   4.332   5.992   3.855 -0.0179 -0.1388 -0.1354
   87SOPE  C311 8221   4.127   5.922   3.886  0.1295 -0.0287 -0.0914
   87SOPE  H11X 8222   4.097   5.852   3.805  0.3410 -2.9769  2.2126
   87SOPE  H11Y 8223   4.033   5.977   3.908  0.3764 -0.1701  1.4348
   87SOPE  C312 8224   4.169   5.848   4.010 -0.5682 -0.0424  0.6810
   87SOPE  H12X 8225   4.275   5.818   4.013 -0.2579  0.7678 -0.9582
   87SOPE  H12Y 8226   4.109   5.755   4.016  0.4681 -1.0010 -2.2625
   87SOPE  C313 8227   4.162   5.928   4.139  0.1303  0.4792  0.0353
   87SOPE  H13X 8228   4.058   5.954   4.168 -0.5038  0.9917 -2.4371
   87SOPE  H13Y 8229   4.198   6.033   4.128  1.7131  0.1934  1.8514
   87SOPE  C314 8230   4.246   5.881   4.255  0.7761 -0.7234 -0.0454
   87SOPE  H14X 8231   4.345   5.885   4.205  0.4973 -0.1365 -0.5637
   87SOPE  H14Y 8232   4.214   5.777   4.277  0.7501 -0.9940 -1.3054
   87SOPE  C315 8233   4.258   5.974   4.379  0.2121  0.2476  0.1353
   87SOPE  H15X 8234   4.303   6.073   4.356 -0.5659  0.4308 -0.6415
   87SOPE  H15Y 8235   4.331   5.925   4.448  0.9550 -1.1738 -1.5656
   87SOPE  C316 8236   4.129   5.998   4.452  0.4112  0.1723 -0.7931
   87SOPE  H16X 8237   4.080   5.901   4.475  1.5024 -0.0954  0.5460
   87SOPE  H16Y 8238   4.055   6.050   4.388  0.1096  0.6827 -0.0427
   87SOPE  C317 8239   4.149   6.088   4.572  0.6689 -0.2580 -0.4747
   87SOPE  H17X 8240   4.055   6.105   4.628 -0.7624 -1.4906 -2.3727
   87SOPE  H17Y 8241   4.193   6.181   4.528 -0.1229 -0.3762 -1.5527
   87SOPE  C318 8242   4.256   6.030   4.671  0.1947 -0.5025  0.2209
   87SOPE  H18X 8243   4.350   5.996   4.622 -1.1243 -1.9676 -1.4541
   87SOPE  H18Y 8244   4.197   5.948   4.718 -0.9251  0.3359  0.3025
   87SOPE  H18Z 8245   4.271   6.097   4.758  1.8005  0.9674 -1.1238
   88SOPE     N 8246   0.005   6.079   2.618  0.1193  0.1671  0.6031
   88SOPE   HN1 8247   0.011   5.977   2.599  1.6836  0.3906 -0.2960
   88SOPE   HN2 8248   0.029   6.138   2.536  2.2028  0.0590  1.0679
   88SOPE   HN3 8249   0.084   6.101   2.683 -0.2461 -0.1026  1.1399
   88SOPE   C12 8250  -0.122   6.124   2.682  0.6476 -0.8275 -0.0964
   88SOPE  H12A 8251  -0.112   6.235   2.683 -0.7427 -0.6753  1.3279
   88SOPE  H12B 8252  -0.127   6.086   2.786 -1.7775  1.9813  0.9629
   88SOPE   C11 8253  -0.250   6.078   2.604 -0.3854  0.3506 -1.1994
   88SOPE  H11A 8254  -0.318   6.153   2.650  2.4176  2.8973 -0.9036
   88SOPE  H11B 8255  -0.278   5.972   2.622  1.9553  0.0441  1.2916
   88SOPE     P 8256  -0.346   6.150   2.371 -0.1088  0.0325 -0.5381
   88SOPE   O13 8257  -0.436   6.042   2.306  0.0542  0.4268 -0.4216
   88SOPE   O14 8258  -0.274   6.246   2.284  0.4534  0.5734  0.0302
   88SOPE   O12 8259  -0.237   6.081   2.467 -0.4081  0.8625  0.6435
   88SOPE   O11 8260  -0.433   6.242   2.465 -0.0207 -0.1627  0.7691
   88SOPE    C1 8261  -0.574   6.252   2.454  0.1649 -0.2373  0.1937
   88SOPE    HA 8262  -0.614   6.194   2.368 -0.2973  0.1606  0.1342
   88SOPE    HB 8263  -0.605   6.357   2.432 -0.0953 -0.4506 -0.4930
   88SOPE    C2 8264  -0.636   6.204   2.585  0.3340  0.3016 -0.0458
   88SOPE    HS 8265  -0.742   6.237   2.578  0.5715  0.8406 -1.3842
   88SOPE   O21 8266  -0.573   6.258   2.706 -0.4459  0.0430  0.2736
   88SOPE   C21 8267  -0.592   6.389   2.725 -0.1307 -0.3423  0.1214
   88SOPE   O22 8268  -0.657   6.463   2.657 -0.9817  0.0001  0.5786
   88SOPE   C22 8269  -0.498   6.435   2.848  0.3955  0.1865 -0.1869
   88SOPE   H2R 8270  -0.392   6.415   2.822  0.5191 -0.7565  0.9601
   88SOPE   H2S 8271  -0.527   6.368   2.932 -1.7534 -0.4027 -1.3086
   88SOPE    C3 8272  -0.628   6.051   2.592  0.2300 -0.0327  0.1543
   88SOPE    HX 8273  -0.521   6.028   2.578 -0.0539 -1.2194 -0.2243
   88SOPE    HY 8274  -0.675   6.016   2.497  1.2572  0.3151 -0.4972
   88SOPE   O31 8275  -0.666   5.982   2.707 -0.0832 -0.5002 -0.5935
   88SOPE   C31 8276  -0.689   5.854   2.686 -0.5352 -0.1661 -0.5510
   88SOPE   O32 8277  -0.682   5.797   2.578 -0.0638 -0.1123 -0.0040
   88SOPE   C32 8278  -0.714   5.791   2.822  0.7107  0.4227 -0.0547
   88SOPE   H2X 8279  -0.689   5.855   2.909 -0.5754 -1.0086  1.4386
   88SOPE   H2Y 8280  -0.653   5.699   2.830 -0.5607 -0.4621 -0.1529
   88SOPE   C23 8281  -0.511   6.587   2.889 -0.7479  0.6966  0.4625
   88SOPE   H3R 8282  -0.468   6.653   2.810 -0.5822  0.8536  0.6846
   88SOPE   H3S 8283  -0.435   6.600   2.969  2.8582  1.4537 -2.7792
   88SOPE   C24 8284  -0.651   6.618   2.935  0.1307 -0.4079  0.3533
   88SOPE   H4R 8285  -0.702   6.626   2.837  1.3120  0.9200 -0.1780
   88SOPE   H4S 8286  -0.705   6.531   2.979 -1.2206  0.7272  1.0291
   88SOPE   C25 8287  -0.672   6.751   3.015 -0.0018  0.1800 -0.5580
   88SOPE   H5R 8288  -0.612   6.832   2.967 -0.1530 -0.4115 -1.7904
   88SOPE   H5S 8289  -0.776   6.785   2.996 -0.3954 -0.8811 -0.3273
   88SOPE   C26 8290  -0.640   6.746   3.164  0.2135 -0.1677  0.4382
   88SOPE   H6R 8291  -0.711   6.680   3.217 -0.9649  0.5666 -0.1899
   88SOPE   H6S 8292  -0.536   6.709   3.173 -0.4764 -2.8383 -1.1977
   88SOPE   C27 8293  -0.661   6.885   3.225 -1.0654  0.0002 -0.1071
   88SOPE   H7R 8294  -0.575   6.949   3.194 -0.1202  1.1254  4.1421
   88SOPE   H7S 8295  -0.754   6.929   3.182 -0.1173  0.1073 -2.1750
   88SOPE   C28 8296  -0.643   6.894   3.375 -0.2421 -0.1415  0.2070
   88SOPE   H8R 8297  -0.583   6.811   3.419 -1.1101 -0.7705  0.2376
   88SOPE   H8S 8298  -0.602   6.995   3.399 -0.2806 -0.6065  2.4969
   88SOPE   C29 8299  -0.781   6.861   3.431  0.2345  0.2630  0.3725
   88SOPE   H91 8300  -0.821   6.764   3.399  0.8200 -0.7428  2.5132
   88SOPE  C210 8301  -0.846   6.934   3.520  0.1820  0.1208 -0.2047
   88SOPE  H101 8302  -0.945   6.901   3.557  0.3464 -0.7504 -0.5240
   88SOPE  C211 8303  -0.793   7.059   3.586 -0.0329 -0.6039  0.3411
   88SOPE  H11R 8304  -0.873   7.134   3.605  0.8377  0.1941  1.0096
   88SOPE  H11S 8305  -0.713   7.104   3.524 -0.8668 -0.0192 -0.3250
   88SOPE  C212 8306  -0.720   7.033   3.720  0.0090 -0.1950 -0.4430
   88SOPE  H12R 8307  -0.649   7.116   3.738  0.4540 -0.5001 -0.7567
   88SOPE  H12S 8308  -0.646   6.951   3.705  2.9363  2.6742 -3.3566
   88SOPE  C213 8309  -0.820   7.012   3.831  0.0111 -0.4007  0.0334
   88SOPE  H13R 8310  -0.880   6.925   3.797  2.4195 -1.5272 -1.7177
   88SOPE  H13S 8311  -0.887   7.100   3.836 -0.3242 -0.6206 -0.4977
   88SOPE  C214 8312  -0.748   6.992   3.968 -0.0567 -0.0729 -0.4145
   88SOPE  H14R 8313  -0.714   7.096   3.984  1.8557 -0.8761  1.2125
   88SOPE  H14S 8314  -0.652   6.937   3.958 -0.6229 -1.3051  0.6609
   88SOPE  C215 8315  -0.836   6.928   4.076  0.0088  0.0148 -0.5113
   88SOPE  H15R 8316  -0.938   6.972   4.074 -0.3564 -0.7277  0.6183
   88SOPE  H15S 8317  -0.788   6.952   4.174 -1.0971 -0.0721  0.0678
   88SOPE  C216 8318  -0.834   6.776   4.068 -0.4415 -0.2346 -0.7285
   88SOPE  H16R 8319  -0.735   6.730   4.093 -0.7303  0.2085  1.4236
   88SOPE  H16S 8320  -0.868   6.742   3.967 -1.2928 -1.5459 -0.0339
   88SOPE  C217 8321  -0.932   6.708   4.153 -0.0171 -0.2495  0.2537
   88SOPE  H17R 8322  -1.034   6.738   4.121  0.2667  0.9406  0.4226
   88SOPE  H17S 8323  -0.925   6.746   4.257  0.4908  2.1292 -0.5976
   88SOPE  C218 8324  -0.926   6.556   4.168  0.7524  1.0381  0.4941
   88SOPE  H18R 8325  -0.829   6.528   4.215  1.1187  1.0060 -0.2638
   88SOPE  H18S 8326  -0.926   6.502   4.071 -0.1193 -2.8906  2.4881
   88SOPE  H18T 8327  -1.011   6.519   4.229 -0.4290  0.8229 -1.2158
   88SOPE   C33 8328  -0.867   5.761   2.821 -0.0627 -0.3045  0.4931
   88SOPE   H3X 8329  -0.905   5.702   2.735 -1.5448  0.4506  0.5976
   88SOPE   H3Y 8330  -0.917   5.860   2.816 -0.6582 -0.6722 -3.4920
   88SOPE   C34 8331  -0.924   5.695   2.948  0.1401 -0.1208  0.3692
   88SOPE   H4X 8332  -0.904   5.587   2.969 -0.3285 -0.4876 -0.9571
   88SOPE   H4Y 8333  -1.033   5.708   2.934 -0.3635 -1.3691  2.6290
   88SOPE   C35 8334  -0.899   5.767   3.078 -0.1293  0.3411 -0.1262
   88SOPE   H5X 8335  -0.912   5.876   3.065  1.1240  0.6644  1.0777
   88SOPE   H5Y 8336  -0.796   5.744   3.114  0.2786 -1.0481 -2.0118
   88SOPE   C36 8337  -1.000   5.731   3.192 -0.7029 -0.1258 -0.1817
   88SOPE   H6X 8338  -0.978   5.626   3.221 -0.6639 -0.5564 -1.6684
   88SOPE   H6Y 8339  -1.103   5.726   3.151 -1.9906 -2.0588  2.9393
   88SOPE   C37 8340  -1.005   5.831   3.301 -0.2735 -0.2112 -0.5934
   88SOPE   H7X 8341  -0.912   5.890   3.319  0.2553  0.1069 -3.7493
   88SOPE   H7Y 8342  -1.027   5.769   3.391  1.5704  1.3001  1.0027
   88SOPE   C38 8343  -1.114   5.935   3.280  0.2936 -0.8999 -0.5482
   88SOPE   H8X 8344  -1.208   5.876   3.285  1.6536 -3.1435 -0.2012
   88SOPE   H8Y 8345  -1.123   5.993   3.186 -0.8137 -0.7205 -0.3565
   88SOPE   C39 8346  -1.129   6.023   3.403 -0.0823 -0.2639 -0.1918
   88SOPE   H9X 8347  -1.209   6.099   3.389 -0.9603 -1.5746 -2.8325
   88SOPE   H9Y 8348  -1.040   6.085   3.429 -0.3042  0.0775 -0.2349
   88SOPE  C310 8349  -1.167   5.948   3.538  0.2311  0.8868  0.7367
   88SOPE  H10X 8350  -1.086   5.874   3.557 -2.1579 -2.2260 -0.3077
   88SOPE  H10Y 8351  -1.260   5.892   3.511  1.4908 -0.5116 -0.9476
   88SOPE  C311 8352  -1.180   6.041   3.656  0.2121 -0.0931 -0.4435
   88SOPE  H11X 8353  -1.277   6.095   3.667 -0.0206 -0.7190  0.7839
   88SOPE  H11Y 8354  -1.105   6.122   3.663  0.0278 -0.0158  1.1542
   88SOPE  C312 8355  -1.171   5.963   3.790 -0.2736  0.6577 -0.4403
   88SOPE  H12X 8356  -1.072   5.912   3.782 -0.8601 -0.8628  1.3732
   88SOPE  H12Y 8357  -1.257   5.894   3.802 -0.4593  1.0048  0.2700
   88SOPE  C313 8358  -1.171   6.056   3.916  0.0885 -1.7751 -0.2267
   88SOPE  H13X 8359  -1.265   6.116   3.921  0.5019 -1.1405 -0.0027
   88SOPE  H13Y 8360  -1.097   6.137   3.899 -1.4313 -0.4891 -0.9969
   88SOPE  C314 8361  -1.135   5.973   4.048  0.0055 -0.4451  0.0656
   88SOPE  H14X 8362  -1.054   5.903   4.020 -0.7009 -1.1076 -0.3461
   88SOPE  H14Y 8363  -1.223   5.913   4.081 -0.6115 -1.6416 -3.3582
   88SOPE  C315 8364  -1.082   6.066   4.167  0.3521  0.0793  0.1923
   88SOPE  H15X 8365  -1.139   6.161   4.179  1.7147  0.8102  1.2249
   88SOPE  H15Y 8366  -0.975   6.085   4.144  0.1815  0.6303 -0.1906
   88SOPE  C316 8367  -1.095   6.005   4.309 -0.0217  0.3686 -0.5338
   88SOPE  H16X 8368  -1.030   5.915   4.304 -1.7984 -0.9811 -0.2301
   88SOPE  H16Y 8369  -1.203   5.994   4.330  0.3145 -0.3825  0.9131
   88SOPE  C317 8370  -1.033   6.103   4.418  0.6750 -0.0295  0.0233
   88SOPE  H17X 8371  -0.953   6.166   4.373  2.0548 -0.2646  1.9940
   88SOPE  H17Y 8372  -0.980   6.048   4.499 -1.0070 -0.7623  0.6767
   88SOPE  C318 8373  -1.139   6.199   4.489  0.6509  0.1683 -0.5029
   88SOPE  H18X 8374  -1.214   6.128   4.529 -0.2859  1.3575 -0.0658
   88SOPE  H18Y 8375  -1.193   6.263   4.415 -1.7677 -0.5582  0.5204
   88SOPE  H18Z 8376  -1.106   6.268   4.570 -1.3266  1.0092 -0.3492
   89SAPC     N 8377   5.797   1.363   6.821 -0.1215  0.0127 -0.1390
   89SAPC   C12 8378   5.887   1.245   6.858  0.4441 -0.1639 -0.1901
   89SAPC  H12A 8379   5.903   1.178   6.775 -2.7439  0.0712 -1.1180
   89SAPC  H12B 8380   5.844   1.190   6.940  2.5309 -1.3010  0.2134
   89SAPC   C13 8381   5.682   1.304   6.745 -0.2333 -0.6482  0.1589
   89SAPC  H13A 8382   5.613   1.243   6.801  0.1972 -0.7009  0.6448
   89SAPC  H13B 8383   5.624   1.387   6.708  0.6235  0.5696  1.4087
   89SAPC  H13C 8384   5.724   1.241   6.668 -1.8038 -1.9074  0.2950
   89SAPC   C14 8385   5.742   1.430   6.938  0.0874  0.0102 -0.2830
   89SAPC  H14A 8386   5.649   1.484   6.923 -0.1578  0.5230  2.4606
   89SAPC  H14B 8387   5.715   1.356   7.012 -1.8771 -1.0403 -1.9569
   89SAPC  H14C 8388   5.809   1.501   6.984 -1.5181  1.8291 -0.6213
   89SAPC   C15 8389   5.866   1.472   6.736  1.1642 -0.3366 -0.5381
   89SAPC  H15A 8390   5.959   1.512   6.775 -0.3421  0.5561  2.4556
   89SAPC  H15B 8391   5.891   1.434   6.638  3.2805  2.0716 -1.0552
   89SAPC  H15C 8392   5.798   1.551   6.708  2.4359  1.1001  0.2644
   89SAPC   C11 8393   6.026   1.288   6.904  0.2858  0.0679 -0.0186
   89SAPC  H11A 8394   6.065   1.203   6.965 -0.4999 -1.3944 -1.4629
   89SAPC  H11B 8395   6.015   1.375   6.971  0.2820 -0.9754  1.3978
   89SAPC     P 8396   6.264   1.328   6.805  0.3061 -0.0842  0.3263
   89SAPC   O13 8397   6.298   1.327   6.947 -0.2545 -0.0708 -0.6286
   89SAPC   O14 8398   6.332   1.231   6.713  0.2821  0.0907  0.1612
   89SAPC   O12 8399   6.112   1.303   6.796  0.4065 -0.2142  0.4268
   89SAPC   O11 8400   6.295   1.467   6.754 -0.0628 -0.4881  0.2314
   89SAPC    C1 8401   6.218   1.547   6.668  0.1393 -0.4490  0.2244
   89SAPC    HA 8402   6.111   1.520   6.664  0.1626 -0.4304 -0.7002
   89SAPC    HB 8403   6.229   1.654   6.695 -1.8475 -0.1499 -0.0016
   89SAPC    C2 8404   6.270   1.528   6.521  0.2700  0.2553 -0.6140
   89SAPC    HS 8405   6.286   1.418   6.513 -0.2214  0.2512 -1.6468
   89SAPC   O21 8406   6.384   1.602   6.500  0.1849  0.0207 -0.0233
   89SAPC   C21 8407   6.488   1.543   6.447 -0.0983  0.8102  0.1205
   89SAPC   O22 8408   6.492   1.426   6.408  0.0502  0.6407  0.0738
   89SAPC   C22 8409   6.611   1.641   6.417 -0.1729 -0.3203 -0.3224
   89SAPC   H2R 8410   6.649   1.662   6.520 -0.5556  0.2456 -0.2909
   89SAPC   H2S 8411   6.692   1.585   6.367  0.3220  0.7915 -0.7912
   89SAPC    C3 8412   6.169   1.578   6.419 -0.3004  0.9245 -0.1887
   89SAPC    HX 8413   6.169   1.688   6.432  1.2584  0.8258  0.9657
   89SAPC    HY 8414   6.067   1.540   6.439 -0.0457 -1.2881 -2.4912
   89SAPC   O31 8415   6.212   1.553   6.284 -0.2915 -0.5769  0.1179
   89SAPC   C31 8416   6.151   1.454   6.216 -0.6230 -0.5386  0.0902
   89SAPC   O32 8417   6.068   1.381   6.264  0.3549 -0.0083 -0.0955
   89SAPC   C32 8418   6.179   1.468   6.067  0.2655  0.3030 -0.0445
   89SAPC   H2X 8419   6.268   1.532   6.053 -0.5027  1.4648  0.2416
   89SAPC   H2Y 8420   6.093   1.525   6.025 -0.2620  0.4121  1.1380
   89SAPC   C23 8421   6.572   1.773   6.342  0.1103 -0.4232 -0.1445
   89SAPC   H3R 8422   6.659   1.840   6.328 -1.5478  1.5420 -1.5591
   89SAPC   H3S 8423   6.497   1.830   6.401 -0.8253  1.9215 -3.3318
   89SAPC   C24 8424   6.506   1.736   6.206 -0.0502  0.4440 -0.1181
   89SAPC   H4R 8425   6.483   1.840   6.173  1.7139  0.8370 -0.2266
   89SAPC   H4S 8426   6.415   1.673   6.217  0.8317 -0.5227  2.7305
   89SAPC   C25 8427   6.602   1.680   6.105  0.0674  0.0643  0.1805
   89SAPC   H5R 8428   6.694   1.641   6.150  1.4315  2.4236 -0.3597
   89SAPC   C26 8429   6.591   1.678   5.967  0.6466  0.3274 -0.5329
   89SAPC   H6R 8430   6.674   1.638   5.907 -0.7751 -1.2379 -1.5191
   89SAPC   C27 8431   6.476   1.712   5.879  0.2067 -0.1586  0.1769
   89SAPC   H7R 8432   6.409   1.777   5.939  0.3466 -0.0853  0.2558
   89SAPC   H7S 8433   6.422   1.617   5.860  1.0879 -0.9958  1.6491
   89SAPC   C28 8434   6.527   1.788   5.765  0.2927 -0.2452 -0.2293
   89SAPC   H8R 8435   6.574   1.885   5.789 -0.3941  0.5999 -2.0938
   89SAPC   C29 8436   6.517   1.749   5.633 -0.5785 -0.5139 -0.0461
   89SAPC   H9R 8437   6.543   1.821   5.554  3.7815 -0.0674  1.5009
   89SAPC  C210 8438   6.446   1.622   5.585 -0.0346  0.0243 -0.0684
   89SAPC  H10R 8439   6.496   1.532   5.628  0.7132  0.4273 -0.0705
   89SAPC  H10S 8440   6.459   1.607   5.476 -2.4967  0.2523 -0.4522
   89SAPC  C211 8441   6.294   1.610   5.609 -0.3474  0.3777 -0.4059
   89SAPC  H11R 8442   6.261   1.660   5.702  0.2858  0.5965 -0.2953
   89SAPC  C212 8443   6.211   1.534   5.534  0.3616  0.7438  0.2974
   89SAPC  H12R 8444   6.107   1.518   5.567  0.0605 -1.6079 -1.4835
   89SAPC  C213 8445   6.247   1.477   5.402 -0.2098  0.4317 -0.6289
   89SAPC  H13R 8446   6.356   1.461   5.393  0.0067  1.4184  0.0575
   89SAPC  H13S 8447   6.239   1.555   5.323  1.2640 -1.3005 -2.5903
   89SAPC  C214 8448   6.186   1.344   5.371 -0.9596  0.7599  0.3571
   89SAPC  H14R 8449   6.148   1.291   5.459  1.3541 -0.0601  0.9198
   89SAPC  C215 8450   6.132   1.300   5.258 -0.6962 -0.4632  0.4722
   89SAPC  H15R 8451   6.085   1.201   5.260 -2.3063  0.2917  1.2759
   89SAPC  C216 8452   6.134   1.360   5.125  0.0386 -0.2882  0.2481
   89SAPC  H16R 8453   6.229   1.414   5.107 -0.6952  0.5111 -1.5376
   89SAPC  H16S 8454   6.050   1.429   5.105  0.9290  0.4546 -1.1004
   89SAPC  C217 8455   6.101   1.256   5.019  0.1798  0.6121  0.8099
   89SAPC  H17R 8456   6.178   1.176   5.023 -1.1233 -0.6816  0.6428
   89SAPC  H17S 8457   6.112   1.303   4.918 -0.8199 -0.2564  0.2801
   89SAPC  C218 8458   5.965   1.184   5.023 -0.6962  0.4594  0.6235
   89SAPC  H18R 8459   5.882   1.254   5.042  0.1981  2.4717 -2.2202
   89SAPC  H18S 8460   5.955   1.123   5.115 -0.4721  0.2496  0.5114
   89SAPC  C219 8461   5.936   1.099   4.894 -0.9982  0.5897 -0.6025
   89SAPC  H19R 8462   6.033   1.093   4.841 -0.2985 -0.2077  0.7412
   89SAPC  H19S 8463   5.860   1.160   4.839 -1.9611 -2.0917 -2.4787
   89SAPC  C220 8464   5.874   0.959   4.924  0.0127  0.6196 -0.2088
   89SAPC  H20R 8465   5.832   0.927   4.826 -0.1292  0.6645 -0.1630
   89SAPC  H20S 8466   5.793   0.960   5.000  0.8069  1.2529  0.6505
   89SAPC  H20T 8467   5.960   0.899   4.962  0.8161  1.5554 -0.4971
   89SAPC   C33 8468   6.187   1.341   5.987 -0.1890 -0.6205 -0.5778
   89SAPC   H3X 8469   6.164   1.359   5.880  3.8387 -0.6437 -1.6120
   89SAPC   H3Y 8470   6.093   1.293   6.023 -0.3807  0.2265  0.0707
   89SAPC   C34 8471   6.309   1.259   6.010 -0.8219  0.1083  1.1676
   89SAPC   H4X 8472   6.292   1.156   5.971  2.3028  0.1121 -0.4756
   89SAPC   H4Y 8473   6.314   1.232   6.118  0.3867 -1.6773  0.7182
   89SAPC   C35 8474   6.435   1.330   5.952  0.0186  0.2024  0.4180
   89SAPC   H5X 8475   6.437   1.430   6.001 -1.9411  1.8547 -2.5818
   89SAPC   H5Y 8476   6.408   1.355   5.847  1.2397 -1.8590 -0.4394
   89SAPC   C36 8477   6.556   1.244   5.968  0.0414  0.5552 -0.2861
   89SAPC   H6X 8478   6.571   1.225   6.077  0.4263  0.7331 -0.3064
   89SAPC   H6Y 8479   6.639   1.305   5.928  0.8450 -0.8477 -0.8126
   89SAPC   C37 8480   6.563   1.112   5.889 -0.1315 -1.2755 -0.1204
   89SAPC   H7X 8481   6.482   1.050   5.934 -0.3343 -0.7335  0.2743
   89SAPC   H7Y 8482   6.662   1.062   5.900  2.0148  2.7667  1.0342
   89SAPC   C38 8483   6.530   1.133   5.733 -0.8528  0.4439 -0.1089
   89SAPC   H8X 8484   6.437   1.190   5.712 -1.3438  0.3457  1.6097
   89SAPC   H8Y 8485   6.511   1.030   5.696 -1.7418  1.1792 -1.7795
   89SAPC   C39 8486   6.644   1.200   5.647  0.8006 -0.0554 -0.2087
   89SAPC   H9X 8487   6.717   1.118   5.632 -1.3605 -1.7534 -2.4912
   89SAPC   H9Y 8488   6.697   1.277   5.706 -2.6899  0.7558  2.2151
   89SAPC  C310 8489   6.589   1.244   5.507  0.3775  0.0609 -0.4367
   89SAPC  H10X 8490   6.674   1.284   5.448  0.1683 -0.3066 -0.9869
   89SAPC  H10Y 8491   6.521   1.331   5.520 -0.0735 -0.2818 -0.5087
   89SAPC  C311 8492   6.511   1.136   5.430  0.6771  0.0045  0.7289
   89SAPC  H11X 8493   6.406   1.138   5.466 -0.0172  1.0989 -1.2111
   89SAPC  H11Y 8494   6.560   1.039   5.456  0.6475 -1.0715 -2.7341
   89SAPC  C312 8495   6.522   1.152   5.278  0.0945  0.2196 -0.5428
   89SAPC  H12X 8496   6.620   1.120   5.238 -0.5428 -2.9311  0.1358
   89SAPC  H12Y 8497   6.530   1.261   5.260 -1.1764  0.6132  1.0760
   89SAPC  C313 8498   6.419   1.093   5.191  0.4448  0.2699  0.1759
   89SAPC  H13X 8499   6.385   1.157   5.106 -2.5478 -1.5281 -0.1382
   89SAPC  H13Y 8500   6.331   1.071   5.254 -0.6972 -1.1328 -1.7795
   89SAPC  C314 8501   6.459   0.961   5.121  0.2911  0.0818 -0.9325
   89SAPC  H14X 8502   6.457   0.878   5.195 -2.8317  0.1348 -0.8622
   89SAPC  H14Y 8503   6.563   0.965   5.080  0.0092 -0.4800 -1.7221
   89SAPC  C315 8504   6.375   0.934   4.995  0.3953  0.5940  0.0932
   89SAPC  H15X 8505   6.340   1.026   4.943  0.1671 -0.4953 -1.8113
   89SAPC  H15Y 8506   6.286   0.871   5.017  0.7844 -0.6294 -1.5732
   89SAPC  C316 8507   6.443   0.828   4.905 -0.5149 -0.1679  0.6914
   89SAPC  H16X 8508   6.456   0.731   4.957 -1.9325 -0.6944  0.1263
   89SAPC  H16Y 8509   6.550   0.850   4.888  0.3569 -2.4246  2.8031
   89SAPC  C317 8510   6.368   0.800   4.775 -0.1959 -0.3214  0.7993
   89SAPC  H17X 8511   6.353   0.902   4.733 -1.9345  0.2111  2.5728
   89SAPC  H17Y 8512   6.270   0.762   4.811 -0.9476 -0.3306 -1.1008
   89SAPC  C318 8513   6.432   0.707   4.664  0.6711  0.1516  0.0440
   89SAPC  H18X 8514   6.540   0.729   4.650  0.6613 -0.9028 -2.1988
   89SAPC  H18Y 8515   6.388   0.739   4.567 -0.8676 -1.6282  0.0945
   89SAPC  H18Z 8516   6.418   0.598   4.681  0.5607 -0.0243 -1.0757
   90SAPC     N 8517   3.976   3.638   7.142  0.2257 -0.2391 -0.7422
   90SAPC   C12 8518   3.875   3.546   7.213  0.4663 -0.3677 -0.7619
   90SAPC  H12A 8519   3.839   3.601   7.299  0.8383  0.6992 -1.2667
   90SAPC  H12B 8520   3.915   3.453   7.250 -1.0399 -0.0976  1.7533
   90SAPC   C13 8521   3.909   3.770   7.090 -0.1731 -0.1184 -0.4387
   90SAPC  H13A 8522   3.824   3.739   7.031  0.9851  0.2816 -2.4025
   90SAPC  H13B 8523   3.874   3.825   7.176  1.2679 -0.2050  0.2257
   90SAPC  H13C 8524   3.970   3.832   7.027  2.1084  1.3075  2.8801
   90SAPC   C14 8525   4.076   3.670   7.247  0.1716  0.4532  0.0347
   90SAPC  H14A 8526   4.154   3.734   7.209  0.9844 -0.1816  0.5936
   90SAPC  H14B 8527   4.031   3.712   7.336 -0.9189  2.5172 -1.4080
   90SAPC  H14C 8528   4.131   3.580   7.271 -2.2410 -1.7531 -2.0396
   90SAPC   C15 8529   4.036   3.566   7.020 -1.2816 -0.7102 -0.1308
   90SAPC  H15A 8530   4.091   3.476   7.043 -1.5644 -0.6506  0.8116
   90SAPC  H15B 8531   3.961   3.541   6.947  0.3515  1.7027 -2.9034
   90SAPC  H15C 8532   4.093   3.648   6.978 -2.8412 -0.1100 -1.1374
   90SAPC   C11 8533   3.750   3.520   7.124  0.6306  0.1082 -0.8074
   90SAPC  H11A 8534   3.688   3.612   7.118  0.6422  0.1297 -0.6006
   90SAPC  H11B 8535   3.697   3.444   7.185  0.7340  0.6575 -0.0099
   90SAPC     P 8536   3.681   3.528   6.871 -0.5874 -0.2411 -0.4146
   90SAPC   O13 8537   3.695   3.447   6.749 -0.2528 -0.5102 -0.2823
   90SAPC   O14 8538   3.551   3.543   6.935 -0.4093 -0.4289  0.6050
   90SAPC   O12 8539   3.778   3.479   6.984 -0.7434 -0.4535 -0.1659
   90SAPC   O11 8540   3.737   3.672   6.834  0.2246  0.5359  0.0682
   90SAPC    C1 8541   3.663   3.797   6.829  0.7107 -0.0117  0.1925
   90SAPC    HA 8542   3.591   3.808   6.913  0.0748 -0.8352 -0.2334
   90SAPC    HB 8543   3.728   3.888   6.830  1.0655 -0.1513 -2.6272
   90SAPC    C2 8544   3.554   3.795   6.715  0.8692  0.2419  0.4997
   90SAPC    HS 8545   3.473   3.725   6.743  1.4513 -0.0845  1.3997
   90SAPC   O21 8546   3.612   3.757   6.582 -0.0760 -0.0971  0.3352
   90SAPC   C21 8547   3.540   3.672   6.513 -0.0193  0.2477  0.8365
   90SAPC   O22 8548   3.433   3.631   6.534  0.6511  0.0823 -0.7305
   90SAPC   C22 8549   3.630   3.608   6.398 -0.0414 -0.1635  0.2565
   90SAPC   H2R 8550   3.725   3.666   6.391  0.5703 -0.7626  2.6186
   90SAPC   H2S 8551   3.654   3.503   6.428  1.6228 -0.4653 -1.7982
   90SAPC    C3 8552   3.488   3.931   6.699 -0.0042 -0.4008  0.1462
   90SAPC    HX 8553   3.569   4.007   6.700 -0.9907  0.6977  0.4809
   90SAPC    HY 8554   3.418   3.943   6.785 -0.7819  2.0389 -0.7289
   90SAPC   O31 8555   3.419   3.954   6.569 -0.0827 -0.3393 -0.2379
   90SAPC   C31 8556   3.287   3.936   6.571 -0.0824  0.5472 -0.1128
   90SAPC   O32 8557   3.219   3.907   6.667 -0.7202  0.0452 -0.0336
   90SAPC   C32 8558   3.211   3.961   6.434 -0.9336 -0.4933 -0.1263
   90SAPC   H2X 8559   3.235   4.065   6.402 -0.2813 -0.4019  0.6141
   90SAPC   H2Y 8560   3.102   3.955   6.452 -0.9197 -3.3029 -0.5581
   90SAPC   C23 8561   3.572   3.593   6.256  0.0833 -0.7206  0.0917
   90SAPC   H3R 8562   3.469   3.556   6.272  0.7197 -2.2432  0.9286
   90SAPC   H3S 8563   3.638   3.523   6.201  2.2447  1.6426 -0.5277
   90SAPC   C24 8564   3.561   3.722   6.183  0.5291 -0.3586 -0.3103
   90SAPC   H4R 8565   3.530   3.803   6.252  0.6193 -2.0103  1.7956
   90SAPC   H4S 8566   3.491   3.721   6.097  0.1338  1.0938 -0.0379
   90SAPC   C25 8567   3.696   3.762   6.132  0.4472  0.4210 -0.0988
   90SAPC   H5R 8568   3.765   3.814   6.199  2.1284 -1.0884 -0.5622
   90SAPC   C26 8569   3.752   3.736   6.012 -0.2126 -0.1931  0.1497
   90SAPC   H6R 8570   3.850   3.775   5.981 -0.1263 -0.3634  0.2121
   90SAPC   C27 8571   3.688   3.673   5.889 -0.3889 -0.0508 -1.0813
   90SAPC   H7R 8572   3.631   3.588   5.931 -2.4177  0.7750 -2.0543
   90SAPC   H7S 8573   3.765   3.625   5.824 -0.7347 -1.4477 -0.4968
   90SAPC   C28 8574   3.605   3.767   5.810 -0.5077 -0.0418 -0.6147
   90SAPC   H8R 8575   3.528   3.821   5.867 -0.3507 -1.3129  0.8858
   90SAPC   C29 8576   3.619   3.808   5.685 -0.2134  0.3255  0.1857
   90SAPC   H9R 8577   3.539   3.867   5.637 -0.8679 -1.0391 -0.4794
   90SAPC  C210 8578   3.724   3.761   5.587 -1.1303  1.1454  0.5228
   90SAPC  H10R 8579   3.815   3.729   5.643 -0.3602 -0.3869 -1.4865
   90SAPC  H10S 8580   3.764   3.843   5.525 -1.0668  1.4329  0.9393
   90SAPC  C211 8581   3.688   3.639   5.497 -0.6604 -0.4918 -0.0207
   90SAPC  H11R 8582   3.719   3.541   5.536 -0.5430  0.0828  1.3978
   90SAPC  C212 8583   3.644   3.648   5.376  0.1042 -0.2331 -0.1679
   90SAPC  H12R 8584   3.617   3.551   5.332  1.7042 -1.2963  1.0682
   90SAPC  C213 8585   3.615   3.770   5.286  0.1459  0.0103  0.5494
   90SAPC  H13R 8586   3.634   3.868   5.335  0.1930  0.6475 -0.7085
   90SAPC  H13S 8587   3.512   3.775   5.244  0.3925  4.2821  0.0842
   90SAPC  C214 8588   3.704   3.757   5.161 -0.5023 -0.1485 -0.2567
   90SAPC  H14R 8589   3.766   3.667   5.153  1.7761  1.1616  1.5070
   90SAPC  C215 8590   3.686   3.830   5.052 -0.6630  0.5799  0.2400
   90SAPC  H15R 8591   3.736   3.796   4.960  0.4419 -1.9989  1.6861
   90SAPC  C216 8592   3.599   3.954   5.022  0.3577 -0.5006  0.3250
   90SAPC  H16R 8593   3.643   4.047   4.981 -0.5199 -0.7879 -1.3569
   90SAPC  H16S 8594   3.551   3.982   5.118 -0.6130 -0.8411 -0.0434
   90SAPC  C217 8595   3.489   3.922   4.911  0.2351  0.0777 -0.9227
   90SAPC  H17R 8596   3.419   4.007   4.894 -0.6541 -0.6675 -1.0654
   90SAPC  H17S 8597   3.418   3.839   4.930 -0.4257  1.4107  3.9665
   90SAPC  C218 8598   3.543   3.907   4.771 -0.5199  0.3618 -0.0300
   90SAPC  H18R 8599   3.598   3.811   4.759 -0.6885 -0.1635  2.7787
   90SAPC  H18S 8600   3.616   3.991   4.762 -1.3243  1.0488 -0.3556
   90SAPC  C219 8601   3.440   3.909   4.660 -0.8265 -0.1415  0.3626
   90SAPC  H19R 8602   3.392   4.009   4.660 -0.1647  0.2345 -2.0074
   90SAPC  H19S 8603   3.364   3.835   4.694 -2.5363  0.4144 -1.9913
   90SAPC  C220 8604   3.502   3.876   4.525 -0.5031 -0.5685  0.1014
   90SAPC  H20R 8605   3.421   3.871   4.448 -1.3591  2.2645  0.7086
   90SAPC  H20S 8606   3.550   3.776   4.533 -0.8356 -0.6388  1.3901
   90SAPC  H20T 8607   3.587   3.943   4.499 -0.4445 -1.2431 -1.6021
   90SAPC   C33 8608   3.257   3.868   6.317  0.3636  0.1415 -0.9289
   90SAPC   H3X 8609   3.251   3.762   6.348  0.3246  0.0359 -1.2993
   90SAPC   H3Y 8610   3.364   3.887   6.294  0.7007  0.0949  0.5152
   90SAPC   C34 8611   3.175   3.897   6.193  0.8241 -0.3753  0.2345
   90SAPC   H4X 8612   3.189   4.005   6.169 -1.1795 -0.0704  0.3198
   90SAPC   H4Y 8613   3.070   3.872   6.219  0.5793 -3.0532 -2.8086
   90SAPC   C35 8614   3.216   3.833   6.064 -0.8029 -0.5854  0.2980
   90SAPC   H5X 8615   3.230   3.724   6.083 -2.4806 -1.4776 -2.8556
   90SAPC   H5Y 8616   3.311   3.878   6.026 -0.0269 -2.3405  0.0595
   90SAPC   C36 8617   3.115   3.861   5.958  0.0194 -0.2725 -0.5322
   90SAPC   H6X 8618   3.063   3.958   5.971 -0.4535 -0.5645 -0.2209
   90SAPC   H6Y 8619   3.026   3.795   5.965 -1.7474  1.9665 -0.8746
   90SAPC   C37 8620   3.172   3.859   5.814 -0.6014 -0.4320 -0.4396
   90SAPC   H7X 8621   3.210   3.759   5.784  2.2024  1.3656 -3.5697
   90SAPC   H7Y 8622   3.260   3.927   5.810 -1.3150  0.8131  2.3420
   90SAPC   C38 8623   3.073   3.920   5.718 -0.2600 -0.2021 -0.1319
   90SAPC   H8X 8624   3.037   4.017   5.758 -1.1855 -0.6156  0.0596
   90SAPC   H8Y 8625   2.984   3.854   5.715 -0.6000  0.2981 -1.5661
   90SAPC   C39 8626   3.118   3.937   5.573  0.2974 -0.2589  0.7891
   90SAPC   H9X 8627   3.202   4.011   5.578 -0.2936  0.7440 -2.0670
   90SAPC   H9Y 8628   3.022   3.977   5.533 -0.2276 -0.0869  2.1813
   90SAPC  C310 8629   3.170   3.823   5.479 -0.2001  0.2376  0.3564
   90SAPC  H10X 8630   3.110   3.730   5.471  0.5538 -0.0905 -2.9565
   90SAPC  H10Y 8631   3.268   3.800   5.527  0.4505  0.9056 -0.6042
   90SAPC  C311 8632   3.204   3.873   5.339 -0.5749 -0.2744  0.1819
   90SAPC  H11X 8633   3.293   3.821   5.299 -1.2407 -0.3007 -1.3214
   90SAPC  H11Y 8634   3.225   3.982   5.339  0.1681 -0.4073 -0.8485
   90SAPC  C312 8635   3.083   3.847   5.233 -0.2738  0.5653  0.0166
   90SAPC  H12X 8636   2.991   3.898   5.269 -1.6906 -1.8362  0.0010
   90SAPC  H12Y 8637   3.065   3.739   5.219 -1.7620  0.9979 -1.7749
   90SAPC  C313 8638   3.123   3.911   5.103 -0.4825  0.3650  0.0666
   90SAPC  H13X 8639   3.231   3.890   5.086  0.0260  1.8672  1.3016
   90SAPC  H13Y 8640   3.121   4.022   5.099  1.2932  0.4717  1.2491
   90SAPC  C314 8641   3.050   3.860   4.982 -0.1668  0.6466  0.4173
   90SAPC  H14X 8642   2.943   3.849   5.011 -0.0287  1.1194  1.1056
   90SAPC  H14Y 8643   3.078   3.753   4.972  0.2690  0.8325 -0.4233
   90SAPC  C315 8644   3.071   3.941   4.853  0.1487  0.5237 -0.8096
   90SAPC  H15X 8645   3.179   3.938   4.829 -0.1450  2.7491 -2.7807
   90SAPC  H15Y 8646   3.048   4.048   4.874  1.1461  0.3885  1.1231
   90SAPC  C316 8647   2.975   3.910   4.731  0.5075  0.1337 -0.5386
   90SAPC  H16X 8648   2.871   3.938   4.760  1.9139  2.8108  2.6062
   90SAPC  H16Y 8649   2.969   3.803   4.705  0.7999 -0.4282  1.5083
   90SAPC  C317 8650   3.010   4.005   4.617 -0.9107  0.4177  0.2641
   90SAPC  H17X 8651   3.075   4.089   4.649 -2.0912  1.5113 -0.1516
   90SAPC  H17Y 8652   2.918   4.054   4.578 -0.4977  1.4802  0.6029
   90SAPC  C318 8653   3.083   3.939   4.502 -0.5226 -0.1052  0.7127
   90SAPC  H18X 8654   3.127   4.003   4.422 -2.5728 -0.0775 -0.4614
   90SAPC  H18Y 8655   3.010   3.870   4.456 -1.8591  1.6073  0.1480
   90SAPC  H18Z 8656   3.159   3.870   4.545 -1.0298  0.2238  2.2076
   91SAPC     N 8657   0.211   4.612   7.242  0.4848 -0.3296 -0.1335
   91SAPC   C12 8658   0.142   4.715   7.149  0.3412  0.1833  0.0908
   91SAPC  H12A 8659   0.198   4.715   7.056 -0.9941 -0.9843 -0.7397
   91SAPC  H12B 8660   0.150   4.810   7.200  3.3818 -0.4686  1.0677
   91SAPC   C13 8661   0.347   4.662   7.282  0.6449 -0.1509  0.5476
   91SAPC  H13A 8662   0.348   4.765   7.314 -0.5718  0.3808 -0.9816
   91SAPC  H13B 8663   0.394   4.601   7.357  1.1135  0.0752  0.4376
   91SAPC  H13C 8664   0.410   4.675   7.196  2.0099  2.9012  1.8778
   91SAPC   C14 8665   0.124   4.594   7.366  0.4645  0.0499  0.0402
   91SAPC  H14A 8666   0.041   4.535   7.331 -0.7937  1.4360  0.6034
   91SAPC  H14B 8667   0.172   4.533   7.441 -2.4154 -1.0352  1.1169
   91SAPC  H14C 8668   0.090   4.687   7.409 -0.9665 -0.3212 -0.2416
   91SAPC   C15 8669   0.242   4.480   7.180 -0.0644 -0.6256  0.3359
   91SAPC  H15A 8670   0.292   4.503   7.087 -3.1149  0.0595 -1.2757
   91SAPC  H15B 8671   0.290   4.412   7.248  0.0492 -1.0047 -0.1147
   91SAPC  H15C 8672   0.146   4.437   7.155  0.0307 -1.0282  0.6530
   91SAPC   C11 8673  -0.002   4.689   7.101  0.0967  0.3580 -0.1561
   91SAPC  H11A 8674  -0.031   4.778   7.040 -1.0278 -1.2499 -2.1007
   91SAPC  H11B 8675  -0.059   4.679   7.196  0.8918 -4.0480  0.0544
   91SAPC     P 8676  -0.101   4.453   7.016  0.0850  0.1026  0.1500
   91SAPC   O13 8677  -0.050   4.374   7.132  0.3518  0.0234 -0.4937
   91SAPC   O14 8678  -0.237   4.509   7.012  0.2382  0.1154  0.1076
   91SAPC   O12 8679  -0.010   4.579   7.005  0.2013 -0.3088 -0.4282
   91SAPC   O11 8680  -0.068   4.380   6.886 -0.2238 -0.2484 -0.2820
   91SAPC    C1 8681   0.062   4.386   6.824  0.1614  0.1963 -0.1252
   91SAPC    HA 8682   0.111   4.485   6.827  0.0148  0.3639 -1.9850
   91SAPC    HB 8683   0.130   4.309   6.868  0.4365  0.3227 -0.3273
   91SAPC    C2 8684   0.068   4.354   6.665  0.2671 -0.2177 -0.8703
   91SAPC    HS 8685   0.174   4.329   6.641  1.1851  2.5885 -0.1977
   91SAPC   O21 8686   0.021   4.471   6.591 -0.0280  0.8837 -0.0894
   91SAPC   C21 8687   0.112   4.571   6.576 -0.4540 -0.2543 -0.1857
   91SAPC   O22 8688   0.232   4.564   6.603 -0.2456 -0.3278  0.0300
   91SAPC   C22 8689   0.049   4.689   6.499 -0.6283 -0.0515 -0.3748
   91SAPC   H2R 8690   0.091   4.772   6.559 -1.6157  0.2195 -0.0405
   91SAPC   H2S 8691   0.094   4.681   6.398  0.4873  0.6288  0.0518
   91SAPC    C3 8692  -0.012   4.225   6.636  0.1190  0.4914  0.2504
   91SAPC    HX 8693  -0.108   4.225   6.691  0.2074  1.3051  0.4045
   91SAPC    HY 8694   0.053   4.142   6.672  1.1392  1.3609  0.4327
   91SAPC   O31 8695  -0.034   4.223   6.492  0.3497 -0.5496  0.1321
   91SAPC   C31 8696  -0.142   4.166   6.447  0.4768  0.8745 -0.4575
   91SAPC   O32 8697  -0.231   4.123   6.514  0.6401 -0.1239  0.1425
   91SAPC   C32 8698  -0.148   4.145   6.296 -0.4003 -0.0771  0.1030
   91SAPC   H2X 8699  -0.146   4.035   6.281 -3.4823 -0.3829  1.1930
   91SAPC   H2Y 8700  -0.055   4.182   6.248 -0.2669  0.5993  0.8635
   91SAPC   C23 8701  -0.108   4.698   6.505  0.7379  0.0233 -0.0987
   91SAPC   H3R 8702  -0.139   4.682   6.611  1.1908 -1.2890 -0.1420
   91SAPC   H3S 8703  -0.154   4.630   6.431  0.3645 -0.1794  0.3175
   91SAPC   C24 8704  -0.174   4.830   6.463 -0.0090 -0.2577 -0.3858
   91SAPC   H4R 8705  -0.142   4.909   6.534 -2.2274  0.8233 -0.5238
   91SAPC   H4S 8706  -0.284   4.825   6.451  0.1816 -0.0258 -2.7185
   91SAPC   C25 8707  -0.107   4.869   6.331 -0.0980  0.4796 -0.1130
   91SAPC   H5R 8708  -0.005   4.907   6.351 -0.1130 -0.3436  1.6566
   91SAPC   C26 8709  -0.165   4.880   6.209  0.0995  0.6329 -0.3028
   91SAPC   H6R 8710  -0.108   4.905   6.118 -0.0637 -0.4086 -0.7115
   91SAPC   C27 8711  -0.304   4.855   6.173 -0.5391 -0.0893  0.4834
   91SAPC   H7R 8712  -0.329   4.908   6.078 -1.0890 -0.5799  0.3440
   91SAPC   H7S 8713  -0.372   4.888   6.254  0.1485  1.1193  0.5966
   91SAPC   C28 8714  -0.318   4.702   6.155  0.5738 -0.2774  0.2198
   91SAPC   H8R 8715  -0.285   4.644   6.242  1.4893  1.0440  0.7843
   91SAPC   C29 8716  -0.360   4.638   6.041 -0.8412  0.3964  0.1828
   91SAPC   H9R 8717  -0.352   4.528   6.033 -1.7825  0.4710 -2.7526
   91SAPC  C210 8718  -0.394   4.707   5.905  0.5389  0.2952 -0.3617
   91SAPC  H10R 8719  -0.471   4.787   5.910 -0.1595 -0.3989  0.5097
   91SAPC  H10S 8720  -0.447   4.633   5.841 -0.2918  0.3662  0.2180
   91SAPC  C211 8721  -0.279   4.762   5.821  0.1383  0.7884  0.3669
   91SAPC  H11R 8722  -0.195   4.796   5.882 -0.3463 -1.1275  2.2139
   91SAPC  C212 8723  -0.263   4.766   5.687 -0.5712 -0.0007 -0.1804
   91SAPC  H12R 8724  -0.174   4.809   5.639 -0.0340 -1.3861 -0.4654
   91SAPC  C213 8725  -0.374   4.720   5.591  0.0779 -0.3702 -0.3763
   91SAPC  H13R 8726  -0.470   4.725   5.648  0.5378 -1.3519  0.5237
   91SAPC  H13S 8727  -0.351   4.614   5.567  0.5421 -0.2452 -0.4816
   91SAPC  C214 8728  -0.390   4.797   5.463  0.8397 -0.1135 -0.0501
   91SAPC  H14R 8729  -0.363   4.903   5.474  0.4015  0.0540 -0.5466
   91SAPC  C215 8730  -0.402   4.745   5.337  0.0971  0.5294  0.4088
   91SAPC  H15R 8731  -0.411   4.813   5.251  0.6134 -0.7140 -0.6581
   91SAPC  C216 8732  -0.418   4.601   5.293  0.0378 -1.0787 -0.1736
   91SAPC  H16R 8733  -0.471   4.542   5.371 -2.1012  0.9876  0.0548
   91SAPC  H16S 8734  -0.321   4.556   5.266  0.1469 -0.6480 -0.5031
   91SAPC  C217 8735  -0.504   4.588   5.169  0.0864  0.0207  0.7500
   91SAPC  H17R 8736  -0.447   4.620   5.079 -0.3378  0.8172  0.7586
   91SAPC  H17S 8737  -0.577   4.672   5.174  2.3606  2.0842  0.9043
   91SAPC  C218 8738  -0.568   4.451   5.141 -0.1683 -0.6471  0.3458
   91SAPC  H18R 8739  -0.640   4.435   5.224 -0.4278  2.8630  0.9382
   91SAPC  H18S 8740  -0.498   4.365   5.144 -1.9140 -2.1033  1.8013
   91SAPC  C219 8741  -0.650   4.443   5.010 -0.2355  0.6431  0.1837
   91SAPC  H19R 8742  -0.669   4.338   4.982 -0.3826  0.2980  1.5042
   91SAPC  H19S 8743  -0.593   4.487   4.925 -0.9422 -1.1378 -1.2748
   91SAPC  C220 8744  -0.784   4.505   5.021  0.6808  0.3710 -0.2574
   91SAPC  H20R 8745  -0.787   4.611   5.055 -1.3776  1.2710 -2.8996
   91SAPC  H20S 8746  -0.845   4.445   5.092  2.5044 -0.3260  0.7909
   91SAPC  H20T 8747  -0.841   4.494   4.926 -1.9361 -0.1125  1.2905
   91SAPC   C33 8748  -0.270   4.217   6.224 -0.3791 -0.1202 -0.4968
   91SAPC   H3X 8749  -0.265   4.328   6.231 -1.7464 -0.1264  1.6749
   91SAPC   H3Y 8750  -0.356   4.186   6.287 -0.5659  0.6277 -0.3675
   91SAPC   C34 8751  -0.289   4.173   6.076  0.7080  0.2509  0.0726
   91SAPC   H4X 8752  -0.391   4.206   6.046  0.6772  0.0076 -0.0902
   91SAPC   H4Y 8753  -0.284   4.063   6.060  0.5138  0.4069 -1.1343
   91SAPC   C35 8754  -0.189   4.233   5.979 -0.6239  0.3827 -0.2019
   91SAPC   H5X 8755  -0.101   4.167   5.994 -0.8420 -0.1795 -1.3240
   91SAPC   H5Y 8756  -0.161   4.339   5.999  0.9458 -0.2106  1.0227
   91SAPC   C36 8757  -0.236   4.223   5.833  0.5487  0.7914  0.4633
   91SAPC   H6X 8758  -0.340   4.259   5.818  0.8113  0.7985 -1.6907
   91SAPC   H6Y 8759  -0.229   4.119   5.795  3.8222  2.0937 -3.2451
   91SAPC   C37 8760  -0.135   4.294   5.740  1.0186 -0.6880  0.8423
   91SAPC   H7X 8761  -0.044   4.232   5.721  1.5285  0.3165 -0.1389
   91SAPC   H7Y 8762  -0.097   4.381   5.797  0.1722 -0.6312  1.3441
   91SAPC   C38 8763  -0.190   4.322   5.602 -0.9341 -0.3126  0.6465
   91SAPC   H8X 8764  -0.102   4.355   5.543 -0.8495  2.5308  2.2170
   91SAPC   H8Y 8765  -0.270   4.399   5.608  1.4451  2.1989  2.9668
   91SAPC   C39 8766  -0.243   4.196   5.530  0.1448 -0.0124 -0.1301
   91SAPC   H9X 8767  -0.337   4.158   5.574  1.1353 -0.3309  1.7852
   91SAPC   H9Y 8768  -0.174   4.112   5.554  0.8294  1.1555  2.2812
   91SAPC  C310 8769  -0.248   4.215   5.378  0.3060 -0.3096  0.3764
   91SAPC  H10X 8770  -0.303   4.308   5.352  0.5223 -0.8441 -2.2003
   91SAPC  H10Y 8771  -0.303   4.134   5.327 -0.8303  0.3649  0.4988
   91SAPC  C311 8772  -0.103   4.212   5.321  0.4619 -0.6060 -0.4850
   91SAPC  H11X 8773  -0.045   4.132   5.372  1.5049 -2.2256 -3.8974
   91SAPC  H11Y 8774  -0.044   4.305   5.335  0.1229  0.1770 -3.5767
   91SAPC  C312 8775  -0.097   4.172   5.169 -0.5484  0.0684  0.0411
   91SAPC  H12X 8776  -0.153   4.236   5.098 -0.2799  0.5649  0.2722
   91SAPC  H12Y 8777  -0.139   4.069   5.164  1.2235 -0.6679 -0.5594
   91SAPC  C313 8778   0.046   4.151   5.119 -0.0574  0.0145 -0.2118
   91SAPC  H13X 8779   0.054   4.091   5.026 -0.3340 -0.5285  0.1101
   91SAPC  H13Y 8780   0.100   4.086   5.190 -0.5069 -0.0339  0.0847
   91SAPC  C314 8781   0.113   4.285   5.088 -0.8588 -0.4842 -0.1254
   91SAPC  H14X 8782   0.154   4.323   5.183  0.1526 -0.7782 -0.4291
   91SAPC  H14Y 8783   0.054   4.367   5.043 -0.1968  0.4385  0.6700
   91SAPC  C315 8784   0.251   4.273   5.014  0.3816  0.5961 -0.2149
   91SAPC  H15X 8785   0.315   4.196   5.063 -0.6028  0.0561  0.2381
   91SAPC  H15Y 8786   0.310   4.366   5.030  0.0255  0.4654  2.2512
   91SAPC  C316 8787   0.247   4.252   4.859  0.4706  0.1584 -0.5975
   91SAPC  H16X 8788   0.206   4.150   4.844 -1.5998  0.6496  1.2626
   91SAPC  H16Y 8789   0.353   4.241   4.826  0.6035 -0.3581 -0.0152
   91SAPC  C317 8790   0.175   4.359   4.782  0.1468 -0.5597 -0.4101
   91SAPC  H17X 8791   0.217   4.448   4.834 -0.7809 -0.7154  0.6211
   91SAPC  H17Y 8792   0.068   4.358   4.808  0.1665 -1.9543 -0.3174
   91SAPC  C318 8793   0.215   4.366   4.632 -0.3456 -0.0115  1.1158
   91SAPC  H18X 8794   0.325   4.351   4.630 -0.5889 -1.9626  0.1716
   91SAPC  H18Y 8795   0.195   4.469   4.595 -0.3499 -0.2383  0.4715
   91SAPC  H18Z 8796   0.170   4.290   4.565  0.1415  0.9311 -0.3329
   92SAPC     N 8797   5.950   3.647   7.422  0.5831  0.0002  0.4578
   92SAPC   C12 8798   6.015   3.585   7.300  0.3485 -0.2652  0.4201
   92SAPC  H12A 8799   6.096   3.650   7.271  0.3403 -0.0893  0.7871
   92SAPC  H12B 8800   5.949   3.605   7.217 -0.4043  3.2066  1.6678
   92SAPC   C13 8801   5.894   3.779   7.382 -0.0147  0.2745  0.5545
   92SAPC  H13A 8802   5.814   3.770   7.310 -0.0266 -1.8079  0.7849
   92SAPC  H13B 8803   5.854   3.832   7.468 -1.1745 -0.4969  0.5193
   92SAPC  H13C 8804   5.974   3.834   7.335  0.3718 -1.2587 -0.6359
   92SAPC   C14 8805   5.833   3.565   7.472 -0.4341  0.0638  0.2578
   92SAPC  H14A 8806   5.795   3.615   7.560 -1.6528 -0.9005  0.3101
   92SAPC  H14B 8807   5.751   3.555   7.403  0.1740  0.2705 -0.4997
   92SAPC  H14C 8808   5.860   3.471   7.518 -0.6741 -0.1422 -0.0171
   92SAPC   C15 8809   6.048   3.657   7.525 -0.2216 -0.0410  0.1616
   92SAPC  H15A 8810   6.075   3.554   7.542  0.1048  0.4232  2.8614
   92SAPC  H15B 8811   6.131   3.726   7.524  0.0488 -0.2271  2.9862
   92SAPC  H15C 8812   5.993   3.680   7.615 -0.0833  0.1004  0.2101
   92SAPC   C11 8813   6.054   3.437   7.304 -0.8301 -0.4588  0.4294
   92SAPC  H11A 8814   6.069   3.419   7.196 -4.0703 -0.8730 -0.0497
   92SAPC  H11B 8815   5.969   3.372   7.335  0.1907 -0.9630  2.3713
   92SAPC     P 8816   6.304   3.326   7.339 -0.0140  0.2992 -0.1931
   92SAPC   O13 8817   6.418   3.414   7.343  0.5287  0.1102  0.3290
   92SAPC   O14 8818   6.321   3.209   7.423  0.1578 -0.3447  0.0890
   92SAPC   O12 8819   6.172   3.409   7.382  0.7275  0.0138  0.1138
   92SAPC   O11 8820   6.289   3.274   7.187  0.1759  0.8365 -0.0115
   92SAPC    C1 8821   6.198   3.166   7.159 -1.1027 -0.2261 -0.3656
   92SAPC    HA 8822   6.226   3.074   7.213  0.0340  1.1181  1.4279
   92SAPC    HB 8823   6.091   3.185   7.183 -0.8374 -1.6362  2.3384
   92SAPC    C2 8824   6.208   3.126   7.003  0.3122 -0.6993  0.4213
   92SAPC    HS 8825   6.144   3.036   6.990  1.6859 -1.8601  1.3928
   92SAPC   O21 8826   6.346   3.099   6.967  0.5296  0.0861 -0.0991
   92SAPC   C21 8827   6.409   2.992   7.013 -0.2171  0.8094  0.6876
   92SAPC   O22 8828   6.356   2.906   7.082  0.1323  0.0350 -0.2023
   92SAPC   C22 8829   6.543   2.966   6.944 -0.2265  0.2339 -0.0091
   92SAPC   H2R 8830   6.556   3.032   6.855  0.1695  0.5613  0.2898
   92SAPC   H2S 8831   6.619   2.995   7.019  1.1129  1.1045 -1.6390
   92SAPC    C3 8832   6.142   3.237   6.916 -0.2820  0.6950  0.1468
   92SAPC    HX 8833   6.203   3.328   6.928  0.7642  0.3623 -2.1776
   92SAPC    HY 8834   6.037   3.264   6.941 -0.1644 -0.4628  2.1363
   92SAPC   O31 8835   6.148   3.195   6.779  0.1057  0.0603 -0.0309
   92SAPC   C31 8836   6.118   3.294   6.687  0.0087  0.1195 -1.1427
   92SAPC   O32 8837   6.102   3.408   6.715  0.2086  0.2010  0.1556
   92SAPC   C32 8838   6.096   3.210   6.558  0.0660 -0.1385  0.7473
   92SAPC   H2X 8839   6.001   3.153   6.567 -0.4373  0.7699  1.2791
   92SAPC   H2Y 8840   6.182   3.140   6.544  1.5944  1.6917  0.6168
   92SAPC   C23 8841   6.558   2.820   6.896  0.0298 -0.3061 -0.7446
   92SAPC   H3R 8842   6.507   2.810   6.798 -0.3746 -0.4805 -0.5167
   92SAPC   H3S 8843   6.507   2.746   6.961  0.9727  0.3225  0.7883
   92SAPC   C24 8844   6.704   2.781   6.885 -0.6036  0.0323 -0.1621
   92SAPC   H4R 8845   6.760   2.783   6.981  0.8571 -0.9766 -0.9712
   92SAPC   H4S 8846   6.741   2.857   6.813  0.8646  0.5113  1.0293
   92SAPC   C25 8847   6.701   2.637   6.835 -0.8380 -0.4448 -0.8043
   92SAPC   H5R 8848   6.664   2.569   6.912  0.6406 -1.8874 -1.3061
   92SAPC   C26 8849   6.756   2.591   6.721 -0.0419 -0.0237  0.4453
   92SAPC   H6R 8850   6.745   2.487   6.686 -0.3841  0.3178 -0.4810
   92SAPC   C27 8851   6.810   2.678   6.608 -0.1644  0.2014 -0.4170
   92SAPC   H7R 8852   6.744   2.766   6.591  0.1240  0.1977 -1.6588
   92SAPC   H7S 8853   6.807   2.617   6.515  0.0980  1.1789 -1.0787
   92SAPC   C28 8854   6.953   2.718   6.637  1.1770 -0.5111 -0.4472
   92SAPC   H8R 8855   6.988   2.715   6.741 -0.1567  0.0768  0.0420
   92SAPC   C29 8856   7.048   2.750   6.543 -0.0488 -0.4156 -0.2223
   92SAPC   H9R 8857   7.146   2.775   6.587 -0.9094  1.4293  0.7910
   92SAPC  C210 8858   7.023   2.759   6.396  0.4906  0.2675 -0.8005
   92SAPC  H10R 8859   6.936   2.701   6.360  2.0593 -0.4909 -3.6696
   92SAPC  H10S 8860   7.101   2.714   6.331  1.1093 -1.1754  0.8536
   92SAPC  C211 8861   6.990   2.903   6.360 -0.4183 -0.1944  0.4146
   92SAPC  H11R 8862   6.905   2.943   6.416  0.4304  0.1859  1.4658
   92SAPC  C212 8863   7.043   2.971   6.257  0.3783  0.4094 -0.5593
   92SAPC  H12R 8864   7.012   3.076   6.243 -0.2187  0.5043  1.2676
   92SAPC  C213 8865   7.141   2.928   6.154  0.0806  0.7801  0.4964
   92SAPC  H13R 8866   7.218   2.868   6.207 -0.9940 -0.7629  0.3823
   92SAPC  H13S 8867   7.190   3.009   6.096 -1.3922  1.4546  0.1515
   92SAPC  C214 8868   7.098   2.827   6.052 -0.4707  0.2700  0.5414
   92SAPC  H14R 8869   7.026   2.755   6.093 -0.6762 -0.4285 -0.9847
   92SAPC  C215 8870   7.138   2.814   5.923  0.2200 -0.6019  0.5272
   92SAPC  H15R 8871   7.077   2.746   5.862 -1.3954  1.6185 -0.4902
   92SAPC  C216 8872   7.244   2.893   5.851  0.4879  0.2758 -0.6199
   92SAPC  H16R 8873   7.345   2.846   5.858  1.9023  3.2261  0.9154
   92SAPC  H16S 8874   7.262   3.000   5.876  2.4235  0.2531 -1.6840
   92SAPC  C217 8875   7.214   2.892   5.702  0.6075 -0.2944  0.8968
   92SAPC  H17R 8876   7.140   2.973   5.683  2.5108  1.4444  0.5720
   92SAPC  H17S 8877   7.171   2.795   5.669  0.7381 -0.3824  0.9864
   92SAPC  C218 8878   7.343   2.923   5.622  0.5675 -0.5529  0.2288
   92SAPC  H18R 8879   7.407   2.833   5.634  0.2518 -1.0477 -1.4666
   92SAPC  H18S 8880   7.393   3.013   5.664 -0.1765  0.4781 -1.0197
   92SAPC  C219 8881   7.312   2.936   5.471 -0.2595  0.0415 -0.7104
   92SAPC  H19R 8882   7.228   3.007   5.458  1.0364  1.6869 -0.4993
   92SAPC  H19S 8883   7.298   2.829   5.442 -0.9730 -0.5390  1.6072
   92SAPC  C220 8884   7.425   2.993   5.383 -0.3350 -0.4924  0.2287
   92SAPC  H20R 8885   7.511   2.925   5.401 -1.9119 -2.0517  2.3522
   92SAPC  H20S 8886   7.449   3.097   5.416  3.4629 -1.2945  0.5134
   92SAPC  H20T 8887   7.398   2.984   5.275  1.7740 -1.9739 -0.2380
   92SAPC   C33 8888   6.075   3.294   6.428 -0.0438 -0.4726  0.3295
   92SAPC   H3X 8889   6.043   3.394   6.464  0.4122  0.2027 -1.0503
   92SAPC   H3Y 8890   5.995   3.254   6.362  1.7649 -1.2801 -1.4877
   92SAPC   C34 8891   6.192   3.298   6.331  0.2819  0.4258  0.1011
   92SAPC   H4X 8892   6.233   3.196   6.318  0.9777  0.8662 -1.4526
   92SAPC   H4Y 8893   6.272   3.360   6.378 -1.9679  2.1644  1.8873
   92SAPC   C35 8894   6.153   3.357   6.191 -0.4352 -0.6613 -0.2202
   92SAPC   H5X 8895   6.164   3.467   6.181  0.5086 -0.8020 -0.8887
   92SAPC   H5Y 8896   6.052   3.329   6.154  0.1667 -0.7583 -1.8662
   92SAPC   C36 8897   6.251   3.299   6.089 -0.3006  0.0117 -0.4134
   92SAPC   H6X 8898   6.234   3.190   6.089 -0.0987 -0.0379  1.2894
   92SAPC   H6Y 8899   6.351   3.300   6.137 -0.5126  1.9968  0.0987
   92SAPC   C37 8900   6.248   3.347   5.945  0.2498 -0.1430  0.3800
   92SAPC   H7X 8901   6.351   3.321   5.913  1.2385  2.9338  0.6854
   92SAPC   H7Y 8902   6.263   3.457   5.948  0.2567 -0.0810 -1.1520
   92SAPC   C38 8903   6.126   3.307   5.864 -0.6972 -0.2512  0.7876
   92SAPC   H8X 8904   6.034   3.346   5.912 -1.0013  0.5519 -0.4210
   92SAPC   H8Y 8905   6.117   3.196   5.856 -3.4672 -0.0486  0.1655
   92SAPC   C39 8906   6.144   3.367   5.723 -0.0783 -0.6329  0.9438
   92SAPC   H9X 8907   6.149   3.477   5.731  1.5466 -0.7907  2.8486
   92SAPC   H9Y 8908   6.055   3.338   5.662  0.4134  0.6104 -0.4155
   92SAPC  C310 8909   6.269   3.331   5.647 -0.2041 -0.4610 -0.1564
   92SAPC  H10X 8910   6.267   3.220   5.638 -1.9964 -0.6210  1.4826
   92SAPC  H10Y 8911   6.364   3.355   5.698  1.1460 -1.7947 -1.9097
   92SAPC  C311 8912   6.259   3.390   5.510 -0.0978  0.5734 -0.1512
   92SAPC  H11X 8913   6.293   3.495   5.522  3.5029 -0.5211  0.3873
   92SAPC  H11Y 8914   6.154   3.375   5.477 -1.1248 -0.7836  3.2719
   92SAPC  C312 8915   6.351   3.328   5.406 -0.1283  0.9515 -1.0550
   92SAPC  H12X 8916   6.322   3.221   5.399  0.7502  0.6117  0.0831
   92SAPC  H12Y 8917   6.451   3.345   5.452  0.0582  3.0863 -2.1212
   92SAPC  C313 8918   6.354   3.394   5.272  0.2419 -0.4750  0.7891
   92SAPC  H13X 8919   6.387   3.499   5.288 -1.3858 -0.1112  2.0059
   92SAPC  H13Y 8920   6.250   3.413   5.236  0.9628 -1.1468 -1.9360
   92SAPC  C314 8921   6.436   3.327   5.155  0.2491  0.1776 -0.2289
   92SAPC  H14X 8922   6.391   3.230   5.126  1.4450 -0.9486  1.5109
   92SAPC  H14Y 8923   6.538   3.302   5.191  0.8426 -0.0990 -1.9901
   92SAPC  C315 8924   6.448   3.425   5.035  0.0325 -0.2305 -0.7579
   92SAPC  H15X 8925   6.466   3.528   5.073  1.5709  0.7758 -3.8997
   92SAPC  H15Y 8926   6.353   3.428   4.978 -0.6834 -1.5251  0.3196
   92SAPC  C316 8927   6.576   3.412   4.942  0.5469  0.2474  0.9796
   92SAPC  H16X 8928   6.660   3.376   5.005  1.3434 -0.1849 -0.2667
   92SAPC  H16Y 8929   6.594   3.512   4.898  0.0425 -1.0938 -2.6931
   92SAPC  C317 8930   6.559   3.315   4.819 -0.6657  0.2094  0.3828
   92SAPC  H17X 8931   6.466   3.333   4.761  0.0047 -0.0465 -0.8078
   92SAPC  H17Y 8932   6.552   3.208   4.848  0.0027 -0.8829 -3.0142
   92SAPC  C318 8933   6.685   3.317   4.727 -0.2932 -0.2135 -1.0391
   92SAPC  H18X 8934   6.670   3.260   4.633  4.6477 -0.2570 -2.0875
   92SAPC  H18Y 8935   6.779   3.282   4.775 -0.4468  1.0877  0.2775
   92SAPC  H18Z 8936   6.711   3.419   4.691  0.7463  0.1130  0.4944
   93SAPC     N 8937   1.761   4.593   7.025  0.1104  0.1461  0.4491
   93SAPC   C12 8938   1.880   4.624   7.121  0.5143  0.0654 -0.3009
   93SAPC  H12A 8939   1.851   4.587   7.218 -0.5565 -1.8592 -1.3022
   93SAPC  H12B 8940   1.898   4.730   7.123  1.4987 -0.1075  1.1724
   93SAPC   C13 8941   1.737   4.443   7.031 -0.7039  0.2331  0.1522
   93SAPC  H13A 8942   1.651   4.409   6.976 -0.0369  0.6764 -1.2165
   93SAPC  H13B 8943   1.814   4.386   6.980 -0.3028  2.0687 -1.4544
   93SAPC  H13C 8944   1.740   4.399   7.130  0.7570 -1.1861 -0.4741
   93SAPC   C14 8945   1.645   4.669   7.067 -1.1207  0.1997  0.2803
   93SAPC  H14A 8946   1.555   4.642   7.014 -0.7738  0.6794 -0.5581
   93SAPC  H14B 8947   1.615   4.651   7.170 -0.5438  0.1732  0.4472
   93SAPC  H14C 8948   1.660   4.775   7.059  2.2859 -0.0061  2.0536
   93SAPC   C15 8949   1.798   4.623   6.884 -0.1291  0.8234 -0.4960
   93SAPC  H15A 8950   1.713   4.611   6.818  0.8204 -0.1236 -1.6039
   93SAPC  H15B 8951   1.836   4.723   6.870  0.7849  0.4107 -1.1153
   93SAPC  H15C 8952   1.872   4.557   6.840 -2.0293 -0.7073 -1.5804
   93SAPC   C11 8953   2.019   4.567   7.088 -0.5216 -0.4139  0.3332
   93SAPC  H11A 8954   2.008   4.459   7.063 -0.0209 -0.2181 -0.7727
   93SAPC  H11B 8955   2.081   4.572   7.180  0.6099 -0.6540 -0.3966
   93SAPC     P 8956   2.135   4.795   7.004 -0.0335 -0.3902  0.1445
   93SAPC   O13 8957   2.034   4.885   7.056 -0.7906 -0.1133 -0.7411
   93SAPC   O14 8958   2.259   4.796   7.084  0.1736 -0.6695 -0.3695
   93SAPC   O12 8959   2.081   4.646   6.977  0.1106  0.2409 -0.4625
   93SAPC   O11 8960   2.176   4.850   6.861 -0.1196  0.0221 -0.2364
   93SAPC    C1 8961   2.143   4.773   6.742 -0.4367  0.2518 -0.3205
   93SAPC    HA 8962   2.041   4.730   6.745 -0.1451 -0.4421  1.6002
   93SAPC    HB 8963   2.148   4.831   6.648 -0.0682  1.5478  0.4682
   93SAPC    C2 8964   2.249   4.656   6.722  0.1869 -0.4954  0.3855
   93SAPC    HS 8965   2.257   4.610   6.823  1.2737  0.4358  0.7399
   93SAPC   O21 8966   2.380   4.710   6.678  0.1060 -0.3037  0.2507
   93SAPC   C21 8967   2.490   4.686   6.756  0.2989  0.2927  0.0499
   93SAPC   O22 8968   2.491   4.616   6.856 -0.3581 -0.3952 -0.0233
   93SAPC   C22 8969   2.621   4.739   6.688  0.3281 -0.6525 -1.2389
   93SAPC   H2R 8970   2.590   4.823   6.623 -2.7789  0.1317  0.9970
   93SAPC   H2S 8971   2.698   4.765   6.763  1.2043 -1.0752 -1.9812
   93SAPC    C3 8972   2.203   4.548   6.619 -0.1941  0.2706  0.4037
   93SAPC    HX 8973   2.111   4.497   6.655  1.0403 -2.2401  0.1591
   93SAPC    HY 8974   2.285   4.474   6.615  1.6489  2.2780 -1.2926
   93SAPC   O31 8975   2.184   4.622   6.501 -0.0019  0.3866 -0.8260
   93SAPC   C31 8976   2.197   4.543   6.396 -0.2707 -0.6388 -0.5386
   93SAPC   O32 8977   2.211   4.424   6.402 -0.2914 -0.2866  0.2491
   93SAPC   C32 8978   2.176   4.632   6.273 -0.5612  0.3555  0.1351
   93SAPC   H2X 8979   2.272   4.687   6.263  0.0832 -0.5554  1.1339
   93SAPC   H2Y 8980   2.093   4.700   6.303 -0.3628  0.5743  0.1886
   93SAPC   C23 8981   2.680   4.637   6.577 -0.4292 -0.0498 -0.4168
   93SAPC   H3R 8982   2.599   4.586   6.521  0.1201  0.3703 -1.6307
   93SAPC   H3S 8983   2.749   4.570   6.632  1.8035  3.2565  1.1880
   93SAPC   C24 8984   2.779   4.699   6.474  0.0396 -0.3354  0.4446
   93SAPC   H4R 8985   2.826   4.610   6.427  0.8296 -1.4922  3.1716
   93SAPC   H4S 8986   2.862   4.736   6.539  0.0976  0.2903  0.0249
   93SAPC   C25 8987   2.716   4.796   6.376 -0.2704  0.5467 -0.4558
   93SAPC   H5R 8988   2.613   4.825   6.400 -0.0358 -0.0079  1.4493
   93SAPC   C26 8989   2.787   4.875   6.294 -0.0129  0.6562 -0.2623
   93SAPC   H6R 8990   2.731   4.935   6.222  1.4328  3.6368  0.9327
   93SAPC   C27 8991   2.936   4.852   6.270  0.0282  0.1066 -0.2915
   93SAPC   H7R 8992   2.969   4.750   6.239  3.3297  0.9461  0.0461
   93SAPC   H7S 8993   2.998   4.865   6.361 -0.3334  1.2700 -0.2047
   93SAPC   C28 8994   2.984   4.949   6.170  0.4178 -0.6210  0.8708
   93SAPC   H8R 8995   3.019   5.044   6.214 -0.4229  0.0267  0.1924
   93SAPC   C29 8996   2.983   4.940   6.041 -1.0903  0.7698  0.5811
   93SAPC   H9R 8997   3.019   5.025   5.981  2.4857 -1.0124 -0.0627
   93SAPC  C210 8998   2.936   4.825   5.952  0.8122  0.0468  0.0507
   93SAPC  H10R 8999   2.854   4.875   5.895 -0.3625 -1.3540  0.4394
   93SAPC  H10S 9000   2.887   4.740   6.005 -1.0889  1.2446  0.3118
   93SAPC  C211 9001   3.038   4.772   5.851  0.3270 -0.3080 -0.1111
   93SAPC  H11R 9002   3.115   4.713   5.902  0.1475 -0.9246 -0.5491
   93SAPC  C212 9003   3.035   4.778   5.716 -0.0296 -0.6699 -0.4225
   93SAPC  H12R 9004   3.121   4.742   5.656  0.8415  0.2481  0.2412
   93SAPC  C213 9005   2.928   4.851   5.632 -0.1710 -0.1683  0.0932
   93SAPC  H13R 9006   2.983   4.940   5.596  0.4527 -1.8393 -3.4571
   93SAPC  H13S 9007   2.839   4.883   5.691 -1.6209 -2.5691 -0.6384
   93SAPC  C214 9008   2.878   4.766   5.511  0.1101  0.5455  0.8289
   93SAPC  H14R 9009   2.825   4.673   5.534 -0.1036 -0.1990 -2.2388
   93SAPC  C215 9010   2.918   4.780   5.381  0.2543 -0.4510 -0.3245
   93SAPC  H15R 9011   2.892   4.698   5.312  0.8347 -1.6638  0.8657
   93SAPC  C216 9012   2.992   4.904   5.331 -0.3109 -0.6125  0.8452
   93SAPC  H16R 9013   3.090   4.918   5.381  0.8699 -0.1330 -1.4480
   93SAPC  H16S 9014   2.929   4.992   5.355 -0.1028 -0.1984 -0.0556
   93SAPC  C217 9015   3.021   4.916   5.174  0.1627  0.5003  0.1453
   93SAPC  H17R 9016   3.039   5.020   5.140 -1.8313  0.7726 -0.1962
   93SAPC  H17S 9017   2.928   4.888   5.120 -0.3069 -0.5895  1.4639
   93SAPC  C218 9018   3.133   4.823   5.116  0.1585 -0.2077 -1.3445
   93SAPC  H18R 9019   3.107   4.723   5.155  1.1199  0.2706  0.6274
   93SAPC  H18S 9020   3.233   4.852   5.154 -0.9821 -0.6464  2.3524
   93SAPC  C219 9021   3.133   4.817   4.962  0.1371 -0.4509 -0.3594
   93SAPC  H19R 9022   3.115   4.919   4.923  0.9397 -0.3448 -0.4756
   93SAPC  H19S 9023   3.046   4.756   4.930 -0.1788  0.2559 -0.8697
   93SAPC  C220 9024   3.268   4.774   4.900 -0.0228  0.5669  0.3638
   93SAPC  H20R 9025   3.351   4.841   4.933 -0.5940  0.4323  2.1685
   93SAPC  H20S 9026   3.259   4.780   4.789 -1.6841  1.7353  0.5184
   93SAPC  H20T 9027   3.287   4.670   4.933 -0.0704  0.7005  0.8128
   93SAPC   C33 9028   2.145   4.554   6.147  0.5246  0.1764  0.2671
   93SAPC   H3X 9029   2.061   4.485   6.168 -0.2963  1.0686 -0.0379
   93SAPC   H3Y 9030   2.229   4.486   6.121  0.5730 -0.0023  0.8762
   93SAPC   C34 9031   2.107   4.642   6.029 -0.3975  0.5112 -0.0348
   93SAPC   H4X 9032   2.195   4.705   6.003  0.8692 -0.6368  1.3263
   93SAPC   H4Y 9033   2.032   4.712   6.073 -1.4845 -0.0359 -0.9405
   93SAPC   C35 9034   2.037   4.561   5.915  0.6937  0.8082 -0.0079
   93SAPC   H5X 9035   1.954   4.492   5.943  1.1326 -0.7116 -2.2123
   93SAPC   H5Y 9036   2.115   4.490   5.880 -0.1096 -0.6448  1.0101
   93SAPC   C36 9037   1.990   4.650   5.804 -0.4109 -0.3382 -0.2459
   93SAPC   H6X 9038   2.075   4.723   5.795 -0.8421  0.5337  2.1414
   93SAPC   H6Y 9039   1.907   4.713   5.841 -0.5060 -0.8750  0.4634
   93SAPC   C37 9040   1.969   4.581   5.665  0.4664 -1.0969  0.0154
   93SAPC   H7X 9041   1.873   4.526   5.673  2.2973 -4.4455  0.7203
   93SAPC   H7Y 9042   2.051   4.506   5.657  2.4104  0.9079  0.2342
   93SAPC   C38 9043   1.952   4.679   5.541 -0.3707  0.1064 -0.2816
   93SAPC   H8X 9044   2.049   4.733   5.532  0.3501 -1.4676 -3.7747
   93SAPC   H8Y 9045   1.874   4.751   5.573  1.1685  0.9232  1.8619
   93SAPC   C39 9046   1.930   4.621   5.399  0.5250 -0.4277 -0.2582
   93SAPC   H9X 9047   1.907   4.705   5.330 -1.7247 -1.5935 -1.0073
   93SAPC   H9Y 9048   1.840   4.556   5.390 -0.1346  0.5490 -0.9414
   93SAPC  C310 9049   2.053   4.548   5.340  0.1075  0.5009  0.0391
   93SAPC  H10X 9050   2.081   4.456   5.397  0.9671 -0.6318 -2.0741
   93SAPC  H10Y 9051   2.141   4.614   5.357 -0.2654  0.6207  1.6258
   93SAPC  C311 9052   2.029   4.509   5.186  0.1592 -0.3174 -0.3690
   93SAPC  H11X 9053   2.000   4.606   5.141  1.1236 -0.0990 -0.5486
   93SAPC  H11Y 9054   1.955   4.436   5.147 -1.3803  0.7926  0.3893
   93SAPC  C312 9055   2.158   4.485   5.107 -0.6517  0.3403 -0.5057
   93SAPC  H12X 9056   2.251   4.531   5.148  1.3633 -1.6929 -2.4727
   93SAPC  H12Y 9057   2.151   4.527   5.005  0.8717  1.1456 -0.3234
   93SAPC  C313 9058   2.193   4.331   5.087 -0.8143 -0.5460 -0.1925
   93SAPC  H13X 9059   2.173   4.274   5.181 -1.4366  0.1194  0.0934
   93SAPC  H13Y 9060   2.301   4.324   5.061 -1.1417 -0.3842 -1.6962
   93SAPC  C314 9061   2.104   4.279   4.974  0.4286  0.4544  0.3000
   93SAPC  H14X 9062   2.119   4.341   4.883  0.2987 -2.1542 -1.6105
   93SAPC  H14Y 9063   1.998   4.279   5.005  0.7841  0.4429  1.5870
   93SAPC  C315 9064   2.133   4.134   4.947 -0.2025  0.1096  0.1778
   93SAPC  H15X 9065   2.093   4.066   5.025  2.1074 -1.0314  0.4292
   93SAPC  H15Y 9066   2.243   4.135   4.956 -0.1196 -1.7952 -0.3166
   93SAPC  C316 9067   2.081   4.094   4.813 -0.1362 -0.7425 -0.0245
   93SAPC  H16X 9068   2.147   4.008   4.791  1.1405  0.2648 -0.2080
   93SAPC  H16Y 9069   2.107   4.174   4.741 -1.0490 -0.1490  0.2742
   93SAPC  C317 9070   1.932   4.059   4.803 -0.2064 -0.0208  0.2427
   93SAPC  H17X 9071   1.881   4.157   4.812  1.4669  0.8090  1.1279
   93SAPC  H17Y 9072   1.885   4.004   4.887 -1.3193  1.1803  0.4364
   93SAPC  C318 9073   1.895   3.983   4.675  0.6333  0.1250  0.5300
   93SAPC  H18X 9074   1.787   3.973   4.651  0.5369 -0.8124  1.2634
   93SAPC  H18Y 9075   1.929   3.877   4.682 -0.8417 -0.6834 -2.6930
   93SAPC  H18Z 9076   1.948   4.026   4.588  0.5483  0.6819  0.7498
   94SAPC     N 9077   0.862   3.448   6.983 -0.0455  0.7224  0.1434
   94SAPC   C12 9078   0.814   3.406   6.848  0.5296  0.3719 -0.1030
   94SAPC  H12A 9079   0.800   3.497   6.791 -0.7304  1.0798  1.2757
   94SAPC  H12B 9080   0.720   3.353   6.857  0.6944 -0.0954 -1.0393
   94SAPC   C13 9081   0.764   3.533   7.053  0.3928  0.0173  0.3237
   94SAPC  H13A 9082   0.742   3.625   7.000  2.5941  0.5236  0.2128
   94SAPC  H13B 9083   0.673   3.477   7.071  0.1851 -0.0588 -0.8586
   94SAPC  H13C 9084   0.804   3.570   7.146 -1.7740  0.5265  1.1253
   94SAPC   C14 9085   0.885   3.334   7.080  0.3079  0.0189  0.2792
   94SAPC  H14A 9086   0.913   3.375   7.176 -0.0022  0.0231  0.3682
   94SAPC  H14B 9087   0.795   3.277   7.095 -0.6124  1.8269  2.0321
   94SAPC  H14C 9088   0.969   3.273   7.049 -0.5533 -0.6276 -0.8612
   94SAPC   C15 9089   0.982   3.529   6.976  0.2032 -0.3707  0.0748
   94SAPC  H15A 9090   1.055   3.459   6.939  1.0361  0.0361  0.9132
   94SAPC  H15B 9091   0.965   3.615   6.913 -0.9230 -0.8463 -0.2856
   94SAPC  H15C 9092   1.012   3.562   7.075  0.4330 -1.9068  0.5488
   94SAPC   C11 9093   0.905   3.333   6.751 -0.4154  0.4036  0.1260
   94SAPC  H11A 9094   0.966   3.414   6.708  0.5895 -0.3767  0.0378
   94SAPC  H11B 9095   0.847   3.282   6.671  0.4888 -1.5019  0.6118
   94SAPC     P 9096   1.137   3.225   6.794 -0.4321  0.1730 -0.0259
   94SAPC   O13 9097   1.210   3.345   6.834  1.0122 -0.0621  0.3588
   94SAPC   O14 9098   1.177   3.094   6.854 -0.2003 -0.1764  0.0357
   94SAPC   O12 9099   0.981   3.243   6.822 -0.1201  0.1691 -0.0671
   94SAPC   O11 9100   1.143   3.217   6.640  0.2324  0.4397 -0.3389
   94SAPC    C1 9101   1.112   3.099   6.567 -0.0028  0.2073 -0.1221
   94SAPC    HA 9102   1.058   3.027   6.633  0.9241  0.7399  1.2550
   94SAPC    HB 9103   1.037   3.122   6.488  0.9816 -3.8520 -2.4859
   94SAPC    C2 9104   1.242   3.035   6.507  0.4948  0.3885 -0.0614
   94SAPC    HS 9105   1.321   3.022   6.583 -0.8247 -0.4418  1.2199
   94SAPC   O21 9106   1.283   3.091   6.383 -0.2181 -0.7958  0.3083
   94SAPC   C21 9107   1.355   3.202   6.398  0.4504  0.1435  0.0310
   94SAPC   O22 9108   1.388   3.242   6.508 -0.7010  0.4082 -0.3947
   94SAPC   C22 9109   1.402   3.268   6.264  0.7122  0.4840 -0.3894
   94SAPC   H2R 9110   1.418   3.375   6.292 -0.9237  0.8338 -0.6988
   94SAPC   H2S 9111   1.500   3.221   6.241  0.0691 -2.7713  2.6260
   94SAPC    C3 9112   1.213   2.879   6.475  0.0897  0.5515  0.1042
   94SAPC    HX 9113   1.190   2.826   6.570  0.7784 -0.4399 -0.2641
   94SAPC    HY 9114   1.307   2.836   6.435  0.0583 -1.6077  2.1264
   94SAPC   O31 9115   1.105   2.856   6.384  0.3749  0.2294  0.9240
   94SAPC   C31 9116   1.118   2.751   6.294 -0.3541 -0.4329  0.9796
   94SAPC   O32 9117   1.192   2.658   6.301 -0.2920 -0.0956 -0.2294
   94SAPC   C32 9118   1.005   2.760   6.195 -0.2832  0.4079 -0.4096
   94SAPC   H2X 9119   0.958   2.860   6.205  1.5743  1.4918 -1.8492
   94SAPC   H2Y 9120   0.938   2.674   6.217  0.9731 -0.6279 -0.5233
   94SAPC   C23 9121   1.295   3.249   6.151  0.3401 -0.2516 -0.0743
   94SAPC   H3R 9122   1.191   3.233   6.185  0.7246 -1.0775  0.7654
   94SAPC   H3S 9123   1.304   3.152   6.098 -1.8804 -0.2737 -0.4841
   94SAPC   C24 9124   1.302   3.370   6.052 -0.3852 -0.1822 -0.5862
   94SAPC   H4R 9125   1.406   3.377   6.015 -0.2458  1.9251  0.0558
   94SAPC   H4S 9126   1.276   3.463   6.109 -0.1891 -1.1599  1.1746
   94SAPC   C25 9127   1.198   3.355   5.939  0.1217  0.0340  0.1401
   94SAPC   H5R 9128   1.092   3.366   5.965  0.1429 -2.0781  1.3245
   94SAPC   C26 9129   1.240   3.333   5.811 -0.2578  0.2605  0.2732
   94SAPC   H6R 9130   1.160   3.328   5.735 -0.2112 -3.1706  0.3030
   94SAPC   C27 9131   1.379   3.304   5.762  0.2578 -0.3615  0.1104
   94SAPC   H7R 9132   1.371   3.216   5.696 -0.0287 -0.2713  0.0217
   94SAPC   H7S 9133   1.444   3.285   5.850  3.1766 -0.9903 -2.0702
   94SAPC   C28 9134   1.403   3.423   5.669  0.4300 -0.1892 -0.4943
   94SAPC   H8R 9135   1.377   3.523   5.707  0.0411 -0.8809  1.1823
   94SAPC   C29 9136   1.437   3.421   5.537  0.5530 -0.8161  0.3538
   94SAPC   H9R 9137   1.438   3.518   5.486  0.1781 -0.9917  0.0041
   94SAPC  C210 9138   1.479   3.299   5.459 -0.5912  0.2254  0.6619
   94SAPC  H10R 9139   1.385   3.275   5.404 -0.8305 -1.2359  1.6445
   94SAPC  H10S 9140   1.514   3.221   5.530  0.8973  0.8695  0.6705
   94SAPC  C211 9141   1.578   3.305   5.342 -0.3700  0.2767  0.0089
   94SAPC  H11R 9142   1.676   3.270   5.376 -0.7358  0.6130  1.4687
   94SAPC  C212 9143   1.553   3.345   5.213 -0.0291  0.6508 -0.0408
   94SAPC  H12R 9144   1.642   3.350   5.148 -1.3404  0.2105 -1.9473
   94SAPC  C213 9145   1.427   3.390   5.150 -0.5974 -0.3018  0.3402
   94SAPC  H13R 9146   1.432   3.482   5.088  1.5228 -1.4289 -1.2835
   94SAPC  H13S 9147   1.353   3.429   5.222 -0.8845  2.5837 -1.3571
   94SAPC  C214 9148   1.363   3.277   5.069 -0.1179  0.6184 -0.5143
   94SAPC  H14R 9149   1.350   3.181   5.122 -2.5150  1.8514  1.3073
   94SAPC  C215 9150   1.342   3.279   4.937 -0.1297 -0.2777  0.2134
   94SAPC  H15R 9151   1.310   3.185   4.891  1.7709 -1.0070  0.2958
   94SAPC  C216 9152   1.366   3.393   4.837  0.2578 -0.1905  0.0491
   94SAPC  H16R 9153   1.468   3.435   4.847 -0.8069  2.2727  1.3788
   94SAPC  H16S 9154   1.298   3.479   4.851  0.2746 -0.0553 -0.6364
   94SAPC  C217 9155   1.346   3.343   4.693  0.3036 -0.3802  0.3114
   94SAPC  H17R 9156   1.241   3.312   4.672  0.6687 -0.6816 -1.2041
   94SAPC  H17S 9157   1.410   3.254   4.673 -1.1814 -2.0199  2.3730
   94SAPC  C218 9158   1.375   3.457   4.604 -0.2619 -0.2417  0.2992
   94SAPC  H18R 9159   1.482   3.485   4.610 -0.8529  1.9504  1.6592
   94SAPC  H18S 9160   1.328   3.552   4.637  1.7126  1.5258 -1.7229
   94SAPC  C219 9161   1.338   3.457   4.454 -0.2454 -0.0829  0.7060
   94SAPC  H19R 9162   1.374   3.554   4.413  2.2284 -0.7963  1.0063
   94SAPC  H19S 9163   1.228   3.452   4.438 -0.1350  1.4802 -0.9146
   94SAPC  C220 9164   1.403   3.347   4.374  0.0478  0.2532  0.2831
   94SAPC  H20R 9165   1.512   3.342   4.393 -0.0445 -0.1398  0.7381
   94SAPC  H20S 9166   1.379   3.362   4.267 -2.4007  0.5471  0.7969
   94SAPC  H20T 9167   1.371   3.248   4.413  1.4056 -0.3399 -0.0829
   94SAPC   C33 9168   1.054   2.738   6.052  0.0687 -0.7493 -0.1463
   94SAPC   H3X 9169   0.968   2.762   5.986 -1.3400  0.6482  2.0613
   94SAPC   H3Y 9170   1.082   2.631   6.041 -1.8138 -1.5709  2.2581
   94SAPC   C34 9171   1.174   2.827   6.001 -0.5761 -0.4193  0.3385
   94SAPC   H4X 9172   1.270   2.771   6.000  0.1820  0.8442 -0.0684
   94SAPC   H4Y 9173   1.178   2.912   6.073  0.8316 -0.3431  0.2053
   94SAPC   C35 9174   1.150   2.877   5.852  0.1609  0.1027 -0.2703
   94SAPC   H5X 9175   1.224   2.956   5.829  1.7928 -2.1126 -3.3221
   94SAPC   H5Y 9176   1.044   2.911   5.853  0.0079 -0.3053 -1.1213
   94SAPC   C36 9177   1.171   2.762   5.745 -0.2205 -0.2186  0.5829
   94SAPC   H6X 9178   1.111   2.678   5.786  0.5512 -2.0706 -1.8716
   94SAPC   H6Y 9179   1.277   2.733   5.731  0.0873  1.4442 -0.9563
   94SAPC   C37 9180   1.116   2.799   5.610 -0.3141 -0.8705  0.0715
   94SAPC   H7X 9181   1.008   2.825   5.611 -0.1308  0.0244 -1.0366
   94SAPC   H7Y 9182   1.138   2.704   5.557  1.5328 -0.4845  0.0678
   94SAPC   C38 9183   1.188   2.920   5.543 -0.3739 -0.3395 -0.6721
   94SAPC   H8X 9184   1.295   2.895   5.526 -0.2166  0.2444 -0.5918
   94SAPC   H8Y 9185   1.191   3.010   5.609 -0.0184 -0.1999 -0.8754
   94SAPC   C39 9186   1.148   2.959   5.399 -0.2589 -0.0371 -0.3452
   94SAPC   H9X 9187   1.188   3.059   5.374  1.7164 -0.7172 -0.0628
   94SAPC   H9Y 9188   1.038   2.978   5.403 -0.0358  2.1536 -2.2795
   94SAPC  C310 9189   1.196   2.849   5.299 -0.2284  0.6272 -0.9860
   94SAPC  H10X 9190   1.136   2.758   5.320 -1.5388  0.9590 -2.9735
   94SAPC  H10Y 9191   1.299   2.813   5.318  0.0275  1.8973  0.1287
   94SAPC  C311 9192   1.169   2.898   5.153  0.1757 -0.2133  0.3452
   94SAPC  H11X 9193   1.230   2.989   5.136  2.4918 -2.3221 -4.7890
   94SAPC  H11Y 9194   1.062   2.923   5.140 -0.0561 -1.3109  0.0444
   94SAPC  C312 9195   1.207   2.797   5.040  1.0847  0.0798 -0.5417
   94SAPC  H12X 9196   1.179   2.697   5.080  1.3862  0.3016  0.2493
   94SAPC  H12Y 9197   1.317   2.788   5.030  0.9400  0.0033 -2.2451
   94SAPC  C313 9198   1.132   2.826   4.912 -0.6637 -0.0244  0.7798
   94SAPC  H13X 9199   1.173   2.917   4.864 -1.1471  0.2077  0.7934
   94SAPC  H13Y 9200   1.023   2.843   4.929 -1.5798 -1.5063 -2.8473
   94SAPC  C314 9201   1.156   2.709   4.817  0.5126 -0.0980 -0.4413
   94SAPC  H14X 9202   1.117   2.612   4.853  0.0386  0.3454  0.2621
   94SAPC  H14Y 9203   1.266   2.706   4.802  0.5018 -1.5340 -0.3672
   94SAPC  C315 9204   1.089   2.736   4.681  0.2964 -0.3188  0.7257
   94SAPC  H15X 9205   0.983   2.765   4.693  0.1122 -0.7801  0.2312
   94SAPC  H15Y 9206   1.075   2.645   4.619 -1.3429 -0.1961  0.8821
   94SAPC  C316 9207   1.167   2.850   4.602 -0.3422 -0.4147 -0.0487
   94SAPC  H16X 9208   1.199   2.941   4.659  1.2312  1.1043 -3.1173
   94SAPC  H16Y 9209   1.091   2.877   4.526  0.0722  0.1247 -0.2779
   94SAPC  C317 9210   1.290   2.789   4.529 -1.3741 -0.3452  0.1353
   94SAPC  H17X 9211   1.280   2.741   4.429  2.2759  0.2229 -0.6654
   94SAPC  H17Y 9212   1.331   2.707   4.592 -0.3074 -0.7881 -1.0927
   94SAPC  C318 9213   1.412   2.888   4.519 -0.1241 -0.2417 -0.6404
   94SAPC  H18X 9214   1.379   2.983   4.470 -0.2414  1.0542  1.8033
   94SAPC  H18Y 9215   1.492   2.857   4.448  3.2091  1.8587  1.9070
   94SAPC  H18Z 9216   1.469   2.909   4.612  1.1895 -0.8802 -1.2618
   95SAPC     N 9217   1.127   5.005   2.579 -0.2839  0.2348  0.4584
   95SAPC   C12 9218   1.232   5.101   2.628  0.9969 -0.6607 -0.0282
   95SAPC  H12A 9219   1.237   5.091   2.735 -1.6863  1.5024  0.4092
   95SAPC  H12B 9220   1.191   5.198   2.607  2.1720 -0.3601 -1.0556
   95SAPC   C13 9221   1.013   5.039   2.667 -0.5169  0.8091 -0.3289
   95SAPC  H13A 9222   1.038   5.009   2.768  2.3677  0.2413 -1.1069
   95SAPC  H13B 9223   0.984   5.143   2.674  0.1145  1.0031 -0.5266
   95SAPC  H13C 9224   0.927   4.981   2.636  1.0030 -1.1670 -1.1199
   95SAPC   C14 9225   1.099   5.031   2.433 -0.1111 -0.0689 -0.2544
   95SAPC  H14A 9226   1.052   5.127   2.416  0.9922  0.3375 -1.2286
   95SAPC  H14B 9227   1.192   5.034   2.377 -0.3073  3.2141 -0.6294
   95SAPC  H14C 9228   1.031   4.960   2.389  1.4014 -0.6059 -1.8336
   95SAPC   C15 9229   1.164   4.861   2.601  0.1997  0.3943  0.2734
   95SAPC  H15A 9230   1.178   4.828   2.703  2.6571 -2.0425 -0.7322
   95SAPC  H15B 9231   1.098   4.798   2.543  1.1468  1.1337 -1.7242
   95SAPC  H15C 9232   1.253   4.840   2.544 -1.7214 -1.9828 -2.1318
   95SAPC   C11 9233   1.375   5.079   2.575  0.2736  0.6917 -0.5356
   95SAPC  H11A 9234   1.408   4.983   2.620  1.9706  1.0385 -0.9756
   95SAPC  H11B 9235   1.449   5.152   2.615  0.3684  0.0288  0.5356
   95SAPC     P 9236   1.529   5.021   2.368 -0.1907 -0.2735  0.1853
   95SAPC   O13 9237   1.569   4.890   2.432  0.2579 -0.0236  0.2598
   95SAPC   O14 9238   1.515   5.011   2.219  0.1577 -0.5469 -0.1741
   95SAPC   O12 9239   1.392   5.076   2.430 -0.2376 -0.3922  0.1934
   95SAPC   O11 9240   1.635   5.138   2.400  0.2026  0.3994 -0.0789
   95SAPC    C1 9241   1.777   5.110   2.385 -0.2009  0.3866 -0.4605
   95SAPC    HA 9242   1.801   5.041   2.300 -0.3068 -1.2448  0.7835
   95SAPC    HB 9243   1.827   5.207   2.367  0.7845  0.0320  0.2630
   95SAPC    C2 9244   1.839   5.050   2.519  0.9765 -0.1472  0.2293
   95SAPC    HS 9245   1.795   4.949   2.531 -0.0976  0.2527 -0.2389
   95SAPC   O21 9246   1.797   5.138   2.626 -0.3104  0.0994  0.0345
   95SAPC   C21 9247   1.792   5.091   2.748 -0.2491 -0.2300 -0.1891
   95SAPC   O22 9248   1.804   4.975   2.781 -0.1904  0.3398 -0.4194
   95SAPC   C22 9249   1.795   5.203   2.856  0.2458 -0.4357  0.5050
   95SAPC   H2R 9250   1.895   5.251   2.849 -0.7180  1.7786  1.0175
   95SAPC   H2S 9251   1.720   5.281   2.830  0.4708 -0.7896 -1.3005
   95SAPC    C3 9252   1.993   5.031   2.517 -0.6753  0.2893 -0.0885
   95SAPC    HX 9253   2.051   5.112   2.467 -1.5146 -0.2555 -2.0633
   95SAPC    HY 9254   1.988   4.943   2.449  2.0662 -0.9012  1.1076
   95SAPC   O31 9255   2.051   4.977   2.639  0.3184  0.2106 -0.2058
   95SAPC   C31 9256   2.117   5.062   2.717  0.3356 -0.0699 -0.6492
   95SAPC   O32 9257   2.127   5.181   2.703 -0.2933  0.1545  0.4303
   95SAPC   C32 9258   2.182   4.982   2.832 -0.3025  0.0880  0.4256
   95SAPC   H2X 9259   2.276   5.027   2.870  0.8786 -2.3822  0.5587
   95SAPC   H2Y 9260   2.209   4.883   2.791 -2.1969  0.5108 -2.1183
   95SAPC   C23 9261   1.766   5.150   2.999  0.2016 -0.5157 -0.2397
   95SAPC   H3R 9262   1.857   5.103   3.042 -0.1991  0.3441  1.6469
   95SAPC   H3S 9263   1.680   5.080   2.995 -0.4748  0.3520 -1.5633
   95SAPC   C24 9264   1.718   5.256   3.106 -0.2536  1.0030  0.7197
   95SAPC   H4R 9265   1.667   5.195   3.183  0.7775  1.7452  2.0487
   95SAPC   H4S 9266   1.649   5.325   3.054  0.8457  1.9037  0.3940
   95SAPC   C25 9267   1.843   5.332   3.153  0.1391 -0.6763  0.0678
   95SAPC   H5R 9268   1.913   5.366   3.074  1.4679 -0.0545  1.4619
   95SAPC   C26 9269   1.865   5.380   3.279  0.6170  0.5084 -0.2519
   95SAPC   H6R 9270   1.961   5.432   3.293  0.7735  0.4862 -1.1597
   95SAPC   C27 9271   1.775   5.362   3.401 -0.7152 -0.4109  0.6069
   95SAPC   H7R 9272   1.670   5.352   3.365 -0.6056  1.4490 -0.3588
   95SAPC   H7S 9273   1.770   5.455   3.463 -1.1105 -0.2587  0.3514
   95SAPC   C28 9274   1.811   5.239   3.475  0.1683  0.6599  0.4990
   95SAPC   H8R 9275   1.786   5.144   3.425  0.7837  0.8635 -0.2055
   95SAPC   C29 9276   1.845   5.232   3.610 -0.4604 -0.2909 -0.0419
   95SAPC   H9R 9277   1.863   5.133   3.654 -0.3146  0.7035  2.2774
   95SAPC  C210 9278   1.872   5.352   3.710 -0.0819  0.3771  1.2258
   95SAPC  H10R 9279   1.884   5.311   3.812  1.6375  0.2177  0.9891
   95SAPC  H10S 9280   1.779   5.412   3.721 -0.3849 -0.0145  0.8591
   95SAPC  C211 9281   2.001   5.426   3.695 -0.3669 -0.5877 -0.3691
   95SAPC  H11R 9282   2.046   5.414   3.595 -1.3568  1.2993 -1.0809
   95SAPC  C212 9283   2.045   5.527   3.768 -0.4980 -0.0372  0.4466
   95SAPC  H12R 9284   2.147   5.559   3.746 -1.1808  1.0038 -1.3837
   95SAPC  C213 9285   1.991   5.564   3.905 -0.9569 -0.0505 -0.1059
   95SAPC  H13R 9286   2.026   5.475   3.961 -1.8405 -0.3244  0.0366
   95SAPC  H13S 9287   1.880   5.554   3.914 -0.8906  0.6429  2.0883
   95SAPC  C214 9288   2.054   5.693   3.961  0.4711  0.7863  1.0516
   95SAPC  H14R 9289   2.100   5.769   3.895 -2.0488 -1.3954 -3.7607
   95SAPC  C215 9290   2.060   5.718   4.093  0.1744 -0.5250  0.0991
   95SAPC  H15R 9291   2.100   5.817   4.118 -1.5976 -0.0502  1.2495
   95SAPC  C216 9292   1.991   5.640   4.199  0.4683 -0.0607 -0.6411
   95SAPC  H16R 9293   1.907   5.577   4.163 -0.4201  0.7425 -0.0422
   95SAPC  H16S 9294   1.940   5.704   4.275  0.2899  1.0346 -1.6577
   95SAPC  C217 9295   2.097   5.565   4.275  0.2330  0.1755  0.3945
   95SAPC  H17R 9296   2.188   5.625   4.299  0.4999  0.2631 -0.7656
   95SAPC  H17S 9297   2.141   5.483   4.215 -0.4761  1.0490 -1.3909
   95SAPC  C218 9298   2.054   5.529   4.417  0.5674  0.5680 -0.1858
   95SAPC  H18R 9299   1.951   5.486   4.423  0.5071  0.4536 -1.6292
   95SAPC  H18S 9300   2.051   5.625   4.472  1.3518 -1.1589  3.1159
   95SAPC  C219 9301   2.147   5.422   4.481  0.0601  0.5350  1.3375
   95SAPC  H19R 9302   2.131   5.438   4.590 -1.2783 -0.0787  1.2557
   95SAPC  H19S 9303   2.255   5.446   4.474  0.0747  0.2249  0.2883
   95SAPC  C220 9304   2.112   5.283   4.448 -0.3543 -0.1735 -0.2430
   95SAPC  H20R 9305   2.007   5.258   4.473 -0.1383  0.6240  1.5736
   95SAPC  H20S 9306   2.171   5.209   4.506 -1.2969 -1.3121 -0.6827
   95SAPC  H20T 9307   2.132   5.255   4.342  2.2020  0.0221  0.1438
   95SAPC   C33 9308   2.094   4.982   2.960 -0.1272 -0.0278  0.1456
   95SAPC   H3X 9309   1.998   4.927   2.943 -0.4213  0.3653  0.4973
   95SAPC   H3Y 9310   2.078   5.090   2.982  3.2389  0.9697 -1.6939
   95SAPC   C34 9311   2.176   4.932   3.077  0.6049 -0.7248 -0.5076
   95SAPC   H4X 9312   2.287   4.940   3.069  0.7073 -0.7357  0.7317
   95SAPC   H4Y 9313   2.151   4.824   3.089  0.3118 -0.6646 -0.5722
   95SAPC   C35 9314   2.131   4.994   3.210  0.5314  0.3273  0.7022
   95SAPC   H5X 9315   2.020   4.985   3.217  0.5770  0.5699  2.0647
   95SAPC   H5Y 9316   2.152   5.103   3.208  3.6619 -0.2063 -0.1658
   95SAPC   C36 9317   2.186   4.946   3.341 -0.2826  0.3336  0.6492
   95SAPC   H6X 9318   2.290   4.985   3.347  0.2892 -0.8328 -0.8894
   95SAPC   H6Y 9319   2.190   4.835   3.331 -0.9260  0.0783  2.7688
   95SAPC   C37 9320   2.118   4.993   3.470 -0.1640 -0.2933 -0.0907
   95SAPC   H7X 9321   2.013   4.955   3.473  0.7458 -2.9634  1.6938
   95SAPC   H7Y 9322   2.120   5.104   3.472  1.9022 -0.3090  0.3032
   95SAPC   C38 9323   2.184   4.935   3.594 -0.0887  0.1070 -0.0617
   95SAPC   H8X 9324   2.289   4.971   3.606  1.0592 -3.5723  2.5620
   95SAPC   H8Y 9325   2.186   4.824   3.582  0.8287  0.0593  0.4685
   95SAPC   C39 9326   2.108   4.972   3.726 -0.1300 -0.4765 -0.6131
   95SAPC   H9X 9327   1.999   4.957   3.714 -0.2937 -0.0928  0.3176
   95SAPC   H9Y 9328   2.118   5.083   3.722  0.9719 -0.5801 -1.7080
   95SAPC  C310 9329   2.157   4.894   3.845  0.2628 -0.0299 -0.2621
   95SAPC  H10X 9330   2.268   4.897   3.842  0.2430  1.8732 -0.5011
   95SAPC  H10Y 9331   2.130   4.787   3.833 -1.2701  0.5097 -1.9415
   95SAPC  C311 9332   2.101   4.931   3.983 -0.3516 -0.7123  1.1643
   95SAPC  H11X 9333   1.993   4.915   4.002 -0.7235 -1.8139 -1.4336
   95SAPC  H11Y 9334   2.134   5.036   4.000  1.1975 -0.7894 -0.9738
   95SAPC  C312 9335   2.172   4.859   4.102 -0.2164  0.2682 -0.5375
   95SAPC  H12X 9336   2.281   4.845   4.085 -0.0386 -3.3208  2.3680
   95SAPC  H12Y 9337   2.138   4.755   4.121  0.8672  0.4389  3.1550
   95SAPC  C313 9338   2.145   4.938   4.236 -0.2642 -0.3458 -0.0605
   95SAPC  H13X 9339   2.044   4.983   4.238  1.0400  2.7666  0.1122
   95SAPC  H13Y 9340   2.222   5.016   4.252 -3.1448  2.5369  0.6836
   95SAPC  C314 9341   2.154   4.837   4.352  0.6562 -0.3006  0.5390
   95SAPC  H14X 9342   2.258   4.799   4.344  1.2911  1.5830 -1.1260
   95SAPC  H14Y 9343   2.079   4.756   4.344 -0.7500  0.9049  0.9947
   95SAPC  C315 9344   2.133   4.903   4.490  0.1080  0.5119  0.8321
   95SAPC  H15X 9345   2.024   4.900   4.508  0.0037 -0.9393  0.1078
   95SAPC  H15Y 9346   2.161   5.008   4.467 -0.2257  0.2963 -0.6380
   95SAPC  C316 9347   2.207   4.839   4.606  0.4153 -0.1206 -0.5573
   95SAPC  H16X 9348   2.205   4.731   4.582 -1.1923 -0.0939 -0.6413
   95SAPC  H16Y 9349   2.140   4.854   4.694 -0.4484 -3.1271 -0.6059
   95SAPC  C317 9350   2.347   4.895   4.634  0.5626  0.0357  0.4682
   95SAPC  H17X 9351   2.412   4.889   4.544 -0.2443  1.9128 -0.2853
   95SAPC  H17Y 9352   2.405   4.836   4.708  2.0284 -0.5828 -1.0986
   95SAPC  C318 9353   2.362   5.048   4.672  0.2781 -0.1946 -0.4809
   95SAPC  H18X 9354   2.310   5.064   4.769 -2.6692 -1.6014 -1.6900
   95SAPC  H18Y 9355   2.300   5.105   4.599  0.5158  0.0621 -0.4854
   95SAPC  H18Z 9356   2.467   5.076   4.692 -0.3082  2.6019 -0.7877
   96SAPC     N 9357   0.961   0.381   2.485 -0.0770  0.1007  0.0050
   96SAPC   C12 9358   0.861   0.340   2.586 -0.1257 -0.2146  0.4663
   96SAPC  H12A 9359   0.905   0.250   2.626  1.0107 -1.1092 -2.5261
   96SAPC  H12B 9360   0.773   0.294   2.544 -0.7676 -1.0379  2.5785
   96SAPC   C13 9361   0.979   0.275   2.387  0.0462  0.3633 -0.2547
   96SAPC  H13A 9362   1.052   0.310   2.315  2.9820 -1.0878  1.7926
   96SAPC  H13B 9363   1.010   0.181   2.432  0.3763  0.4204 -0.3587
   96SAPC  H13C 9364   0.891   0.251   2.328  0.4236  0.8916 -1.0557
   96SAPC   C14 9365   0.917   0.502   2.400  0.2823 -0.5397  0.3968
   96SAPC  H14A 9366   0.903   0.590   2.461 -0.2967 -1.8475  2.2581
   96SAPC  H14B 9367   0.982   0.523   2.317 -0.3551 -0.6035 -0.1231
   96SAPC  H14C 9368   0.819   0.483   2.359  0.5788  0.6156 -0.9050
   96SAPC   C15 9369   1.095   0.407   2.547  0.2024 -0.4982  0.3161
   96SAPC  H15A 9370   1.170   0.403   2.469 -2.4832 -0.6780 -2.4560
   96SAPC  H15B 9371   1.111   0.496   2.605 -1.1447  0.5303 -0.8479
   96SAPC  H15C 9372   1.121   0.328   2.616 -0.9754 -0.3977  0.8993
   96SAPC   C11 9373   0.820   0.435   2.702  0.4663  0.4743 -0.1311
   96SAPC  H11A 9374   0.910   0.471   2.756  0.9959  0.6197 -1.0847
   96SAPC  H11B 9375   0.757   0.368   2.765 -0.1702  1.3248  0.1602
   96SAPC     P 9376   0.684   0.654   2.742  0.3654 -0.1546 -0.3950
   96SAPC   O13 9377   0.777   0.768   2.764  0.1847 -0.3011 -0.3644
   96SAPC   O14 9378   0.541   0.685   2.697  0.4472 -0.0305  0.0165
   96SAPC   O12 9379   0.747   0.546   2.652  0.4330  0.2885 -0.1958
   96SAPC   O11 9380   0.672   0.574   2.881  0.4813  0.0331  0.2471
   96SAPC    C1 9381   0.608   0.626   2.993 -0.5710 -0.1581  1.3135
   96SAPC    HA 9382   0.587   0.733   2.972  1.2944 -0.2954 -1.6650
   96SAPC    HB 9383   0.513   0.570   3.006 -0.4106 -0.4295  1.3103
   96SAPC    C2 9384   0.683   0.610   3.125  0.5138 -0.1998  0.2044
   96SAPC    HS 9385   0.606   0.627   3.203 -1.1144 -1.9612 -0.9224
   96SAPC   O21 9386   0.795   0.706   3.137 -0.1989  0.5929 -1.0271
   96SAPC   C21 9387   0.753   0.829   3.159  0.3732  0.4204 -0.7552
   96SAPC   O22 9388   0.636   0.860   3.179 -0.5062 -0.8963  0.0784
   96SAPC   C22 9389   0.870   0.910   3.178  0.7621  0.2696  0.8398
   96SAPC   H2R 9390   0.964   0.855   3.203 -0.6630 -2.5106  0.5358
   96SAPC   H2S 9391   0.884   0.949   3.075  1.1667 -1.2291  0.3005
   96SAPC    C3 9392   0.727   0.464   3.130 -0.7529  0.6006  1.2671
   96SAPC    HX 9393   0.812   0.442   3.061 -1.1128 -1.6066  1.4579
   96SAPC    HY 9394   0.643   0.412   3.080  0.8849 -2.3093  1.3265
   96SAPC   O31 9395   0.751   0.420   3.261 -0.4561  0.2716 -0.2512
   96SAPC   C31 9396   0.758   0.289   3.274  0.2635 -0.0695  0.1773
   96SAPC   O32 9397   0.735   0.204   3.191  0.6896  0.0141 -0.2908
   96SAPC   C32 9398   0.805   0.255   3.418 -0.1956 -0.0159 -0.0158
   96SAPC   H2X 9399   0.866   0.336   3.463 -1.0751  0.5182  0.2392
   96SAPC   H2Y 9400   0.877   0.171   3.406 -0.7661 -0.8198  1.8834
   96SAPC   C23 9401   0.830   1.026   3.270 -0.3989  0.1284  0.2970
   96SAPC   H3R 9402   0.801   0.998   3.374 -0.2678  0.0818  0.3208
   96SAPC   H3S 9403   0.744   1.077   3.221  0.7981 -1.2343 -3.5736
   96SAPC   C24 9404   0.952   1.119   3.296 -0.0455 -0.4437 -0.3513
   96SAPC   H4R 9405   0.976   1.171   3.200  1.9480  1.0615  0.8625
   96SAPC   H4S 9406   1.045   1.067   3.327  1.7666  1.6517 -1.9364
   96SAPC   C25 9407   0.908   1.239   3.388 -0.0526  0.0075 -0.5069
   96SAPC   H5R 9408   0.840   1.314   3.343  0.1532  2.4999  2.9918
   96SAPC   C26 9409   0.951   1.264   3.516  0.4332  0.1667  0.1400
   96SAPC   H6R 9410   0.923   1.357   3.567  0.7832  0.5145 -0.2924
   96SAPC   C27 9411   1.044   1.177   3.589  0.7188  0.2604 -0.2382
   96SAPC   H7R 9412   1.112   1.243   3.648 -2.4935  2.6048  1.1718
   96SAPC   H7S 9413   1.109   1.123   3.517  1.8939  0.7708  0.4142
   96SAPC   C28 9414   0.971   1.073   3.677  0.4942 -0.5692 -0.5729
   96SAPC   H8R 9415   0.926   0.983   3.633 -2.4474 -0.3701  1.7014
   96SAPC   C29 9416   0.970   1.076   3.810  0.0339 -0.2411 -0.3171
   96SAPC   H9R 9417   0.935   0.985   3.861  0.5960 -1.1198 -1.4615
   96SAPC  C210 9418   1.033   1.182   3.898  0.2281  0.3405  0.4648
   96SAPC  H10R 9419   1.017   1.287   3.865 -0.5576 -0.6622 -2.6338
   96SAPC  H10S 9420   1.143   1.168   3.888  0.4734  0.0004  2.9388
   96SAPC  C211 9421   1.013   1.180   4.050  0.4647 -0.5798 -0.3580
   96SAPC  H11R 9422   0.969   1.267   4.102  1.3901 -0.4118  0.1670
   96SAPC  C212 9423   1.030   1.068   4.132 -0.8073  0.6111 -0.3810
   96SAPC  H12R 9424   1.007   1.068   4.240 -0.1373  0.8971 -0.2322
   96SAPC  C213 9425   1.070   0.930   4.081 -0.4859 -0.4508 -0.3034
   96SAPC  H13R 9426   1.148   0.895   4.152  0.5832  0.4198 -1.0051
   96SAPC  H13S 9427   1.118   0.928   3.981 -0.3168 -0.5636 -0.2204
   96SAPC  C214 9428   0.946   0.846   4.093 -0.2366 -0.3899  0.0435
   96SAPC  H14R 9429   0.892   0.852   4.189 -0.2447 -0.8685  0.0686
   96SAPC  C215 9430   0.895   0.760   4.005 -0.4716 -0.8772  0.5386
   96SAPC  H15R 9431   0.793   0.721   4.013 -0.2297 -1.3326  1.6308
   96SAPC  C216 9432   0.954   0.725   3.871  0.5089  0.6057  0.9948
   96SAPC  H16R 9433   1.013   0.631   3.872  0.5866  0.6502  0.6276
   96SAPC  H16S 9434   1.044   0.787   3.849  2.0848 -1.8528  0.2016
   96SAPC  C217 9435   0.861   0.741   3.751  0.3190 -0.0166  0.9478
   96SAPC  H17R 9436   0.918   0.761   3.657 -3.4833  1.0187 -1.3585
   96SAPC  H17S 9437   0.789   0.824   3.769 -1.6999 -0.8868 -2.1210
   96SAPC  C218 9438   0.778   0.616   3.728 -0.3132 -0.1863  0.1303
   96SAPC  H18R 9439   0.711   0.600   3.815  2.2977  0.1061  2.3073
   96SAPC  H18S 9440   0.857   0.540   3.711  1.0923  1.7691 -3.2043
   96SAPC  C219 9441   0.697   0.610   3.593  0.5838  0.4026  0.2880
   96SAPC  H19R 9442   0.625   0.525   3.587 -0.0359  0.8379  1.2079
   96SAPC  H19S 9443   0.771   0.584   3.514  1.3967 -0.3523  1.2723
   96SAPC  C220 9444   0.642   0.739   3.531  0.3906 -0.6527 -0.5669
   96SAPC  H20R 9445   0.588   0.723   3.436  1.0619 -0.9231 -0.9116
   96SAPC  H20S 9446   0.732   0.800   3.509  1.5383 -1.0868  2.3882
   96SAPC  H20T 9447   0.581   0.805   3.597 -0.5870 -2.1147  0.0305
   96SAPC   C33 9448   0.694   0.220   3.523  0.4609  1.1513  0.3476
   96SAPC   H3X 9449   0.622   0.154   3.470  0.2524  0.7039  1.1757
   96SAPC   H3Y 9450   0.641   0.314   3.548  0.5770  0.9942  1.1943
   96SAPC   C34 9451   0.741   0.150   3.652  0.2256  0.3963  0.2705
   96SAPC   H4X 9452   0.655   0.092   3.692  1.2454 -2.6074 -1.5235
   96SAPC   H4Y 9453   0.793   0.220   3.721  1.4650 -1.0763  0.9187
   96SAPC   C35 9454   0.832   0.030   3.627 -0.5847  0.6806 -0.0972
   96SAPC   H5X 9455   0.858  -0.020   3.722 -1.4821  1.3855  0.5373
   96SAPC   H5Y 9456   0.918   0.081   3.579 -1.4253  2.9316  0.6864
   96SAPC   C36 9457   0.769  -0.070   3.528  0.2887  0.5422  0.6483
   96SAPC   H6X 9458   0.786  -0.039   3.422 -1.8281 -1.6757 -0.4493
   96SAPC   H6Y 9459   0.658  -0.073   3.536  0.3792  0.7877  2.1039
   96SAPC   C37 9460   0.832  -0.215   3.533  0.5360 -0.1202 -0.7309
   96SAPC   H7X 9461   0.942  -0.206   3.527  0.7542 -1.9742  0.0591
   96SAPC   H7Y 9462   0.803  -0.275   3.444 -0.7299 -1.8432  0.7650
   96SAPC   C38 9463   0.796  -0.276   3.665  0.0338  0.6987 -0.4140
   96SAPC   H8X 9464   0.687  -0.286   3.685  0.1602  1.1038  0.5464
   96SAPC   H8Y 9465   0.838  -0.214   3.747  1.9642  0.3624 -1.0993
   96SAPC   C39 9466   0.864  -0.414   3.686 -0.3193  0.0594 -0.1694
   96SAPC   H9X 9467   0.973  -0.399   3.699  0.2957 -2.1216 -2.1216
   96SAPC   H9Y 9468   0.848  -0.488   3.604  3.0681 -1.1554  0.1425
   96SAPC  C310 9469   0.807  -0.474   3.821  0.3975 -1.1044  0.4946
   96SAPC  H10X 9470   0.823  -0.584   3.816 -2.9027 -1.6530 -0.4107
   96SAPC  H10Y 9471   0.696  -0.467   3.821  0.4068 -0.9233  0.8555
   96SAPC  C311 9472   0.874  -0.418   3.951 -0.2958 -0.4551  1.0137
   96SAPC  H11X 9473   0.977  -0.382   3.926  0.1230 -2.7500 -0.9281
   96SAPC  H11Y 9474   0.910  -0.499   4.018 -0.4009  0.4345  2.1602
   96SAPC  C312 9475   0.783  -0.313   4.015 -0.3104 -0.3637  0.4645
   96SAPC  H12X 9476   0.755  -0.237   3.939  1.0044 -0.1488  0.1766
   96SAPC  H12Y 9477   0.834  -0.259   4.097 -2.1814 -0.2164  1.5913
   96SAPC  C313 9478   0.663  -0.362   4.078  0.4763 -0.8194  0.3341
   96SAPC  H13X 9479   0.681  -0.457   4.135  1.1900 -0.2558  1.0880
   96SAPC  H13Y 9480   0.599  -0.391   3.992 -0.7787  1.4194  0.4469
   96SAPC  C314 9481   0.601  -0.251   4.166 -0.3805 -0.5419 -0.6175
   96SAPC  H14X 9482   0.560  -0.169   4.103 -2.1135 -1.4849 -0.7933
   96SAPC  H14Y 9483   0.668  -0.196   4.236 -0.3783 -2.1227  0.6840
   96SAPC  C315 9484   0.486  -0.312   4.251  0.0579 -0.3260 -0.5069
   96SAPC  H15X 9485   0.518  -0.374   4.338 -0.3016 -0.7396 -0.6608
   96SAPC  H15Y 9486   0.423  -0.368   4.178 -0.8678  2.1994 -1.7539
   96SAPC  C316 9487   0.394  -0.206   4.301 -0.4483 -0.2725  0.4201
   96SAPC  H16X 9488   0.296  -0.250   4.329 -0.2199 -0.0888  1.5649
   96SAPC  H16Y 9489   0.390  -0.134   4.217 -0.1421 -2.7801 -1.8682
   96SAPC  C317 9490   0.452  -0.128   4.423 -0.1484  0.2570 -0.2400
   96SAPC  H17X 9491   0.552  -0.083   4.402  0.7607 -1.4250  0.2767
   96SAPC  H17Y 9492   0.472  -0.210   4.496 -2.0713  1.7656  2.1278
   96SAPC  C318 9493   0.349  -0.035   4.479 -0.2645  0.4952 -0.0211
   96SAPC  H18X 9494   0.269  -0.091   4.531 -0.7518  0.7483 -0.4861
   96SAPC  H18Y 9495   0.300   0.019   4.395 -2.5716 -0.3224  0.7337
   96SAPC  H18Z 9496   0.408   0.038   4.538  0.7988  1.7537 -2.4876
   97SAPC     N 9497   1.354   6.350   2.263  0.4814 -0.4776  0.0556
   97SAPC   C12 9498   1.222   6.411   2.306  0.1509 -0.5828 -0.2750
   97SAPC  H12A 9499   1.162   6.426   2.218  0.2298  1.8939  0.0445
   97SAPC  H12B 9500   1.239   6.508   2.350 -1.0945 -0.1215 -0.7766
   97SAPC   C13 9501   1.425   6.437   2.156 -0.5194  0.2233 -0.0357
   97SAPC  H13A 9502   1.529   6.410   2.148 -1.0561 -1.7353 -1.0688
   97SAPC  H13B 9503   1.380   6.419   2.059 -1.0799 -0.5788  0.3535
   97SAPC  H13C 9504   1.410   6.542   2.175 -1.4110 -0.1450  1.4377
   97SAPC   C14 9505   1.442   6.342   2.377 -0.6055 -0.3610 -0.2744
   97SAPC  H14A 9506   1.445   6.441   2.420  3.5543  0.7861 -2.7120
   97SAPC  H14B 9507   1.411   6.278   2.459 -1.1331  0.3356  0.0844
   97SAPC  H14C 9508   1.541   6.317   2.343  0.3583  1.6672  0.8569
   97SAPC   C15 9509   1.334   6.217   2.206 -0.3754 -0.1399  0.1862
   97SAPC  H15A 9510   1.269   6.157   2.268  0.2878  0.6485  1.7143
   97SAPC  H15B 9511   1.276   6.228   2.116  0.5000  3.5689 -0.0641
   97SAPC  H15C 9512   1.428   6.165   2.192  0.2226  1.0694 -0.3672
   97SAPC   C11 9513   1.134   6.347   2.415  0.8787  0.5421  0.0696
   97SAPC  H11A 9514   1.062   6.429   2.433 -0.5307 -0.2618 -1.6372
   97SAPC  H11B 9515   1.215   6.342   2.492  2.3411  0.6191 -1.4041
   97SAPC     P 9516   1.086   6.105   2.485  0.4421  0.1489 -0.0662
   97SAPC   O13 9517   0.980   6.006   2.456  0.2397 -0.5061  0.1839
   97SAPC   O14 9518   1.217   6.039   2.483 -0.3981 -0.0977 -0.2394
   97SAPC   O12 9519   1.079   6.219   2.381  0.3173 -0.2503  0.2416
   97SAPC   O11 9520   1.060   6.177   2.632 -0.3086 -0.0680  0.3193
   97SAPC    C1 9521   1.052   6.090   2.750  0.2449 -0.7588  0.2705
   97SAPC    HA 9522   1.005   5.995   2.716  0.4240  0.4001 -3.6009
   97SAPC    HB 9523   1.152   6.070   2.794  0.1942  0.0329  0.7729
   97SAPC    C2 9524   0.958   6.155   2.856 -0.4130  0.0123  0.3796
   97SAPC    HS 9525   0.875   6.202   2.799 -0.8215 -1.6428 -0.4890
   97SAPC   O21 9526   1.041   6.241   2.934  0.2733 -0.6704  0.1349
   97SAPC   C21 9527   0.965   6.342   2.976  0.3496  0.6520  0.2610
   97SAPC   O22 9528   0.854   6.378   2.938  0.1154  0.7314 -0.7226
   97SAPC   C22 9529   1.050   6.402   3.091  0.0022 -1.0703 -0.4057
   97SAPC   H2R 9530   1.154   6.377   3.062 -0.4109 -0.1318 -2.8580
   97SAPC   H2S 9531   1.018   6.506   3.114 -1.6173 -2.1805  3.1614
   97SAPC    C3 9532   0.898   6.038   2.952  0.6284 -0.2833  0.4381
   97SAPC    HX 9533   0.978   5.968   2.984  0.9802 -0.2835 -0.4045
   97SAPC    HY 9534   0.837   5.975   2.885  1.4072  1.3188 -1.9147
   97SAPC   O31 9535   0.826   6.083   3.071 -0.1046 -0.2466 -0.4374
   97SAPC   C31 9536   0.696   6.115   3.049 -0.6534  0.0576  0.4026
   97SAPC   O32 9537   0.642   6.110   2.940 -0.7074  0.1922 -0.0707
   97SAPC   C32 9538   0.630   6.157   3.176 -0.2461 -0.3455 -0.0783
   97SAPC   H2X 9539   0.671   6.257   3.202 -0.5129 -0.1317 -0.4696
   97SAPC   H2Y 9540   0.669   6.097   3.261 -0.2794 -0.4334 -0.1247
   97SAPC   C23 9541   1.027   6.315   3.219 -0.4370  0.5752 -0.8275
   97SAPC   H3R 9542   1.055   6.208   3.207  0.5941  0.2439  3.1640
   97SAPC   H3S 9543   0.918   6.321   3.241 -0.7243  0.7254 -2.2058
   97SAPC   C24 9544   1.102   6.370   3.346 -1.4569  0.1101  0.1913
   97SAPC   H4R 9545   1.062   6.330   3.442  0.2362 -2.4497 -0.0804
   97SAPC   H4S 9546   1.083   6.479   3.345 -0.4174  0.3159  0.7154
   97SAPC   C25 9547   1.250   6.345   3.355  0.7906  1.0022  0.0731
   97SAPC   H5R 9548   1.304   6.382   3.267 -0.1852 -0.8452 -1.3779
   97SAPC   C26 9549   1.312   6.284   3.458  0.3019  0.1907 -0.0242
   97SAPC   H6R 9550   1.422   6.277   3.453  0.3043  0.8407 -1.7374
   97SAPC   C27 9551   1.255   6.213   3.577  0.7932  0.3483 -0.3043
   97SAPC   H7R 9552   1.267   6.103   3.574  1.4673  0.3743  0.9925
   97SAPC   H7S 9553   1.145   6.222   3.581  0.5768 -2.0328  0.4130
   97SAPC   C28 9554   1.303   6.261   3.709  1.1617 -0.5952  0.4099
   97SAPC   H8R 9555   1.381   6.338   3.710  0.0432  0.6859 -2.0169
   97SAPC   C29 9556   1.257   6.222   3.823  0.0193  0.1518 -0.3189
   97SAPC   H9R 9557   1.277   6.277   3.916  0.1589 -0.4431  0.0002
   97SAPC  C210 9558   1.148   6.111   3.839  0.0401 -0.2197 -0.2787
   97SAPC  H10R 9559   1.108   6.076   3.741 -0.4969 -2.7532  0.7500
   97SAPC  H10S 9560   1.064   6.154   3.896  0.0062 -1.1719  0.4102
   97SAPC  C211 9561   1.199   5.993   3.918 -0.4874 -0.1341  0.4261
   97SAPC  H11R 9562   1.248   5.913   3.860 -1.7469 -1.4249  1.0681
   97SAPC  C212 9563   1.207   5.976   4.052 -0.0092 -0.6491  0.0505
   97SAPC  H12R 9564   1.258   5.883   4.080  0.7578 -0.5005 -0.8196
   97SAPC  C213 9565   1.160   6.081   4.152  0.0815  0.5773 -0.1824
   97SAPC  H13R 9566   1.050   6.064   4.159  0.4739 -2.1551  0.6527
   97SAPC  H13S 9567   1.171   6.188   4.124 -1.4232  0.4632 -1.3105
   97SAPC  C214 9568   1.221   6.065   4.290 -0.7269  0.3442 -0.0772
   97SAPC  H14R 9569   1.331   6.072   4.283 -0.6849 -0.4003 -0.2415
   97SAPC  C215 9570   1.151   6.038   4.404 -0.4627  0.2804  0.4462
   97SAPC  H15R 9571   1.205   6.031   4.500 -1.0998  0.4534  0.8234
   97SAPC  C216 9572   1.003   6.012   4.416  0.0141  0.8646 -0.5686
   97SAPC  H16R 9573   0.964   5.988   4.315 -0.6000  2.0892 -0.6386
   97SAPC  H16S 9574   0.963   6.112   4.441  0.7235  1.1513 -0.5494
   97SAPC  C217 9575   0.973   5.891   4.514 -0.0540 -0.2687 -0.3177
   97SAPC  H17R 9576   1.052   5.813   4.505 -0.2258 -0.3584 -1.1337
   97SAPC  H17S 9577   0.875   5.843   4.493 -0.4725  0.0699  0.8126
   97SAPC  C218 9578   0.983   5.927   4.663 -0.5060 -0.7439  0.5316
   97SAPC  H18R 9579   0.925   6.016   4.693 -0.7948 -0.9222  0.5037
   97SAPC  H18S 9580   1.091   5.950   4.672 -0.9598  2.4290 -0.9944
   97SAPC  C219 9581   0.938   5.814   4.751 -0.5437  0.8329  1.1072
   97SAPC  H19R 9582   0.978   5.712   4.728  0.1545  1.3961 -0.2918
   97SAPC  H19S 9583   0.831   5.799   4.729 -0.4667 -1.4434  2.0018
   97SAPC  C220 9584   0.957   5.847   4.899 -0.3164 -0.1812  0.3828
   97SAPC  H20R 9585   1.064   5.869   4.920  0.3141 -2.0945 -0.5577
   97SAPC  H20S 9586   0.931   5.764   4.969  1.0266  0.7586  2.0844
   97SAPC  H20T 9587   0.903   5.942   4.917  0.3647  0.1218  0.8776
   97SAPC   C33 9588   0.470   6.161   3.171 -0.3095  0.3250 -0.3403
   97SAPC   H3X 9589   0.430   6.086   3.100 -1.7934  1.7106 -1.0292
   97SAPC   H3Y 9590   0.431   6.258   3.132 -1.0325 -0.3243 -1.2618
   97SAPC   C34 9591   0.410   6.137   3.309  0.1264  0.2221 -0.1438
   97SAPC   H4X 9592   0.431   6.030   3.332  4.2775  0.7203 -0.7015
   97SAPC   H4Y 9593   0.300   6.142   3.319  0.1146 -2.4693  2.6565
   97SAPC   C35 9594   0.466   6.230   3.421 -0.0076 -0.0355  0.4843
   97SAPC   H5X 9595   0.474   6.331   3.375 -1.3417 -0.9140 -1.8959
   97SAPC   H5Y 9596   0.569   6.197   3.446  1.3405  3.4375  0.1114
   97SAPC   C36 9597   0.382   6.221   3.548 -0.2043  0.9720 -0.2896
   97SAPC   H6X 9598   0.373   6.113   3.573 -0.3899  1.2915  1.0992
   97SAPC   H6Y 9599   0.280   6.259   3.524  0.1468 -0.0156 -3.9957
   97SAPC   C37 9600   0.434   6.300   3.664 -0.2015  0.2775 -0.0686
   97SAPC   H7X 9601   0.440   6.408   3.636  0.2614 -0.2111 -1.9840
   97SAPC   H7Y 9602   0.544   6.281   3.671  0.1814  2.3343  0.2177
   97SAPC   C38 9603   0.360   6.286   3.803 -0.0518  0.6203  0.2463
   97SAPC   H8X 9604   0.253   6.294   3.776  0.1356 -1.1442 -1.2391
   97SAPC   H8Y 9605   0.391   6.372   3.866 -0.9594  2.1343 -1.3271
   97SAPC   C39 9606   0.384   6.154   3.873 -0.7053 -0.2394  0.1318
   97SAPC   H9X 9607   0.483   6.167   3.924 -0.7110  0.1140  0.0580
   97SAPC   H9Y 9608   0.414   6.067   3.811  2.7078 -0.3374  1.6716
   97SAPC  C310 9609   0.266   6.108   3.960 -0.0793 -0.2668 -0.3499
   97SAPC  H10X 9610   0.291   6.006   3.997 -1.7938  0.1189  2.0980
   97SAPC  H10Y 9611   0.175   6.100   3.897 -0.1830 -1.9644 -0.0410
   97SAPC  C311 9612   0.235   6.193   4.082 -0.2046  0.5958  0.1213
   97SAPC  H11X 9613   0.131   6.232   4.079 -0.1135  1.4586  3.9268
   97SAPC  H11Y 9614   0.297   6.285   4.078  0.6815  0.0179  0.2059
   97SAPC  C312 9615   0.258   6.113   4.215 -0.8301 -0.0099 -0.1335
   97SAPC  H12X 9616   0.366   6.084   4.211 -0.9335 -0.5714  0.7708
   97SAPC  H12Y 9617   0.195   6.023   4.233  0.6643 -0.9568  0.6247
   97SAPC  C313 9618   0.250   6.199   4.343  0.7318  0.5686  0.4367
   97SAPC  H13X 9619   0.339   6.265   4.350  1.5893 -0.4579 -0.3749
   97SAPC  H13Y 9620   0.251   6.132   4.432  1.9372  0.9162  0.7032
   97SAPC  C314 9621   0.125   6.286   4.363 -0.6627  0.8174  0.0631
   97SAPC  H14X 9622   0.034   6.226   4.344  0.7275 -1.5221  0.4129
   97SAPC  H14Y 9623   0.121   6.373   4.293 -0.2236 -0.9555 -2.3175
   97SAPC  C315 9624   0.128   6.320   4.511 -0.4099 -0.4008 -0.3953
   97SAPC  H15X 9625   0.235   6.339   4.533 -0.3721 -1.5153  0.4420
   97SAPC  H15Y 9626   0.084   6.235   4.567 -3.4502  0.9163 -0.5531
   97SAPC  C316 9627   0.057   6.448   4.549 -0.2961  0.8607 -0.5504
   97SAPC  H16X 9628  -0.052   6.424   4.551  0.0846 -0.9085  0.5837
   97SAPC  H16Y 9629   0.078   6.532   4.479 -2.2876  1.0830 -0.9407
   97SAPC  C317 9630   0.081   6.490   4.693  0.6379  0.2900  0.3725
   97SAPC  H17X 9631   0.191   6.486   4.709  0.9711 -0.1691 -1.7676
   97SAPC  H17Y 9632   0.045   6.401   4.750  2.8771 -1.2245 -0.4594
   97SAPC  C318 9633   0.011   6.624   4.728  0.0685  0.0485 -0.3565
   97SAPC  H18X 9634   0.041   6.707   4.660 -1.3331  2.6432  2.0133
   97SAPC  H18Y 9635   0.047   6.652   4.829  0.8813 -0.9723 -0.3450
   97SAPC  H18Z 9636  -0.100   6.619   4.734 -0.0152  1.3034 -0.5681
   98SAPC     N 9637   3.612   2.049   1.972 -0.1947  0.2745  0.4739
   98SAPC   C12 9638   3.528   1.927   1.991  0.3230  0.0680 -0.0611
   98SAPC  H12A 9639   3.521   1.874   1.897 -0.1604  1.9503 -1.1302
   98SAPC  H12B 9640   3.425   1.954   2.009  0.7082  2.2530 -0.8168
   98SAPC   C13 9641   3.741   2.007   1.925 -0.5167  0.8505 -0.1745
   98SAPC  H13A 9642   3.771   1.920   1.982 -0.9855  1.9078  1.7570
   98SAPC  H13B 9643   3.754   1.991   1.819  0.7568 -1.7794  0.2944
   98SAPC  H13C 9644   3.814   2.083   1.951  1.1253 -0.5998 -0.3304
   98SAPC   C14 9645   3.539   2.140   1.878  0.1432  0.2532  0.8057
   98SAPC  H14A 9646   3.442   2.165   1.920 -0.0195  0.2354  0.4529
   98SAPC  H14B 9647   3.594   2.233   1.867  1.3918 -0.4813  0.6927
   98SAPC  H14C 9648   3.527   2.095   1.780  0.5959  0.4283  0.6696
   98SAPC   C15 9649   3.630   2.127   2.105 -0.5770  0.0388  0.0723
   98SAPC  H15A 9650   3.706   2.203   2.093  0.4844 -1.0996 -0.7384
   98SAPC  H15B 9651   3.540   2.165   2.149 -0.6597 -0.4092  0.2929
   98SAPC  H15C 9652   3.679   2.059   2.173 -0.0040  1.1467  0.8050
   98SAPC   C11 9653   3.576   1.830   2.102  0.2864  0.5077  0.4429
   98SAPC  H11A 9654   3.488   1.767   2.128 -0.7237  1.6179 -0.1783
   98SAPC  H11B 9655   3.589   1.886   2.197  0.6235 -0.4490  0.9675
   98SAPC     P 9656   3.684   1.623   1.993 -0.2172 -0.2550 -0.0440
   98SAPC   O13 9657   3.585   1.642   1.883 -0.4569  0.2621 -0.1345
   98SAPC   O14 9658   3.813   1.554   1.965  0.6089 -0.1964  0.3085
   98SAPC   O12 9659   3.701   1.758   2.075  0.0276  0.4173 -0.1930
   98SAPC   O11 9660   3.617   1.538   2.105  0.0962 -0.2922 -0.1330
   98SAPC    C1 9661   3.679   1.515   2.235 -0.8305 -0.0891 -0.0634
   98SAPC    HA 9662   3.789   1.530   2.228 -0.8968  0.1884 -0.5981
   98SAPC    HB 9663   3.645   1.593   2.307  1.6620 -0.4427  1.6182
   98SAPC    C2 9664   3.647   1.377   2.296 -0.2590 -0.5970 -0.3386
   98SAPC    HS 9665   3.543   1.349   2.270  0.5388 -1.1879 -3.2391
   98SAPC   O21 9666   3.673   1.394   2.442  0.1562  0.7411 -0.0476
   98SAPC   C21 9667   3.581   1.351   2.518  0.9795 -0.1297 -1.2998
   98SAPC   O22 9668   3.471   1.312   2.480 -0.2598 -0.6320 -0.0739
   98SAPC   C22 9669   3.612   1.365   2.669 -0.0019  0.5063 -0.1824
   98SAPC   H2R 9670   3.723   1.365   2.677  0.0100 -1.3483  0.1626
   98SAPC   H2S 9671   3.581   1.465   2.706 -0.3071  0.5107 -0.4529
   98SAPC    C3 9672   3.754   1.273   2.244  0.8053  0.5126  0.3199
   98SAPC    HX 9673   3.850   1.309   2.288 -0.5910  1.6990  2.5930
   98SAPC    HY 9674   3.763   1.260   2.134  1.7826 -1.1865  0.5602
   98SAPC   O31 9675   3.706   1.153   2.308  0.2260 -0.1263  0.3542
   98SAPC   C31 9676   3.796   1.057   2.286 -0.2292  0.2237 -0.0453
   98SAPC   O32 9677   3.906   1.068   2.232  0.6551  0.1723  0.3270
   98SAPC   C32 9678   3.750   0.918   2.329 -0.2511 -0.4871  0.1676
   98SAPC   H2X 9679   3.783   0.851   2.247 -0.3852 -1.4806  0.9135
   98SAPC   H2Y 9680   3.643   0.917   2.360  0.0271  0.4651  1.2241
   98SAPC   C23 9681   3.545   1.258   2.753 -0.3240 -0.5025  0.0401
   98SAPC   H3R 9682   3.576   1.157   2.719  0.2630 -0.4841  0.5054
   98SAPC   H3S 9683   3.435   1.260   2.737 -0.6316 -1.3742  1.7372
   98SAPC   C24 9684   3.566   1.270   2.897  0.1824  0.1676 -0.5232
   98SAPC   H4R 9685   3.674   1.284   2.920  0.1878  0.8154 -0.9004
   98SAPC   H4S 9686   3.533   1.174   2.942 -0.5828  0.6150 -0.1034
   98SAPC   C25 9687   3.510   1.391   2.957  0.1620 -0.2681  0.8902
   98SAPC   H5R 9688   3.576   1.479   2.954 -3.2156  2.4957  1.4466
   98SAPC   C26 9689   3.383   1.419   3.002  0.1390  0.3134  0.4073
   98SAPC   H6R 9690   3.373   1.511   3.061  2.9839  0.3796  0.9547
   98SAPC   C27 9691   3.267   1.324   2.991  0.1539 -0.1154 -0.4154
   98SAPC   H7R 9692   3.232   1.293   3.092  1.4219  1.1751  0.4596
   98SAPC   H7S 9693   3.294   1.234   2.932  0.4438 -0.1560 -0.2224
   98SAPC   C28 9694   3.166   1.410   2.914  0.4160  0.5874  0.5601
   98SAPC   H8R 9695   3.184   1.426   2.807 -0.9171  2.9946  0.6245
   98SAPC   C29 9696   3.062   1.467   2.969 -0.1661 -0.2587 -0.1395
   98SAPC   H9R 9697   3.003   1.538   2.909  0.6184  1.0816  0.6321
   98SAPC  C210 9698   3.011   1.461   3.117  0.0050 -0.6653  0.0103
   98SAPC  H10R 9699   3.047   1.363   3.155  2.2129  0.5037  1.0829
   98SAPC  H10S 9700   2.902   1.440   3.131 -0.1568  0.5707  0.7068
   98SAPC  C211 9701   3.076   1.556   3.215  0.1552  0.0011 -0.4375
   98SAPC  H11R 9702   3.138   1.631   3.162 -1.5363 -0.5154 -3.3621
   98SAPC  C212 9703   3.063   1.560   3.352 -0.3179 -0.1808  0.4654
   98SAPC  H12R 9704   3.132   1.627   3.406 -0.6210  0.0631  0.5537
   98SAPC  C213 9705   2.993   1.466   3.441  0.6033  0.4794 -0.3335
   98SAPC  H13R 9706   2.905   1.414   3.396  0.8253 -1.1884  1.0449
   98SAPC  H13S 9707   2.945   1.529   3.518 -0.5869 -0.5679 -0.1872
   98SAPC  C214 9708   3.085   1.359   3.499  0.3642 -0.2388  0.3262
   98SAPC  H14R 9709   3.135   1.295   3.424 -0.1194 -1.5279  1.0665
   98SAPC  C215 9710   3.114   1.344   3.636  0.2574 -0.2609  0.6586
   98SAPC  H15R 9711   3.182   1.261   3.659  1.8812  0.8104 -0.1076
   98SAPC  C216 9712   3.056   1.432   3.744 -0.3823  0.6324 -0.0526
   98SAPC  H16R 9713   2.951   1.466   3.735 -0.8732 -1.1381 -1.5591
   98SAPC  H16S 9714   3.119   1.522   3.761  0.1289  0.1589  0.6288
   98SAPC  C217 9715   3.056   1.350   3.883 -0.5129  0.3660 -0.6032
   98SAPC  H17R 9716   3.153   1.317   3.925 -1.1427  1.0254  1.4793
   98SAPC  H17S 9717   2.998   1.256   3.871  0.9513 -0.9328  1.7778
   98SAPC  C218 9718   2.990   1.437   3.992  0.1802  0.1703  0.2144
   98SAPC  H18R 9719   2.889   1.463   3.956  0.5873  0.4645 -0.7423
   98SAPC  H18S 9720   3.048   1.531   3.996  0.7724 -0.2125  2.4426
   98SAPC  C219 9721   3.008   1.379   4.134  0.6557  0.3031 -0.3629
   98SAPC  H19R 9722   3.114   1.390   4.167 -0.1702  0.3251  2.4691
   98SAPC  H19S 9723   2.987   1.270   4.131  0.6468  0.2930  0.0141
   98SAPC  C220 9724   2.930   1.434   4.251  0.1042  0.4550  0.1435
   98SAPC  H20R 9725   2.820   1.423   4.241  0.2908 -0.6102 -0.9290
   98SAPC  H20S 9726   2.951   1.543   4.258  1.3048  0.1377  2.4385
   98SAPC  H20T 9727   2.960   1.385   4.346 -1.7597 -2.8867 -0.8629
   98SAPC   C33 9728   3.830   0.877   2.455 -0.4592  0.2169  0.3477
   98SAPC   H3X 9729   3.935   0.850   2.431 -0.8789  1.0568 -2.9627
   98SAPC   H3Y 9730   3.784   0.779   2.480  0.3193 -0.3435 -0.3323
   98SAPC   C34 9731   3.811   0.965   2.581  0.1632 -0.1403  0.2949
   98SAPC   H4X 9732   3.703   0.986   2.595  0.1231  0.7854 -1.1554
   98SAPC   H4Y 9733   3.858   1.065   2.571 -1.0857  0.3868 -0.4469
   98SAPC   C35 9734   3.853   0.911   2.721  0.0358 -0.7845  0.6173
   98SAPC   H5X 9735   3.957   0.873   2.714  0.4998 -0.0451  2.6889
   98SAPC   H5Y 9736   3.782   0.828   2.741 -1.1253  0.0754  0.1808
   98SAPC   C36 9737   3.834   1.018   2.829 -0.2505 -0.1736 -0.7449
   98SAPC   H6X 9738   3.726   1.040   2.839 -0.3403 -1.5312  2.1661
   98SAPC   H6Y 9739   3.882   1.115   2.801  0.2768 -0.1661  0.1583
   98SAPC   C37 9740   3.876   0.953   2.962  0.7229 -0.1907 -0.3674
   98SAPC   H7X 9741   3.982   0.919   2.961  0.6607 -0.4785 -2.6651
   98SAPC   H7Y 9742   3.815   0.866   2.993  1.3027 -0.4010  0.1999
   98SAPC   C38 9743   3.860   1.062   3.064  0.1222 -0.2255  0.0509
   98SAPC   H8X 9744   3.764   1.112   3.040  1.9305  3.0458 -0.8491
   98SAPC   H8Y 9745   3.942   1.136   3.054 -0.7371  1.0300  1.6761
   98SAPC   C39 9746   3.869   1.020   3.209 -0.6274  0.0508  0.0062
   98SAPC   H9X 9747   3.955   0.951   3.209 -1.6971 -1.3454 -0.9638
   98SAPC   H9Y 9748   3.774   0.969   3.238 -0.1428  0.9722  3.6821
   98SAPC  C310 9749   3.889   1.133   3.301 -0.4277 -0.2566 -0.0714
   98SAPC  H10X 9750   3.798   1.193   3.280 -1.6224 -1.6180  0.9985
   98SAPC  H10Y 9751   3.985   1.180   3.272  0.0981 -0.5662  1.1208
   98SAPC  C311 9752   3.882   1.088   3.447 -0.4396  1.4237  0.4751
   98SAPC  H11X 9753   3.951   1.005   3.470 -0.1704  0.6988 -2.5690
   98SAPC  H11Y 9754   3.782   1.043   3.464  0.1264 -0.4711 -0.9325
   98SAPC  C312 9755   3.917   1.196   3.540 -0.1075 -0.6539  0.9251
   98SAPC  H12X 9756   3.870   1.290   3.502 -1.4775 -2.2143 -1.4708
   98SAPC  H12Y 9757   4.027   1.216   3.543 -0.4466  1.4432  1.3943
   98SAPC  C313 9758   3.879   1.164   3.688 -0.2981  0.1055  0.8894
   98SAPC  H13X 9759   3.957   1.090   3.716  2.4342  2.7078  0.6946
   98SAPC  H13Y 9760   3.775   1.127   3.699  0.4238 -1.8633  1.4439
   98SAPC  C314 9761   3.887   1.290   3.768  0.5657  0.3417 -1.1055
   98SAPC  H14X 9762   3.798   1.354   3.750 -0.8138 -0.5062  1.9511
   98SAPC  H14Y 9763   3.976   1.355   3.751  2.0863 -0.6579  2.1172
   98SAPC  C315 9764   3.893   1.257   3.919  0.1766  0.2950  0.3492
   98SAPC  H15X 9765   3.987   1.197   3.929  0.3756  0.2702 -1.2766
   98SAPC  H15Y 9766   3.809   1.193   3.951  0.6465  0.3333  1.7559
   98SAPC  C316 9767   3.890   1.371   4.014 -0.4408  0.2491 -0.1262
   98SAPC  H16X 9768   3.794   1.426   4.011 -0.6190 -0.0912 -0.7803
   98SAPC  H16Y 9769   3.969   1.445   3.989 -1.5722  1.3904 -0.3876
   98SAPC  C317 9770   3.920   1.337   4.163  0.5746 -0.4529  0.0990
   98SAPC  H17X 9771   3.919   1.436   4.213  0.0859  1.5732 -3.5170
   98SAPC  H17Y 9772   4.015   1.283   4.179  0.7797 -0.0623  0.2095
   98SAPC  C318 9773   3.801   1.248   4.220 -0.1203 -0.0525  0.4328
   98SAPC  H18X 9774   3.701   1.293   4.203 -0.1759 -0.6781 -1.0445
   98SAPC  H18Y 9775   3.813   1.239   4.330 -0.1953  2.4575  0.7141
   98SAPC  H18Z 9776   3.820   1.154   4.165  0.8037 -0.7152  1.8382
   99SAPC     N 9777   1.020   3.947   2.317 -0.2912 -0.6948  0.2883
   99SAPC   C12 9778   1.127   3.838   2.290  0.1437 -0.2622  0.1909
   99SAPC  H12A 9779   1.170   3.868   2.196 -0.2650 -2.3681 -0.7296
   99SAPC  H12B 9780   1.084   3.745   2.255  0.6138 -0.4721  0.1649
   99SAPC   C13 9781   0.956   3.931   2.455 -0.0929  0.1190  0.4882
   99SAPC  H13A 9782   0.914   3.832   2.462 -0.9739  0.2490 -1.9134
   99SAPC  H13B 9783   1.033   3.931   2.531  1.1500  4.5385 -0.4720
   99SAPC  H13C 9784   0.879   4.000   2.485 -1.4409 -1.2421  0.2690
   99SAPC   C14 9785   1.078   4.087   2.305  0.7492 -0.0412 -0.3845
   99SAPC  H14A 9786   1.157   4.108   2.376 -0.1209  1.8337  0.0847
   99SAPC  H14B 9787   1.105   4.104   2.202 -0.1152  1.6588 -0.3734
   99SAPC  H14C 9788   1.002   4.162   2.324  0.6744  0.0445 -0.9944
   99SAPC   C15 9789   0.912   3.936   2.211 -0.4125  0.0678 -0.0256
   99SAPC  H15A 9790   0.830   3.996   2.246  0.8663  2.2190 -0.5479
   99SAPC  H15B 9791   0.940   3.977   2.115 -1.3417  0.7077 -0.0373
   99SAPC  H15C 9792   0.878   3.835   2.192 -2.3040  0.6165  0.2342
   99SAPC   C11 9793   1.238   3.818   2.390 -0.4787  0.1378  0.2200
   99SAPC  H11A 9794   1.209   3.778   2.490  0.2228  2.8456  1.5925
   99SAPC  H11B 9795   1.287   3.915   2.413  1.4208 -1.0877  1.6227
   99SAPC     P 9796   1.334   3.584   2.315  0.1328 -0.0592  0.0219
   99SAPC   O13 9797   1.269   3.548   2.187  0.0288  0.0146 -0.3338
   99SAPC   O14 9798   1.473   3.533   2.333 -0.2365 -0.6727 -0.0000
   99SAPC   O12 9799   1.342   3.740   2.322  0.5804  0.4255 -0.2662
   99SAPC   O11 9800   1.244   3.533   2.433  0.2605 -0.1606 -0.0314
   99SAPC    C1 9801   1.277   3.433   2.525 -0.6794 -0.1746 -0.4962
   99SAPC    HA 9802   1.176   3.397   2.553 -1.2062  1.7873  0.3153
   99SAPC    HB 9803   1.346   3.354   2.487  1.0045  0.9685  0.0690
   99SAPC    C2 9804   1.353   3.492   2.646  0.6737 -0.2816 -0.5860
   99SAPC    HS 9805   1.312   3.591   2.677 -0.7235 -0.3616 -2.0724
   99SAPC   O21 9806   1.492   3.496   2.613 -0.2113  0.5467  0.7566
   99SAPC   C21 9807   1.575   3.580   2.661  0.1590 -0.3661  0.2556
   99SAPC   O22 9808   1.545   3.669   2.738 -0.7366  0.0573 -0.9352
   99SAPC   C22 9809   1.726   3.547   2.634  0.2313  0.7023 -0.1038
   99SAPC   H2R 9810   1.731   3.437   2.651 -1.0103  0.8198  1.2616
   99SAPC   H2S 9811   1.752   3.569   2.528  1.2536  0.4399  0.0860
   99SAPC    C3 9812   1.343   3.399   2.771  0.0516 -0.8327  0.1358
   99SAPC    HX 9813   1.393   3.305   2.738  0.0627 -0.6861 -0.2804
   99SAPC    HY 9814   1.239   3.366   2.793  0.0399 -0.0852  1.2265
   99SAPC   O31 9815   1.414   3.451   2.881  0.3906  0.4621 -0.3979
   99SAPC   C31 9816   1.342   3.538   2.945  0.0282  0.8404 -0.4560
   99SAPC   O32 9817   1.231   3.580   2.917  0.1146  0.6580  0.0350
   99SAPC   C32 9818   1.428   3.601   3.056  0.5441 -0.2818  0.0675
   99SAPC   H2X 9819   1.492   3.675   3.004 -0.8880 -0.3228 -1.8947
   99SAPC   H2Y 9820   1.494   3.523   3.097  0.4765 -2.0018 -2.8243
   99SAPC   C23 9821   1.821   3.612   2.721  0.0395 -0.4121  0.7189
   99SAPC   H3R 9822   1.801   3.721   2.735  1.1424  0.3477 -2.7023
   99SAPC   H3S 9823   1.918   3.601   2.669 -0.8298  0.8673 -1.2606
   99SAPC   C24 9824   1.827   3.551   2.860  0.0884  0.1272  0.6568
   99SAPC   H4R 9825   1.847   3.441   2.859 -2.9192 -0.5156  0.9657
   99SAPC   H4S 9826   1.731   3.550   2.916  0.0729 -3.2760  0.7921
   99SAPC   C25 9827   1.924   3.623   2.956 -0.3503 -0.1262  0.3034
   99SAPC   H5R 9828   2.001   3.689   2.911  0.3114 -0.5816  0.7423
   99SAPC   C26 9829   1.917   3.645   3.092  0.3681 -0.7747  0.6304
   99SAPC   H6R 9830   1.989   3.712   3.142 -1.0121 -0.5280  2.4435
   99SAPC   C27 9831   1.805   3.590   3.179 -0.3940  1.0918  0.3803
   99SAPC   H7R 9832   1.848   3.496   3.219  2.9205  2.4103  0.3112
   99SAPC   H7S 9833   1.708   3.562   3.133 -0.1574  0.3219  0.3344
   99SAPC   C28 9834   1.775   3.684   3.298  0.2291 -0.4495 -0.1848
   99SAPC   H8R 9835   1.736   3.782   3.265  1.6881  0.6493  1.2077
   99SAPC   C29 9836   1.798   3.665   3.424  0.4467  0.5287 -0.0008
   99SAPC   H9R 9837   1.750   3.740   3.489 -3.2076 -1.5884 -0.0042
   99SAPC  C210 9838   1.859   3.541   3.486 -0.5249 -0.3199  0.4049
   99SAPC  H10R 9839   1.908   3.485   3.402  0.4235 -0.3844  0.9848
   99SAPC  H10S 9840   1.778   3.475   3.522 -1.3087 -0.6501 -1.7817
   99SAPC  C211 9841   1.965   3.564   3.590 -0.3391 -0.5240 -0.7892
   99SAPC  H11R 9842   1.934   3.561   3.696  0.9528 -2.5845 -0.4060
   99SAPC  C212 9843   2.095   3.573   3.569 -0.4535 -0.0728 -0.3105
   99SAPC  H12R 9844   2.159   3.584   3.658  1.9732  0.0924 -1.9587
   99SAPC  C213 9845   2.171   3.575   3.436  0.8567  0.3188 -0.7853
   99SAPC  H13R 9846   2.235   3.664   3.448 -1.0735  1.5293  1.4821
   99SAPC  H13S 9847   2.101   3.584   3.350 -0.3218 -1.5934 -0.1050
   99SAPC  C214 9848   2.248   3.445   3.409 -0.7896  0.6906 -0.0291
   99SAPC  H14R 9849   2.214   3.370   3.481 -1.5089  1.6488  0.6649
   99SAPC  C215 9850   2.327   3.412   3.304 -0.0427 -0.0583 -0.3733
   99SAPC  H15R 9851   2.364   3.311   3.284  1.8883  0.9740 -2.5072
   99SAPC  C216 9852   2.364   3.506   3.192  0.6724 -0.9312  0.3803
   99SAPC  H16R 9853   2.466   3.478   3.160  0.5367 -0.1860 -0.7693
   99SAPC  H16S 9854   2.360   3.615   3.216 -1.9172 -0.2944 -2.2873
   99SAPC  C217 9855   2.286   3.480   3.060  0.0437 -0.3212  0.7012
   99SAPC  H17R 9856   2.175   3.492   3.057  0.2015  1.0982 -1.2352
   99SAPC  H17S 9857   2.292   3.377   3.020 -4.3118 -0.4531 -0.0889
   99SAPC  C218 9858   2.337   3.572   2.945  0.2088  0.5005  0.7115
   99SAPC  H18R 9859   2.447   3.559   2.939 -0.1524 -3.6227 -0.7066
   99SAPC  H18S 9860   2.310   3.678   2.964 -0.6421  0.4799 -0.2303
   99SAPC  C219 9861   2.295   3.531   2.806 -0.0440  0.1626 -0.6056
   99SAPC  H19R 9862   2.185   3.546   2.795 -0.0949  0.1307 -0.1581
   99SAPC  H19S 9863   2.306   3.421   2.799 -1.1424  0.0435 -0.6988
   99SAPC  C220 9864   2.364   3.603   2.693  0.6645 -0.1530  0.3853
   99SAPC  H20R 9865   2.339   3.711   2.706 -3.1910 -0.1037 -4.2920
   99SAPC  H20S 9866   2.336   3.576   2.588  1.9000 -0.5708  0.1486
   99SAPC  H20T 9867   2.473   3.587   2.698  0.8735  0.7990 -0.6271
   99SAPC   C33 9868   1.334   3.666   3.161 -0.1522 -0.1018  0.3683
   99SAPC   H3X 9869   1.263   3.588   3.197 -1.0857  0.0426 -1.0442
   99SAPC   H3Y 9870   1.275   3.750   3.118  0.4190 -0.3955 -1.0523
   99SAPC   C34 9871   1.417   3.723   3.280 -0.5323 -0.1546  0.6555
   99SAPC   H4X 9872   1.476   3.814   3.258 -0.5391 -0.6904 -1.8886
   99SAPC   H4Y 9873   1.498   3.654   3.312 -1.4628 -1.6607 -0.1558
   99SAPC   C35 9874   1.342   3.754   3.411  0.0877  0.6097  0.5779
   99SAPC   H5X 9875   1.311   3.654   3.449  0.0122 -0.3375 -1.8118
   99SAPC   H5Y 9876   1.253   3.819   3.397 -1.5086 -1.3371  1.1943
   99SAPC   C36 9877   1.429   3.823   3.520  0.0663 -0.2107 -0.2402
   99SAPC   H6X 9878   1.378   3.906   3.573  0.3025  1.4533 -2.4603
   99SAPC   H6Y 9879   1.507   3.873   3.459 -1.6262  0.5106 -1.9258
   99SAPC   C37 9880   1.483   3.726   3.620 -0.0535 -0.2156 -0.5643
   99SAPC   H7X 9881   1.533   3.637   3.576 -1.1019 -0.6971 -0.8186
   99SAPC   H7Y 9882   1.399   3.676   3.674  0.1730 -0.3628 -0.3479
   99SAPC   C38 9883   1.575   3.794   3.724  0.3540  0.5971 -0.1187
   99SAPC   H8X 9884   1.512   3.852   3.795 -0.5131 -1.0000  0.4680
   99SAPC   H8Y 9885   1.645   3.863   3.671  0.6540 -0.0336 -0.5619
   99SAPC   C39 9886   1.644   3.686   3.812  0.0039  0.1812  0.1679
   99SAPC   H9X 9887   1.684   3.603   3.750 -0.1386 -0.0114  0.3330
   99SAPC   H9Y 9888   1.580   3.652   3.896  1.3786 -1.8870  0.4659
   99SAPC  C310 9889   1.772   3.754   3.866  0.0371 -0.2473  0.3493
   99SAPC  H10X 9890   1.730   3.842   3.919  1.9998  0.1857  1.3045
   99SAPC  H10Y 9891   1.836   3.787   3.782 -1.5309  0.1346 -0.7384
   99SAPC  C311 9892   1.845   3.677   3.982 -0.1994 -0.4455  0.8116
   99SAPC  H11X 9893   1.924   3.738   4.031 -0.7311  0.5218  0.5024
   99SAPC  H11Y 9894   1.909   3.593   3.947 -1.4872 -0.1114 -2.8096
   99SAPC  C312 9895   1.759   3.630   4.095  0.4277 -0.0066 -0.7747
   99SAPC  H12X 9896   1.696   3.540   4.080 -0.5013  0.5290 -0.1502
   99SAPC  H12Y 9897   1.682   3.709   4.108  0.6301  0.3910 -1.8871
   99SAPC  C313 9898   1.839   3.613   4.231  0.0802 -0.4057  0.2144
   99SAPC  H13X 9899   1.902   3.705   4.236 -1.0299  0.3938 -0.1876
   99SAPC  H13Y 9900   1.892   3.518   4.207  0.5553  0.1644 -1.0932
   99SAPC  C314 9901   1.751   3.617   4.359 -0.7459 -0.2526  0.4924
   99SAPC  H14X 9902   1.667   3.546   4.341 -0.1168 -0.7121 -0.7896
   99SAPC  H14Y 9903   1.712   3.720   4.370  0.4316  0.3173 -0.3674
   99SAPC  C315 9904   1.845   3.580   4.469  0.9603 -0.7334  0.1023
   99SAPC  H15X 9905   1.913   3.667   4.482 -3.1469  2.7434  0.3813
   99SAPC  H15Y 9906   1.894   3.483   4.446  0.9655 -0.5258 -0.7711
   99SAPC  C316 9907   1.772   3.574   4.605 -0.2285  0.8341  0.0058
   99SAPC  H16X 9908   1.719   3.477   4.620 -0.1319  1.0042  1.6009
   99SAPC  H16Y 9909   1.690   3.648   4.610 -0.9816 -0.0039  4.1206
   99SAPC  C317 9910   1.860   3.603   4.731  0.2712  0.2619  0.8230
   99SAPC  H17X 9911   1.928   3.689   4.713  0.6253  0.1322  1.5045
   99SAPC  H17Y 9912   1.919   3.511   4.748 -0.8703 -0.7114 -0.2816
   99SAPC  C318 9913   1.783   3.643   4.852  0.4705  0.2199  0.2360
   99SAPC  H18X 9914   1.839   3.625   4.946  0.0813  1.4289  0.7210
   99SAPC  H18Y 9915   1.691   3.582   4.856 -0.1949  1.1800 -0.0781
   99SAPC  H18Z 9916   1.743   3.746   4.848 -1.7367 -0.6263 -1.8838
  100SAPC     N 9917   6.156   3.616   2.166  0.0962  0.3027 -0.2911
  100SAPC   C12 9918   6.164   3.489   2.258 -0.0730 -0.0057  0.3316
  100SAPC  H12A 9919   6.244   3.512   2.327 -1.0311  2.4335  0.7492
  100SAPC  H12B 9920   6.197   3.402   2.203  2.9061  0.3072  1.4405
  100SAPC   C13 9921   6.068   3.590   2.050 -0.6895 -0.4435  0.6426
  100SAPC  H13A 9922   6.130   3.539   1.979  0.6197  1.6305  0.2038
  100SAPC  H13B 9923   5.987   3.531   2.090 -1.2177 -1.0210 -1.2141
  100SAPC  H13C 9924   6.033   3.681   2.002  0.1705  0.9398  2.4984
  100SAPC   C14 9925   6.101   3.734   2.238  0.3490 -0.1610 -0.6997
  100SAPC  H14A 9926   6.087   3.823   2.178 -0.3007  0.7249  0.7105
  100SAPC  H14B 9927   6.014   3.704   2.294 -0.9524  1.7033 -1.6231
  100SAPC  H14C 9928   6.178   3.753   2.311  0.9788 -1.2946 -1.0438
  100SAPC   C15 9929   6.288   3.650   2.120 -0.4959  0.2145 -0.0906
  100SAPC  H15A 9930   6.291   3.726   2.043  0.1553 -0.8532 -1.1407
  100SAPC  H15B 9931   6.347   3.674   2.208  1.0551 -0.0256 -1.0349
  100SAPC  H15C 9932   6.332   3.564   2.073  0.3064  1.4628 -1.7196
  100SAPC   C11 9933   6.044   3.468   2.346 -0.0755 -0.0904  0.5629
  100SAPC  H11A 9934   6.017   3.557   2.407  1.1497 -2.0644  4.3425
  100SAPC  H11B 9935   6.065   3.390   2.422  3.1510  0.6256  0.5697
  100SAPC     P 9936   5.906   3.288   2.220  0.3869 -0.6743 -0.0106
  100SAPC   O13 9937   5.782   3.286   2.143  0.2379  0.3557 -0.6394
  100SAPC   O14 9938   6.023   3.222   2.153 -0.3646  0.4734  0.3279
  100SAPC   O12 9939   5.933   3.440   2.262  0.3170  0.4166  0.4424
  100SAPC   O11 9940   5.875   3.212   2.350  0.1687  0.5483 -0.5269
  100SAPC    C1 9941   5.755   3.242   2.425 -0.0240 -0.1803 -0.6259
  100SAPC    HA 9942   5.661   3.259   2.368 -2.0662 -1.3561  2.1436
  100SAPC    HB 9943   5.732   3.152   2.486  1.4672 -2.0555 -2.6885
  100SAPC    C2 9944   5.779   3.356   2.530 -0.1271 -0.3767 -0.4896
  100SAPC    HS 9945   5.808   3.445   2.470  4.2341 -1.4937 -0.3738
  100SAPC   O21 9946   5.888   3.315   2.618  0.7939 -0.3396 -0.7270
  100SAPC   C21 9947   5.932   3.419   2.692 -0.0968  0.1452  0.2798
  100SAPC   O22 9948   5.909   3.539   2.677 -0.1133  0.1365  0.3566
  100SAPC   C22 9949   6.035   3.366   2.787 -0.4795 -0.1307  0.5792
  100SAPC   H2R 9950   6.008   3.400   2.890 -2.2457  1.3628 -0.2969
  100SAPC   H2S 9951   6.026   3.256   2.785 -4.9432  0.0023 -3.3173
  100SAPC    C3 9952   5.639   3.389   2.609 -0.0993  0.0055  0.4167
  100SAPC    HX 9953   5.568   3.421   2.529  0.1047 -3.3213 -1.2763
  100SAPC    HY 9954   5.650   3.471   2.683  0.1327 -1.2221  1.7898
  100SAPC   O31 9955   5.566   3.271   2.644  0.0231  0.3731  0.2193
  100SAPC   C31 9956   5.612   3.201   2.749  0.2466  0.4681 -0.0278
  100SAPC   O32 9957   5.699   3.231   2.828 -0.4637 -0.0100 -0.3150
  100SAPC   C32 9958   5.546   3.062   2.755  0.0899 -0.0220 -1.2195
  100SAPC   H2X 9959   5.626   2.986   2.750 -0.1380 -0.2925 -0.7007
  100SAPC   H2Y 9960   5.476   3.067   2.668  1.3600 -0.5223 -2.3119
  100SAPC   C23 9961   6.178   3.417   2.750 -0.1912 -0.1845 -0.1521
  100SAPC   H3R 9962   6.175   3.527   2.734  0.0610 -0.1699 -0.1110
  100SAPC   H3S 9963   6.215   3.362   2.661  0.3089 -0.0630 -0.0228
  100SAPC   C24 9964   6.284   3.398   2.869 -0.0305  0.0626  0.7517
  100SAPC   H4R 9965   6.239   3.464   2.946 -1.8132 -1.8938  1.4950
  100SAPC   H4S 9966   6.386   3.431   2.839 -0.5621 -0.1973 -1.4834
  100SAPC   C25 9967   6.277   3.255   2.914 -0.5855 -0.1012  0.2444
  100SAPC   H5R 9968   6.260   3.177   2.839  0.5633 -1.4614  1.3224
  100SAPC   C26 9969   6.264   3.216   3.037 -0.2479  0.1905 -0.4310
  100SAPC   H6R 9970   6.260   3.110   3.065  1.8503 -0.0198 -0.8007
  100SAPC   C27 9971   6.265   3.290   3.167 -0.3479 -0.7755 -0.6028
  100SAPC   H7R 9972   6.174   3.269   3.226 -0.5573  1.8856  0.1265
  100SAPC   H7S 9973   6.257   3.400   3.157 -2.1292 -0.9068 -0.7947
  100SAPC   C28 9974   6.389   3.273   3.253  0.5966 -0.1408  0.3522
  100SAPC   H8R 9975   6.477   3.242   3.194  1.8173  2.0890  0.8559
  100SAPC   C29 9976   6.408   3.305   3.381  0.3621  0.1659  0.0735
  100SAPC   H9R 9977   6.509   3.288   3.421  0.6519 -1.1211 -1.1405
  100SAPC  C210 9978   6.315   3.377   3.477 -0.3654 -0.6604  0.7809
  100SAPC  H10R 9979   6.211   3.351   3.447  0.0195 -1.5878  0.2266
  100SAPC  H10S 9980   6.327   3.487   3.462 -0.1385 -0.6975  0.6974
  100SAPC  C211 9981   6.337   3.355   3.625  0.8184  0.1767  0.2331
  100SAPC  H11R 9982   6.417   3.413   3.673  1.1419 -0.6213  0.6732
  100SAPC  C212 9983   6.281   3.259   3.695 -0.4668  0.1840  0.2814
  100SAPC  H12R 9984   6.308   3.247   3.801  1.4092  0.6726 -0.1054
  100SAPC  C213 9985   6.173   3.159   3.654  0.9804 -0.1338  0.8349
  100SAPC  H13R 9986   6.074   3.209   3.655 -0.7024 -2.9187 -2.5658
  100SAPC  H13S 9987   6.166   3.070   3.721 -1.0780 -1.2587 -0.7584
  100SAPC  C214 9988   6.165   3.084   3.523 -0.4611 -0.2762 -0.1932
  100SAPC  H14R 9989   6.266   3.059   3.488  0.5169  2.2574  0.6021
  100SAPC  C215 9990   6.052   3.049   3.450 -0.1512  0.0384 -0.2952
  100SAPC  H15R 9991   6.065   3.011   3.348 -1.1162  0.0987 -0.4437
  100SAPC  C216 9992   5.911   3.084   3.487 -0.0693  0.2899  0.0614
  100SAPC  H16R 9993   5.890   3.193   3.489  0.1235  0.4097 -2.0130
  100SAPC  H16S 9994   5.883   3.042   3.586 -0.3266 -0.2955 -0.2543
  100SAPC  C217 9995   5.802   3.033   3.388 -0.0741  0.0820 -0.3271
  100SAPC  H17R 9996   5.701   3.052   3.431  0.3868 -0.2419  0.9298
  100SAPC  H17S 9997   5.802   2.922   3.384 -0.6355  0.0816 -0.5058
  100SAPC  C218 9998   5.805   3.104   3.252 -0.0888  0.0060  0.0962
  100SAPC  H18R 9999   5.719   3.074   3.188 -1.2789 -0.4022  1.8341
  100SAPC  H18S10000   5.898   3.072   3.201  1.0946  0.4657  1.8703
  100SAPC  C21910001   5.787   3.258   3.265  0.3622 -0.0450  0.1948
  100SAPC  H19R10002   5.873   3.307   3.315 -0.2272  0.4767  0.7169
  100SAPC  H19S10003   5.696   3.286   3.322  0.8753 -0.3375  1.1730
  100SAPC  C22010004   5.763   3.324   3.122  0.2661  0.3363 -0.3021
  100SAPC  H20R10005   5.779   3.434   3.133 -0.7252  0.6024 -1.3404
  100SAPC  H20S10006   5.657   3.309   3.094  0.2462  0.4043 -0.2638
  100SAPC  H20T10007   5.831   3.294   3.040 -0.6950 -1.8138 -0.3659
  100SAPC   C3310008   5.465   3.029   2.888 -0.3741 -0.4299 -0.4974
  100SAPC   H3X10009   5.528   2.985   2.968 -1.1648 -2.6434 -1.0252
  100SAPC   H3Y10010   5.390   2.953   2.859  0.5040 -1.2271 -0.7265
  100SAPC   C3410011   5.393   3.149   2.955  0.5284  0.6666 -0.4141
  100SAPC   H4X10012   5.326   3.198   2.882  1.0010  1.1207 -0.5497
  100SAPC   H4Y10013   5.471   3.223   2.982  1.2152 -0.3291  0.4255
  100SAPC   C3510014   5.328   3.121   3.090  0.3994  0.1238  0.4118
  100SAPC   H5X10015   5.403   3.072   3.156  1.3303 -2.1853 -2.1475
  100SAPC   H5Y10016   5.248   3.045   3.073 -1.1000  1.4003  1.4152
  100SAPC   C3610017   5.262   3.236   3.175 -0.3893  0.7577  1.0371
  100SAPC   H6X10018   5.174   3.271   3.117 -0.8739 -0.5147  0.9778
  100SAPC   H6Y10019   5.340   3.314   3.182 -0.5008  1.1722 -1.4307
  100SAPC   C3710020   5.216   3.188   3.307 -0.3021  0.2789  0.1402
  100SAPC   H7X10021   5.174   3.086   3.296 -1.3129  0.8358 -1.4036
  100SAPC   H7Y10022   5.135   3.254   3.345 -1.5841 -0.1646 -1.6818
  100SAPC   C3810023   5.332   3.198   3.417  0.7582 -0.5294 -0.4301
  100SAPC   H8X10024   5.356   3.305   3.429  0.4825 -0.3271 -1.6095
  100SAPC   H8Y10025   5.425   3.156   3.372 -0.1466 -0.7115 -2.2180
  100SAPC   C3910026   5.291   3.134   3.550  0.2306 -0.4012 -0.2530
  100SAPC   H9X10027   5.230   3.041   3.546  1.7459 -1.7788  3.5649
  100SAPC   H9Y10028   5.226   3.207   3.603  1.4819  0.5575  0.0015
  100SAPC  C31010029   5.415   3.099   3.638 -0.6458  0.2053  0.0130
  100SAPC  H10X10030   5.499   3.166   3.610 -0.9898  0.0466 -1.4764
  100SAPC  H10Y10031   5.459   2.999   3.615 -1.1340 -0.3769  1.5150
  100SAPC  C31110032   5.378   3.116   3.782 -0.0675 -0.3168  0.7112
  100SAPC  H11X10033   5.289   3.058   3.813  0.7594 -0.9041  2.0652
  100SAPC  H11Y10034   5.372   3.223   3.809  1.2044 -0.3690  1.2982
  100SAPC  C31210035   5.497   3.062   3.874  0.7211  0.3953  0.2312
  100SAPC  H12X10036   5.479   2.953   3.878 -1.0715  0.6554  0.1592
  100SAPC  H12Y10037   5.470   3.111   3.970 -0.6260 -0.2636  0.2192
  100SAPC  C31310038   5.640   3.075   3.826 -0.1519  0.5134 -0.1298
  100SAPC  H13X10039   5.670   3.179   3.800  1.5527 -0.1130 -0.7664
  100SAPC  H13Y10040   5.641   3.014   3.733 -1.8370 -0.1495  0.2401
  100SAPC  C31410041   5.734   3.023   3.929  0.1146  0.1106  0.1077
  100SAPC  H14X10042   5.705   2.923   3.969 -1.0328 -0.2609 -1.5395
  100SAPC  H14Y10043   5.741   3.099   4.009 -0.2679 -0.2100  0.4485
  100SAPC  C31510044   5.878   3.006   3.873 -0.0659 -0.3551  0.0174
  100SAPC  H15X10045   5.914   3.098   3.821 -1.5966 -0.4798 -1.3554
  100SAPC  H15Y10046   5.869   2.924   3.799  0.0014 -1.1423  0.8633
  100SAPC  C31610047   5.986   2.966   3.978 -0.2632 -0.7348 -0.4170
  100SAPC  H16X10048   6.085   2.941   3.934  0.2826  2.3906 -1.2020
  100SAPC  H16Y10049   5.949   2.876   4.032 -0.8524 -0.3909 -0.2396
  100SAPC  C31710050   6.025   3.063   4.089  0.2063 -0.0089  0.5324
  100SAPC  H17X10051   5.940   3.122   4.130  0.3129 -0.9375  2.2101
  100SAPC  H17Y10052   6.085   3.143   4.041  0.1357  0.2443  0.8609
  100SAPC  C31810053   6.095   3.011   4.214 -0.1087  0.2686  0.2417
  100SAPC  H18X10054   6.196   2.973   4.187 -0.6981 -1.7185  0.6455
  100SAPC  H18Y10055   6.039   2.931   4.267 -1.2388  0.6817 -0.2919
  100SAPC  H18Z10056   6.094   3.086   4.296 -1.8115  0.0904  0.4365
  101OSM      N10057   6.369   0.846   6.831  0.1735 -0.4251  0.0129
  101OSM    C1510058   6.474   0.901   6.733 -0.5305  0.1969 -0.9022
  101OSM   H15A10059   6.539   0.829   6.687 -0.3165  0.3132 -0.7859
  101OSM   H15B10060   6.544   0.968   6.782  1.5412 -2.1173 -0.4893
  101OSM   H15C10061   6.421   0.957   6.658  1.6467  0.6985 -2.1625
  101OSM    C1410062   6.438   0.796   6.951  0.0060 -0.5454  0.7576
  101OSM   H14A10063   6.495   0.712   6.914  2.0087  1.1196 -0.1647
  101OSM   H14B10064   6.372   0.753   7.025 -0.9536 -4.3294 -1.9667
  101OSM   H14C10065   6.510   0.864   6.993  0.8568  0.1719 -1.7136
  101OSM    C1310066   6.303   0.973   6.878  0.0475  0.3272  0.1691
  101OSM   H13A10067   6.229   0.947   6.952 -0.5648 -2.8034 -1.3889
  101OSM   H13B10068   6.261   1.023   6.792 -2.7422 -1.0432  0.6351
  101OSM   H13C10069   6.365   1.051   6.921  0.3629  0.7497 -1.0118
  101OSM    C1210070   6.268   0.753   6.766 -0.3479  0.2386 -0.0137
  101OSM   H12A10071   6.186   0.746   6.835 -0.4505  1.7665  0.0658
  101OSM   H12B10072   6.308   0.653   6.759  0.2925  0.4813  0.1292
  101OSM    C1110073   6.213   0.779   6.619 -0.0065 -0.4463 -0.3418
  101OSM   H11A10074   6.154   0.700   6.569 -1.5114  1.2133 -1.3362
  101OSM   H11B10075   6.295   0.791   6.545 -2.7286  1.3215 -3.3509
  101OSM      P10076   5.979   0.901   6.655  0.0886 -0.0863 -0.1423
  101OSM    O1310077   5.969   0.818   6.777  0.3094 -0.1580  0.0193
  101OSM    O1410078   5.930   1.040   6.669  0.6674  0.5117  0.0750
  101OSM    O1110079   5.913   0.817   6.537  0.1392 -0.2237  0.2892
  101OSM    O1210080   6.134   0.899   6.614  0.3517 -0.3158 -0.3191
  101OSM    C1S10081   5.862   0.895   6.425  0.0158 -0.1410 -0.0285
  101OSM    H1S10082   5.916   0.991   6.414 -0.7748  0.2483 -0.6312
  101OSM    H1T10083   5.752   0.906   6.439 -0.1403 -2.1550  0.6126
  101OSM     NF10084   5.804   0.893   6.177 -0.2942  0.0330 -0.3802
  101OSM    HNF10085   5.756   0.840   6.108 -0.4679  0.1049 -0.3152
  101OSM    C2S10086   5.877   0.821   6.283 -0.4445 -0.3336 -0.3002
  101OSM    H2S10087   5.980   0.851   6.255 -0.7767  1.1499  0.0063
  101OSM    C3S10088   5.863   0.666   6.283 -0.4399 -0.0803 -0.0677
  101OSM    H3S10089   5.758   0.637   6.305 -0.1712 -2.5895 -1.6859
  101OSM     O310090   5.942   0.590   6.380  0.1877  0.6229 -0.2906
  101OSM    HO310091   5.969   0.659   6.441  3.1980 -1.1663  0.6658
  101OSM    C4S10092   5.891   0.611   6.144 -0.0058  0.2696  0.0507
  101OSM    H4S10093   5.993   0.586   6.112 -0.1485 -2.0795  1.1680
  101OSM    C5S10094   5.790   0.573   6.055  0.4259 -0.9508 -1.2044
  101OSM    H5S10095   5.691   0.603   6.092  1.5422  0.0468  1.1907
  101OSM    C6S10096   5.799   0.517   5.916  0.2863 -0.1824 -0.1401
  101OSM    H6S10097   5.737   0.580   5.848  1.1063 -0.3129 -1.0242
  101OSM    H6T10098   5.756   0.416   5.895 -0.7546  0.3051 -0.4188
  101OSM    C7S10099   5.929   0.534   5.850 -1.1876  0.5000 -0.6381
  101OSM    H7S10100   6.007   0.477   5.905 -0.4888  1.5099 -0.5494
  101OSM    H7T10101   5.955   0.640   5.828 -1.9122  0.5390 -1.3726
  101OSM    C8S10102   5.925   0.478   5.707 -0.0207  0.0422 -0.0040
  101OSM    H8S10103   5.907   0.368   5.713 -0.3040  0.0971  0.2028
  101OSM    H8T10104   6.029   0.484   5.668  0.3170  2.9676  1.1104
  101OSM    C9S10105   5.829   0.545   5.612  0.4539 -0.1818  0.3514
  101OSM    H9S10106   5.856   0.653   5.615  2.4343 -0.5721 -1.5611
  101OSM    H9T10107   5.723   0.514   5.628  0.7827 -2.7571 -1.9055
  101OSM   C10S10108   5.859   0.518   5.465 -0.4956  0.2837 -1.0994
  101OSM   H10S10109   5.939   0.591   5.439 -2.1401  3.0905  1.1002
  101OSM   H10T10110   5.777   0.547   5.396  0.9018 -0.0507 -2.9635
  101OSM   C11S10111   5.911   0.377   5.437  0.2378 -0.1032  0.6400
  101OSM   H11S10112   5.999   0.348   5.498 -0.3399 -1.5555  0.8213
  101OSM   H11T10113   5.940   0.391   5.331 -1.3224 -1.8231 -0.0765
  101OSM   C12S10114   5.802   0.269   5.445  0.6124  0.7183  0.7295
  101OSM   H12S10115   5.741   0.285   5.537 -0.3523 -0.9090  0.4015
  101OSM   H12T10116   5.856   0.173   5.457  1.1719  0.7770 -1.1216
  101OSM   C13S10117   5.706   0.264   5.322 -0.1318 -0.3712 -0.0697
  101OSM   H13S10118   5.784   0.249   5.245 -0.1194 -0.4183 -0.0477
  101OSM   H13T10119   5.638   0.351   5.312  0.9787  0.4840 -0.3590
  101OSM   C14S10120   5.630   0.132   5.308  0.2120  0.5291 -0.8396
  101OSM   H14S10121   5.538   0.136   5.371  1.3506 -0.2667  0.9168
  101OSM   H14T10122   5.698   0.050   5.339 -0.5567  1.1292  2.7755
  101OSM   C15S10123   5.594   0.092   5.167  0.2222  0.1944 -0.0423
  101OSM   H15S10124   5.673   0.089   5.090 -1.0219  2.1560 -1.5027
  101OSM   H15T10125   5.522   0.172   5.136 -1.0105 -0.4952  0.9319
  101OSM   C16S10126   5.536  -0.048   5.156 -1.2875 -0.0059  0.3330
  101OSM   H16S10127   5.452  -0.066   5.226 -3.8559  1.9641 -2.0152
  101OSM   H16T10128   5.617  -0.123   5.167 -1.0030  0.3503  0.6852
  101OSM   C17S10129   5.476  -0.076   5.014  0.0020 -0.4327  0.3427
  101OSM   H17S10130   5.548  -0.066   4.931  0.5842  0.3409  0.9269
  101OSM   H17T10131   5.401   0.002   4.991 -0.1607 -0.3098  1.2437
  101OSM   C18S10132   5.417  -0.222   5.008 -0.0406 -0.1434  0.1510
  101OSM   H18S10133   5.331  -0.241   5.077 -0.9550 -1.0636 -1.1953
  101OSM   H18T10134   5.495  -0.301   5.013  1.0564  0.9893  1.9184
  101OSM   H18U10135   5.383  -0.239   4.904  1.6190  1.5020 -0.6974
  101OSM    C1F10136   5.825   1.025   6.145  0.1564  0.0990 -0.7007
  101OSM     OF10137   5.896   1.096   6.219  0.2058 -0.2328  0.7027
  101OSM    C2F10138   5.765   1.078   6.018  0.2606 -0.0881  0.4787
  101OSM    H2F10139   5.689   1.156   6.041 -0.1766 -0.3264 -0.1472
  101OSM    H2G10140   5.702   0.993   5.985 -0.4590  0.9131 -0.8413
  101OSM    C3F10141   5.869   1.121   5.917 -0.2006 -0.1108  0.1326
  101OSM    H3F10142   5.942   1.038   5.908  1.5579  1.6005 -3.2749
  101OSM    H3G10143   5.917   1.221   5.931  1.6482 -0.6951 -1.6217
  101OSM    C4F10144   5.797   1.141   5.782  0.2745 -0.2942  0.1911
  101OSM    H4F10145   5.726   1.223   5.808  1.3504 -0.5351  4.6156
  101OSM    H4G10146   5.743   1.050   5.747 -0.8991  0.4710 -0.0748
  101OSM    C5F10147   5.898   1.173   5.674  0.0424 -0.4957 -0.3810
  101OSM    H5F10148   5.955   1.081   5.648  2.6270  1.4010 -1.9225
  101OSM    H5G10149   5.976   1.246   5.704  0.9674 -0.3576 -2.8932
  101OSM    C6F10150   5.843   1.222   5.543  0.4005 -0.3411  0.4923
  101OSM    H6F10151   5.927   1.258   5.480 -0.5089  0.4058 -0.3324
  101OSM    H6G10152   5.769   1.302   5.564 -1.5860 -1.6660 -1.0850
  101OSM    C7F10153   5.763   1.120   5.463 -0.4250 -0.0197  0.4452
  101OSM    H7F10154   5.689   1.066   5.527 -1.4365  1.5942  0.7124
  101OSM    H7G10155   5.840   1.049   5.427  0.4538  0.5036  1.2338
  101OSM    C8F10156   5.669   1.175   5.354  0.0838  0.7204 -0.0388
  101OSM    H8F10157   5.634   1.093   5.287  1.9919 -0.5290  0.4144
  101OSM    H8G10158   5.723   1.237   5.280 -0.7090 -0.6270 -1.8260
  101OSM    C9F10159   5.554   1.261   5.407  0.1094  0.2095 -0.2369
  101OSM    H9F10160   5.574   1.309   5.504 -1.5090  0.6077 -0.0586
  101OSM   C10F10161   5.438   1.292   5.352  0.0562  0.2859  0.8310
  101OSM   H10F10162   5.367   1.360   5.402  0.0728 -0.4214  1.8499
  101OSM   C11F10163   5.399   1.239   5.218  0.0989  0.2649  0.1934
  101OSM   H11F10164   5.289   1.248   5.211  0.0627 -0.8009 -1.0091
  101OSM   H11G10165   5.431   1.133   5.208 -0.1080  0.3195 -1.3695
  101OSM   C12F10166   5.463   1.311   5.099  0.1189 -0.5629 -0.6459
  101OSM   H12F10167   5.571   1.323   5.122 -0.1148  1.7459 -0.4751
  101OSM   H12G10168   5.422   1.414   5.099 -1.6573 -1.1811  1.6060
  101OSM   C13F10169   5.436   1.254   4.963 -0.0531  0.4480  0.0482
  101OSM   H13F10170   5.454   1.338   4.893 -0.9053 -2.2536 -3.7585
  101OSM   H13G10171   5.329   1.228   4.948 -0.7307  1.9381  1.9521
  101OSM   C14F10172   5.516   1.131   4.926  0.2464 -0.5386  0.0890
  101OSM   H14F10173   5.478   1.044   4.985  0.6458  0.5879  2.0865
  101OSM   H14G10174   5.623   1.155   4.947 -0.1196 -0.4135  1.9538
  101OSM   C15F10175   5.495   1.087   4.774 -0.2455  1.0264  0.1472
  101OSM   H15F10176   5.551   0.992   4.763  1.3537  1.4412  3.4071
  101OSM   H15G10177   5.536   1.167   4.709 -0.1161  1.8850  1.2432
  101OSM   C16F10178   5.355   1.058   4.721  0.2186  0.6542 -0.5467
  101OSM   H16F10179   5.286   1.145   4.730  0.4626  0.9930 -1.7210
  101OSM   H16G10180   5.322   0.973   4.784 -0.2544  0.3896 -1.1371
  101OSM   C17F10181   5.357   1.003   4.574  0.6401  0.0713  0.6406
  101OSM   H17F10182   5.428   1.067   4.517  1.2345 -0.2329  1.0373
  101OSM   H17G10183   5.255   1.009   4.529  0.5817  0.8355  0.8506
  101OSM   C18F10184   5.416   0.859   4.556  0.2859  0.0938 -0.1833
  101OSM   H18F10185   5.521   0.857   4.590  1.1429  0.7044 -2.6214
  101OSM   H18G10186   5.419   0.835   4.448 -0.6028 -0.8710 -0.0163
  101OSM   H18H10187   5.352   0.789   4.615  0.0568  0.8443  0.4772
  102OSM      N10188   0.260   0.657   6.675 -0.6683 -0.6917 -0.3925
  102OSM    C1510189   0.217   0.640   6.537 -0.0808  0.0904  0.2097
  102OSM   H15A10190   0.126   0.697   6.530  0.8511  1.6653  0.3849
  102OSM   H15B10191   0.203   0.537   6.509  1.6099  0.1371 -0.9731
  102OSM   H15C10192   0.281   0.691   6.466  0.0832 -0.2988  0.0765
  102OSM    C1410193   0.383   0.581   6.698 -0.5916 -0.0179 -0.5119
  102OSM   H14A10194   0.420   0.564   6.798  0.7820  0.5106 -0.9042
  102OSM   H14B10195   0.469   0.622   6.648 -0.8322  0.1151 -0.8190
  102OSM   H14C10196   0.375   0.483   6.652  1.0740  0.4714 -1.9685
  102OSM    C1310197   0.298   0.795   6.705  0.2633 -0.0997  0.1645
  102OSM   H13A10198   0.209   0.854   6.687 -0.1084 -1.1751 -1.8444
  102OSM   H13B10199   0.370   0.827   6.631  2.9853 -1.3841  2.0918
  102OSM   H13C10200   0.343   0.816   6.801  0.8538  1.1027 -0.3544
  102OSM    C1210201   0.154   0.615   6.773  0.0956  0.0784 -0.2439
  102OSM   H12A10202   0.195   0.634   6.871  1.4627  1.5654 -1.0468
  102OSM   H12B10203   0.137   0.509   6.763 -2.5546  0.0650  2.8975
  102OSM    C1110204   0.011   0.677   6.768 -0.1762  0.2053  0.0281
  102OSM   H11A10205   0.020   0.785   6.744  0.9904  0.1493  0.1671
  102OSM   H11B10206  -0.046   0.670   6.863 -0.2145 -0.8422 -0.0603
  102OSM      P10207  -0.122   0.467   6.679 -0.0015 -0.1959 -0.0175
  102OSM    O1310208  -0.011   0.375   6.715  0.3183 -0.5005  0.4696
  102OSM    O1410209  -0.243   0.464   6.759  0.7702  0.3799 -0.6127
  102OSM    O1110210  -0.157   0.444   6.525 -0.1721 -0.2148  0.4785
  102OSM    O1210211  -0.065   0.618   6.662 -0.1144  0.0876  0.3659
  102OSM    C1S10212  -0.275   0.506   6.472 -0.4190  0.6549  0.2618
  102OSM    H1S10213  -0.288   0.611   6.506 -0.4920  1.0002 -0.8156
  102OSM    H1T10214  -0.363   0.454   6.515  0.7092 -0.9990  0.6588
  102OSM     NF10215  -0.389   0.598   6.253 -0.5572 -0.7440 -0.7170
  102OSM    HNF10216  -0.482   0.563   6.263 -1.1824  1.2732  1.6950
  102OSM    C2S10217  -0.283   0.506   6.318  0.0068  0.2659  0.1203
  102OSM    H2S10218  -0.181   0.542   6.293  0.2554 -0.9133 -0.6207
  102OSM    C3S10219  -0.301   0.358   6.268  0.1321  0.2384 -0.9932
  102OSM    H3S10220  -0.398   0.323   6.310 -0.2047  0.6176 -1.4338
  102OSM     O310221  -0.200   0.268   6.319  0.2994 -0.2801  0.1457
  102OSM    HO310222  -0.170   0.317   6.395  1.7519  0.0080 -0.5742
  102OSM    C4S10223  -0.298   0.346   6.116  1.1141  1.0892 -0.4667
  102OSM    H4S10224  -0.231   0.415   6.062  0.6730 -0.5061 -3.2386
  102OSM    C5S10225  -0.389   0.267   6.051 -0.0421  0.1423 -0.5517
  102OSM    H5S10226  -0.465   0.217   6.112  0.5815 -2.7158 -1.9158
  102OSM    C6S10227  -0.401   0.256   5.902 -0.8423  0.3669 -0.2700
  102OSM    H6S10228  -0.421   0.151   5.873  0.3838  0.2441 -0.7121
  102OSM    H6T10229  -0.298   0.275   5.864 -0.9997  3.1529  0.4787
  102OSM    C7S10230  -0.488   0.365   5.838 -0.1907  0.1254  0.2051
  102OSM    H7S10231  -0.466   0.470   5.867 -0.8059  1.2901 -3.1021
  102OSM    H7T10232  -0.595   0.339   5.856 -0.8039  0.3714 -2.6284
  102OSM    C8S10233  -0.466   0.359   5.676  0.0096  0.4425  0.0308
  102OSM    H8S10234  -0.359   0.374   5.650 -0.0034  0.2886 -0.1073
  102OSM    H8T10235  -0.525   0.444   5.635  0.4671  1.3869  1.2569
  102OSM    C9S10236  -0.526   0.235   5.622 -0.2864 -0.4618 -0.0553
  102OSM    H9S10237  -0.632   0.224   5.652 -0.4204  1.2677  0.1806
  102OSM    H9T10238  -0.466   0.153   5.668  0.1627 -1.0728 -1.6253
  102OSM   C10S10239  -0.493   0.225   5.475 -0.3087  0.2485 -0.2968
  102OSM   H10S10240  -0.384   0.206   5.464 -0.1130  1.6531 -1.0015
  102OSM   H10T10241  -0.506   0.324   5.427  2.2863 -0.4452 -2.7084
  102OSM   C11S10242  -0.567   0.117   5.406 -0.0571  0.4021  0.6032
  102OSM   H11S10243  -0.664   0.094   5.456 -1.3029  2.5237 -0.6929
  102OSM   H11T10244  -0.509   0.023   5.415 -0.4153  0.1982  0.8248
  102OSM   C12S10245  -0.621   0.161   5.270  0.0902 -0.7313 -0.0170
  102OSM   H12S10246  -0.533   0.194   5.211 -0.0364  2.0280  1.1756
  102OSM   H12T10247  -0.690   0.247   5.284  1.0888 -0.0845  1.1892
  102OSM   C13S10248  -0.706   0.049   5.198  0.3409 -0.0048  0.6903
  102OSM   H13S10249  -0.791   0.016   5.261  0.2024  2.4478  1.9036
  102OSM   H13T10250  -0.636  -0.038   5.197  1.7729  1.1038 -0.0687
  102OSM   C14S10251  -0.757   0.078   5.059  0.4565  0.7551 -0.4273
  102OSM   H14S10252  -0.666   0.088   4.996  3.1471  1.7206  3.2413
  102OSM   H14T10253  -0.813   0.174   5.063 -0.7808  0.0191  0.4136
  102OSM   C15S10254  -0.856  -0.033   5.010  0.0962  0.1470 -0.7399
  102OSM   H15S10255  -0.934   0.012   4.945 -1.3926 -0.7868  0.3566
  102OSM   H15T10256  -0.905  -0.080   5.098  2.2891  2.0070  1.6464
  102OSM   C16S10257  -0.789  -0.156   4.933 -0.8167 -0.1626 -0.0016
  102OSM   H16S10258  -0.845  -0.251   4.946 -0.4488 -0.5537 -1.1866
  102OSM   H16T10259  -0.689  -0.164   4.980  0.0070  3.1826 -0.9294
  102OSM   C17S10260  -0.783  -0.122   4.782 -0.4099  0.2219 -0.6170
  102OSM   H17S10261  -0.703  -0.046   4.775 -0.9625  1.3827  3.2675
  102OSM   H17T10262  -0.877  -0.067   4.760 -1.1177 -0.7953 -0.2005
  102OSM   C18S10263  -0.766  -0.248   4.696  0.2981 -0.1314  0.0948
  102OSM   H18S10264  -0.771  -0.224   4.588 -0.1510 -3.3021 -0.6998
  102OSM   H18T10265  -0.847  -0.323   4.713  0.3313 -0.3735 -0.7479
  102OSM   H18U10266  -0.666  -0.292   4.716  1.0866  1.0862 -1.0045
  102OSM    C1F10267  -0.369   0.730   6.260 -1.4124 -0.0679 -0.2023
  102OSM     OF10268  -0.262   0.774   6.295 -1.4420 -0.0655 -0.0412
  102OSM    C2F10269  -0.483   0.819   6.235  0.5066  0.1776  0.0372
  102OSM    H2F10270  -0.484   0.899   6.312 -0.1626 -0.2507  0.4814
  102OSM    H2G10271  -0.573   0.755   6.246  0.1860  0.4984 -0.6093
  102OSM    C3F10272  -0.498   0.884   6.092 -0.5133  0.5148 -1.1076
  102OSM    H3F10273  -0.407   0.944   6.074 -0.7269  0.7013 -1.5899
  102OSM    H3G10274  -0.572   0.965   6.112  0.0505  0.5606  1.0106
  102OSM    C4F10275  -0.520   0.786   5.973  0.3402  0.0949 -0.1696
  102OSM    H4F10276  -0.612   0.731   5.999 -0.2822  1.1770 -0.0487
  102OSM    H4G10277  -0.432   0.718   5.966  0.9473  0.8806 -0.3313
  102OSM    C5F10278  -0.537   0.854   5.836 -0.3753  0.0978 -0.3922
  102OSM    H5F10279  -0.489   0.954   5.829 -0.4215  0.1638  0.1901
  102OSM    H5G10280  -0.646   0.871   5.820 -1.0411 -2.4357  0.8133
  102OSM    C6F10281  -0.467   0.769   5.735 -0.1565  0.2308  0.6306
  102OSM    H6F10282  -0.506   0.665   5.744 -3.1624  1.1414 -0.6437
  102OSM    H6G10283  -0.358   0.774   5.760 -0.3215  2.0300  1.1188
  102OSM    C7F10284  -0.490   0.821   5.595 -0.2290 -0.6346 -0.4326
  102OSM    H7F10285  -0.416   0.787   5.520 -1.7586 -0.6280 -2.0188
  102OSM    H7G10286  -0.492   0.932   5.609  4.1454  0.0389 -3.1190
  102OSM    C8F10287  -0.621   0.789   5.528  0.2656  0.0843  1.0011
  102OSM    H8F10288  -0.703   0.814   5.599 -1.4260  1.4994 -1.3344
  102OSM    H8G10289  -0.639   0.680   5.520 -0.6469  0.2627  0.5605
  102OSM    C9F10290  -0.661   0.865   5.406  0.0537  0.0307 -0.0125
  102OSM    H9F10291  -0.707   0.963   5.429 -2.2058 -1.0867  0.5088
  102OSM   C10F10292  -0.639   0.824   5.284 -0.5158  0.3507  0.2698
  102OSM   H10F10293  -0.681   0.883   5.201  0.4149 -1.7464 -1.8065
  102OSM   C11F10294  -0.573   0.702   5.227  0.8385  0.0946  0.1097
  102OSM   H11F10295  -0.521   0.651   5.311  1.0396 -1.9128 -1.1478
  102OSM   H11G10296  -0.490   0.725   5.156  0.5677  0.5845 -0.0524
  102OSM   C12F10297  -0.660   0.594   5.164  0.7329  0.2484  0.5172
  102OSM   H12F10298  -0.719   0.547   5.246 -0.9176 -0.6230 -1.0972
  102OSM   H12G10299  -0.598   0.510   5.126 -0.7145 -0.4649 -0.3626
  102OSM   C13F10300  -0.752   0.639   5.042  0.0954  1.0552 -0.6318
  102OSM   H13F10301  -0.699   0.690   4.959 -0.1971  0.6341 -1.0851
  102OSM   H13G10302  -0.829   0.704   5.089  1.2818  2.4958 -0.5983
  102OSM   C14F10303  -0.826   0.512   4.987  0.1481  0.0945  0.1104
  102OSM   H14F10304  -0.897   0.466   5.059  0.7391  0.3311  0.8598
  102OSM   H14G10305  -0.748   0.437   4.964  1.5218  0.8781  1.9754
  102OSM   C15F10306  -0.917   0.534   4.858 -0.1563 -0.1051 -0.4720
  102OSM   H15F10307  -0.970   0.630   4.872  0.0811 -0.2928  2.4468
  102OSM   H15G10308  -0.980   0.442   4.865  0.7231 -0.7152 -0.4164
  102OSM   C16F10309  -0.832   0.544   4.736  0.0490  0.1593  0.0860
  102OSM   H16F10310  -0.787   0.446   4.708 -1.1384  0.0548 -1.5792
  102OSM   H16G10311  -0.758   0.620   4.770 -2.0281  1.6702  1.4895
  102OSM   C17F10312  -0.908   0.604   4.610 -0.5347  0.5132 -0.6183
  102OSM   H17F10313  -0.832   0.609   4.528  0.4468  0.2434  0.2484
  102OSM   H17G10314  -0.929   0.711   4.628  0.9939  0.8751 -0.8238
  102OSM   C18F10315  -1.017   0.514   4.564  0.3623  0.2644 -0.1261
  102OSM   H18F10316  -0.976   0.414   4.540  2.4379  0.7475  1.0915
  102OSM   H18G10317  -1.067   0.558   4.475 -2.9149  0.9230  1.8741
  102OSM   H18H10318  -1.098   0.501   4.639 -0.6147  3.2100 -0.5569
  103OSM      N10319   3.668   0.472   6.597 -0.0746 -0.4600  0.0547
  103OSM    C1510320   3.759   0.469   6.473  0.2166  0.1082 -0.3644
  103OSM   H15A10321   3.704   0.415   6.397  0.6385  1.2216 -1.5002
  103OSM   H15B10322   3.842   0.406   6.503 -1.7643 -1.8666  1.2518
  103OSM   H15C10323   3.781   0.569   6.437  1.6304 -0.5168 -1.3345
  103OSM    C1410324   3.667   0.332   6.646  0.1013  0.1988 -0.2261
  103OSM   H14A10325   3.612   0.324   6.739  0.2460  2.1713  0.0742
  103OSM   H14B10326   3.765   0.293   6.664  0.1984  0.5762  0.0710
  103OSM   H14C10327   3.624   0.258   6.580  0.9177 -0.3044 -0.1995
  103OSM    C1310328   3.730   0.559   6.701 -0.6161  0.4212 -0.2997
  103OSM   H13A10329   3.725   0.662   6.667  1.2447  0.5829 -0.2057
  103OSM   H13B10330   3.831   0.538   6.733 -0.5688 -2.3999 -1.9377
  103OSM   H13C10331   3.680   0.549   6.796  2.6307  1.2852  1.6437
  103OSM    C1210332   3.529   0.527   6.566 -0.1363  0.3853 -0.2181
  103OSM   H12A10333   3.491   0.557   6.662 -0.0016  0.4935 -0.1973
  103OSM   H12B10334   3.467   0.450   6.522  1.3738 -1.0936  0.1497
  103OSM    C1110335   3.516   0.645   6.469 -0.1641 -1.0525 -0.4408
  103OSM   H11A10336   3.406   0.662   6.468  0.1462  1.6627  1.2595
  103OSM   H11B10337   3.549   0.610   6.369  2.6438 -2.1900  0.7801
  103OSM      P10338   3.679   0.850   6.438  0.3966 -0.1302  0.2377
  103OSM    O1310339   3.676   0.984   6.500 -0.1282 -0.0290  0.8639
  103OSM    O1410340   3.806   0.777   6.437  0.6023 -0.3680 -0.1161
  103OSM    O1110341   3.627   0.860   6.289 -0.6668 -0.1458 -0.0969
  103OSM    O1210342   3.578   0.766   6.521  0.3695  0.3340  0.3535
  103OSM    C1S10343   3.506   0.916   6.248 -0.6510  0.0307  0.1632
  103OSM    H1S10344   3.502   1.023   6.278  1.5842  0.0742  0.4756
  103OSM    H1T10345   3.417   0.872   6.298 -0.8871  0.3909  0.0621
  103OSM     NF10346   3.344   0.970   6.067  0.1201 -0.2792  0.7617
  103OSM    HNF10347   3.259   0.919   6.055 -0.1714  0.1537  0.9836
  103OSM    C2S10348   3.467   0.902   6.098 -0.0769  0.2676 -0.2898
  103OSM    H2S10349   3.554   0.948   6.045  0.4525 -0.3493  0.0354
  103OSM    C3S10350   3.460   0.752   6.058 -0.2161  0.3869  0.2896
  103OSM    H3S10351   3.383   0.692   6.111  0.5805  0.4682  1.5881
  103OSM     O310352   3.581   0.684   6.092  0.0936  0.5015 -0.1866
  103OSM    HO310353   3.625   0.753   6.141 -0.7658  2.5927 -2.1815
  103OSM    C4S10354   3.430   0.739   5.905  0.5908 -0.1975 -0.3254
  103OSM    H4S10355   3.489   0.802   5.837  1.8623 -0.9692  0.0141
  103OSM    C5S10356   3.320   0.675   5.866 -0.3381 -0.0631 -0.2653
  103OSM    H5S10357   3.260   0.628   5.945 -1.8265  0.6421 -0.9183
  103OSM    C6S10358   3.274   0.670   5.726  0.1016 -0.2533 -0.7026
  103OSM    H6S10359   3.164   0.672   5.716 -0.3626  4.8492  2.2539
  103OSM    H6T10360   3.303   0.575   5.677  1.5816  0.7436 -1.8617
  103OSM    C7S10361   3.329   0.782   5.644 -0.4865 -0.3432  0.1126
  103OSM    H7S10362   3.436   0.765   5.619 -0.7900 -1.0317 -0.7782
  103OSM    H7T10363   3.322   0.877   5.701  0.5850  1.6789 -2.9220
  103OSM    C8S10364   3.244   0.803   5.519 -0.3145  0.7586  0.1106
  103OSM    H8S10365   3.142   0.837   5.546  0.0911  4.0316 -1.8691
  103OSM    H8T10366   3.227   0.702   5.475 -0.5636  0.7233  0.2871
  103OSM    C9S10367   3.322   0.886   5.412 -0.0167  0.1054 -0.1246
  103OSM    H9S10368   3.416   0.834   5.384  1.1385  0.8879  2.0931
  103OSM    H9T10369   3.354   0.987   5.444 -0.4243  0.5887 -1.2195
  103OSM   C10S10370   3.235   0.901   5.283  0.3933  0.0636 -0.3220
  103OSM   H10S10371   3.156   0.978   5.297  0.2288 -0.1469 -0.1011
  103OSM   H10T10372   3.190   0.804   5.254 -0.9908  0.5340  0.1834
  103OSM   C11S10373   3.324   0.944   5.166 -0.4026 -0.3129 -0.5255
  103OSM   H11S10374   3.408   0.871   5.160 -1.3104 -1.6784  2.0585
  103OSM   H11T10375   3.365   1.035   5.214 -2.1126 -0.2981  1.0125
  103OSM   C12S10376   3.249   0.934   5.037  0.3451  0.3988  0.4813
  103OSM   H12S10377   3.152   0.986   5.048 -1.2720 -2.6385  1.5546
  103OSM   H12T10378   3.224   0.827   5.019 -1.2003  0.3208  2.6671
  103OSM   C13S10379   3.330   1.008   4.930 -0.1406 -0.7310 -0.6227
  103OSM   H13S10380   3.434   0.973   4.914 -0.0069 -0.0241 -1.3971
  103OSM   H13T10381   3.330   1.118   4.951 -0.8903 -0.1186 -3.4580
  103OSM   C14S10382   3.258   0.990   4.790 -0.2495 -0.1486 -0.8898
  103OSM   H14S10383   3.300   1.065   4.720  2.2245  0.1584  0.7790
  103OSM   H14T10384   3.150   1.013   4.797 -0.7130 -2.0530 -1.1301
  103OSM   C15S10385   3.265   0.859   4.734 -0.0623 -0.1742 -0.5698
  103OSM   H15S10386   3.240   0.772   4.798  1.6671 -0.2284  0.0899
  103OSM   H15T10387   3.369   0.834   4.704 -0.0947 -0.0679 -0.7752
  103OSM   C16S10388   3.168   0.844   4.611  1.2968 -0.4335  0.5519
  103OSM   H16S10389   3.166   0.935   4.548 -0.8416  0.6560  2.0806
  103OSM   H16T10390   3.069   0.838   4.661  1.6459  0.2231  1.3343
  103OSM   C17S10391   3.191   0.718   4.525  0.4607 -1.0115  0.1188
  103OSM   H17S10392   3.204   0.643   4.605  1.6220 -0.0378  0.8852
  103OSM   H17T10393   3.295   0.726   4.486  0.1304  0.4958 -0.5691
  103OSM   C18S10394   3.073   0.694   4.436  0.2815 -0.1686  0.1909
  103OSM   H18S10395   3.076   0.593   4.389 -0.2847  0.1539 -0.5534
  103OSM   H18T10396   3.076   0.761   4.348  0.3198 -2.6486 -1.8093
  103OSM   H18U10397   2.974   0.691   4.487  0.4085 -2.0573  0.3932
  103OSM    C1F10398   3.343   1.101   6.059  0.4847 -0.8018  0.2013
  103OSM     OF10399   3.441   1.173   6.056 -0.3390  0.0502 -0.6476
  103OSM    C2F10400   3.201   1.164   6.060  0.8025  0.0650 -0.8167
  103OSM    H2F10401   3.188   1.214   6.159  0.2264 -1.2809 -0.1936
  103OSM    H2G10402   3.131   1.078   6.055  2.3734 -1.2958 -0.2523
  103OSM    C3F10403   3.175   1.274   5.952  0.3146  0.9176 -0.0692
  103OSM    H3F10404   3.225   1.370   5.977  1.8484  0.0900  0.1574
  103OSM    H3G10405   3.070   1.300   5.974 -0.0351 -1.0717  0.8169
  103OSM    C4F10406   3.186   1.215   5.816  0.1595 -0.0984 -0.5743
  103OSM    H4F10407   3.157   1.108   5.816  1.7125 -0.6381 -4.0093
  103OSM    H4G10408   3.291   1.223   5.781  0.6003 -1.7498  0.2922
  103OSM    C5F10409   3.096   1.292   5.718  0.7138 -1.0394 -0.1954
  103OSM    H5F10410   3.131   1.397   5.714  4.2622 -2.1117 -1.9300
  103OSM    H5G10411   2.996   1.293   5.766  0.3032 -0.2813 -1.0413
  103OSM    C6F10412   3.086   1.244   5.576 -0.8907  0.4682  0.0772
  103OSM    H6F10413   3.076   1.134   5.573 -0.4121  0.3699 -3.6591
  103OSM    H6G10414   3.185   1.266   5.529  0.6025 -1.6671  2.0324
  103OSM    C7F10415   2.974   1.305   5.494  0.5250 -0.8128 -0.7902
  103OSM    H7F10416   2.995   1.413   5.477 -1.5493 -0.1441  0.5397
  103OSM    H7G10417   2.881   1.291   5.552  1.0123 -0.7557  0.0191
  103OSM    C8F10418   2.956   1.235   5.363 -0.1672 -0.1338  0.5470
  103OSM    H8F10419   2.857   1.254   5.317 -0.0596  1.6159  0.9980
  103OSM    H8G10420   2.941   1.126   5.380  0.0419  0.0465  2.0481
  103OSM    C9F10421   3.060   1.272   5.261  0.0669 -0.0909  1.1013
  103OSM    H9F10422   3.169   1.265   5.278  0.6893  4.4556  0.4248
  103OSM   C10F10423   3.029   1.326   5.138 -0.3865  0.3226 -0.1247
  103OSM   H10F10424   3.110   1.367   5.076  0.1873  1.0259  1.0523
  103OSM   C11F10425   2.898   1.341   5.068 -0.1859 -0.1951  0.2308
  103OSM   H11F10426   2.835   1.251   5.081 -0.7801  0.4869  2.4949
  103OSM   H11G10427   2.933   1.343   4.962  1.7149 -1.1506  0.7843
  103OSM   C12F10428   2.805   1.460   5.102 -0.3019  0.2333  0.4785
  103OSM   H12F10429   2.874   1.547   5.107  1.5452 -1.0880 -0.8591
  103OSM   H12G10430   2.767   1.442   5.205 -1.2295 -1.0403 -0.0661
  103OSM   C13F10431   2.701   1.503   4.997 -0.4573  0.9039  0.5708
  103OSM   H13F10432   2.745   1.521   4.896 -0.3820 -0.4452  0.3437
  103OSM   H13G10433   2.653   1.596   5.034  0.3046  0.6898  2.1646
  103OSM   C14F10434   2.597   1.393   4.986  0.4872 -0.2288 -0.2080
  103OSM   H14F10435   2.548   1.386   5.085  1.4071  3.5081  0.6698
  103OSM   H14G10436   2.646   1.298   4.955 -0.4276 -0.5894 -0.5893
  103OSM   C15F10437   2.479   1.422   4.885 -0.1636  0.6232  0.0030
  103OSM   H15F10438   2.425   1.515   4.913 -1.2538  0.1655 -0.5117
  103OSM   H15G10439   2.397   1.347   4.895 -1.3587  2.0247  1.1716
  103OSM   C16F10440   2.526   1.445   4.740  0.0781  0.4089  0.0497
  103OSM   H16F10441   2.561   1.350   4.694 -2.5090 -0.8984  0.6388
  103OSM   H16G10442   2.605   1.524   4.736  1.1724 -0.7006 -1.7967
  103OSM   C17F10443   2.409   1.476   4.641 -0.0052  0.3140  0.2498
  103OSM   H17F10444   2.354   1.560   4.690 -0.3898  0.0848  0.2218
  103OSM   H17G10445   2.346   1.384   4.642 -1.2187  1.1203  1.2015
  103OSM   C18F10446   2.456   1.525   4.497  0.6171 -0.1365  0.3227
  103OSM   H18F10447   2.526   1.445   4.464  0.7127  0.0104  0.1735
  103OSM   H18G10448   2.506   1.623   4.510 -0.9282  0.4978  1.9009
  103OSM   H18H10449   2.368   1.544   4.432  0.3460  0.8262  0.9588
  104OSM      N10450   4.163   1.698   6.898 -0.3874 -0.5498 -0.2921
  104OSM    C1510451   4.226   1.793   6.990  0.0292  0.2475 -0.3283
  104OSM   H15A10452   4.329   1.771   7.016  0.1284  2.5976  1.6112
  104OSM   H15B10453   4.189   1.796   7.091 -1.4827  1.1110 -0.8741
  104OSM   H15C10454   4.229   1.893   6.949  0.7576 -0.1698 -1.3271
  104OSM    C1410455   4.181   1.563   6.956 -0.5526  0.2052 -0.0201
  104OSM   H14A10456   4.121   1.492   6.901 -0.8838 -0.2461  0.9183
  104OSM   H14B10457   4.152   1.559   7.060  1.9165 -0.0605  0.7427
  104OSM   H14C10458   4.284   1.530   6.965 -0.7687  0.1048  2.9508
  104OSM    C1310459   4.017   1.737   6.884 -0.3799  0.0415 -0.2403
  104OSM   H13A10460   3.968   1.735   6.980 -0.2985 -1.2002 -0.2158
  104OSM   H13B10461   3.964   1.680   6.809  0.6562 -1.3326  0.0401
  104OSM   H13C10462   4.011   1.842   6.856 -1.3138  0.3506  1.0286
  104OSM    C1210463   4.241   1.718   6.764  0.4066  0.1643 -0.5901
  104OSM   H12A10464   4.346   1.728   6.786  0.7475  1.0790 -2.4938
  104OSM   H12B10465   4.214   1.815   6.724  1.8342  0.2381 -1.4469
  104OSM    C1110466   4.216   1.615   6.660 -0.0216  0.0654  1.0551
  104OSM   H11A10467   4.251   1.515   6.694  0.3793 -0.6975 -1.3376
  104OSM   H11B10468   4.272   1.628   6.565 -0.2928  0.1219  0.9010
  104OSM      P10469   4.009   1.701   6.527 -0.4842  0.1944  0.5505
  104OSM    O1310470   3.881   1.639   6.477 -1.0618 -0.2869  0.2560
  104OSM    O1410471   4.003   1.834   6.583 -0.1746  0.0977 -0.3503
  104OSM    O1110472   4.112   1.711   6.400  0.8835  0.5734 -0.4537
  104OSM    O1210473   4.077   1.599   6.627  0.2205  0.8832  0.2108
  104OSM    C1S10474   4.145   1.594   6.316  0.5352 -0.4784  0.0277
  104OSM    H1S10475   4.063   1.520   6.328  0.2616  0.0227  1.4395
  104OSM    H1T10476   4.244   1.553   6.346  1.3408  0.8638 -0.7105
  104OSM     NF10477   4.222   1.507   6.097 -0.0405  0.7607  0.1684
  104OSM    HNF10478   4.313   1.503   6.058  0.6269 -3.8519  1.6245
  104OSM    C2S10479   4.160   1.622   6.159 -0.2161  0.0569 -0.0323
  104OSM    H2S10480   4.057   1.634   6.118 -0.4175  1.8055  0.8797
  104OSM    C3S10481   4.242   1.750   6.140 -0.5299  0.2541  0.6538
  104OSM    H3S10482   4.346   1.713   6.152 -1.3322 -2.8147 -0.6283
  104OSM     O310483   4.214   1.858   6.228 -0.0043  0.5567 -0.0151
  104OSM    HO310484   4.170   1.818   6.303 -1.3612 -0.2125 -1.1573
  104OSM    C4S10485   4.255   1.792   5.996  0.6291  0.5958  0.3018
  104OSM    H4S10486   4.333   1.735   5.942 -1.4527  0.2006 -2.5204
  104OSM    C5S10487   4.188   1.886   5.931  0.1044 -0.0734  1.2081
  104OSM    H5S10488   4.112   1.944   5.986  0.1974 -0.6590  1.9644
  104OSM    C6S10489   4.202   1.918   5.779 -0.1035 -0.2233 -0.3636
  104OSM    H6S10490   4.309   1.942   5.764 -0.2876  1.2221  0.4566
  104OSM    H6T10491   4.148   2.011   5.753  0.1149  0.1005  0.3173
  104OSM    C7S10492   4.146   1.806   5.680 -0.7626 -0.9970 -0.8434
  104OSM    H7S10493   4.038   1.808   5.707 -0.7645 -3.1822 -0.5732
  104OSM    H7T10494   4.176   1.705   5.715  0.9516 -0.0326  0.6370
  104OSM    C8S10495   4.183   1.851   5.534 -0.1939  0.0057 -0.8560
  104OSM    H8S10496   4.290   1.880   5.542 -0.5564  1.0695  0.2686
  104OSM    H8T10497   4.125   1.940   5.502 -4.3353 -2.1790 -0.1059
  104OSM    C9S10498   4.163   1.738   5.432  0.6715  0.3593  0.7282
  104OSM    H9S10499   4.053   1.727   5.418  0.9105  0.3735 -1.5337
  104OSM    H9T10500   4.213   1.643   5.458 -0.8139 -1.0802 -1.3480
  104OSM   C10S10501   4.226   1.752   5.292  0.0308 -0.8512  0.4895
  104OSM   H10S10502   4.337   1.755   5.295  0.2993 -0.1707 -3.7204
  104OSM   H10T10503   4.194   1.846   5.242  0.4903 -0.9864 -0.0857
  104OSM   C11S10504   4.181   1.649   5.185 -0.1155 -0.8785  0.1512
  104OSM   H11S10505   4.070   1.653   5.188 -0.1252 -1.4072  1.4286
  104OSM   H11T10506   4.210   1.551   5.230  0.3972 -0.9082 -0.2273
  104OSM   C12S10507   4.238   1.659   5.044  0.0499 -0.2969  0.2618
  104OSM   H12S10508   4.348   1.674   5.049  0.2576 -2.0016  1.4385
  104OSM   H12T10509   4.203   1.758   5.006  0.1769 -0.8389 -1.3268
  104OSM   C13S10510   4.198   1.549   4.941 -0.1809 -0.2891 -0.5436
  104OSM   H13S10511   4.089   1.571   4.933 -0.0337 -0.0270 -2.2031
  104OSM   H13T10512   4.221   1.444   4.971  1.2834  0.2697  0.3499
  104OSM   C14S10513   4.258   1.583   4.805  0.1710  0.4834 -0.1396
  104OSM   H14S10514   4.245   1.692   4.790 -3.9907  0.6999  3.0355
  104OSM   H14T10515   4.212   1.526   4.721 -0.8501 -0.5727  1.0813
  104OSM   C15S10516   4.409   1.559   4.797 -0.4074  0.3988 -0.4512
  104OSM   H15S10517   4.424   1.456   4.758  1.2861 -0.0492  1.2234
  104OSM   H15T10518   4.448   1.558   4.901  3.1360  0.9946 -1.6413
  104OSM   C16S10519   4.484   1.656   4.702  0.0712 -0.1649 -0.6984
  104OSM   H16S10520   4.466   1.761   4.734  0.8360  0.9630 -3.5781
  104OSM   H16T10521   4.437   1.645   4.601 -1.7293  1.7832 -0.1568
  104OSM   C17S10522   4.640   1.630   4.700  0.1632 -0.2954 -0.4792
  104OSM   H17S10523   4.670   1.640   4.806 -1.4048 -1.1028  0.0796
  104OSM   H17T10524   4.686   1.715   4.645 -0.8060  0.0150 -0.8292
  104OSM   C18S10525   4.686   1.499   4.641 -0.0786 -0.8465 -0.7303
  104OSM   H18S10526   4.795   1.479   4.648 -0.4763 -3.3651 -0.6267
  104OSM   H18T10527   4.650   1.506   4.536  0.7021  1.6353 -0.9017
  104OSM   H18U10528   4.639   1.412   4.691 -0.3218 -1.4594 -1.9747
  104OSM    C1F10529   4.157   1.391   6.085  0.6243  0.4823 -0.4851
  104OSM     OF10530   4.033   1.390   6.094 -0.6874  0.0356 -0.0580
  104OSM    C2F10531   4.234   1.262   6.062 -0.3874  0.1630  0.9205
  104OSM    H2F10532   4.165   1.180   6.034 -2.0277  1.6550  0.3990
  104OSM    H2G10533   4.264   1.229   6.164 -3.2141 -4.1821  0.6320
  104OSM    C3F10534   4.358   1.262   5.969  0.1640  0.1539  0.0842
  104OSM    H3F10535   4.387   1.155   5.957  1.8618  0.4962  0.8920
  104OSM    H3G10536   4.436   1.316   6.026  0.9951 -1.5200  0.6113
  104OSM    C4F10537   4.333   1.317   5.837 -0.5448  0.4986  0.0515
  104OSM    H4F10538   4.333   1.428   5.842  0.9722  0.4653  3.3245
  104OSM    H4G10539   4.240   1.274   5.795  1.5935 -2.5656 -1.9377
  104OSM    C5F10540   4.434   1.269   5.727  0.4123  0.7104  0.1904
  104OSM    H5F10541   4.440   1.159   5.720  1.1982  0.7932 -0.8048
  104OSM    H5G10542   4.535   1.292   5.767  0.5020 -0.9574  1.0088
  104OSM    C6F10543   4.424   1.327   5.592  0.8396 -0.0129  0.0797
  104OSM    H6F10544   4.429   1.438   5.603 -3.3527  0.3072  0.4928
  104OSM    H6G10545   4.325   1.303   5.547  0.2976 -0.1810  1.3010
  104OSM    C7F10546   4.534   1.272   5.504 -0.0322 -0.2061  0.7069
  104OSM    H7F10547   4.524   1.161   5.496 -1.9456 -0.0793  0.8019
  104OSM    H7G10548   4.631   1.290   5.555  0.1532  0.2757  0.1936
  104OSM    C8F10549   4.534   1.327   5.361  0.0935 -0.0313 -0.2862
  104OSM    H8F10550   4.632   1.295   5.319 -0.3245  0.6275 -1.8610
  104OSM    H8G10551   4.532   1.438   5.364 -1.3485  0.0163 -1.5039
  104OSM    C9F10552   4.408   1.285   5.275  0.0063 -0.8784 -0.6262
  104OSM    H9F10553   4.312   1.314   5.320  1.0944  0.4058  0.9958
  104OSM   C10F10554   4.413   1.242   5.146  0.0832  0.3590  0.1655
  104OSM   H10F10555   4.316   1.224   5.097  0.3916 -0.4196 -0.1550
  104OSM   C11F10556   4.533   1.202   5.058  0.1385 -0.5233  0.2902
  104OSM   H11F10557   4.631   1.219   5.108 -0.4870  1.8535  0.8173
  104OSM   H11G10558   4.547   1.279   4.979  3.6875 -1.3397 -0.0570
  104OSM   C12F10559   4.512   1.060   5.003  0.2692 -0.4601 -0.5222
  104OSM   H12F10560   4.475   0.997   5.087 -4.3037  1.2498 -0.9721
  104OSM   H12G10561   4.599   1.002   4.965 -0.4803 -1.1598 -1.2054
  104OSM   C13F10562   4.414   1.046   4.884  0.7239  0.5690  0.5364
  104OSM   H13F10563   4.418   1.135   4.818 -3.0683 -0.6843 -1.6958
  104OSM   H13G10564   4.314   1.038   4.932  0.7728 -0.1627  0.5293
  104OSM   C14F10565   4.426   0.904   4.817 -0.0886 -0.5434  0.6023
  104OSM   H14F10566   4.437   0.831   4.900 -0.8725 -0.5147  0.7344
  104OSM   H14G10567   4.525   0.903   4.766 -0.2152 -1.4469  0.3603
  104OSM   C15F10568   4.323   0.871   4.707 -0.6209  0.1803 -0.1656
  104OSM   H15F10569   4.330   0.948   4.627 -2.4360 -0.5705 -1.1142
  104OSM   H15G10570   4.219   0.866   4.747 -0.3543  0.4180  0.5706
  104OSM   C16F10571   4.349   0.736   4.624 -0.0141 -0.7295 -0.4515
  104OSM   H16F10572   4.448   0.764   4.582 -0.2429  0.0150 -0.5109
  104OSM   H16G10573   4.272   0.730   4.544 -1.3297 -3.1107  0.8904
  104OSM   C17F10574   4.366   0.605   4.709  0.1199 -0.1303  0.2222
  104OSM   H17F10575   4.270   0.560   4.741 -0.0813 -0.0947 -0.3281
  104OSM   H17G10576   4.425   0.637   4.798  0.7879  0.6599 -0.4798
  104OSM   C18F10577   4.441   0.492   4.640  0.0164  0.4363  0.3385
  104OSM   H18F10578   4.377   0.464   4.553  1.0072  3.7124 -1.6175
  104OSM   H18G10579   4.466   0.401   4.699 -1.5134 -1.2490 -1.4487
  104OSM   H18H10580   4.535   0.524   4.591 -1.0432  1.0236 -1.4024
  105OSM      N10581   0.929   2.105   6.942  0.1697  0.5819 -0.8597
  105OSM    C1510582   1.049   2.144   6.856  0.7185 -0.6234  0.9681
  105OSM   H15A10583   1.050   2.251   6.841  1.1604 -0.5750  1.3222
  105OSM   H15B10584   1.014   2.109   6.760  2.2621 -1.4342  0.6795
  105OSM   H15C10585   1.135   2.093   6.896 -0.0800 -1.5094  1.6353
  105OSM    C1410586   0.954   1.976   7.018  0.6450  0.3583 -0.0758
  105OSM   H14A10587   0.887   1.963   7.102  2.2792  2.5762  1.7147
  105OSM   H14B10588   1.050   1.984   7.067 -0.5764  0.1797  2.5653
  105OSM   H14C10589   0.955   1.888   6.955 -0.6795 -1.2054  1.9471
  105OSM    C1310590   0.928   2.216   7.045  0.2458  0.0645  0.4949
  105OSM   H13A10591   0.902   2.307   6.993  0.9307  0.2071  0.3953
  105OSM   H13B10592   1.022   2.222   7.098 -0.8741  3.1130  2.4265
  105OSM   H13C10593   0.852   2.197   7.119  0.4715 -0.3796  0.6170
  105OSM    C1210594   0.796   2.109   6.862  0.2514  0.4529  0.2352
  105OSM   H12A10595   0.799   2.212   6.832 -0.2157  0.1432 -0.9425
  105OSM   H12B10596   0.720   2.104   6.938  1.8968  0.4173  1.9480
  105OSM    C1110597   0.777   2.018   6.742  0.3535  0.5206  0.0511
  105OSM   H11A10598   0.850   2.053   6.665 -0.7618  2.7992 -0.0453
  105OSM   H11B10599   0.677   2.033   6.697  0.5086 -2.5154 -1.5159
  105OSM      P10600   0.869   1.779   6.688 -0.0020  0.0118 -0.2115
  105OSM    O1310601   1.001   1.841   6.659  0.0738  0.2439 -0.7423
  105OSM    O1410602   0.853   1.649   6.765  0.9530 -0.0802 -0.2426
  105OSM    O1110603   0.779   1.766   6.558 -0.0438  0.1725 -0.1653
  105OSM    O1210604   0.785   1.883   6.770  0.0153  0.5332 -0.0753
  105OSM    C1S10605   0.656   1.689   6.545  0.0396 -0.3399  0.7769
  105OSM    H1S10606   0.594   1.713   6.634 -1.8155 -2.2963  0.0924
  105OSM    H1T10607   0.677   1.581   6.558 -2.9730 -0.8837  1.7497
  105OSM     NF10608   0.438   1.686   6.430  0.6738 -0.1224  0.0529
  105OSM    HNF10609   0.406   1.601   6.390  3.7297 -0.2720 -2.4811
  105OSM    C2S10610   0.577   1.709   6.415 -0.0073  0.4425  0.5124
  105OSM    H2S10611   0.602   1.815   6.393  1.1138  0.0499 -0.1852
  105OSM    C3S10612   0.647   1.634   6.293 -0.6537  0.4694  0.0695
  105OSM    H3S10613   0.652   1.527   6.323  0.0710  1.0052  2.0775
  105OSM     O310614   0.783   1.677   6.279  0.2878 -0.5492  0.1479
  105OSM    HO310615   0.799   1.706   6.369  1.0012 -0.0626 -0.1290
  105OSM    C4S10616   0.566   1.643   6.158 -0.2209  0.0840 -0.1301
  105OSM    H4S10617   0.492   1.563   6.145 -0.0467 -0.2226  0.6512
  105OSM    C5S10618   0.585   1.728   6.061  0.5611  0.4058  0.9958
  105OSM    H5S10619   0.675   1.791   6.066  1.2420 -0.5282  0.8176
  105OSM    C6S10620   0.499   1.718   5.933  0.1262  0.9988  0.0576
  105OSM    H6S10621   0.426   1.801   5.938  0.8561  1.6490  0.2174
  105OSM    H6T10622   0.436   1.628   5.916  0.9235  0.6358 -1.0812
  105OSM    C7S10623   0.569   1.751   5.804 -0.6794  0.2373  0.1394
  105OSM    H7S10624   0.657   1.685   5.787 -3.1546 -2.7314 -2.1019
  105OSM    H7T10625   0.610   1.854   5.820 -0.9606  0.1304  1.6779
  105OSM    C8S10626   0.490   1.727   5.675  0.0384 -0.0066 -0.0476
  105OSM    H8S10627   0.396   1.785   5.685 -0.2792 -0.5231  0.0082
  105OSM    H8T10628   0.476   1.617   5.665 -0.2136  0.1766 -2.0740
  105OSM    C9S10629   0.571   1.793   5.558  0.2762  0.2740  0.2725
  105OSM    H9S10630   0.660   1.730   5.535  0.7774  2.0555 -3.2733
  105OSM    H9T10631   0.611   1.892   5.587 -0.3287  0.2694  1.1439
  105OSM   C10S10632   0.477   1.796   5.437 -0.1274  0.1598  0.3309
  105OSM   H10S10633   0.393   1.864   5.459  0.4224  1.3237 -1.0339
  105OSM   H10T10634   0.440   1.692   5.423  3.0872 -1.0649  0.0318
  105OSM   C11S10635   0.544   1.832   5.307 -0.2541  0.0642  0.1122
  105OSM   H11S10636   0.640   1.777   5.297 -0.0131  0.6643 -1.0465
  105OSM   H11T10637   0.578   1.936   5.326  3.4989 -1.0310  0.3518
  105OSM   C12S10638   0.460   1.821   5.179  0.4056 -1.0109  0.5929
  105OSM   H12S10639   0.520   1.886   5.112 -0.7666 -0.5905 -0.0872
  105OSM   H12T10640   0.364   1.873   5.199  0.5116 -0.5076 -0.1676
  105OSM   C13S10641   0.446   1.683   5.132  0.3265  0.0556 -0.2041
  105OSM   H13S10642   0.392   1.617   5.202 -2.2225  0.9324 -1.2487
  105OSM   H13T10643   0.545   1.638   5.106  0.7570  1.0272 -0.2965
  105OSM   C14S10644   0.360   1.676   4.999 -0.4588  0.9228  0.1914
  105OSM   H14S10645   0.336   1.568   4.995  0.3777  0.7734 -1.3225
  105OSM   H14T10646   0.436   1.694   4.921 -1.1213  2.6133 -0.1110
  105OSM   C15S10647   0.237   1.763   4.997  0.9463  0.0577 -0.2296
  105OSM   H15S10648   0.279   1.864   4.979 -1.0120  1.2358  1.3817
  105OSM   H15T10649   0.199   1.776   5.100 -0.8081 -1.5348 -0.6122
  105OSM   C16S10650   0.120   1.709   4.912 -0.7297 -0.0103 -0.1724
  105OSM   H16S10651   0.028   1.747   4.963  0.0382  0.5786  0.8198
  105OSM   H16T10652   0.125   1.599   4.900  2.3597  0.0372 -0.0716
  105OSM   C17S10653   0.109   1.761   4.767 -0.2187  0.5785  0.4456
  105OSM   H17S10654   0.202   1.734   4.713  1.3034 -0.1716  3.2321
  105OSM   H17T10655   0.117   1.872   4.767 -0.4107  0.6107 -0.8077
  105OSM   C18S10656  -0.018   1.715   4.700  0.3814  0.0950  0.2242
  105OSM   H18S10657  -0.055   1.772   4.612 -1.8206  0.3190  1.2264
  105OSM   H18T10658  -0.101   1.726   4.772  2.2362  1.6324  2.2708
  105OSM   H18U10659  -0.002   1.609   4.669 -1.2087 -0.1561  0.2024
  105OSM    C1F10660   0.368   1.770   6.501  0.2789  0.1276 -0.6229
  105OSM     OF10661   0.419   1.848   6.578  0.1473  0.4178  0.2274
  105OSM    C2F10662   0.220   1.770   6.488 -0.9801 -0.1756  0.2072
  105OSM    H2F10663   0.165   1.730   6.576 -1.4491 -1.2261 -0.5434
  105OSM    H2G10664   0.195   1.697   6.408 -0.9513 -0.4072  0.4076
  105OSM    C3F10665   0.181   1.912   6.441  0.6447 -0.7971 -0.9359
  105OSM    H3F10666   0.210   1.981   6.523  0.1359 -0.8509 -0.7081
  105OSM    H3G10667   0.070   1.912   6.444  0.6566 -0.6223 -0.3090
  105OSM    C4F10668   0.227   1.969   6.303  0.0127  0.1260 -0.5731
  105OSM    H4F10669   0.337   1.984   6.311  0.4317 -2.5414 -0.3166
  105OSM    H4G10670   0.187   2.072   6.300  1.4511  0.7666  0.8158
  105OSM    C5F10671   0.176   1.892   6.182  0.3615  0.1203 -0.4284
  105OSM    H5F10672   0.067   1.871   6.185  0.6937 -1.6809  1.1578
  105OSM    H5G10673   0.227   1.795   6.201 -1.0928  0.0079  4.1502
  105OSM    C6F10674   0.206   1.966   6.045 -0.1390  0.3587 -0.5115
  105OSM    H6F10675   0.315   1.980   6.032 -0.2374  1.0966 -0.5800
  105OSM    H6G10676   0.167   2.070   6.046 -0.0099  0.4783 -3.1113
  105OSM    C7F10677   0.141   1.895   5.924  0.4366 -0.1731 -0.4324
  105OSM    H7F10678   0.035   1.877   5.951  0.3373 -0.3647 -0.9386
  105OSM    H7G10679   0.189   1.797   5.908  0.3832 -0.2897  0.1341
  105OSM    C8F10680   0.144   1.976   5.791 -0.4942  0.0529  0.5565
  105OSM    H8F10681   0.250   2.008   5.786 -0.6612  0.7829  1.4247
  105OSM    H8G10682   0.095   2.073   5.813  1.6930  1.1939  0.7319
  105OSM    C9F10683   0.088   1.904   5.672  0.0433  0.2573 -0.1618
  105OSM    H9F10684   0.071   1.799   5.699  0.8795  0.3570  0.8373
  105OSM   C10F10685   0.076   1.947   5.543 -0.4919  0.5675 -0.0272
  105OSM   H10F10686   0.026   1.873   5.478  1.0899 -1.1441  0.6347
  105OSM   C11F10687   0.125   2.076   5.492 -0.2897  0.4783 -0.9706
  105OSM   H11F10688   0.213   2.105   5.554 -0.8274 -0.6186  0.3465
  105OSM   H11G10689   0.050   2.157   5.497 -0.4679  0.2664  0.0069
  105OSM   C12F10690   0.173   2.060   5.341  0.2599 -0.7194 -0.0467
  105OSM   H12F10691   0.227   1.965   5.324 -0.9413 -1.2276 -1.1819
  105OSM   H12G10692   0.243   2.140   5.309  1.1520 -1.2425  0.5406
  105OSM   C13F10693   0.056   2.060   5.234 -0.2769  0.0831 -0.0502
  105OSM   H13F10694  -0.035   2.026   5.288  0.0851  0.2180  0.6538
  105OSM   H13G10695   0.083   1.976   5.166 -0.8166 -0.3495  0.2617
  105OSM   C14F10696   0.039   2.193   5.168  0.2458  0.6997  0.2138
  105OSM   H14F10697   0.132   2.227   5.116 -1.7627  3.0390 -2.1764
  105OSM   H14G10698   0.030   2.267   5.251  1.2990  3.2550 -1.7821
  105OSM   C15F10699  -0.077   2.218   5.063  0.2207  0.0023  0.0165
  105OSM   H15F10700  -0.169   2.207   5.124 -2.9346  1.5229 -4.0328
  105OSM   H15G10701  -0.060   2.141   4.985  0.1445  0.5459 -0.5349
  105OSM   C16F10702  -0.080   2.351   4.995  0.3028 -0.4920  0.7495
  105OSM   H16F10703   0.011   2.353   4.932 -0.3993 -2.0527 -0.3738
  105OSM   H16G10704  -0.085   2.436   5.067  3.3143 -1.2222  1.9540
  105OSM   C17F10705  -0.198   2.358   4.892 -0.5680  0.0352 -1.2006
  105OSM   H17F10706  -0.196   2.267   4.829 -0.2904 -0.1055 -0.9933
  105OSM   H17G10707  -0.168   2.444   4.827  1.5242  0.0471 -0.3099
  105OSM   C18F10708  -0.332   2.376   4.966  0.1086 -0.4494  0.3709
  105OSM   H18F10709  -0.331   2.471   5.023  1.5576  0.4513 -1.0782
  105OSM   H18G10710  -0.370   2.301   5.039 -1.8863  0.5153  0.3894
  105OSM   H18H10711  -0.419   2.384   4.897  0.0624  1.2276  0.5910
  106OSM      N10712   6.005   0.241   7.078  0.0750  0.0623  0.2444
  106OSM    C1510713   5.948   0.350   6.982 -0.2272  0.4649  0.0747
  106OSM   H15A10714   5.850   0.316   6.951 -0.1219 -0.8896  1.1004
  106OSM   H15B10715   6.016   0.357   6.898  1.5474  0.6526  1.4682
  106OSM   H15C10716   5.935   0.446   7.029  0.4056  0.7145 -0.2567
  106OSM    C1410717   6.128   0.303   7.125  0.2057  0.4061  0.8006
  106OSM   H14A10718   6.113   0.388   7.191 -3.3402  2.6735 -2.4994
  106OSM   H14B10719   6.185   0.332   7.038 -1.3150  0.2391 -0.3039
  106OSM   H14C10720   6.181   0.224   7.176  0.2640 -0.2803 -0.2857
  106OSM    C1310721   5.919   0.208   7.190  0.4486  0.1762  0.4520
  106OSM   H13A10722   5.818   0.195   7.155  0.2955  0.0170  0.9521
  106OSM   H13B10723   5.921   0.288   7.263  0.2940  1.6208 -1.0720
  106OSM   H13C10724   5.950   0.116   7.236  1.8896  0.4018 -0.0119
  106OSM    C1210725   6.033   0.112   6.994 -0.1271  0.1205 -0.1986
  106OSM   H12A10726   5.939   0.069   6.962  1.4436 -2.0453 -2.1862
  106OSM   H12B10727   6.083   0.033   7.047 -0.2851  0.3095  0.2358
  106OSM    C1110728   6.124   0.125   6.872  0.1811 -0.0943  0.4833
  106OSM   H11A10729   6.073   0.194   6.801 -0.4400  0.2727  1.2773
  106OSM   H11B10730   6.148   0.032   6.817  1.6745  0.2087  0.5813
  106OSM      P10731   6.363   0.078   6.958  0.2662  0.2870 -0.2908
  106OSM    O1310732   6.459   0.160   7.029 -0.5095 -0.0090  0.5916
  106OSM    O1410733   6.304  -0.026   7.042 -0.3910  0.4389 -0.2197
  106OSM    O1110734   6.419   0.016   6.826 -0.4981  0.2330 -0.0265
  106OSM    O1210735   6.250   0.178   6.913  0.0467 -0.4738  0.0802
  106OSM    C1S10736   6.506   0.091   6.739  0.1644 -0.2510 -0.3920
  106OSM    H1S10737   6.604   0.115   6.785  0.1924  0.0377 -0.6023
  106OSM    H1T10738   6.461   0.190   6.719  0.3499 -0.0077  0.3599
  106OSM     NF10739   6.629   0.065   6.524 -0.3975  0.2868  0.1528
  106OSM    HNF10740   6.612   0.115   6.440  2.7001  1.0421 -0.1539
  106OSM    C2S10741   6.522   0.019   6.608  0.8317  0.0263  0.1238
  106OSM    H2S10742   6.535  -0.090   6.621  0.2639  0.0423  0.8937
  106OSM    C3S10743   6.376   0.015   6.536 -0.2858  0.1670  0.4448
  106OSM    H3S10744   6.337   0.118   6.526 -1.7860 -0.1283  2.6215
  106OSM     O310745   6.272  -0.055   6.603 -0.2742 -0.4564 -0.1662
  106OSM    HO310746   6.305  -0.052   6.693  0.2671  0.3279 -0.3852
  106OSM    C4S10747   6.391  -0.048   6.400 -0.5097  0.4775  0.3639
  106OSM    H4S10748   6.384   0.024   6.318  0.7172  0.5723  0.3183
  106OSM    C5S10749   6.409  -0.175   6.367 -0.1223 -0.4232  0.2809
  106OSM    H5S10750   6.414  -0.248   6.449  0.5251  1.3746  1.9174
  106OSM    C6S10751   6.447  -0.231   6.233  0.3418  0.3800 -0.2495
  106OSM    H6S10752   6.370  -0.306   6.208  0.9063 -0.3639  0.2102
  106OSM    H6T10753   6.541  -0.289   6.226  0.2404  0.3268 -1.2851
  106OSM    C7S10754   6.444  -0.132   6.116 -0.6990  0.4465 -0.1326
  106OSM    H7S10755   6.515  -0.050   6.141  0.5975 -0.4770 -0.6988
  106OSM    H7T10756   6.339  -0.098   6.103 -0.9568 -0.1374  0.3378
  106OSM    C8S10757   6.493  -0.194   5.989 -0.9378 -0.4544  0.6234
  106OSM    H8S10758   6.416  -0.270   5.964 -1.9594 -0.6629  3.8475
  106OSM    H8T10759   6.597  -0.232   5.994  0.1790  2.4280  1.8219
  106OSM    C9S10760   6.492  -0.088   5.876  0.2454 -0.1360  0.2484
  106OSM    H9S10761   6.545   0.008   5.892  0.2104  0.0675 -0.7892
  106OSM    H9T10762   6.388  -0.052   5.880 -0.4064 -2.0550  2.7335
  106OSM   C10S10763   6.531  -0.139   5.737 -0.1259  0.6471  0.2629
  106OSM   H10S10764   6.441  -0.189   5.695  1.5274 -2.1112 -0.2436
  106OSM   H10T10765   6.606  -0.218   5.756  0.6974  0.6669 -2.4816
  106OSM   C11S10766   6.578  -0.033   5.639  0.8569 -0.9171  0.1776
  106OSM   H11S10767   6.663   0.018   5.688  0.7041  1.4462 -1.8089
  106OSM   H11T10768   6.495   0.037   5.620  0.2297 -1.6308  0.2348
  106OSM   C12S10769   6.605  -0.100   5.505  0.5185 -0.1411 -0.0680
  106OSM   H12S10770   6.522  -0.161   5.464 -2.2814  3.6159 -0.5322
  106OSM   H12T10771   6.684  -0.177   5.519 -0.9084 -1.3436  1.8295
  106OSM   C13S10772   6.635   0.007   5.397 -0.1379  0.3416  0.4537
  106OSM   H13S10773   6.730   0.062   5.415  2.5603 -3.9398  0.6614
  106OSM   H13T10774   6.550   0.079   5.399  1.6484  2.5847 -0.7920
  106OSM   C14S10775   6.663  -0.064   5.266  0.5227 -0.5219  0.0014
  106OSM   H14S10776   6.729  -0.152   5.285  0.6790 -0.1701  1.1675
  106OSM   H14T10777   6.709   0.006   5.193 -1.6209  0.0078 -0.8983
  106OSM   C15S10778   6.534  -0.104   5.196 -0.2293  0.4187  0.1050
  106OSM   H15S10779   6.465  -0.021   5.170 -2.2549 -1.1878  0.0747
  106OSM   H15T10780   6.473  -0.170   5.262  0.2482 -0.4461 -0.2975
  106OSM   C16S10781   6.570  -0.191   5.070 -0.3626  0.2288 -0.1587
  106OSM   H16S10782   6.635  -0.277   5.099 -1.6527 -0.2395  1.4808
  106OSM   H16T10783   6.635  -0.116   5.019  0.1368  0.1653  0.3800
  106OSM   C17S10784   6.449  -0.228   4.990  0.8437 -0.4738  0.1736
  106OSM   H17S10785   6.491  -0.292   4.910  2.5971  2.5624 -1.5464
  106OSM   H17T10786   6.410  -0.137   4.940  2.6477  0.6150  0.6589
  106OSM   C18S10787   6.344  -0.315   5.062  0.1777 -0.9300 -0.5205
  106OSM   H18S10788   6.389  -0.378   5.143  0.9663  1.6625  1.1785
  106OSM   H18T10789   6.272  -0.370   4.997  0.4670 -1.3686 -0.4788
  106OSM   H18U10790   6.277  -0.252   5.124  1.4450 -0.9530  0.9341
  106OSM    C1F10791   6.761   0.036   6.553 -0.0425 -0.5068  0.3420
  106OSM     OF10792   6.792   0.000   6.665 -0.1874  0.3076  0.0360
  106OSM    C2F10793   6.859   0.059   6.438 -1.0206  0.8215 -0.0178
  106OSM    H2F10794   6.955   0.019   6.477  0.1686  1.7571 -1.8469
  106OSM    H2G10795   6.862   0.166   6.408 -0.2984 -0.0131 -3.3698
  106OSM    C3F10796   6.829  -0.016   6.304  0.1989 -0.5689 -0.1347
  106OSM    H3F10797   6.883   0.029   6.218 -0.3820 -0.8546 -0.6583
  106OSM    H3G10798   6.725   0.001   6.268  0.6464  1.3766 -0.6854
  106OSM    C4F10799   6.865  -0.164   6.293 -0.0555  0.2798  0.6556
  106OSM    H4F10800   6.789  -0.225   6.347 -1.5111 -0.9438 -2.5160
  106OSM    H4G10801   6.964  -0.180   6.342  1.1154  0.3088 -1.5776
  106OSM    C5F10802   6.856  -0.233   6.157 -0.6810 -0.0685  0.1812
  106OSM    H5F10803   6.762  -0.211   6.102 -0.3783 -0.7432 -0.6236
  106OSM    H5G10804   6.852  -0.343   6.174  0.2101 -0.1806 -0.2933
  106OSM    C6F10805   6.976  -0.207   6.062 -0.1753 -0.1698  0.2179
  106OSM    H6F10806   7.057  -0.279   6.088 -1.8787 -1.9688  0.8054
  106OSM    H6G10807   7.015  -0.104   6.077  2.7047 -1.2920  1.2855
  106OSM    C7F10808   6.933  -0.228   5.923  0.3481  0.2406  0.1989
  106OSM    H7F10809   6.847  -0.162   5.897 -0.4491 -0.8000  0.1242
  106OSM    H7G10810   6.899  -0.334   5.920 -0.9589  0.6572 -2.0949
  106OSM    C8F10811   7.050  -0.211   5.820  0.0851  0.2832  1.6832
  106OSM    H8F10812   7.006  -0.224   5.719  2.0219 -1.9176  1.0334
  106OSM    H8G10813   7.126  -0.289   5.840  2.3604  1.9312  0.0389
  106OSM    C9F10814   7.110  -0.075   5.824 -0.6936  0.1978 -0.0889
  106OSM    H9F10815   7.171  -0.059   5.914 -0.1143  1.1295 -0.6327
  106OSM   C10F10816   7.100   0.012   5.726 -0.0240  0.5858 -0.5580
  106OSM   H10F10817   7.161   0.103   5.739  1.2904 -0.0676 -1.8558
  106OSM   C11F10818   7.028   0.000   5.596 -0.5103  0.7633  0.2029
  106OSM   H11F10819   6.922   0.034   5.598 -2.0461 -3.3426 -0.6388
  106OSM   H11G10820   7.013  -0.107   5.571  0.4922 -0.1241  2.9764
  106OSM   C12F10821   7.096   0.076   5.483  0.1460  0.0190  0.0664
  106OSM   H12F10822   7.207   0.080   5.487  0.0975  0.5847  1.2811
  106OSM   H12G10823   7.068   0.183   5.498 -1.6469 -0.0741 -2.0790
  106OSM   C13F10824   7.041   0.052   5.343 -0.3973  0.0273 -0.2394
  106OSM   H13F10825   6.931   0.038   5.339 -0.0459 -4.3747  0.3484
  106OSM   H13G10826   7.080  -0.041   5.296  1.1481  0.4955  0.0332
  106OSM   C14F10827   7.062   0.173   5.255 -0.0364 -0.4476  0.4115
  106OSM   H14F10828   7.151   0.234   5.277  0.1218 -0.4491 -0.1897
  106OSM   H14G10829   6.980   0.247   5.264  2.2203  2.1462  0.9054
  106OSM   C15F10830   7.068   0.139   5.104 -0.3955 -0.3534 -1.0520
  106OSM   H15F10831   6.973   0.085   5.088 -0.8905  0.1583  0.0954
  106OSM   H15G10832   7.156   0.076   5.079  1.5789  2.3482 -1.3571
  106OSM   C16F10833   7.069   0.268   5.026  0.6382 -0.7009 -0.2734
  106OSM   H16F10834   7.168   0.317   5.040 -0.3287  0.7956  1.8798
  106OSM   H16G10835   6.992   0.336   5.067  0.8188  0.1032 -1.2375
  106OSM   C17F10836   7.057   0.249   4.879 -0.0114  0.4062 -0.4122
  106OSM   H17F10837   7.132   0.188   4.826  0.3556  2.0474 -1.8542
  106OSM   H17G10838   7.058   0.349   4.830  0.2130  0.6503  0.0801
  106OSM   C18F10839   6.928   0.173   4.846 -0.4498 -0.2991 -0.5765
  106OSM   H18F10840   6.838   0.195   4.907  0.3030  0.2145  0.3652
  106OSM   H18G10841   6.947   0.064   4.854  0.5417 -0.0758  0.3967
  106OSM   H18H10842   6.903   0.189   4.739  0.5370  0.3676 -0.7274
  107OSM      N10843   5.212   4.729   7.276  0.6997 -0.4334 -0.3009
  107OSM    C1510844   5.066   4.751   7.323 -0.1322  0.1987 -0.1613
  107OSM   H15A10845   5.002   4.767   7.237  2.5645 -2.4242 -2.9177
  107OSM   H15B10846   5.057   4.841   7.381 -0.3765  0.3200 -0.3852
  107OSM   H15C10847   5.027   4.673   7.386 -0.0426  0.5398  0.3170
  107OSM    C1410848   5.265   4.854   7.207 -0.0175  0.6628 -0.0874
  107OSM   H14A10849   5.277   4.932   7.281 -0.5401  0.9048 -0.2510
  107OSM   H14B10850   5.200   4.892   7.130  0.1861 -1.0254 -1.1419
  107OSM   H14C10851   5.362   4.841   7.160  0.1766  3.8285 -0.7820
  107OSM    C1310852   5.297   4.699   7.390 -1.1222 -0.0885  0.0116
  107OSM   H13A10853   5.399   4.690   7.356  0.5473  1.3461  4.0388
  107OSM   H13B10854   5.263   4.609   7.439 -0.0304  0.1402  1.2377
  107OSM   H13C10855   5.279   4.777   7.463 -4.4130  0.6349 -1.3881
  107OSM    C1210856   5.221   4.604   7.183 -0.8121 -0.7443  0.4632
  107OSM   H12A10857   5.170   4.525   7.236 -0.0900 -1.4226  0.1578
  107OSM   H12B10858   5.325   4.574   7.179 -0.0510  1.3247  2.4035
  107OSM    C1110859   5.169   4.612   7.034  0.2133  0.0758  0.2193
  107OSM   H11A10860   5.192   4.519   6.977 -0.7315  0.7908 -1.3787
  107OSM   H11B10861   5.228   4.693   6.986  0.7675 -0.8324 -0.6830
  107OSM      P10862   4.923   4.547   7.035 -0.6047  0.0470  0.7758
  107OSM    O1310863   4.939   4.462   7.155  0.4614 -0.0208  0.1154
  107OSM    O1410864   4.789   4.611   7.011  0.1322 -0.8868  0.1660
  107OSM    O1110865   4.954   4.452   6.910  0.1467  0.0954 -0.1082
  107OSM    O1210866   5.032   4.656   7.030 -0.7140 -0.1702  0.4522
  107OSM    C1S10867   4.928   4.492   6.781  0.1543 -0.2615 -0.5003
  107OSM    H1S10868   4.959   4.595   6.750  1.2526 -1.2265 -2.9153
  107OSM    H1T10869   4.819   4.486   6.762  0.2211  0.2131 -1.0763
  107OSM     NF10870   4.953   4.461   6.542  0.2893 -0.0887  0.3015
  107OSM    HNF10871   4.875   4.411   6.505  1.4973 -0.4836 -1.8053
  107OSM    C2S10872   4.995   4.402   6.671 -0.1587  0.0294  0.2257
  107OSM    H2S10873   5.106   4.410   6.680 -0.2285  4.2723 -0.8352
  107OSM    C3S10874   4.961   4.247   6.699  0.3655 -0.7672 -0.0453
  107OSM    H3S10875   4.850   4.245   6.700  0.2629  1.4220 -0.7958
  107OSM     O310876   5.016   4.188   6.817 -0.7857 -0.4022  0.0427
  107OSM    HO310877   5.016   4.261   6.879  1.5753 -0.0450 -0.2702
  107OSM    C4S10878   5.008   4.162   6.584 -0.1166 -0.5685  0.1994
  107OSM    H4S10879   5.117   4.162   6.566  0.1392  0.5552  1.5965
  107OSM    C5S10880   4.932   4.088   6.497 -0.2544 -0.3730 -0.4259
  107OSM    H5S10881   4.827   4.120   6.486 -0.3260 -0.4354  0.0346
  107OSM    C6S10882   4.988   4.029   6.369 -0.3283 -0.1437  0.7556
  107OSM    H6S10883   4.977   3.919   6.364  0.4057 -0.1759 -0.6209
  107OSM    H6T10884   5.096   4.054   6.361 -0.1277 -0.4723  2.1895
  107OSM    C7S10885   4.918   4.082   6.238 -0.0337 -0.0001 -0.4842
  107OSM    H7S10886   4.810   4.073   6.265 -0.1392 -0.0712 -0.9254
  107OSM    H7T10887   4.950   4.013   6.158  3.9036  1.3020 -0.2518
  107OSM    C8S10888   4.941   4.230   6.209 -0.0270  0.3962  0.2721
  107OSM    H8S10889   4.916   4.292   6.298 -0.2507  1.7540 -0.6906
  107OSM    H8T10890   4.868   4.261   6.131 -0.7214 -2.0849 -0.1416
  107OSM    C9S10891   5.081   4.269   6.173  0.4278 -0.0209 -0.2221
  107OSM    H9S10892   5.136   4.246   6.267 -0.5603  1.6758  0.8176
  107OSM    H9T10893   5.089   4.378   6.151  0.7245  0.9124  3.7118
  107OSM   C10S10894   5.140   4.188   6.058  0.3927 -0.1609  0.1080
  107OSM   H10S10895   5.142   4.081   6.089  1.4702 -0.8561 -2.1125
  107OSM   H10T10896   5.244   4.224   6.044  1.4227 -2.3208  1.6415
  107OSM   C11S10897   5.054   4.187   5.927  1.0260  0.3304  0.1591
  107OSM   H11S10898   4.954   4.145   5.951  0.6226 -0.3504 -2.4198
  107OSM   H11T10899   5.106   4.131   5.847 -0.3152  1.8310 -1.8622
  107OSM   C12S10900   5.030   4.327   5.873  0.3438  0.1514 -0.4502
  107OSM   H12S10901   5.126   4.378   5.895  0.2808  0.5767 -1.1164
  107OSM   H12T10902   4.954   4.382   5.934  1.4126 -0.7401  1.7759
  107OSM   C13S10903   4.981   4.337   5.729  0.3399 -0.5505  0.4023
  107OSM   H13S10904   4.941   4.439   5.716  3.0067  0.4202 -1.1242
  107OSM   H13T10905   4.899   4.263   5.719 -0.1255 -0.2911  2.0706
  107OSM   C14S10906   5.089   4.304   5.632  0.5895  0.2455  0.0288
  107OSM   H14S10907   5.122   4.199   5.649  2.0800  0.8629  1.1733
  107OSM   H14T10908   5.182   4.360   5.654  1.1919  0.1892 -2.1618
  107OSM   C15S10909   5.052   4.334   5.484  0.0772  0.0995  0.0338
  107OSM   H15S10910   5.059   4.443   5.462 -0.1366 -0.5785 -4.2376
  107OSM   H15T10911   4.946   4.303   5.469  0.1873 -0.5337  0.5357
  107OSM   C16S10912   5.141   4.271   5.374 -0.4431  0.2076  0.1668
  107OSM   H16S10913   5.122   4.162   5.364  0.6437  0.0815 -0.8586
  107OSM   H16T10914   5.243   4.307   5.402 -0.5637  1.1127 -0.5215
  107OSM   C17S10915   5.115   4.335   5.240  0.5079  0.4488 -0.7118
  107OSM   H17S10916   5.193   4.294   5.172  2.1415  1.6235  0.3863
  107OSM   H17T10917   5.121   4.446   5.234 -3.1129  0.9402  1.6016
  107OSM   C18S10918   4.979   4.304   5.177  0.4178 -0.2596  0.1968
  107OSM   H18S10919   4.983   4.325   5.068  2.7744  0.4870  0.3684
  107OSM   H18T10920   4.906   4.369   5.230  0.3043 -0.2674  0.0500
  107OSM   H18U10921   4.945   4.201   5.202  0.5848 -0.3505  0.0589
  107OSM    C1F10922   5.019   4.561   6.491 -0.2771  0.6292  0.5359
  107OSM     OF10923   5.110   4.609   6.559 -0.2323  0.4649  0.6195
  107OSM    C2F10924   4.965   4.614   6.362 -0.3400  0.0585  0.4453
  107OSM    H2F10925   4.870   4.668   6.382 -0.3436  0.7373 -1.2610
  107OSM    H2G10926   4.937   4.545   6.280 -0.0602  0.6422 -0.1469
  107OSM    C3F10927   5.062   4.717   6.305  0.1057  0.0146  0.1021
  107OSM    H3F10928   5.153   4.659   6.279  0.5096  0.8231 -0.3247
  107OSM    H3G10929   5.083   4.797   6.379  1.6360  1.7503 -2.0671
  107OSM    C4F10930   5.013   4.784   6.178 -0.3931  0.1764  0.1168
  107OSM    H4F10931   5.085   4.865   6.153  0.8813 -0.9110  0.1423
  107OSM    H4G10932   4.908   4.816   6.196 -0.8423 -1.4494  0.5310
  107OSM    C5F10933   5.031   4.694   6.054  0.2844  0.3742  0.2620
  107OSM    H5F10934   4.971   4.601   6.066 -0.4197  0.4064 -2.4253
  107OSM    H5G10935   5.139   4.669   6.049  0.2037  0.2787 -2.2427
  107OSM    C6F10936   5.005   4.774   5.926  0.3596  0.2276 -0.1264
  107OSM    H6F10937   5.013   4.883   5.942 -0.9773  0.2708  0.3572
  107OSM    H6G10938   4.899   4.755   5.898 -0.5852  1.8961  2.0357
  107OSM    C7F10939   5.108   4.737   5.817  0.0686  0.4017  0.5184
  107OSM    H7F10940   5.121   4.627   5.809 -1.4557  0.2798 -0.6732
  107OSM    H7G10941   5.210   4.766   5.850  1.1781 -0.1899 -2.1612
  107OSM    C8F10942   5.093   4.812   5.679  0.0748 -0.0508  0.1667
  107OSM    H8F10943   5.188   4.800   5.621 -0.8419  1.3312 -1.7487
  107OSM    H8G10944   5.075   4.920   5.701 -0.8307 -0.2932  0.6403
  107OSM    C9F10945   4.969   4.768   5.605  1.1828 -0.3336  0.1620
  107OSM    H9F10946   4.875   4.776   5.661 -0.5909 -2.8508 -2.2116
  107OSM   C10F10947   4.965   4.728   5.479 -0.1942  0.3899  0.5691
  107OSM   H10F10948   4.875   4.668   5.455  0.3963 -0.6230  0.8499
  107OSM   C11F10949   5.076   4.726   5.373  0.2118  0.2350 -0.3399
  107OSM   H11F10950   5.080   4.622   5.334  0.3937 -0.9436  2.5807
  107OSM   H11G10951   5.170   4.736   5.431 -0.5872  2.6870  0.6825
  107OSM   C12F10952   5.064   4.824   5.261 -0.3221  0.1853 -0.2396
  107OSM   H12F10953   5.098   4.919   5.308 -0.4312 -0.5700  1.4785
  107OSM   H12G10954   4.960   4.838   5.225 -0.7003 -1.6165  0.0463
  107OSM   C13F10955   5.174   4.795   5.153 -0.2388 -0.4916  0.2361
  107OSM   H13F10956   5.161   4.700   5.097  1.4257  0.1057 -1.2621
  107OSM   H13G10957   5.267   4.776   5.210  1.3052 -0.9869 -2.2717
  107OSM   C14F10958   5.193   4.912   5.052 -0.4797 -0.0763  0.5603
  107OSM   H14F10959   5.192   5.004   5.115 -0.9103 -1.2501  2.3559
  107OSM   H14G10960   5.110   4.918   4.979  0.4972  0.7508 -0.5204
  107OSM   C15F10961   5.325   4.903   4.972 -0.1191 -0.1375  0.4123
  107OSM   H15F10962   5.338   4.801   4.930  0.0056 -0.3995  1.0823
  107OSM   H15G10963   5.403   4.925   5.048  0.1708  2.1948 -0.4685
  107OSM   C16F10964   5.340   4.999   4.859  0.4484  0.8693 -0.2921
  107OSM   H16F10965   5.299   5.101   4.877 -1.7784 -0.0595  0.2863
  107OSM   H16G10966   5.286   4.946   4.778  1.4519  2.5749 -2.1637
  107OSM   C17F10967   5.492   5.005   4.805  0.7016  0.6172 -0.5999
  107OSM   H17F10968   5.491   5.082   4.725 -3.5047  0.0819 -1.3393
  107OSM   H17G10969   5.513   4.914   4.746  0.4285 -0.2258  0.5699
  107OSM   C18F10970   5.603   5.031   4.903 -0.0955  0.0437 -0.0520
  107OSM   H18F10971   5.698   5.064   4.856 -0.4741  1.7616  0.3087
  107OSM   H18G10972   5.623   4.939   4.962 -3.1214 -0.7518 -0.1045
  107OSM   H18H10973   5.579   5.103   4.985  0.4965  2.1911 -1.6950
  108OSM      N10974   1.636   3.867   7.028  0.4035 -0.1196  0.4755
  108OSM    C1510975   1.746   3.945   7.100 -0.2459 -0.6934  0.0299
  108OSM   H15A10976   1.816   3.872   7.138 -2.0513 -1.2539  2.5361
  108OSM   H15B10977   1.709   3.989   7.192  1.4128  0.7366  0.0736
  108OSM   H15C10978   1.801   4.012   7.035 -0.4239  0.4911  1.0436
  108OSM    C1410979   1.575   3.767   7.125 -0.5593 -0.4076  0.1101
  108OSM   H14A10980   1.486   3.734   7.073 -1.2984  1.2357  0.2579
  108OSM   H14B10981   1.547   3.799   7.224  0.6738 -0.7373  0.5812
  108OSM   H14C10982   1.637   3.679   7.125  0.9541  0.5551 -2.0074
  108OSM    C1310983   1.535   3.974   6.987 -0.2464 -0.3602 -0.6553
  108OSM   H13A10984   1.453   3.944   6.924 -1.9673  0.8928  0.8698
  108OSM   H13B10985   1.588   4.050   6.931  2.5848 -1.9785 -0.3657
  108OSM   H13C10986   1.494   4.031   7.069 -0.1933 -0.7711 -0.3426
  108OSM    C1210987   1.695   3.793   6.915 -0.9100 -0.7572  0.1145
  108OSM   H12A10988   1.628   3.720   6.873 -0.2321 -0.9217 -0.7050
  108OSM   H12B10989   1.785   3.739   6.942 -0.5263 -0.1049  0.1649
  108OSM    C1110990   1.745   3.884   6.798 -0.7297 -0.3992  0.7820
  108OSM   H11A10991   1.657   3.936   6.754 -1.2702 -2.0585 -0.1676
  108OSM   H11B10992   1.790   3.822   6.718 -1.5091 -0.8405  0.6814
  108OSM      P10993   1.993   3.977   6.818 -0.0563 -0.0944  0.0809
  108OSM    O1310994   2.046   4.101   6.880  0.1604 -0.0763  0.0561
  108OSM    O1410995   2.047   3.846   6.858 -0.5297  0.1235  0.3296
  108OSM    O1110996   1.995   3.983   6.662 -0.4626 -0.6762 -0.2755
  108OSM    O1210997   1.840   3.986   6.839  0.3145  0.5082  0.2949
  108OSM    C1S10998   1.934   4.072   6.573 -0.0689  0.2745  0.0050
  108OSM    H1S10999   1.886   4.158   6.625  0.6096 -0.3734  1.8110
  108OSM    H1T11000   1.857   4.016   6.516 -0.3859  0.6194  0.0938
  108OSM     NF11001   1.926   4.222   6.375 -0.5106 -0.0733 -0.8876
  108OSM    HNF11002   1.907   4.203   6.279 -4.1127  0.5695 -0.4496
  108OSM    C2S11003   2.017   4.131   6.450  0.0394 -0.6412  0.1026
  108OSM    H2S11004   2.090   4.205   6.490 -0.4148  0.3898 -0.9410
  108OSM    C3S11005   2.077   4.014   6.372 -0.3638 -1.2387  0.7171
  108OSM    H3S11006   1.999   3.965   6.310 -1.0563  1.3498 -0.5609
  108OSM     O311007   2.136   3.908   6.442 -0.6014  0.4588 -0.0898
  108OSM    HO311008   2.091   3.911   6.527 -0.0748  2.0224  0.1678
  108OSM    C4S11009   2.168   4.074   6.272 -0.1099 -0.3649 -0.0188
  108OSM    H4S11010   2.229   4.155   6.314  1.6304 -1.5838 -0.0471
  108OSM    C5S11011   2.190   4.053   6.138  0.2488 -0.1304  0.2520
  108OSM    H5S11012   2.131   3.974   6.088 -1.2054  0.3005  1.2238
  108OSM    C6S11013   2.298   4.131   6.059  0.7688  0.4510 -0.8746
  108OSM    H6S11014   2.386   4.065   6.040  0.5211  0.0611 -0.6786
  108OSM    H6T11015   2.333   4.217   6.121  0.2624  0.4719 -0.6176
  108OSM    C7S11016   2.245   4.179   5.928 -0.3730 -0.1391 -0.9452
  108OSM    H7S11017   2.318   4.246   5.879  1.0842 -0.7417  0.3315
  108OSM    H7T11018   2.147   4.232   5.938 -0.4661  0.0859 -2.7913
  108OSM    C8S11019   2.234   4.066   5.828 -0.1560 -0.4518  1.1946
  108OSM    H8S11020   2.171   3.985   5.870  0.9765 -2.2803 -0.4581
  108OSM    H8T11021   2.339   4.038   5.805  0.1079  0.8381  0.7390
  108OSM    C9S11022   2.173   4.105   5.689 -0.2930 -0.2943  0.3087
  108OSM    H9S11023   2.231   4.191   5.648  1.0406 -1.3142 -0.0297
  108OSM    H9T11024   2.070   4.138   5.714  0.5199  0.4354  2.9707
  108OSM   C10S11025   2.183   3.999   5.584 -0.4258 -0.4766 -0.0206
  108OSM   H10S11026   2.122   3.911   5.614 -0.2329 -0.6821 -0.2209
  108OSM   H10T11027   2.286   3.957   5.583  0.2489  1.0828 -1.4888
  108OSM   C11S11028   2.131   4.045   5.450 -0.6450 -0.8227 -0.0029
  108OSM   H11S11029   2.167   3.974   5.373 -0.5359 -0.8052  0.0318
  108OSM   H11T11030   2.180   4.142   5.424  0.0777 -1.2467 -0.2396
  108OSM   C12S11031   1.983   4.047   5.449  0.3129 -0.6417 -0.1356
  108OSM   H12S11032   1.936   4.117   5.522 -0.9222 -1.3971 -0.1737
  108OSM   H12T11033   1.950   3.943   5.471 -0.2408 -0.2667  0.8777
  108OSM   C13S11034   1.908   4.095   5.312  0.1243 -0.1387 -0.0489
  108OSM   H13S11035   1.986   4.083   5.234 -0.4290 -0.8885 -0.5005
  108OSM   H13T11036   1.888   4.201   5.342  0.8429  0.4817 -1.6661
  108OSM   C14S11037   1.792   4.001   5.282 -0.3006  0.2016 -0.1293
  108OSM   H14S11038   1.729   3.999   5.374  0.6232 -3.5933  0.5784
  108OSM   H14T11039   1.831   3.902   5.252 -1.1408  0.2474 -1.4556
  108OSM   C15S11040   1.722   4.048   5.155 -0.2110 -0.4168 -0.2233
  108OSM   H15S11041   1.805   4.072   5.085  2.1810 -2.8632  1.5878
  108OSM   H15T11042   1.669   4.142   5.181 -1.8492 -1.5469  0.6907
  108OSM   C16S11043   1.624   3.952   5.092 -0.0850  0.7876 -0.5544
  108OSM   H16S11044   1.530   3.945   5.152  0.2196  1.6507  0.0302
  108OSM   H16T11045   1.669   3.852   5.072  0.0574  0.9877 -1.2633
  108OSM   C17S11046   1.566   4.000   4.962 -0.0637  0.8092  0.0365
  108OSM   H17S11047   1.649   4.033   4.897 -2.1579 -1.9515 -4.5579
  108OSM   H17T11048   1.505   4.090   4.985 -0.3148  0.7249 -0.2909
  108OSM   C18S11049   1.488   3.891   4.887  0.7557 -0.1859  0.2550
  108OSM   H18S11050   1.411   3.843   4.951  1.8017 -0.9852  0.9469
  108OSM   H18T11051   1.552   3.806   4.856  0.8160 -1.6734  3.9169
  108OSM   H18U11052   1.440   3.933   4.795  0.0930 -0.2287  0.5722
  108OSM    C1F11053   1.871   4.336   6.425  0.2175  0.0915  1.4918
  108OSM     OF11054   1.892   4.384   6.533  0.4471  0.2247 -0.3520
  108OSM    C2F11055   1.794   4.416   6.321  0.8715 -0.3020 -0.3204
  108OSM    H2F11056   1.691   4.376   6.323  0.3989  0.7764 -1.6509
  108OSM    H2G11057   1.835   4.407   6.218 -0.8129  1.6853 -1.2121
  108OSM    C3F11058   1.797   4.568   6.349  0.1384  0.1261  0.0498
  108OSM    H3F11059   1.897   4.592   6.393  0.3213 -0.3733 -0.0873
  108OSM    H3G11060   1.727   4.586   6.433  0.1466 -4.9362  1.4610
  108OSM    C4F11061   1.773   4.656   6.229  0.1420  0.1572  0.7828
  108OSM    H4F11062   1.831   4.637   6.136 -0.8886  0.8123 -0.0119
  108OSM    H4G11063   1.811   4.757   6.254 -1.0732  0.2972  2.2690
  108OSM    C5F11064   1.625   4.658   6.179  1.0223  0.4172  0.9565
  108OSM    H5F11065   1.558   4.710   6.251  1.2139 -1.0335  2.2225
  108OSM    H5G11066   1.581   4.557   6.184 -2.2699  1.7526  2.0811
  108OSM    C6F11067   1.601   4.713   6.042 -0.1746 -0.0791  0.1987
  108OSM    H6F11068   1.683   4.670   5.981  2.3353 -0.0655  3.3381
  108OSM    H6G11069   1.627   4.821   6.045  0.9863 -0.3715  1.2516
  108OSM    C7F11070   1.460   4.689   5.979 -0.4022 -0.0328 -0.0014
  108OSM    H7F11071   1.387   4.718   6.058  2.3602  2.4580  1.8659
  108OSM    H7G11072   1.430   4.586   5.948  0.4495 -1.0920  2.3972
  108OSM    C8F11073   1.435   4.780   5.861  0.1657  0.1057  0.0864
  108OSM    H8F11074   1.453   4.880   5.906 -0.3075 -0.2513  1.0917
  108OSM    H8G11075   1.329   4.769   5.829  0.5059 -0.1440 -0.9921
  108OSM    C9F11076   1.527   4.750   5.743  0.5042 -0.3387 -0.4123
  108OSM    H9F11077   1.631   4.727   5.769  0.5886  0.6693  0.2115
  108OSM   C10F11078   1.490   4.745   5.613  0.2900 -0.3041 -0.0323
  108OSM   H10F11079   1.568   4.737   5.537  1.3120  1.0633  0.8189
  108OSM   C11F11080   1.354   4.772   5.558  0.0488  0.3148 -0.4688
  108OSM   H11F11081   1.294   4.847   5.614 -0.1268 -0.1982  0.0468
  108OSM   H11G11082   1.290   4.681   5.550  0.1439  0.1264  0.6654
  108OSM   C12F11083   1.361   4.835   5.419  0.0041 -0.0810  0.2160
  108OSM   H12F11084   1.417   4.774   5.345  3.2640  1.7084  0.9944
  108OSM   H12G11085   1.427   4.924   5.422 -1.2172  0.8995 -0.8820
  108OSM   C13F11086   1.231   4.898   5.373 -0.0574  0.1998  0.3668
  108OSM   H13F11087   1.220   4.998   5.421 -1.3128  0.3736 -0.2508
  108OSM   H13G11088   1.145   4.834   5.402 -1.1772  0.1203 -2.7039
  108OSM   C14F11089   1.223   4.910   5.218 -0.2366 -0.2445  0.6563
  108OSM   H14F11090   1.124   4.956   5.196 -0.3584 -0.5809  0.4900
  108OSM   H14G11091   1.232   4.816   5.161 -0.7214  1.1500 -1.8966
  108OSM   C15F11092   1.313   5.021   5.157  0.8485 -0.4016  0.4088
  108OSM   H15F11093   1.420   4.996   5.143  0.9286 -0.6543  1.4143
  108OSM   H15G11094   1.290   5.106   5.225 -2.5363 -1.2503  0.5029
  108OSM   C16F11095   1.253   5.071   5.015 -0.0358 -0.4735 -0.7620
  108OSM   H16F11096   1.167   5.135   5.043  1.9179  0.7680  3.0323
  108OSM   H16G11097   1.234   4.975   4.963  1.3735 -1.4120  0.3679
  108OSM   C17F11098   1.362   5.150   4.933 -0.5939 -0.4506  0.5387
  108OSM   H17F11099   1.446   5.081   4.911 -0.4346 -0.6864  1.7938
  108OSM   H17G11100   1.417   5.226   4.993 -0.2593  1.2461 -1.7499
  108OSM   C18F11101   1.295   5.213   4.810  0.2377 -0.3254  0.4530
  108OSM   H18F11102   1.270   5.134   4.736  1.0797  0.2846 -0.5135
  108OSM   H18G11103   1.367   5.277   4.756  3.1755 -1.5234  2.6157
  108OSM   H18H11104   1.200   5.269   4.826 -0.6250 -1.6588  0.1796
  109OSM      N11105   5.830   6.047   6.847 -0.0170 -0.7234 -0.2625
  109OSM    C1511106   5.750   6.078   6.727  0.6623  0.1046  0.3442
  109OSM   H15A11107   5.664   6.137   6.755 -0.6485  0.5035 -3.8672
  109OSM   H15B11108   5.712   5.985   6.689 -1.1357  0.0165  2.1466
  109OSM   H15C11109   5.807   6.142   6.661  1.2746  2.3440  2.8459
  109OSM    C1411110   5.941   5.964   6.793 -0.5042 -0.8758 -0.0648
  109OSM   H14A11111   6.014   5.962   6.872 -2.3862  1.6615  1.9073
  109OSM   H14B11112   5.995   6.007   6.711 -0.3258 -1.1083 -0.0703
  109OSM   H14C11113   5.909   5.868   6.755 -0.5226 -0.3721 -1.3397
  109OSM    C1311114   5.886   6.170   6.908  0.3000 -0.0973  0.4665
  109OSM   H13A11115   5.807   6.233   6.946 -0.5173 -0.0588 -1.1967
  109OSM   H13B11116   5.939   6.215   6.826 -1.6625 -0.0085 -0.7994
  109OSM   H13C11117   5.956   6.132   6.982  0.1717 -2.3422 -0.4878
  109OSM    C1211118   5.740   5.976   6.948  0.6745 -0.4080 -0.1856
  109OSM   H12A11119   5.781   5.995   7.047  0.2977  1.7435 -0.3800
  109OSM   H12B11120   5.736   5.872   6.923 -0.2081 -0.6744  0.9471
  109OSM    C1111121   5.598   6.027   6.978 -0.6718 -0.3018  0.4054
  109OSM   H11A11122   5.559   5.983   7.073 -2.0862  0.3912  0.1753
  109OSM   H11B11123   5.528   6.000   6.896  0.6608  0.4096 -1.0124
  109OSM      P11124   5.461   6.251   6.996 -0.1963  0.4854 -0.1260
  109OSM    O1311125   5.342   6.176   7.048  0.3734 -0.3508 -0.0483
  109OSM    O1411126   5.497   6.377   7.060  0.0349 -0.1288 -0.3097
  109OSM    O1111127   5.430   6.264   6.848 -0.5000 -0.2320  0.4224
  109OSM    O1211128   5.589   6.162   6.995  0.2595  0.0465  0.1895
  109OSM    C1S11129   5.480   6.369   6.761  0.2708 -0.8013  0.0036
  109OSM    H1S11130   5.591   6.378   6.767  0.6340 -3.5656 -1.1782
  109OSM    H1T11131   5.421   6.463   6.761  0.4829 -0.6619 -1.1069
  109OSM     NF11132   5.519   6.422   6.519 -0.1900  0.1548  0.2003
  109OSM    HNF11133   5.465   6.473   6.453 -0.3578  1.6304  1.4215
  109OSM    C2S11134   5.452   6.329   6.612 -0.6347  0.0727  0.6889
  109OSM    H2S11135   5.505   6.233   6.598 -0.8098  0.1257 -0.4056
  109OSM    C3S11136   5.307   6.310   6.566  0.0991  0.1456 -0.7138
  109OSM    H3S11137   5.265   6.411   6.550  1.9606  1.0365 -0.1992
  109OSM     O311138   5.226   6.243   6.665 -0.3541 -0.8223  0.0093
  109OSM    HO311139   5.279   6.255   6.744 -1.2520  2.4300  0.2700
  109OSM    C4S11140   5.296   6.231   6.438 -0.1267 -0.4260 -0.4549
  109OSM    H4S11141   5.276   6.297   6.352  0.7536  0.5094  0.0242
  109OSM    C5S11142   5.290   6.096   6.420  0.3338 -0.9583 -0.3489
  109OSM    H5S11143   5.303   6.035   6.510  0.7502 -0.6945 -0.2276
  109OSM    C6S11144   5.283   6.021   6.297  0.0953  0.7157  0.6321
  109OSM    H6S11145   5.209   5.941   6.320  0.9291 -0.4075 -0.4243
  109OSM    H6T11146   5.383   5.977   6.281 -0.8762 -1.4529  0.1886
  109OSM    C7S11147   5.232   6.113   6.182  0.0135 -0.0556 -0.0139
  109OSM    H7S11148   5.308   6.191   6.160 -1.1402  0.3076 -3.2824
  109OSM    H7T11149   5.135   6.164   6.197 -0.2014  0.1753 -1.9090
  109OSM    C8S11150   5.221   6.032   6.048 -0.1028 -0.2046  0.1370
  109OSM    H8S11151   5.186   5.930   6.076 -1.7640  0.8869  2.2909
  109OSM    H8T11152   5.317   6.015   5.994 -1.1576 -3.0470 -1.0435
  109OSM    C9S11153   5.136   6.084   5.934  0.3135 -0.3751  0.6997
  109OSM    H9S11154   5.186   6.179   5.905 -2.0365  0.4715 -0.8652
  109OSM    H9T11155   5.031   6.096   5.968  0.1206 -1.6763  0.5961
  109OSM   C10S11156   5.138   5.987   5.809  0.0425 -0.5550 -0.1059
  109OSM   H10S11157   5.061   5.910   5.828 -0.2976  0.1325  1.4509
  109OSM   H10T11158   5.236   5.939   5.792  1.1902  1.9460 -1.0286
  109OSM   C11S11159   5.100   6.057   5.673  0.4943  0.0709 -0.6957
  109OSM   H11S11160   5.188   6.125   5.671  1.0879 -0.3477  3.0072
  109OSM   H11T11161   5.010   6.122   5.666  1.1186  0.8413 -2.0684
  109OSM   C12S11162   5.102   5.964   5.555  0.3141 -0.1571 -0.9042
  109OSM   H12S11163   5.030   5.882   5.575 -0.9456  1.0292 -0.4301
  109OSM   H12T11164   5.205   5.922   5.551  2.2987  3.6409  2.3449
  109OSM   C13S11165   5.073   6.039   5.428 -0.6595  0.3365  0.2014
  109OSM   H13S11166   5.133   6.132   5.438 -0.9781  0.6618 -0.7261
  109OSM   H13T11167   4.967   6.065   5.406 -0.8276 -1.0753 -0.7928
  109OSM   C14S11168   5.114   5.949   5.305  0.3111 -0.0109  0.4532
  109OSM   H14S11169   5.064   5.852   5.325  1.1981 -0.5041  0.3672
  109OSM   H14T11170   5.222   5.926   5.293  0.0868 -0.3686 -0.9558
  109OSM   C15S11171   5.058   5.988   5.167  0.1685 -0.1560  0.0429
  109OSM   H15S11172   4.954   6.025   5.183  0.0544 -0.2222 -0.5180
  109OSM   H15T11173   5.054   5.893   5.109 -1.3941  0.9451 -1.7930
  109OSM   C16S11174   5.146   6.091   5.101  0.8858 -0.2963 -0.3281
  109OSM   H16S11175   5.254   6.075   5.124  1.4482  1.5098 -1.4884
  109OSM   H16T11176   5.127   6.192   5.145 -1.6730 -0.3409 -1.1586
  109OSM   C17S11177   5.119   6.103   4.952  0.5242 -0.4975  0.0795
  109OSM   H17S11178   5.010   6.123   4.947  0.6478  0.5493  1.1165
  109OSM   H17T11179   5.141   6.005   4.905  2.3609 -0.0690 -0.0218
  109OSM   C18S11180   5.198   6.200   4.867  0.3456 -0.0009  0.3163
  109OSM   H18S11181   5.194   6.173   4.759  1.9120  2.7286 -0.5047
  109OSM   H18T11182   5.305   6.196   4.895  0.1121 -0.1750  1.2214
  109OSM   H18U11183   5.166   6.304   4.888 -1.0701 -0.4258  0.4049
  109OSM    C1F11184   5.654   6.435   6.510 -0.3091  1.0591  0.4851
  109OSM     OF11185   5.726   6.358   6.576 -0.4074  0.3523 -0.2181
  109OSM    C2F11186   5.715   6.541   6.423  0.4144  0.2435 -0.1252
  109OSM    H2F11187   5.656   6.633   6.444  1.4632  0.8966  0.0239
  109OSM    H2G11188   5.696   6.517   6.316  1.5528 -0.7359 -0.1251
  109OSM    C3F11189   5.863   6.575   6.460 -0.0132  0.3067 -0.2982
  109OSM    H3F11190   5.923   6.483   6.444 -0.8698 -0.1059 -1.2702
  109OSM    H3G11191   5.872   6.594   6.569 -1.7981  0.0082 -0.0687
  109OSM    C4F11192   5.927   6.682   6.381  0.1391 -0.1776  0.1752
  109OSM    H4F11193   6.010   6.713   6.448  1.7910 -1.0215 -1.3995
  109OSM    H4G11194   5.857   6.769   6.380 -0.1990 -0.4444 -0.2322
  109OSM    C5F11195   5.983   6.640   6.246  0.0545  0.3242 -0.3236
  109OSM    H5F11196   5.928   6.555   6.200 -0.2633 -0.8774  2.1218
  109OSM    H5G11197   6.084   6.599   6.266 -0.8999 -2.5363 -0.8851
  109OSM    C6F11198   5.993   6.759   6.146  0.5633 -0.2803  0.5796
  109OSM    H6F11199   6.030   6.858   6.180 -2.0594  0.1778  2.3778
  109OSM    H6G11200   5.889   6.785   6.118  1.4522  0.6300 -2.2714
  109OSM    C7F11201   6.055   6.722   6.007  0.2655  0.4153  0.1143
  109OSM    H7F11202   5.998   6.638   5.961 -0.0681  1.4786 -1.4694
  109OSM    H7G11203   6.154   6.681   6.035  0.2441  0.1753 -0.1541
  109OSM    C8F11204   6.053   6.835   5.899 -1.0535  0.0466 -0.3525
  109OSM    H8F11205   6.128   6.817   5.819 -2.3203  0.4190 -1.6770
  109OSM    H8G11206   6.086   6.916   5.968 -2.3849  0.0218  0.3488
  109OSM    C9F11207   5.919   6.862   5.842  0.1735  0.2554  0.0872
  109OSM    H9F11208   5.861   6.937   5.898 -0.1932 -0.0355  0.1059
  109OSM   C10F11209   5.859   6.793   5.748 -0.3188  0.5545  0.8884
  109OSM   H10F11210   5.755   6.820   5.723 -0.1505  1.2529  0.9389
  109OSM   C11F11211   5.926   6.679   5.668 -0.0758  0.5989  0.7469
  109OSM   H11F11212   6.007   6.623   5.719 -0.2429 -4.0332 -3.2647
  109OSM   H11G11213   5.979   6.718   5.578 -1.6923  2.0560  0.3681
  109OSM   C12F11214   5.827   6.572   5.630  0.1922  0.0871  0.1752
  109OSM   H12F11215   5.789   6.538   5.729  0.0355 -1.2489 -0.3251
  109OSM   H12G11216   5.886   6.484   5.599 -0.4186 -0.3072  0.1068
  109OSM   C13F11217   5.714   6.604   5.533  0.0259 -0.4012  0.2618
  109OSM   H13F11218   5.748   6.622   5.429 -0.5248  0.8553  0.2753
  109OSM   H13G11219   5.661   6.697   5.564 -0.5422 -0.1726 -1.2563
  109OSM   C14F11220   5.600   6.494   5.537  0.1283 -0.1464 -0.2283
  109OSM   H14F11221   5.559   6.492   5.639  1.0644 -1.5450  0.1480
  109OSM   H14G11222   5.653   6.397   5.526 -0.0967 -0.3565  0.5009
  109OSM   C15F11223   5.497   6.525   5.431 -0.9076  0.4937 -0.2928
  109OSM   H15F11224   5.547   6.512   5.333  0.1858 -1.4405  0.4774
  109OSM   H15G11225   5.436   6.618   5.433 -1.1252  0.4419 -2.2980
  109OSM   C16F11226   5.384   6.432   5.464 -0.1308 -0.8047  0.3380
  109OSM   H16F11227   5.300   6.467   5.401  1.8079  1.5473 -1.1494
  109OSM   H16G11228   5.350   6.435   5.570 -1.8044  0.5902 -0.1954
  109OSM   C17F11229   5.410   6.286   5.414  0.6726 -0.9017 -0.4570
  109OSM   H17F11230   5.333   6.213   5.446 -0.4992  1.2740  2.1182
  109OSM   H17G11231   5.500   6.245   5.463  0.8970  0.6303  0.4697
  109OSM   C18F11232   5.412   6.270   5.257 -0.6789 -0.1377 -0.5030
  109OSM   H18F11233   5.463   6.179   5.220 -1.0390 -0.0145 -1.3166
  109OSM   H18G11234   5.470   6.352   5.210 -0.8850 -1.3191 -2.9730
  109OSM   H18H11235   5.312   6.270   5.210 -0.7322  0.9072 -0.4139
  110OSM      N11236   5.314   2.392   7.252 -0.5227 -0.0044 -0.2703
  110OSM    C1511237   5.196   2.485   7.226  0.7477  0.4204  0.4053
  110OSM   H15A11238   5.233   2.583   7.197 -1.3531  0.6558 -1.7937
  110OSM   H15B11239   5.152   2.505   7.322 -0.0338  0.7311 -0.0043
  110OSM   H15C11240   5.138   2.447   7.143 -0.9307 -2.9881  2.9255
  110OSM    C1411241   5.410   2.463   7.333 -0.1350  0.2330 -0.5262
  110OSM   H14A11242   5.442   2.550   7.277 -1.1927 -0.7820 -2.8223
  110OSM   H14B11243   5.497   2.403   7.358 -0.6017 -0.6933 -1.0781
  110OSM   H14C11244   5.365   2.496   7.426 -1.6437 -1.4635 -0.5992
  110OSM    C1311245   5.274   2.269   7.316  0.4925  0.3810  0.5598
  110OSM   H13A11246   5.200   2.218   7.257 -0.7865  1.4848  1.1320
  110OSM   H13B11247   5.224   2.293   7.409  2.9802  2.1560  1.5631
  110OSM   H13C11248   5.351   2.199   7.341 -2.6226 -3.5257  0.1984
  110OSM    C1211249   5.382   2.367   7.116  0.4283  1.1593  0.0008
  110OSM   H12A11250   5.297   2.343   7.054 -0.8763  3.4453  0.7836
  110OSM   H12B11251   5.447   2.281   7.123  2.8206  2.6432 -2.3039
  110OSM    C1111252   5.459   2.481   7.049 -1.3350  0.3150  0.0063
  110OSM   H11A11253   5.501   2.438   6.955  0.8568  1.2355  0.4969
  110OSM   H11B11254   5.554   2.512   7.097 -0.6138  0.0671 -1.2168
  110OSM      P11255   5.439   2.733   6.964 -0.3279  0.4662  0.1576
  110OSM    O1311256   5.350   2.803   6.868  0.2859  0.1790  0.6426
  110OSM    O1411257   5.480   2.812   7.085  0.1789  0.0814  0.7991
  110OSM    O1111258   5.574   2.705   6.884 -0.2568 -0.0234  0.0165
  110OSM    O1211259   5.383   2.594   7.015 -0.5375 -0.0989  0.3033
  110OSM    C1S11260   5.570   2.628   6.762  0.2970 -0.7701  0.2433
  110OSM    H1S11261   5.471   2.581   6.742 -0.4964  0.2621  1.5459
  110OSM    H1T11262   5.634   2.539   6.778  1.2035 -0.0666  0.6226
  110OSM     NF11263   5.655   2.602   6.542 -0.3644  0.6634  0.5169
  110OSM    HNF11264   5.753   2.583   6.543 -0.4211 -0.4396 -2.6721
  110OSM    C2S11265   5.608   2.705   6.631  0.3830 -0.5011  0.8304
  110OSM    H2S11266   5.515   2.753   6.595  0.8130  0.4887  0.9953
  110OSM    C3S11267   5.702   2.830   6.645  0.2385 -0.4719 -0.0822
  110OSM    H3S11268   5.800   2.779   6.661  1.5382  1.3272 -1.7875
  110OSM     O311269   5.667   2.918   6.751  0.3288 -0.1788  0.1997
  110OSM    HO311270   5.605   2.867   6.802 -1.3087  2.9754  1.6396
  110OSM    C4S11271   5.717   2.896   6.511 -0.3633  0.1093  0.2884
  110OSM    H4S11272   5.772   2.841   6.433 -1.0544 -0.1669 -0.0119
  110OSM    C5S11273   5.674   3.015   6.469 -0.3110 -0.1144 -0.7046
  110OSM    H5S11274   5.625   3.085   6.538 -0.1196  0.4964 -1.1738
  110OSM    C6S11275   5.700   3.067   6.330  0.5571 -0.4360 -0.1545
  110OSM    H6S11276   5.684   3.177   6.329 -0.6844 -0.5992 -0.8231
  110OSM    H6T11277   5.618   3.026   6.267 -0.6541  1.4253  0.1488
  110OSM    C7S11278   5.839   3.032   6.271  0.3964 -0.2054 -0.3067
  110OSM    H7S11279   5.847   2.923   6.249 -0.5751 -0.7710  1.8430
  110OSM    H7T11280   5.918   3.066   6.342 -0.5372  2.4209 -0.4295
  110OSM    C8S11281   5.849   3.098   6.134 -0.1580 -0.1596  0.0980
  110OSM    H8S11282   5.954   3.097   6.098  0.0916  0.8629  0.7466
  110OSM    H8T11283   5.828   3.207   6.135 -0.8479 -0.2722 -0.6346
  110OSM    C9S11284   5.754   3.033   6.030  0.0398 -0.0638  0.2253
  110OSM    H9S11285   5.650   3.059   6.058  0.2781  2.1762 -0.7847
  110OSM    H9T11286   5.771   2.923   6.032 -1.6148 -0.4879 -2.6066
  110OSM   C10S11287   5.785   3.086   5.891 -0.3903  0.5961  0.3814
  110OSM   H10S11288   5.885   3.053   5.856  0.0005  2.3722 -0.2545
  110OSM   H10T11289   5.782   3.197   5.888  0.6887  0.6159 -1.0416
  110OSM   C11S11290   5.686   3.024   5.784 -0.1737 -0.1154 -0.1717
  110OSM   H11S11291   5.592   3.083   5.798 -0.5700 -0.7502 -0.1135
  110OSM   H11T11292   5.667   2.917   5.805  0.5647 -0.1327  0.4584
  110OSM   C12S11293   5.735   3.048   5.641 -1.1866 -0.3330 -0.0462
  110OSM   H12S11294   5.752   3.157   5.635  1.3535 -0.7474 -1.9631
  110OSM   H12T11295   5.654   3.011   5.574  0.6087 -1.6758 -1.5752
  110OSM   C13S11296   5.856   2.953   5.613  0.2656  0.0966 -0.2894
  110OSM   H13S11297   5.816   2.850   5.625  0.4448  0.2485  2.2152
  110OSM   H13T11298   5.946   2.971   5.675  1.1758 -0.2032 -1.5039
  110OSM   C14S11299   5.892   2.982   5.465 -0.2252 -0.2805 -0.7374
  110OSM   H14S11300   5.798   2.986   5.406  0.0275 -1.8897 -1.2954
  110OSM   H14T11301   5.961   2.906   5.423 -0.0502 -1.0052  0.8152
  110OSM   C15S11302   5.981   3.107   5.455  0.3840  0.6125 -0.0494
  110OSM   H15S11303   6.076   3.085   5.507  0.4883  4.2620  1.6175
  110OSM   H15T11304   5.928   3.193   5.501 -0.4007  0.0942  0.0431
  110OSM   C16S11305   6.026   3.140   5.308 -0.2394  0.3818 -0.1565
  110OSM   H16S11306   6.080   3.053   5.264 -0.4965 -0.7038  1.5570
  110OSM   H16T11307   6.099   3.223   5.309  1.2378 -0.8489  1.1644
  110OSM   C17S11308   5.901   3.174   5.234 -0.6285 -0.1617  0.2999
  110OSM   H17S11309   5.932   3.245   5.154 -0.4956 -0.6614 -0.0903
  110OSM   H17T11310   5.825   3.220   5.302  0.7837  2.0823  0.4737
  110OSM   C18S11311   5.854   3.059   5.142 -0.6795 -0.0504 -0.1126
  110OSM   H18S11312   5.933   3.045   5.065 -1.2913  0.2293 -0.8073
  110OSM   H18T11313   5.759   3.094   5.095 -1.5510  1.1692  2.3994
  110OSM   H18U11314   5.836   2.964   5.196 -0.6308 -1.1065 -1.8823
  110OSM    C1F11315   5.577   2.516   6.477  0.3634  0.2455 -0.2365
  110OSM     OF11316   5.458   2.541   6.459  0.5301 -0.0158 -0.2300
  110OSM    C2F11317   5.638   2.391   6.427 -0.0659  0.0582  0.5072
  110OSM    H2F11318   5.562   2.311   6.433  0.6263 -0.5154  1.8025
  110OSM    H2G11319   5.722   2.373   6.497  1.7647  0.2065 -1.5374
  110OSM    C3F11320   5.693   2.402   6.283 -0.8897 -0.0708 -0.2929
  110OSM    H3F11321   5.605   2.407   6.217 -1.0210  0.2909 -0.0968
  110OSM    H3G11322   5.757   2.314   6.260 -0.9249 -0.9565  2.5518
  110OSM    C4F11323   5.780   2.527   6.265 -0.6200 -0.3515 -0.1644
  110OSM    H4F11324   5.853   2.546   6.346 -1.3388  1.6465  0.0880
  110OSM    H4G11325   5.710   2.614   6.267  0.2759  0.4522 -1.7221
  110OSM    C5F11326   5.871   2.522   6.137  0.4845 -0.1550  0.1557
  110OSM    H5F11327   5.826   2.508   6.037  1.1729 -0.7639 -0.0793
  110OSM    H5G11328   5.950   2.444   6.146 -1.1039 -1.7643  0.7884
  110OSM    C6F11329   5.942   2.660   6.114  0.0014  0.1621  0.0876
  110OSM    H6F11330   5.994   2.679   6.211  1.9333  0.7334 -1.0202
  110OSM    H6G11331   5.864   2.738   6.100  0.0183 -0.0812 -1.4597
  110OSM    C7F11332   6.046   2.675   6.007  0.3090  0.2777 -0.5494
  110OSM    H7F11333   6.000   2.635   5.914 -1.6499  2.1577 -0.4446
  110OSM    H7G11334   6.124   2.597   6.021  1.3516  1.7022  2.4977
  110OSM    C8F11335   6.097   2.818   5.981  0.6687  0.0354  0.0050
  110OSM    H8F11336   6.077   2.881   6.069 -2.7936  1.5182 -1.6611
  110OSM    H8G11337   6.043   2.859   5.893  1.0035 -0.7827 -0.6009
  110OSM    C9F11338   6.248   2.812   5.952  0.2186  0.2606 -0.2323
  110OSM    H9F11339   6.306   2.785   6.041 -1.4587  0.3871  0.9504
  110OSM   C10F11340   6.307   2.828   5.830  0.1858 -0.1315  0.3923
  110OSM   H10F11341   6.415   2.815   5.818  0.0893 -1.2904  0.6226
  110OSM   C11F11342   6.231   2.878   5.708  0.5234 -0.0312  0.1452
  110OSM   H11F11343   6.165   2.967   5.726 -0.1016 -0.2926 -0.7674
  110OSM   H11G11344   6.159   2.801   5.671  0.8885  0.2843 -1.3169
  110OSM   C12F11345   6.329   2.926   5.603 -1.2387  0.2468 -0.0056
  110OSM   H12F11346   6.397   3.004   5.643 -1.3646 -0.1731  1.0374
  110OSM   H12G11347   6.266   2.972   5.524 -3.5585 -1.4945  0.7402
  110OSM   C13F11348   6.410   2.815   5.543  0.3440 -0.2836 -0.2995
  110OSM   H13F11349   6.352   2.723   5.518 -1.2453  0.8130 -0.8099
  110OSM   H13G11350   6.474   2.776   5.626 -0.3103 -1.2659 -0.2329
  110OSM   C14F11351   6.506   2.853   5.430  0.6123  0.0172 -0.4286
  110OSM   H14F11352   6.586   2.776   5.431  0.3019 -0.3039  0.3525
  110OSM   H14G11353   6.556   2.948   5.456 -0.8955  0.8263 -0.3729
  110OSM   C15F11354   6.426   2.843   5.298 -0.0097 -0.0855 -0.4895
  110OSM   H15F11355   6.358   2.931   5.299 -1.2948 -1.0564 -0.7428
  110OSM   H15G11356   6.354   2.759   5.307 -0.5532  0.4020 -0.2041
  110OSM   C16F11357   6.512   2.836   5.177 -0.5139  0.4668  0.3087
  110OSM   H16F11358   6.592   2.759   5.189  0.1809  1.5236  3.5115
  110OSM   H16G11359   6.573   2.928   5.166 -0.9347  0.5676 -1.4153
  110OSM   C17F11360   6.426   2.833   5.053  0.3131 -0.1145  0.0243
  110OSM   H17F11361   6.378   2.733   5.048  0.9553 -0.3741 -1.5671
  110OSM   H17G11362   6.498   2.823   4.970 -1.5568  0.6598 -1.7881
  110OSM   C18F11363   6.328   2.950   5.025 -0.2723  0.1320 -0.3570
  110OSM   H18F11364   6.295   2.954   4.919  0.2249 -1.0687 -0.5747
  110OSM   H18G11365   6.370   3.049   5.051 -2.0226  1.5601 -2.5329
  110OSM   H18H11366   6.230   2.936   5.077 -0.4032 -0.0690 -0.6530
  111OSM      N11367   1.241   1.134   6.747  0.0504  0.3604  0.7542
  111OSM    C1511368   1.280   1.239   6.850 -0.0878  0.1268 -0.2041
  111OSM   H15A11369   1.321   1.209   6.945  0.6078  0.5014 -0.3838
  111OSM   H15B11370   1.189   1.293   6.872  0.3609  0.6280  0.4210
  111OSM   H15C11371   1.355   1.297   6.799 -1.9330  1.9283 -1.0471
  111OSM    C1411372   1.354   1.037   6.736  0.2655 -0.1809 -0.1426
  111OSM   H14A11373   1.386   1.005   6.834  0.4153 -1.5416 -0.6125
  111OSM   H14B11374   1.438   1.093   6.697  0.2245  0.4305  0.6222
  111OSM   H14C11375   1.338   0.952   6.672 -0.2356  0.2472 -0.5994
  111OSM    C1311376   1.126   1.062   6.792  0.0493  0.3348 -0.2470
  111OSM   H13A11377   1.134   1.050   6.899 -0.0284 -1.4125 -0.4228
  111OSM   H13B11378   1.113   0.971   6.736  0.2609 -0.4813  1.0076
  111OSM   H13C11379   1.032   1.114   6.784  0.3369  0.8791 -0.1606
  111OSM    C1211380   1.209   1.178   6.600 -0.3778 -0.1121 -0.1924
  111OSM   H12A11381   1.155   1.099   6.550  0.1360  0.9211 -2.5291
  111OSM   H12B11382   1.300   1.186   6.542  0.0100 -2.0986  0.0798
  111OSM    C1111383   1.126   1.307   6.583  0.3139 -0.6048 -0.0320
  111OSM   H11A11384   1.027   1.297   6.632  0.0981 -2.0639 -0.7150
  111OSM   H11B11385   1.108   1.311   6.473  2.6740 -2.0623 -0.5289
  111OSM      P11386   1.336   1.476   6.578 -0.6217 -0.1350 -0.2019
  111OSM    O1311387   1.384   1.591   6.661  0.3852  0.2161 -0.4196
  111OSM    O1411388   1.430   1.365   6.581  0.2539 -0.2014  0.3634
  111OSM    O1111389   1.308   1.527   6.432  0.0468 -0.2075  0.2336
  111OSM    O1211390   1.190   1.425   6.625  0.2634  0.2275 -0.1764
  111OSM    C1S11391   1.225   1.639   6.409  1.0055 -0.4650  0.9058
  111OSM    H1S11392   1.271   1.735   6.442 -1.1120  0.2127  2.1522
  111OSM    H1T11393   1.132   1.625   6.468 -0.0332  0.2581 -0.4975
  111OSM     NF11394   1.051   1.745   6.263  0.4248  0.0898  0.7942
  111OSM    HNF11395   0.954   1.721   6.256  1.0267 -2.6608  0.9015
  111OSM    C2S11396   1.158   1.638   6.265 -0.0945 -0.0349 -0.4194
  111OSM    H2S11397   1.235   1.660   6.189 -0.0515 -0.9570 -0.6518
  111OSM    C3S11398   1.098   1.496   6.221  0.7532  0.7682 -0.0961
  111OSM    H3S11399   1.021   1.471   6.297  0.9289 -1.0126 -0.4707
  111OSM     O311400   1.180   1.380   6.217  0.2995 -0.3057 -0.9195
  111OSM    HO311401   1.264   1.399   6.260 -0.2456  1.6035 -0.6003
  111OSM    C4S11402   1.018   1.503   6.088 -0.4709  0.0278  0.0784
  111OSM    H4S11403   0.910   1.524   6.088 -0.3226  0.8960 -1.1337
  111OSM    C5S11404   1.068   1.484   5.962  0.4860 -0.5474 -0.1216
  111OSM    H5S11405   1.172   1.452   5.947  0.7902 -0.5287  1.7747
  111OSM    C6S11406   0.974   1.475   5.840 -0.5578 -0.8048  0.0168
  111OSM    H6S11407   0.871   1.490   5.879 -0.0807 -0.8110  1.3168
  111OSM    H6T11408   0.974   1.380   5.781 -0.2141 -0.0548 -1.2378
  111OSM    C7S11409   1.008   1.590   5.738 -0.3509 -0.4370 -0.2328
  111OSM    H7S11410   1.115   1.614   5.722 -0.7371  1.6122 -0.0159
  111OSM    H7T11411   0.963   1.677   5.792 -1.6108 -0.3157 -1.4250
  111OSM    C8S11412   0.955   1.593   5.591  0.7796  0.3412 -0.7877
  111OSM    H8S11413   0.845   1.578   5.592  0.6039  0.8897 -3.6855
  111OSM    H8T11414   0.996   1.503   5.540 -1.5289 -1.1605 -0.1601
  111OSM    C9S11415   1.002   1.718   5.522 -0.3745 -0.3867  0.0513
  111OSM    H9S11416   1.110   1.706   5.501 -0.4440 -1.2878  0.1819
  111OSM    H9T11417   0.986   1.806   5.588  0.8753  0.4307 -0.6819
  111OSM   C10S11418   0.943   1.756   5.393  0.1245  0.0955  0.2981
  111OSM   H10S11419   1.010   1.835   5.354 -0.4602  1.4980  2.0313
  111OSM   H10T11420   0.842   1.802   5.398 -1.5561 -3.1560 -0.8581
  111OSM   C11S11421   0.927   1.643   5.296 -0.6324  0.5655  0.9632
  111OSM   H11S11422   0.837   1.585   5.326 -2.2479  1.8464 -1.1100
  111OSM   H11T11423   1.019   1.580   5.293  0.8321  2.6159  0.2153
  111OSM   C12S11424   0.907   1.711   5.155  0.2434  0.6516 -0.2794
  111OSM   H12S11425   0.999   1.743   5.102 -0.2410  1.8598 -0.4483
  111OSM   H12T11426   0.849   1.806   5.165 -0.4738  0.3659 -1.5031
  111OSM   C13S11427   0.823   1.615   5.060  0.1748  0.5308 -0.3689
  111OSM   H13S11428   0.743   1.566   5.120 -0.3779  1.0274 -0.6856
  111OSM   H13T11429   0.880   1.534   5.011  2.4059  2.6666 -1.5162
  111OSM   C14S11430   0.747   1.688   4.944 -0.6096  0.4175 -0.6330
  111OSM   H14S11431   0.699   1.774   4.996 -2.0148 -1.3055  1.0445
  111OSM   H14T11432   0.667   1.621   4.908 -3.8665  2.2171  2.5502
  111OSM   C15S11433   0.848   1.730   4.834 -0.2374  0.3624 -0.2949
  111OSM   H15S11434   0.874   1.637   4.779 -1.3831  0.3240 -0.8058
  111OSM   H15T11435   0.939   1.768   4.884 -0.0755  0.2048 -0.4707
  111OSM   C16S11436   0.801   1.836   4.736 -0.0534  0.5594  0.2384
  111OSM   H16S11437   0.774   1.931   4.787  1.6028  0.8932  0.5560
  111OSM   H16T11438   0.715   1.790   4.683  0.4320 -0.2701  0.1641
  111OSM   C17S11439   0.908   1.864   4.625 -0.0120  0.2577  0.7005
  111OSM   H17S11440   0.938   1.769   4.577 -2.9614 -0.5071  0.1376
  111OSM   H17T11441   1.001   1.904   4.669  0.5776 -0.3398  0.0269
  111OSM   C18S11442   0.857   1.961   4.514  0.3923  0.6534 -0.0503
  111OSM   H18S11443   0.817   2.060   4.544 -2.5102 -0.5265  0.3437
  111OSM   H18T11444   0.785   1.912   4.445 -1.2696  0.4551  1.7323
  111OSM   H18U11445   0.951   1.982   4.458  0.1051  1.3178 -0.2981
  111OSM    C1F11446   1.091   1.870   6.248  0.4382 -0.4824 -0.3464
  111OSM     OF11447   1.202   1.914   6.272  0.2446  0.4432 -0.0898
  111OSM    C2F11448   0.975   1.963   6.215 -0.0791  0.6340 -0.3693
  111OSM    H2F11449   0.925   1.994   6.310 -1.2389 -1.3492 -0.2617
  111OSM    H2G11450   0.887   1.911   6.172  0.8164 -0.4603 -0.9284
  111OSM    C3F11451   1.027   2.090   6.142 -0.2482  0.0213 -0.6394
  111OSM    H3F11452   1.087   2.051   6.057  0.8375 -0.0987  0.1628
  111OSM    H3G11453   1.098   2.145   6.206  2.1592 -1.9142 -1.4838
  111OSM    C4F11454   0.911   2.173   6.090 -0.1737 -1.5263  0.1172
  111OSM    H4F11455   0.953   2.264   6.042 -2.1666 -1.7423 -2.2100
  111OSM    H4G11456   0.845   2.197   6.177 -0.0325 -1.5371  0.2280
  111OSM    C5F11457   0.830   2.111   5.978 -0.6891 -0.0614 -0.2304
  111OSM    H5F11458   0.758   2.195   5.963  1.8168  2.6509  1.6917
  111OSM    H5G11459   0.769   2.025   6.013  1.2710 -1.5403 -0.2699
  111OSM    C6F11460   0.890   2.085   5.844  0.2048  0.1127 -0.0606
  111OSM    H6F11461   0.957   1.998   5.861  0.0891  0.3949  2.0164
  111OSM    H6G11462   0.954   2.173   5.823  1.3671 -0.4084  1.1717
  111OSM    C7F11463   0.798   2.059   5.729 -0.1018  0.3259  0.4252
  111OSM    H7F11464   0.706   2.120   5.728 -1.1368 -1.1442  1.4304
  111OSM    H7G11465   0.757   1.957   5.748  0.2871  0.3292  1.3612
  111OSM    C8F11466   0.865   2.067   5.586  0.7597 -0.4835 -0.6939
  111OSM    H8F11467   0.798   1.996   5.533 -1.2463 -1.2004  2.5291
  111OSM    H8G11468   0.963   2.016   5.592 -0.4834 -2.7625  2.6770
  111OSM    C9F11469   0.886   2.209   5.541 -0.3210  0.7321 -0.2754
  111OSM    H9F11470   0.869   2.284   5.619 -2.0271  0.0082  0.1054
  111OSM   C10F11471   0.960   2.244   5.427 -0.1387  0.3394  0.0494
  111OSM   H10F11472   0.975   2.351   5.404  0.4102  0.6488  1.6664
  111OSM   C11F11473   1.022   2.148   5.324 -0.1418  0.3592 -0.3602
  111OSM   H11F11474   1.016   2.041   5.356 -0.7551  0.3633 -0.4550
  111OSM   H11G11475   1.133   2.161   5.321 -0.0764 -0.2587 -1.1235
  111OSM   C12F11476   0.960   2.171   5.183 -0.2425  0.1102  0.8765
  111OSM   H12F11477   0.958   2.277   5.149 -2.6658 -0.4536 -1.0871
  111OSM   H12G11478   0.855   2.136   5.195  0.3944 -2.7718 -0.9239
  111OSM   C13F11479   1.010   2.080   5.067 -0.5458 -0.5909 -0.2476
  111OSM   H13F11480   0.999   1.977   5.107  0.7277  0.0640  1.9372
  111OSM   H13G11481   1.114   2.114   5.049 -0.9188 -0.3147 -2.1156
  111OSM   C14F11482   0.924   2.096   4.947  0.3980  1.2274  0.5944
  111OSM   H14F11483   0.820   2.055   4.951  1.3545 -1.2849  1.6925
  111OSM   H14G11484   0.966   2.050   4.855 -0.2704  1.2861  0.2521
  111OSM   C15F11485   0.898   2.245   4.906 -0.2202  1.1828 -0.5599
  111OSM   H15F11486   0.993   2.298   4.931 -0.2012  0.4762  1.0089
  111OSM   H15G11487   0.823   2.280   4.980  0.1725  1.3542 -0.2343
  111OSM   C16F11488   0.839   2.268   4.772  1.0858 -0.0171 -0.6955
  111OSM   H16F11489   0.749   2.204   4.758  1.0080  0.0497 -0.5025
  111OSM   H16G11490   0.918   2.243   4.698 -0.4964 -2.4102 -1.6900
  111OSM   C17F11491   0.813   2.413   4.744 -0.2305 -0.4299 -0.7292
  111OSM   H17F11492   0.882   2.473   4.808  1.2505 -0.8228 -1.9048
  111OSM   H17G11493   0.721   2.451   4.793  0.8896  1.2850  0.1415
  111OSM   C18F11494   0.820   2.445   4.597  0.6376 -0.9957  0.3783
  111OSM   H18F11495   0.922   2.426   4.556  1.3990  0.3276  1.5445
  111OSM   H18G11496   0.800   2.554   4.601  2.4721 -0.6378  0.8050
  111OSM   H18H11497   0.741   2.396   4.536  1.1595 -2.1208  0.5701
  112OSM      N11498   5.377   3.942   7.255 -0.2815 -0.5991 -0.2508
  112OSM    C1511499   5.308   4.060   7.324  0.6633  0.2361 -0.3830
  112OSM   H15A11500   5.201   4.042   7.324  0.9322 -1.6531  0.6012
  112OSM   H15B11501   5.331   4.153   7.275 -0.6887 -0.1587 -1.8566
  112OSM   H15C11502   5.327   4.066   7.430  0.1729  2.1800 -0.3659
  112OSM    C1411503   5.531   3.955   7.275  0.5546  0.0166  1.0264
  112OSM   H14A11504   5.564   3.959   7.378  3.2419 -2.6799  0.4196
  112OSM   H14B11505   5.568   4.047   7.230  1.0960  0.7915  2.9299
  112OSM   H14C11506   5.584   3.873   7.229 -1.9322  0.6444 -3.4652
  112OSM    C1311507   5.321   3.812   7.315 -0.4365 -0.4076 -0.4037
  112OSM   H13A11508   5.348   3.784   7.415  0.4750 -1.8381 -1.0186
  112OSM   H13B11509   5.345   3.731   7.248 -3.2600 -0.9405 -0.9129
  112OSM   H13C11510   5.214   3.821   7.329 -0.3797 -0.5573  0.1277
  112OSM    C1211511   5.341   3.960   7.105 -0.0676 -0.0059  0.3075
  112OSM   H12A11512   5.237   3.933   7.097  0.3291 -1.1587 -1.4563
  112OSM   H12B11513   5.400   3.881   7.062  2.0473  0.3679  2.2795
  112OSM    C1111514   5.380   4.087   7.025  0.5615 -0.6368  0.0337
  112OSM   H11A11515   5.350   4.181   7.077  0.9679  0.2565 -1.3050
  112OSM   H11B11516   5.329   4.082   6.926  0.5597 -0.2415  0.0128
  112OSM      P11517   5.601   4.217   7.038  0.0685  0.6306  0.2025
  112OSM    O1311518   5.592   4.241   7.186  0.6094 -0.3142 -0.5635
  112OSM    O1411519   5.732   4.207   6.976  0.5584 -0.4053 -0.2663
  112OSM    O1111520   5.517   4.320   6.955 -0.1802 -0.2029  0.0350
  112OSM    O1211521   5.519   4.087   7.005 -0.5694  0.4469 -0.5000
  112OSM    C1S11522   5.544   4.323   6.813 -0.0948 -0.1789  0.1825
  112OSM    H1S11523   5.500   4.237   6.759 -1.4171 -0.5520  1.7759
  112OSM    H1T11524   5.651   4.330   6.785 -1.1950  1.6786 -4.4976
  112OSM     NF11525   5.484   4.429   6.596 -0.0298  0.1178 -0.5588
  112OSM    HNF11526   5.555   4.476   6.543  1.1494 -1.4597 -0.4734
  112OSM    C2S11527   5.486   4.452   6.739  0.2507 -0.2570 -0.3241
  112OSM    H2S11528   5.381   4.465   6.773  0.0715  2.3050 -1.6066
  112OSM    C3S11529   5.567   4.573   6.783  0.0935 -0.2932 -0.1516
  112OSM    H3S11530   5.673   4.552   6.757  0.2434  0.0414  0.1818
  112OSM     O311531   5.564   4.601   6.929  0.6821  0.6159  0.4969
  112OSM    HO311532   5.534   4.518   6.966 -2.7560  1.6694  0.4427
  112OSM    C4S11533   5.519   4.699   6.710 -0.2056 -0.4417  0.9268
  112OSM    H4S11534   5.412   4.692   6.686  0.0517 -0.5197 -0.2477
  112OSM    C5S11535   5.597   4.786   6.641  0.4626  0.3869  0.2142
  112OSM    H5S11536   5.705   4.780   6.661  0.3661 -3.7742  0.3649
  112OSM    C6S11537   5.551   4.892   6.548 -0.1249  0.6664  0.2350
  112OSM    H6S11538   5.619   4.856   6.467  1.7602 -1.5696  2.6223
  112OSM    H6T11539   5.581   4.991   6.588  0.5805  0.7163 -0.3884
  112OSM    C7S11540   5.403   4.894   6.500  0.1000 -0.0002 -0.0435
  112OSM    H7S11541   5.337   4.926   6.585 -1.2230  0.9926 -1.3814
  112OSM    H7T11542   5.368   4.795   6.464  3.0698 -1.5052  0.9180
  112OSM    C8S11543   5.391   5.012   6.408  0.3785 -0.1185  0.1152
  112OSM    H8S11544   5.468   5.084   6.444  0.8953 -1.2948  1.4483
  112OSM    H8T11545   5.291   5.060   6.402  0.1155 -0.4976  1.2406
  112OSM    C9S11546   5.433   4.989   6.263 -0.0740 -0.5358 -0.1777
  112OSM    H9S11547   5.365   4.906   6.233 -1.1191 -0.1088  0.9195
  112OSM    H9T11548   5.539   4.957   6.252  0.1553  0.6410 -1.5321
  112OSM   C10S11549   5.417   5.114   6.178  0.2191 -0.5130  0.3618
  112OSM   H10S11550   5.476   5.193   6.230 -1.0776  1.9004 -1.6358
  112OSM   H10T11551   5.311   5.146   6.175  0.3392 -0.1744 -1.9309
  112OSM   C11S11552   5.460   5.096   6.037 -0.2560  0.9302 -0.2827
  112OSM   H11S11553   5.409   5.008   5.991  1.1511 -1.1463  1.9073
  112OSM   H11T11554   5.570   5.091   6.023 -0.2692  1.5640 -0.6586
  112OSM   C12S11555   5.400   5.213   5.954  0.4210  0.1024  0.5264
  112OSM   H12S11556   5.420   5.310   6.005 -0.8684 -0.5601  2.4020
  112OSM   H12T11557   5.290   5.203   5.964  0.0842  1.0658 -1.5906
  112OSM   C13S11558   5.440   5.216   5.803  0.5202 -0.6953  0.1230
  112OSM   H13S11559   5.551   5.210   5.798  0.6753  1.7495 -0.6234
  112OSM   H13T11560   5.415   5.308   5.747 -0.0508  1.1347  3.1594
  112OSM   C14S11561   5.389   5.094   5.724  0.4398  0.1995  0.1105
  112OSM   H14S11562   5.280   5.087   5.741  0.4187 -2.1653 -0.5978
  112OSM   H14T11563   5.432   5.000   5.766  0.0225  0.9280  2.2972
  112OSM   C15S11564   5.432   5.106   5.582 -0.3087  0.1842 -0.3080
  112OSM   H15S11565   5.538   5.138   5.579 -0.6993  1.4865 -1.5590
  112OSM   H15T11566   5.378   5.194   5.542 -0.0080  0.7528  0.5133
  112OSM   C16S11567   5.384   5.001   5.483 -0.5945 -0.5400  0.0449
  112OSM   H16S11568   5.274   4.984   5.492 -0.3694 -1.7906  0.7151
  112OSM   H16T11569   5.424   4.902   5.517 -0.9232 -0.5909  0.2886
  112OSM   C17S11570   5.426   5.030   5.336  0.1849 -0.5258  0.4094
  112OSM   H17S11571   5.415   5.138   5.310 -0.9289 -0.8966 -0.7422
  112OSM   H17T11572   5.355   4.973   5.273  0.0855  1.3045 -1.2432
  112OSM   C18S11573   5.567   4.987   5.302  0.0544 -0.1671  0.1150
  112OSM   H18S11574   5.614   4.939   5.391  0.6670 -0.6661 -0.4709
  112OSM   H18T11575   5.629   5.072   5.265  0.3143 -0.5935 -0.4363
  112OSM   H18U11576   5.553   4.904   5.230  0.2562 -0.5620  0.5280
  112OSM    C1F11577   5.403   4.348   6.540 -1.3395 -0.8058  0.4822
  112OSM     OF11578   5.332   4.283   6.604  0.4060  0.0128  0.1460
  112OSM    C2F11579   5.403   4.332   6.385 -0.1798 -0.3003  0.2470
  112OSM    H2F11580   5.304   4.284   6.365 -1.4389  0.8132  3.2194
  112OSM    H2G11581   5.489   4.264   6.366 -0.2893 -0.1860 -0.6683
  112OSM    C3F11582   5.412   4.462   6.306 -0.2158  0.3078  0.1983
  112OSM    H3F11583   5.487   4.529   6.352  0.8423 -1.0816  0.5913
  112OSM    H3G11584   5.315   4.512   6.327 -1.9513 -3.2124  1.4007
  112OSM    C4F11585   5.447   4.459   6.155  0.4755  0.3310 -0.2758
  112OSM    H4F11586   5.360   4.415   6.103  0.8092 -1.2226  0.4235
  112OSM    H4G11587   5.537   4.398   6.131  0.2720  1.1662 -3.6889
  112OSM    C5F11588   5.470   4.603   6.101 -0.8492  0.5046 -0.1390
  112OSM    H5F11589   5.566   4.631   6.147 -0.2704 -2.2097  0.5195
  112OSM    H5G11590   5.383   4.666   6.129 -0.0721  0.7672  1.7762
  112OSM    C6F11591   5.495   4.608   5.948 -0.7720 -1.0730 -0.1674
  112OSM    H6F11592   5.521   4.712   5.920  1.6762 -1.3747  0.7592
  112OSM    H6G11593   5.408   4.582   5.883 -0.1393  0.2863 -1.6251
  112OSM    C7F11594   5.613   4.518   5.902 -0.3273 -0.6130 -0.0097
  112OSM    H7F11595   5.596   4.417   5.944 -0.5554 -1.1526 -1.3543
  112OSM    H7G11596   5.701   4.571   5.946  0.4175 -1.1536 -0.8108
  112OSM    C8F11597   5.629   4.498   5.750  0.1542  0.1587  0.0894
  112OSM    H8F11598   5.540   4.437   5.724  0.1545  0.1830  0.0294
  112OSM    H8G11599   5.719   4.435   5.734 -0.0296 -0.1668  0.3247
  112OSM    C9F11600   5.649   4.622   5.665  0.5293 -0.5244 -0.1603
  112OSM    H9F11601   5.753   4.656   5.681  0.3231 -0.2384  0.6170
  112OSM   C10F11602   5.564   4.669   5.572  0.3625 -0.6385 -0.2711
  112OSM   H10F11603   5.596   4.740   5.495 -1.1812  2.2521  1.5814
  112OSM   C11F11604   5.431   4.610   5.540  0.2671 -0.5221 -0.1872
  112OSM   H11F11605   5.348   4.685   5.538  0.0989 -0.6805 -2.8096
  112OSM   H11G11606   5.402   4.527   5.607  0.7323 -0.4975  0.0455
  112OSM   C12F11607   5.425   4.565   5.390 -0.0659 -0.0644 -0.3508
  112OSM   H12F11608   5.431   4.645   5.313 -1.1931 -0.8992 -1.3563
  112OSM   H12G11609   5.327   4.518   5.367  0.6000 -0.5791 -2.3849
  112OSM   C13F11610   5.544   4.462   5.368 -0.2530 -0.0385 -0.3239
  112OSM   H13F11611   5.533   4.380   5.442 -0.2074  0.1583 -0.1013
  112OSM   H13G11612   5.642   4.510   5.387 -0.2122 -0.0405 -0.5273
  112OSM   C14F11613   5.541   4.396   5.225 -0.2677 -0.0386 -0.6944
  112OSM   H14F11614   5.437   4.360   5.210  0.2162 -1.7356 -0.2250
  112OSM   H14G11615   5.616   4.314   5.234  0.3192  0.5898  0.3903
  112OSM   C15F11616   5.567   4.497   5.113 -0.7509  0.0470  0.3316
  112OSM   H15F11617   5.670   4.534   5.130 -0.9282 -0.2342  2.3282
  112OSM   H15G11618   5.501   4.585   5.132 -2.2936 -0.9166 -0.3562
  112OSM   C16F11619   5.544   4.447   4.975  0.5712  0.5466  0.3326
  112OSM   H16F11620   5.439   4.412   4.974 -0.2575  2.8109  0.6951
  112OSM   H16G11621   5.604   4.357   4.949 -1.7330 -1.1760  0.7122
  112OSM   C17F11622   5.548   4.553   4.864  0.3342 -0.0005  0.5364
  112OSM   H17F11623   5.491   4.644   4.890  2.3168  2.2738 -2.3905
  112OSM   H17G11624   5.502   4.514   4.771 -0.3724  1.2655  0.3423
  112OSM   C18F11625   5.688   4.601   4.830 -0.0626  0.8469 -0.1374
  112OSM   H18F11626   5.752   4.515   4.801  0.0494  1.0775 -0.5880
  112OSM   H18G11627   5.729   4.656   4.917 -1.5370  2.0883 -0.1916
  112OSM   H18H11628   5.686   4.673   4.745  1.3355  0.6326 -0.3844
  113OSM      N11629   2.543   5.595   7.277  0.1306 -0.1501 -0.1274
  113OSM    C1511630   2.582   5.730   7.332  0.5310  0.1264  0.0874
  113OSM   H15A11631   2.623   5.722   7.431 -2.4582 -1.0393  1.3364
  113OSM   H15B11632   2.490   5.784   7.349 -0.1421  0.4079 -3.5083
  113OSM   H15C11633   2.634   5.794   7.262 -0.3762 -0.0111 -0.7349
  113OSM    C1411634   2.666   5.514   7.282 -0.2271 -0.2944 -0.2803
  113OSM   H14A11635   2.742   5.550   7.215  1.0053  0.1374  1.2670
  113OSM   H14B11636   2.647   5.415   7.244  0.8044  0.6961 -3.7029
  113OSM   H14C11637   2.723   5.517   7.374 -2.0106  1.2601  0.8605
  113OSM    C1311638   2.451   5.538   7.380  0.2155  0.7385  0.4249
  113OSM   H13A11639   2.499   5.534   7.476 -0.8510  2.1001  1.0528
  113OSM   H13B11640   2.419   5.439   7.352 -0.8209  0.6797  1.7367
  113OSM   H13C11641   2.361   5.596   7.399 -0.0214 -0.0100  1.6756
  113OSM    C1211642   2.486   5.606   7.142  0.4641  0.2158  0.4102
  113OSM   H12A11643   2.397   5.667   7.136 -0.2111 -0.8053 -0.1197
  113OSM   H12B11644   2.441   5.512   7.114 -0.1301  0.3119  1.0034
  113OSM    C1111645   2.574   5.657   7.034 -0.0655  0.1961 -0.0392
  113OSM   H11A11646   2.534   5.641   6.932 -1.8134 -0.4226  0.6997
  113OSM   H11B11647   2.664   5.592   7.029  0.5626  1.1115 -1.4297
  113OSM      P11648   2.557   5.905   6.974  0.0070  0.6891 -0.0640
  113OSM    O1311649   2.419   5.919   7.024 -0.0193 -0.0409 -0.1592
  113OSM    O1411650   2.650   6.023   6.977  0.2453  0.5292  0.0052
  113OSM    O1111651   2.543   5.853   6.821  0.0419  0.0905  0.4674
  113OSM    O1211652   2.619   5.787   7.052  0.3234 -0.1915 -0.2279
  113OSM    C1S11653   2.665   5.860   6.742 -0.5552  0.0382 -0.7967
  113OSM    H1S11654   2.735   5.780   6.773 -3.2539 -1.2184  2.8497
  113OSM    H1T11655   2.712   5.960   6.739 -0.0855 -0.0977  0.8883
  113OSM     NF11656   2.756   5.803   6.523 -0.1507  0.2670  0.4508
  113OSM    HNF11657   2.820   5.869   6.484  1.4404 -1.4150  0.0634
  113OSM    C2S11658   2.630   5.836   6.590 -0.4438  0.0748 -0.3609
  113OSM    H2S11659   2.566   5.746   6.596 -0.1316 -0.0552  1.4189
  113OSM    C3S11660   2.550   5.959   6.542  0.1351 -0.3204  0.0628
  113OSM    H3S11661   2.602   6.058   6.547  0.1059 -0.0563 -3.0247
  113OSM     O311662   2.435   5.990   6.623  0.3609 -0.4099  1.0261
  113OSM    HO311663   2.440   5.935   6.702  2.5986 -1.2320  0.3811
  113OSM    C4S11664   2.530   5.929   6.397  0.7064 -0.4782  0.5871
  113OSM    H4S11665   2.620   5.930   6.333  1.1592 -2.4489  1.1345
  113OSM    C5S11666   2.417   5.876   6.343  0.6165 -0.2101 -0.3849
  113OSM    H5S11667   2.328   5.851   6.403  1.2106  0.2107  0.7038
  113OSM    C6S11668   2.391   5.836   6.197 -0.3020  0.3338 -0.5571
  113OSM    H6S11669   2.293   5.871   6.158  1.4355  1.8203 -4.1217
  113OSM    H6T11670   2.407   5.726   6.195  3.7176  0.7125  1.3531
  113OSM    C7S11671   2.488   5.884   6.091  0.2154 -0.5591  0.4507
  113OSM    H7S11672   2.588   5.837   6.105  0.8234  1.1324  2.1073
  113OSM    H7T11673   2.500   5.994   6.100 -0.3582 -0.2337 -2.0195
  113OSM    C8S11674   2.437   5.855   5.945 -0.1961 -0.1580  0.2263
  113OSM    H8S11675   2.507   5.903   5.873 -1.3870 -1.8111 -2.1532
  113OSM    H8T11676   2.342   5.908   5.923 -0.0145  0.4947  0.9669
  113OSM    C9S11677   2.420   5.709   5.913 -0.2237  0.1834 -0.5014
  113OSM    H9S11678   2.369   5.661   6.000 -0.6887 -0.0954 -0.9189
  113OSM    H9T11679   2.520   5.660   5.906 -0.9417 -1.4679  0.2081
  113OSM   C10S11680   2.344   5.664   5.790  0.7535  0.2113  0.6236
  113OSM   H10S11681   2.367   5.718   5.696  0.1146 -0.3941  0.1077
  113OSM   H10T11682   2.237   5.688   5.806 -0.4462 -2.7608 -2.0132
  113OSM   C11S11683   2.350   5.516   5.755  0.4021  1.0439  0.0099
  113OSM   H11S11684   2.302   5.455   5.835 -2.2897 -1.3558 -3.1236
  113OSM   H11T11685   2.454   5.479   5.747 -0.0560 -0.1429 -0.7791
  113OSM   C12S11686   2.271   5.471   5.632 -0.4723  0.0857  0.3362
  113OSM   H12S11687   2.187   5.544   5.629  1.1244  2.0689  1.4634
  113OSM   H12T11688   2.227   5.371   5.648 -1.2386  0.5393  1.1907
  113OSM   C13S11689   2.345   5.451   5.499  0.1035  0.0186 -1.0679
  113OSM   H13S11690   2.285   5.381   5.437 -0.5778  0.3853 -0.8366
  113OSM   H13T11691   2.440   5.398   5.522  0.3396  0.7683 -0.2417
  113OSM   C14S11692   2.372   5.581   5.424  0.4554 -0.1969 -0.4233
  113OSM   H14S11693   2.457   5.644   5.459  0.9112 -0.7978 -0.4326
  113OSM   H14T11694   2.278   5.639   5.434  0.2123 -0.6898  0.1413
  113OSM   C15S11695   2.404   5.561   5.278  0.0170  0.4489  0.1621
  113OSM   H15S11696   2.366   5.462   5.246  0.0443  0.3261  0.5051
  113OSM   H15T11697   2.514   5.550   5.271  0.0577  0.6151  0.5026
  113OSM   C16S11698   2.357   5.677   5.199 -0.6058 -0.1516 -0.0828
  113OSM   H16S11699   2.365   5.772   5.255 -2.2614 -0.2378  0.3619
  113OSM   H16T11700   2.250   5.657   5.177 -0.0883 -1.9109 -1.2360
  113OSM   C17S11701   2.428   5.690   5.063  0.7299 -0.5484  0.3715
  113OSM   H17S11702   2.529   5.735   5.071 -0.4377  2.1933  1.0348
  113OSM   H17T11703   2.361   5.757   5.005  1.1782 -0.2845  0.1535
  113OSM   C18S11704   2.440   5.561   4.984  0.6358 -0.8106 -0.0015
  113OSM   H18S11705   2.538   5.519   5.016  0.7938 -0.6195 -0.2367
  113OSM   H18T11706   2.477   5.586   4.882  0.8248  1.6239  0.5936
  113OSM   H18U11707   2.352   5.494   4.974  0.8309 -0.8027 -2.1519
  113OSM    C1F11708   2.815   5.687   6.551  0.0103 -0.0146  0.1166
  113OSM     OF11709   2.754   5.597   6.622 -0.7453 -0.3699 -0.4902
  113OSM    C2F11710   2.952   5.666   6.488  0.0216  0.4393 -0.7071
  113OSM    H2F11711   3.018   5.662   6.577  0.0143  0.6140 -0.6947
  113OSM    H2G11712   2.977   5.746   6.416 -1.2022  0.5005 -1.0887
  113OSM    C3F11713   2.979   5.535   6.409  0.1828  0.5272  0.4795
  113OSM    H3F11714   3.015   5.451   6.472  0.9551  0.7067  0.2870
  113OSM    H3G11715   3.066   5.566   6.348 -0.6508  0.7001 -0.6537
  113OSM    C4F11716   2.866   5.490   6.320  0.6844 -0.8686  0.2426
  113OSM    H4F11717   2.834   5.568   6.247  2.1624  0.5012  1.0221
  113OSM    H4G11718   2.775   5.467   6.380  1.0186  1.3134  1.6688
  113OSM    C5F11719   2.878   5.375   6.220  0.1147  0.0328  0.3772
  113OSM    H5F11720   2.906   5.279   6.270 -0.3374 -0.1765  0.2358
  113OSM    H5G11721   2.960   5.401   6.151  0.5276 -0.8335  0.5273
  113OSM    C6F11722   2.756   5.370   6.124 -0.8166  0.4803  0.1352
  113OSM    H6F11723   2.733   5.462   6.066 -2.9153  0.9915  1.6319
  113OSM    H6G11724   2.672   5.352   6.195  0.4066  1.0330  1.7742
  113OSM    C7F11725   2.769   5.242   6.041  0.5923  0.1084 -0.4487
  113OSM    H7F11726   2.674   5.216   5.990 -1.0310 -0.3980  2.5846
  113OSM    H7G11727   2.786   5.161   6.116 -4.3667 -1.1485 -0.3516
  113OSM    C8F11728   2.884   5.246   5.941  0.3486 -0.7244  0.8806
  113OSM    H8F11729   2.867   5.156   5.878 -0.7081 -0.7570  1.1951
  113OSM    H8G11730   2.982   5.235   5.993  0.5722 -1.9839  0.2293
  113OSM    C9F11731   2.891   5.365   5.847 -0.6463 -0.1326  0.4528
  113OSM    H9F11732   2.942   5.455   5.885  1.9742 -0.4502 -1.9455
  113OSM   C10F11733   2.841   5.368   5.722 -0.7988 -0.9302  0.1444
  113OSM   H10F11734   2.854   5.464   5.671  1.6149 -0.4363  1.5057
  113OSM   C11F11735   2.791   5.247   5.645  0.1258 -0.6507  0.1084
  113OSM   H11F11736   2.712   5.202   5.709 -1.9246 -0.3940 -2.1221
  113OSM   H11G11737   2.873   5.172   5.633  0.2305 -0.2822 -1.6779
  113OSM   C12F11738   2.731   5.269   5.505  0.0352 -1.0919 -0.9625
  113OSM   H12F11739   2.652   5.347   5.504  1.0827  0.0041 -1.1614
  113OSM   H12G11740   2.677   5.185   5.457 -1.5679  0.4639 -2.0086
  113OSM   C13F11741   2.839   5.323   5.409 -0.9514 -0.0537  0.1151
  113OSM   H13F11742   2.909   5.240   5.384 -1.3397  0.3872 -2.7924
  113OSM   H13G11743   2.887   5.403   5.469  1.1938 -2.0142  1.1937
  113OSM   C14F11744   2.802   5.380   5.270  0.0203  0.1833 -0.2309
  113OSM   H14F11745   2.896   5.407   5.217  0.9008 -1.6644  0.3118
  113OSM   H14G11746   2.764   5.478   5.307  0.2464 -0.2223  1.1474
  113OSM   C15F11747   2.691   5.310   5.190  0.0158  0.2214 -0.0104
  113OSM   H15F11748   2.640   5.393   5.136  1.4501  0.5906 -0.8518
  113OSM   H15G11749   2.612   5.277   5.260 -2.6809  1.4725 -2.2585
  113OSM   C16F11750   2.751   5.210   5.094 -0.4590 -0.0095  0.1425
  113OSM   H16F11751   2.798   5.123   5.144 -0.4098 -0.5961 -0.9086
  113OSM   H16G11752   2.839   5.257   5.045  0.3138 -1.1148  0.4385
  113OSM   C17F11753   2.636   5.148   5.003 -0.9286 -0.2044 -0.2501
  113OSM   H17F11754   2.601   5.229   4.936  0.8521 -1.6309 -3.0729
  113OSM   H17G11755   2.561   5.099   5.069  2.0904 -4.3106  0.5669
  113OSM   C18F11756   2.689   5.037   4.907  0.6528 -0.9617 -0.5918
  113OSM   H18F11757   2.604   4.975   4.871  1.0292 -3.0338  1.8394
  113OSM   H18G11758   2.757   4.976   4.970 -0.7719 -0.4063  1.6024
  113OSM   H18H11759   2.741   5.086   4.822  0.8280 -0.0486  0.0266
  114OSM      N11760   0.916   4.692   7.031 -0.0414 -0.1750  1.2031
  114OSM    C1511761   0.977   4.767   6.917 -0.1094  0.4199  0.3434
  114OSM   H15A11762   1.036   4.851   6.953  1.3426  0.6206 -2.2555
  114OSM   H15B11763   0.905   4.809   6.848 -0.9366  0.4774  1.2186
  114OSM   H15C11764   1.041   4.699   6.863 -1.8516 -0.9797 -0.0502
  114OSM    C1411765   1.027   4.625   7.097  0.4016  0.6097 -0.5375
  114OSM   H14A11766   0.999   4.583   7.193  2.2929 -0.2654 -0.3341
  114OSM   H14B11767   1.105   4.694   7.125 -0.5951  0.6590  2.5165
  114OSM   H14C11768   1.071   4.547   7.036 -0.0958  0.8529 -1.2300
  114OSM    C1311769   0.859   4.790   7.129  0.9580 -0.5004 -0.1678
  114OSM   H13A11770   0.924   4.873   7.149  0.4632  0.0391 -0.7250
  114OSM   H13B11771   0.831   4.741   7.221 -2.2961 -0.1134 -0.8350
  114OSM   H13C11772   0.773   4.844   7.091  1.8250  0.4692 -0.7806
  114OSM    C1211773   0.810   4.597   6.974  0.6859  0.0565  0.7026
  114OSM   H12A11774   0.770   4.531   7.049  0.4402 -0.7180 -0.0895
  114OSM   H12B11775   0.861   4.530   6.906  1.1765 -1.4864  2.5005
  114OSM    C1111776   0.691   4.662   6.904  0.0342 -0.2795 -0.5133
  114OSM   H11A11777   0.618   4.583   6.876 -0.8617  0.6190 -0.8068
  114OSM   H11B11778   0.709   4.707   6.804 -1.6560 -1.6923 -1.5138
  114OSM      P11779   0.488   4.825   6.963  0.4149 -0.3315  0.0811
  114OSM    O1311780   0.392   4.716   6.950  0.4415 -0.1011 -0.6334
  114OSM    O1411781   0.459   4.935   7.061  0.3806  0.4319  0.8548
  114OSM    O1111782   0.510   4.890   6.819  0.4938  0.1828 -0.4763
  114OSM    O1211783   0.627   4.764   6.986 -0.4232  0.2124 -0.1832
  114OSM    C1S11784   0.624   4.978   6.793 -0.4668  0.3639  0.3114
  114OSM    H1S11785   0.716   4.933   6.836 -2.4163 -1.2806  3.1279
  114OSM    H1T11786   0.614   5.077   6.843 -1.5243 -0.6386  2.2044
  114OSM     NF11787   0.757   5.020   6.592  0.8890  0.3842  0.3245
  114OSM    HNF11788   0.771   5.093   6.526 -1.5713  0.4782 -0.1647
  114OSM    C2S11789   0.628   4.983   6.638  0.5069 -0.1056  0.3073
  114OSM    H2S11790   0.606   4.882   6.598  0.0674 -0.0498  0.3991
  114OSM    C3S11791   0.506   5.073   6.596 -0.5284 -0.5156 -0.5766
  114OSM    H3S11792   0.527   5.174   6.637  0.6836 -1.0074  0.0623
  114OSM     O311793   0.382   5.023   6.641  0.8067  0.5733  0.4592
  114OSM    HO311794   0.409   4.950   6.698  3.5902  1.6943  0.7392
  114OSM    C4S11795   0.512   5.074   6.447 -1.0737  0.5029  0.5013
  114OSM    H4S11796   0.583   5.149   6.408  1.8434 -1.6395  1.3709
  114OSM    C5S11797   0.445   4.988   6.368 -0.2151  0.4411  0.1264
  114OSM    H5S11798   0.386   4.913   6.422 -0.5943  1.1931  0.7817
  114OSM    C6S11799   0.438   4.982   6.216  0.0730 -0.6464  0.2052
  114OSM    H6S11800   0.337   5.000   6.172 -1.0727 -4.6574  0.8067
  114OSM    H6T11801   0.452   4.884   6.165 -2.9181 -0.6422 -0.8503
  114OSM    C7S11802   0.540   5.067   6.139  0.0266 -0.9986 -0.4610
  114OSM    H7S11803   0.643   5.047   6.175 -0.5795  0.8856  2.6737
  114OSM    H7T11804   0.528   5.171   6.177  1.9363 -0.2188 -1.7872
  114OSM    C8S11805   0.540   5.042   5.984 -0.6518  0.3065 -0.6989
  114OSM    H8S11806   0.441   5.012   5.946 -0.7547 -1.2298  0.6789
  114OSM    H8T11807   0.613   4.960   5.968  1.2719  0.9086  3.4803
  114OSM    C9S11808   0.598   5.170   5.910  0.2833  1.1897  0.0709
  114OSM    H9S11809   0.706   5.178   5.938  0.1545  0.7796  0.7158
  114OSM    H9T11810   0.546   5.259   5.949  1.7838  0.8439  3.1392
  114OSM   C10S11811   0.594   5.148   5.757  0.2794 -0.0284 -0.0301
  114OSM   H10S11812   0.647   5.056   5.724 -0.1830 -0.5847  0.7366
  114OSM   H10T11813   0.643   5.237   5.712  1.3945 -1.7049 -2.3325
  114OSM   C11S11814   0.443   5.137   5.701 -0.1453 -0.0935  0.4287
  114OSM   H11S11815   0.379   5.208   5.758 -0.3522 -2.3942  3.2552
  114OSM   H11T11816   0.405   5.037   5.729  3.3782 -1.7467 -0.1675
  114OSM   C12S11817   0.428   5.175   5.552 -0.0275  0.8109 -0.9452
  114OSM   H12S11818   0.472   5.273   5.524  1.7682  0.0117 -1.0783
  114OSM   H12T11819   0.318   5.166   5.536  0.0522 -1.9711 -0.5115
  114OSM   C13S11820   0.488   5.062   5.467 -0.0896 -0.7057 -0.1902
  114OSM   H13S11821   0.462   4.965   5.514 -1.0538 -0.1039  0.5732
  114OSM   H13T11822   0.598   5.065   5.478 -0.0478 -2.3719  0.1588
  114OSM   C14S11823   0.444   5.077   5.326 -1.1771  0.4829 -0.0356
  114OSM   H14S11824   0.476   5.168   5.271  1.6434  0.3515  1.2189
  114OSM   H14T11825   0.333   5.072   5.322 -1.3275  3.0248 -1.0352
  114OSM   C15S11826   0.503   4.951   5.250  0.1014  0.3354  0.5256
  114OSM   H15S11827   0.471   4.862   5.309  0.6479  0.1430  0.5370
  114OSM   H15T11828   0.614   4.947   5.249  0.1011 -0.0817  1.5652
  114OSM   C16S11829   0.441   4.940   5.110 -0.1261 -0.1986 -0.1704
  114OSM   H16S11830   0.472   5.027   5.048  2.7536 -0.6876  0.4145
  114OSM   H16T11831   0.332   4.946   5.128 -0.0451 -0.7341  0.5595
  114OSM   C17S11832   0.463   4.797   5.057 -0.6061 -0.9448 -0.7669
  114OSM   H17S11833   0.430   4.734   5.142  2.1964 -2.2256 -0.5303
  114OSM   H17T11834   0.571   4.774   5.041 -0.6795  0.0493 -3.1294
  114OSM   C18S11835   0.376   4.761   4.936 -0.3305 -0.1812  0.3628
  114OSM   H18S11836   0.402   4.659   4.902  1.4460  0.4172 -0.2022
  114OSM   H18T11837   0.402   4.821   4.847 -0.4237  1.2406  1.2582
  114OSM   H18U11838   0.266   4.753   4.952 -0.0915 -1.1346  1.6744
  114OSM    C1F11839   0.859   4.932   6.598  0.0798 -0.5866  0.2570
  114OSM     OF11840   0.837   4.818   6.631 -0.1435  0.1510  0.8183
  114OSM    C2F11841   0.988   4.997   6.559 -0.9128 -0.0809 -0.3151
  114OSM    H2F11842   1.050   5.033   6.644 -0.6238  0.1685 -0.6253
  114OSM    H2G11843   0.956   5.091   6.508 -2.9811 -0.0408  0.9522
  114OSM    C3F11844   1.080   4.921   6.449  0.1427  0.1097 -0.1147
  114OSM    H3F11845   1.011   4.870   6.378 -0.0731 -0.4694  0.5008
  114OSM    H3G11846   1.134   4.842   6.505 -0.0108  0.2028  0.1696
  114OSM    C4F11847   1.173   5.015   6.380 -0.3213 -0.2210 -0.1037
  114OSM    H4F11848   1.235   5.081   6.444  0.9124 -0.4068 -1.0535
  114OSM    H4G11849   1.111   5.081   6.316 -1.0449  0.8766  1.6734
  114OSM    C5F11850   1.268   4.936   6.287 -0.7484 -0.4319  0.0062
  114OSM    H5F11851   1.202   4.875   6.221 -1.4011  1.8870 -1.6300
  114OSM    H5G11852   1.330   4.861   6.340  0.6270 -0.4110 -1.5066
  114OSM    C6F11853   1.363   5.009   6.185  0.3820  0.2474  0.2939
  114OSM    H6F11854   1.440   4.945   6.137  1.2179  2.4792 -1.5137
  114OSM    H6G11855   1.423   5.084   6.242  1.1275 -0.3598  0.3196
  114OSM    C7F11856   1.283   5.081   6.078  0.1529  0.2195 -0.5189
  114OSM    H7F11857   1.194   5.132   6.121  0.0097 -0.7731  0.3825
  114OSM    H7G11858   1.250   5.000   6.010 -1.4494 -0.9600  1.5409
  114OSM    C8F11859   1.365   5.182   5.994  0.5497  0.3017 -0.4457
  114OSM    H8F11860   1.453   5.131   5.950 -1.1238 -1.3958 -1.9727
  114OSM    H8G11861   1.405   5.260   6.063  1.0418 -1.7445  1.6907
  114OSM    C9F11862   1.285   5.264   5.893  0.3717 -0.4390  0.0747
  114OSM    H9F11863   1.236   5.357   5.926  0.8922  0.1121 -0.6449
  114OSM   C10F11864   1.265   5.238   5.765 -0.3530 -0.4865  0.0265
  114OSM   H10F11865   1.218   5.318   5.707  1.4063  1.0939  0.6782
  114OSM   C11F11866   1.330   5.127   5.688 -0.6179  0.0696 -0.3624
  114OSM   H11F11867   1.252   5.077   5.626 -0.4421 -2.6312  1.4474
  114OSM   H11G11868   1.365   5.042   5.750 -0.5852  0.6505  0.4316
  114OSM   C12F11869   1.451   5.168   5.605 -0.1409 -0.4681  0.6963
  114OSM   H12F11870   1.480   5.079   5.546  2.7807  0.2461  0.8911
  114OSM   H12G11871   1.532   5.205   5.671  0.0859 -1.7740  1.1641
  114OSM   C13F11872   1.408   5.278   5.500  0.2417  0.0204  0.1441
  114OSM   H13F11873   1.389   5.374   5.551 -0.1640  2.3153 -3.8814
  114OSM   H13G11874   1.314   5.243   5.452 -0.2825  0.4304  0.8612
  114OSM   C14F11875   1.504   5.311   5.389  0.0451  0.1166  0.7740
  114OSM   H14F11876   1.547   5.216   5.351  1.1040  0.3042  1.4433
  114OSM   H14G11877   1.595   5.369   5.416  1.2059 -2.2327  2.3026
  114OSM   C15F11878   1.440   5.399   5.278 -0.3992  0.2242 -0.3652
  114OSM   H15F11879   1.402   5.494   5.322  0.7457  0.8984 -0.8062
  114OSM   H15G11880   1.356   5.346   5.228 -1.0248 -1.3850  2.2153
  114OSM   C16F11881   1.539   5.444   5.165 -0.2759 -0.2683  0.2035
  114OSM   H16F11882   1.595   5.361   5.118 -0.0367  1.1252 -2.1564
  114OSM   H16G11883   1.617   5.498   5.223  0.2382 -1.4437  0.6269
  114OSM   C17F11884   1.475   5.533   5.058 -0.5340  0.0327  0.0305
  114OSM   H17F11885   1.373   5.548   5.100  0.4325  0.6825  2.2856
  114OSM   H17G11886   1.449   5.471   4.970  0.5869 -1.5219  0.7530
  114OSM   C18F11887   1.558   5.658   5.024 -0.4038  0.3673  0.5367
  114OSM   H18F11888   1.525   5.705   4.929  1.2744  1.6309  0.5311
  114OSM   H18G11889   1.667   5.639   5.031 -0.3128  0.2848 -0.8108
  114OSM   H18H11890   1.542   5.736   5.101 -1.0080 -0.2080  1.0071
  115OSM      N11891   0.328   1.530   7.020 -0.4294 -0.2451  0.5322
  115OSM    C1511892   0.271   1.397   7.052 -0.3410  0.0450 -0.4606
  115OSM   H15A11893   0.174   1.401   7.100 -0.6394 -0.1107 -1.0360
  115OSM   H15B11894   0.345   1.342   7.108 -0.5604  0.0473 -0.1679
  115OSM   H15C11895   0.255   1.339   6.962 -0.4468 -0.2052 -0.2829
  115OSM    C1411896   0.216   1.619   6.962  0.0782 -0.7278 -0.3189
  115OSM   H14A11897   0.191   1.587   6.862 -0.0570  2.1276 -1.2992
  115OSM   H14B11898   0.242   1.724   6.958 -1.3516 -0.3671 -0.7303
  115OSM   H14C11899   0.130   1.607   7.027 -1.0406  1.8714 -1.1967
  115OSM    C1311900   0.378   1.600   7.142 -0.1422 -0.4461 -0.4154
  115OSM   H13A11901   0.449   1.537   7.194 -1.9703 -1.6094  0.7763
  115OSM   H13B11902   0.307   1.608   7.222 -1.0680 -3.4181 -0.8257
  115OSM   H13C11903   0.420   1.697   7.122 -0.4587 -0.2453 -0.1020
  115OSM    C1211904   0.448   1.538   6.930 -0.4164 -0.6245  0.0125
  115OSM   H12A11905   0.538   1.496   6.973 -0.2066 -1.4001 -1.1667
  115OSM   H12B11906   0.467   1.644   6.920  0.7570 -0.7143  1.0051
  115OSM    C1111907   0.434   1.488   6.787  0.1659  0.6213  0.1450
  115OSM   H11A11908   0.525   1.510   6.728 -0.4033  0.0346 -0.9899
  115OSM   H11B11909   0.351   1.547   6.742 -0.0459  0.7864  0.7350
  115OSM      P11910   0.487   1.231   6.782  0.6196  0.2417  0.0401
  115OSM    O1311911   0.629   1.272   6.788  0.0734 -0.2736 -0.6194
  115OSM    O1411912   0.449   1.127   6.889 -0.2176 -0.3847  0.1027
  115OSM    O1111913   0.462   1.149   6.643  0.0954  0.1853 -0.0864
  115OSM    O1211914   0.385   1.343   6.777 -0.7536 -0.7385 -0.3175
  115OSM    C1S11915   0.346   1.193   6.563 -1.3389 -0.1727  0.0362
  115OSM    H1S11916   0.346   1.303   6.547 -0.9507 -0.4708 -2.4141
  115OSM    H1T11917   0.250   1.175   6.616 -0.7558 -0.9172  0.8645
  115OSM     NF11918   0.246   1.213   6.333 -0.1112 -0.2947  0.0843
  115OSM    HNF11919   0.166   1.156   6.317 -0.9765  0.9702 -0.1899
  115OSM    C2S11920   0.351   1.144   6.416 -0.4194  0.4553 -0.2194
  115OSM    H2S11921   0.444   1.170   6.362 -1.1876 -0.9749 -2.3970
  115OSM    C3S11922   0.348   0.989   6.412  0.2023 -0.0331 -0.0733
  115OSM    H3S11923   0.251   0.943   6.444 -0.1057 -1.5979 -2.9461
  115OSM     O311924   0.455   0.935   6.486  0.0534  0.3142 -0.5483
  115OSM    HO311925   0.483   1.005   6.546  1.7368 -2.0985  1.7019
  115OSM    C4S11926   0.368   0.955   6.268 -0.3918  0.1586  0.7199
  115OSM    H4S11927   0.466   0.961   6.220 -0.6678  0.8247  0.2252
  115OSM    C5S11928   0.268   0.923   6.185  0.3530 -0.0973 -0.7343
  115OSM    H5S11929   0.168   0.910   6.228  0.1041  1.0184 -0.9392
  115OSM    C6S11930   0.304   0.885   6.047 -0.5104 -1.0453  0.7107
  115OSM    H6S11931   0.270   0.782   6.023 -2.5178 -0.0985 -0.8412
  115OSM    H6T11932   0.412   0.877   6.025 -0.4427  1.4608 -0.1635
  115OSM    C7S11933   0.247   0.985   5.942  0.3114  0.1394  1.1996
  115OSM    H7S11934   0.268   1.093   5.960 -1.4208  1.0609 -1.6256
  115OSM    H7T11935   0.136   0.981   5.942  0.3174 -0.0907  0.6321
  115OSM    C8S11936   0.280   0.958   5.796  0.3423  0.3463 -0.6094
  115OSM    H8S11937   0.275   0.849   5.777  0.9355  0.5363 -1.9843
  115OSM    H8T11938   0.385   0.994   5.786 -0.4608  2.8403 -0.7888
  115OSM    C9S11939   0.195   1.044   5.690 -0.0432  0.4802  0.4234
  115OSM    H9S11940   0.183   1.152   5.713  1.5183  0.6089  0.7666
  115OSM    H9T11941   0.099   0.989   5.693  0.3023 -0.3035 -1.4291
  115OSM   C10S11942   0.252   1.028   5.547  0.3144 -0.2132  0.1518
  115OSM   H10S11943   0.286   0.922   5.540 -0.1697 -0.2735 -1.8163
  115OSM   H10T11944   0.345   1.085   5.525  0.1336 -0.4973 -1.4513
  115OSM   C11S11945   0.163   1.073   5.437 -0.6653 -0.1357 -0.2812
  115OSM   H11S11946   0.116   1.172   5.454 -4.0824 -1.9815  2.4391
  115OSM   H11T11947   0.078   1.001   5.442 -0.7350 -0.0911 -0.7831
  115OSM   C12S11948   0.242   1.073   5.304 -0.7829 -0.3461 -0.3598
  115OSM   H12S11949   0.284   0.973   5.279  1.2564  1.1997 -3.9244
  115OSM   H12T11950   0.333   1.136   5.299 -0.9451 -0.1194 -0.4304
  115OSM   C13S11951   0.149   1.095   5.186  0.2975 -0.1942 -0.0473
  115OSM   H13S11952   0.068   1.019   5.195  0.7813 -0.7857 -0.5784
  115OSM   H13T11953   0.215   1.066   5.102  0.0140  0.8876 -0.6562
  115OSM   C14S11954   0.114   1.243   5.154  0.8444 -0.4311  0.1112
  115OSM   H14S11955   0.201   1.308   5.177  0.0803  0.9956 -0.9197
  115OSM   H14T11956   0.044   1.285   5.229  2.1685  1.4970  0.3512
  115OSM   C15S11957   0.072   1.261   5.008  0.4456 -0.1971  0.5074
  115OSM   H15S11958   0.155   1.214   4.952  1.0933 -0.5125  1.7117
  115OSM   H15T11959   0.077   1.369   4.981 -2.4414 -0.0785  0.0871
  115OSM   C16S11960  -0.071   1.219   4.972 -0.2286 -0.8424  0.0717
  115OSM   H16S11961  -0.139   1.288   5.026  0.6234  0.6643 -0.7180
  115OSM   H16T11962  -0.086   1.119   5.017 -0.8622 -2.8391 -4.1599
  115OSM   C17S11963  -0.094   1.229   4.819 -0.3771  0.3675  0.5090
  115OSM   H17S11964  -0.188   1.172   4.804 -1.5010  2.1263  0.6743
  115OSM   H17T11965  -0.019   1.166   4.766 -0.4847  0.0127  0.7787
  115OSM   C18S11966  -0.106   1.367   4.753 -0.0395  0.6727  0.2799
  115OSM   H18S11967  -0.009   1.415   4.778  0.6088 -0.7337  0.5942
  115OSM   H18T11968  -0.189   1.421   4.804  0.1562 -0.2702  1.6609
  115OSM   H18U11969  -0.108   1.357   4.642  2.6520 -0.4974  0.2397
  115OSM    C1F11970   0.229   1.347   6.309 -1.1057 -0.0848  0.6891
  115OSM     OF11971   0.319   1.429   6.348 -0.5035 -0.5571 -0.4682
  115OSM    C2F11972   0.102   1.392   6.246  0.7723  0.7834  0.4691
  115OSM    H2F11973   0.085   1.501   6.255 -3.3022  0.4690 -1.1027
  115OSM    H2G11974   0.015   1.351   6.301 -0.0462  2.8781  0.7991
  115OSM    C3F11975   0.085   1.341   6.098  0.5709  0.6463 -0.2484
  115OSM    H3F11976  -0.007   1.391   6.061  0.7233  1.4042  0.3776
  115OSM    H3G11977   0.063   1.232   6.098 -0.4917  0.8549 -0.2333
  115OSM    C4F11978   0.205   1.376   6.005 -0.2728 -0.2110  0.3107
  115OSM    H4F11979   0.294   1.321   6.042 -0.3322 -0.7221 -0.2754
  115OSM    H4G11980   0.226   1.484   6.021 -1.2636  0.0559 -0.0955
  115OSM    C5F11981   0.173   1.367   5.852 -0.6066  0.4271 -0.0715
  115OSM    H5F11982   0.094   1.289   5.844 -1.1130  0.8242  0.8193
  115OSM    H5G11983   0.264   1.323   5.807 -0.3004  0.0635  0.8760
  115OSM    C6F11984   0.140   1.501   5.779  0.4227  0.1478  0.0452
  115OSM    H6F11985   0.213   1.578   5.812  0.3115 -0.9762  3.1671
  115OSM    H6G11986   0.037   1.540   5.792  0.4080  0.9723 -2.1365
  115OSM    C7F11987   0.164   1.466   5.626  0.5934 -0.5000  0.0160
  115OSM    H7F11988   0.123   1.364   5.607  0.2546 -0.4477  0.4477
  115OSM    H7G11989   0.275   1.460   5.626  0.6848  0.5553 -1.7034
  115OSM    C8F11990   0.118   1.573   5.533  0.2276  0.8271 -0.3758
  115OSM    H8F11991   0.166   1.672   5.548 -0.6848  1.4197 -1.2098
  115OSM    H8G11992   0.007   1.580   5.528  0.1873  0.3091 -0.1854
  115OSM    C9F11993   0.157   1.552   5.393 -0.9655  0.1380  0.4269
  115OSM    H9F11994   0.244   1.488   5.375 -0.7064  0.5878  0.0501
  115OSM   C10F11995   0.090   1.587   5.283  0.3873 -0.2381  0.0193
  115OSM   H10F11996   0.126   1.559   5.183  0.6553 -2.2961  0.6482
  115OSM   C11F11997  -0.042   1.667   5.280  0.2485 -0.4627  0.0086
  115OSM   H11F11998  -0.025   1.765   5.231  2.9301 -1.5800 -1.5175
  115OSM   H11G11999  -0.078   1.697   5.381  0.5335  0.0697 -0.0461
  115OSM   C12F12000  -0.150   1.601   5.197  0.1423  0.3877  0.1766
  115OSM   H12F12001  -0.179   1.502   5.239  0.0926  0.7439  1.0186
  115OSM   H12G12002  -0.100   1.592   5.099  3.1436 -0.4499  1.6608
  115OSM   C13F12003  -0.269   1.694   5.198  0.1001  0.0931  0.7420
  115OSM   H13F12004  -0.238   1.801   5.192 -2.7648  0.9616 -0.0306
  115OSM   H13G12005  -0.329   1.682   5.291 -3.4565  0.5985 -1.3017
  115OSM   C14F12006  -0.371   1.647   5.091 -0.1569 -0.8163  0.2206
  115OSM   H14F12007  -0.445   1.578   5.136 -0.3560 -0.4887  0.3909
  115OSM   H14G12008  -0.329   1.597   5.000 -0.2573  0.7756 -0.7413
  115OSM   C15F12009  -0.457   1.770   5.041 -0.4314 -0.6197 -0.7008
  115OSM   H15F12010  -0.378   1.847   5.031  0.1622 -1.1183  0.0439
  115OSM   H15G12011  -0.532   1.802   5.116 -0.4072 -0.0035 -0.9335
  115OSM   C16F12012  -0.514   1.753   4.901  0.0155 -0.2316 -0.1001
  115OSM   H16F12013  -0.543   1.646   4.889 -0.8216 -0.0536  0.3053
  115OSM   H16G12014  -0.445   1.766   4.815 -0.8219 -1.4976 -0.9971
  115OSM   C17F12015  -0.640   1.850   4.893  0.3596  0.5254  0.2433
  115OSM   H17F12016  -0.592   1.950   4.901  4.1086 -1.0608 -0.4055
  115OSM   H17G12017  -0.704   1.830   4.981  0.5231  1.9450  0.7023
  115OSM   C18F12018  -0.715   1.853   4.759  0.2008  0.4926  0.1350
  115OSM   H18F12019  -0.638   1.872   4.682 -0.2537  0.9284 -0.2153
  115OSM   H18G12020  -0.794   1.932   4.761 -1.5782 -1.1568 -1.1559
  115OSM   H18H12021  -0.753   1.753   4.730  3.2788 -0.7144 -0.1057
  116OSM      N12022   3.716   4.658   6.957  0.2337 -0.2871 -0.1774
  116OSM    C1512023   3.681   4.528   6.890  0.9012 -0.4476 -0.4703
  116OSM   H15A12024   3.768   4.483   6.846  1.9264 -0.8051  1.7385
  116OSM   H15B12025   3.610   4.566   6.818  1.9214 -0.7108 -1.6477
  116OSM   H15C12026   3.634   4.457   6.957 -1.0068 -0.6688 -1.9720
  116OSM    C1412027   3.834   4.633   7.035 -0.1303 -0.2287 -0.0917
  116OSM   H14A12028   3.828   4.545   7.097 -1.0000  0.3582  0.6751
  116OSM   H14B12029   3.838   4.707   7.113  0.3807 -1.5489  1.2013
  116OSM   H14C12030   3.926   4.621   6.978  0.0105 -0.1635  0.1212
  116OSM    C1312031   3.761   4.747   6.851  0.4385  0.0333 -0.2713
  116OSM   H13A12032   3.795   4.835   6.902 -0.9203 -1.0889  2.8478
  116OSM   H13B12033   3.691   4.777   6.774  1.8432 -0.1324 -1.6679
  116OSM   H13C12034   3.848   4.706   6.801  1.2874  0.4620  0.8076
  116OSM    C1212035   3.600   4.710   7.047 -0.0736  0.5183  0.3406
  116OSM   H12A12036   3.626   4.798   7.105 -0.1306  0.3703  0.5924
  116OSM   H12B12037   3.572   4.632   7.116 -0.2545 -0.4712 -0.8274
  116OSM    C1112038   3.468   4.741   6.970 -0.3783  0.0592 -0.6358
  116OSM   H11A12039   3.406   4.649   6.966 -0.9884  0.4905 -1.4988
  116OSM   H11B12040   3.491   4.780   6.868  0.6841  1.6060  0.1499
  116OSM      P12041   3.401   4.995   7.047 -0.1622 -0.1971 -0.5213
  116OSM    O1312042   3.273   5.046   7.105  0.0110 -0.3542 -0.1456
  116OSM    O1412043   3.533   5.032   7.109  0.3158 -0.2368 -0.0407
  116OSM    O1112044   3.415   5.035   6.900  0.1892  0.7146 -0.2431
  116OSM    O1212045   3.392   4.839   7.048  0.3258 -0.0263  0.6177
  116OSM    C1S12046   3.525   5.039   6.814 -0.3012  0.0995 -0.4741
  116OSM    H1S12047   3.597   4.962   6.849 -1.6008  0.1059  2.6395
  116OSM    H1T12048   3.577   5.136   6.830  0.2116 -0.4275  1.3163
  116OSM     NF12049   3.596   5.026   6.578  0.0686  0.1857 -0.5973
  116OSM    HNF12050   3.636   5.112   6.548 -3.9876  2.3647 -0.4086
  116OSM    C2S12051   3.479   5.042   6.665 -0.0811  0.2377  0.8543
  116OSM    H2S12052   3.405   4.962   6.641  0.1871 -0.0343  0.9237
  116OSM    C3S12053   3.400   5.180   6.634 -0.2514  0.1399 -0.1381
  116OSM    H3S12054   3.477   5.259   6.644 -1.0175  0.6669  2.4724
  116OSM     O312055   3.308   5.218   6.736  0.2380 -0.1310 -0.0206
  116OSM    HO312056   3.315   5.158   6.810  0.3011 -0.1800 -0.0652
  116OSM    C4S12057   3.341   5.175   6.498  0.3949 -0.4458 -0.0894
  116OSM    H4S12058   3.273   5.090   6.482 -0.3972 -0.0356  0.9868
  116OSM    C5S12059   3.365   5.267   6.402 -0.3383 -0.0145 -0.7197
  116OSM    H5S12060   3.439   5.345   6.426 -0.9551 -0.2096  2.2655
  116OSM    C6S12061   3.307   5.263   6.265 -0.3464 -0.2376 -0.6973
  116OSM    H6S12062   3.259   5.360   6.240 -0.5508 -0.1312  0.0783
  116OSM    H6T12063   3.224   5.189   6.262  0.2656 -0.9348 -0.7697
  116OSM    C7S12064   3.399   5.241   6.146 -0.4830  0.6806 -0.3184
  116OSM    H7S12065   3.464   5.155   6.173  0.8591  1.5905 -0.5584
  116OSM    H7T12066   3.469   5.326   6.129  0.6364  0.5486  2.8865
  116OSM    C8S12067   3.330   5.212   6.010 -0.1565 -0.3755 -0.1809
  116OSM    H8S12068   3.253   5.290   5.996 -1.2348 -1.4305 -0.2392
  116OSM    H8T12069   3.276   5.115   6.011  0.4375 -0.7260 -0.8969
  116OSM    C9S12070   3.419   5.229   5.878  0.1548  0.3134 -0.2526
  116OSM    H9S12071   3.500   5.155   5.891 -1.6259 -1.5028  1.2529
  116OSM    H9T12072   3.466   5.328   5.861  0.3846  0.3608  0.5749
  116OSM   C10S12073   3.342   5.179   5.754 -0.0372  0.9968  0.3001
  116OSM   H10S12074   3.243   5.218   5.723 -1.3488 -1.2264  1.4118
  116OSM   H10T12075   3.313   5.074   5.779 -1.4321  1.1505 -0.5639
  116OSM   C11S12076   3.423   5.189   5.620  0.0213  0.3145  0.0986
  116OSM   H11S12077   3.508   5.119   5.627 -0.3269 -0.2218 -0.8253
  116OSM   H11T12078   3.455   5.295   5.614 -2.0771  0.9834 -0.2127
  116OSM   C12S12079   3.358   5.138   5.489 -0.7255 -1.0757 -0.1828
  116OSM   H12S12080   3.260   5.187   5.471 -1.1946 -1.8624  0.1927
  116OSM   H12T12081   3.340   5.028   5.486  0.0883 -1.2127 -0.4907
  116OSM   C13S12082   3.438   5.171   5.367 -0.3522  0.2986  0.3824
  116OSM   H13S12083   3.534   5.115   5.362  0.5227  1.8705 -1.6999
  116OSM   H13T12084   3.454   5.280   5.372 -0.3044  0.2458  1.6201
  116OSM   C14S12085   3.377   5.135   5.234 -0.0349 -0.3193 -0.4441
  116OSM   H14S12086   3.269   5.162   5.235 -0.1679 -0.8565 -0.3925
  116OSM   H14T12087   3.387   5.026   5.214 -0.5014 -0.2312 -1.2330
  116OSM   C15S12088   3.449   5.214   5.124 -0.1862  0.1647 -1.2678
  116OSM   H15S12089   3.557   5.189   5.128  0.2317  1.9935 -0.2078
  116OSM   H15T12090   3.453   5.324   5.140 -1.0614  0.1017 -0.5269
  116OSM   C16S12091   3.384   5.179   4.995  1.1947 -0.1339  0.0733
  116OSM   H16S12092   3.285   5.227   4.974  1.3952  0.3224  0.1494
  116OSM   H16T12093   3.358   5.071   4.998  0.6940 -0.0231 -0.1398
  116OSM   C17S12094   3.476   5.194   4.877 -0.1446  0.0972 -0.0637
  116OSM   H17S12095   3.578   5.151   4.883  0.4113  1.1754 -1.3033
  116OSM   H17T12096   3.503   5.301   4.864  1.8449 -0.4963 -1.1097
  116OSM   C18S12097   3.406   5.141   4.756 -0.0670  0.0362  0.1555
  116OSM   H18S12098   3.310   5.196   4.744 -0.5953 -0.9327 -0.2623
  116OSM   H18T12099   3.385   5.031   4.756 -0.0039  0.0078  1.5978
  116OSM   H18U12100   3.465   5.157   4.663 -0.7181 -1.3454 -0.5265
  116OSM    C1F12101   3.664   4.919   6.560 -0.1052  1.2420 -0.9209
  116OSM     OF12102   3.603   4.815   6.582 -0.6615 -0.1124  0.0012
  116OSM    C2F12103   3.815   4.930   6.521 -0.3906 -0.2897 -0.4821
  116OSM    H2F12104   3.881   4.943   6.610  1.5945  0.6203 -1.9986
  116OSM    H2G12105   3.822   5.012   6.447 -2.5345 -0.6317 -1.1390
  116OSM    C3F12106   3.853   4.800   6.443  0.1163 -0.7625  0.0059
  116OSM    H3F12107   3.850   4.717   6.517  1.1058 -1.1279 -0.3417
  116OSM    H3G12108   3.957   4.810   6.407 -0.7446 -0.0797 -2.4564
  116OSM    C4F12109   3.778   4.761   6.312  0.3186  0.7464 -0.4565
  116OSM    H4F12110   3.671   4.742   6.334  0.0953  1.1174 -1.1902
  116OSM    H4G12111   3.837   4.679   6.266 -0.1939  0.1148 -0.0048
  116OSM    C5F12112   3.787   4.868   6.203  0.3300 -0.5750 -0.6791
  116OSM    H5F12113   3.882   4.920   6.230 -0.0495 -0.4048  0.3693
  116OSM    H5G12114   3.705   4.941   6.223  2.0179  1.3166 -0.2960
  116OSM    C6F12115   3.793   4.818   6.058 -0.1608 -0.0307 -0.2478
  116OSM    H6F12116   3.700   4.758   6.047 -0.8375  0.8015  0.7812
  116OSM    H6G12117   3.885   4.754   6.055 -2.0410 -3.2187  2.6656
  116OSM    C7F12118   3.783   4.932   5.956 -0.1787  0.1505 -0.4683
  116OSM    H7F12119   3.858   5.002   6.000  1.2801 -1.5205 -0.1735
  116OSM    H7G12120   3.681   4.974   5.943  0.2204  1.2426 -0.1532
  116OSM    C8F12121   3.830   4.893   5.821  0.5667 -0.1635  1.1400
  116OSM    H8F12122   3.762   4.815   5.779  2.1908 -1.1276  0.1904
  116OSM    H8G12123   3.929   4.845   5.831  0.0819 -1.0879  1.7249
  116OSM    C9F12124   3.846   5.014   5.735 -0.5315  0.2618 -0.0151
  116OSM    H9F12125   3.770   5.093   5.741 -0.2915  0.3957  1.9610
  116OSM   C10F12126   3.957   5.030   5.650 -0.1754  0.6685 -0.1780
  116OSM   H10F12127   3.947   5.113   5.578  0.0227  0.1688 -0.7907
  116OSM   C11F12128   4.077   4.945   5.635 -0.6295 -0.4231  0.8173
  116OSM   H11F12129   4.117   4.900   5.729  1.5492 -0.2043  0.0559
  116OSM   H11G12130   4.157   5.021   5.621 -1.1113 -0.3173 -1.9430
  116OSM   C12F12131   4.071   4.845   5.518  0.1709  0.6147 -0.2064
  116OSM   H12F12132   3.963   4.830   5.498  0.3032  1.6948 -1.9012
  116OSM   H12G12133   4.115   4.747   5.545 -0.1828  0.2342 -0.9952
  116OSM   C13F12134   4.143   4.887   5.392  0.0347 -0.1034 -0.0330
  116OSM   H13F12135   4.242   4.918   5.434  0.7032  0.4217 -1.9025
  116OSM   H13G12136   4.093   4.975   5.346  0.7418 -0.6482 -1.9590
  116OSM   C14F12137   4.150   4.782   5.284 -0.4405 -1.2149 -0.1240
  116OSM   H14F12138   4.044   4.764   5.257 -1.5499 -0.0587  3.0632
  116OSM   H14G12139   4.202   4.694   5.326  1.2765  0.4473  1.4059
  116OSM   C15F12140   4.217   4.830   5.157 -0.1325  0.4727 -0.5146
  116OSM   H15F12141   4.158   4.907   5.104  0.7465  1.1653 -0.5184
  116OSM   H15G12142   4.224   4.743   5.089 -2.1752  1.2751 -1.8439
  116OSM   C16F12143   4.356   4.890   5.178 -0.3834 -0.8595  0.1380
  116OSM   H16F12144   4.421   4.814   5.228  1.4419  1.2245  1.1254
  116OSM   H16G12145   4.335   4.974   5.248 -1.5908 -1.1490  0.1408
  116OSM   C17F12146   4.424   4.933   5.050  0.6208 -1.2858  1.2253
  116OSM   H17F12147   4.369   4.881   4.969 -2.6271  2.2743  0.8349
  116OSM   H17G12148   4.531   4.907   5.042  1.3446  1.6147 -0.1002
  116OSM   C18F12149   4.423   5.089   5.032 -0.0010 -0.5432  0.7508
  116OSM   H18F12150   4.482   5.135   5.114 -2.5567  0.9296  1.8996
  116OSM   H18G12151   4.319   5.128   5.036  0.4162  0.7693 -0.4690
  116OSM   H18H12152   4.469   5.113   4.934 -1.8734  1.4492  0.2789
  117OSM      N12153   1.660   1.796   6.519 -0.5034 -0.6830 -0.2633
  117OSM    C1512154   1.678   1.663   6.580 -0.5070  1.0571 -0.1310
  117OSM   H15A12155   1.728   1.674   6.675  0.2461 -1.6908 -0.1238
  117OSM   H15B12156   1.749   1.610   6.518 -1.2381  1.4833 -1.3724
  117OSM   H15C12157   1.588   1.604   6.575  1.5049 -2.1851 -2.7373
  117OSM    C1412158   1.781   1.880   6.546 -0.2911 -0.2320  0.2546
  117OSM   H14A12159   1.770   1.975   6.495 -0.9967 -0.2963  0.2686
  117OSM   H14B12160   1.874   1.840   6.508  0.8044  1.5824  0.9054
  117OSM   H14C12161   1.803   1.898   6.650 -1.9713 -0.3290  0.6527
  117OSM    C1312162   1.644   1.778   6.372 -0.0906 -0.9541  0.0044
  117OSM   H13A12163   1.603   1.869   6.332 -0.1274  0.6925  3.4209
  117OSM   H13B12164   1.571   1.703   6.345 -1.9018  0.6563  0.1921
  117OSM   H13C12165   1.740   1.763   6.325 -0.5408 -0.4038 -1.1039
  117OSM    C1212166   1.533   1.863   6.586  0.7890  0.2911 -0.4103
  117OSM   H12A12167   1.559   1.861   6.691  3.7416 -0.5751 -1.0659
  117OSM   H12B12168   1.451   1.802   6.551  0.9796  0.4535 -1.1533
  117OSM    C1112169   1.500   2.010   6.553 -0.0998 -0.7798  0.0337
  117OSM   H11A12170   1.409   2.041   6.608 -0.3405 -2.7563  0.8210
  117OSM   H11B12171   1.478   2.017   6.445  2.3133  2.3722 -0.3995
  117OSM      P12172   1.619   2.178   6.710 -0.0818 -0.4447  0.0258
  117OSM    O1312173   1.574   2.089   6.820 -0.4232  0.0258  0.3736
  117OSM    O1412174   1.747   2.247   6.717  0.0859 -0.3262 -0.3372
  117OSM    O1112175   1.509   2.292   6.692 -0.5673  0.3896 -0.5235
  117OSM    O1212176   1.615   2.091   6.572 -0.0412  0.7374 -0.2264
  117OSM    C1S12177   1.496   2.358   6.564 -0.1123  0.0140 -0.2514
  117OSM    H1S12178   1.567   2.317   6.490  2.1839  1.1032  1.2399
  117OSM    H1T12179   1.532   2.463   6.573  0.6998 -0.2414 -0.4322
  117OSM     NF12180   1.327   2.394   6.395  0.0307  0.2242 -0.2456
  117OSM    HNF12181   1.286   2.485   6.395  1.3999  0.8784  0.4464
  117OSM    C2S12182   1.343   2.342   6.528 -0.6967 -0.3834  0.0364
  117OSM    H2S12183   1.325   2.233   6.530  0.7953 -0.6417  1.3779
  117OSM    C3S12184   1.248   2.416   6.627  0.2068 -0.1785  0.4636
  117OSM    H3S12185   1.274   2.521   6.651 -0.4448 -0.1230  0.9550
  117OSM     O312186   1.251   2.369   6.763 -0.1366 -0.3316  0.6011
  117OSM    HO312187   1.316   2.298   6.767 -1.6817 -1.7202  3.1840
  117OSM    C4S12188   1.100   2.434   6.583  0.1676 -0.0296 -0.6031
  117OSM    H4S12189   1.060   2.537   6.576  0.3804 -0.0513 -2.4964
  117OSM    C5S12190   1.005   2.339   6.560 -0.1245 -0.6374 -0.5932
  117OSM    H5S12191   1.036   2.235   6.580 -0.2010 -0.5408  0.0321
  117OSM    C6S12192   0.851   2.352   6.525 -0.7524  0.2769  0.4247
  117OSM    H6S12193   0.779   2.380   6.605 -1.9595  0.4087 -0.6715
  117OSM    H6T12194   0.821   2.247   6.506 -0.9088  0.6757 -1.7607
  117OSM    C7S12195   0.827   2.435   6.404 -0.3861 -0.3649  0.2588
  117OSM    H7S12196   0.884   2.384   6.324  0.3311 -1.1416  1.2351
  117OSM    H7T12197   0.872   2.535   6.423  0.8416 -0.9644  0.5509
  117OSM    C8S12198   0.675   2.447   6.367  0.4538  0.3478  0.8621
  117OSM    H8S12199   0.621   2.464   6.463  0.8606 -1.6388  1.4878
  117OSM    H8T12200   0.638   2.353   6.322  0.6054  1.5257 -1.9408
  117OSM    C9S12201   0.647   2.549   6.260  0.4627  0.1739  0.2005
  117OSM    H9S12202   0.705   2.641   6.283  1.3786 -0.3358  0.0091
  117OSM    H9T12203   0.544   2.589   6.258  0.3354 -0.1589  0.1079
  117OSM   C10S12204   0.681   2.490   6.126 -0.3919 -0.5172  0.2882
  117OSM   H10S12205   0.608   2.412   6.097 -1.7691  0.1458  1.7843
  117OSM   H10T12206   0.778   2.438   6.133  0.1575  0.6772  2.2029
  117OSM   C11S12207   0.682   2.599   6.017  0.0757 -0.7645  0.2560
  117OSM   H11S12208   0.756   2.676   6.048  0.7034 -0.3964 -1.9290
  117OSM   H11T12209   0.581   2.639   5.998 -0.9602 -1.9756  2.7690
  117OSM   C12S12210   0.740   2.528   5.894  0.5347  0.7317  0.3896
  117OSM   H12S12211   0.692   2.430   5.874 -1.5539  1.9257 -0.7419
  117OSM   H12T12212   0.847   2.499   5.904  0.3854  0.4382  1.1113
  117OSM   C13S12213   0.719   2.608   5.764  0.6866 -0.8437  0.1564
  117OSM   H13S12214   0.747   2.712   5.791  2.6337 -1.3016  0.0580
  117OSM   H13T12215   0.611   2.623   5.742  0.6146 -0.1085  1.0030
  117OSM   C14S12216   0.806   2.562   5.640  0.1968  0.6760 -0.3281
  117OSM   H14S12217   0.775   2.458   5.618  0.3131  1.0060 -2.2426
  117OSM   H14T12218   0.913   2.567   5.669 -0.2667  0.2259  1.6281
  117OSM   C15S12219   0.783   2.650   5.517 -0.1742 -0.1457  0.4388
  117OSM   H15S12220   0.828   2.750   5.529 -1.9496  0.6603  0.6967
  117OSM   H15T12221   0.673   2.659   5.504 -0.3373 -1.2753  0.8642
  117OSM   C16S12222   0.846   2.604   5.385  0.5224 -0.0353 -1.0033
  117OSM   H16S12223   0.810   2.502   5.359  0.9658 -0.2594 -0.7471
  117OSM   H16T12224   0.956   2.598   5.397  0.4348 -2.8113 -0.9240
  117OSM   C17S12225   0.799   2.693   5.271  0.0264 -0.8884  0.5063
  117OSM   H17S12226   0.832   2.798   5.284 -0.4360 -0.8245  1.2730
  117OSM   H17T12227   0.688   2.687   5.271 -0.2054  1.9690 -0.6073
  117OSM   C18S12228   0.847   2.653   5.135  0.4823 -0.0793  0.1108
  117OSM   H18S12229   0.807   2.550   5.118 -0.9578  0.3880  0.6082
  117OSM   H18T12230   0.957   2.649   5.117  0.3862 -1.1176 -0.3330
  117OSM   H18U12231   0.807   2.722   5.057  0.0513  0.0322  0.4320
  117OSM    C1F12232   1.378   2.342   6.281 -0.6715  0.4841 -0.1701
  117OSM     OF12233   1.459   2.250   6.287 -0.1057  0.3290 -0.3035
  117OSM    C2F12234   1.349   2.408   6.154  0.2932  0.3260  1.0889
  117OSM    H2F12235   1.421   2.491   6.138 -0.4796  1.0348  1.1817
  117OSM    H2G12236   1.248   2.453   6.157  0.4781  0.7058  2.6833
  117OSM    C3F12237   1.361   2.309   6.026 -0.0558 -0.4942  0.3354
  117OSM    H3F12238   1.289   2.224   6.031 -2.2127  1.1904 -0.3947
  117OSM    H3G12239   1.462   2.263   6.015  0.9273  1.7869 -0.7419
  117OSM    C4F12240   1.319   2.395   5.903 -0.2355  0.3922 -0.3029
  117OSM    H4F12241   1.381   2.487   5.902 -1.0077  1.2474  4.3549
  117OSM    H4G12242   1.229   2.455   5.930  1.9989  2.8638  2.3637
  117OSM    C5F12243   1.315   2.327   5.771 -0.1906 -0.1373  0.4855
  117OSM    H5F12244   1.233   2.252   5.769  0.2132 -0.6019  1.0925
  117OSM    H5G12245   1.409   2.267   5.771 -0.3402 -0.3738  0.2447
  117OSM    C6F12246   1.298   2.416   5.644  0.0548  0.4879 -0.2946
  117OSM    H6F12247   1.374   2.495   5.661 -0.0222  0.6328 -0.6128
  117OSM    H6G12248   1.194   2.456   5.631 -0.4773 -1.2732 -1.9293
  117OSM    C7F12249   1.352   2.332   5.525 -0.3726  0.0333 -0.6994
  117OSM    H7F12250   1.283   2.245   5.514 -1.0230  0.2772  1.0188
  117OSM    H7G12251   1.449   2.288   5.556 -1.7341 -2.5960  0.2407
  117OSM    C8F12252   1.370   2.412   5.398  0.3347  0.9073 -0.5729
  117OSM    H8F12253   1.415   2.342   5.325  2.1847  2.0619 -0.6116
  117OSM    H8G12254   1.445   2.490   5.426  0.1056  1.1794 -0.7111
  117OSM    C9F12255   1.246   2.476   5.352  0.1353 -0.1950 -0.4038
  117OSM    H9F12256   1.207   2.549   5.424 -0.4229 -1.4925  0.6639
  117OSM   C10F12257   1.195   2.466   5.226 -0.5698 -0.0009  0.4108
  117OSM   H10F12258   1.096   2.507   5.200  0.6709  1.4865 -2.3948
  117OSM   C11F12259   1.248   2.379   5.113  0.1023 -0.7101  0.2256
  117OSM   H11F12260   1.160   2.368   5.045 -0.3885  2.8456  0.1198
  117OSM   H11G12261   1.280   2.283   5.158 -0.4775 -0.7633  0.5316
  117OSM   C12F12262   1.368   2.440   5.037 -0.1475 -0.0906 -0.1905
  117OSM   H12F12263   1.449   2.486   5.098  2.5828  0.0440 -3.5485
  117OSM   H12G12264   1.329   2.520   4.970  0.6079  1.6714  1.3953
  117OSM   C13F12265   1.440   2.339   4.943  0.2895  0.2130 -0.6383
  117OSM   H13F12266   1.480   2.260   5.011  0.5968 -0.0494 -1.1174
  117OSM   H13G12267   1.532   2.382   4.900  1.2485 -0.9880  0.1393
  117OSM   C14F12268   1.358   2.272   4.835 -0.5403 -0.6246 -0.5079
  117OSM   H14F12269   1.257   2.249   4.876 -0.5477 -1.1736 -0.8329
  117OSM   H14G12270   1.407   2.177   4.805  2.1854 -0.3744  2.5741
  117OSM   C15F12271   1.332   2.370   4.720 -0.0618  1.1531  0.7919
  117OSM   H15F12272   1.425   2.418   4.682 -0.0799  0.1160 -0.6573
  117OSM   H15G12273   1.263   2.455   4.742 -1.0878  0.7793 -0.7783
  117OSM   C16F12274   1.278   2.295   4.595 -0.5356 -0.2564 -0.1276
  117OSM   H16F12275   1.185   2.244   4.628  0.5243 -2.3709 -0.2441
  117OSM   H16G12276   1.348   2.219   4.555 -1.5049 -3.0197  2.9803
  117OSM   C17F12277   1.228   2.389   4.484 -0.8664  0.4087 -0.2585
  117OSM   H17F12278   1.167   2.473   4.524  0.3999  1.0096  0.4804
  117OSM   H17G12279   1.158   2.326   4.425 -3.2600  2.9140 -0.2488
  117OSM   C18F12280   1.343   2.430   4.395  0.4134  0.7054 -0.2441
  117OSM   H18F12281   1.294   2.483   4.311 -1.9386  1.0246  1.2312
  117OSM   H18G12282   1.401   2.343   4.358 -0.8216 -0.2040 -0.1005
  117OSM   H18H12283   1.427   2.495   4.429  2.6101 -1.1430 -1.8504
  118OSM      N12284   2.837   6.494   7.173  0.1770 -0.8086  0.2858
  118OSM    C1512285   2.878   6.359   7.224  0.8312 -0.5481 -0.0096
  118OSM   H15A12286   2.860   6.355   7.331  0.5445  2.3131  0.1225
  118OSM   H15B12287   2.983   6.342   7.207  1.2718  1.1438  0.8544
  118OSM   H15C12288   2.830   6.277   7.173 -0.7951 -1.3307  2.6026
  118OSM    C1412289   2.696   6.518   7.222 -0.1026 -0.3667  0.0892
  118OSM   H14A12290   2.637   6.433   7.191 -1.4183 -0.2570  2.0990
  118OSM   H14B12291   2.659   6.610   7.179  4.8260  1.3124 -1.3175
  118OSM   H14C12292   2.686   6.528   7.329  1.7776 -0.5864  0.3274
  118OSM    C1312293   2.921   6.592   7.247 -0.6315  0.0838  0.4815
  118OSM   H13A12294   2.886   6.694   7.238  2.6211  1.3019  0.3031
  118OSM   H13B12295   3.020   6.606   7.206 -0.9002  2.8746  0.5743
  118OSM   H13C12296   2.943   6.563   7.349 -0.4125 -1.1518  0.0948
  118OSM    C1212297   2.845   6.507   7.020 -0.8273 -0.3019 -0.4930
  118OSM   H12A12298   2.780   6.431   6.979  0.2172 -0.7697 -1.3530
  118OSM   H12B12299   2.942   6.465   6.996 -0.8111 -2.2305  2.4036
  118OSM    C1112300   2.828   6.638   6.951  0.3106  0.5491 -0.1373
  118OSM   H11A12301   2.875   6.625   6.851  2.1795 -2.4053  1.0101
  118OSM   H11B12302   2.892   6.710   7.006 -0.1762  0.1949  0.9303
  118OSM      P12303   2.610   6.707   6.817 -0.1840  0.0223 -0.3620
  118OSM    O1312304   2.476   6.645   6.836 -0.8843  0.5149 -0.3702
  118OSM    O1412305   2.605   6.853   6.790 -0.2974 -0.7527  0.2841
  118OSM    O1112306   2.702   6.645   6.710  0.0697  0.2969  0.9005
  118OSM    O1212307   2.693   6.684   6.945 -0.2840 -0.5541 -0.0022
  118OSM    C1S12308   2.662   6.532   6.630 -0.4556 -0.5768 -0.1567
  118OSM    H1S12309   2.555   6.506   6.645 -1.2279  2.2727 -0.2761
  118OSM    H1T12310   2.723   6.444   6.661  0.4981  0.2522  0.3865
  118OSM     NF12311   2.647   6.429   6.409  0.3867 -0.3845 -0.9686
  118OSM    HNF12312   2.712   6.354   6.397 -1.3574 -1.8271 -2.0183
  118OSM    C2S12313   2.697   6.552   6.481  0.1079  0.4782 -0.5865
  118OSM    H2S12314   2.646   6.647   6.451 -1.3686 -0.5156 -1.3556
  118OSM    C3S12315   2.847   6.561   6.468 -0.2834 -0.1939 -0.4062
  118OSM    H3S12316   2.888   6.465   6.507 -2.2950 -1.3597 -1.0115
  118OSM     O312317   2.906   6.660   6.543 -0.4051  0.6880 -0.7748
  118OSM    HO312318   2.850   6.656   6.621  1.6909 -4.7568  0.9975
  118OSM    C4S12319   2.878   6.586   6.317 -0.0192 -0.2636 -0.8043
  118OSM    H4S12320   2.854   6.691   6.296  0.0170 -0.1272 -0.1645
  118OSM    C5S12321   2.937   6.495   6.236  0.2466  0.6031 -0.2602
  118OSM    H5S12322   2.960   6.396   6.280  0.7719  1.3414  1.1873
  118OSM    C6S12323   2.981   6.502   6.094 -0.8576  0.7585 -0.4659
  118OSM    H6S12324   2.916   6.452   6.019  2.3246  0.5150 -3.3075
  118OSM    H6T12325   3.082   6.456   6.090 -1.7225 -1.2460 -0.7473
  118OSM    C7S12326   2.985   6.647   6.058 -0.9498 -0.0428 -0.2090
  118OSM    H7S12327   3.066   6.681   6.126 -0.0200  2.9247 -2.5961
  118OSM    H7T12328   2.885   6.691   6.081 -1.8865 -1.9201 -0.4744
  118OSM    C8S12329   3.025   6.687   5.915 -0.0905 -0.1795 -0.1196
  118OSM    H8S12330   3.078   6.605   5.863  1.4353 -0.3543  1.6254
  118OSM    H8T12331   3.097   6.771   5.927 -0.0215 -0.3387  0.6432
  118OSM    C9S12332   2.908   6.728   5.824  0.5945 -0.0903 -0.2883
  118OSM    H9S12333   2.959   6.772   5.736  0.1610  1.2274  0.0980
  118OSM    H9T12334   2.852   6.810   5.873  0.3447  0.0235 -0.7555
  118OSM   C10S12335   2.830   6.607   5.788  0.7663  0.9403 -0.0662
  118OSM   H10S12336   2.768   6.575   5.874 -1.2815  1.6691 -1.1964
  118OSM   H10T12337   2.899   6.525   5.756 -1.0188 -0.8351  0.3875
  118OSM   C11S12338   2.731   6.629   5.670  0.1641 -0.2101  0.2604
  118OSM   H11S12339   2.684   6.730   5.673  0.8789  0.1188  0.4562
  118OSM   H11T12340   2.644   6.562   5.688  1.1953 -0.8792  3.2895
  118OSM   C12S12341   2.796   6.597   5.528 -0.3416 -0.5774  0.1298
  118OSM   H12S12342   2.837   6.493   5.529  0.8303 -0.1186  0.3508
  118OSM   H12T12343   2.876   6.672   5.514 -1.8124  1.0394  0.0029
  118OSM   C13S12344   2.700   6.612   5.414 -0.0546  0.0673  0.2123
  118OSM   H13S12345   2.656   6.714   5.420  0.8231  0.4146  1.1373
  118OSM   H13T12346   2.620   6.535   5.416 -0.7215  0.6363 -1.8065
  118OSM   C14S12347   2.772   6.614   5.278  0.2507  0.5035 -0.0013
  118OSM   H14S12348   2.837   6.524   5.276  0.1240  0.3054  2.2198
  118OSM   H14T12349   2.835   6.704   5.263 -0.7168  1.2646  0.3800
  118OSM   C15S12350   2.670   6.611   5.158 -0.5897 -0.5714  0.4577
  118OSM   H15S12351   2.736   6.628   5.071  0.6017  1.5723  1.6915
  118OSM   H15T12352   2.586   6.683   5.162 -0.3831 -0.3695  1.6977
  118OSM   C16S12353   2.610   6.470   5.150 -0.4321 -0.1779 -0.5677
  118OSM   H16S12354   2.515   6.473   5.206  0.0798 -0.6699  0.3478
  118OSM   H16T12355   2.671   6.389   5.195 -3.0899 -1.6013  0.6303
  118OSM   C17S12356   2.578   6.434   5.000 -0.1066  0.3775 -0.3197
  118OSM   H17S12357   2.541   6.329   5.002  2.0367 -0.5039 -2.6249
  118OSM   H17T12358   2.676   6.426   4.949  0.0753 -0.4084  0.1369
  118OSM   C18S12359   2.486   6.532   4.930  0.1608  0.0913 -0.1229
  118OSM   H18S12360   2.536   6.627   4.901 -1.4929  1.2608  0.6793
  118OSM   H18T12361   2.398   6.552   4.995 -0.6748  1.3631 -1.5834
  118OSM   H18U12362   2.451   6.488   4.835 -0.0616  1.5287 -0.7243
  118OSM    C1F12363   2.519   6.421   6.379 -0.1102 -0.3828  0.3367
  118OSM     OF12364   2.449   6.513   6.412 -0.5436  0.8034  0.1881
  118OSM    C2F12365   2.477   6.295   6.309  0.7329 -0.0096 -0.0351
  118OSM    H2F12366   2.381   6.275   6.360  1.2638 -1.7306  0.3462
  118OSM    H2G12367   2.549   6.211   6.321 -0.4837 -1.0860 -0.1037
  118OSM    C3F12368   2.451   6.313   6.159 -0.4243 -0.2712 -0.0269
  118OSM    H3F12369   2.392   6.403   6.134 -2.5151 -1.3045  0.9212
  118OSM    H3G12370   2.391   6.230   6.116 -3.3177  2.1393 -0.9426
  118OSM    C4F12371   2.585   6.331   6.083 -0.1927 -0.7838  0.1484
  118OSM    H4F12372   2.642   6.236   6.076 -0.3894 -0.8738 -0.3609
  118OSM    H4G12373   2.645   6.411   6.129 -0.0675 -0.6347 -0.2702
  118OSM    C5F12374   2.578   6.373   5.941  1.2747 -0.1750 -0.7247
  118OSM    H5F12375   2.684   6.373   5.910  0.8036 -0.6026 -2.4650
  118OSM    H5G12376   2.553   6.481   5.936  1.2540 -0.1903 -0.9528
  118OSM    C6F12377   2.497   6.290   5.852 -0.4168 -0.3040 -1.1281
  118OSM    H6F12378   2.387   6.295   5.868  0.0156  1.5179  2.2186
  118OSM    H6G12379   2.530   6.185   5.869  0.8494 -0.1885 -2.6702
  118OSM    C7F12380   2.522   6.315   5.702  0.3800 -0.3093  0.7606
  118OSM    H7F12381   2.632   6.303   5.694  0.7181  2.0606  1.1037
  118OSM    H7G12382   2.488   6.418   5.679  0.2492 -0.5947 -0.3844
  118OSM    C8F12383   2.452   6.222   5.609 -0.1341 -0.5271 -0.6318
  118OSM    H8F12384   2.482   6.251   5.506 -0.9413  4.1509  0.2515
  118OSM    H8G12385   2.343   6.242   5.609  0.1493  1.1247 -1.4387
  118OSM    C9F12386   2.483   6.078   5.635 -0.7023 -0.0919  0.0410
  118OSM    H9F12387   2.581   6.059   5.681  0.7862  0.6632 -2.5849
  118OSM   C10F12388   2.417   5.979   5.580 -0.2334  0.0429  1.0582
  118OSM   H10F12389   2.442   5.874   5.603  2.0425  0.6987  1.8549
  118OSM   C11F12390   2.294   5.986   5.496  0.4068 -0.2077  0.4368
  118OSM   H11F12391   2.310   5.942   5.396  1.4190  1.8237 -0.3669
  118OSM   H11G12392   2.262   6.091   5.479 -0.4643 -0.7251 -1.2709
  118OSM   C12F12393   2.172   5.925   5.572  0.4084 -0.1450  0.6214
  118OSM   H12F12394   2.186   5.816   5.584  0.8601 -0.0251  1.2242
  118OSM   H12G12395   2.087   5.924   5.500  0.1572  0.3354  0.9080
  118OSM   C13F12396   2.116   5.999   5.694 -0.3658 -0.4800  0.4531
  118OSM   H13F12397   2.089   6.103   5.667  2.4659  0.0314 -0.7676
  118OSM   H13G12398   2.197   6.010   5.770  1.5538 -0.3480 -1.5108
  118OSM   C14F12399   1.991   5.931   5.752 -0.3668 -0.9618 -0.7593
  118OSM   H14F12400   2.012   5.824   5.770  2.6312 -0.3770 -0.2403
  118OSM   H14G12401   1.924   5.944   5.664  0.1927 -0.1033 -1.0784
  118OSM   C15F12402   1.933   5.994   5.879 -0.2204 -0.8414 -0.0849
  118OSM   H15F12403   1.828   5.956   5.886 -0.1259 -0.7764  2.4454
  118OSM   H15G12404   1.918   6.103   5.870  0.4531 -0.8554 -1.6681
  118OSM   C16F12405   2.015   5.972   6.005 -0.3703 -0.0961 -0.3483
  118OSM   H16F12406   2.121   6.004   5.994 -0.4666  0.0848 -0.7502
  118OSM   H16G12407   2.030   5.862   6.017 -0.2185  0.1911  2.8061
  118OSM   C17F12408   1.962   6.031   6.134 -0.2745 -0.2042 -0.3847
  118OSM   H17F12409   1.916   6.129   6.110  1.7034  0.3356 -2.2652
  118OSM   H17G12410   2.042   6.032   6.210  0.9847 -1.7613 -1.6255
  118OSM   C18F12411   1.836   5.951   6.185 -0.2608  0.2166  0.0313
  118OSM   H18F12412   1.851   5.851   6.230 -0.7215 -0.2849 -0.8863
  118OSM   H18G12413   1.754   5.943   6.110  0.2646 -1.5022 -0.4050
  118OSM   H18H12414   1.789   6.014   6.263 -0.1660  2.0881 -1.3428
  119OSM      N12415   4.437   4.490   6.922 -0.0077  0.8714 -0.0207
  119OSM    C1512416   4.557   4.521   6.836 -0.3891 -0.5609 -0.1949
  119OSM   H15A12417   4.519   4.558   6.742  0.3972 -1.1972 -0.7670
  119OSM   H15B12418   4.628   4.441   6.826  1.4397  1.0591 -0.9707
  119OSM   H15C12419   4.613   4.592   6.895  1.7335 -2.4484  0.1960
  119OSM    C1412420   4.482   4.472   7.065 -0.1783 -0.3014  0.5391
  119OSM   H14A12421   4.409   4.436   7.136  0.9841 -0.4787  1.6828
  119OSM   H14B12422   4.526   4.561   7.108  0.8982 -0.2775 -0.5461
  119OSM   H14C12423   4.571   4.412   7.063  1.0737  1.5072  0.0028
  119OSM    C1312424   4.343   4.600   6.909 -0.0695  0.3120  0.1947
  119OSM   H13A12425   4.248   4.557   6.939  0.3508 -0.8301 -0.0587
  119OSM   H13B12426   4.327   4.637   6.809  0.0439 -1.4733 -0.5151
  119OSM   H13C12427   4.357   4.679   6.980  2.2085 -2.2284  2.8304
  119OSM    C1212428   4.378   4.353   6.861  0.2905 -0.5901 -0.0232
  119OSM   H12A12429   4.458   4.280   6.851 -0.3095 -1.3199  0.3817
  119OSM   H12B12430   4.343   4.367   6.760  0.5165  3.1704  0.2685
  119OSM    C1112431   4.260   4.283   6.931 -0.6753 -0.1333 -0.3629
  119OSM   H11A12432   4.283   4.273   7.040  0.7723  1.6281 -0.4573
  119OSM   H11B12433   4.240   4.179   6.899 -0.5520 -0.1581 -0.3597
  119OSM      P12434   4.053   4.393   6.814  0.2621 -0.1348  0.4262
  119OSM    O1312435   3.933   4.311   6.837 -0.2131 -0.1279 -0.3002
  119OSM    O1412436   4.037   4.537   6.797 -0.6386 -0.6264  0.6173
  119OSM    O1112437   4.127   4.327   6.686  0.5366  0.7590 -0.2039
  119OSM    O1212438   4.147   4.367   6.935  0.1951  0.9831  0.4695
  119OSM    C1S12439   4.055   4.292   6.568  0.5981 -0.6366  0.4482
  119OSM    H1S12440   3.958   4.240   6.582 -0.0649  0.2826 -0.5713
  119OSM    H1T12441   4.120   4.233   6.500  3.2940  2.1595  0.3985
  119OSM     NF12442   3.934   4.416   6.382  0.2335 -0.1778 -0.2638
  119OSM    HNF12443   3.960   4.411   6.286  1.8575  1.0421  0.0723
  119OSM    C2S12444   4.036   4.426   6.484  0.3853  0.1609 -0.5345
  119OSM    H2S12445   3.998   4.503   6.555 -0.8677 -1.7023  0.9136
  119OSM    C3S12446   4.172   4.476   6.433  0.6893  0.5030  0.1782
  119OSM    H3S12447   4.218   4.394   6.375 -0.5276 -0.5377  0.6500
  119OSM     O312448   4.264   4.515   6.534 -0.1599 -0.2147  0.3757
  119OSM    HO312449   4.209   4.505   6.612  0.7755 -1.8201  0.8760
  119OSM    C4S12450   4.165   4.592   6.340 -0.4144  0.2011  0.3462
  119OSM    H4S12451   4.169   4.691   6.387  0.1357  0.4001 -0.1023
  119OSM    C5S12452   4.178   4.590   6.209  0.3676  0.5465  0.2638
  119OSM    H5S12453   4.176   4.492   6.159 -1.7192  1.1496 -0.9460
  119OSM    C6S12454   4.190   4.711   6.117 -0.0709 -0.8331 -0.2516
  119OSM    H6S12455   4.097   4.772   6.121  0.4771 -0.0342  1.0976
  119OSM    H6T12456   4.186   4.677   6.012  0.2559 -1.0359 -0.1999
  119OSM    C7S12457   4.323   4.793   6.146  0.1505 -0.7091  0.2855
  119OSM    H7S12458   4.416   4.731   6.146  1.4929  1.1847  1.2073
  119OSM    H7T12459   4.315   4.851   6.240 -3.2774  1.3763 -1.1113
  119OSM    C8S12460   4.368   4.893   6.026  0.8089 -0.0092 -1.3318
  119OSM    H8S12461   4.451   4.957   6.063  0.8960 -1.0974  0.4094
  119OSM    H8T12462   4.284   4.962   6.001  0.3033 -0.0685  0.1167
  119OSM    C9S12463   4.424   4.819   5.908 -0.7807  0.2706  0.1468
  119OSM    H9S12464   4.347   4.754   5.862  0.1874 -0.0747 -1.0206
  119OSM    H9T12465   4.507   4.747   5.924  0.2873  1.2646 -0.7534
  119OSM   C10S12466   4.472   4.921   5.798 -0.0648 -0.2388 -0.6596
  119OSM   H10S12467   4.553   4.984   5.839  1.0247 -0.3272 -2.5613
  119OSM   H10T12468   4.387   4.985   5.764  1.3401  2.6356  0.8616
  119OSM   C11S12469   4.548   4.866   5.675 -0.0028  0.6266 -0.3924
  119OSM   H11S12470   4.497   4.781   5.626  0.6752 -0.0863  0.1218
  119OSM   H11T12471   4.648   4.837   5.714 -0.2129  1.4962  0.8513
  119OSM   C12S12472   4.566   4.984   5.580  0.6238 -0.3375 -0.2300
  119OSM   H12S12473   4.599   5.070   5.642  1.1842 -0.7884  0.0923
  119OSM   H12T12474   4.471   5.017   5.532  0.7422  1.5685  0.7626
  119OSM   C13S12475   4.664   4.955   5.460  0.8612  0.0339 -0.0105
  119OSM   H13S12476   4.640   4.849   5.435 -0.7923  0.4267 -0.1870
  119OSM   H13T12477   4.762   4.950   5.514  1.3297 -1.3765 -0.9352
  119OSM   C14S12478   4.667   5.062   5.352  0.3730  0.5597  0.2869
  119OSM   H14S12479   4.681   5.160   5.402 -0.1775  0.1183  1.3510
  119OSM   H14T12480   4.564   5.063   5.309  0.2805 -1.3781  0.3781
  119OSM   C15S12481   4.763   5.037   5.239  0.1612 -0.2729  0.3324
  119OSM   H15S12482   4.735   4.944   5.185  0.0420 -1.3732  2.1713
  119OSM   H15T12483   4.865   5.033   5.284  0.2509  3.7528  0.8341
  119OSM   C16S12484   4.783   5.155   5.144 -0.5083  0.3250 -0.3435
  119OSM   H16S12485   4.833   5.239   5.198 -0.3464  0.0631 -0.0847
  119OSM   H16T12486   4.689   5.191   5.098  0.1124  0.7642 -1.3201
  119OSM   C17S12487   4.878   5.104   5.032  0.6679  0.1002 -0.6925
  119OSM   H17S12488   4.837   5.013   4.983 -1.3277 -0.1388  1.2981
  119OSM   H17T12489   4.972   5.065   5.075  0.0810 -0.3712  0.1774
  119OSM   C18S12490   4.907   5.215   4.929  0.0267 -0.2710  0.2037
  119OSM   H18S12491   4.977   5.166   4.858 -0.5579 -0.2014 -0.4355
  119OSM   H18T12492   4.963   5.305   4.960 -0.7396  1.1126 -2.1892
  119OSM   H18U12493   4.810   5.243   4.882  0.3376  0.4850  0.0119
  119OSM    C1F12494   3.809   4.381   6.410  0.9089 -0.1675  0.1070
  119OSM     OF12495   3.765   4.389   6.523  0.8767  0.4316  0.2246
  119OSM    C2F12496   3.720   4.351   6.293 -0.3306  0.3448  0.4344
  119OSM    H2F12497   3.775   4.315   6.203 -1.0028  2.0317 -0.7076
  119OSM    H2G12498   3.667   4.445   6.268 -1.2391 -0.3395 -0.2825
  119OSM    C3F12499   3.609   4.255   6.321 -0.3376 -0.4538 -0.0167
  119OSM    H3F12500   3.542   4.304   6.395 -0.2141 -1.2908  0.6571
  119OSM    H3G12501   3.643   4.159   6.366 -1.4081  0.0079  1.8605
  119OSM    C4F12502   3.513   4.243   6.204  0.6478 -0.2731  0.5066
  119OSM    H4F12503   3.500   4.339   6.151  0.2940 -0.9872 -0.7409
  119OSM    H4G12504   3.407   4.225   6.236  0.5636 -0.2932  0.2150
  119OSM    C5F12505   3.565   4.135   6.108  0.3008 -0.5764  0.5852
  119OSM    H5F12506   3.545   4.038   6.157 -2.9643  0.7733  2.2566
  119OSM    H5G12507   3.676   4.142   6.110  0.4055 -2.1367  1.3184
  119OSM    C6F12508   3.509   4.147   5.962 -0.4261 -0.2681  0.1042
  119OSM    H6F12509   3.399   4.166   5.965 -0.3331  0.1295  0.9474
  119OSM    H6G12510   3.516   4.047   5.914  0.4393 -0.1964  0.0738
  119OSM    C7F12511   3.587   4.241   5.867  0.2206 -0.0601 -0.1095
  119OSM    H7F12512   3.697   4.231   5.873  0.3185  1.4015  1.0597
  119OSM    H7G12513   3.566   4.336   5.920 -1.7105 -0.1469 -0.6329
  119OSM    C8F12514   3.541   4.229   5.720  0.8299 -0.4178  0.1306
  119OSM    H8F12515   3.434   4.259   5.724  0.8116 -0.5521  2.9458
  119OSM    H8G12516   3.556   4.122   5.692  2.8766 -0.1473  0.0161
  119OSM    C9F12517   3.620   4.319   5.627  0.0735 -0.7193  0.2091
  119OSM    H9F12518   3.725   4.325   5.659 -0.0541 -0.3830  0.5728
  119OSM   C10F12519   3.580   4.382   5.518  0.1028 -0.2410 -0.7304
  119OSM   H10F12520   3.651   4.447   5.465 -0.6464  0.2613 -1.1430
  119OSM   C11F12521   3.451   4.366   5.441  0.7591 -0.6011 -0.0613
  119OSM   H11F12522   3.381   4.426   5.504  0.5968 -1.6293  0.7438
  119OSM   H11G12523   3.399   4.268   5.434 -0.5334  0.1095 -1.0250
  119OSM   C12F12524   3.460   4.429   5.302 -0.3125  0.8600 -0.4201
  119OSM   H12F12525   3.509   4.528   5.290  4.6052 -1.2753 -0.3502
  119OSM   H12G12526   3.353   4.450   5.278 -0.9637 -0.2658  1.2477
  119OSM   C13F12527   3.526   4.337   5.201  0.1536  0.5554 -0.4660
  119OSM   H13F12528   3.485   4.234   5.202 -0.0918  0.6558 -0.0901
  119OSM   H13G12529   3.628   4.319   5.241  0.4236  0.5800 -1.1238
  119OSM   C14F12530   3.527   4.384   5.055  0.2844 -0.5102  0.6655
  119OSM   H14F12531   3.583   4.306   5.000  1.7938 -0.5340  2.1546
  119OSM   H14G12532   3.570   4.486   5.053 -0.0175 -0.3782  0.8126
  119OSM   C15F12533   3.379   4.386   4.997  0.2194  0.1358 -0.1498
  119OSM   H15F12534   3.308   4.445   5.059  0.0864 -0.9957  0.8093
  119OSM   H15G12535   3.351   4.279   4.997 -0.7414  0.3631  1.6565
  119OSM   C16F12536   3.362   4.417   4.843  0.0335 -0.0047 -0.3815
  119OSM   H16F12537   3.424   4.508   4.825  1.3424 -0.4896  1.3508
  119OSM   H16G12538   3.257   4.451   4.843  0.2436  0.6704  0.0160
  119OSM   C17F12539   3.370   4.294   4.763  0.1966 -0.2450  0.3170
  119OSM   H17F12540   3.295   4.218   4.794  0.4527 -0.5754  0.1314
  119OSM   H17G12541   3.471   4.249   4.776 -0.5594 -1.5268  2.0405
  119OSM   C18F12542   3.342   4.323   4.615  0.4106  0.2710 -0.0216
  119OSM   H18F12543   3.414   4.392   4.567  0.8280  0.0957  0.3515
  119OSM   H18G12544   3.247   4.379   4.602 -0.3245 -1.1147 -0.8967
  119OSM   H18H12545   3.336   4.230   4.554 -0.0625 -1.8068  2.9804
  120OSM      N12546   5.367   3.148   6.903 -0.7192 -0.5009  0.0659
  120OSM    C1512547   5.286   3.055   6.995 -1.2774  0.1428 -0.0955
  120OSM   H15A12548   5.302   2.951   6.971 -1.4971 -0.1478  0.9534
  120OSM   H15B12549   5.182   3.087   6.996 -1.8168 -1.5141  1.4272
  120OSM   H15C12550   5.312   3.077   7.097 -2.7709  2.7021 -0.1730
  120OSM    C1412551   5.333   3.291   6.924  0.4636 -0.4230  0.2226
  120OSM   H14A12552   5.405   3.350   6.868 -0.2888  0.7142  0.4184
  120OSM   H14B12553   5.341   3.321   7.028  0.5925 -1.0534  0.3951
  120OSM   H14C12554   5.232   3.317   6.895 -0.3561 -2.4065  1.1499
  120OSM    C1312555   5.510   3.122   6.946 -0.0375 -0.5249 -0.4140
  120OSM   H13A12556   5.538   3.017   6.945 -0.0747 -0.6361  2.1664
  120OSM   H13B12557   5.539   3.165   7.040  0.8710 -3.0410  0.5518
  120OSM   H13C12558   5.584   3.168   6.883 -0.5309  1.5398  0.4524
  120OSM    C1212559   5.357   3.096   6.761  0.8039  0.1111 -0.1891
  120OSM   H12A12560   5.410   3.002   6.754  0.3975 -0.0380 -1.5544
  120OSM   H12B12561   5.418   3.158   6.697  3.5237 -0.8853  1.2807
  120OSM    C1112562   5.218   3.087   6.705  0.3442  0.3557  0.4656
  120OSM   H11A12563   5.159   3.016   6.767 -1.0347 -1.8125 -3.0474
  120OSM   H11B12564   5.212   3.028   6.611 -0.0176  2.0707 -0.6319
  120OSM      P12565   5.013   3.242   6.718 -0.0419 -0.1334 -0.0418
  120OSM    O1312566   5.015   3.248   6.864  0.4650 -0.2898  0.0323
  120OSM    O1412567   4.961   3.361   6.641  0.1992  0.0200 -0.0300
  120OSM    O1112568   4.937   3.116   6.672 -0.5512  0.2844  0.4709
  120OSM    O1212569   5.162   3.219   6.674  0.1959 -0.0526  0.0720
  120OSM    C1S12570   4.876   3.109   6.541  0.4450 -0.5642  0.6696
  120OSM    H1S12571   4.893   3.200   6.479  3.2537 -1.6558 -0.2917
  120OSM    H1T12572   4.765   3.106   6.550  0.3506  1.5006  0.7493
  120OSM     NF12573   4.864   2.982   6.333 -0.2821  0.1492  0.5290
  120OSM    HNF12574   4.791   2.917   6.311 -1.2448  0.6635  2.0453
  120OSM    C2S12575   4.925   2.981   6.463  1.0977 -0.3992 -0.6887
  120OSM    H2S12576   5.035   2.992   6.458  1.2666 -2.0635 -1.0337
  120OSM    C3S12577   4.885   2.859   6.561  0.2061  0.6147  0.1153
  120OSM    H3S12578   4.774   2.855   6.562  0.2174 -0.4489  1.3355
  120OSM     O312579   4.927   2.863   6.697  0.1779 -0.0184  0.2964
  120OSM    HO312580   4.946   2.957   6.709 -0.3134 -0.0183  1.1914
  120OSM    C4S12581   4.920   2.730   6.500  0.5839  0.3661 -0.1722
  120OSM    H4S12582   5.029   2.714   6.496  0.3830 -0.9764 -0.9059
  120OSM    C5S12583   4.840   2.631   6.456  0.2263  0.0135  0.4695
  120OSM    H5S12584   4.731   2.648   6.460  0.6760  3.7853  0.1270
  120OSM    C6S12585   4.897   2.499   6.399 -0.0769 -0.1234 -0.1207
  120OSM    H6S12586   4.880   2.411   6.465 -0.1301 -0.7619 -0.9682
  120OSM    H6T12587   5.005   2.518   6.381 -0.6286  2.5949 -1.0623
  120OSM    C7S12588   4.837   2.460   6.259  0.9911 -0.9330  0.2396
  120OSM    H7S12589   4.727   2.458   6.271  1.0662 -1.6757  0.9395
  120OSM    H7T12590   4.872   2.356   6.239  1.8390 -0.6224  0.0506
  120OSM    C8S12591   4.891   2.539   6.134  0.8974  0.8605  0.3223
  120OSM    H8S12592   5.002   2.544   6.134  1.1201 -1.9747 -0.9570
  120OSM    H8T12593   4.840   2.638   6.131 -1.2395 -0.0829  2.3167
  120OSM    C9S12594   4.858   2.465   6.007 -0.9728 -0.4401 -0.1091
  120OSM    H9S12595   4.749   2.447   5.998 -1.0206 -0.8701  1.1019
  120OSM    H9T12596   4.911   2.369   5.990  0.8910  0.5732 -0.2273
  120OSM   C10S12597   4.904   2.551   5.885  0.6350  0.4185 -0.2911
  120OSM   H10S12598   5.013   2.564   5.901  1.0846 -2.1268 -0.8237
  120OSM   H10T12599   4.852   2.649   5.894  1.1296  0.7165 -0.5913
  120OSM   C11S12600   4.865   2.482   5.747 -0.3719  0.8078 -0.1368
  120OSM   H11S12601   4.762   2.443   5.748  0.0505 -0.4013  2.0951
  120OSM   H11T12602   4.941   2.402   5.735 -0.3786  0.7770  0.0219
  120OSM   C12S12603   4.879   2.576   5.632 -0.7139 -0.0321 -0.3596
  120OSM   H12S12604   4.977   2.628   5.633 -1.0789  0.6924 -0.8670
  120OSM   H12T12605   4.801   2.654   5.645 -2.8661 -2.1772  0.3938
  120OSM   C13S12606   4.878   2.515   5.495  0.0486  0.1199  0.5962
  120OSM   H13S12607   4.779   2.482   5.455  1.3333 -1.1837 -1.8020
  120OSM   H13T12608   4.955   2.435   5.496  0.8669  0.8915  0.2938
  120OSM   C14S12609   4.925   2.619   5.384  0.2489 -0.3910 -0.3629
  120OSM   H14S12610   5.034   2.633   5.403  0.3954 -0.8279 -0.8467
  120OSM   H14T12611   4.876   2.718   5.391 -2.7338 -1.8980  2.2327
  120OSM   C15S12612   4.897   2.552   5.244 -0.3006  0.2433  0.4268
  120OSM   H15S12613   4.787   2.560   5.231 -0.1283 -0.7999 -2.1623
  120OSM   H15T12614   4.939   2.449   5.247 -1.1317 -0.1703 -1.2756
  120OSM   C16S12615   4.970   2.631   5.132 -0.0571 -0.1659 -0.4497
  120OSM   H16S12616   4.950   2.584   5.033  1.2795 -2.4945  0.3049
  120OSM   H16T12617   5.078   2.628   5.157 -0.1692 -1.7678 -0.0173
  120OSM   C17S12618   4.931   2.784   5.108  0.2836 -0.2310  0.8061
  120OSM   H17S12619   4.952   2.838   5.203  1.6721  0.2828  0.2382
  120OSM   H17T12620   4.826   2.782   5.072  0.9226 -0.0450 -1.2218
  120OSM   C18S12621   5.003   2.849   4.988 -0.2307  0.7587 -0.2317
  120OSM   H18S12622   5.000   2.777   4.904 -3.3809  0.8296 -0.3191
  120OSM   H18T12623   5.111   2.872   4.991 -0.5545  2.7750 -1.8740
  120OSM   H18U12624   4.948   2.942   4.963 -1.0007  0.3608 -0.0649
  120OSM    C1F12625   4.898   3.058   6.230 -0.2464 -0.5663  1.1337
  120OSM     OF12626   4.974   3.153   6.230 -0.2986  0.0665 -0.1899
  120OSM    C2F12627   4.841   3.023   6.097  0.7450 -0.2795 -0.5447
  120OSM    H2F12628   4.741   3.071   6.086 -0.3838 -1.8142  2.0427
  120OSM    H2G12629   4.816   2.916   6.089  1.9639 -0.5769 -0.5645
  120OSM    C3F12630   4.934   3.055   5.973  0.5114 -0.2657 -0.3050
  120OSM    H3F12631   5.039   3.025   5.990  1.0253  1.3881 -0.3442
  120OSM    H3G12632   4.931   3.165   5.958 -0.6031 -0.2276  0.0856
  120OSM    C4F12633   4.886   2.985   5.845 -0.8734  0.2314  0.5604
  120OSM    H4F12634   4.776   2.989   5.832 -0.9663 -0.3089  1.1568
  120OSM    H4G12635   4.921   2.881   5.860  1.7002  0.8149 -0.8531
  120OSM    C5F12636   4.947   3.041   5.717 -0.4154 -0.1597 -0.2056
  120OSM    H5F12637   5.048   3.086   5.726 -0.6366  0.0301  1.8060
  120OSM    H5G12638   4.890   3.135   5.698  0.7495  0.4628 -0.7111
  120OSM    C6F12639   4.927   2.956   5.590  0.7502  1.4521  0.7848
  120OSM    H6F12640   4.822   2.919   5.592  0.2385  2.8601  1.3088
  120OSM    H6G12641   4.987   2.863   5.598  0.6898  1.3208 -0.2229
  120OSM    C7F12642   4.942   3.024   5.450 -0.0617 -0.2594  0.1305
  120OSM    H7F12643   4.868   3.107   5.448  0.3035  0.0953  0.9493
  120OSM    H7G12644   4.923   2.948   5.371  2.3451 -2.3022  1.3534
  120OSM    C8F12645   5.079   3.090   5.424  0.5336 -0.1862 -0.1970
  120OSM    H8F12646   5.112   3.161   5.503  1.8376 -2.6162  1.5826
  120OSM    H8G12647   5.053   3.153   5.336  1.6766 -0.5499 -0.8066
  120OSM    C9F12648   5.190   2.995   5.394  0.9804 -0.1246  0.6845
  120OSM    H9F12649   5.195   2.906   5.459 -0.4807 -0.2728  0.6339
  120OSM   C10F12650   5.280   3.015   5.299  0.3702 -0.3136 -0.0168
  120OSM   H10F12651   5.360   2.940   5.288  1.1257  0.4525  0.1777
  120OSM   C11F12652   5.291   3.142   5.221 -0.6415 -1.1258 -0.2045
  120OSM   H11F12653   5.389   3.191   5.236 -1.2006 -0.5883  2.0058
  120OSM   H11G12654   5.231   3.222   5.268  0.1715 -0.3206 -0.4979
  120OSM   C12F12655   5.269   3.128   5.071 -0.2602  0.4346 -1.0155
  120OSM   H12F12656   5.241   3.230   5.036 -1.3433 -0.0418 -1.5713
  120OSM   H12G12657   5.176   3.072   5.049 -2.2850  2.6379  1.2626
  120OSM   C13F12658   5.388   3.087   4.989  0.0900 -0.2987 -0.1504
  120OSM   H13F12659   5.359   3.036   4.894  0.1456  0.8318 -0.7893
  120OSM   H13G12660   5.445   3.011   5.047  0.1028 -0.0448  0.1678
  120OSM   C14F12661   5.475   3.206   4.934  0.3154 -0.2153  0.7200
  120OSM   H14F12662   5.564   3.160   4.886 -0.8944 -0.7084 -1.1828
  120OSM   H14G12663   5.509   3.264   5.023 -0.9912 -2.6726  2.9589
  120OSM   C15F12664   5.393   3.282   4.817 -0.1691 -0.4025  0.1297
  120OSM   H15F12665   5.306   3.332   4.865 -1.2899 -0.6689 -1.5279
  120OSM   H15G12666   5.349   3.206   4.748 -1.4423 -0.0886  0.5663
  120OSM   C16F12667   5.486   3.373   4.743  0.0930 -0.0818  0.3695
  120OSM   H16F12668   5.425   3.414   4.659  0.1663 -1.8432 -0.5806
  120OSM   H16G12669   5.577   3.325   4.702  0.9803  0.2693  1.8634
  120OSM   C17F12670   5.515   3.499   4.821  0.3361 -0.6789  0.2137
  120OSM   H17F12671   5.558   3.466   4.917 -0.6668 -0.3054  0.8053
  120OSM   H17G12672   5.418   3.543   4.854 -0.6164 -1.3592 -1.5131
  120OSM   C18F12673   5.607   3.597   4.753  0.0668  0.2645 -0.0644
  120OSM   H18F12674   5.590   3.691   4.810 -0.6396  0.5187 -0.6873
  120OSM   H18G12675   5.574   3.609   4.648  1.6805  3.3999 -0.3403
  120OSM   H18H12676   5.710   3.555   4.761  0.7864  2.0599  0.7097
  121OSM      N12677   1.978   6.386   7.448 -0.6464  0.5810  0.5791
  121OSM    C1512678   1.909   6.448   7.564  0.3556 -0.5715  0.5528
  121OSM   H15A12679   1.817   6.397   7.583 -0.9756  0.8971 -1.5082
  121OSM   H15B12680   1.902   6.554   7.541  2.4195  0.1330  2.6986
  121OSM   H15C12681   1.977   6.461   7.648  1.5820 -1.5229 -0.2510
  121OSM    C1412682   2.110   6.449   7.423 -0.8406 -0.6538  0.1528
  121OSM   H14A12683   2.172   6.414   7.504  0.0670  0.3833 -0.0611
  121OSM   H14B12684   2.109   6.557   7.425  1.3813 -0.5807  0.2728
  121OSM   H14C12685   2.155   6.417   7.330 -0.2022  0.7381 -0.0476
  121OSM    C1312686   2.013   6.240   7.483  0.4206 -0.0870  0.4595
  121OSM   H13A12687   2.108   6.225   7.532 -1.3595 -2.6272  3.5805
  121OSM   H13B12688   2.002   6.182   7.392 -1.7772  0.4951  0.2902
  121OSM   H13C12689   1.932   6.203   7.544  0.2108  0.7581  0.7028
  121OSM    C1212690   1.889   6.406   7.320  0.0542 -0.8940 -1.0528
  121OSM   H12A12691   1.870   6.510   7.298  0.8583 -0.6378 -0.5756
  121OSM   H12B12692   1.792   6.365   7.343  0.4370 -1.4652 -0.4150
  121OSM    C1112693   1.924   6.340   7.187  0.1941  0.1495 -0.1846
  121OSM   H11A12694   2.023   6.381   7.159 -0.2157  0.3231 -1.4130
  121OSM   H11B12695   1.854   6.371   7.107  0.6690  1.5274 -0.0995
  121OSM      P12696   1.810   6.104   7.221  0.1344 -0.0526 -0.2029
  121OSM    O1312697   1.861   5.969   7.241  0.3190  0.4063 -0.0692
  121OSM    O1412698   1.712   6.165   7.320 -0.3030 -0.0136  0.1660
  121OSM    O1112699   1.737   6.108   7.079 -0.5733  0.1167  0.2485
  121OSM    O1212700   1.940   6.195   7.202 -0.1259  0.2816 -0.5141
  121OSM    C1S12701   1.812   6.068   6.962  0.2538  0.0187 -1.3410
  121OSM    H1S12702   1.840   5.962   6.984 -1.2231 -0.1402 -0.0548
  121OSM    H1T12703   1.901   6.133   6.948 -0.0395  1.0190  1.0334
  121OSM     NF12704   1.797   5.998   6.727 -0.4739 -0.5336  0.2494
  121OSM    HNF12705   1.797   6.052   6.644  0.8971  0.6425  0.9807
  121OSM    C2S12706   1.723   6.057   6.843 -0.0297 -0.1754 -0.0961
  121OSM    H2S12707   1.637   5.994   6.876 -0.5539  1.0979  1.0876
  121OSM    C3S12708   1.657   6.187   6.807 -0.5238  0.0826  0.0677
  121OSM    H3S12709   1.737   6.252   6.766  1.6216 -2.6010 -0.2303
  121OSM     O312710   1.606   6.265   6.912 -0.2601  0.1593 -0.3554
  121OSM    HO312711   1.662   6.239   6.986 -0.6830  0.5110  0.0980
  121OSM    C4S12712   1.562   6.152   6.692  0.3676  0.5689  0.5913
  121OSM    H4S12713   1.601   6.194   6.598  0.6283 -0.3403  0.2840
  121OSM    C5S12714   1.445   6.090   6.694 -0.0745 -0.1416 -0.0438
  121OSM    H5S12715   1.426   6.026   6.781  1.8780 -0.0666  0.4682
  121OSM    C6S12716   1.350   6.059   6.578  1.0335  0.3549  0.2145
  121OSM    H6S12717   1.254   6.114   6.573  0.3576 -0.7485  0.5550
  121OSM    H6T12718   1.319   5.953   6.589 -0.1994  0.6337 -0.3528
  121OSM    C7S12719   1.412   6.077   6.437  0.4240  0.8047 -0.1642
  121OSM    H7S12720   1.512   6.029   6.435  0.3640  0.7028 -1.3799
  121OSM    H7T12721   1.414   6.184   6.407  0.2911  1.6499  2.5335
  121OSM    C8S12722   1.330   5.999   6.330  0.1366 -0.1635  0.2125
  121OSM    H8S12723   1.232   6.050   6.319  0.2538 -0.2582 -1.4576
  121OSM    H8T12724   1.307   5.892   6.353  2.3622 -1.4295 -2.7853
  121OSM    C9S12725   1.400   5.989   6.192 -0.0959  0.2032 -0.3646
  121OSM    H9S12726   1.501   5.949   6.215 -1.0658 -2.0194  0.3031
  121OSM    H9T12727   1.420   6.088   6.145  0.5346  0.8648  1.2200
  121OSM   C10S12728   1.334   5.898   6.085  0.0008 -1.5431  0.1103
  121OSM   H10S12729   1.236   5.938   6.049  0.9568  0.0411 -0.8620
  121OSM   H10T12730   1.300   5.807   6.138 -1.8164 -0.9159  0.0890
  121OSM   C11S12731   1.425   5.882   5.961 -0.2986  0.6996 -0.3658
  121OSM   H11S12732   1.515   5.837   6.007 -1.8625 -2.8760 -0.4414
  121OSM   H11T12733   1.455   5.976   5.909 -0.6425  1.1121  0.1726
  121OSM   C12S12734   1.373   5.793   5.854 -0.1441 -0.2776 -0.2193
  121OSM   H12S12735   1.344   5.704   5.914  0.7981 -1.1918 -1.0790
  121OSM   H12T12736   1.450   5.759   5.782  0.8133 -0.3873  0.8346
  121OSM   C13S12737   1.260   5.862   5.769  0.1765  0.3156  0.1616
  121OSM   H13S12738   1.316   5.920   5.693  2.1414 -1.6643  0.0184
  121OSM   H13T12739   1.189   5.925   5.827 -1.1041  0.0507 -1.0433
  121OSM   C14S12740   1.179   5.752   5.695 -0.1494 -0.9789  0.4590
  121OSM   H14S12741   1.117   5.705   5.775 -1.7583 -0.0608 -0.1843
  121OSM   H14T12742   1.247   5.671   5.663  1.3693 -0.7192  2.7948
  121OSM   C15S12743   1.083   5.812   5.590  0.6534  0.1735 -0.4264
  121OSM   H15S12744   1.017   5.888   5.636  0.6385  0.3904 -0.8022
  121OSM   H15T12745   1.011   5.735   5.553  1.3673 -1.1787  0.8793
  121OSM   C16S12746   1.148   5.875   5.467  0.6620 -0.5005  0.0598
  121OSM   H16S12747   1.222   5.952   5.495  1.4065 -0.4567 -1.8926
  121OSM   H16T12748   1.066   5.911   5.402  0.8665  1.1735  0.6788
  121OSM   C17S12749   1.220   5.768   5.384 -0.6267  0.5872 -0.4498
  121OSM   H17S12750   1.142   5.697   5.348 -1.5668  0.7894  1.1022
  121OSM   H17T12751   1.293   5.715   5.449  2.3154  2.5983 -1.8911
  121OSM   C18S12752   1.314   5.825   5.275  0.3879  0.5404  0.0200
  121OSM   H18S12753   1.369   5.751   5.214  0.0945  0.4880 -0.1827
  121OSM   H18T12754   1.387   5.887   5.331 -0.8743  0.6616  1.6346
  121OSM   H18U12755   1.257   5.890   5.206  2.7184  1.0350 -1.5243
  121OSM    C1F12756   1.846   5.875   6.712  0.0047  0.0232 -0.0006
  121OSM     OF12757   1.841   5.796   6.802  0.1613  0.0476  0.3099
  121OSM    C2F12758   1.893   5.841   6.571  0.2025  0.4718  0.5132
  121OSM    H2F12759   1.932   5.934   6.524  0.1274  1.7117  2.7550
  121OSM    H2G12760   1.805   5.803   6.515  0.2714 -1.5520  1.6603
  121OSM    C3F12761   2.001   5.731   6.569  0.9280 -0.2690  0.0146
  121OSM    H3F12762   1.945   5.646   6.614 -0.2396 -0.4533 -1.7114
  121OSM    H3G12763   2.089   5.758   6.631  0.6663 -0.5425  0.5140
  121OSM    C4F12764   2.041   5.708   6.428 -0.1409  0.5784  0.1145
  121OSM    H4F12765   2.134   5.648   6.436  0.4858  1.5906  0.4936
  121OSM    H4G12766   2.068   5.798   6.369 -0.8173  1.5382  1.2501
  121OSM    C5F12767   1.949   5.624   6.346 -0.3674 -0.4016 -0.5002
  121OSM    H5F12768   1.848   5.671   6.345  0.2933  1.1949  1.2534
  121OSM    H5G12769   1.934   5.523   6.391 -0.4280 -2.1462 -4.0881
  121OSM    C6F12770   2.004   5.607   6.207  0.7156 -0.0912 -0.4249
  121OSM    H6F12771   2.113   5.587   6.211  1.4849  3.5181  0.2702
  121OSM    H6G12772   1.995   5.701   6.148 -0.2082 -1.0949 -1.9551
  121OSM    C7F12773   1.928   5.493   6.133  0.6349 -0.1407  0.8370
  121OSM    H7F12774   1.925   5.405   6.200 -1.6545  0.0775  1.1035
  121OSM    H7G12775   1.992   5.482   6.043 -1.0099  0.9532 -0.5273
  121OSM    C8F12776   1.787   5.534   6.101 -0.1122  0.1067 -0.8631
  121OSM    H8F12777   1.786   5.634   6.054 -1.3663  0.0980 -0.8857
  121OSM    H8G12778   1.736   5.561   6.196 -0.8529 -0.2333 -1.1560
  121OSM    C9F12779   1.710   5.433   6.028  0.2917  0.0520  0.0123
  121OSM    H9F12780   1.667   5.346   6.079  0.6646 -0.0229  0.2020
  121OSM   C10F12781   1.697   5.436   5.897  0.0119  0.0197  0.7425
  121OSM   H10F12782   1.648   5.346   5.857 -1.2490  0.5585  1.0167
  121OSM   C11F12783   1.764   5.530   5.801  0.3470  1.0525 -0.0981
  121OSM   H11F12784   1.854   5.578   5.843  2.4374 -4.0510  2.1092
  121OSM   H11G12785   1.690   5.606   5.767 -0.7655 -0.2501 -0.6710
  121OSM   C12F12786   1.788   5.448   5.669 -0.6555 -0.2028  0.1788
  121OSM   H12F12787   1.693   5.420   5.618 -1.2234  3.2850 -0.9119
  121OSM   H12G12788   1.856   5.360   5.679  1.6749  1.4143 -0.5695
  121OSM   C13F12789   1.844   5.547   5.566  0.1224 -0.3664  0.1051
  121OSM   H13F12790   1.937   5.592   5.606  1.0433 -0.6291 -1.6340
  121OSM   H13G12791   1.780   5.638   5.575  1.1853  0.4213 -0.1225
  121OSM   C14F12792   1.865   5.498   5.427  0.4280  0.1256 -0.5683
  121OSM   H14F12793   1.774   5.513   5.366  0.0187 -0.3656 -0.0842
  121OSM   H14G12794   1.877   5.388   5.432  1.3906  0.2210 -0.4830
  121OSM   C15F12795   1.975   5.563   5.342  0.4219  0.6123 -0.3016
  121OSM   H15F12796   2.071   5.544   5.395  0.6299  3.4524  0.5046
  121OSM   H15G12797   1.957   5.672   5.349  0.9348  0.6477  0.7051
  121OSM   C16F12798   1.968   5.539   5.194 -0.7185  0.5940  0.5744
  121OSM   H16F12799   2.030   5.620   5.149 -0.8438  0.3534 -0.0308
  121OSM   H16G12800   1.865   5.552   5.156 -0.3326 -0.7040 -0.9996
  121OSM   C17F12801   2.041   5.416   5.140  0.1523  0.6504 -0.4508
  121OSM   H17F12802   1.974   5.331   5.169 -0.1661  0.5897 -1.3379
  121OSM   H17G12803   2.142   5.412   5.187 -0.2819 -1.6520  0.4608
  121OSM   C18F12804   2.046   5.412   4.989  0.0005  0.3928  0.3163
  121OSM   H18F12805   2.094   5.320   4.949 -1.8196  0.0629 -1.2646
  121OSM   H18G12806   2.097   5.506   4.957  0.6306  0.2456  0.8729
  121OSM   H18H12807   1.949   5.410   4.936  0.4014  4.5247 -0.9955
  122OSM      N12808   6.760   3.130   7.418  0.1100  0.5766  0.3547
  122OSM    C1512809   6.802   3.006   7.500 -0.9942 -0.2752  0.0792
  122OSM   H15A12810   6.825   3.030   7.603  0.6833 -0.4105 -0.2286
  122OSM   H15B12811   6.887   2.961   7.451 -1.1503  1.4329 -1.9045
  122OSM   H15C12812   6.727   2.929   7.496 -0.2687 -1.0180  0.4919
  122OSM    C1412813   6.636   3.177   7.481  0.5901  0.1747  0.2029
  122OSM   H14A12814   6.564   3.098   7.477  0.2778  0.4426  0.5015
  122OSM   H14B12815   6.597   3.265   7.431  0.2337 -0.4230 -0.5986
  122OSM   H14C12816   6.646   3.197   7.587 -0.5435  0.3389  0.2846
  122OSM    C1312817   6.858   3.237   7.440  0.2648  0.6746  0.6211
  122OSM   H13A12818   6.839   3.319   7.373 -3.1504  0.4400  1.1579
  122OSM   H13B12819   6.954   3.193   7.416 -1.3864 -2.4861 -0.8044
  122OSM   H13C12820   6.858   3.263   7.545  2.4447  2.2470  0.3130
  122OSM    C1212821   6.743   3.109   7.274 -0.6052  0.6599 -0.4142
  122OSM   H12A12822   6.700   3.197   7.229 -1.9857  0.2316  0.0243
  122OSM   H12B12823   6.665   3.034   7.276 -1.2613  1.3178 -0.8090
  122OSM    C1112824   6.859   3.081   7.187 -0.0707 -0.2178  0.2873
  122OSM   H11A12825   6.820   3.038   7.093  0.3163 -1.5087  0.7025
  122OSM   H11B12826   6.920   2.994   7.220 -3.1498 -2.4710  0.4611
  122OSM      P12827   6.887   3.320   7.080 -0.4775  0.1685  0.3150
  122OSM    O1312828   6.754   3.351   7.124 -0.1639 -0.4941  0.2614
  122OSM    O1412829   6.988   3.432   7.078  0.3367 -0.4517  0.3624
  122OSM    O1112830   6.875   3.256   6.936  1.0341  0.6051 -0.2826
  122OSM    O1212831   6.945   3.197   7.166 -0.6426 -0.3420 -0.4424
  122OSM    C1S12832   6.968   3.278   6.832  0.5764 -0.2596  0.0604
  122OSM    H1S12833   7.070   3.251   6.867 -0.0874 -0.0902  2.2701
  122OSM    H1T12834   6.971   3.386   6.805 -0.0435 -0.0711  0.6995
  122OSM     NF12835   7.026   3.193   6.604  0.1995  0.3126  0.1295
  122OSM    HNF12836   7.000   3.241   6.521  0.1877  0.5339  0.2575
  122OSM    C2S12837   6.922   3.197   6.706  0.1235 -0.6532 -0.3617
  122OSM    H2S12838   6.918   3.090   6.737 -0.0814 -1.0526 -1.7058
  122OSM    C3S12839   6.780   3.242   6.668 -0.0176  0.3189  0.9398
  122OSM    H3S12840   6.792   3.348   6.638  2.8334  0.6704  2.9349
  122OSM     O312841   6.683   3.247   6.773 -0.6408  0.6270  0.1701
  122OSM    HO312842   6.746   3.234   6.845 -0.4598 -2.5610 -0.4379
  122OSM    C4S12843   6.724   3.154   6.558  0.3023 -0.1576  0.4196
  122OSM    H4S12844   6.721   3.047   6.586 -0.5391 -0.0861  0.6170
  122OSM    C5S12845   6.672   3.204   6.440 -0.0934  0.6409  0.2695
  122OSM    H5S12846   6.666   3.313   6.430 -3.9467  0.4620 -0.9412
  122OSM    C6S12847   6.621   3.123   6.325 -0.5271 -0.5057  0.5321
  122OSM    H6S12848   6.510   3.114   6.324 -0.5125 -0.7999 -1.3846
  122OSM    H6T12849   6.655   3.018   6.331 -1.0342 -0.7087 -0.0561
  122OSM    C7S12850   6.652   3.165   6.174 -0.2689 -0.2219 -0.3353
  122OSM    H7S12851   6.727   3.247   6.172  0.7521 -1.0896  0.8680
  122OSM    H7T12852   6.556   3.213   6.145 -0.3516  0.7908  1.5095
  122OSM    C8S12853   6.698   3.050   6.080 -0.5771 -0.0912 -0.4557
  122OSM    H8S12854   6.613   2.979   6.080 -0.9299  0.2974 -1.7743
  122OSM    H8T12855   6.783   2.997   6.128  0.7933 -1.2170 -3.8159
  122OSM    C9S12856   6.734   3.099   5.939  0.5010  0.7156 -0.6696
  122OSM    H9S12857   6.783   3.012   5.889 -2.9380 -1.3084 -0.8488
  122OSM    H9T12858   6.811   3.177   5.953 -0.3362  1.0303  3.3451
  122OSM   C10S12859   6.609   3.147   5.865 -0.5815 -0.3793 -0.6056
  122OSM   H10S12860   6.556   3.228   5.919 -2.5435 -2.0511  0.1000
  122OSM   H10T12861   6.532   3.066   5.864 -1.6466  0.5785  0.5019
  122OSM   C11S12862   6.640   3.201   5.726 -0.0602  0.3245  0.0715
  122OSM   H11S12863   6.700   3.295   5.727  0.3701  0.0596 -0.4210
  122OSM   H11T12864   6.548   3.225   5.669 -0.1702  0.4673  0.3074
  122OSM   C12S12865   6.720   3.107   5.631  0.5636  1.0191 -0.5583
  122OSM   H12S12866   6.665   3.011   5.623  0.9093  0.9061 -1.8933
  122OSM   H12T12867   6.822   3.074   5.659 -0.1963 -1.1644 -0.1772
  122OSM   C13S12868   6.743   3.172   5.499  0.0637 -0.1223 -0.2938
  122OSM   H13S12869   6.754   3.282   5.511  0.0199 -0.0642 -0.8057
  122OSM   H13T12870   6.657   3.155   5.431  0.2499  0.5732 -0.7133
  122OSM   C14S12871   6.857   3.111   5.415 -0.0216  0.2931  0.3301
  122OSM   H14S12872   6.841   3.001   5.420 -0.0032  0.1438 -1.8950
  122OSM   H14T12873   6.955   3.132   5.462 -0.2899  0.2647  0.9216
  122OSM   C15S12874   6.865   3.151   5.269 -0.8612  0.1980 -0.2066
  122OSM   H15S12875   6.849   3.260   5.258 -0.2120  0.3702  0.5372
  122OSM   H15T12876   6.784   3.103   5.209 -0.8472 -0.2670  0.1444
  122OSM   C16S12877   7.002   3.125   5.203  0.0895 -0.4740  0.2746
  122OSM   H16S12878   7.027   3.027   5.249  2.1243 -1.1587 -2.1155
  122OSM   H16T12879   7.082   3.197   5.231 -1.1848  2.3428 -2.7149
  122OSM   C17S12880   6.995   3.116   5.051 -0.4283  0.1717  0.8918
  122OSM   H17S12881   6.915   3.043   5.027  0.2780 -0.3824  0.2094
  122OSM   H17T12882   7.091   3.079   5.010 -0.6329  1.9641 -1.4275
  122OSM   C18S12883   6.969   3.249   4.982 -0.0807 -0.6398 -0.3705
  122OSM   H18S12884   6.898   3.302   5.048 -0.6476  0.7784 -2.0264
  122OSM   H18T12885   6.931   3.239   4.878  2.2091 -0.9587 -1.2452
  122OSM   H18U12886   7.061   3.312   4.976 -0.9224  0.7598  0.8012
  122OSM    C1F12887   7.143   3.132   6.621  0.7024  0.3059 -0.0291
  122OSM     OF12888   7.152   3.058   6.721  0.3633  0.6793  0.4563
  122OSM    C2F12889   7.248   3.174   6.516  0.1711  0.0607  0.4082
  122OSM    H2F12890   7.265   3.284   6.516  2.4389 -0.2545 -0.2178
  122OSM    H2G12891   7.213   3.138   6.417  0.7243  3.0305 -0.9864
  122OSM    C3F12892   7.376   3.096   6.548  0.2514 -0.5294  0.0366
  122OSM    H3F12893   7.357   2.987   6.538 -1.1215 -0.3203  0.2380
  122OSM    H3G12894   7.415   3.123   6.649  0.5603  2.4541 -0.7883
  122OSM    C4F12895   7.487   3.143   6.448 -0.4800 -1.0115  0.1926
  122OSM    H4F12896   7.587   3.119   6.490  1.2339  0.9465 -2.4402
  122OSM    H4G12897   7.477   3.252   6.433 -1.4220 -1.2055 -0.7727
  122OSM    C5F12898   7.472   3.093   6.301  0.1488  0.3581 -0.4083
  122OSM    H5F12899   7.391   3.154   6.256 -0.6339  0.6453  1.2855
  122OSM    H5G12900   7.442   2.986   6.305  0.2982  0.3383  2.3697
  122OSM    C6F12901   7.593   3.099   6.211  0.3465 -0.3594 -0.1850
  122OSM    H6F12902   7.667   3.034   6.263 -2.0590 -1.4052  2.1481
  122OSM    H6G12903   7.638   3.200   6.224  1.7103 -0.9416 -0.2139
  122OSM    C7F12904   7.576   3.045   6.072  0.0233 -1.0031 -0.2301
  122OSM    H7F12905   7.546   2.939   6.080  0.9570 -1.1228  2.4595
  122OSM    H7G12906   7.675   3.047   6.019 -0.5589 -1.6169 -1.3943
  122OSM    C8F12907   7.483   3.131   5.979 -0.1218 -0.1555  0.6410
  122OSM    H8F12908   7.377   3.121   6.011  0.5607 -1.7243  2.5969
  122OSM    H8G12909   7.477   3.082   5.880  1.0545  1.3922 -0.2445
  122OSM    C9F12910   7.518   3.273   5.959 -0.2371 -0.5200  0.9865
  122OSM    H9F12911   7.519   3.326   6.055  0.1424  0.9829  0.1738
  122OSM   C10F12912   7.583   3.322   5.849 -0.0063  0.2768 -0.6405
  122OSM   H10F12913   7.617   3.427   5.846 -1.0019  1.0940  5.1896
  122OSM   C11F12914   7.613   3.247   5.722 -0.5769  0.1075  0.0889
  122OSM   H11F12915   7.523   3.198   5.679 -3.1421  3.2589  1.5437
  122OSM   H11G12916   7.695   3.177   5.752 -2.5900 -1.7549  1.5654
  122OSM   C12F12917   7.681   3.330   5.605 -0.2374 -0.6173  0.6088
  122OSM   H12F12918   7.744   3.406   5.657 -1.3207 -1.0658  2.6764
  122OSM   H12G12919   7.597   3.382   5.555 -0.2456 -1.1676  0.0271
  122OSM   C13F12920   7.760   3.252   5.503 -0.6490 -0.1697  0.4684
  122OSM   H13F12921   7.687   3.179   5.460  0.3497 -0.1234 -1.4145
  122OSM   H13G12922   7.837   3.188   5.550 -0.2536 -0.5011 -0.5904
  122OSM   C14F12923   7.838   3.339   5.405 -0.0627 -0.0847  0.6211
  122OSM   H14F12924   7.921   3.276   5.369  0.4397  1.3646 -0.8663
  122OSM   H14G12925   7.896   3.417   5.458  1.5725  0.9706 -2.5013
  122OSM   C15F12926   7.764   3.403   5.280  0.4792  0.0794  0.8669
  122OSM   H15F12927   7.673   3.457   5.312 -0.8578 -2.1643  1.0886
  122OSM   H15G12928   7.736   3.320   5.212  0.2640  0.6907  0.1965
  122OSM   C16F12929   7.849   3.501   5.197  0.2216 -0.0822 -0.0860
  122OSM   H16F12930   7.930   3.447   5.142  0.0152 -0.4546 -0.0227
  122OSM   H16G12931   7.898   3.572   5.267  0.3794 -1.6744  1.4914
  122OSM   C17F12932   7.773   3.577   5.087  0.7379 -0.8414  0.4223
  122OSM   H17F12933   7.701   3.641   5.141  1.4483 -0.9812  1.5669
  122OSM   H17G12934   7.713   3.506   5.026 -0.9780 -0.7714  1.9862
  122OSM   C18F12935   7.853   3.661   4.993 -0.7162 -0.5015  0.4079
  122OSM   H18F12936   7.926   3.717   5.056 -1.7251 -0.3472  1.4818
  122OSM   H18G12937   7.794   3.735   4.935 -1.8868 -0.4720  1.5801
  122OSM   H18H12938   7.921   3.603   4.928  0.0893 -0.2654  1.0306
  123OSM      N12939   0.097   1.116   2.136 -1.1717 -0.5044 -0.0169
  123OSM    C1512940   0.063   0.994   2.205 -0.1540  0.3892 -0.4621
  123OSM   H15A12941   0.138   0.971   2.279  0.7057  1.2322 -1.0527
  123OSM   H15B12942   0.025   0.907   2.154 -1.9730  0.4591  0.6774
  123OSM   H15C12943  -0.024   1.007   2.267 -0.3483  2.6701 -1.1236
  123OSM    C1412944   0.226   1.093   2.062 -1.0102  0.2185 -0.4239
  123OSM   H14A12945   0.303   1.071   2.134 -2.4393 -0.3201  1.0199
  123OSM   H14B12946   0.265   1.169   1.997  1.0668 -0.2475  0.1884
  123OSM   H14C12947   0.214   1.005   2.001  0.9345 -0.3228 -0.0766
  123OSM    C1312948  -0.002   1.153   2.028  0.3484  0.1721 -0.1465
  123OSM   H13A12949  -0.010   1.082   1.947  0.4535 -0.5595  0.4722
  123OSM   H13B12950   0.004   1.257   1.998 -1.4813  0.7213  1.2202
  123OSM   H13C12951  -0.103   1.143   2.066 -0.4021 -1.4129 -2.3535
  123OSM    C1212952   0.110   1.223   2.245  0.5703  0.2643 -0.1795
  123OSM   H12A12953   0.135   1.315   2.194  2.1158  0.0157  0.0926
  123OSM   H12B12954   0.194   1.198   2.307  0.4307  0.7416  0.2113
  123OSM    C1112955  -0.022   1.252   2.324 -0.2459  0.3676  0.3280
  123OSM   H11A12956   0.031   1.294   2.412  1.6438 -1.5617  0.1711
  123OSM   H11B12957  -0.069   1.159   2.361  0.6163 -0.6768 -1.0979
  123OSM      P12958  -0.073   1.497   2.235 -0.1825  0.0744 -0.5775
  123OSM    O1312959   0.042   1.514   2.139  0.2535  0.0048 -0.5196
  123OSM    O1412960  -0.196   1.576   2.198 -0.2977  0.4945 -0.6345
  123OSM    O1112961  -0.004   1.546   2.372  1.1622  0.1916  0.0658
  123OSM    O1212962  -0.112   1.344   2.255  0.5013  1.2012 -0.1163
  123OSM    C1S12963  -0.103   1.552   2.479 -0.5486 -0.2473  0.2602
  123OSM    H1S12964  -0.154   1.459   2.511 -0.5121  0.0011  1.0600
  123OSM    H1T12965  -0.181   1.630   2.466  1.2462  1.6178  0.1838
  123OSM     NF12966  -0.135   1.604   2.714 -1.1454 -0.4515  0.2397
  123OSM    HNF12967  -0.198   1.680   2.722 -1.1928 -0.1439 -2.3535
  123OSM    C2S12968  -0.035   1.602   2.612 -0.4072  0.1705  1.0175
  123OSM    H2S12969   0.044   1.527   2.635 -0.1207  0.1246 -0.0630
  123OSM    C3S12970   0.034   1.743   2.597  0.3828  1.2125  0.5921
  123OSM    H3S12971  -0.051   1.813   2.583  0.1558  0.9904  0.8547
  123OSM     O312972   0.128   1.757   2.493  0.7006 -0.0076  0.7410
  123OSM    HO312973   0.137   1.673   2.450 -0.8544  0.9065 -1.5678
  123OSM    C4S12974   0.088   1.783   2.733 -0.2614  0.4841  0.3547
  123OSM    H4S12975   0.038   1.869   2.780 -0.8288 -1.1289  2.9113
  123OSM    C5S12976   0.189   1.725   2.802  0.2052  0.4753  0.6334
  123OSM    H5S12977   0.243   1.639   2.760 -0.6663  1.0247 -1.7860
  123OSM    C6S12978   0.238   1.782   2.933  0.3281  0.1496 -0.4312
  123OSM    H6S12979   0.223   1.891   2.948  2.9328  0.3104  1.9028
  123OSM    H6T12980   0.348   1.788   2.919  0.5819 -0.1274  1.3232
  123OSM    C7S12981   0.196   1.702   3.054 -1.2528 -0.4321  0.1608
  123OSM    H7S12982   0.239   1.600   3.054  1.2549  0.5292  1.7983
  123OSM    H7T12983   0.086   1.686   3.055 -1.1286 -1.3059  0.8716
  123OSM    C8S12984   0.243   1.770   3.186 -0.1909  0.6047  0.5867
  123OSM    H8S12985   0.204   1.874   3.193  0.4995  1.0914 -1.7430
  123OSM    H8T12986   0.353   1.784   3.178 -0.0541 -0.5428  0.3225
  123OSM    C9S12987   0.217   1.695   3.314 -0.1336  0.1991 -0.3931
  123OSM    H9S12988   0.266   1.597   3.296  2.0144  1.3277 -1.0177
  123OSM    H9T12989   0.111   1.683   3.346  0.1423  0.4689  0.6625
  123OSM   C10S12990   0.290   1.768   3.435  0.0025  0.3141 -0.3681
  123OSM   H10S12991   0.262   1.875   3.436  1.0255  0.5942 -0.4932
  123OSM   H10T12992   0.400   1.762   3.421 -0.0654 -0.4581 -0.6324
  123OSM   C11S12993   0.263   1.700   3.572 -0.6659 -0.5983  0.1409
  123OSM   H11S12994   0.281   1.591   3.558  2.0930 -0.0336 -1.6057
  123OSM   H11T12995   0.155   1.716   3.592 -0.5816  0.2466 -0.0358
  123OSM   C12S12996   0.343   1.766   3.686  0.6871 -0.3611  0.2466
  123OSM   H12S12997   0.320   1.874   3.682 -0.1739 -0.5786 -2.3939
  123OSM   H12T12998   0.451   1.745   3.671  0.6202  0.0371 -0.8694
  123OSM   C13S12999   0.308   1.704   3.820 -0.4364 -0.7536  0.6414
  123OSM   H13S13000   0.342   1.598   3.827  0.4219 -0.4273  1.5887
  123OSM   H13T13001   0.198   1.707   3.834 -0.4662  2.7616  0.5449
  123OSM   C14S13002   0.377   1.778   3.938  0.1591  0.2567 -0.3643
  123OSM   H14S13003   0.365   1.888   3.934  0.5434  0.3004 -0.4249
  123OSM   H14T13004   0.486   1.759   3.950 -0.1929 -0.5925  2.1599
  123OSM   C15S13005   0.313   1.730   4.068  0.8087 -0.4630  0.5910
  123OSM   H15S13006   0.334   1.621   4.077 -1.2061 -0.7622  2.9148
  123OSM   H15T13007   0.203   1.739   4.059  0.5474 -1.4098  2.3629
  123OSM   C16S13008   0.360   1.802   4.195 -0.1625 -0.5366 -0.5441
  123OSM   H16S13009   0.333   1.909   4.196 -1.6117 -0.8839 -0.4364
  123OSM   H16T13010   0.471   1.800   4.201 -0.2490 -1.0644  1.4890
  123OSM   C17S13011   0.310   1.731   4.318 -0.4454  0.4194  1.0873
  123OSM   H17S13012   0.339   1.625   4.302 -1.5652  0.2929 -0.4299
  123OSM   H17T13013   0.199   1.738   4.312 -0.5313 -0.3512  1.6377
  123OSM   C18S13014   0.363   1.781   4.449  0.0421  0.0854 -0.0427
  123OSM   H18S13015   0.473   1.768   4.442 -0.0351  0.0237 -1.6128
  123OSM   H18T13016   0.325   1.730   4.540 -0.5315 -0.3793 -0.5322
  123OSM   H18U13017   0.325   1.884   4.467  2.0678  0.9100 -0.2003
  123OSM    C1F13018  -0.173   1.501   2.785  0.2116  0.8336 -0.2459
  123OSM     OF13019  -0.139   1.385   2.756  0.1989 -0.1637  0.0102
  123OSM    C2F13020  -0.270   1.528   2.888 -0.0672  0.1545 -1.1029
  123OSM    H2F13021  -0.368   1.496   2.847  0.2706 -2.2457 -0.2168
  123OSM    H2G13022  -0.278   1.635   2.916 -1.1740  0.0186 -0.8726
  123OSM    C3F13023  -0.252   1.442   3.014  0.8451 -0.2518 -0.4578
  123OSM    H3F13024  -0.155   1.454   3.067  0.6820  1.3861 -0.4854
  123OSM    H3G13025  -0.257   1.335   2.983 -0.0978 -0.3012 -0.1678
  123OSM    C4F13026  -0.376   1.465   3.101 -0.0275  0.1710  0.5963
  123OSM    H4F13027  -0.465   1.449   3.037  0.0797  0.8559  0.2671
  123OSM    H4G13028  -0.383   1.570   3.137  0.0024  0.3648  0.0533
  123OSM    C5F13029  -0.406   1.367   3.220  0.0950 -0.4127  0.0269
  123OSM    H5F13030  -0.425   1.259   3.200 -0.7740 -0.2901  0.1361
  123OSM    H5G13031  -0.505   1.404   3.255 -0.9082 -1.4944 -1.5651
  123OSM    C6F13032  -0.300   1.370   3.331  0.3035 -0.5802  0.0749
  123OSM    H6F13033  -0.207   1.321   3.294 -0.7798 -2.8027  0.1338
  123OSM    H6G13034  -0.342   1.304   3.410 -2.0716  1.5169  0.6683
  123OSM    C7F13035  -0.267   1.505   3.388  0.2855 -0.3370  0.4449
  123OSM    H7F13036  -0.360   1.561   3.412  1.1069  0.7895  1.1368
  123OSM    H7G13037  -0.209   1.551   3.306  0.8499 -1.8915 -0.0522
  123OSM    C8F13038  -0.188   1.496   3.514 -0.7292 -0.4169 -0.3034
  123OSM    H8F13039  -0.145   1.596   3.536  0.5426 -1.2335  1.0569
  123OSM    H8G13040  -0.095   1.436   3.500  1.4527  2.6465  0.1215
  123OSM    C9F13041  -0.263   1.448   3.637  0.0478  0.3300 -0.7747
  123OSM    H9F13042  -0.364   1.485   3.660 -0.2091 -1.4558  1.2513
  123OSM   C10F13043  -0.210   1.377   3.736 -0.2157 -0.2944 -0.5434
  123OSM   H10F13044  -0.270   1.364   3.828  0.4942  0.7034  0.0827
  123OSM   C11F13045  -0.074   1.311   3.741  0.1395  0.7617  0.9081
  123OSM   H11F13046  -0.035   1.292   3.639  1.2540  1.5937  1.1563
  123OSM   H11G13047  -0.093   1.218   3.800 -5.1163  0.5950 -0.4960
  123OSM   C12F13048   0.047   1.401   3.796 -1.0144 -0.0046 -0.0614
  123OSM   H12F13049   0.061   1.500   3.746 -1.4386  0.2524  0.3206
  123OSM   H12G13050   0.144   1.348   3.788 -0.8220  0.4923 -1.2658
  123OSM   C13F13051   0.036   1.444   3.944  0.2203 -0.2479 -0.2368
  123OSM   H13F13052  -0.069   1.463   3.974 -0.9904 -2.0092 -3.0037
  123OSM   H13G13053   0.088   1.541   3.960 -0.6880  0.3363 -0.7094
  123OSM   C14F13054   0.106   1.344   4.041 -0.0656 -0.1931  0.2035
  123OSM   H14F13055   0.215   1.339   4.017  0.3777 -2.5644  2.3173
  123OSM   H14G13056   0.078   1.237   4.025 -2.1744  0.6481 -2.5530
  123OSM   C15F13057   0.071   1.369   4.185 -0.1361 -0.5166 -0.4103
  123OSM   H15F13058  -0.040   1.373   4.189 -0.1159 -0.5352  0.2399
  123OSM   H15G13059   0.120   1.468   4.201  1.5527 -0.4112 -4.9287
  123OSM   C16F13060   0.131   1.287   4.304 -0.1268  0.2026  0.6925
  123OSM   H16F13061   0.240   1.300   4.284 -0.1758  2.4974  1.5341
  123OSM   H16G13062   0.106   1.179   4.299  3.5344 -0.7281 -2.5738
  123OSM   C17F13063   0.097   1.334   4.450 -0.1095 -0.7230  0.4766
  123OSM   H17F13064   0.121   1.256   4.525  1.6881 -0.4476  0.2293
  123OSM   H17G13065  -0.014   1.342   4.452 -0.1602 -1.0942 -0.3138
  123OSM   C18F13066   0.175   1.461   4.492  0.2509 -0.4186  0.1306
  123OSM   H18F13067   0.142   1.495   4.592  0.7320  2.2597 -0.5463
  123OSM   H18G13068   0.154   1.547   4.425 -0.7822 -0.4974  0.3417
  123OSM   H18H13069   0.285   1.454   4.506  0.4005 -1.3385 -1.2779
  124OSM      N13070   1.065   3.012   2.081  0.5837 -0.5872 -0.4367
  124OSM    C1513071   0.995   3.141   2.074  0.2448  0.4561  0.2772
  124OSM   H15A13072   1.035   3.215   2.142 -0.6189  0.4385  0.8210
  124OSM   H15B13073   0.892   3.123   2.103  0.2497  1.1151  0.7337
  124OSM   H15C13074   1.002   3.177   1.973  0.5134  1.1143  0.5199
  124OSM    C1413075   0.992   2.916   2.005 -0.5306 -0.7963 -0.1880
  124OSM   H14A13076   0.886   2.913   2.027 -0.2573 -3.0776  1.1029
  124OSM   H14B13077   1.021   2.815   2.032 -2.7434 -1.4089  0.1835
  124OSM   H14C13078   0.992   2.929   1.898  0.5472 -0.7108 -0.1852
  124OSM    C1313079   1.195   3.030   2.018 -0.8620 -0.7293 -0.2825
  124OSM   H13A13080   1.258   2.943   2.029 -1.0379 -0.8684 -0.3625
  124OSM   H13B13081   1.259   3.103   2.065  2.4533 -2.6842 -1.3717
  124OSM   H13C13082   1.191   3.059   1.914 -1.0237 -2.4373 -0.7791
  124OSM    C1213083   1.087   2.967   2.223  0.0654 -0.3879  0.3511
  124OSM   H12A13084   1.150   3.041   2.270  0.9626 -0.3222 -0.9032
  124OSM   H12B13085   1.157   2.884   2.223  0.9042  0.1369  4.2120
  124OSM    C1113086   0.970   2.941   2.314  0.3698  0.4785 -0.1416
  124OSM   H11A13087   1.004   2.921   2.418  0.1103  1.0673  0.0614
  124OSM   H11B13088   0.919   2.846   2.288  1.2752  0.2319 -1.0584
  124OSM      P13089   0.896   3.164   2.425 -0.0129 -0.3879 -0.2171
  124OSM    O1313090   1.036   3.213   2.400  0.4581  0.2972 -0.2297
  124OSM    O1413091   0.786   3.262   2.409 -0.2218 -0.3028  0.1609
  124OSM    O1113092   0.881   3.112   2.572  0.4837  0.3999  0.2409
  124OSM    O1213093   0.873   3.047   2.317 -0.2373  0.1910  0.0285
  124OSM    C1S13094   0.989   3.088   2.664  0.2290  0.0223  0.0532
  124OSM    H1S13095   1.036   3.186   2.689 -1.2733  0.7924 -0.0758
  124OSM    H1T13096   1.068   3.015   2.636  0.9195 -0.3981  2.7653
  124OSM     NF13097   1.047   3.028   2.898  0.2352  0.2190  0.0938
  124OSM    HNF13098   1.085   2.936   2.911 -1.8455 -0.8739 -1.0386
  124OSM    C2S13099   0.940   3.039   2.807  0.4630  0.0865  0.2299
  124OSM    H2S13100   0.872   3.110   2.858  0.5771  0.7228 -0.4763
  124OSM    C3S13101   0.864   2.906   2.784  0.0528 -0.8072 -0.5045
  124OSM    H3S13102   0.944   2.847   2.733  2.0646  1.5627 -0.2977
  124OSM     O313103   0.759   2.900   2.693 -0.2741 -0.0111 -0.1177
  124OSM    HO313104   0.778   2.984   2.653  0.6780  0.6539  1.6156
  124OSM    C4S13105   0.820   2.839   2.913  0.5146  0.6010 -0.6329
  124OSM    H4S13106   0.787   2.905   2.995  0.7041 -1.3276  1.0777
  124OSM    C5S13107   0.821   2.709   2.943  0.9892  0.2031 -0.4180
  124OSM    H5S13108   0.856   2.638   2.867 -0.1288  0.5236 -1.2449
  124OSM    C6S13109   0.775   2.651   3.072 -1.0171  0.4608  0.1771
  124OSM    H6S13110   0.856   2.585   3.109 -0.2826  0.1867 -1.7963
  124OSM    H6T13111   0.696   2.573   3.065 -0.1868 -0.4584  0.8218
  124OSM    C7S13112   0.749   2.744   3.189 -0.5522  0.7490  0.1880
  124OSM    H7S13113   0.659   2.806   3.165 -1.0325 -1.2191 -4.1342
  124OSM    H7T13114   0.829   2.811   3.227 -0.8473  0.4143  1.4481
  124OSM    C8S13115   0.696   2.663   3.307 -0.2515 -0.2599  0.4105
  124OSM    H8S13116   0.757   2.571   3.315 -0.1134 -0.0572  2.1867
  124OSM    H8T13117   0.590   2.632   3.301 -0.2039 -0.1660 -1.3943
  124OSM    C9S13118   0.717   2.730   3.439 -0.0235 -0.0226 -0.2784
  124OSM    H9S13119   0.684   2.836   3.432  2.3126  0.7422 -0.4462
  124OSM    H9T13120   0.826   2.735   3.462 -0.3520  1.2130  1.1929
  124OSM   C10S13121   0.649   2.667   3.559  0.5284  0.4973  0.1472
  124OSM   H10S13122   0.645   2.557   3.571 -0.2725  0.3913 -0.9724
  124OSM   H10T13123   0.542   2.699   3.554  0.7254  0.9715 -1.4958
  124OSM   C11S13124   0.701   2.749   3.682  0.6917 -0.1180 -0.4711
  124OSM   H11S13125   0.721   2.855   3.654 -2.1468  0.9448  1.0727
  124OSM   H11T13126   0.802   2.710   3.704  0.0635 -1.6607 -0.1972
  124OSM   C12S13127   0.616   2.731   3.807 -0.1611 -0.5809  0.4741
  124OSM   H12S13128   0.621   2.622   3.826 -0.5021 -0.8138 -0.6810
  124OSM   H12T13129   0.510   2.757   3.785  1.2159  4.1161 -2.0435
  124OSM   C13S13130   0.667   2.805   3.935  0.4728  0.2924  0.1232
  124OSM   H13S13131   0.666   2.911   3.901  1.5126 -0.2138 -1.6150
  124OSM   H13T13132   0.768   2.761   3.947  0.7672  1.1186  0.7419
  124OSM   C14S13133   0.580   2.775   4.057 -0.3407  0.5399  0.3245
  124OSM   H14S13134   0.583   2.668   4.088  1.3100  0.5009  0.1129
  124OSM   H14T13135   0.475   2.803   4.033 -0.0212  0.1096 -1.7781
  124OSM   C15S13136   0.633   2.848   4.179  0.3358 -0.1461  0.8442
  124OSM   H15S13137   0.645   2.954   4.148 -1.8001 -0.1499 -0.1949
  124OSM   H15T13138   0.726   2.806   4.223 -0.5061 -0.7732  2.0996
  124OSM   C16S13139   0.529   2.841   4.292  1.1970  0.0522  0.1163
  124OSM   H16S13140   0.473   2.745   4.293  0.8170  0.2313 -1.4877
  124OSM   H16T13141   0.452   2.919   4.271  1.2187  0.2298  0.6835
  124OSM   C17S13142   0.584   2.883   4.429 -0.5720  0.7508 -0.2070
  124OSM   H17S13143   0.499   2.907   4.497 -0.7017 -0.5107  0.0905
  124OSM   H17T13144   0.647   2.970   4.401 -1.3175  0.2507 -3.9690
  124OSM   C18S13145   0.669   2.768   4.488  0.5979 -0.2378  0.3291
  124OSM   H18S13146   0.693   2.790   4.594 -0.1136  0.2065  0.4073
  124OSM   H18T13147   0.764   2.770   4.431  1.4996 -1.9455  1.6781
  124OSM   H18U13148   0.610   2.675   4.473 -1.2125  0.5601  1.9804
  124OSM    C1F13149   1.113   3.139   2.937 -0.4820  0.1661 -0.3530
  124OSM     OF13150   1.060   3.249   2.918  0.1617  0.2932  0.2218
  124OSM    C2F13151   1.253   3.113   2.990  1.0579  0.3290  0.1909
  124OSM    H2F13152   1.318   3.142   2.905 -1.3646 -1.8794 -2.6528
  124OSM    H2G13153   1.267   3.006   3.015  0.5324  0.6572  1.9830
  124OSM    C3F13154   1.275   3.211   3.104  0.4484  0.1621 -0.2871
  124OSM    H3F13155   1.230   3.312   3.094 -0.7884 -0.0550  2.2891
  124OSM    H3G13156   1.386   3.217   3.097  0.4441 -0.4814 -1.0830
  124OSM    C4F13157   1.238   3.149   3.241 -0.3969  0.4064 -0.5572
  124OSM    H4F13158   1.266   3.042   3.238 -1.7431 -0.0394  1.0970
  124OSM    H4G13159   1.127   3.152   3.240 -0.3870  1.6070 -1.7321
  124OSM    C5F13160   1.287   3.221   3.372  0.3147  0.2428  0.0574
  124OSM    H5F13161   1.246   3.162   3.457  1.8002 -0.6322  0.2033
  124OSM    H5G13162   1.244   3.323   3.378 -1.4701 -0.3776 -1.3789
  124OSM    C6F13163   1.436   3.235   3.401  0.7655 -0.3703  0.4642
  124OSM    H6F13164   1.486   3.294   3.321 -1.8915 -0.8545 -1.6920
  124OSM    H6G13165   1.500   3.145   3.398 -1.6342 -2.1923  0.8950
  124OSM    C7F13166   1.469   3.315   3.534 -0.2878 -0.2849  0.3574
  124OSM    H7F13167   1.423   3.416   3.535  0.6827  0.1895 -0.7282
  124OSM    H7G13168   1.579   3.330   3.535 -0.5672  2.0994  0.5237
  124OSM    C8F13169   1.432   3.235   3.658 -0.6988  0.3614 -1.2762
  124OSM    H8F13170   1.484   3.137   3.651 -0.3518  0.3781  0.7099
  124OSM    H8G13171   1.323   3.216   3.666 -0.4360 -1.1974 -0.9684
  124OSM    C9F13172   1.474   3.309   3.786 -1.2388  0.6643 -0.0432
  124OSM    H9F13173   1.440   3.413   3.799  1.7138  1.5032  1.9979
  124OSM   C10F13174   1.562   3.269   3.874  0.1448 -0.0566 -0.8433
  124OSM   H10F13175   1.576   3.335   3.961  0.3580  0.6158 -1.3735
  124OSM   C11F13176   1.641   3.145   3.891 -0.4122 -0.1750 -0.2575
  124OSM   H11F13177   1.750   3.159   3.875 -0.7447  3.0844 -0.1798
  124OSM   H11G13178   1.602   3.070   3.819 -1.2251 -0.2837  0.2725
  124OSM   C12F13179   1.644   3.081   4.034  0.3416  0.9560  0.3797
  124OSM   H12F13180   1.692   2.981   4.032  0.8439  1.1825  0.9633
  124OSM   H12G13181   1.543   3.068   4.080  1.0068 -1.2663  1.3564
  124OSM   C13F13182   1.716   3.181   4.128 -0.4998 -0.1181 -0.4648
  124OSM   H13F13183   1.671   3.282   4.124  0.9881  0.7140  2.0965
  124OSM   H13G13184   1.817   3.188   4.082 -0.9527  0.5448 -1.3897
  124OSM   C14F13185   1.715   3.130   4.271 -0.9951 -0.7090  0.6278
  124OSM   H14F13186   1.769   3.033   4.266  1.3366  0.5893 -1.3447
  124OSM   H14G13187   1.615   3.094   4.303 -2.1809  1.3308 -0.5922
  124OSM   C15F13188   1.782   3.224   4.370 -0.8437  0.5655 -0.3221
  124OSM   H15F13189   1.748   3.328   4.350  0.5120  0.9038 -0.9926
  124OSM   H15G13190   1.889   3.227   4.343 -0.3850  1.5017  1.3857
  124OSM   C16F13191   1.792   3.182   4.518 -0.6091 -0.1858  0.2219
  124OSM   H16F13192   1.832   3.271   4.570  0.9446 -0.3961 -0.5586
  124OSM   H16G13193   1.865   3.100   4.535  0.4291  0.8210  0.6750
  124OSM   C17F13194   1.659   3.149   4.589  0.0996  0.4043  0.5123
  124OSM   H17F13195   1.603   3.088   4.515 -0.3666  0.8196  0.5198
  124OSM   H17G13196   1.610   3.244   4.620 -0.8980 -0.4512  1.6894
  124OSM   C18F13197   1.684   3.061   4.714  0.2986  0.0770 -0.0359
  124OSM   H18F13198   1.763   2.984   4.701  1.2482  1.0344 -0.1020
  124OSM   H18G13199   1.593   3.005   4.741  0.6914 -2.1611 -2.8695
  124OSM   H18H13200   1.700   3.118   4.808 -2.1681 -0.3686  0.7009
  125OSM      N13201   1.710   0.865   2.451  0.3276 -0.2084 -0.1696
  125OSM    C1513202   1.618   0.762   2.398  0.5036 -0.9672  1.0654
  125OSM   H15A13203   1.516   0.789   2.422 -0.1916 -3.5400  1.2802
  125OSM   H15B13204   1.643   0.669   2.446  0.5680 -0.9156  1.1330
  125OSM   H15C13205   1.626   0.755   2.291  0.2029  2.3914  0.6952
  125OSM    C1413206   1.675   0.996   2.385 -0.3159  0.5454  0.0272
  125OSM   H14A13207   1.708   0.997   2.282 -0.6488 -0.3568 -0.0959
  125OSM   H14B13208   1.736   1.072   2.432 -0.3704 -0.7754  2.4185
  125OSM   H14C13209   1.569   1.014   2.388 -0.5748 -0.7170 -0.7685
  125OSM    C1313210   1.682   0.879   2.600  0.4952  0.1821  0.0516
  125OSM   H13A13211   1.755   0.951   2.635  1.0365  0.1919 -1.0368
  125OSM   H13B13212   1.702   0.786   2.651  1.3647  1.0723  1.3915
  125OSM   H13C13213   1.579   0.902   2.625  0.2779  0.8807 -1.3569
  125OSM    C1213214   1.854   0.831   2.433 -0.0269  1.5359 -0.1228
  125OSM   H12A13215   1.876   0.739   2.485 -1.6473  0.1191 -1.7912
  125OSM   H12B13216   1.918   0.902   2.483 -0.6837  1.7383  0.4393
  125OSM    C1113217   1.896   0.789   2.293 -0.5426 -0.4897 -0.1255
  125OSM   H11A13218   1.930   0.872   2.228  1.6833 -1.1817  0.0638
  125OSM   H11B13219   1.818   0.740   2.230  0.7552 -0.3889 -1.9165
  125OSM      P13220   2.149   0.727   2.325  0.1140  0.3779 -0.1123
  125OSM    O1313221   2.239   0.609   2.295 -0.1287  0.4152 -0.7493
  125OSM    O1413222   2.175   0.843   2.238 -0.2905 -0.2332 -0.5299
  125OSM    O1113223   2.171   0.772   2.470 -0.0418 -0.4504  0.6154
  125OSM    O1213224   1.997   0.692   2.317 -0.5731  0.4234  0.1856
  125OSM    C1S13225   2.131   0.700   2.589 -0.1667  0.4294  0.1439
  125OSM    H1S13226   2.120   0.592   2.562  0.4076 -0.0764  1.8076
  125OSM    H1T13227   2.029   0.728   2.624 -0.3702  1.3996 -1.1940
  125OSM     NF13228   2.208   0.613   2.808 -0.3202 -0.4071 -0.6525
  125OSM    HNF13229   2.148   0.640   2.883 -0.8938 -1.9515 -0.5117
  125OSM    C2S13230   2.229   0.713   2.707  0.4233  0.2210 -0.1513
  125OSM    H2S13231   2.335   0.698   2.676  0.3189 -1.0832  0.0694
  125OSM    C3S13232   2.227   0.864   2.762 -0.5191 -0.7070 -0.3093
  125OSM    H3S13233   2.128   0.882   2.809 -1.2135 -1.1387 -1.5732
  125OSM     O313234   2.246   0.962   2.662  0.4624  0.2265 -0.7069
  125OSM    HO313235   2.242   0.914   2.579  1.0942  0.5443 -0.9273
  125OSM    C4S13236   2.332   0.885   2.870  0.0015 -0.2766  0.5063
  125OSM    H4S13237   2.433   0.880   2.826 -0.6396  0.2797 -1.0883
  125OSM    C5S13238   2.301   0.906   2.999  0.2122 -0.0434  0.3390
  125OSM    H5S13239   2.195   0.901   3.028 -0.1756  2.6559 -0.3566
  125OSM    C6S13240   2.401   0.928   3.111  0.3838  0.1234  0.7582
  125OSM    H6S13241   2.363   1.009   3.177 -2.1797 -0.2767 -0.1066
  125OSM    H6T13242   2.499   0.957   3.069 -0.6643  0.3705 -1.6912
  125OSM    C7S13243   2.402   0.803   3.206  0.3552 -0.1116  0.0618
  125OSM    H7S13244   2.422   0.713   3.143  1.5434  0.1475  0.0430
  125OSM    H7T13245   2.306   0.792   3.260  0.1917 -0.1036 -0.2233
  125OSM    C8S13246   2.511   0.825   3.312 -0.6349 -0.4167  0.2329
  125OSM    H8S13247   2.459   0.898   3.378  0.7363  0.2352  0.6186
  125OSM    H8T13248   2.594   0.875   3.258 -0.9719  0.6030  0.6206
  125OSM    C9S13249   2.560   0.691   3.377  0.8525  0.2152  0.0021
  125OSM    H9S13250   2.628   0.717   3.461  1.2787  4.2920 -1.3805
  125OSM    H9T13251   2.597   0.621   3.299 -0.6889  0.0533 -0.6089
  125OSM   C10S13252   2.442   0.603   3.440 -0.3213 -0.1934  0.6543
  125OSM   H10S13253   2.498   0.526   3.497 -0.6627  0.3863  1.8189
  125OSM   H10T13254   2.388   0.563   3.352  0.9948  1.1257 -0.8096
  125OSM   C11S13255   2.346   0.676   3.539 -0.1503 -0.1755 -0.4848
  125OSM   H11S13256   2.278   0.594   3.570 -0.6337  0.9174  1.5881
  125OSM   H11T13257   2.305   0.771   3.498  1.4686  1.0524  0.6053
  125OSM   C12S13258   2.412   0.709   3.674 -0.4543  0.2590 -0.7010
  125OSM   H12S13259   2.335   0.762   3.734 -0.2479 -0.6194  0.3690
  125OSM   H12T13260   2.494   0.779   3.648 -0.6891  0.6851 -0.3205
  125OSM   C13S13261   2.477   0.584   3.743 -0.1495  0.7438 -0.0506
  125OSM   H13S13262   2.577   0.566   3.699 -0.0587  1.5248 -0.1777
  125OSM   H13T13263   2.408   0.503   3.710 -1.6853  1.8131  0.4315
  125OSM   C14S13264   2.483   0.616   3.891  0.4133 -0.5372 -0.5569
  125OSM   H14S13265   2.377   0.620   3.925 -0.0749 -2.2728 -1.7010
  125OSM   H14T13266   2.528   0.717   3.897 -1.1205  0.0782  2.1872
  125OSM   C15S13267   2.558   0.512   3.970 -0.4150 -0.6402  0.8360
  125OSM   H15S13268   2.665   0.518   3.940 -1.0713  1.3110 -1.4707
  125OSM   H15T13269   2.518   0.416   3.932 -0.6468  0.0497 -0.7426
  125OSM   C16S13270   2.534   0.520   4.119 -0.1263  0.2384  0.2048
  125OSM   H16S13271   2.428   0.524   4.151 -0.3756  0.0803 -0.5924
  125OSM   H16T13272   2.586   0.611   4.157  0.2390  0.1257 -0.0210
  125OSM   C17S13273   2.596   0.403   4.206  0.3144  0.0361  0.4402
  125OSM   H17S13274   2.532   0.314   4.194  0.7958 -0.2368 -0.2015
  125OSM   H17T13275   2.593   0.429   4.314 -2.2691  0.0708  0.4062
  125OSM   C18S13276   2.742   0.372   4.167  0.0838  0.0398  0.5220
  125OSM   H18S13277   2.748   0.325   4.067  0.3623  2.3896 -0.6244
  125OSM   H18T13278   2.803   0.311   4.238  2.1549 -0.7747 -1.8445
  125OSM   H18U13279   2.802   0.465   4.168 -0.6961  0.5503  0.8040
  125OSM    C1F13280   2.254   0.492   2.783  0.1946  0.1017 -0.4396
  125OSM     OF13281   2.329   0.469   2.689  0.1445  0.3620 -0.2909
  125OSM    C2F13282   2.207   0.376   2.868 -0.3745  0.1988  0.2237
  125OSM    H2F13283   2.257   0.287   2.824 -1.4084 -0.6261  0.6708
  125OSM    H2G13284   2.100   0.351   2.849  0.0902 -2.2981  0.5697
  125OSM    C3F13285   2.224   0.404   3.015  0.1406  0.3259 -0.1508
  125OSM    H3F13286   2.167   0.494   3.047  1.5301  1.6544 -1.2381
  125OSM    H3G13287   2.329   0.432   3.036 -0.2694  2.1123 -0.3357
  125OSM    C4F13288   2.200   0.282   3.106 -0.2848 -0.6422 -0.2882
  125OSM    H4F13289   2.269   0.300   3.192  1.5672 -1.2588 -1.5765
  125OSM    H4G13290   2.241   0.199   3.044  1.7583  1.5761 -2.1351
  125OSM    C5F13291   2.054   0.271   3.159 -0.9759 -0.1995 -0.4337
  125OSM    H5F13292   1.980   0.254   3.077  2.1358 -0.8873 -3.3443
  125OSM    H5G13293   2.025   0.370   3.199  1.0547  1.6900 -3.2183
  125OSM    C6F13294   2.046   0.164   3.270 -0.3762 -0.1559  0.5202
  125OSM    H6F13295   1.953   0.169   3.330  0.3563  1.8134  1.5789
  125OSM    H6G13296   2.127   0.178   3.344 -2.4030  0.3068  2.7711
  125OSM    C7F13297   2.039   0.017   3.210 -0.2914 -0.3061  0.1966
  125OSM    H7F13298   2.120   0.004   3.136 -0.0766  0.2791  0.3276
  125OSM    H7G13299   1.939   0.004   3.162 -0.7215  1.2258  0.6267
  125OSM    C8F13300   2.051  -0.083   3.324 -0.2894  0.0518 -0.2879
  125OSM    H8F13301   2.025  -0.186   3.291  0.4451  0.2751 -1.6454
  125OSM    H8G13302   1.981  -0.071   3.409  0.7825 -0.4590  0.6826
  125OSM    C9F13303   2.193  -0.083   3.369  0.3909  0.3906 -0.1696
  125OSM    H9F13304   2.266  -0.074   3.287 -1.8768  0.4396 -2.2776
  125OSM   C10F13305   2.240  -0.069   3.491 -0.4691 -0.2492 -0.4839
  125OSM   H10F13306   2.345  -0.078   3.519 -0.2089 -1.7849 -1.8417
  125OSM   C11F13307   2.151  -0.064   3.616  0.3180  0.0859 -0.0229
  125OSM   H11F13308   2.044  -0.089   3.597  0.0419  1.4792 -0.3668
  125OSM   H11G13309   2.143   0.041   3.650 -2.5984  0.0324 -0.2482
  125OSM   C12F13310   2.214  -0.152   3.722  0.1295  0.5028  0.1886
  125OSM   H12F13311   2.320  -0.127   3.744  0.8355 -0.5891 -1.6517
  125OSM   H12G13312   2.200  -0.251   3.673 -1.5312 -0.3022  2.1849
  125OSM   C13F13313   2.136  -0.137   3.859  0.0325 -0.5492  0.5812
  125OSM   H13F13314   2.029  -0.144   3.830 -0.1837 -0.4310  1.3470
  125OSM   H13G13315   2.149  -0.034   3.897 -1.7096 -0.8800  2.1795
  125OSM   C14F13316   2.180  -0.238   3.964  0.1837  0.3404 -0.5967
  125OSM   H14F13317   2.289  -0.221   3.980 -0.0260  0.1452  1.2326
  125OSM   H14G13318   2.156  -0.341   3.931 -3.9016  0.9077  0.1282
  125OSM   C15F13319   2.087  -0.228   4.088 -0.2837  0.5122  0.5259
  125OSM   H15F13320   2.096  -0.324   4.144 -0.8956 -0.0709 -0.3699
  125OSM   H15G13321   1.981  -0.225   4.056 -0.0512  0.5112 -0.2571
  125OSM   C16F13322   2.096  -0.105   4.187  0.2406  0.6565 -0.1469
  125OSM   H16F13323   2.032  -0.122   4.276 -3.2451  0.7256 -2.4786
  125OSM   H16G13324   2.062  -0.017   4.129 -1.2960 -0.1399 -0.4869
  125OSM   C17F13325   2.239  -0.071   4.234  0.1215 -0.1711 -0.4702
  125OSM   H17F13326   2.235   0.021   4.296  1.4920 -0.5420  0.2131
  125OSM   H17G13327   2.292  -0.044   4.140  0.2459  0.6933 -0.1617
  125OSM   C18F13328   2.317  -0.167   4.315  0.2122  0.2150 -0.5047
  125OSM   H18F13329   2.307  -0.264   4.261  1.6011  0.9599 -2.2085
  125OSM   H18G13330   2.273  -0.169   4.417 -0.6394  0.7389 -0.8526
  125OSM   H18H13331   2.424  -0.142   4.330  0.2497 -0.8807  1.4297
  126OSM      N13332   0.466   6.424   2.721  0.1084 -0.3227 -0.1472
  126OSM    C1513333   0.370   6.533   2.724  0.5541 -0.0915  0.5211
  126OSM   H15A13334   0.384   6.613   2.795  1.7574  1.9787 -1.9042
  126OSM   H15B13335   0.269   6.501   2.744  0.1673  2.8116  4.5610
  126OSM   H15C13336   0.369   6.586   2.630 -1.9448 -0.9077 -0.0074
  126OSM    C1413337   0.442   6.357   2.849  0.5124  1.1715  0.0375
  126OSM   H14A13338   0.514   6.282   2.877 -0.9092 -0.0192  0.6901
  126OSM   H14B13339   0.348   6.304   2.844  1.2545 -0.2200  0.3564
  126OSM   H14C13340   0.439   6.440   2.918 -1.7752  0.7896  0.5040
  126OSM    C1313341   0.455   6.341   2.596  0.2202  0.5810 -0.2955
  126OSM   H13A13342   0.362   6.290   2.616 -0.7870  2.1146 -0.8114
  126OSM   H13B13343   0.534   6.268   2.596 -1.0249 -0.8008 -0.0849
  126OSM   H13C13344   0.452   6.393   2.502  0.3257  1.3058  0.0905
  126OSM    C1213345   0.601   6.495   2.729 -0.4706 -0.2079  0.6941
  126OSM   H12A13346   0.681   6.425   2.752 -0.6929 -0.8407 -0.3607
  126OSM   H12B13347   0.603   6.559   2.815 -0.2319  3.1250 -1.6175
  126OSM    C1113348   0.643   6.581   2.609  0.3759 -0.7893 -0.0272
  126OSM   H11A13349   0.644   6.518   2.518 -3.4347  0.5279 -1.1542
  126OSM   H11B13350   0.744   6.614   2.640  1.0001 -1.9174 -0.7718
  126OSM      P13351   0.583   6.853   2.578  0.1944 -0.0397  0.4705
  126OSM    O1313352   0.666   6.880   2.457  0.0156  0.0933 -0.0855
  126OSM    O1413353   0.457   6.931   2.586 -0.0092  0.5409 -0.1538
  126OSM    O1113354   0.680   6.886   2.698 -0.7883 -0.0830  0.4182
  126OSM    O1213355   0.557   6.697   2.589  0.4048 -0.3880 -0.2246
  126OSM    C1S13356   0.641   6.877   2.834  0.4599  0.2287 -0.2217
  126OSM    H1S13357   0.539   6.835   2.846  0.5248 -0.6065 -2.1839
  126OSM    H1T13358   0.636   6.980   2.875  0.0430  0.2583 -0.3400
  126OSM     NF13359   0.688   6.757   3.052 -0.0436 -0.1684 -0.0526
  126OSM    HNF13360   0.711   6.818   3.128 -2.5552  0.0491  0.6314
  126OSM    C2S13361   0.744   6.782   2.923 -0.2640 -0.2574 -0.1752
  126OSM    H2S13362   0.763   6.687   2.868  1.3057  0.7641 -1.5213
  126OSM    C3S13363   0.876   6.862   2.923 -0.3167  0.6686 -0.2496
  126OSM    H3S13364   0.858   6.959   2.974 -1.9342 -0.2138  0.9516
  126OSM     O313365   0.918   6.903   2.792 -0.0575  0.5850 -0.5710
  126OSM    HO313366   0.839   6.903   2.738  0.2067  1.1612 -0.9732
  126OSM    C4S13367   0.995   6.805   2.989  0.1729  0.0108 -0.1459
  126OSM    H4S13368   1.046   6.720   2.941 -0.3561 -0.8205  0.7259
  126OSM    C5S13369   1.060   6.866   3.088  0.7433  0.7636  0.1214
  126OSM    H5S13370   1.031   6.968   3.117 -0.7460  0.4918 -0.3229
  126OSM    C6S13371   1.182   6.816   3.166  0.4931  0.1401  0.7085
  126OSM    H6S13372   1.267   6.887   3.155 -0.6450  1.1055 -3.7803
  126OSM    H6T13373   1.220   6.722   3.121  1.4618  0.0796  1.6142
  126OSM    C7S13374   1.143   6.786   3.314 -1.1259  0.1944 -0.8721
  126OSM    H7S13375   1.061   6.711   3.304 -1.9114  0.6044  1.6125
  126OSM    H7T13376   1.094   6.872   3.364 -1.3731  0.5363 -1.6920
  126OSM    C8S13377   1.268   6.727   3.388  0.2449  0.4477  0.6174
  126OSM    H8S13378   1.349   6.798   3.360  0.0327  0.9309  1.2100
  126OSM    H8T13379   1.295   6.629   3.343 -1.3456  1.6885 -3.4356
  126OSM    C9S13380   1.241   6.727   3.542 -0.0859 -0.5739  0.2185
  126OSM    H9S13381   1.135   6.700   3.561 -0.4205  0.2381 -0.4093
  126OSM    H9T13382   1.243   6.832   3.577 -1.5295  0.0603 -1.4193
  126OSM   C10S13383   1.332   6.644   3.634  0.5329 -0.7687  0.2207
  126OSM   H10S13384   1.437   6.678   3.622  0.0130  1.5934  1.7626
  126OSM   H10T13385   1.337   6.537   3.603  0.0640 -1.0881  1.1793
  126OSM   C11S13386   1.301   6.652   3.787 -0.2652  0.2569  0.3615
  126OSM   H11S13387   1.336   6.754   3.813  2.7967  0.3119 -3.0941
  126OSM   H11T13388   1.359   6.576   3.844 -1.1864 -0.9427 -0.2546
  126OSM   C12S13389   1.150   6.639   3.829  0.0585  0.0383 -0.0896
  126OSM   H12S13390   1.102   6.544   3.798  2.3458 -1.4191  0.5937
  126OSM   H12T13391   1.102   6.727   3.782  2.6388  1.2418 -0.6526
  126OSM   C13S13392   1.122   6.649   3.980 -0.1916 -0.6964  0.3229
  126OSM   H13S13393   1.016   6.672   4.006  0.1660  1.3595  0.1403
  126OSM   H13T13394   1.174   6.740   4.016 -1.7119 -1.3577  4.9278
  126OSM   C14S13395   1.180   6.535   4.060 -0.0222 -0.1707  0.5469
  126OSM   H14S13396   1.288   6.515   4.041 -0.2376 -1.4744  0.5552
  126OSM   H14T13397   1.138   6.445   4.010  2.3508 -0.1962 -1.5678
  126OSM   C15S13398   1.141   6.535   4.212 -0.6789 -0.3895  0.8635
  126OSM   H15S13399   1.034   6.564   4.204 -0.5177 -0.0327 -0.2479
  126OSM   H15T13400   1.198   6.615   4.262  2.6488 -2.1027  0.1237
  126OSM   C16S13401   1.150   6.404   4.280  0.2228 -0.1661  0.3609
  126OSM   H16S13402   1.258   6.378   4.284  0.6726  1.5903  0.4839
  126OSM   H16T13403   1.086   6.332   4.225  0.6445 -1.8922  2.0083
  126OSM   C17S13404   1.099   6.398   4.425  0.4519  0.4883 -0.0635
  126OSM   H17S13405   1.136   6.489   4.477  1.8378 -0.5643  0.8483
  126OSM   H17T13406   1.138   6.304   4.469 -2.3135 -1.9080 -2.2887
  126OSM   C18S13407   0.946   6.404   4.447 -0.1788  0.3540  0.2959
  126OSM   H18S13408   0.912   6.388   4.552 -3.6639 -0.0537 -0.7664
  126OSM   H18T13409   0.896   6.325   4.387  0.7714  1.0540 -1.4589
  126OSM   H18U13410   0.908   6.504   4.417 -0.9558  0.8835  2.7811
  126OSM    C1F13411   0.571   6.689   3.073  0.1556 -0.4796 -0.3557
  126OSM     OF13412   0.536   6.612   2.983 -0.3365 -0.3971 -0.4861
  126OSM    C2F13413   0.502   6.712   3.205 -0.4496  0.3577  0.0112
  126OSM    H2F13414   0.487   6.822   3.216  0.4252  0.5744 -0.7918
  126OSM    H2G13415   0.581   6.683   3.278  0.9818 -0.7787 -1.8990
  126OSM    C3F13416   0.367   6.645   3.210  0.2216 -0.8298 -0.4310
  126OSM    H3F13417   0.359   6.536   3.195  0.8832 -1.1056  1.0366
  126OSM    H3G13418   0.310   6.699   3.132 -0.2084  1.0825  1.1046
  126OSM    C4F13419   0.288   6.677   3.342  0.2984 -0.5789  0.0830
  126OSM    H4F13420   0.178   6.664   3.335  0.2328 -0.9601  1.4400
  126OSM    H4G13421   0.302   6.783   3.373  1.9656  0.4157 -3.6277
  126OSM    C5F13422   0.342   6.602   3.468 -0.3235  0.6465  0.0582
  126OSM    H5F13423   0.452   6.610   3.474 -0.4922  3.5028  0.7225
  126OSM    H5G13424   0.315   6.494   3.462  1.7039  0.2093 -3.0888
  126OSM    C6F13425   0.287   6.667   3.600  0.6604  0.4800 -0.7941
  126OSM    H6F13426   0.305   6.777   3.594  0.1048  0.6118 -0.1080
  126OSM    H6G13427   0.356   6.624   3.675 -0.5118 -2.5914 -1.3527
  126OSM    C7F13428   0.142   6.633   3.629 -0.3913  0.5034 -0.0410
  126OSM    H7F13429   0.132   6.531   3.586  1.4426 -0.1906  1.0531
  126OSM    H7G13430   0.082   6.698   3.562  2.2752  0.1693 -2.9875
  126OSM    C8F13431   0.102   6.630   3.780  0.4778 -0.7857 -0.5035
  126OSM    H8F13432   0.184   6.573   3.828 -0.3089 -0.8482  0.8123
  126OSM    H8G13433   0.011   6.566   3.792  0.6037 -0.6372  1.5716
  126OSM    C9F13434   0.075   6.773   3.834 -0.0811 -0.0154  0.0553
  126OSM    H9F13435   0.025   6.844   3.767 -0.1506  1.6790  1.8297
  126OSM   C10F13436   0.098   6.816   3.963 -0.1980 -0.3744  0.3639
  126OSM   H10F13437   0.059   6.914   3.996  1.0451  0.2476  0.0331
  126OSM   C11F13438   0.153   6.737   4.075 -0.4005  0.1593 -0.1229
  126OSM   H11F13439   0.224   6.805   4.127  0.8732 -1.5788  0.4843
  126OSM   H11G13440   0.223   6.656   4.045  1.2049  1.6300 -0.4733
  126OSM   C12F13441   0.053   6.667   4.168 -0.0616  0.3068 -0.0653
  126OSM   H12F13442   0.091   6.595   4.243  1.3944 -0.5782 -1.5821
  126OSM   H12G13443  -0.008   6.609   4.095  2.3008 -1.2625 -0.9198
  126OSM   C13F13444  -0.017   6.777   4.248 -0.0491 -0.2235 -1.3629
  126OSM   H13F13445  -0.064   6.843   4.171  2.0054  0.0869 -2.4239
  126OSM   H13G13446   0.059   6.837   4.302 -0.7963 -0.7798  0.3426
  126OSM   C14F13447  -0.123   6.727   4.355  0.1174 -0.3801 -0.1398
  126OSM   H14F13448  -0.168   6.818   4.402  2.6631  1.9427 -1.9073
  126OSM   H14G13449  -0.076   6.681   4.445  2.7008  3.6579  0.8364
  126OSM   C15F13450  -0.225   6.630   4.295 -0.2053  0.1387  0.2953
  126OSM   H15F13451  -0.167   6.554   4.238  0.1723  1.8132 -1.6984
  126OSM   H15G13452  -0.303   6.666   4.224 -1.8728 -2.6315  0.5950
  126OSM   C16F13453  -0.303   6.557   4.407  0.5264  0.0760  0.8775
  126OSM   H16F13454  -0.232   6.547   4.491  2.9851  2.1637 -0.7792
  126OSM   H16G13455  -0.340   6.461   4.366 -0.2951  1.3885 -1.6890
  126OSM   C17F13456  -0.420   6.636   4.450 -1.2728  0.0561 -0.1822
  126OSM   H17F13457  -0.392   6.743   4.466 -3.3791  0.5261  0.7762
  126OSM   H17G13458  -0.451   6.604   4.551 -0.3086  0.6548  0.3119
  126OSM   C18F13459  -0.545   6.612   4.358  0.3958  0.0080  0.1809
  126OSM   H18F13460  -0.532   6.663   4.261 -1.4336  0.1776 -0.0044
  126OSM   H18G13461  -0.633   6.660   4.405 -0.6550 -1.9665  0.3185
  126OSM   H18H13462  -0.555   6.506   4.328  3.4963 -0.4459  0.4198
  127OSM      N13463   0.463   2.221   2.214  0.0322 -0.9644 -0.4582
  127OSM    C1513464   0.502   2.298   2.333 -0.3966  0.0872  0.4742
  127OSM   H15A13465   0.599   2.345   2.324 -0.2576 -0.1787  0.5951
  127OSM   H15B13466   0.502   2.242   2.425 -0.4463 -1.7787 -0.6120
  127OSM   H15C13467   0.432   2.381   2.336  1.3798  1.6377  1.3010
  127OSM    C1413468   0.452   2.324   2.102  0.2294 -0.0024 -0.5921
  127OSM   H14A13469   0.378   2.397   2.132 -0.5228 -1.0586  0.1745
  127OSM   H14B13470   0.420   2.276   2.011 -1.3117 -0.8986  0.3874
  127OSM   H14C13471   0.547   2.364   2.070  0.1066 -0.1527 -1.1390
  127OSM    C1313472   0.571   2.120   2.191  0.0456 -0.2645 -1.1519
  127OSM   H13A13473   0.554   2.052   2.109  1.4779 -0.7729 -1.0497
  127OSM   H13B13474   0.567   2.061   2.282 -0.5981  1.9587  0.3613
  127OSM   H13C13475   0.667   2.167   2.190  1.1968 -2.1817  1.9364
  127OSM    C1213476   0.326   2.149   2.238 -0.0525 -0.5430 -0.0244
  127OSM   H12A13477   0.329   2.062   2.301  1.5668 -1.0757 -0.7818
  127OSM   H12B13478   0.287   2.104   2.148  0.7936 -1.2276 -0.0598
  127OSM    C1113479   0.206   2.237   2.295 -0.1282  0.7410  0.0428
  127OSM   H11A13480   0.253   2.275   2.389 -3.1867 -0.6760  2.3124
  127OSM   H11B13481   0.129   2.160   2.319  1.0681 -0.9386 -1.2685
  127OSM      P13482   0.165   2.486   2.251  0.6247 -0.1583  0.0104
  127OSM    O1313483   0.298   2.546   2.241 -0.0452  1.0519  0.0815
  127OSM    O1413484   0.046   2.543   2.184 -0.4046 -0.4252  0.0456
  127OSM    O1113485   0.137   2.470   2.402 -0.2605 -0.0559 -0.1643
  127OSM    O1213486   0.170   2.338   2.202  0.5467 -0.4267  0.4100
  127OSM    C1S13487   0.017   2.416   2.453  0.1926  0.0178  0.3354
  127OSM    H1S13488  -0.013   2.326   2.394 -0.6938  1.5415 -1.6604
  127OSM    H1T13489  -0.073   2.479   2.436  0.7823  0.6374 -0.5506
  127OSM     NF13490  -0.109   2.306   2.649  0.1634 -0.5514 -0.3406
  127OSM    HNF13491  -0.187   2.367   2.665 -0.8347 -1.5681 -1.1676
  127OSM    C2S13492   0.019   2.382   2.605 -0.1907  0.6234  0.3708
  127OSM    H2S13493   0.108   2.323   2.633  0.7174  2.7125  2.1393
  127OSM    C3S13494   0.033   2.517   2.680 -0.2989 -0.2409 -0.0348
  127OSM    H3S13495  -0.053   2.586   2.672 -0.3068  0.0638  2.0406
  127OSM     O313496   0.135   2.599   2.634 -0.1656 -0.6699  0.1106
  127OSM    HO313497   0.152   2.566   2.546  0.2897  1.3084 -0.6000
  127OSM    C4S13498   0.060   2.502   2.831  0.2439  0.6063 -0.0721
  127OSM    H4S13499   0.155   2.449   2.849 -0.9262 -1.6772 -0.2881
  127OSM    C5S13500  -0.024   2.535   2.931  0.6405 -0.5550 -0.5619
  127OSM    H5S13501  -0.114   2.590   2.900 -0.7963 -2.0229  0.8535
  127OSM    C6S13502  -0.015   2.512   3.077 -0.2226 -0.1803  0.6688
  127OSM    H6S13503   0.031   2.601   3.124  0.3970  1.1033 -2.1999
  127OSM    H6T13504   0.052   2.427   3.104 -0.6265 -0.8540 -0.3533
  127OSM    C7S13505  -0.146   2.496   3.142  0.5299  0.0671 -0.0933
  127OSM    H7S13506  -0.211   2.445   3.067  0.9857  1.1796 -1.3031
  127OSM    H7T13507  -0.193   2.595   3.161 -1.6304 -1.1108  1.0314
  127OSM    C8S13508  -0.152   2.414   3.272 -0.4831 -0.0818  0.1707
  127OSM    H8S13509  -0.115   2.314   3.244  0.4754  0.5983 -1.1139
  127OSM    H8T13510  -0.259   2.412   3.303 -0.8265  1.9554 -0.7176
  127OSM    C9S13511  -0.066   2.470   3.388 -0.1824 -0.7255  0.0947
  127OSM    H9S13512  -0.114   2.563   3.425  1.3238  0.1383 -0.0059
  127OSM    H9T13513   0.036   2.496   3.353 -0.9677  1.3569 -0.8180
  127OSM   C10S13514  -0.038   2.371   3.503  0.4096 -0.6580 -0.5891
  127OSM   H10S13515   0.042   2.426   3.557 -0.4620 -0.1944  0.2663
  127OSM   H10T13516   0.001   2.272   3.471  1.1274 -1.0516  1.3692
  127OSM   C11S13517  -0.158   2.368   3.604 -0.1315  0.0711  0.9376
  127OSM   H11S13518  -0.224   2.291   3.560  1.0041 -2.0841  2.7879
  127OSM   H11T13519  -0.207   2.468   3.607 -0.6900 -0.1759  0.1331
  127OSM   C12S13520  -0.106   2.328   3.743  0.7614 -0.2836 -0.3739
  127OSM   H12S13521  -0.027   2.401   3.770 -0.1922  0.9478 -0.8479
  127OSM   H12T13522  -0.056   2.229   3.751  0.7400 -0.3342 -0.8514
  127OSM   C13S13523  -0.224   2.322   3.844 -0.3110 -0.6594 -0.3207
  127OSM   H13S13524  -0.289   2.234   3.823  0.6605 -1.4049 -0.2527
  127OSM   H13T13525  -0.300   2.400   3.820 -0.2734  0.1840  2.0116
  127OSM   C14S13526  -0.181   2.360   3.990  0.4435  0.4949  0.4656
  127OSM   H14S13527  -0.277   2.382   4.043  0.2427 -0.2062  0.3956
  127OSM   H14T13528  -0.131   2.460   3.995  0.7190  0.3055  1.8154
  127OSM   C15S13529  -0.115   2.243   4.062 -0.6118  0.2359 -0.1656
  127OSM   H15S13530  -0.005   2.242   4.046 -0.5520 -1.4425  0.1831
  127OSM   H15T13531  -0.158   2.145   4.034  0.6689 -0.7504  1.2032
  127OSM   C16S13532  -0.145   2.258   4.208  0.0701 -0.5997  0.0030
  127OSM   H16S13533  -0.254   2.253   4.227 -0.1968 -1.4775 -1.6150
  127OSM   H16T13534  -0.102   2.356   4.240  0.9658 -1.0469  0.1966
  127OSM   C17S13535  -0.081   2.143   4.291 -0.1515 -0.1614  0.3783
  127OSM   H17S13536   0.025   2.129   4.262 -0.0527 -0.3537  0.8213
  127OSM   H17T13537  -0.136   2.048   4.273  1.1691 -0.9506  0.4096
  127OSM   C18S13538  -0.076   2.158   4.443  0.4609  0.4476  0.6484
  127OSM   H18S13539  -0.180   2.155   4.483  0.2303 -2.3993  0.0540
  127OSM   H18T13540  -0.033   2.258   4.464  0.9036  0.4822 -0.3557
  127OSM   H18U13541  -0.011   2.087   4.498 -0.3718  0.4602  1.6754
  127OSM    C1F13542  -0.123   2.183   2.601 -0.7279 -0.1587 -0.6513
  127OSM     OF13543  -0.032   2.126   2.538  0.0481 -0.4389  0.2218
  127OSM    C2F13544  -0.261   2.130   2.611  0.0404  0.2309  0.0971
  127OSM    H2F13545  -0.298   2.094   2.512 -0.7041  1.3085 -0.0458
  127OSM    H2G13546  -0.327   2.212   2.647 -1.7132 -1.1892  0.2778
  127OSM    C3F13547  -0.275   2.008   2.708  0.1630 -0.4304 -1.0143
  127OSM    H3F13548  -0.228   1.923   2.653  1.9369 -1.2535  1.5504
  127OSM    H3G13549  -0.382   1.991   2.733  0.5723  0.4675  1.7396
  127OSM    C4F13550  -0.221   2.036   2.851  0.1270  0.0467  0.1815
  127OSM    H4F13551  -0.264   2.131   2.890 -1.5719 -0.4380 -0.4239
  127OSM    H4G13552  -0.110   2.044   2.853  0.1962  0.3644 -2.0847
  127OSM    C5F13553  -0.251   1.921   2.943 -0.0373 -0.0399  0.1515
  127OSM    H5F13554  -0.185   1.833   2.930  1.2657  0.7387  1.2324
  127OSM    H5G13555  -0.359   1.896   2.929 -0.2662  0.7904  0.4129
  127OSM    C6F13556  -0.216   1.962   3.093  0.2715  0.6428  0.0502
  127OSM    H6F13557  -0.272   2.056   3.115  0.0322  0.7376 -0.8945
  127OSM    H6G13558  -0.107   1.978   3.104  0.0883  1.0863  1.4347
  127OSM    C7F13559  -0.259   1.855   3.188 -0.6283 -0.8540  0.1175
  127OSM    H7F13560  -0.198   1.768   3.157 -0.8516  0.2142 -3.7806
  127OSM    H7G13561  -0.365   1.824   3.170 -0.7500 -0.6618  0.4932
  127OSM    C8F13562  -0.248   1.913   3.332  0.0049  0.5800  0.7358
  127OSM    H8F13563  -0.312   1.845   3.393 -3.1269  0.9762 -1.8463
  127OSM    H8G13564  -0.293   2.013   3.346 -1.0192  0.3017 -0.3856
  127OSM    C9F13565  -0.110   1.905   3.385 -0.7982 -0.5563  0.1171
  127OSM    H9F13566  -0.024   1.902   3.316  2.0921 -2.4353  3.4438
  127OSM   C10F13567  -0.085   1.914   3.514 -0.7958 -0.0288 -0.3037
  127OSM   H10F13568   0.019   1.938   3.539  0.0210 -0.7693 -2.7181
  127OSM   C11F13569  -0.183   1.922   3.628  0.0561 -0.2766  0.2572
  127OSM   H11F13570  -0.285   1.889   3.599  0.2827 -1.8844  1.2069
  127OSM   H11G13571  -0.185   2.030   3.655 -0.6922  0.3749 -2.0989
  127OSM   C12F13572  -0.141   1.846   3.756 -0.0840 -0.1761  0.4970
  127OSM   H12F13573  -0.031   1.851   3.769  0.1152  1.7058 -1.3526
  127OSM   H12G13574  -0.167   1.739   3.748 -0.2828 -0.0894 -0.0415
  127OSM   C13F13575  -0.214   1.905   3.873  0.0751 -0.9769 -0.2641
  127OSM   H13F13576  -0.323   1.914   3.849  0.5657  2.9827 -1.7645
  127OSM   H13G13577  -0.183   2.011   3.887 -1.0492 -1.0932  6.4682
  127OSM   C14F13578  -0.206   1.838   4.010 -0.0889 -0.2366 -0.8582
  127OSM   H14F13579  -0.232   1.905   4.095  1.1659  0.5329 -1.0528
  127OSM   H14G13580  -0.098   1.813   4.024  0.0824  0.7994 -0.1850
  127OSM   C15F13581  -0.287   1.705   4.003 -0.0074 -0.1861  0.4500
  127OSM   H15F13582  -0.258   1.651   3.911 -0.5616  0.6599 -0.2315
  127OSM   H15G13583  -0.398   1.708   3.998 -0.1126 -2.2680  0.4709
  127OSM   C16F13584  -0.246   1.615   4.122  0.7173 -0.0369 -0.3357
  127OSM   H16F13585  -0.136   1.605   4.129  0.7588  0.1008 -0.7880
  127OSM   H16G13586  -0.275   1.508   4.108 -1.3091  0.4847 -0.4341
  127OSM   C17F13587  -0.297   1.666   4.261  0.6272  0.4418  0.4919
  127OSM   H17F13588  -0.407   1.668   4.244  0.6385  1.5793  0.4986
  127OSM   H17G13589  -0.254   1.768   4.264 -0.2849  0.8757 -0.5021
  127OSM   C18F13590  -0.242   1.565   4.366 -0.6138 -1.1215  0.8305
  127OSM   H18F13591  -0.132   1.551   4.363 -0.5673 -0.7653 -1.8500
  127OSM   H18G13592  -0.281   1.461   4.360  0.9329 -1.9584  3.6465
  127OSM   H18H13593  -0.266   1.604   4.467  1.7184  1.1758  0.5853
  128OSM      N13594   0.660   0.900   2.284  1.0039  0.1062 -0.5171
  128OSM    C1513595   0.593   0.776   2.246 -0.1180  0.6046 -0.3113
  128OSM   H15A13596   0.498   0.769   2.298  0.3253  1.4685  0.6362
  128OSM   H15B13597   0.650   0.685   2.260  0.0155  0.7501  0.0781
  128OSM   H15C13598   0.567   0.777   2.141  1.8106  0.5791 -0.8157
  128OSM    C1413599   0.713   0.891   2.420 -0.3726  0.3076  0.1937
  128OSM   H14A13600   0.796   0.960   2.423  0.1228 -0.2559 -0.3322
  128OSM   H14B13601   0.750   0.793   2.444  0.3537  0.4235 -0.4230
  128OSM   H14C13602   0.642   0.917   2.497  0.8109 -1.0415  1.8070
  128OSM    C1313603   0.764   0.934   2.176 -0.3741 -0.4298 -0.4087
  128OSM   H13A13604   0.713   0.958   2.084 -0.1509  0.4299 -0.3082
  128OSM   H13B13605   0.822   0.845   2.154  0.6757 -0.1068  1.0038
  128OSM   H13C13606   0.824   1.021   2.196 -2.4236  1.7776 -2.9837
  128OSM    C1213607   0.563   1.016   2.284 -0.4920  0.2831 -0.2267
  128OSM   H12A13608   0.533   1.021   2.180  0.1282 -1.0960 -0.4922
  128OSM   H12B13609   0.613   1.110   2.305 -0.1401  0.0097  0.1566
  128OSM    C1113610   0.436   1.006   2.372  0.1001 -0.4275  0.4006
  128OSM   H11A13611   0.470   1.000   2.478 -0.3471 -2.6124  0.4701
  128OSM   H11B13612   0.366   0.924   2.345 -0.6696  0.7361 -1.2786
  128OSM      P13613   0.401   1.255   2.436 -0.0937  0.4096 -0.6759
  128OSM    O1313614   0.547   1.279   2.435  0.1722 -0.0457 -0.2898
  128OSM    O1413615   0.315   1.369   2.391 -0.0095 -0.2453  0.3542
  128OSM    O1113616   0.367   1.211   2.578  0.0705 -0.3471  0.2336
  128OSM    O1213617   0.367   1.127   2.352 -0.2749  0.0864 -0.0170
  128OSM    C1S13618   0.238   1.157   2.599 -0.6401  0.3976  0.3602
  128OSM    H1S13619   0.223   1.056   2.556  1.6482  1.2663 -2.9001
  128OSM    H1T13620   0.163   1.226   2.554 -0.1253  0.6592 -0.1154
  128OSM     NF13621   0.071   1.082   2.781  0.4760 -0.8446  0.4841
  128OSM    HNF13622  -0.013   1.130   2.804  0.8298  0.4353 -0.7291
  128OSM    C2S13623   0.198   1.154   2.754 -0.1911  0.2636  0.1908
  128OSM    H2S13624   0.278   1.095   2.804 -1.2234  1.3338  3.3424
  128OSM    C3S13625   0.213   1.297   2.819  0.5489 -1.2242 -0.2749
  128OSM    H3S13626   0.140   1.369   2.778  2.2113  0.7730  0.1223
  128OSM     O313627   0.344   1.351   2.808  0.4624 -0.6747  0.1127
  128OSM    HO313628   0.400   1.291   2.758  0.8591 -1.0365  0.9703
  128OSM    C4S13629   0.191   1.275   2.966  0.0744 -0.0610 -0.4697
  128OSM    H4S13630   0.257   1.202   3.014 -0.3983  0.4629  1.0327
  128OSM    C5S13631   0.106   1.338   3.044 -0.1464 -0.6650  0.3751
  128OSM    H5S13632   0.051   1.422   3.000 -0.3489 -1.0713 -0.1509
  128OSM    C6S13633   0.091   1.314   3.189  0.0301  0.2602 -0.0385
  128OSM    H6S13634  -0.016   1.292   3.213 -0.1862 -0.2784 -1.4030
  128OSM    H6T13635   0.130   1.397   3.251  3.5800 -1.0020 -0.3886
  128OSM    C7S13636   0.174   1.198   3.251  0.2954 -0.0665  0.2777
  128OSM    H7S13637   0.282   1.209   3.227 -0.0801  1.0102 -1.0907
  128OSM    H7T13638   0.145   1.096   3.221  1.8352  0.0988 -2.0682
  128OSM    C8S13639   0.171   1.213   3.406 -0.5375 -0.0080  0.1710
  128OSM    H8S13640   0.069   1.217   3.450  0.0594 -0.6781  1.6670
  128OSM    H8T13641   0.208   1.316   3.426 -0.5944  0.3169 -1.3051
  128OSM    C9S13642   0.258   1.111   3.482  0.2879  0.2451 -0.3493
  128OSM    H9S13643   0.358   1.103   3.433  0.2873 -0.1353 -0.2864
  128OSM    H9T13644   0.207   1.013   3.492 -2.7203  1.6170 -1.2228
  128OSM   C10S13645   0.268   1.160   3.630  0.6207  0.0652 -0.4203
  128OSM   H10S13646   0.163   1.163   3.668  0.3770  0.8435 -1.1164
  128OSM   H10T13647   0.319   1.258   3.637  0.9471 -0.0476 -1.1845
  128OSM   C11S13648   0.350   1.062   3.717 -0.2363  0.0028 -0.1406
  128OSM   H11S13649   0.437   1.028   3.656  1.6259  0.4682  2.0910
  128OSM   H11T13650   0.290   0.968   3.716 -0.8047  0.3674 -0.8777
  128OSM   C12S13651   0.413   1.096   3.849 -0.4585 -0.3530 -0.4081
  128OSM   H12S13652   0.331   1.141   3.907  0.2861  1.0899 -0.4449
  128OSM   H12T13653   0.490   1.174   3.834  0.0896 -0.4781  1.5484
  128OSM   C13S13654   0.479   0.973   3.920  0.0118  1.2072  0.1655
  128OSM   H13S13655   0.509   1.010   4.020 -1.9584 -3.1078  2.6184
  128OSM   H13T13656   0.570   0.946   3.862 -0.1603  0.1913  0.3582
  128OSM   C14S13657   0.379   0.856   3.950  0.2469 -0.1185 -0.1074
  128OSM   H14S13658   0.342   0.821   3.851 -1.8020 -0.9247  0.8720
  128OSM   H14T13659   0.288   0.884   4.008 -0.9648 -0.3526 -1.8157
  128OSM   C15S13660   0.441   0.740   4.028  0.2266  0.0493  0.0727
  128OSM   H15S13661   0.524   0.692   3.972  2.2473  2.1899  1.0852
  128OSM   H15T13662   0.368   0.657   4.040  0.7093 -0.3324  0.4155
  128OSM   C16S13663   0.505   0.780   4.167 -0.0442 -0.1460 -0.1168
  128OSM   H16S13664   0.437   0.838   4.233  0.2108  0.3502 -0.2860
  128OSM   H16T13665   0.578   0.862   4.148 -0.8695  1.0521  1.5529
  128OSM   C17S13666   0.577   0.665   4.234 -0.2873 -0.1645  0.1669
  128OSM   H17S13667   0.646   0.698   4.314  0.0638  1.6761 -0.8202
  128OSM   H17T13668   0.636   0.622   4.150  0.5446 -0.5298  0.9189
  128OSM   C18S13669   0.479   0.561   4.289  0.0619 -0.6709  0.4328
  128OSM   H18S13670   0.536   0.487   4.349 -0.3241 -2.5643 -1.4417
  128OSM   H18T13671   0.429   0.503   4.209 -1.1623 -0.2764  0.8911
  128OSM   H18U13672   0.404   0.603   4.360  1.1094  1.7072  0.2080
  128OSM    C1F13673   0.067   0.949   2.769 -0.3136 -0.3614  0.4434
  128OSM     OF13674   0.160   0.884   2.724 -0.1571  0.2673 -0.1945
  128OSM    C2F13675  -0.054   0.871   2.813 -0.2992  0.6448  0.0918
  128OSM    H2F13676  -0.147   0.917   2.775  0.3001 -0.3020 -2.7605
  128OSM    H2G13677  -0.048   0.872   2.924  0.9351 -2.3861  0.1698
  128OSM    C3F13678  -0.060   0.722   2.759 -0.5695  0.0388  0.0497
  128OSM    H3F13679   0.040   0.677   2.777 -0.7488  0.0532  1.1942
  128OSM    H3G13680  -0.075   0.736   2.650  1.2982 -3.1511 -0.7564
  128OSM    C4F13681  -0.189   0.648   2.816 -0.2135 -0.0204  0.0416
  128OSM    H4F13682  -0.184   0.553   2.758  0.0140 -1.3584  2.1345
  128OSM    H4G13683  -0.273   0.709   2.776  0.0737  0.0556 -0.4568
  128OSM    C5F13684  -0.191   0.610   2.962 -0.1094 -0.5381  0.4084
  128OSM    H5F13685  -0.207   0.708   3.013  1.8866  0.1999 -0.2864
  128OSM    H5G13686  -0.088   0.576   2.986  0.1252 -0.5661 -0.6284
  128OSM    C6F13687  -0.296   0.504   3.000  1.3144  0.2857  0.0536
  128OSM    H6F13688  -0.392   0.530   2.950  1.0993  0.6985  0.6669
  128OSM    H6G13689  -0.313   0.499   3.110 -1.7679 -0.2816 -0.3582
  128OSM    C7F13690  -0.249   0.365   2.969 -0.8376 -0.1229  0.2144
  128OSM    H7F13691  -0.161   0.349   3.034 -1.1705 -2.0419  0.2384
  128OSM    H7G13692  -0.216   0.353   2.863 -0.9709  0.0946  0.1468
  128OSM    C8F13693  -0.359   0.255   2.987  0.9450 -0.6093  0.1872
  128OSM    H8F13694  -0.450   0.283   2.929  0.0935  0.2155  1.8465
  128OSM    H8G13695  -0.398   0.279   3.088 -0.8184  3.6683 -1.2666
  128OSM    C9F13696  -0.323   0.111   2.974 -0.6654 -0.9301  0.3783
  128OSM    H9F13697  -0.368   0.052   2.893 -1.6226 -0.7850  0.7900
  128OSM   C10F13698  -0.256   0.038   3.068 -0.5292  0.1311  0.1426
  128OSM   H10F13699  -0.246  -0.071   3.063 -1.3317 -0.0166  1.3558
  128OSM   C11F13700  -0.200   0.092   3.199 -0.1237  0.0081  0.4972
  128OSM   H11F13701  -0.220   0.201   3.207 -0.9899 -0.1018 -0.0183
  128OSM   H11G13702  -0.090   0.073   3.200  0.1095  1.0926 -0.8157
  128OSM   C12F13703  -0.266   0.021   3.318  0.6553 -0.2427  0.1355
  128OSM   H12F13704  -0.286  -0.088   3.313  0.2035 -0.3685  2.8813
  128OSM   H12G13705  -0.368   0.065   3.312  0.8660  0.3665  0.8631
  128OSM   C13F13706  -0.199   0.042   3.456  0.5684  0.7971  0.2650
  128OSM   H13F13707  -0.131   0.130   3.456  2.5361 -0.6293 -1.7203
  128OSM   H13G13708  -0.136  -0.046   3.481  0.8242  0.7654 -0.4792
  128OSM   C14F13709  -0.307   0.058   3.574  0.0921 -0.2402  0.0347
  128OSM   H14F13710  -0.395   0.110   3.531 -0.7265 -1.3374  0.3348
  128OSM   H14G13711  -0.259   0.122   3.651 -0.6941  2.0077 -1.2593
  128OSM   C15F13712  -0.349  -0.078   3.624 -0.8336  0.0124 -0.0855
  128OSM   H15F13713  -0.250  -0.121   3.650 -1.1221 -0.0741  0.8745
  128OSM   H15G13714  -0.402  -0.132   3.543 -2.2372  1.3334 -0.0982
  128OSM   C16F13715  -0.433  -0.079   3.751 -0.6520  0.3355  0.0050
  128OSM   H16F13716  -0.435  -0.186   3.781  1.8924  0.2955  0.1942
  128OSM   H16G13717  -0.534  -0.044   3.720 -2.1720 -3.1884  0.4499
  128OSM   C17F13718  -0.369  -0.006   3.868  0.2401 -0.4217  0.3892
  128OSM   H17F13719  -0.376   0.104   3.853  1.1160  0.4332  4.6642
  128OSM   H17G13720  -0.262  -0.035   3.875  0.4030 -1.2769 -3.4585
  128OSM   C18F13721  -0.436  -0.036   4.004 -0.4587 -0.4159  0.9728
  128OSM   H18F13722  -0.545  -0.012   4.010 -0.4039 -0.5383  3.4397
  128OSM   H18G13723  -0.404   0.035   4.083 -1.1969  0.7426  0.2650
  128OSM   H18H13724  -0.428  -0.139   4.044 -4.2611 -1.8149 -1.2735
  129OSM      N13725   1.676   5.496   2.353 -0.0095 -1.0299 -0.2145
  129OSM    C1513726   1.668   5.401   2.241  0.3546 -0.1135  0.4623
  129OSM   H15A13727   1.569   5.359   2.236  0.2688  0.2011 -0.7710
  129OSM   H15B13728   1.736   5.317   2.250 -0.5672 -1.6111 -3.9127
  129OSM   H15C13729   1.689   5.449   2.146 -1.8391  1.2801  0.6045
  129OSM    C1413730   1.823   5.509   2.383  0.7431  0.2764  0.0186
  129OSM   H14A13731   1.841   5.555   2.479  0.6197  0.9546 -0.2709
  129OSM   H14B13732   1.869   5.555   2.297 -0.2935  0.8258 -0.2605
  129OSM   H14C13733   1.869   5.412   2.390  0.0037 -0.2898 -2.3300
  129OSM    C1313734   1.609   5.623   2.308 -0.2371  0.1349  0.0884
  129OSM   H13A13735   1.663   5.693   2.245  0.3450  1.3059  1.8002
  129OSM   H13B13736   1.605   5.691   2.392  1.1971 -0.3421  0.5641
  129OSM   H13C13737   1.511   5.599   2.268  0.1609 -0.6514 -0.4198
  129OSM    C1213738   1.597   5.438   2.469  0.0456  0.2754  0.4803
  129OSM   H12A13739   1.646   5.344   2.491 -0.5167 -0.3067 -0.6768
  129OSM   H12B13740   1.502   5.397   2.440 -0.8833  0.8874  2.4363
  129OSM    C1113741   1.568   5.511   2.599 -0.8657 -0.3018  0.2827
  129OSM   H11A13742   1.660   5.567   2.626  0.9888 -2.9900 -0.0519
  129OSM   H11B13743   1.554   5.434   2.678  0.7635  0.5090  1.4177
  129OSM      P13744   1.307   5.554   2.582 -0.4755 -0.0553 -0.1193
  129OSM    O1313745   1.220   5.673   2.589 -0.1102  0.1974  0.6532
  129OSM    O1413746   1.295   5.469   2.465  0.3924 -0.0808  0.2559
  129OSM    O1113747   1.293   5.463   2.715 -0.1896 -0.3598  0.1905
  129OSM    O1213748   1.455   5.601   2.594  0.0605  0.5244 -0.1335
  129OSM    C1S13749   1.344   5.503   2.845 -0.1213 -0.0058 -0.5587
  129OSM    H1S13750   1.357   5.613   2.852  0.3305 -0.1103  0.4044
  129OSM    H1T13751   1.444   5.462   2.870 -1.1613 -2.0754  0.4259
  129OSM     NF13752   1.261   5.545   3.076  0.0672  0.8281  0.3656
  129OSM    HNF13753   1.316   5.516   3.154  0.7333  0.8141 -0.1062
  129OSM    C2S13754   1.251   5.457   2.964  0.0599 -0.7758 -0.5747
  129OSM    H2S13755   1.148   5.456   2.924 -0.1831 -1.9958  0.0151
  129OSM    C3S13756   1.288   5.312   2.996 -0.0196  0.1390  0.4971
  129OSM    H3S13757   1.387   5.307   3.046  1.2138  0.1257 -1.8246
  129OSM     O313758   1.308   5.233   2.882  0.1962  0.5313  0.2039
  129OSM    HO313759   1.296   5.297   2.812  0.7703 -0.7870 -1.1652
  129OSM    C4S13760   1.180   5.261   3.083 -0.1756 -0.4215  0.2653
  129OSM    H4S13761   1.184   5.292   3.188 -1.1658  0.9056 -0.0610
  129OSM    C5S13762   1.071   5.189   3.041  0.1481 -0.5638  0.0161
  129OSM    H5S13763   1.052   5.164   2.936  0.9605 -0.2307 -0.2166
  129OSM    C6S13764   0.959   5.133   3.122  0.2324  0.9019 -0.6163
  129OSM    H6S13765   0.973   5.023   3.133 -1.4828  0.6112 -1.0518
  129OSM    H6T13766   0.860   5.146   3.073 -0.1252  0.1478 -0.1119
  129OSM    C7S13767   0.942   5.184   3.274  0.5183  0.0208 -0.3811
  129OSM    H7S13768   0.937   5.295   3.266 -1.5362 -0.0428 -0.4773
  129OSM    H7T13769   1.022   5.137   3.335  0.2630 -1.1584 -0.9413
  129OSM    C8S13770   0.807   5.149   3.340  0.7563 -0.5799  0.1558
  129OSM    H8S13771   0.791   5.040   3.323 -2.5605  0.2118 -2.9101
  129OSM    H8T13772   0.730   5.204   3.283  0.2634 -1.7564 -0.3524
  129OSM    C9S13773   0.801   5.204   3.481 -0.1492  0.2010 -0.1938
  129OSM    H9S13774   0.816   5.314   3.488 -0.2127  0.2091 -0.1841
  129OSM    H9T13775   0.875   5.157   3.550  0.4856  1.5716  0.0966
  129OSM   C10S13776   0.662   5.190   3.546 -0.4035  0.8814 -0.3890
  129OSM   H10S13777   0.615   5.090   3.542  2.0041 -0.4128  1.2228
  129OSM   H10T13778   0.594   5.251   3.482  1.6841  1.6933 -1.9403
  129OSM   C11S13779   0.671   5.229   3.693 -0.1890  0.5067 -0.3185
  129OSM   H11S13780   0.688   5.337   3.714 -0.6045  0.1727  2.1001
  129OSM   H11T13781   0.765   5.193   3.741  1.3342  3.5582 -0.7250
  129OSM   C12S13782   0.548   5.179   3.779  0.4696  0.0263  0.3809
  129OSM   H12S13783   0.560   5.071   3.802  2.0122  0.6327  2.8212
  129OSM   H12T13784   0.447   5.195   3.736 -0.0389 -1.3803  0.9845
  129OSM   C13S13785   0.556   5.246   3.923 -0.6781  0.0175  0.1976
  129OSM   H13S13786   0.536   5.355   3.916  0.8473  0.5754  2.7932
  129OSM   H13T13787   0.655   5.223   3.968 -0.4498 -1.2300 -0.9102
  129OSM   C14S13788   0.454   5.197   4.018  1.1236 -0.0837 -0.2273
  129OSM   H14S13789   0.464   5.090   4.046  0.9205 -0.3254 -1.0501
  129OSM   H14T13790   0.356   5.205   3.965  0.4970  0.9134  1.0254
  129OSM   C15S13791   0.444   5.266   4.155  0.1443 -0.2273  0.1184
  129OSM   H15S13792   0.336   5.271   4.182 -0.2541  2.1691 -1.6402
  129OSM   H15T13793   0.490   5.365   4.136 -1.4037  0.3672 -0.7265
  129OSM   C16S13794   0.527   5.194   4.261  0.1583  0.2511 -0.5612
  129OSM   H16S13795   0.588   5.276   4.305 -0.3107 -0.7914  2.2652
  129OSM   H16T13796   0.591   5.116   4.216  0.8425  0.5150 -0.0709
  129OSM   C17S13797   0.446   5.114   4.370  0.5604 -0.0101 -0.3558
  129OSM   H17S13798   0.360   5.171   4.410  2.4821  1.6160  1.7572
  129OSM   H17T13799   0.520   5.105   4.453  0.4936 -2.6885 -0.4807
  129OSM   C18S13800   0.408   4.974   4.332  0.7862  0.1495  0.2357
  129OSM   H18S13801   0.363   4.927   4.422  1.2247  1.8029  1.3676
  129OSM   H18T13802   0.500   4.927   4.292 -0.0121 -0.1459 -1.3166
  129OSM   H18U13803   0.331   4.974   4.251 -0.4195 -0.3063  1.3399
  129OSM    C1F13804   1.213   5.670   3.063 -0.5637  0.5802 -0.0708
  129OSM     OF13805   1.163   5.716   2.964  1.0868  1.0820  0.2246
  129OSM    C2F13806   1.239   5.752   3.183  0.2290  0.6102 -0.1329
  129OSM    H2F13807   1.315   5.830   3.162  0.4112  0.1388 -1.2883
  129OSM    H2G13808   1.272   5.682   3.263 -1.2136 -0.8043 -0.7210
  129OSM    C3F13809   1.107   5.815   3.239 -0.0483  0.1964 -0.7127
  129OSM    H3F13810   1.039   5.733   3.272 -2.9877  2.1576 -1.5430
  129OSM    H3G13811   1.053   5.858   3.152  0.0409  0.7402 -0.4985
  129OSM    C4F13812   1.128   5.914   3.359  0.8897 -0.0293  0.2575
  129OSM    H4F13813   1.166   6.006   3.310  0.8320 -0.6344 -0.9572
  129OSM    H4G13814   1.205   5.871   3.426  1.1319 -0.8046 -0.5122
  129OSM    C5F13815   1.000   5.957   3.433  0.1693  0.2910 -0.3183
  129OSM    H5F13816   0.914   5.980   3.367 -0.7535  0.7265  0.9868
  129OSM    H5G13817   1.021   6.047   3.496  1.1147  0.1497 -0.4193
  129OSM    C6F13818   0.950   5.846   3.533 -0.4057 -0.2693 -0.4611
  129OSM    H6F13819   1.030   5.799   3.593 -1.4689 -0.3360  0.9617
  129OSM    H6G13820   0.907   5.762   3.475  0.4077  0.0118 -1.4867
  129OSM    C7F13821   0.839   5.906   3.623 -0.0240  0.1501 -0.4501
  129OSM    H7F13822   0.757   5.945   3.559 -0.3805 -1.0349 -0.7408
  129OSM    H7G13823   0.880   5.996   3.674 -2.0680 -0.2008  2.0305
  129OSM    C8F13824   0.771   5.817   3.726  0.2462  0.2229 -0.6160
  129OSM    H8F13825   0.762   5.714   3.687  0.4493 -0.1952  0.4231
  129OSM    H8G13826   0.673   5.860   3.758  0.4569 -0.0450  0.4217
  129OSM    C9F13827   0.863   5.807   3.848  0.4744 -0.3316  0.8386
  129OSM    H9F13828   0.949   5.739   3.838 -2.0563 -3.6685  0.2460
  129OSM   C10F13829   0.846   5.872   3.968 -0.1313  0.1250  1.0261
  129OSM   H10F13830   0.932   5.856   4.034  1.3516  1.8474 -0.3816
  129OSM   C11F13831   0.741   5.970   4.012  0.3890 -0.1731  0.2019
  129OSM   H11F13832   0.659   5.961   3.938  2.5046  1.7801 -2.5730
  129OSM   H11G13833   0.774   6.076   4.006  0.0528 -0.0240  0.8405
  129OSM   C12F13834   0.678   5.944   4.150  0.1695 -0.4253  0.2811
  129OSM   H12F13835   0.607   6.022   4.183  0.8466  0.8520 -1.1854
  129OSM   H12G13836   0.752   5.946   4.233 -0.9458  0.1010  1.2888
  129OSM   C13F13837   0.619   5.801   4.142  0.1294 -0.5526 -0.8120
  129OSM   H13F13838   0.702   5.728   4.137  0.0555 -0.7133  0.0321
  129OSM   H13G13839   0.565   5.788   4.046 -0.7805 -1.2737 -0.2258
  129OSM   C14F13840   0.529   5.770   4.261  0.2937 -0.1253  0.0183
  129OSM   H14F13841   0.438   5.835   4.264 -0.6631 -1.3834 -0.6169
  129OSM   H14G13842   0.589   5.786   4.352  0.4321  1.9916 -0.4044
  129OSM   C15F13843   0.476   5.628   4.257 -1.1395 -0.6063  0.1476
  129OSM   H15F13844   0.564   5.570   4.222 -1.4031  0.7548 -3.1193
  129OSM   H15G13845   0.405   5.614   4.173 -0.5322  0.6817 -0.6118
  129OSM   C16F13846   0.425   5.578   4.392  0.2989  0.1931 -0.3308
  129OSM   H16F13847   0.376   5.478   4.382  0.7560 -0.0290 -0.3824
  129OSM   H16G13848   0.360   5.657   4.435  1.2228  1.3455 -0.9970
  129OSM   C17F13849   0.540   5.551   4.487 -0.4057  0.3388 -0.6218
  129OSM   H17F13850   0.590   5.644   4.520 -1.3542  0.1137  1.6176
  129OSM   H17G13851   0.603   5.489   4.419  1.0629  0.1419  0.8483
  129OSM   C18F13852   0.507   5.480   4.614  0.6203  0.4850 -0.0861
  129OSM   H18F13853   0.429   5.404   4.588 -0.1562  1.5038 -0.8369
  129OSM   H18G13854   0.465   5.550   4.689  0.7830  1.3968 -0.8250
  129OSM   H18H13855   0.594   5.433   4.665  0.1148  0.6075  0.9125
  130OSM      N13856   2.535   2.345   1.870 -0.3194  0.4073  0.6568
  130OSM    C1513857   2.609   2.468   1.895 -0.5606 -0.2027  0.2336
  130OSM   H15A13858   2.714   2.446   1.900 -0.6648 -0.6382  0.6630
  130OSM   H15B13859   2.578   2.511   1.989  1.7922  0.6574  0.6739
  130OSM   H15C13860   2.591   2.539   1.815  1.7427 -1.7248 -1.7702
  130OSM    C1413861   2.550   2.290   1.733 -0.1212  0.6615  0.1317
  130OSM   H14A13862   2.649   2.254   1.707  0.0942  1.2289  0.1546
  130OSM   H14B13863   2.528   2.368   1.662 -0.0954  0.7327  0.2016
  130OSM   H14C13864   2.487   2.204   1.714  1.4369 -0.8090  1.2686
  130OSM    C1313865   2.585   2.239   1.964 -0.0396 -0.2509 -0.2072
  130OSM   H13A13866   2.536   2.146   1.941 -0.6290  0.2664 -1.1496
  130OSM   H13B13867   2.586   2.259   2.070  0.9944 -2.9004  0.3552
  130OSM   H13C13868   2.690   2.236   1.940 -0.1405  0.4750 -0.7820
  130OSM    C1213869   2.387   2.374   1.895  0.2266  0.1085 -0.1340
  130OSM   H12A13870   2.320   2.291   1.880  1.0321 -0.2632 -1.9297
  130OSM   H12B13871   2.356   2.450   1.825 -0.8029  0.6202  0.8468
  130OSM    C1113872   2.342   2.430   2.037  0.4733 -0.2510  0.2001
  130OSM   H11A13873   2.371   2.359   2.117 -0.7927 -2.8542 -1.5144
  130OSM   H11B13874   2.232   2.431   2.051  0.5403 -0.9878  0.9045
  130OSM      P13875   2.333   2.699   2.031  0.0410 -0.1687  0.1247
  130OSM    O1313876   2.420   2.800   2.090 -0.3319  0.2861  0.5282
  130OSM    O1413877   2.320   2.699   1.885  0.4665  0.1023 -0.3948
  130OSM    O1113878   2.189   2.700   2.092  0.2057 -0.3239 -0.4274
  130OSM    O1213879   2.396   2.554   2.070  0.3207  0.0416 -0.3214
  130OSM    C1S13880   2.162   2.650   2.226 -0.5755  0.0114  0.2406
  130OSM    H1S13881   2.251   2.594   2.262 -1.1311 -0.1684  1.3811
  130OSM    H1T13882   2.075   2.581   2.222 -2.1074  1.8362  0.7318
  130OSM     NF13883   2.100   2.702   2.466 -0.5293 -0.3874  0.1046
  130OSM    HNF13884   2.002   2.718   2.478 -0.3914  0.2706  0.3820
  130OSM    C2S13885   2.130   2.751   2.335  0.5685 -0.4880  0.4338
  130OSM    H2S13886   2.218   2.810   2.367  1.3878 -2.1462  1.3755
  130OSM    C3S13887   2.021   2.843   2.272 -0.2390 -0.3348 -0.0648
  130OSM    H3S13888   1.935   2.787   2.227  0.8789 -1.1803 -1.2314
  130OSM     O313889   2.082   2.924   2.176 -0.1956 -0.2136  0.9052
  130OSM    HO313890   2.149   2.868   2.138 -0.5210 -0.1759  0.2502
  130OSM    C4S13891   1.978   2.947   2.380 -0.2705 -0.2125  0.2098
  130OSM    H4S13892   2.057   3.022   2.393  0.7674 -1.2212 -0.0936
  130OSM    C5S13893   1.871   2.945   2.465 -0.0868  1.2180  0.2162
  130OSM    H5S13894   1.808   2.855   2.475  0.8271  0.7753  2.7134
  130OSM    C6S13895   1.830   3.055   2.565  0.3632  0.2580  0.6723
  130OSM    H6S13896   1.729   3.031   2.604  0.4278 -1.2592 -0.0418
  130OSM    H6T13897   1.832   3.159   2.525 -2.9487  0.1757  0.0255
  130OSM    C7S13898   1.932   3.052   2.680 -0.0296  0.3309 -0.7372
  130OSM    H7S13899   2.034   3.068   2.638 -0.3583  0.0705 -1.6636
  130OSM    H7T13900   1.931   2.950   2.725 -2.1078 -0.8645 -3.2411
  130OSM    C8S13901   1.900   3.142   2.799  0.5710 -0.2446 -0.4845
  130OSM    H8S13902   1.802   3.115   2.844 -0.2047  1.9431 -0.7496
  130OSM    H8T13903   1.902   3.243   2.755 -0.9494 -0.9335 -2.2764
  130OSM    C9S13904   2.009   3.141   2.917  0.1326  0.6574  0.0208
  130OSM    H9S13905   2.115   3.144   2.885  0.1562 -1.1323 -0.1622
  130OSM    H9T13906   1.993   3.042   2.963 -1.1527  0.2872 -1.1532
  130OSM   C10S13907   1.960   3.246   3.023 -0.5659  0.2819 -0.5259
  130OSM   H10S13908   1.849   3.242   3.034 -0.6331 -1.4534 -1.3947
  130OSM   H10T13909   1.995   3.344   2.986 -1.8435  1.0019  0.1033
  130OSM   C11S13910   2.017   3.224   3.163 -0.5256 -0.8089  0.0882
  130OSM   H11S13911   2.007   3.315   3.225 -1.4022 -0.6621 -0.2570
  130OSM   H11T13912   2.126   3.202   3.160 -0.8563 -3.0679  1.7914
  130OSM   C12S13913   1.978   3.098   3.242 -0.0294 -0.3030 -0.3310
  130OSM   H12S13914   2.027   3.014   3.188 -0.2264  0.0358 -1.0473
  130OSM   H12T13915   1.868   3.089   3.230 -0.3675  2.0175  0.4931
  130OSM   C13S13916   2.013   3.087   3.386 -0.4872  0.5764  0.7136
  130OSM   H13S13917   2.121   3.087   3.412 -0.7235 -0.7825  1.7836
  130OSM   H13T13918   1.987   2.983   3.412  2.4169 -0.4006  0.0797
  130OSM   C14S13919   1.931   3.172   3.479 -0.3321 -0.4183  0.1876
  130OSM   H14S13920   1.832   3.123   3.476 -0.4409 -0.1620 -0.7228
  130OSM   H14T13921   1.926   3.278   3.445 -0.0357 -1.1298 -2.2349
  130OSM   C15S13922   1.989   3.185   3.617 -0.4686 -0.1374 -0.3717
  130OSM   H15S13923   1.919   3.246   3.679 -0.2873 -1.3836  1.1020
  130OSM   H15T13924   2.085   3.239   3.611  0.9689 -2.1191  2.4750
  130OSM   C16S13925   2.002   3.054   3.688  0.6206  0.1565 -0.2058
  130OSM   H16S13926   2.056   2.978   3.628  1.9740  1.0144 -0.1210
  130OSM   H16T13927   1.899   3.013   3.696  1.1537 -1.0597  0.6659
  130OSM   C17S13928   2.068   3.061   3.828 -0.4582  0.1672  0.1625
  130OSM   H17S13929   2.008   3.140   3.878  0.3504  1.3826 -0.7144
  130OSM   H17T13930   2.169   3.106   3.821 -0.3773  0.1036  0.8636
  130OSM   C18S13931   2.083   2.931   3.904  0.1142 -0.5571 -1.1058
  130OSM   H18S13932   2.134   2.950   4.001  1.4309 -2.6446 -1.3103
  130OSM   H18T13933   2.143   2.855   3.849  0.9279 -1.8199  1.3405
  130OSM   H18U13934   1.983   2.888   3.926  1.2111 -2.2113  1.1220
  130OSM    C1F13935   2.178   2.645   2.560 -0.7870 -0.7564  0.0850
  130OSM     OF13936   2.297   2.633   2.542 -0.1586 -0.3662  1.0012
  130OSM    C2F13937   2.111   2.611   2.689  0.3694  0.3198  0.0437
  130OSM    H2F13938   2.043   2.524   2.679  0.1619  0.2407  1.8550
  130OSM    H2G13939   2.052   2.700   2.720 -2.2296 -0.4516 -2.3384
  130OSM    C3F13940   2.223   2.569   2.791  0.5661  0.0681  0.1451
  130OSM    H3F13941   2.308   2.640   2.788  0.8037 -0.2211 -0.0238
  130OSM    H3G13942   2.267   2.472   2.759  1.9208  0.3670  0.9924
  130OSM    C4F13943   2.182   2.547   2.938 -0.4766 -0.3108  0.1925
  130OSM    H4F13944   2.274   2.501   2.980  1.8853  1.7629 -2.3573
  130OSM    H4G13945   2.100   2.473   2.951 -2.2758  1.8592  1.7912
  130OSM    C5F13946   2.139   2.673   3.013  0.3407 -0.4978 -0.4565
  130OSM    H5F13947   2.057   2.724   2.958  0.7222 -1.2281 -1.7316
  130OSM    H5G13948   2.216   2.751   3.032 -1.9526  2.0333 -0.8969
  130OSM    C6F13949   2.076   2.636   3.147  0.0835 -0.1861 -0.9858
  130OSM    H6F13950   2.012   2.547   3.132  2.7166 -1.7750 -4.2180
  130OSM    H6G13951   2.015   2.713   3.198  0.6230 -1.2533  1.3794
  130OSM    C7F13952   2.187   2.594   3.242  0.7465 -0.3216  0.1666
  130OSM    H7F13953   2.259   2.679   3.238  0.1337  0.2709  1.1908
  130OSM    H7G13954   2.240   2.508   3.197  2.8566  0.1734  1.5950
  130OSM    C8F13955   2.148   2.560   3.394 -0.7348 -0.2668  0.1099
  130OSM    H8F13956   2.241   2.520   3.438 -0.2826  0.3210 -0.2980
  130OSM    H8G13957   2.073   2.482   3.371  0.6029 -0.4134 -4.7626
  130OSM    C9F13958   2.091   2.679   3.467  0.0286  0.1355 -0.2927
  130OSM    H9F13959   2.047   2.756   3.402 -0.4800 -0.4386 -0.6417
  130OSM   C10F13960   2.091   2.685   3.602 -0.2759 -0.2842 -0.5332
  130OSM   H10F13961   2.023   2.763   3.640 -0.8949 -0.6799 -0.8190
  130OSM   C11F13962   2.129   2.570   3.693 -0.2919 -0.5109  0.0580
  130OSM   H11F13963   2.223   2.590   3.747  0.9482  0.7680 -2.4306
  130OSM   H11G13964   2.140   2.477   3.632 -0.1856 -0.0485 -0.6440
  130OSM   C12F13965   2.019   2.550   3.799  0.0621 -0.1435  0.6066
  130OSM   H12F13966   1.915   2.543   3.761  0.4590 -1.2554 -0.3353
  130OSM   H12G13967   2.029   2.633   3.872  0.1681 -0.8608  1.4237
  130OSM   C13F13968   2.041   2.410   3.877 -0.1847 -0.1935  0.1416
  130OSM   H13F13969   2.149   2.401   3.901 -0.0250  1.9567  0.3954
  130OSM   H13G13970   2.018   2.323   3.812 -3.1942  0.4234  0.2232
  130OSM   C14F13971   1.969   2.405   4.012 -0.2352  0.1533  0.1046
  130OSM   H14F13972   1.859   2.413   3.995 -0.5326 -0.9994  1.3358
  130OSM   H14G13973   2.020   2.486   4.068  3.4604 -0.5579 -1.9456
  130OSM   C15F13974   1.997   2.280   4.092 -0.2781  0.3044 -0.8966
  130OSM   H15F13975   1.947   2.293   4.191  0.5744 -1.1926 -0.2237
  130OSM   H15G13976   2.105   2.266   4.112 -0.4453  1.4128  1.0653
  130OSM   C16F13977   1.934   2.149   4.039  0.5537  0.6371  0.0124
  130OSM   H16F13978   2.015   2.095   3.987  1.1660  0.0060  1.5728
  130OSM   H16G13979   1.870   2.169   3.950  0.3026  0.3086  0.1161
  130OSM   C17F13980   1.864   2.062   4.135 -0.0989 -0.6600 -0.2903
  130OSM   H17F13981   1.791   2.129   4.184 -0.2564  1.0682 -2.7074
  130OSM   H17G13982   1.942   2.036   4.210  1.1901  0.1405 -1.3091
  130OSM   C18F13983   1.808   1.932   4.081  0.6830  0.4975  0.3395
  130OSM   H18F13984   1.772   1.870   4.166 -0.9038 -1.6167 -1.7245
  130OSM   H18G13985   1.889   1.872   4.034  1.1617 -0.3109  2.1232
  130OSM   H18H13986   1.723   1.940   4.009 -0.7296 -0.2865  1.8357
  131OSM      N13987   5.921   0.489   2.292 -0.2725  0.3446  0.5939
  131OSM    C1513988   5.899   0.344   2.283 -0.8403 -0.4274 -0.2523
  131OSM   H15A13989   5.890   0.312   2.181 -0.8287 -1.3759  0.0330
  131OSM   H15B13990   5.821   0.299   2.342 -0.1026  0.1475  1.2330
  131OSM   H15C13991   5.987   0.295   2.323 -0.6969 -0.4712 -0.6141
  131OSM    C1413992   5.923   0.535   2.434 -0.2168 -0.0297 -0.4746
  131OSM   H14A13993   6.001   0.478   2.482 -0.1725  0.9668  0.6569
  131OSM   H14B13994   5.828   0.512   2.479  1.2449 -4.0044  1.0198
  131OSM   H14C13995   5.937   0.642   2.433 -2.7910  0.3853  0.3643
  131OSM    C1313996   6.045   0.516   2.211 -0.1853  0.3098  0.6198
  131OSM   H13A13997   6.130   0.462   2.250 -0.1334 -0.0228  0.0629
  131OSM   H13B13998   6.072   0.620   2.209 -0.7123  0.4371 -0.0789
  131OSM   H13C13999   6.036   0.479   2.110  0.6044 -0.4918  0.8279
  131OSM    C1214000   5.803   0.553   2.221 -0.0815 -0.3922 -0.0957
  131OSM   H12A14001   5.716   0.516   2.273  0.1621 -0.3751  0.3292
  131OSM   H12B14002   5.806   0.528   2.116 -0.9521 -3.1266  0.4613
  131OSM    C1114003   5.795   0.707   2.230 -0.3006 -0.5482 -0.3152
  131OSM   H11A14004   5.758   0.740   2.329 -0.9918 -0.3483 -0.6311
  131OSM   H11B14005   5.713   0.741   2.163 -0.6830 -0.2310  0.3037
  131OSM      P14006   6.018   0.853   2.276  0.1289 -0.3058  0.1079
  131OSM    O1314007   6.147   0.785   2.264 -0.3164 -0.2796  0.2966
  131OSM    O1414008   6.011   0.995   2.233  0.3299 -0.0997  0.0154
  131OSM    O1114009   5.962   0.846   2.423 -0.2650  0.7767  0.1395
  131OSM    O1214010   5.914   0.774   2.188 -0.0600 -0.1447 -0.0538
  131OSM    C1S14011   6.047   0.852   2.538  0.7155 -0.0036  0.0471
  131OSM    H1S14012   6.113   0.941   2.532  0.7426  0.1453  1.8580
  131OSM    H1T14013   6.109   0.761   2.548  1.5198  0.3868 -1.2014
  131OSM     NF14014   6.051   0.851   2.785 -0.6983  0.0019 -0.4400
  131OSM    HNF14015   6.057   0.766   2.837  0.0036  0.3793  0.1131
  131OSM    C2S14016   5.959   0.862   2.672  0.4973  0.6616 -0.3856
  131OSM    H2S14017   5.918   0.965   2.672  1.3907  1.0876  2.0243
  131OSM    C3S14018   5.840   0.758   2.684 -0.6898 -0.2771 -0.0898
  131OSM    H3S14019   5.882   0.657   2.666 -1.1530 -0.4206 -0.3575
  131OSM     O314020   5.736   0.774   2.579 -0.3589 -0.3599 -0.2280
  131OSM    HO314021   5.758   0.847   2.521 -1.2752 -2.2720 -3.1703
  131OSM    C4S14022   5.767   0.759   2.815 -0.6326  0.2870 -0.0311
  131OSM    H4S14023   5.725   0.856   2.847  1.0073  1.0762 -0.1751
  131OSM    C5S14024   5.750   0.656   2.900  0.1054 -0.0500  0.2353
  131OSM    H5S14025   5.795   0.558   2.877 -2.5909 -2.4137  3.9416
  131OSM    C6S14026   5.680   0.660   3.037 -0.6031  0.0545 -0.5016
  131OSM    H6S14027   5.593   0.590   3.037 -1.1562  0.7056 -1.4935
  131OSM    H6T14028   5.630   0.759   3.051 -1.3295 -0.4652  0.7819
  131OSM    C7S14029   5.773   0.632   3.158  0.0899  0.0746 -0.2092
  131OSM    H7S14030   5.871   0.684   3.151  0.5405 -0.8469 -0.9901
  131OSM    H7T14031   5.781   0.523   3.176  1.3356 -0.0566 -1.3255
  131OSM    C8S14032   5.700   0.686   3.282  0.2930 -0.6816  0.1721
  131OSM    H8S14033   5.601   0.637   3.292 -0.8512  1.4903  0.0752
  131OSM    H8T14034   5.672   0.793   3.269 -2.1878 -1.2785 -0.0241
  131OSM    C9S14035   5.772   0.658   3.420  0.2086  1.0097  0.3067
  131OSM    H9S14036   5.876   0.699   3.425 -0.0020  1.4784  1.0512
  131OSM    H9T14037   5.784   0.548   3.432 -0.6745  1.0776  2.1321
  131OSM   C10S14038   5.701   0.713   3.545 -0.2480 -0.1276 -0.1903
  131OSM   H10S14039   5.591   0.726   3.530 -0.6914 -2.6786  0.4972
  131OSM   H10T14040   5.733   0.818   3.564 -1.0662 -0.1973  1.7835
  131OSM   C11S14041   5.725   0.626   3.670 -0.3310 -0.2547  0.2493
  131OSM   H11S14042   5.732   0.525   3.625 -0.0646  0.5194 -1.5232
  131OSM   H11T14043   5.636   0.625   3.737 -1.5362 -0.6396 -1.2739
  131OSM   C12S14044   5.855   0.652   3.749  1.4804  0.6355  0.4904
  131OSM   H12S14045   5.938   0.658   3.676  1.9939 -1.1987  0.8702
  131OSM   H12T14046   5.885   0.560   3.803 -1.5829 -2.1768 -2.1325
  131OSM   C13S14047   5.848   0.788   3.816  0.6473 -0.5308  0.2127
  131OSM   H13S14048   5.818   0.871   3.748  1.3563  0.5105  1.1289
  131OSM   H13T14049   5.948   0.815   3.855  1.0350 -1.2256 -0.2874
  131OSM   C14S14050   5.763   0.791   3.939  0.4851 -0.5340 -0.4177
  131OSM   H14S14051   5.788   0.703   4.002  1.8362  1.0261  1.3680
  131OSM   H14T14052   5.656   0.785   3.910  0.9975  0.7505 -2.8155
  131OSM   C15S14053   5.791   0.915   4.023  0.8450  0.6060  0.1492
  131OSM   H15S14054   5.732   0.994   3.974  2.4529  0.1199 -2.7818
  131OSM   H15T14055   5.902   0.925   4.023  1.1809 -1.6560  2.5621
  131OSM   C16S14056   5.759   0.921   4.175 -0.3139  0.3421  0.0909
  131OSM   H16S14057   5.652   0.894   4.192 -0.6363  0.3310 -1.8126
  131OSM   H16T14058   5.779   1.027   4.203 -1.2622  0.8197 -0.9763
  131OSM   C17S14059   5.832   0.826   4.280  0.3586  0.2367 -0.4237
  131OSM   H17S14060   5.819   0.723   4.239 -1.4476  0.7156 -1.1603
  131OSM   H17T14061   5.767   0.829   4.370  1.3067 -1.1088  0.3396
  131OSM   C18S14062   5.977   0.869   4.303 -0.7134 -0.5231  0.5582
  131OSM   H18S14063   6.023   0.820   4.391  2.5387  1.6493  0.2400
  131OSM   H18T14064   5.982   0.978   4.326 -1.5361 -0.6252  1.2659
  131OSM   H18U14065   6.034   0.844   4.211 -1.7737 -4.3013  0.7707
  131OSM    C1F14066   6.124   0.958   2.820 -0.7226 -0.3806 -0.1748
  131OSM     OF14067   6.111   1.065   2.771  0.3653 -0.7814 -0.3908
  131OSM    C2F14068   6.237   0.933   2.916  0.0950 -0.1883  0.5956
  131OSM    H2F14069   6.303   0.862   2.862  1.0815  0.7293  0.5673
  131OSM    H2G14070   6.199   0.880   3.006  0.1629  0.4674  1.0159
  131OSM    C3F14071   6.319   1.050   2.965 -0.4272 -0.7429  0.1809
  131OSM    H3F14072   6.257   1.115   3.030 -0.4065  1.0260 -1.4905
  131OSM    H3G14073   6.347   1.120   2.884 -0.2600  1.0824  1.7521
  131OSM    C4F14074   6.445   1.013   3.045 -0.6051 -0.1931  0.9268
  131OSM    H4F14075   6.488   1.110   3.079 -1.7547 -0.1240  2.2462
  131OSM    H4G14076   6.514   0.969   2.969 -1.6132  0.0072 -0.1292
  131OSM    C5F14077   6.417   0.920   3.164 -0.0718  0.1543 -0.7015
  131OSM    H5F14078   6.378   0.820   3.133  0.4977 -0.6388  0.9985
  131OSM    H5G14079   6.336   0.963   3.227 -0.8704 -1.4817 -0.5445
  131OSM    C6F14080   6.541   0.902   3.248 -0.2562 -0.0919  0.2062
  131OSM    H6F14081   6.588   0.996   3.284  1.0968  0.0061 -1.6734
  131OSM    H6G14082   6.616   0.863   3.176 -1.1284  0.4316 -1.0223
  131OSM    C7F14083   6.526   0.797   3.359 -0.5788  0.4301 -1.1223
  131OSM    H7F14084   6.478   0.707   3.315  1.1527 -0.9476 -0.2583
  131OSM    H7G14085   6.457   0.841   3.435  2.9787  1.0010  2.0234
  131OSM    C8F14086   6.658   0.764   3.430 -0.4451 -0.3494  0.1799
  131OSM    H8F14087   6.729   0.733   3.351  0.8817  1.4365  0.6022
  131OSM    H8G14088   6.633   0.673   3.488  1.2347 -0.0369  1.4693
  131OSM    C9F14089   6.713   0.880   3.517  0.5891  0.1584  0.7984
  131OSM    H9F14090   6.762   0.955   3.452  2.2359 -0.5447  1.1987
  131OSM   C10F14091   6.720   0.885   3.648  0.3434  0.6240  0.5968
  131OSM   H10F14092   6.754   0.974   3.704 -0.6941  1.8127 -0.6000
  131OSM   C11F14093   6.660   0.783   3.749  0.6948 -0.1740  0.2299
  131OSM   H11F14094   6.682   0.680   3.714 -0.8085 -0.4518  0.0229
  131OSM   H11G14095   6.549   0.774   3.748  0.7360 -1.0127  1.2115
  131OSM   C12F14096   6.717   0.804   3.889  0.5185  0.6980 -0.0832
  131OSM   H12F14097   6.705   0.911   3.916  1.0309  0.1095  2.8197
  131OSM   H12G14098   6.827   0.788   3.887  0.8958  3.0437 -0.6583
  131OSM   C13F14099   6.663   0.701   3.997 -0.0214 -0.4744 -0.8182
  131OSM   H13F14100   6.682   0.608   3.939 -0.8416 -0.2672 -1.4337
  131OSM   H13G14101   6.554   0.719   3.996  0.4098  2.7754 -0.8517
  131OSM   C14F14102   6.740   0.704   4.133  1.0485  0.1806  0.2807
  131OSM   H14F14103   6.712   0.786   4.203  0.6248 -1.4401  2.0767
  131OSM   H14G14104   6.850   0.715   4.120  0.9287  1.8025  0.3741
  131OSM   C15F14105   6.728   0.576   4.208  0.1060 -0.3494 -0.3897
  131OSM   H15F14106   6.830   0.573   4.252  0.7753  0.1530 -1.8325
  131OSM   H15G14107   6.711   0.488   4.142  0.5390 -0.5463 -0.2479
  131OSM   C16F14108   6.609   0.582   4.314 -0.0427 -0.4477 -0.0727
  131OSM   H16F14109   6.516   0.624   4.269  0.5332 -2.7785 -3.9512
  131OSM   H16G14110   6.635   0.650   4.398 -1.3545  0.8829 -0.7000
  131OSM   C17F14111   6.592   0.442   4.377  0.2038  0.5301 -0.0978
  131OSM   H17F14112   6.545   0.380   4.298  4.0121 -0.7471 -1.5914
  131OSM   H17G14113   6.523   0.462   4.462 -0.7590  0.3082 -0.8072
  131OSM   C18F14114   6.716   0.382   4.430 -0.0576  0.1153 -0.0718
  131OSM   H18F14115   6.785   0.335   4.356 -0.7041 -0.7559 -0.1356
  131OSM   H18G14116   6.694   0.293   4.493 -0.1325  1.3836  1.7824
  131OSM   H18H14117   6.764   0.459   4.495  0.1295 -0.7880  0.8871
  132OSM      N14118   4.825   0.971   2.197 -0.7645  0.4502  0.3387
  132OSM    C1514119   4.719   0.960   2.096  0.0203  0.1662  0.8527
  132OSM   H15A14120   4.723   0.866   2.044 -1.0486 -0.1263  1.2752
  132OSM   H15B14121   4.726   1.041   2.025  1.5110  0.6118  1.4713
  132OSM   H15C14122   4.623   0.956   2.145 -1.3278 -0.2883 -1.6743
  132OSM    C1414123   4.959   0.971   2.129 -0.2706 -0.1863  0.0924
  132OSM   H14A14124   5.040   0.979   2.200  0.4129  2.4361 -0.8601
  132OSM   H14B14125   4.978   1.054   2.063  1.3561 -1.6277 -1.3808
  132OSM   H14C14126   4.979   0.877   2.079  1.6071 -0.2855  0.9202
  132OSM    C1314127   4.813   1.098   2.266 -0.4928 -0.8646 -0.7301
  132OSM   H13A14128   4.901   1.126   2.321 -0.6846  1.0388 -1.3218
  132OSM   H13B14129   4.735   1.094   2.340 -0.9942 -0.8962 -1.2542
  132OSM   H13C14130   4.778   1.173   2.197 -1.1214  1.5088  1.9893
  132OSM    C1214131   4.827   0.861   2.301  0.5176  0.4822  0.1163
  132OSM   H12A14132   4.751   0.877   2.376  0.6251 -2.8311  1.0888
  132OSM   H12B14133   4.922   0.883   2.346  0.3365  0.8917  0.2981
  132OSM    C1114134   4.824   0.711   2.254 -0.1217  0.4859 -0.4205
  132OSM   H11A14135   4.735   0.676   2.197 -0.5897 -2.0938  1.6932
  132OSM   H11B14136   4.813   0.659   2.351  0.3589  1.2944  0.0784
  132OSM      P14137   5.080   0.660   2.281 -0.4196 -0.0227  0.0818
  132OSM    O1314138   5.105   0.515   2.280 -0.1297 -0.4539 -0.5986
  132OSM    O1414139   5.185   0.750   2.230 -0.6191  0.6473  0.3620
  132OSM    O1114140   5.019   0.708   2.417  0.3288  0.2361  0.5480
  132OSM    O1214141   4.952   0.678   2.187 -0.0981  0.2188  0.0928
  132OSM    C1S14142   5.113   0.724   2.529  0.7462  0.6912  0.0864
  132OSM    H1S14143   5.178   0.811   2.507  0.5919  0.0474 -3.5583
  132OSM    H1T14144   5.173   0.633   2.550 -1.3438 -1.2609 -1.7853
  132OSM     NF14145   5.136   0.782   2.768 -0.3539  0.3180 -0.0143
  132OSM    HNF14146   5.156   0.712   2.837 -0.9589  0.1061 -0.0487
  132OSM    C2S14147   5.040   0.746   2.664  0.5413 -0.5574 -0.3757
  132OSM    H2S14148   4.964   0.827   2.659 -0.3519 -1.3009  0.5009
  132OSM    C3S14149   4.955   0.620   2.708  0.2551  0.1770  0.6237
  132OSM    H3S14150   5.016   0.527   2.718 -2.7093 -1.9257  0.4512
  132OSM     O314151   4.865   0.576   2.601 -0.2190  0.0551 -0.4190
  132OSM    HO314152   4.908   0.624   2.529  0.3972  2.7157  1.5441
  132OSM    C4S14153   4.877   0.623   2.841  0.1921  0.0921  0.6020
  132OSM    H4S14154   4.942   0.584   2.921  1.5104  0.8492 -0.0651
  132OSM    C5S14155   4.758   0.662   2.876  0.3885  0.4735  0.2426
  132OSM    H5S14156   4.686   0.708   2.806  1.2672  0.8055 -0.4565
  132OSM    C6S14157   4.711   0.667   3.020 -0.4575 -0.7362 -0.2398
  132OSM    H6S14158   4.618   0.609   3.038 -1.4288  0.9231  0.3135
  132OSM    H6T14159   4.677   0.772   3.034 -0.1942 -0.6965  0.1273
  132OSM    C7S14160   4.810   0.632   3.132 -0.6594  0.1314 -0.0751
  132OSM    H7S14161   4.900   0.697   3.138 -1.2084  0.8787  0.3034
  132OSM    H7T14162   4.828   0.523   3.133 -3.3555 -0.3782  0.9425
  132OSM    C8S14163   4.742   0.636   3.277 -0.2781  0.6486 -0.1494
  132OSM    H8S14164   4.654   0.569   3.270 -1.1862  1.7041  0.9025
  132OSM    H8T14165   4.695   0.735   3.293 -0.2971  0.9255 -1.7023
  132OSM    C9S14166   4.840   0.604   3.385 -0.3702  0.2254 -0.5768
  132OSM    H9S14167   4.933   0.664   3.375 -0.7840  1.3823  1.8851
  132OSM    H9T14168   4.870   0.497   3.383  0.5795  0.4425  0.6377
  132OSM   C10S14169   4.783   0.625   3.525 -0.2120  0.4786  0.3231
  132OSM   H10S14170   4.706   0.547   3.540 -2.7448  3.0788  1.7944
  132OSM   H10T14171   4.719   0.715   3.527 -2.5821 -1.1033 -0.1515
  132OSM   C11S14172   4.888   0.618   3.638 -0.0017 -0.2802  0.6777
  132OSM   H11S14173   4.979   0.679   3.620 -0.0317  0.2163  2.1309
  132OSM   H11T14174   4.935   0.518   3.653 -0.3495 -0.5809 -0.1528
  132OSM   C12S14175   4.841   0.656   3.781  0.7596 -0.1767 -0.5204
  132OSM   H12S14176   4.743   0.604   3.778  0.2830  0.7383 -1.1890
  132OSM   H12T14177   4.814   0.764   3.777 -1.2407 -0.5638  1.0008
  132OSM   C13S14178   4.931   0.609   3.895  0.2744 -0.6136 -0.3440
  132OSM   H13S14179   4.984   0.514   3.873  0.9375  0.1431 -2.1731
  132OSM   H13T14180   4.872   0.592   3.988 -0.9587 -0.2836 -1.0390
  132OSM   C14S14181   5.050   0.714   3.920  0.1094 -0.0978 -0.0199
  132OSM   H14S14182   5.010   0.818   3.926  1.4031  0.3449  1.4709
  132OSM   H14T14183   5.120   0.708   3.834 -2.2084  0.1778 -2.0423
  132OSM   C15S14184   5.112   0.685   4.051 -0.9948 -0.0247 -1.0142
  132OSM   H15S14185   5.140   0.578   4.063 -0.4323  0.4205  3.3593
  132OSM   H15T14186   5.039   0.700   4.132  0.7723  1.5480  0.3608
  132OSM   C16S14187   5.228   0.781   4.071 -0.0961 -0.1848  0.5477
  132OSM   H16S14188   5.188   0.884   4.079 -0.4327 -0.3442  0.9302
  132OSM   H16T14189   5.296   0.775   3.983  1.7405 -2.9737  2.0277
  132OSM   C17S14190   5.306   0.767   4.201 -0.2033 -0.1573 -0.3979
  132OSM   H17S14191   5.247   0.709   4.275  0.6809 -0.7417 -0.1332
  132OSM   H17T14192   5.342   0.860   4.251  1.0796 -0.2333 -1.1359
  132OSM   C18S14193   5.422   0.670   4.179 -0.2866 -0.2100  0.7991
  132OSM   H18S14194   5.475   0.661   4.277 -0.0221  0.0075  0.6767
  132OSM   H18T14195   5.505   0.708   4.115 -1.3957 -1.4424 -1.4359
  132OSM   H18U14196   5.388   0.569   4.149  0.4590 -0.2342 -0.0052
  132OSM    C1F14197   5.215   0.891   2.765  1.0273  0.5108  0.1364
  132OSM     OF14198   5.182   0.986   2.692 -0.0539 -0.0705 -0.0142
  132OSM    C2F14199   5.331   0.894   2.867 -0.3880 -0.6989  0.2302
  132OSM    H2F14200   5.385   0.985   2.833 -0.9908 -0.8836 -1.2978
  132OSM    H2G14201   5.398   0.809   2.843 -0.1917 -0.5896  0.3888
  132OSM    C3F14202   5.281   0.891   3.012 -0.1703  0.9254  0.0521
  132OSM    H3F14203   5.218   0.800   3.018 -0.6531  1.2140 -0.4905
  132OSM    H3G14204   5.215   0.978   3.034 -1.9503 -0.0652 -1.0600
  132OSM    C4F14205   5.385   0.891   3.125 -0.2943  0.1759 -0.2858
  132OSM    H4F14206   5.465   0.965   3.107  1.3684 -1.1745  1.2085
  132OSM    H4G14207   5.432   0.792   3.142 -0.9929 -0.5866 -2.4137
  132OSM    C5F14208   5.308   0.921   3.261  0.2109 -0.6139 -0.2416
  132OSM    H5F14209   5.217   0.858   3.265 -1.5091  1.8332  0.8591
  132OSM    H5G14210   5.292   1.030   3.247  3.7743 -0.0962 -1.3424
  132OSM    C6F14211   5.385   0.897   3.388  0.5257 -0.5232 -0.3186
  132OSM    H6F14212   5.483   0.947   3.381 -0.9660  2.5116 -1.3262
  132OSM    H6G14213   5.397   0.787   3.399  2.1109 -0.2384  1.1257
  132OSM    C7F14214   5.316   0.955   3.516  0.4777  0.4969  0.2842
  132OSM    H7F14215   5.228   0.892   3.540 -0.4861  2.0055  0.8610
  132OSM    H7G14216   5.278   1.057   3.493  1.2914  0.9609  0.9171
  132OSM    C8F14217   5.411   0.962   3.630  0.0500  0.5803 -0.2756
  132OSM    H8F14218   5.495   1.024   3.593  1.1387  0.1377  1.3086
  132OSM    H8G14219   5.451   0.860   3.651  0.2217  1.0743  2.1253
  132OSM    C9F14220   5.364   1.012   3.763  0.6994 -0.0239  0.2572
  132OSM    H9F14221   5.328   0.936   3.834  1.8475  0.7388  1.7209
  132OSM   C10F14222   5.377   1.135   3.810  0.0797  0.6979  0.1814
  132OSM   H10F14223   5.332   1.160   3.907 -0.6107 -1.0040  0.3397
  132OSM   C11F14224   5.440   1.256   3.737  0.0713  0.9739  0.0934
  132OSM   H11F14225   5.492   1.224   3.644  0.8536  0.3306  0.7355
  132OSM   H11G14226   5.521   1.289   3.805  1.7825 -0.8250 -0.9688
  132OSM   C12F14227   5.332   1.361   3.716 -0.2706 -0.3243 -0.4649
  132OSM   H12F14228   5.378   1.460   3.695 -1.1097 -0.4957 -3.6116
  132OSM   H12G14229   5.274   1.384   3.808 -0.0516 -0.0617 -0.3903
  132OSM   C13F14230   5.239   1.335   3.600  0.3975  0.4400  0.3057
  132OSM   H13F14231   5.161   1.414   3.599  0.2153  0.2716  0.9062
  132OSM   H13G14232   5.197   1.232   3.604 -0.2525  0.7054  0.3845
  132OSM   C14F14233   5.319   1.344   3.467  0.3239  0.0662 -0.0182
  132OSM   H14F14234   5.408   1.278   3.466  0.0296 -0.3349 -1.2733
  132OSM   H14G14235   5.355   1.449   3.456  0.4905  0.3878  2.7833
  132OSM   C15F14236   5.238   1.313   3.344 -0.2166 -0.0068  0.0196
  132OSM   H15F14237   5.168   1.399   3.344 -0.6213 -0.2072  3.2386
  132OSM   H15G14238   5.197   1.211   3.358  2.6786 -0.9759  2.6498
  132OSM   C16F14239   5.318   1.318   3.214  0.0173  0.4189 -0.0405
  132OSM   H16F14240   5.396   1.239   3.216  0.1928  0.5775  2.5154
  132OSM   H16G14241   5.374   1.413   3.203  0.6388  0.0518 -0.0801
  132OSM   C17F14242   5.231   1.300   3.089 -0.4791 -0.7808 -0.1080
  132OSM   H17F14243   5.141   1.366   3.087  1.5993  2.2897  0.1412
  132OSM   H17G14244   5.188   1.198   3.080  0.0909 -1.3526  2.6744
  132OSM   C18F14245   5.309   1.338   2.955 -0.3137 -0.3284 -0.3870
  132OSM   H18F14246   5.241   1.325   2.868  1.4899 -1.8593 -1.6462
  132OSM   H18G14247   5.382   1.256   2.939  0.0911 -0.2381  0.8571
  132OSM   H18H14248   5.358   1.437   2.959 -0.8686 -0.0535 -0.3125
  133OSM      N14249   4.572   0.329   1.756 -0.1063 -0.6144 -0.5313
  133OSM    C1514250   4.502   0.461   1.741 -0.3961 -0.3316 -0.1531
  133OSM   H15A14251   4.544   0.528   1.815 -0.0552  0.5648 -1.1307
  133OSM   H15B14252   4.396   0.451   1.759 -0.2713 -2.5739 -0.3821
  133OSM   H15C14253   4.512   0.509   1.644 -1.4564  2.2082  0.8941
  133OSM    C1414254   4.530   0.246   1.644 -0.1269 -0.4250  0.4290
  133OSM   H14A14255   4.582   0.282   1.556  0.7045  0.7198  1.3488
  133OSM   H14B14256   4.427   0.266   1.620  0.3069  1.8975  0.2725
  133OSM   H14C14257   4.546   0.142   1.668  0.9340  0.3537  3.7068
  133OSM    C1314258   4.723   0.332   1.749  0.0423  0.4112  0.2135
  133OSM   H13A14259   4.756   0.230   1.758  0.1665  0.4492  0.1938
  133OSM   H13B14260   4.755   0.395   1.830  0.6395 -0.3487  0.5782
  133OSM   H13C14261   4.765   0.373   1.658 -1.8141 -0.0333 -0.8928
  133OSM    C1214262   4.528   0.278   1.897  0.3867 -0.0090 -0.4018
  133OSM   H12A14263   4.564   0.342   1.976  1.0811  0.5060 -1.1199
  133OSM   H12B14264   4.568   0.180   1.920  2.5657  1.1047  0.8727
  133OSM    C1114265   4.370   0.269   1.914  0.1986 -0.3969 -0.1427
  133OSM   H11A14266   4.329   0.372   1.904 -0.7906 -0.6727  0.8566
  133OSM   H11B14267   4.353   0.233   2.018  4.0310 -0.1175  0.7429
  133OSM      P14268   4.315   0.036   1.821 -0.1712  0.2259  0.2115
  133OSM    O1314269   4.222  -0.012   1.720  0.4612 -0.1749 -0.5598
  133OSM    O1414270   4.455  -0.008   1.819  0.2619  0.5138  0.1558
  133OSM    O1114271   4.262   0.008   1.967 -0.1802  0.3211  0.3645
  133OSM    O1214272   4.305   0.194   1.813  0.2246  0.0580 -0.5463
  133OSM    C1S14273   4.160   0.059   2.048  0.6398 -0.2268  0.3947
  133OSM    H1S14274   4.058   0.043   2.006 -0.0182 -0.3652  1.9935
  133OSM    H1T14275   4.167   0.168   2.071 -1.7227 -0.1487  1.0406
  133OSM     NF14276   4.031   0.046   2.261  0.2068  0.8749 -0.1501
  133OSM    HNF14277   4.055   0.116   2.328 -0.9699  2.6949 -1.5593
  133OSM    C2S14278   4.141  -0.014   2.183  0.1529 -0.4264 -0.5495
  133OSM    H2S14279   4.108  -0.116   2.156  0.9493 -0.5152 -1.2227
  133OSM    C3S14280   4.281  -0.023   2.255  0.4214  0.1825  0.0815
  133OSM    H3S14281   4.326   0.079   2.250 -2.3851  1.5550  0.8122
  133OSM     O314282   4.370  -0.108   2.181  0.7588 -0.5071  0.5100
  133OSM    HO314283   4.339  -0.118   2.090  2.1214 -1.2263  0.1027
  133OSM    C4S14284   4.274  -0.071   2.397  0.4312 -0.4387  0.1687
  133OSM    H4S14285   4.261  -0.181   2.401 -1.0695 -0.5843 -4.0266
  133OSM    C5S14286   4.286   0.009   2.506  0.6000  0.0497 -0.5013
  133OSM    H5S14287   4.289   0.118   2.495 -1.2970  0.3833  1.5278
  133OSM    C6S14288   4.254  -0.026   2.653 -0.4250  0.2995  0.0868
  133OSM    H6S14289   4.336   0.011   2.718 -0.7521 -0.2049  0.7970
  133OSM    H6T14290   4.246  -0.136   2.666  1.3503  0.1806  0.4166
  133OSM    C7S14291   4.131   0.038   2.700  0.2492 -0.9280 -0.5000
  133OSM    H7S14292   4.043  -0.004   2.646  0.2138 -0.9095 -0.4557
  133OSM    H7T14293   4.131   0.145   2.671  1.1117  0.0529  2.7429
  133OSM    C8S14294   4.111   0.012   2.849 -0.7042  0.3360  0.3351
  133OSM    H8S14295   4.172   0.077   2.916  0.1898  0.7457 -0.8343
  133OSM    H8T14296   4.139  -0.093   2.868  1.9444  0.3954 -2.3773
  133OSM    C9S14297   3.958   0.016   2.875 -0.1357 -0.4627  0.5231
  133OSM    H9S14298   3.903  -0.062   2.818 -0.4666  1.1005 -1.4082
  133OSM    H9T14299   3.921   0.117   2.849  1.9209  0.3033  0.3873
  133OSM   C10S14300   3.901  -0.015   3.015 -0.7621  0.2456  0.0334
  133OSM   H10S14301   3.911  -0.122   3.041 -2.0466  0.3041  0.9019
  133OSM   H10T14302   3.793   0.014   3.016 -1.3153 -1.6483  1.3502
  133OSM   C11S14303   3.971   0.072   3.126  0.0641 -0.4977 -0.0110
  133OSM   H11S14304   3.984   0.168   3.071  0.9536 -0.2560  0.5971
  133OSM   H11T14305   4.073   0.035   3.149 -0.1206 -2.7396 -2.3313
  133OSM   C12S14306   3.893   0.084   3.258  0.1883  0.1377 -0.0854
  133OSM   H12S14307   3.831  -0.005   3.281 -1.2872  1.4561  1.2662
  133OSM   H12T14308   3.817   0.163   3.244 -1.7398 -1.8009 -0.9798
  133OSM   C13S14309   3.984   0.113   3.376 -0.4474  0.3894  0.7278
  133OSM   H13S14310   4.034   0.210   3.359  1.3172 -1.0644 -3.4808
  133OSM   H13T14311   4.063   0.036   3.369  0.6304  1.5642 -0.4124
  133OSM   C14S14312   3.917   0.105   3.516  0.4192 -0.1092  0.5885
  133OSM   H14S14313   3.909  -0.001   3.548  0.0266 -0.8597 -1.8326
  133OSM   H14T14314   3.813   0.144   3.510  1.8329  3.9272 -2.4516
  133OSM   C15S14315   3.991   0.198   3.615  0.0801 -0.0987  0.1756
  133OSM   H15S14316   3.956   0.300   3.587  0.8900  0.1542  0.0698
  133OSM   H15T14317   4.101   0.200   3.602  0.2788  1.4365  1.6236
  133OSM   C16S14318   3.966   0.160   3.756 -0.5016 -0.2451  0.0074
  133OSM   H16S14319   3.950   0.055   3.788 -1.5343 -0.3261 -0.7387
  133OSM   H16T14320   3.874   0.209   3.794  1.0460  0.7491  2.8315
  133OSM   C17S14321   4.089   0.200   3.843  0.4044  0.0244 -0.2037
  133OSM   H17S14322   4.117   0.305   3.822 -0.6565 -0.0305 -2.1589
  133OSM   H17T14323   4.179   0.140   3.817  0.5626  0.8646 -1.6932
  133OSM   C18S14324   4.071   0.190   4.000 -0.1414 -0.1770 -0.3741
  133OSM   H18S14325   3.984   0.248   4.038  1.0794  0.2033  1.9867
  133OSM   H18T14326   4.164   0.225   4.049 -1.7588  0.8410  2.1736
  133OSM   H18U14327   4.060   0.080   4.018  0.4474 -0.6501 -2.5480
  133OSM    C1F14328   3.902   0.038   2.220 -0.1661  0.1674 -0.8234
  133OSM     OF14329   3.864  -0.045   2.144 -0.6094  0.2912 -0.1248
  133OSM    C2F14330   3.804   0.140   2.276  0.2609 -0.5289 -0.1395
  133OSM    H2F14331   3.750   0.176   2.186  0.2416  0.8818  0.4120
  133OSM    H2G14332   3.857   0.227   2.322  0.8362 -1.1535  0.3909
  133OSM    C3F14333   3.703   0.074   2.373  0.6898 -0.1106 -0.8638
  133OSM    H3F14334   3.647  -0.010   2.325 -1.7328  1.4398 -0.8963
  133OSM    H3G14335   3.623   0.148   2.394 -0.2061 -1.2038 -0.2664
  133OSM    C4F14336   3.775   0.041   2.505 -0.6617  0.0687  0.3566
  133OSM    H4F14337   3.825   0.131   2.546  0.4305  0.4655 -1.7194
  133OSM    H4G14338   3.853  -0.035   2.483  0.9757  1.8958 -0.4516
  133OSM    C5F14339   3.687  -0.022   2.620  0.3184 -0.2577  0.7804
  133OSM    H5F14340   3.755  -0.086   2.679  2.1182  1.9270  1.1841
  133OSM    H5G14341   3.614  -0.091   2.572  2.3274 -1.7463 -0.3077
  133OSM    C6F14342   3.619   0.093   2.701 -0.1704 -0.4741  0.0389
  133OSM    H6F14343   3.551   0.154   2.639 -1.7193 -2.1353  0.0130
  133OSM    H6G14344   3.706   0.147   2.744  0.7837  0.4736 -2.9014
  133OSM    C7F14345   3.532   0.031   2.816  0.1075 -0.3705  0.1592
  133OSM    H7F14346   3.580  -0.058   2.863  1.1765 -1.0866 -2.1437
  133OSM    H7G14347   3.434   0.001   2.773 -0.2554 -1.2155  1.5090
  133OSM    C8F14348   3.502   0.142   2.917 -0.4136 -0.4700 -0.7637
  133OSM    H8F14349   3.587   0.159   2.986 -1.0523  0.9193 -0.2774
  133OSM    H8G14350   3.432   0.097   2.991  1.0439 -1.0796  0.3084
  133OSM    C9F14351   3.448   0.268   2.860  0.2838 -0.1741 -0.4177
  133OSM    H9F14352   3.380   0.258   2.774 -1.4303 -0.1751  0.8851
  133OSM   C10F14353   3.474   0.390   2.897 -0.3174  0.3588  0.3985
  133OSM   H10F14354   3.429   0.479   2.850  0.2853  0.1011 -0.6930
  133OSM   C11F14355   3.571   0.432   3.001 -0.3686  0.5139  0.0669
  133OSM   H11F14356   3.631   0.520   2.968 -0.2941  0.9157  1.2234
  133OSM   H11G14357   3.640   0.351   3.031 -0.9286  0.3502  0.9797
  133OSM   C12F14358   3.495   0.478   3.130 -0.1008  0.3687 -0.7020
  133OSM   H12F14359   3.415   0.551   3.106 -0.8138  0.3494  1.4388
  133OSM   H12G14360   3.564   0.547   3.183 -1.7779  0.1783  1.9055
  133OSM   C13F14361   3.447   0.374   3.227 -0.2825 -0.0303  0.3024
  133OSM   H13F14362   3.475   0.275   3.185  0.6838  0.9656 -1.5111
  133OSM   H13G14363   3.337   0.370   3.214 -0.2527 -2.5386  0.3235
  133OSM   C14F14364   3.504   0.368   3.369  0.6643  0.3049 -1.0595
  133OSM   H14F14365   3.534   0.473   3.387 -0.4482  0.4990 -0.1877
  133OSM   H14G14366   3.591   0.299   3.375  1.9598  1.8707 -1.3540
  133OSM   C15F14367   3.392   0.331   3.468 -0.4176  0.3457  0.2744
  133OSM   H15F14368   3.349   0.237   3.427  0.7603  0.3604 -1.0881
  133OSM   H15G14369   3.306   0.402   3.472  0.1268  1.0524 -0.2213
  133OSM   C16F14370   3.438   0.301   3.606 -0.1048  0.1803 -0.6411
  133OSM   H16F14371   3.496   0.206   3.612 -1.4461 -0.5900  0.8868
  133OSM   H16G14372   3.350   0.273   3.668 -0.4347 -0.7768 -1.5187
  133OSM   C17F14373   3.528   0.405   3.671  0.5013 -0.4644 -0.9449
  133OSM   H17F14374   3.494   0.424   3.775  1.9806 -1.9308 -0.1324
  133OSM   H17G14375   3.515   0.498   3.613  0.4835  0.6979  0.8389
  133OSM   C18F14376   3.680   0.369   3.688 -0.0202  0.0999 -1.0467
  133OSM   H18F14377   3.675   0.259   3.671  0.0826 -0.0366 -0.2287
  133OSM   H18G14378   3.724   0.394   3.787 -0.9649 -1.0211 -0.3113
  133OSM   H18H14379   3.735   0.401   3.597 -0.1485 -1.1812 -1.6073
  134OSM      N14380   3.077   4.129   1.827  0.8966 -0.2140 -0.2905
  134OSM    C1514381   3.000   4.013   1.790  0.5878 -0.1685 -0.1066
  134OSM   H15A14382   3.002   4.005   1.682  2.9753 -2.0677 -0.0251
  134OSM   H15B14383   2.902   4.024   1.832  0.9084 -0.1250  0.6358
  134OSM   H15C14384   3.047   3.924   1.829  3.0753  0.9292 -0.4339
  134OSM    C1414385   3.224   4.103   1.798  0.5548 -0.2736  0.0579
  134OSM   H14A14386   3.258   4.033   1.873 -1.9005  0.0638  1.5852
  134OSM   H14B14387   3.288   4.189   1.803  1.1109 -0.4379 -2.6834
  134OSM   H14C14388   3.239   4.057   1.701 -1.2638  0.4210 -0.5889
  134OSM    C1314389   3.034   4.245   1.741  0.6494  0.1619  0.2812
  134OSM   H13A14390   2.930   4.262   1.765  1.2436  0.1426  3.2575
  134OSM   H13B14391   3.040   4.232   1.634 -0.3521 -0.0575  0.2389
  134OSM   H13C14392   3.086   4.333   1.778  0.9110 -0.5442  1.6578
  134OSM    C1214393   3.075   4.165   1.975 -0.4894 -0.1039 -0.1541
  134OSM   H12A14394   2.975   4.195   2.004 -0.2952 -0.6425  1.1196
  134OSM   H12B14395   3.146   4.246   1.973 -1.3570  0.6729 -0.4494
  134OSM    C1114396   3.129   4.056   2.077 -0.4212 -0.2305 -0.2702
  134OSM   H11A14397   3.127   4.105   2.177  1.4974  0.3662 -0.4839
  134OSM   H11B14398   3.238   4.042   2.061 -0.3735 -0.8199  0.5495
  134OSM      P14399   2.925   3.912   2.165  0.0496 -0.3128 -0.1404
  134OSM    O1314400   2.861   4.045   2.186  0.2835  0.6887  0.2427
  134OSM    O1414401   2.836   3.810   2.106 -0.0264 -0.1405 -0.0416
  134OSM    O1114402   2.992   3.871   2.307 -0.4734 -0.1293 -0.2312
  134OSM    O1214403   3.048   3.935   2.064  0.1890  0.2809  0.0865
  134OSM    C1S14404   3.126   3.831   2.325 -0.3359 -0.3495 -0.2520
  134OSM    H1S14405   3.187   3.923   2.338 -0.7110 -0.2849  1.2039
  134OSM    H1T14406   3.168   3.773   2.240  2.3290 -0.7987  1.2723
  134OSM     NF14407   3.293   3.745   2.484 -0.3705  0.3454  0.3959
  134OSM    HNF14408   3.333   3.655   2.469  1.2313  1.3641 -2.3103
  134OSM    C2S14409   3.150   3.758   2.454  0.1800 -0.1722 -0.6957
  134OSM    H2S14410   3.112   3.814   2.542  0.9435  0.0819 -0.5203
  134OSM    C3S14411   3.080   3.621   2.443  0.7653  0.3992 -0.0092
  134OSM    H3S14412   3.134   3.562   2.367 -1.1599 -0.4756 -0.7593
  134OSM     O314413   2.939   3.628   2.400  0.2341  0.2777  0.5389
  134OSM    HO314414   2.922   3.722   2.390  2.6431  0.6090 -1.5312
  134OSM    C4S14415   3.096   3.547   2.571 -0.4057  0.6015  0.2783
  134OSM    H4S14416   3.178   3.475   2.557 -0.3553  0.6354  0.3980
  134OSM    C5S14417   3.030   3.563   2.691  0.3267 -0.4545 -0.1348
  134OSM    H5S14418   2.962   3.648   2.699  1.2252  0.2079  0.7176
  134OSM    C6S14419   3.047   3.482   2.818  0.1158 -0.0429  0.1393
  134OSM    H6S14420   3.107   3.389   2.809  0.1455 -0.0143  0.0436
  134OSM    H6T14421   2.945   3.460   2.857 -0.1792  1.4231  0.2524
  134OSM    C7S14422   3.128   3.560   2.923 -0.3738 -0.6012 -0.2662
  134OSM    H7S14423   3.081   3.654   2.956  1.4769 -0.4964  2.3349
  134OSM    H7T14424   3.229   3.582   2.881 -0.1654 -1.4072 -0.2047
  134OSM    C8S14425   3.140   3.471   3.056 -0.7404 -1.0741  0.5886
  134OSM    H8S14426   3.212   3.523   3.123 -0.5969  2.3025 -1.8917
  134OSM    H8T14427   3.173   3.369   3.027 -1.1537 -0.8044 -0.9113
  134OSM    C9S14428   3.006   3.454   3.126 -0.1689  0.0211  0.5799
  134OSM    H9S14429   2.931   3.424   3.050 -1.4917  1.2986  1.3410
  134OSM    H9T14430   2.975   3.553   3.166 -0.2995 -0.4374  1.6307
  134OSM   C10S14431   3.009   3.353   3.241 -0.2160 -0.0621  0.1240
  134OSM   H10S14432   3.053   3.255   3.210 -1.2918  0.3374 -3.0215
  134OSM   H10T14433   2.900   3.337   3.256 -0.1892  0.0179  0.3986
  134OSM   C11S14434   3.078   3.410   3.365 -0.6813  0.1298  0.1610
  134OSM   H11S14435   3.076   3.520   3.350 -0.2460 -0.1408 -2.2134
  134OSM   H11T14436   3.184   3.378   3.353 -1.1342 -0.3560 -3.7264
  134OSM   C12S14437   3.013   3.382   3.490  0.6721 -0.6120  0.5269
  134OSM   H12S14438   2.908   3.416   3.484  0.7395 -0.2846  1.1056
  134OSM   H12T14439   3.054   3.454   3.565  0.8295  0.0717 -0.2080
  134OSM   C13S14440   3.014   3.241   3.534 -0.3779  0.5923  0.4686
  134OSM   H13S14441   3.116   3.196   3.535 -1.2280 -1.4609  1.2222
  134OSM   H13T14442   2.977   3.179   3.449  1.6459 -1.5943  1.0679
  134OSM   C14S14443   2.928   3.218   3.663  0.6796  0.3252  0.5676
  134OSM   H14S14444   2.940   3.110   3.689 -0.1695 -0.0320 -0.4178
  134OSM   H14T14445   2.819   3.230   3.647  0.9788  0.4134 -1.9119
  134OSM   C15S14446   2.977   3.300   3.782  0.0878  1.0886  0.2771
  134OSM   H15S14447   2.947   3.404   3.759 -0.6490  0.7644 -0.2402
  134OSM   H15T14448   3.088   3.290   3.788  0.1264 -1.5001 -2.3990
  134OSM   C16S14449   2.909   3.257   3.916  0.1131 -0.3376 -0.1269
  134OSM   H16S14450   2.931   3.149   3.936  2.4227  0.2489  0.9205
  134OSM   H16T14451   2.804   3.269   3.882  0.3750  0.6596 -0.6086
  134OSM   C17S14452   2.952   3.338   4.037  0.5606 -0.1771 -0.4375
  134OSM   H17S14453   2.935   3.446   4.018  3.4511  0.1835 -1.4994
  134OSM   H17T14454   3.060   3.323   4.059  0.2744 -0.5204  0.8039
  134OSM   C18S14455   2.886   3.298   4.171 -0.1102  0.3683 -0.1358
  134OSM   H18S14456   2.951   3.345   4.248  0.6978 -1.0915  0.1057
  134OSM   H18T14457   2.889   3.189   4.191 -0.9495  0.7337  2.1971
  134OSM   H18U14458   2.780   3.328   4.175 -1.0984 -2.8552  0.7607
  134OSM    C1F14459   3.377   3.838   2.516  0.1610  0.2724 -0.2520
  134OSM     OF14460   3.335   3.956   2.532 -0.0542 -0.4860  0.6014
  134OSM    C2F14461   3.528   3.805   2.515 -0.1468 -0.3668  0.6818
  134OSM    H2F14462   3.576   3.894   2.468 -0.9040  0.2383  1.0234
  134OSM    H2G14463   3.566   3.724   2.450  1.4084  0.3914  0.5974
  134OSM    C3F14464   3.597   3.793   2.653  0.4438  0.0280 -0.4545
  134OSM    H3F14465   3.592   3.891   2.703 -0.7072  0.1420 -0.7656
  134OSM    H3G14466   3.705   3.775   2.631 -0.0345 -1.0359 -2.0914
  134OSM    C4F14467   3.564   3.667   2.739  0.1519 -0.2646 -0.9545
  134OSM    H4F14468   3.587   3.583   2.670  2.4680  1.6323 -2.6698
  134OSM    H4G14469   3.455   3.679   2.759  0.2430 -1.6045  0.5273
  134OSM    C5F14470   3.646   3.644   2.871  0.4080  0.6029  0.4126
  134OSM    H5F14471   3.639   3.734   2.936  0.1236  1.3001 -0.5462
  134OSM    H5G14472   3.753   3.642   2.843  0.0288  0.4778 -1.0958
  134OSM    C6F14473   3.608   3.509   2.938  0.2311  0.1791 -0.0161
  134OSM    H6F14474   3.626   3.424   2.868  0.9386  0.8976 -0.7121
  134OSM    H6G14475   3.498   3.511   2.957  0.2057  0.9023 -0.2354
  134OSM    C7F14476   3.687   3.484   3.069  0.3868 -0.1071 -0.5036
  134OSM    H7F14477   3.699   3.573   3.135  0.5028  1.3626 -2.4004
  134OSM    H7G14478   3.791   3.472   3.032  0.0197  0.4718 -1.7749
  134OSM    C8F14479   3.648   3.361   3.149 -0.1225  0.2090 -0.3164
  134OSM    H8F14480   3.736   3.346   3.215 -1.3703 -1.2290  1.0992
  134OSM    H8G14481   3.634   3.268   3.089  0.3446 -0.1156  0.0752
  134OSM    C9F14482   3.521   3.380   3.223  0.2655 -0.5814  0.0270
  134OSM    H9F14483   3.440   3.389   3.149  2.6685 -1.3080 -2.8490
  134OSM   C10F14484   3.505   3.391   3.354 -0.3325  0.5004 -1.0555
  134OSM   H10F14485   3.407   3.399   3.403  0.6670  2.0353  0.8169
  134OSM   C11F14486   3.608   3.366   3.462 -0.1187 -0.4990 -0.8460
  134OSM   H11F14487   3.671   3.456   3.483 -1.6121  0.1078  1.4342
  134OSM   H11G14488   3.684   3.295   3.424  0.4419  0.5057 -1.6643
  134OSM   C12F14489   3.549   3.313   3.594 -0.2488  0.1402  0.4651
  134OSM   H12F14490   3.633   3.280   3.658  2.0392  1.5696 -1.6491
  134OSM   H12G14491   3.481   3.226   3.578  0.5875 -0.3892 -0.2975
  134OSM   C13F14492   3.465   3.422   3.661  0.2217  0.4568  0.9954
  134OSM   H13F14493   3.357   3.429   3.637  0.1704  2.2497  1.6276
  134OSM   H13G14494   3.507   3.519   3.626 -0.0816 -0.4266 -2.1203
  134OSM   C14F14495   3.484   3.421   3.813 -0.3194  0.0899  0.1815
  134OSM   H14F14496   3.592   3.441   3.830 -0.0480 -0.1803 -1.1148
  134OSM   H14G14497   3.453   3.326   3.861 -1.7688  0.6997  0.5062
  134OSM   C15F14498   3.391   3.527   3.875  0.0804  0.5362  0.4245
  134OSM   H15F14499   3.284   3.500   3.861  0.0234  0.9389  0.0716
  134OSM   H15G14500   3.413   3.616   3.812  0.1134 -0.0968 -0.4646
  134OSM   C16F14501   3.422   3.550   4.025  0.5172  0.8599  0.3274
  134OSM   H16F14502   3.527   3.586   4.034  0.2766  1.7384 -0.2670
  134OSM   H16G14503   3.411   3.451   4.074 -0.7300 -0.3443 -2.1923
  134OSM   C17F14504   3.332   3.651   4.085  0.3729 -1.1729 -0.2880
  134OSM   H17F14505   3.228   3.611   4.085 -0.1510  0.1124 -1.2013
  134OSM   H17G14506   3.332   3.748   4.032 -1.5202 -1.3116 -0.6145
  134OSM   C18F14507   3.357   3.686   4.230  0.0397  0.4821  0.2268
  134OSM   H18F14508   3.265   3.679   4.292  0.3203 -3.6702  0.3956
  134OSM   H18G14509   3.396   3.789   4.249  0.9075 -0.0334  1.3477
  134OSM   H18H14510   3.418   3.607   4.279  0.1188  0.1403 -0.4123
  135OSM      N14511   4.699   2.092   1.838  0.2174  0.4231  0.3271
  135OSM    C1514512   4.809   2.186   1.794  0.6318 -0.1820  0.1419
  135OSM   H15A14513   4.818   2.262   1.869  0.7349 -0.0828  0.0306
  135OSM   H15B14514   4.781   2.231   1.700  0.8152 -0.8422 -0.2373
  135OSM   H15C14515   4.902   2.133   1.775  0.2692 -0.7749 -0.0099
  135OSM    C1414516   4.725   1.952   1.788 -0.4597  0.6516 -0.7511
  135OSM   H14A14517   4.645   1.883   1.812  0.5855 -0.3971 -0.1927
  135OSM   H14B14518   4.816   1.915   1.833 -0.0466 -0.0052 -2.0621
  135OSM   H14C14519   4.747   1.958   1.682  0.8326 -0.3395 -0.5550
  135OSM    C1314520   4.691   2.086   1.990 -0.1479 -0.1600 -0.5239
  135OSM   H13A14521   4.663   2.178   2.040 -0.7458 -0.5103 -0.2083
  135OSM   H13B14522   4.784   2.053   2.034 -0.2757  0.3639  0.1559
  135OSM   H13C14523   4.614   2.022   2.031 -1.4092  0.5503 -1.6770
  135OSM    C1214524   4.563   2.133   1.784  0.3643 -0.0018 -0.1480
  135OSM   H12A14525   4.486   2.071   1.827 -1.0733  0.5963 -1.7320
  135OSM   H12B14526   4.557   2.131   1.676 -0.1836  1.8306 -0.1876
  135OSM    C1114527   4.519   2.281   1.826  0.2737  0.0427  0.5675
  135OSM   H11A14528   4.426   2.311   1.773  0.7343 -1.1012 -0.9689
  135OSM   H11B14529   4.592   2.352   1.783  0.4519 -0.4235  0.0934
  135OSM      P14530   4.424   2.412   2.028  0.0186 -0.0087 -0.3317
  135OSM    O1314531   4.496   2.538   2.016 -0.4667 -0.4931  0.1263
  135OSM    O1414532   4.284   2.403   1.986  0.3364  0.2730  1.0680
  135OSM    O1114533   4.413   2.368   2.180  0.1978  0.2561 -0.5835
  135OSM    O1214534   4.513   2.297   1.968  0.1272  0.0093  0.2415
  135OSM    C1S14535   4.534   2.325   2.249  0.5551  0.4038  0.1282
  135OSM    H1S14536   4.604   2.410   2.253 -1.6497  2.3234 -0.0556
  135OSM    H1T14537   4.578   2.239   2.194  2.1248  1.4984 -0.4026
  135OSM     NF14538   4.611   2.219   2.462 -0.1990 -0.0603 -0.4256
  135OSM    HNF14539   4.634   2.125   2.440 -1.8464 -0.5840 -0.1050
  135OSM    C2S14540   4.494   2.269   2.391 -0.6340 -0.5622  0.1873
  135OSM    H2S14541   4.469   2.363   2.445  2.6901  0.4659  0.1831
  135OSM    C3S14542   4.379   2.157   2.395  0.4623 -0.0910  0.9339
  135OSM    H3S14543   4.424   2.081   2.328 -2.3566 -2.0228  1.0535
  135OSM     O314544   4.251   2.184   2.329 -0.1113 -0.2288  0.1218
  135OSM    HO314545   4.265   2.271   2.290  1.9315  0.0939  1.4115
  135OSM    C4S14546   4.358   2.119   2.539 -0.5721  0.2193 -0.0864
  135OSM    H4S14547   4.435   2.065   2.596 -0.3108  0.8081  0.1269
  135OSM    C5S14548   4.256   2.156   2.618  0.0150  0.2684 -0.6298
  135OSM    H5S14549   4.173   2.211   2.571 -1.7044 -0.9607  0.8206
  135OSM    C6S14550   4.249   2.130   2.768 -0.2826  0.8761 -0.1361
  135OSM    H6S14551   4.155   2.073   2.782 -0.2363  0.5127 -1.2513
  135OSM    H6T14552   4.230   2.225   2.823  0.2493 -0.6833  2.9734
  135OSM    C7S14553   4.365   2.071   2.850 -0.1593 -0.4543  0.5514
  135OSM    H7S14554   4.463   2.113   2.820 -1.4378  0.3936 -2.8030
  135OSM    H7T14555   4.370   1.965   2.816  0.4496 -0.2946  0.1260
  135OSM    C8S14556   4.341   2.065   3.004  0.6237  0.2482 -0.0966
  135OSM    H8S14557   4.364   2.164   3.048  1.8021  0.8139 -1.8810
  135OSM    H8T14558   4.421   1.997   3.041  1.6925  2.1480  1.2506
  135OSM    C9S14559   4.202   2.014   3.041 -0.6068  0.0929 -0.3337
  135OSM    H9S14560   4.174   1.929   2.975  1.6524 -1.8303  1.0114
  135OSM    H9T14561   4.121   2.089   3.037 -0.9448 -0.1359  1.3805
  135OSM   C10S14562   4.207   1.950   3.183  0.5519  0.6376 -0.4387
  135OSM   H10S14563   4.291   1.880   3.203  0.1824  0.1527 -0.5487
  135OSM   H10T14564   4.115   1.890   3.198  0.5898  0.6926  0.0318
  135OSM   C11S14565   4.204   2.062   3.288  0.1491  0.3397 -0.3225
  135OSM   H11S14566   4.109   2.120   3.284 -0.3843 -0.5058 -0.1675
  135OSM   H11T14567   4.296   2.123   3.277  1.2842 -1.5083 -1.6154
  135OSM   C12S14568   4.222   2.008   3.438 -0.3711 -0.3158 -0.3910
  135OSM   H12S14569   4.310   1.942   3.457 -0.2864  0.5476  2.6909
  135OSM   H12T14570   4.142   1.934   3.459  1.8161 -2.8007 -0.2626
  135OSM   C13S14571   4.228   2.127   3.535  1.0628  0.2150  0.7937
  135OSM   H13S14572   4.146   2.201   3.524  2.3502  2.0383  2.6368
  135OSM   H13T14573   4.328   2.174   3.538  1.2961 -0.0733 -1.1878
  135OSM   C14S14574   4.192   2.081   3.683  0.2834 -0.1719 -0.2163
  135OSM   H14S14575   4.270   2.008   3.712 -0.3137 -0.0623  1.8207
  135OSM   H14T14576   4.099   2.020   3.685  0.6962 -0.9489 -2.0422
  135OSM   C15S14577   4.180   2.199   3.781 -0.8345 -0.1180  0.0012
  135OSM   H15S14578   4.094   2.259   3.744 -1.1561 -0.7385 -0.2795
  135OSM   H15T14579   4.276   2.255   3.780  0.8021 -2.5814 -3.3532
  135OSM   C16S14580   4.139   2.152   3.918 -0.4791  0.1761  0.1090
  135OSM   H16S14581   4.222   2.086   3.950 -0.7390 -1.0791 -1.6649
  135OSM   H16T14582   4.039   2.105   3.924 -1.1695  1.5161 -0.4555
  135OSM   C17S14583   4.132   2.272   4.018 -0.5625  0.0151  0.5176
  135OSM   H17S14584   4.219   2.340   4.008 -0.6153  0.4956  2.8068
  135OSM   H17T14585   4.149   2.230   4.119  0.6371 -1.8444 -0.4032
  135OSM   C18S14586   4.004   2.346   4.010 -0.3426 -0.7025  0.3116
  135OSM   H18S14587   3.913   2.282   4.016 -1.0932  0.4333  2.2887
  135OSM   H18T14588   4.013   2.408   3.918 -2.8370  2.6497  2.1046
  135OSM   H18U14589   4.010   2.421   4.093  2.5818  1.3425 -1.5569
  135OSM    C1F14590   4.701   2.298   2.527 -0.5208 -0.3929 -0.7228
  135OSM     OF14591   4.688   2.420   2.530  0.3187  0.0937  0.1708
  135OSM    C2F14592   4.815   2.230   2.603 -0.0049 -0.5755  0.4412
  135OSM    H2F14593   4.892   2.309   2.609 -0.3794 -0.1556 -0.2557
  135OSM    H2G14594   4.846   2.133   2.558 -0.6473 -2.1352  3.1253
  135OSM    C3F14595   4.773   2.204   2.749 -0.3735  0.3167 -0.1208
  135OSM    H3F14596   4.675   2.152   2.755 -0.3962  0.4628  0.9839
  135OSM    H3G14597   4.749   2.296   2.806 -4.4953 -2.1331  2.6412
  135OSM    C4F14598   4.881   2.116   2.807  1.2545 -0.1593 -0.4498
  135OSM    H4F14599   4.970   2.180   2.824  1.5169  0.1393 -2.6270
  135OSM    H4G14600   4.905   2.033   2.738  0.4118 -1.4762  0.7809
  135OSM    C5F14601   4.851   2.049   2.934 -0.5260 -0.2264  0.5037
  135OSM    H5F14602   4.938   1.993   2.975  0.7063  0.7845 -0.6422
  135OSM    H5G14603   4.766   1.978   2.925 -1.0429 -0.2231  4.0299
  135OSM    C6F14604   4.813   2.143   3.058  0.1936 -0.2244 -0.4746
  135OSM    H6F14605   4.710   2.184   3.048 -0.5690 -1.7823  0.6008
  135OSM    H6G14606   4.886   2.226   3.047  1.5961 -1.0544  1.8990
  135OSM    C7F14607   4.824   2.078   3.198  0.3589 -0.1539  0.7161
  135OSM    H7F14608   4.912   2.009   3.192 -0.8932 -1.7544  0.0982
  135OSM    H7G14609   4.735   2.015   3.218  1.8722 -2.5100  0.5204
  135OSM    C8F14610   4.834   2.165   3.319  0.3354  0.2011  0.4660
  135OSM    H8F14611   4.907   2.249   3.306 -0.8861  1.0596 -1.2602
  135OSM    H8G14612   4.867   2.104   3.405 -0.5022 -0.4115  0.3600
  135OSM    C9F14613   4.704   2.231   3.341 -0.0855 -0.5279  0.0778
  135OSM    H9F14614   4.650   2.247   3.247  0.6298 -1.2907 -0.4674
  135OSM   C10F14615   4.663   2.288   3.458 -0.1589  0.2374  0.6383
  135OSM   H10F14616   4.557   2.314   3.469 -0.3874 -1.1611  2.0700
  135OSM   C11F14617   4.727   2.278   3.587 -0.1290 -0.1557 -0.6236
  135OSM   H11F14618   4.800   2.359   3.608  0.8785 -0.5901 -2.3007
  135OSM   H11G14619   4.789   2.186   3.591  1.5644  0.8827 -1.8538
  135OSM   C12F14620   4.616   2.263   3.682 -0.0017  0.4143 -0.8671
  135OSM   H12F14621   4.554   2.172   3.664 -0.0059 -0.5114  3.0109
  135OSM   H12G14622   4.546   2.349   3.676  0.8920  1.2065 -0.2150
  135OSM   C13F14623   4.656   2.263   3.826 -0.1058 -0.4529 -0.3443
  135OSM   H13F14624   4.724   2.349   3.846 -1.0579  0.1381  0.4799
  135OSM   H13G14625   4.717   2.172   3.843  0.5191  0.3000  1.8131
  135OSM   C14F14626   4.544   2.274   3.922  0.1768  0.5217 -0.8375
  135OSM   H14F14627   4.489   2.178   3.937  2.4063 -0.5960  0.7140
  135OSM   H14G14628   4.469   2.348   3.887 -0.2268  1.7011  2.2218
  135OSM   C15F14629   4.598   2.298   4.066 -0.1436  0.4540 -0.7404
  135OSM   H15F14630   4.667   2.384   4.071 -0.3859  0.6765  5.1676
  135OSM   H15G14631   4.640   2.199   4.094 -1.1496 -0.1959 -1.4258
  135OSM   C16F14632   4.474   2.322   4.149  0.0115 -0.2968 -0.0243
  135OSM   H16F14633   4.395   2.249   4.121  0.5415 -0.1742 -1.9518
  135OSM   H16G14634   4.436   2.422   4.118  0.4525  0.3042  1.3075
  135OSM   C17F14635   4.495   2.305   4.299 -0.0649 -0.3941 -0.8209
  135OSM   H17F14636   4.410   2.340   4.362 -0.3914 -1.9605 -0.3259
  135OSM   H17G14637   4.592   2.357   4.311  0.6442 -1.1657 -2.8269
  135OSM   C18F14638   4.518   2.156   4.344 -0.1650 -0.1036 -0.0154
  135OSM   H18F14639   4.617   2.133   4.299 -0.1864  0.8214 -0.5487
  135OSM   H18G14640   4.437   2.101   4.291 -1.5911  0.3476  1.6325
  135OSM   H18H14641   4.530   2.150   4.454 -3.4741  3.0741  0.7165
  136OSM      N14642   0.630   4.644   2.107 -0.6817 -0.7275 -0.0423
  136OSM    C1514643   0.737   4.560   2.163  0.2835  0.7399  0.4638
  136OSM   H15A14644   0.816   4.542   2.092 -0.9248 -0.5829 -0.6163
  136OSM   H15B14645   0.698   4.466   2.200 -2.0205  1.5986  0.3700
  136OSM   H15C14646   0.781   4.611   2.248 -2.0548  0.1536  2.1194
  136OSM    C1414647   0.678   4.779   2.062  0.5704  0.2417  0.6249
  136OSM   H14A14648   0.691   4.847   2.145 -0.9280  1.8228 -0.3560
  136OSM   H14B14649   0.594   4.815   2.005  0.6650 -0.6737 -0.1121
  136OSM   H14C14650   0.764   4.784   1.998 -0.1948  1.9164 -0.3380
  136OSM    C1314651   0.578   4.581   1.985  0.6265 -0.7235  0.6359
  136OSM   H13A14652   0.487   4.628   1.949  1.6861 -0.1132 -1.3963
  136OSM   H13B14653   0.551   4.478   2.003 -0.8235 -0.6855 -1.0878
  136OSM   H13C14654   0.645   4.585   1.901  1.5835  0.2420  1.4201
  136OSM    C1214655   0.529   4.668   2.214  0.4321 -0.1124 -0.0496
  136OSM   H12A14656   0.514   4.571   2.259 -1.2643  0.1328 -0.0233
  136OSM   H12B14657   0.438   4.707   2.171  1.6062  2.5424 -0.3424
  136OSM    C1114658   0.575   4.762   2.335 -0.4132 -0.1166  0.0602
  136OSM   H11A14659   0.488   4.752   2.403  0.8212 -0.9304  1.5943
  136OSM   H11B14660   0.591   4.864   2.294  0.8574  0.4794  1.9135
  136OSM      P14661   0.812   4.797   2.421 -0.2152  0.3498  0.4173
  136OSM    O1314662   0.929   4.705   2.438  0.3865 -0.0886  0.3069
  136OSM    O1414663   0.809   4.890   2.314 -0.3344  0.0640 -0.1511
  136OSM    O1114664   0.775   4.872   2.560  0.4372 -0.2002  0.2703
  136OSM    O1214665   0.689   4.707   2.405  0.1388 -0.0581  0.5127
  136OSM    C1S14666   0.786   4.797   2.679 -0.1593  0.3925 -0.6205
  136OSM    H1S14667   0.894   4.788   2.703  0.1385 -0.7023 -2.2405
  136OSM    H1T14668   0.735   4.699   2.680 -1.5460  1.0860  0.1952
  136OSM     NF14669   0.750   4.798   2.921  0.1678  0.6758  0.6264
  136OSM    HNF14670   0.671   4.749   2.958 -1.6473  1.8989 -1.3587
  136OSM    C2S14671   0.730   4.876   2.803 -0.0367  0.3652 -0.1394
  136OSM    H2S14672   0.795   4.966   2.801 -2.5989  2.3162  0.1302
  136OSM    C3S14673   0.581   4.912   2.778 -0.0907 -0.4021 -0.3427
  136OSM    H3S14674   0.531   4.813   2.765 -1.1676  0.1153 -0.2226
  136OSM     O314675   0.555   4.995   2.660 -0.1316  0.3733  0.3462
  136OSM    HO314676   0.629   4.983   2.600 -0.7220  0.8112 -0.4861
  136OSM    C4S14677   0.516   4.983   2.889 -0.1358 -0.7348  0.4135
  136OSM    H4S14678   0.526   5.093   2.893 -0.3262 -0.6681 -0.7007
  136OSM    C5S14679   0.442   4.930   2.986  0.7409  0.7148  0.4569
  136OSM    H5S14680   0.437   4.821   2.998  3.3504  0.6387  1.3470
  136OSM    C6S14681   0.363   5.002   3.106 -0.6691  0.6918 -0.1703
  136OSM    H6S14682   0.370   4.952   3.205 -1.1648  1.9274  0.5188
  136OSM    H6T14683   0.256   5.026   3.086 -0.4087  1.2434 -0.9650
  136OSM    C7S14684   0.427   5.139   3.140 -0.0608 -0.5565  0.2238
  136OSM    H7S14685   0.407   5.215   3.061 -1.5936 -0.2891  0.8286
  136OSM    H7T14686   0.538   5.133   3.132 -0.0129  0.7842 -0.3494
  136OSM    C8S14687   0.408   5.182   3.286  0.2395 -0.4528  0.3259
  136OSM    H8S14688   0.455   5.283   3.288 -1.7765  0.5399  0.1497
  136OSM    H8T14689   0.476   5.121   3.349  2.0413 -1.6641 -2.5815
  136OSM    C9S14690   0.270   5.198   3.347  0.0257 -0.0217 -0.4942
  136OSM    H9S14691   0.209   5.105   3.343  1.9047 -1.2946 -0.8355
  136OSM    H9T14692   0.206   5.276   3.301 -1.6110 -1.5169 -0.8813
  136OSM   C10S14693   0.278   5.218   3.501  0.2367  0.4118  1.2825
  136OSM   H10S14694   0.336   5.312   3.516  2.2015 -0.6541  0.7562
  136OSM   H10T14695   0.331   5.134   3.551 -1.4044 -1.5370 -0.0979
  136OSM   C11S14696   0.136   5.223   3.567  0.8154  0.3891 -0.2588
  136OSM   H11S14697   0.083   5.126   3.556 -1.1158  1.2824  0.7504
  136OSM   H11T14698   0.070   5.291   3.511  1.5642 -1.3454 -3.4609
  136OSM   C12S14699   0.127   5.256   3.714  0.2742  0.2233 -0.1465
  136OSM   H12S14700   0.158   5.361   3.732  1.5753 -0.4585  1.9834
  136OSM   H12T14701   0.199   5.189   3.766 -2.1385 -2.8519 -0.4550
  136OSM   C13S14702  -0.017   5.220   3.761  0.1610  0.1822  0.3421
  136OSM   H13S14703  -0.054   5.115   3.751 -1.7831  0.9120 -0.7281
  136OSM   H13T14704  -0.084   5.274   3.691  1.3810  1.3024  0.0157
  136OSM   C14S14705  -0.054   5.258   3.905 -0.0590 -0.3794  0.1581
  136OSM   H14S14706  -0.084   5.364   3.916 -0.3540 -0.5830  1.4818
  136OSM   H14T14707   0.038   5.242   3.965  2.3447  0.2676 -3.0686
  136OSM   C15S14708  -0.162   5.156   3.957 -0.4409 -0.0971 -0.3745
  136OSM   H15S14709  -0.105   5.060   3.957  2.4906  1.4923 -1.6607
  136OSM   H15T14710  -0.248   5.165   3.888  0.2551  2.0259 -1.0299
  136OSM   C16S14711  -0.211   5.192   4.097 -0.2559 -0.0246  0.8848
  136OSM   H16S14712  -0.127   5.206   4.167 -0.2974 -3.5947  1.8798
  136OSM   H16T14713  -0.279   5.115   4.139 -1.2992  0.6652  0.5099
  136OSM   C17S14714  -0.290   5.323   4.096 -0.0900  0.4993  0.1898
  136OSM   H17S14715  -0.370   5.299   4.023 -0.1455 -1.8371  0.9245
  136OSM   H17T14716  -0.238   5.415   4.061  2.1976  0.2852  2.7630
  136OSM   C18S14717  -0.341   5.356   4.234  0.3270 -0.2663  0.1615
  136OSM   H18S14718  -0.269   5.402   4.304  1.1930 -0.0375 -0.8593
  136OSM   H18T14719  -0.380   5.260   4.276 -1.1132  0.8794  1.5640
  136OSM   H18U14720  -0.434   5.416   4.223  1.4945  1.4239 -1.1006
  136OSM    C1F14721   0.864   4.792   2.982 -0.2235  0.7101 -0.2933
  136OSM     OF14722   0.969   4.829   2.933 -0.1533  0.2194 -0.1550
  136OSM    C2F14723   0.866   4.748   3.125  0.4968 -0.4627  0.5763
  136OSM    H2F14724   0.816   4.650   3.136 -1.6561  0.3941 -0.8767
  136OSM    H2G14725   0.795   4.813   3.180 -1.5771 -1.6104 -0.6037
  136OSM    C3F14726   1.008   4.733   3.187 -0.7798  0.2486 -0.6680
  136OSM    H3F14727   1.057   4.831   3.203 -0.2066  0.4261 -3.1244
  136OSM    H3G14728   1.072   4.675   3.116 -0.3206  0.8876 -0.7876
  136OSM    C4F14729   1.004   4.678   3.327 -0.3383  0.0940  0.5436
  136OSM    H4F14730   1.111   4.682   3.357 -0.1773 -2.8299  0.6254
  136OSM    H4G14731   0.987   4.568   3.323  3.3881 -0.6856  2.0945
  136OSM    C5F14732   0.943   4.772   3.426  0.7469 -0.1236  0.1552
  136OSM    H5F14733   0.834   4.756   3.442  1.2898 -2.6064  1.8351
  136OSM    H5G14734   0.956   4.875   3.385 -2.5738  0.1127 -0.6067
  136OSM    C6F14735   1.002   4.774   3.569 -0.1879 -0.0193 -0.0520
  136OSM    H6F14736   1.113   4.780   3.565 -0.0877 -0.5243  1.3963
  136OSM    H6G14737   0.987   4.671   3.609  2.2385 -0.1035  0.7982
  136OSM    C7F14738   0.929   4.874   3.657  0.4534  0.2746 -0.5273
  136OSM    H7F14739   0.820   4.869   3.638  0.5530 -1.5045 -0.8065
  136OSM    H7G14740   0.963   4.975   3.626 -1.5386  1.0144 -0.4093
  136OSM    C8F14741   0.961   4.837   3.805 -0.7911 -0.6046  0.6906
  136OSM    H8F14742   1.068   4.833   3.834 -0.7136  4.2357  1.9919
  136OSM    H8G14743   0.910   4.743   3.835 -0.9226 -0.6783  0.2406
  136OSM    C9F14744   0.907   4.949   3.891  0.6885 -1.0674  0.2840
  136OSM    H9F14745   0.839   5.021   3.843  1.1238 -1.2203 -0.5824
  136OSM   C10F14746   0.929   4.968   4.027  0.5167 -0.0768  0.2479
  136OSM   H10F14747   0.870   5.044   4.079  0.6968 -0.0628  0.4307
  136OSM   C11F14748   1.022   4.886   4.106 -0.1379  0.1636  0.1053
  136OSM   H11F14749   1.112   4.861   4.045 -1.0317  0.0001 -1.1828
  136OSM   H11G14750   0.982   4.786   4.129 -1.8087  1.0799  1.4012
  136OSM   C12F14751   1.057   4.947   4.242  0.5761  0.0205  0.0983
  136OSM   H12F14752   0.972   4.961   4.312 -0.2353  1.2681 -1.0755
  136OSM   H12G14753   1.109   5.045   4.244  1.9569 -0.6754 -0.4512
  136OSM   C13F14754   1.157   4.868   4.323 -1.0334  0.2792  0.0763
  136OSM   H13F14755   1.246   4.849   4.259 -2.0893 -1.6256 -0.9007
  136OSM   H13G14756   1.116   4.768   4.346 -0.5810 -0.2237 -1.2253
  136OSM   C14F14757   1.204   4.952   4.449  0.2872 -0.0845  0.7902
  136OSM   H14F14758   1.115   4.943   4.516  0.0519 -2.1082  0.2666
  136OSM   H14G14759   1.205   5.061   4.429  2.1558  0.3288  2.7056
  136OSM   C15F14760   1.324   4.898   4.525 -0.5767 -0.1883  0.4108
  136OSM   H15F14761   1.350   4.972   4.604 -1.8432 -0.4833  1.1208
  136OSM   H15G14762   1.411   4.897   4.456 -0.6526  0.9283  0.2851
  136OSM   C16F14763   1.312   4.758   4.575  0.1262 -0.8754 -0.4795
  136OSM   H16F14764   1.409   4.705   4.591 -0.1395 -0.5370  2.9718
  136OSM   H16G14765   1.261   4.706   4.491  0.3243  3.2093 -3.3984
  136OSM   C17F14766   1.233   4.757   4.707 -0.6697  0.4641  0.2010
  136OSM   H17F14767   1.132   4.800   4.691  0.1770  1.9593 -1.5913
  136OSM   H17G14768   1.274   4.831   4.779 -0.8628  1.2747 -0.5030
  136OSM   C18F14769   1.225   4.617   4.759  0.5248  0.5336 -0.1574
  136OSM   H18F14770   1.326   4.569   4.752 -0.1484 -1.1300  0.9235
  136OSM   H18G14771   1.154   4.558   4.697 -0.6691  1.7513  0.0224
  136OSM   H18H14772   1.195   4.623   4.865  2.3834 -0.8541  0.5048
  137OSM      N14773   5.926   2.680   1.898  0.5270  0.2367  0.0279
  137OSM    C1514774   6.023   2.757   1.814 -0.0127 -0.3603  0.2765
  137OSM   H15A14775   6.050   2.845   1.872 -0.8780 -0.9662  1.6638
  137OSM   H15B14776   5.986   2.791   1.719  0.4067 -1.1832 -0.1935
  137OSM   H15C14777   6.115   2.704   1.792  0.8581  1.6936 -1.3581
  137OSM    C1414778   5.803   2.768   1.902 -0.4499  0.3285 -0.6408
  137OSM   H14A14779   5.731   2.731   1.973  0.8773  2.2934  1.8967
  137OSM   H14B14780   5.770   2.791   1.802  0.4942  1.4759 -0.7135
  137OSM   H14C14781   5.823   2.865   1.945  1.2181  0.3168 -1.3233
  137OSM    C1314782   5.895   2.560   1.826  0.1914 -0.0756 -0.3213
  137OSM   H13A14783   5.853   2.484   1.891  2.8457  0.2861  2.0337
  137OSM   H13B14784   5.978   2.518   1.771 -1.5547 -1.8537 -1.7377
  137OSM   H13C14785   5.819   2.581   1.752 -0.2887  1.0536  0.4758
  137OSM    C1214786   5.981   2.664   2.036  0.5237 -0.5458 -0.6309
  137OSM   H12A14787   6.028   2.756   2.068 -0.8312 -0.4705  1.3059
  137OSM   H12B14788   6.061   2.593   2.023  1.0524  0.2102 -1.6703
  137OSM    C1114789   5.896   2.614   2.153 -0.0078 -0.6333  0.7001
  137OSM   H11A14790   5.812   2.679   2.185 -0.0925 -0.3951  0.0029
  137OSM   H11B14791   5.961   2.617   2.243 -0.1632  1.7744  0.7886
  137OSM      P14792   5.914   2.358   2.165 -0.2214 -0.2670 -0.3410
  137OSM    O1314793   5.918   2.274   2.045 -0.3878  0.4276 -0.1233
  137OSM    O1414794   6.042   2.387   2.233 -0.0677 -0.3298 -0.3735
  137OSM    O1114795   5.822   2.291   2.277  0.6735 -0.3642 -0.1444
  137OSM    O1214796   5.836   2.487   2.125 -0.6825  0.3216 -0.2851
  137OSM    C1S14797   5.728   2.378   2.357  0.6305 -0.4205 -0.0279
  137OSM    H1S14798   5.630   2.381   2.304 -0.7608  0.3459  2.4231
  137OSM    H1T14799   5.759   2.484   2.370  0.4454 -0.4658  0.8080
  137OSM     NF14800   5.580   2.384   2.561 -0.0078 -0.2260 -0.1248
  137OSM    HNF14801   5.602   2.474   2.598  1.9552 -0.9006  0.4906
  137OSM    C2S14802   5.703   2.324   2.506  0.2273  0.1216  0.1597
  137OSM    H2S14803   5.679   2.216   2.502 -1.2196  0.4714 -1.7548
  137OSM    C3S14804   5.839   2.346   2.577  0.2967 -0.0404 -0.1673
  137OSM    H3S14805   5.852   2.455   2.591 -2.1324  0.2789  0.0673
  137OSM     O314806   5.958   2.304   2.512 -0.5669 -0.3562  0.2202
  137OSM    HO314807   5.945   2.294   2.417  3.1684  1.1093 -0.6337
  137OSM    C4S14808   5.828   2.301   2.724 -0.1239 -0.6571 -0.0925
  137OSM    H4S14809   5.749   2.358   2.777 -0.6916 -2.1175  0.6794
  137OSM    C5S14810   5.872   2.181   2.767 -0.4260 -1.0300  0.4141
  137OSM    H5S14811   5.923   2.117   2.693  0.2050 -0.6885  0.5517
  137OSM    C6S14812   5.843   2.111   2.898 -0.7101  0.5624 -0.2964
  137OSM    H6S14813   5.934   2.089   2.957 -0.4527  0.9900 -0.5302
  137OSM    H6T14814   5.793   2.014   2.878  1.2298 -0.5350  0.0007
  137OSM    C7S14815   5.742   2.194   2.978  0.1643  0.1207  0.1554
  137OSM    H7S14816   5.645   2.204   2.925  0.4308 -0.6280 -0.4911
  137OSM    H7T14817   5.775   2.300   2.985 -0.9119  0.5042 -0.3545
  137OSM    C8S14818   5.721   2.134   3.121  0.2404 -0.5498 -0.6922
  137OSM    H8S14819   5.711   2.023   3.115  0.7393 -0.6508  0.1636
  137OSM    H8T14820   5.628   2.174   3.168  0.8263  0.2844 -0.2226
  137OSM    C9S14821   5.841   2.158   3.217  0.6280  0.5852 -0.9958
  137OSM    H9S14822   5.867   2.266   3.224 -1.0003  1.1149 -2.4005
  137OSM    H9T14823   5.929   2.099   3.182  1.3409  1.6466 -1.0441
  137OSM   C10S14824   5.800   2.111   3.357 -0.0683 -1.1050  0.1148
  137OSM   H10S14825   5.885   2.048   3.391  1.5908  1.3751  0.8366
  137OSM   H10T14826   5.705   2.056   3.341 -0.5750  0.0992 -1.2462
  137OSM   C11S14827   5.774   2.217   3.474  0.5562 -0.3007 -0.6180
  137OSM   H11S14828   5.678   2.266   3.447  0.6034 -0.2208 -0.6411
  137OSM   H11T14829   5.859   2.289   3.480  0.7126 -0.4622 -0.8914
  137OSM   C12S14830   5.748   2.153   3.610 -0.6715 -0.1924  0.1520
  137OSM   H12S14831   5.844   2.130   3.662  0.1203  1.9860 -0.2521
  137OSM   H12T14832   5.701   2.053   3.602 -0.2064 -0.6242  2.1890
  137OSM   C13S14833   5.663   2.254   3.686  0.1777  1.2467  0.2183
  137OSM   H13S14834   5.578   2.274   3.618  1.8771 -0.3035 -2.5755
  137OSM   H13T14835   5.716   2.351   3.689 -0.5782  2.0883 -4.7268
  137OSM   C14S14836   5.610   2.206   3.824 -0.6117 -0.0500  0.2906
  137OSM   H14S14837   5.567   2.105   3.809 -2.4094  0.8063 -0.6608
  137OSM   H14T14838   5.526   2.273   3.852  0.7051  1.0458  1.7919
  137OSM   C15S14839   5.709   2.208   3.941  0.3132 -0.1205  0.3437
  137OSM   H15S14840   5.767   2.303   3.941 -0.0073  0.0759  0.2055
  137OSM   H15T14841   5.779   2.122   3.930 -0.8160 -0.8232 -2.1288
  137OSM   C16S14842   5.634   2.199   4.072 -0.3728  0.4125 -0.4417
  137OSM   H16S14843   5.555   2.276   4.088  1.3405  1.7515  2.3027
  137OSM   H16T14844   5.708   2.226   4.151 -1.7151 -0.4528  1.1472
  137OSM   C17S14845   5.585   2.054   4.113 -0.6865 -0.4590  0.4044
  137OSM   H17S14846   5.679   1.994   4.111 -0.8665 -0.7261 -0.1432
  137OSM   H17T14847   5.518   2.018   4.033 -3.8739  0.6757  2.3850
  137OSM   C18S14848   5.522   2.046   4.249  0.3092 -0.0981  0.7373
  137OSM   H18S14849   5.581   2.063   4.342  0.7846  0.8587  0.2705
  137OSM   H18T14850   5.470   1.948   4.256 -1.9463  0.8708 -1.1812
  137OSM   H18U14851   5.441   2.121   4.251  0.1628  0.1281 -3.8684
  137OSM    C1F14852   5.456   2.346   2.535 -0.1574 -0.5640  0.3966
  137OSM     OF14853   5.436   2.247   2.467  0.3250  0.1300  0.0774
  137OSM    C2F14854   5.340   2.430   2.587  0.1258 -0.0248 -0.6597
  137OSM    H2F14855   5.302   2.482   2.497 -0.9332  1.2808  0.5065
  137OSM    H2G14856   5.374   2.501   2.665  0.0164 -0.9858  0.2773
  137OSM    C3F14857   5.226   2.335   2.638  0.1610 -0.7120 -0.3585
  137OSM    H3F14858   5.193   2.271   2.554 -0.9796 -1.5370  0.6874
  137OSM    H3G14859   5.142   2.397   2.676  2.2515  2.0064  0.1410
  137OSM    C4F14860   5.268   2.243   2.748  0.5548  0.1127 -0.0123
  137OSM    H4F14861   5.343   2.170   2.710 -0.9214 -0.7081 -1.4764
  137OSM    H4G14862   5.184   2.176   2.777  1.8339 -2.1189 -1.2027
  137OSM    C5F14863   5.300   2.322   2.878 -0.1782 -0.1186 -0.1102
  137OSM    H5F14864   5.221   2.392   2.913  0.1254  0.1669  0.0142
  137OSM    H5G14865   5.396   2.378   2.869 -0.8850  0.7885 -3.4063
  137OSM    C6F14866   5.301   2.224   2.995 -0.2891  1.0261  0.8248
  137OSM    H6F14867   5.381   2.150   2.973  0.8787  2.3974  0.3015
  137OSM    H6G14868   5.208   2.165   3.001 -0.1500  0.7460  0.2435
  137OSM    C7F14869   5.333   2.283   3.131 -0.3215 -0.0639 -0.5230
  137OSM    H7F14870   5.251   2.356   3.152  0.5475  0.7143  0.2799
  137OSM    H7G14871   5.421   2.351   3.125  0.5733 -0.8242  2.4262
  137OSM    C8F14872   5.358   2.179   3.242 -0.2139 -0.1645  0.6172
  137OSM    H8F14873   5.425   2.222   3.319  1.0670 -0.7706 -0.1330
  137OSM    H8G14874   5.416   2.098   3.194  0.7234  1.5940 -1.3559
  137OSM    C9F14875   5.228   2.124   3.304  0.5054  0.4968  0.5677
  137OSM    H9F14876   5.152   2.083   3.236 -2.0193  1.4383  2.6558
  137OSM   C10F14877   5.201   2.126   3.438 -0.0041  0.1126  0.2401
  137OSM   H10F14878   5.114   2.069   3.472  0.4291 -1.2978 -0.8694
  137OSM   C11F14879   5.300   2.165   3.544  0.1147 -0.2164 -0.3407
  137OSM   H11F14880   5.403   2.153   3.504 -0.8026  0.7268 -3.2225
  137OSM   H11G14881   5.282   2.091   3.624  0.2190  1.4271  1.2737
  137OSM   C12F14882   5.273   2.311   3.599 -0.2420 -0.1331  0.6121
  137OSM   H12F14883   5.278   2.378   3.510  0.8876 -1.4210 -0.3431
  137OSM   H12G14884   5.357   2.354   3.656  0.0068 -0.8677  0.8159
  137OSM   C13F14885   5.152   2.315   3.684 -0.2603  0.0624  0.1354
  137OSM   H13F14886   5.069   2.256   3.639 -0.4101 -0.6006  1.2530
  137OSM   H13G14887   5.122   2.421   3.700 -3.4446 -0.7749  0.2111
  137OSM   C14F14888   5.178   2.276   3.836 -0.0530  0.3357 -0.3439
  137OSM   H14F14889   5.263   2.338   3.872  0.1272  0.0395 -0.2560
  137OSM   H14G14890   5.210   2.174   3.866 -0.6420  0.4258  0.6284
  137OSM   C15F14891   5.052   2.302   3.918 -0.1840  0.1827  0.0384
  137OSM   H15F14892   4.971   2.227   3.899 -4.0899  3.9477  0.3747
  137OSM   H15G14893   4.996   2.393   3.888  1.3687  1.3587  0.5834
  137OSM   C16F14894   5.078   2.321   4.067  0.4448 -0.0509  0.4021
  137OSM   H16F14895   5.120   2.421   4.093  2.4248 -1.2256  2.0326
  137OSM   H16G14896   5.167   2.263   4.097  1.4420  1.7661  1.1403
  137OSM   C17F14897   4.969   2.295   4.170  0.7897 -0.4059  0.4036
  137OSM   H17F14898   4.882   2.363   4.155  1.6055  0.7481  0.7480
  137OSM   H17G14899   5.004   2.306   4.275  1.8012 -1.2126  0.1618
  137OSM   C18F14900   4.930   2.145   4.169 -0.2749 -0.7390  0.1403
  137OSM   H18F14901   4.870   2.125   4.260  0.2519 -0.1114  0.6292
  137OSM   H18G14902   5.021   2.081   4.166 -0.5541 -1.1890  0.9014
  137OSM   H18H14903   4.864   2.120   4.083 -2.2501  1.4605  0.9054
  138OSM      N14904   4.102   4.019   2.229 -1.2791  0.3060 -0.0911
  138OSM    C1514905   4.039   4.041   2.361  0.1457  0.7214  1.0104
  138OSM   H15A14906   3.942   3.994   2.357  1.0323 -1.3235  2.2926
  138OSM   H15B14907   4.022   4.146   2.382 -1.8351  0.6314  0.1486
  138OSM   H15C14908   4.092   3.980   2.432 -0.1584 -0.7051  0.0482
  138OSM    C1414909   4.251   4.043   2.240  0.2812 -0.2954 -0.8507
  138OSM   H14A14910   4.303   4.002   2.155  1.1767 -1.2686  0.1307
  138OSM   H14B14911   4.285   4.005   2.336  0.0316 -0.0132 -0.6491
  138OSM   H14C14912   4.253   4.151   2.241  0.4780 -0.2825 -1.9511
  138OSM    C1314913   4.093   3.869   2.195  0.4314 -0.6625 -0.3770
  138OSM   H13A14914   3.987   3.848   2.204 -0.0811  2.5321  4.4658
  138OSM   H13B14915   4.145   3.807   2.266  0.5171  0.1858  0.3169
  138OSM   H13C14916   4.129   3.835   2.099  0.8029  1.0081 -0.8651
  138OSM    C1214917   4.045   4.102   2.125  0.3443 -0.6569  0.6826
  138OSM   H12A14918   4.098   4.085   2.033 -0.2013  0.4894  0.1307
  138OSM   H12B14919   4.073   4.203   2.148  0.5184 -0.3357 -0.8648
  138OSM    C1114920   3.891   4.112   2.086  1.1059  0.1764 -0.2856
  138OSM   H11A14921   3.867   4.019   2.031  1.1668  0.1645 -0.2919
  138OSM   H11B14922   3.873   4.185   2.004  0.2885  1.7627  1.2362
  138OSM      P14923   3.788   4.286   2.255 -0.5756  0.5049  0.0243
  138OSM    O1314924   3.902   4.330   2.337 -0.2756 -0.6413  0.6769
  138OSM    O1414925   3.735   4.375   2.150  0.3232  0.2171 -0.3385
  138OSM    O1114926   3.661   4.253   2.350 -0.2028  0.3257  1.2244
  138OSM    O1214927   3.810   4.144   2.198 -0.0985  0.5954  0.0782
  138OSM    C1S14928   3.674   4.170   2.468  0.8213 -0.1702 -0.0845
  138OSM    H1S14929   3.755   4.094   2.463  1.9766  0.5089  4.2808
  138OSM    H1T14930   3.573   4.123   2.478 -0.4564  2.2784 -0.7450
  138OSM     NF14931   3.706   4.170   2.708 -0.5785 -0.2027 -0.7480
  138OSM    HNF14932   3.621   4.147   2.754 -0.1071  0.0888  0.3050
  138OSM    C2S14933   3.701   4.258   2.595  0.4959  0.3083 -0.1427
  138OSM    H2S14934   3.801   4.305   2.583  0.8865 -0.6910 -0.9916
  138OSM    C3S14935   3.587   4.365   2.611 -0.1796 -0.1313 -0.2435
  138OSM    H3S14936   3.492   4.311   2.630  0.0405 -0.8525 -1.1174
  138OSM     O314937   3.569   4.445   2.495  0.3737  0.3219 -0.8544
  138OSM    HO314938   3.630   4.401   2.435  3.1191  3.0517 -0.2777
  138OSM    C4S14939   3.602   4.450   2.740 -0.0497  0.0542  0.9025
  138OSM    H4S14940   3.663   4.541   2.727  3.1474 -1.7702  1.8362
  138OSM    C5S14941   3.536   4.425   2.859  0.2644 -0.4734  0.3286
  138OSM    H5S14942   3.471   4.338   2.873  2.5193 -1.8909  2.7639
  138OSM    C6S14943   3.556   4.518   2.977 -0.2743  0.6774 -0.3575
  138OSM    H6S14944   3.469   4.583   3.000 -1.4469 -0.6873 -0.7780
  138OSM    H6T14945   3.651   4.575   2.970 -0.0805  0.7361  1.8878
  138OSM    C7S14946   3.568   4.443   3.110 -1.0218  0.6448  0.2109
  138OSM    H7S14947   3.662   4.385   3.121 -0.9415  1.0603  1.9564
  138OSM    H7T14948   3.488   4.368   3.126  0.3564 -1.0397 -0.4459
  138OSM    C8S14949   3.564   4.542   3.221  0.3826  0.3741  0.0388
  138OSM    H8S14950   3.467   4.595   3.209 -0.4313  0.0607  3.7341
  138OSM    H8T14951   3.652   4.609   3.222 -0.0922  1.0434 -1.4388
  138OSM    C9S14952   3.574   4.476   3.356 -0.0051  0.0007  0.8165
  138OSM    H9S14953   3.654   4.399   3.346  0.8752  1.0821 -1.0059
  138OSM    H9T14954   3.479   4.422   3.374 -0.4777  0.8609  0.9372
  138OSM   C10S14955   3.607   4.560   3.480  0.0393 -0.0271  0.6695
  138OSM   H10S14956   3.542   4.650   3.490 -0.0350 -0.1453  1.2806
  138OSM   H10T14957   3.708   4.603   3.460 -0.1905  0.2049  0.0085
  138OSM   C11S14958   3.608   4.476   3.611 -0.3948 -0.4444  0.3858
  138OSM   H11S14959   3.654   4.541   3.688 -0.9356 -1.3468  1.4970
  138OSM   H11T14960   3.675   4.387   3.614  0.2310  0.0381  2.3304
  138OSM   C12S14961   3.467   4.447   3.672  0.6423 -0.2209 -0.1175
  138OSM   H12S14962   3.408   4.383   3.603 -2.0888  0.6748  1.2560
  138OSM   H12T14963   3.420   4.547   3.680  0.5591 -0.3625  1.4264
  138OSM   C13S14964   3.477   4.389   3.814  0.0798 -0.7591 -0.0611
  138OSM   H13S14965   3.546   4.436   3.886  2.1239 -1.9693 -1.1494
  138OSM   H13T14966   3.517   4.286   3.824  1.1638 -0.2662  0.8125
  138OSM   C14S14967   3.339   4.373   3.891 -0.2553  0.5234  0.1007
  138OSM   H14S14968   3.278   4.302   3.831  0.4126 -0.1691  0.2314
  138OSM   H14T14969   3.286   4.471   3.891  2.8721  2.4304 -2.8980
  138OSM   C15S14970   3.375   4.321   4.033 -0.1985 -0.3816 -0.0976
  138OSM   H15S14971   3.444   4.399   4.073 -1.2355  1.1046 -1.0964
  138OSM   H15T14972   3.429   4.225   4.020 -0.1214 -0.3711  0.1280
  138OSM   C16S14973   3.255   4.314   4.127  0.2254 -0.4962  0.0059
  138OSM   H16S14974   3.162   4.281   4.076 -0.7068 -0.4644  1.6090
  138OSM   H16T14975   3.215   4.414   4.153 -1.1627 -0.6803 -1.3014
  138OSM   C17S14976   3.292   4.238   4.258 -0.5447 -0.2022  0.4040
  138OSM   H17S14977   3.206   4.258   4.325  0.1700  0.2243  1.2213
  138OSM   H17T14978   3.384   4.287   4.298 -0.0689  0.5266 -1.4872
  138OSM   C18S14979   3.308   4.088   4.252  0.3505  0.2926 -0.4987
  138OSM   H18S14980   3.212   4.032   4.241  1.3198 -0.9300 -4.0578
  138OSM   H18T14981   3.340   4.066   4.356  0.6408 -1.0291 -0.8417
  138OSM   H18U14982   3.385   4.050   4.182  0.1002 -0.6610 -0.2756
  138OSM    C1F14983   3.810   4.092   2.731  0.0627 -0.2845 -0.1735
  138OSM     OF14984   3.903   4.090   2.652  0.3067 -0.0742 -0.4800
  138OSM    C2F14985   3.805   4.007   2.856  0.1787 -0.4105 -0.7497
  138OSM    H2F14986   3.807   3.901   2.822  2.2127 -0.5298 -0.3842
  138OSM    H2G14987   3.712   4.018   2.915  0.1598  1.2840 -1.0526
  138OSM    C3F14988   3.924   4.049   2.940 -0.3129  0.0758  0.6982
  138OSM    H3F14989   3.906   4.154   2.973  0.4838  0.1732  0.8538
  138OSM    H3G14990   4.014   4.051   2.874 -0.3291 -0.2616  0.6679
  138OSM    C4F14991   3.950   3.958   3.056 -0.4003  0.3429  0.4044
  138OSM    H4F14992   4.048   3.979   3.105 -1.2013  0.1730  2.1708
  138OSM    H4G14993   3.960   3.853   3.021 -0.3597  0.6005 -0.3817
  138OSM    C5F14994   3.839   3.968   3.168 -0.5902  0.0836 -0.1311
  138OSM    H5F14995   3.746   3.932   3.119 -0.9911 -0.5792  1.0579
  138OSM    H5G14996   3.816   4.069   3.207  1.1785  1.0946 -1.5701
  138OSM    C6F14997   3.852   3.866   3.277 -0.1173  0.1095 -0.0945
  138OSM    H6F14998   3.942   3.897   3.334 -1.3929  0.4165  1.8470
  138OSM    H6G14999   3.867   3.765   3.231  2.9374 -0.3503  1.6433
  138OSM    C7F15000   3.732   3.873   3.377 -0.1008  0.4471  0.5642
  138OSM    H7F15001   3.645   3.835   3.319  1.3199 -1.1363 -0.6373
  138OSM    H7G15002   3.706   3.977   3.407 -0.6549  0.0731  1.4351
  138OSM    C8F15003   3.752   3.791   3.504  0.5663  1.0111 -0.2979
  138OSM    H8F15004   3.835   3.839   3.562 -0.0851  1.6694  0.1052
  138OSM    H8G15005   3.798   3.691   3.484 -1.2496  0.4707 -1.9901
  138OSM    C9F15006   3.628   3.778   3.595 -0.1154  0.0717  0.3970
  138OSM    H9F15007   3.548   3.706   3.571 -1.7763  1.9103  0.1852
  138OSM   C10F15008   3.604   3.862   3.703  0.1277 -0.1723  0.3443
  138OSM   H10F15009   3.505   3.848   3.750 -0.6831 -0.6554 -1.4460
  138OSM   C11F15010   3.691   3.975   3.764 -0.0630  0.1537 -0.0578
  138OSM   H11F15011   3.659   4.071   3.719 -1.4974 -0.6482 -0.8074
  138OSM   H11G15012   3.798   3.957   3.738 -0.4838  0.4689 -2.1963
  138OSM   C12F15013   3.671   4.000   3.914  0.0491 -0.0487  0.4314
  138OSM   H12F15014   3.570   4.042   3.932 -0.0616  1.2824 -2.6004
  138OSM   H12G15015   3.743   4.084   3.927 -0.7349  0.5778  0.7886
  138OSM   C13F15016   3.699   3.877   4.006  0.5928 -0.9981 -0.6115
  138OSM   H13F15017   3.806   3.846   4.004  1.1266  0.7899 -1.0118
  138OSM   H13G15018   3.633   3.799   3.963 -1.6345  0.9618 -0.8986
  138OSM   C14F15019   3.673   3.908   4.158 -0.3138 -0.0383  0.5105
  138OSM   H14F15020   3.721   3.826   4.215  0.5420 -0.0175 -0.1460
  138OSM   H14G15021   3.562   3.902   4.158 -0.6226  1.8148 -3.3697
  138OSM   C15F15022   3.722   4.044   4.205 -0.1573 -0.5251  0.3080
  138OSM   H15F15023   3.682   4.043   4.309 -1.3826  0.3125 -0.1282
  138OSM   H15G15024   3.674   4.132   4.157  1.8845 -0.0514 -0.9706
  138OSM   C16F15025   3.878   4.066   4.214  0.5144  0.9608 -0.0916
  138OSM   H16F15026   3.933   3.970   4.223 -1.9889 -0.4005  1.9175
  138OSM   H16G15027   3.910   4.123   4.304 -1.4790 -0.3623  1.5403
  138OSM   C17F15028   3.933   4.143   4.090 -0.2010 -0.1832 -0.1001
  138OSM   H17F15029   3.853   4.213   4.054  1.9910  1.8264 -1.3386
  138OSM   H17G15030   3.950   4.079   4.001 -0.1796  0.1127 -0.3117
  138OSM   C18F15031   4.068   4.206   4.114  0.0118  0.7235 -0.5020
  138OSM   H18F15032   4.138   4.121   4.127  0.3732  0.9844 -0.7346
  138OSM   H18G15033   4.076   4.266   4.207  5.7538 -0.9002  0.4487
  138OSM   H18H15034   4.094   4.269   4.027 -1.4218  3.3774  0.8683
  139OSM      N15035   0.002   3.083   2.375  0.4980 -0.5864  0.2572
  139OSM    C1515036  -0.019   3.220   2.436 -0.4435  0.2798 -0.5539
  139OSM   H15A15037  -0.124   3.243   2.446 -1.1717 -2.3963 -1.2280
  139OSM   H15B15038   0.009   3.295   2.362 -2.5620  0.1919 -1.5144
  139OSM   H15C15039   0.033   3.228   2.530  0.4708  0.1497 -1.0373
  139OSM    C1415040  -0.042   3.081   2.230  0.4152  0.3937  0.3584
  139OSM   H14A15041  -0.042   2.978   2.198  2.3458  1.0541 -2.0524
  139OSM   H14B15042   0.026   3.140   2.171  0.8586 -1.8825 -1.5674
  139OSM   H14C15043  -0.142   3.119   2.216  0.0161  0.0046  1.8999
  139OSM    C1315044   0.144   3.057   2.390 -0.3024 -0.3966 -0.3993
  139OSM   H13A15045   0.176   2.958   2.359  0.2968 -0.5591  0.6807
  139OSM   H13B15046   0.170   3.063   2.495 -0.3685  1.2950 -0.4499
  139OSM   H13C15047   0.196   3.135   2.337  0.3276 -0.3001  0.3426
  139OSM    C1215048  -0.068   2.970   2.462  0.0997  0.1263  0.3303
  139OSM   H12A15049  -0.167   3.002   2.491 -1.0553 -2.7267 -0.1266
  139OSM   H12B15050  -0.012   2.967   2.555 -1.5337  0.8549  1.3952
  139OSM    C1115051  -0.088   2.834   2.396  0.1044 -0.6336  0.4037
  139OSM   H11A15052  -0.110   2.758   2.474  2.6259  0.5088  2.3644
  139OSM   H11B15053   0.007   2.796   2.355  0.3043 -0.5926  0.8226
  139OSM      P15054  -0.344   2.825   2.321  0.0544 -0.1198 -0.0075
  139OSM    O1315055  -0.405   2.919   2.224 -0.4154 -0.1168 -1.0617
  139OSM    O1415056  -0.375   2.682   2.305  0.0127  0.5165 -0.0111
  139OSM    O1115057  -0.359   2.868   2.476  0.0614  0.2434 -0.0056
  139OSM    O1215058  -0.186   2.837   2.296 -0.0312 -0.0210 -0.3691
  139OSM    C1S15059  -0.415   2.768   2.563  0.5381 -0.3312  0.0388
  139OSM    H1S15060  -0.418   2.664   2.525 -2.6277  0.0134 -0.9210
  139OSM    H1T15061  -0.520   2.802   2.576  0.0871 -0.8953 -1.9273
  139OSM     NF15062  -0.417   2.684   2.793 -0.3346 -0.5140  0.4639
  139OSM    HNF15063  -0.486   2.726   2.851 -0.4905  0.9224 -0.6945
  139OSM    C2S15064  -0.346   2.772   2.702 -0.3266 -0.1280  0.8192
  139OSM    H2S15065  -0.240   2.740   2.690 -0.0433  1.1276 -0.2845
  139OSM    C3S15066  -0.339   2.919   2.759 -0.1546  0.5588  0.6054
  139OSM    H3S15067  -0.446   2.950   2.761 -1.0260 -2.1354  0.1675
  139OSM     O315068  -0.281   3.016   2.669 -0.5048  0.3539 -0.0289
  139OSM    HO315069  -0.296   2.963   2.590 -0.1161  2.0802 -1.3329
  139OSM    C4S15070  -0.285   2.925   2.899 -0.0553  0.1630 -0.7478
  139OSM    H4S15071  -0.365   2.954   2.969  2.2434 -1.3261  2.7940
  139OSM    C5S15072  -0.155   2.924   2.947  1.0791  0.7358  0.3374
  139OSM    H5S15073  -0.070   2.917   2.877  2.2609  2.8800  1.4549
  139OSM    C6S15074  -0.119   2.940   3.096  0.3194 -0.2406 -0.7188
  139OSM    H6S15075  -0.091   3.044   3.124 -1.1566 -0.1834  0.6633
  139OSM    H6T15076  -0.034   2.872   3.120  0.2449  0.2391  0.9648
  139OSM    C7S15077  -0.243   2.913   3.193 -0.4365 -0.0203  0.5453
  139OSM    H7S15078  -0.299   2.822   3.162  0.3820 -0.1893 -0.4900
  139OSM    H7T15079  -0.318   2.995   3.198  2.0723  2.4071  0.7957
  139OSM    C8S15080  -0.191   2.888   3.335  0.7524 -0.0789 -0.6465
  139OSM    H8S15081  -0.129   2.968   3.380 -1.2337  1.1748  0.0095
  139OSM    H8T15082  -0.123   2.801   3.325  2.6893  0.9586  2.3756
  139OSM    C9S15083  -0.289   2.842   3.441  0.2592  0.4956 -0.3125
  139OSM    H9S15084  -0.330   2.748   3.399 -1.7463  0.8011  0.8336
  139OSM    H9T15085  -0.371   2.917   3.450 -0.8271 -0.4555 -1.8920
  139OSM   C10S15086  -0.227   2.823   3.578 -0.0649 -0.5534  0.0747
  139OSM   H10S15087  -0.180   2.920   3.608 -0.2399 -0.6993  0.8459
  139OSM   H10T15088  -0.152   2.741   3.570  1.4430  0.6845  0.9216
  139OSM   C11S15089  -0.337   2.792   3.679  0.4665  0.5907 -0.7218
  139OSM   H11S15090  -0.387   2.695   3.666  0.2160  0.4756  0.8889
  139OSM   H11T15091  -0.424   2.859   3.662 -1.0611 -0.3497  2.4885
  139OSM   C12S15092  -0.288   2.791   3.827 -0.4495 -0.6350 -0.2100
  139OSM   H12S15093  -0.249   2.894   3.844 -0.4487 -0.4679 -1.1625
  139OSM   H12T15094  -0.205   2.719   3.845  0.0522  0.4134  2.0920
  139OSM   C13S15095  -0.398   2.777   3.938  0.6651  0.6956  0.2781
  139OSM   H13S15096  -0.475   2.707   3.900  1.4386  0.0300 -0.0925
  139OSM   H13T15097  -0.452   2.874   3.944 -0.9034 -0.1431  0.3263
  139OSM   C14S15098  -0.354   2.733   4.081 -0.0220 -0.2208  0.5525
  139OSM   H14S15099  -0.288   2.804   4.136  1.9040 -0.2976 -1.5131
  139OSM   H14T15100  -0.288   2.645   4.066  2.1958  1.6777 -1.6442
  139OSM   C15S15101  -0.482   2.693   4.153  0.0970  0.0434  0.3206
  139OSM   H15S15102  -0.540   2.608   4.111  0.3571  0.5617 -1.1349
  139OSM   H15T15103  -0.554   2.776   4.137  1.2527  0.7497 -1.5305
  139OSM   C16S15104  -0.469   2.651   4.299  1.0877  1.1336 -0.7942
  139OSM   H16S15105  -0.570   2.641   4.346  1.5014 -1.9883 -0.3025
  139OSM   H16T15106  -0.422   2.725   4.367 -0.1665 -0.6684  2.2395
  139OSM   C17S15107  -0.396   2.520   4.306 -0.1005  0.8249  0.0992
  139OSM   H17S15108  -0.287   2.527   4.289  0.5308 -1.2174  2.6461
  139OSM   H17T15109  -0.429   2.450   4.227  1.5507  0.7166 -0.5296
  139OSM   C18S15110  -0.409   2.456   4.449 -0.1997 -0.1769 -0.0349
  139OSM   H18S15111  -0.363   2.356   4.431  2.8621  1.2472 -0.8316
  139OSM   H18T15112  -0.508   2.422   4.484  0.7898  0.7670  4.2117
  139OSM   H18U15113  -0.372   2.522   4.530 -1.1587  1.2974 -0.7642
  139OSM    C1F15114  -0.409   2.557   2.782 -0.2103  0.2635  0.7005
  139OSM     OF15115  -0.314   2.511   2.720 -0.1371  0.5407  0.1012
  139OSM    C2F15116  -0.524   2.471   2.833  0.1653 -0.8085 -0.0528
  139OSM    H2F15117  -0.585   2.443   2.744  1.2122  0.5904 -1.2658
  139OSM    H2G15118  -0.585   2.549   2.884  1.1174 -0.1296  0.0765
  139OSM    C3F15119  -0.495   2.358   2.932 -0.1097 -0.0142  0.5713
  139OSM    H3F15120  -0.412   2.401   2.992  2.0645  0.7536 -2.7183
  139OSM    H3G15121  -0.456   2.269   2.878 -2.6856 -1.6427  1.1940
  139OSM    C4F15122  -0.607   2.307   3.021  0.0172 -0.2406 -0.0679
  139OSM    H4F15123  -0.668   2.252   2.947 -0.7669 -0.1828  0.5206
  139OSM    H4G15124  -0.666   2.375   3.086 -2.8148 -2.1537 -0.4668
  139OSM    C5F15125  -0.545   2.204   3.126  0.8624 -0.1274 -0.1041
  139OSM    H5F15126  -0.453   2.157   3.086  1.2641 -1.4458  2.2032
  139OSM    H5G15127  -0.617   2.123   3.148  0.4947 -0.2530 -1.6835
  139OSM    C6F15128  -0.486   2.265   3.255  0.1704 -0.2123 -0.2638
  139OSM    H6F15129  -0.459   2.372   3.245 -0.0932 -0.0590  0.6453
  139OSM    H6G15130  -0.406   2.200   3.296 -0.7839  0.1010  2.2637
  139OSM    C7F15131  -0.595   2.256   3.372  0.4793 -0.2538 -0.4606
  139OSM    H7F15132  -0.694   2.278   3.327  0.6336  0.6320 -0.3849
  139OSM    H7G15133  -0.568   2.345   3.433 -2.1003  1.3970 -1.5498
  139OSM    C8F15134  -0.589   2.126   3.452  0.0585  0.2948 -0.4345
  139OSM    H8F15135  -0.555   2.034   3.400  1.9158 -1.1178  2.9807
  139OSM    H8G15136  -0.689   2.097   3.492  1.2197 -2.6823  0.5996
  139OSM    C9F15137  -0.490   2.125   3.568  0.1891  0.3496 -0.0656
  139OSM    H9F15138  -0.384   2.135   3.541  0.9275  2.1057  3.0292
  139OSM   C10F15139  -0.520   2.110   3.698  0.4609 -0.3499  0.1378
  139OSM   H10F15140  -0.436   2.127   3.766  0.2640  2.3583 -0.2005
  139OSM   C11F15141  -0.661   2.097   3.757  0.5239 -0.0585  0.3640
  139OSM   H11F15142  -0.694   1.991   3.761 -0.9647  0.3307 -0.9071
  139OSM   H11G15143  -0.741   2.146   3.697  1.5919  0.1225 -0.9624
  139OSM   C12F15144  -0.668   2.153   3.890  0.0690 -0.2955 -0.4089
  139OSM   H12F15145  -0.773   2.172   3.920  0.2139  1.1040 -0.6888
  139OSM   H12G15146  -0.613   2.250   3.888  0.9812 -0.7725  0.3919
  139OSM   C13F15147  -0.593   2.094   4.010  0.0652  0.0666  0.1648
  139OSM   H13F15148  -0.595   2.158   4.100 -1.4884  0.5408 -0.1787
  139OSM   H13G15149  -0.486   2.088   3.981  0.8332 -0.0315  2.8258
  139OSM   C14F15150  -0.647   1.956   4.065  0.6105 -0.2980 -0.2337
  139OSM   H14F15151  -0.583   1.870   4.034 -1.3927 -1.6498 -0.8876
  139OSM   H14G15152  -0.745   1.938   4.014 -1.6121  1.5219  3.0409
  139OSM   C15F15153  -0.675   1.950   4.221 -0.1834 -1.2073 -0.8517
  139OSM   H15F15154  -0.711   1.848   4.246  1.5312 -1.9970 -1.4583
  139OSM   H15G15155  -0.757   2.024   4.233 -0.2271 -1.2432 -0.9234
  139OSM   C16F15156  -0.541   1.983   4.301  0.3475  0.3473 -0.1471
  139OSM   H16F15157  -0.500   2.081   4.272 -1.6882  1.3248  0.0794
  139OSM   H16G15158  -0.462   1.915   4.262  2.2042  2.3825 -0.0577
  139OSM   C17F15159  -0.552   1.969   4.451  0.9689 -0.1724  0.5602
  139OSM   H17F15160  -0.576   1.863   4.473  0.4986 -0.5235 -1.3913
  139OSM   H17G15161  -0.639   2.028   4.486  0.0550 -2.1513  1.8034
  139OSM   C18F15162  -0.428   2.017   4.517 -0.2710 -0.4726 -0.8698
  139OSM   H18F15163  -0.401   2.120   4.486  0.6080 -0.7422 -1.0226
  139OSM   H18G15164  -0.343   1.953   4.487  1.1505  0.6886  0.5366
  139OSM   H18H15165  -0.444   2.006   4.627  0.3606 -0.7306 -0.8031
  140OSM      N15166   3.381   6.283   1.830 -0.8010  0.1034  0.0247
  140OSM    C1515167   3.298   6.394   1.884  0.4286 -0.0968  0.3111
  140OSM   H15A15168   3.285   6.372   1.989 -1.6552  2.7858  0.7695
  140OSM   H15B15169   3.204   6.381   1.831 -0.1196  1.1171  0.9349
  140OSM   H15C15170   3.344   6.490   1.870 -0.0976  0.1200  0.0286
  140OSM    C1415171   3.318   6.154   1.858 -0.7223  0.4357  0.6637
  140OSM   H14A15172   3.211   6.148   1.848 -0.5573 -2.3104 -0.3633
  140OSM   H14B15173   3.343   6.109   1.953  0.0676 -2.8909 -0.9620
  140OSM   H14C15174   3.348   6.083   1.783 -1.2001  0.1085  0.7759
  140OSM    C1315175   3.386   6.301   1.681 -0.1036  0.2102 -0.4715
  140OSM   H13A15176   3.286   6.288   1.643 -0.7438 -1.9905  1.7384
  140OSM   H13B15177   3.443   6.227   1.627  0.4394  0.5207 -0.3315
  140OSM   H13C15178   3.414   6.404   1.661  2.3930 -0.7372 -2.3205
  140OSM    C1215179   3.520   6.282   1.896 -0.0896 -0.5378  0.0628
  140OSM   H12A15180   3.514   6.263   2.003 -2.6821  1.8513  0.4537
  140OSM   H12B15181   3.575   6.374   1.887 -1.6686  0.3392 -1.1322
  140OSM    C1115182   3.631   6.172   1.842 -0.3518 -0.1644 -0.0635
  140OSM   H11A15183   3.732   6.201   1.879  0.8982 -2.1956 -1.6475
  140OSM   H11B15184   3.634   6.180   1.731  0.0394 -0.4948 -0.0797
  140OSM      P15185   3.640   5.987   2.020  0.0349  0.2545  0.2030
  140OSM    O1315186   3.520   5.955   2.105  0.6075 -0.2082 -0.1872
  140OSM    O1415187   3.723   5.870   1.988  0.1101 -0.8081  0.0159
  140OSM    O1115188   3.726   6.084   2.100  0.0509  0.1686 -0.6980
  140OSM    O1215189   3.592   6.042   1.880  0.2357  0.1947 -0.2443
  140OSM    C1S15190   3.669   6.156   2.210 -0.2710 -0.4751  0.3943
  140OSM    H1S15191   3.562   6.180   2.198 -0.6270 -2.7064 -1.4200
  140OSM    H1T15192   3.729   6.249   2.222 -0.4539 -0.3426  0.2780
  140OSM     NF15193   3.665   6.190   2.459 -0.0233  0.3301  0.4138
  140OSM    HNF15194   3.745   6.233   2.499  1.9861 -1.4428 -1.4393
  140OSM    C2S15195   3.692   6.089   2.354  0.1712  0.1025  0.3004
  140OSM    H2S15196   3.611   6.013   2.364 -0.4233  0.7043  0.1057
  140OSM    C3S15197   3.836   6.020   2.367 -0.1852  0.2357  0.1127
  140OSM    H3S15198   3.917   6.096   2.363  0.4275 -0.4096 -3.4721
  140OSM     O315199   3.870   5.923   2.270 -0.0083  0.0540 -0.2985
  140OSM    HO315200   3.817   5.967   2.204 -0.9861  3.1911  2.2802
  140OSM    C4S15201   3.837   5.952   2.494  1.0213  0.3719 -0.1378
  140OSM    H4S15202   3.795   5.851   2.482 -0.3590  0.9019  0.1030
  140OSM    C5S15203   3.888   6.009   2.604 -0.1480  0.9436 -0.8737
  140OSM    H5S15204   3.938   6.106   2.590 -1.3625  1.7209  0.0275
  140OSM    C6S15205   3.887   5.942   2.736 -1.0988 -0.0970  0.9245
  140OSM    H6S15206   3.994   5.917   2.754 -0.0832  3.2019  0.2190
  140OSM    H6T15207   3.832   5.846   2.731 -0.4842 -0.4487  0.7311
  140OSM    C7S15208   3.827   6.038   2.843 -0.1971 -0.9409  0.3393
  140OSM    H7S15209   3.820   5.973   2.933 -1.1380 -1.3715 -0.0344
  140OSM    H7T15210   3.725   6.070   2.813 -0.2253 -1.0479  0.3194
  140OSM    C8S15211   3.908   6.160   2.888  0.2658  0.6946  0.5353
  140OSM    H8S15212   3.915   6.219   2.794 -0.5774  1.4252  0.9085
  140OSM    H8T15213   4.009   6.123   2.913 -0.9359 -2.5616  1.0540
  140OSM    C9S15214   3.850   6.221   3.018  0.5841  0.3568 -0.7097
  140OSM    H9S15215   3.755   6.274   2.994 -0.2831 -1.0355 -0.5012
  140OSM    H9T15216   3.918   6.298   3.059  1.6714 -0.6022 -0.6543
  140OSM   C10S15217   3.828   6.116   3.133 -0.1696 -0.1369 -0.0589
  140OSM   H10S15218   3.929   6.074   3.153  0.4585  0.7536 -1.1893
  140OSM   H10T15219   3.758   6.035   3.103  0.0426 -0.7782  1.1406
  140OSM   C11S15220   3.779   6.177   3.264 -0.5435  0.9154 -0.0742
  140OSM   H11S15221   3.671   6.202   3.261 -1.3730 -2.1124  0.9670
  140OSM   H11T15222   3.828   6.276   3.280  0.0112  1.1623 -2.7772
  140OSM   C12S15223   3.805   6.088   3.386  0.8015  0.1492  0.5640
  140OSM   H12S15224   3.905   6.040   3.393  1.3274  1.3208  1.6888
  140OSM   H12T15225   3.734   6.004   3.371 -1.5336  2.2928 -1.2386
  140OSM   C13S15226   3.780   6.150   3.520 -0.5794  0.6185 -0.0984
  140OSM   H13S15227   3.678   6.195   3.528 -0.7156  0.0599  1.6620
  140OSM   H13T15228   3.846   6.237   3.538  0.4352 -0.3939  1.2944
  140OSM   C14S15229   3.799   6.052   3.632  0.3734  0.0876  0.8783
  140OSM   H14S15230   3.899   6.003   3.621  0.0563 -0.3234 -0.3365
  140OSM   H14T15231   3.731   5.965   3.617  1.9094 -0.8362 -1.3424
  140OSM   C15S15232   3.780   6.099   3.776  0.1903 -0.3473 -0.9420
  140OSM   H15S15233   3.702   6.179   3.770  0.1126 -0.4249 -0.9646
  140OSM   H15T15234   3.875   6.151   3.802 -0.2742  1.1707 -2.0887
  140OSM   C16S15235   3.730   5.994   3.870 -0.1034 -0.3594 -0.8856
  140OSM   H16S15236   3.805   5.917   3.899 -0.0701  0.2280  0.6925
  140OSM   H16T15237   3.650   5.938   3.817  0.5378 -1.8712 -0.3236
  140OSM   C17S15238   3.684   6.068   3.997 -0.1606 -0.1144  0.3313
  140OSM   H17S15239   3.596   6.129   3.968 -1.5175 -2.1497 -0.0505
  140OSM   H17T15240   3.770   6.133   4.024  1.4519 -1.2427 -1.7792
  140OSM   C18S15241   3.661   5.973   4.117  0.2653  1.3699 -0.0186
  140OSM   H18S15242   3.732   5.891   4.096 -1.7512 -0.1769 -1.2965
  140OSM   H18T15243   3.562   5.926   4.098  0.6276  0.4843  0.2473
  140OSM   H18U15244   3.676   6.014   4.219 -0.8854  1.0273  0.3025
  140OSM    C1F15245   3.543   6.231   2.492 -0.4331  0.6629 -0.0175
  140OSM     OF15246   3.440   6.195   2.430 -0.5443 -0.2131  0.1791
  140OSM    C2F15247   3.540   6.344   2.595 -0.3312 -0.0888 -0.1168
  140OSM    H2F15248   3.583   6.438   2.555 -0.2809 -0.1589 -0.2313
  140OSM    H2G15249   3.607   6.321   2.681 -0.6147  2.8510  0.9925
  140OSM    C3F15250   3.403   6.397   2.646 -0.1434  0.4476 -0.0673
  140OSM    H3F15251   3.342   6.310   2.680  1.0619 -0.2736  0.2961
  140OSM    H3G15252   3.349   6.454   2.568 -0.4831 -0.6621 -0.6590
  140OSM    C4F15253   3.422   6.491   2.761 -0.5918  0.2404 -0.5639
  140OSM    H4F15254   3.335   6.557   2.779 -2.1388 -2.0392  0.7879
  140OSM    H4G15255   3.517   6.546   2.743 -0.8798  0.5101 -1.2984
  140OSM    C5F15256   3.444   6.409   2.896  1.1330  0.2094 -0.3504
  140OSM    H5F15257   3.538   6.352   2.880  0.3271 -2.0317  2.0808
  140OSM    H5G15258   3.357   6.341   2.905  0.7345  0.6219 -1.0215
  140OSM    C6F15259   3.444   6.498   3.022 -0.1899  0.8194 -0.5359
  140OSM    H6F15260   3.372   6.582   3.009 -0.6931  0.6499  0.9110
  140OSM    H6G15261   3.549   6.536   3.021  0.6917 -1.4871 -0.9769
  140OSM    C7F15262   3.430   6.421   3.150 -0.3756  0.6386  0.1175
  140OSM    H7F15263   3.513   6.348   3.157 -1.8634 -1.2538 -1.0924
  140OSM    H7G15264   3.342   6.354   3.151  0.0603  0.0606  1.3369
  140OSM    C8F15265   3.417   6.514   3.275  0.2265 -0.3608  0.1752
  140OSM    H8F15266   3.399   6.441   3.356  0.4499 -0.9487 -0.2936
  140OSM    H8G15267   3.319   6.565   3.272 -0.9927 -2.4353  1.7155
  140OSM    C9F15268   3.532   6.605   3.300 -0.4320  0.4855 -0.3792
  140OSM    H9F15269   3.606   6.614   3.219  2.6470 -0.7288  2.0578
  140OSM   C10F15270   3.570   6.648   3.426 -0.1273  0.4112  0.6547
  140OSM   H10F15271   3.658   6.714   3.433  0.8263 -0.8713  1.1374
  140OSM   C11F15272   3.491   6.624   3.552 -0.1716 -0.0737 -0.4221
  140OSM   H11F15273   3.388   6.589   3.531 -0.8053  0.0868  2.0617
  140OSM   H11G15274   3.470   6.715   3.611 -1.5027 -0.7514  0.1823
  140OSM   C12F15275   3.565   6.521   3.639 -0.1089  0.1558 -0.3950
  140OSM   H12F15276   3.661   6.561   3.679 -0.0134 -2.3087  2.1949
  140OSM   H12G15277   3.573   6.433   3.572 -2.0565 -0.7975  0.5384
  140OSM   C13F15278   3.473   6.477   3.757  0.0604 -0.2573  0.2657
  140OSM   H13F15279   3.455   6.557   3.832  0.0775 -0.1791  0.1885
  140OSM   H13G15280   3.531   6.406   3.820 -1.1710 -0.1234  1.5965
  140OSM   C14F15281   3.333   6.422   3.727  0.0578  0.7118  0.1030
  140OSM   H14F15282   3.348   6.329   3.669 -3.3267  1.0839 -1.6164
  140OSM   H14G15283   3.273   6.482   3.655 -0.7151 -0.3010 -0.1184
  140OSM   C15F15284   3.242   6.382   3.846  0.8022 -0.7169  0.4087
  140OSM   H15F15285   3.147   6.343   3.805  1.1032  0.7722 -1.8945
  140OSM   H15G15286   3.216   6.471   3.907  1.2217 -0.9345  0.9251
  140OSM   C16F15287   3.311   6.273   3.930 -0.6298 -0.0408 -0.8707
  140OSM   H16F15288   3.404   6.323   3.968 -0.1966 -0.0981 -1.8314
  140OSM   H16G15289   3.344   6.188   3.866  0.0150 -0.7047  0.3046
  140OSM   C17F15290   3.225   6.220   4.048  0.0708  0.1637 -0.7223
  140OSM   H17F15291   3.134   6.174   4.003 -0.2503 -0.5393  0.6141
  140OSM   H17G15292   3.196   6.311   4.104  0.0718 -1.1387  1.5155
  140OSM   C18F15293   3.298   6.128   4.136  0.0464  0.0747  0.1058
  140OSM   H18F15294   3.402   6.165   4.152  0.4306  0.1206 -2.1515
  140OSM   H18G15295   3.296   6.029   4.087 -0.8089  1.2501 -2.3896
  140OSM   H18H15296   3.254   6.099   4.234  0.0728 -2.0095 -0.4565
  141OSM      N15297   0.162   4.037   1.954 -0.5353  0.0466  0.2041
  141OSM    C1515298   0.042   4.061   1.874 -0.9856 -0.0457 -0.1315
  141OSM   H15A15299  -0.050   4.044   1.929 -0.7584  0.7385  0.5041
  141OSM   H15B15300   0.047   4.002   1.783 -0.1924 -1.3352  0.7104
  141OSM   H15C15301   0.044   4.167   1.856  2.8595  0.1047  0.4386
  141OSM    C1415302   0.194   3.889   1.964 -0.0165  0.4046  0.0599
  141OSM   H14A15303   0.175   3.844   1.867 -1.4129  4.0819 -1.5811
  141OSM   H14B15304   0.124   3.845   2.033  0.3005 -0.0947  0.0631
  141OSM   H14C15305   0.296   3.870   1.993 -0.0097  2.0492  1.2496
  141OSM    C1315306   0.277   4.102   1.876 -0.2147  0.1889 -0.7815
  141OSM   H13A15307   0.247   4.204   1.857 -1.7230 -0.2465 -0.8739
  141OSM   H13B15308   0.308   4.047   1.788 -0.5336 -2.3087  0.5752
  141OSM   H13C15309   0.364   4.094   1.940 -1.1888  2.0507  0.8880
  141OSM    C1215310   0.142   4.100   2.090  0.4006 -0.1482  0.0101
  141OSM   H12A15311   0.138   4.207   2.074 -1.7275 -0.1402  0.3613
  141OSM   H12B15312   0.228   4.080   2.153 -0.2360  0.2778  1.0368
  141OSM    C1115313   0.019   4.052   2.176  0.3799 -0.7678 -0.3234
  141OSM   H11A15314  -0.076   4.079   2.126  0.4053  3.0630  1.4205
  141OSM   H11B15315   0.025   4.110   2.270  0.2432  0.7964 -1.2523
  141OSM      P15316  -0.098   3.821   2.212 -0.1347 -0.1411  0.0646
  141OSM    O1315317  -0.158   3.814   2.078  0.5408 -0.8673  0.0862
  141OSM    O1415318  -0.054   3.695   2.279  0.3263 -0.5082  0.3021
  141OSM    O1115319  -0.200   3.881   2.309 -0.3651  0.3816  0.0144
  141OSM    O1215320   0.023   3.918   2.209 -0.4649 -0.3463 -0.3585
  141OSM    C1S15321  -0.154   3.894   2.445 -0.0349  0.4505 -0.7830
  141OSM    H1S15322  -0.084   3.981   2.440  0.7750 -0.2060 -1.2006
  141OSM    H1T15323  -0.102   3.803   2.481 -0.2860 -0.1192 -1.8311
  141OSM     NF15324  -0.220   3.943   2.689 -0.0899 -0.3794  0.5179
  141OSM    HNF15325  -0.252   3.869   2.749 -0.7071  0.3814  1.1492
  141OSM    C2S15326  -0.264   3.932   2.550  0.6463 -0.0131  0.6931
  141OSM    H2S15327  -0.305   4.033   2.529 -1.9922 -1.4405 -1.7532
  141OSM    C3S15328  -0.384   3.831   2.533  0.2298 -0.5132  0.2656
  141OSM    H3S15329  -0.333   3.732   2.541  2.6169  0.7593  2.0917
  141OSM     O315330  -0.441   3.837   2.403 -0.2427 -0.0387 -0.4052
  141OSM    HO315331  -0.357   3.859   2.362  0.8947 -1.3065  1.1404
  141OSM    C4S15332  -0.483   3.846   2.644 -0.2862 -0.2350  0.6668
  141OSM    H4S15333  -0.482   3.763   2.715  1.5179 -0.3010  0.6121
  141OSM    C5S15334  -0.587   3.925   2.656  0.0877 -0.8311  0.2054
  141OSM    H5S15335  -0.596   4.006   2.583  1.3098  0.7263  1.7006
  141OSM    C6S15336  -0.693   3.906   2.764  0.2256 -0.5311  0.2416
  141OSM    H6S15337  -0.785   3.870   2.713  0.2273  0.9152 -0.8684
  141OSM    H6T15338  -0.715   4.010   2.798 -1.3777 -0.7049 -0.1999
  141OSM    C7S15339  -0.665   3.825   2.890  0.0577 -0.3636  0.8202
  141OSM    H7S15340  -0.586   3.878   2.947  1.0176  0.5072 -1.1997
  141OSM    H7T15341  -0.634   3.721   2.865 -0.7229  0.0498 -2.2579
  141OSM    C8S15342  -0.790   3.815   2.976  0.3297  0.0769  0.1055
  141OSM    H8S15343  -0.871   3.773   2.912  1.2857 -0.7976 -0.5525
  141OSM    H8T15344  -0.819   3.919   3.003 -0.8921 -0.0802 -0.5186
  141OSM    C9S15345  -0.753   3.721   3.093  0.1765 -0.0483 -0.3479
  141OSM    H9S15346  -0.649   3.732   3.130 -0.2900  1.1469  0.6758
  141OSM    H9T15347  -0.759   3.617   3.053 -1.5753 -0.9477  2.0193
  141OSM   C10S15348  -0.840   3.734   3.222 -0.1081  0.3816 -0.5432
  141OSM   H10S15349  -0.950   3.723   3.208 -0.5965  0.3749  2.5499
  141OSM   H10T15350  -0.828   3.838   3.261  0.6268  0.5701 -1.2690
  141OSM   C11S15351  -0.789   3.648   3.338  0.0821  0.4812  0.4573
  141OSM   H11S15352  -0.680   3.630   3.337  0.0997  0.4364  1.6076
  141OSM   H11T15353  -0.832   3.546   3.328  0.9775  0.0439  0.9757
  141OSM   C12S15354  -0.818   3.696   3.484 -0.1517  0.8479  0.5011
  141OSM   H12S15355  -0.925   3.718   3.504 -0.6052  0.2905 -1.1216
  141OSM   H12T15356  -0.762   3.787   3.515  1.8277 -0.4417  0.8416
  141OSM   C13S15357  -0.779   3.582   3.584  0.3692 -0.5149  0.7440
  141OSM   H13S15358  -0.682   3.531   3.566  0.1207 -0.6190 -0.3669
  141OSM   H13T15359  -0.853   3.501   3.568  2.2605 -1.9182 -1.3227
  141OSM   C14S15360  -0.770   3.629   3.733  0.5202  0.6372  0.3021
  141OSM   H14S15361  -0.875   3.647   3.766 -0.0480  0.0401 -1.1046
  141OSM   H14T15362  -0.720   3.728   3.732  0.4599  0.6819  1.0752
  141OSM   C15S15363  -0.703   3.517   3.827 -0.0817 -0.3601  0.5788
  141OSM   H15S15364  -0.603   3.507   3.780 -0.4643 -0.2975 -0.2649
  141OSM   H15T15365  -0.768   3.426   3.825  1.5136 -1.5372  0.0981
  141OSM   C16S15366  -0.674   3.582   3.959 -0.2302  0.8553  0.4911
  141OSM   H16S15367  -0.770   3.617   4.001  0.2183  1.4830  1.0083
  141OSM   H16T15368  -0.609   3.671   3.946  3.0921 -0.9436  3.1560
  141OSM   C17S15369  -0.606   3.488   4.064  0.3299  0.6329  0.1518
  141OSM   H17S15370  -0.502   3.465   4.030  0.1312  0.9819 -0.7144
  141OSM   H17T15371  -0.654   3.387   4.065 -1.3308  1.3882 -0.2425
  141OSM   C18S15372  -0.598   3.559   4.202  0.2366  0.1651 -0.2951
  141OSM   H18S15373  -0.561   3.663   4.185 -1.4875  0.7005 -0.9650
  141OSM   H18T15374  -0.518   3.515   4.266  0.8265  1.3284 -0.1956
  141OSM   H18U15375  -0.694   3.553   4.257  0.2247 -3.1931 -0.4509
  141OSM    C1F15376  -0.138   4.045   2.732 -0.2981 -0.4711 -0.3810
  141OSM     OF15377  -0.110   4.138   2.656  0.3227 -0.3311  0.7147
  141OSM    C2F15378  -0.087   4.049   2.870  0.3424 -0.3976  0.1069
  141OSM    H2F15379  -0.077   3.943   2.901  1.5918  0.0166  1.2262
  141OSM    H2G15380  -0.167   4.097   2.932 -1.5239  0.0350 -2.4847
  141OSM    C3F15381   0.051   4.118   2.883 -0.1596  0.7834 -0.3653
  141OSM    H3F15382   0.038   4.228   2.883 -0.5367  0.7597 -1.9900
  141OSM    H3G15383   0.118   4.091   2.799  2.2961  0.1669  1.6856
  141OSM    C4F15384   0.143   4.091   3.003  0.1380 -0.0113  0.0473
  141OSM    H4F15385   0.244   4.126   2.974 -1.0246  1.0916 -3.0719
  141OSM    H4G15386   0.157   3.983   3.024 -0.7520 -0.7498 -2.6782
  141OSM    C5F15387   0.113   4.170   3.128 -0.2035  0.3300  0.1570
  141OSM    H5F15388   0.005   4.173   3.154 -0.7796  2.9448 -2.0683
  141OSM    H5G15389   0.146   4.275   3.111 -0.6956  0.4893  0.1568
  141OSM    C6F15390   0.188   4.108   3.242 -0.5412 -0.1373 -0.2761
  141OSM    H6F15391   0.299   4.123   3.239 -0.2544 -1.7430  0.8302
  141OSM    H6G15392   0.175   3.998   3.246 -0.3437 -0.1744 -0.5879
  141OSM    C7F15393   0.127   4.173   3.371  1.1615  0.2585  1.0918
  141OSM    H7F15394   0.019   4.148   3.374  0.9863  1.0245  3.2666
  141OSM    H7G15395   0.144   4.283   3.363 -0.1593  0.3522 -1.3340
  141OSM    C8F15396   0.182   4.110   3.493 -0.4482 -0.4591  0.0606
  141OSM    H8F15397   0.203   4.003   3.472 -1.2385 -1.1518  2.4202
  141OSM    H8G15398   0.118   4.121   3.584  0.5981 -0.3643  0.8125
  141OSM    C9F15399   0.313   4.175   3.535 -0.0524 -0.2168 -0.5857
  141OSM    H9F15400   0.397   4.146   3.469 -1.0178  1.4161 -2.6674
  141OSM   C10F15401   0.352   4.244   3.643 -0.0795  0.1436 -0.9356
  141OSM   H10F15402   0.456   4.278   3.640 -0.6243  1.8470 -1.7880
  141OSM   C11F15403   0.256   4.313   3.743  0.0000  0.6383  0.1094
  141OSM   H11F15404   0.156   4.328   3.697  0.2364 -0.8918 -0.9732
  141OSM   H11G15405   0.302   4.408   3.778  3.7038 -0.9002 -0.1626
  141OSM   C12F15406   0.213   4.235   3.868 -0.8268 -0.5439 -0.0050
  141OSM   H12F15407   0.156   4.144   3.839 -0.7817 -0.0455 -1.7508
  141OSM   H12G15408   0.146   4.298   3.931 -1.8238 -0.9586 -0.6293
  141OSM   C13F15409   0.332   4.203   3.964  0.1524 -0.2159 -0.2718
  141OSM   H13F15410   0.399   4.290   3.976 -0.2225 -0.0124  0.4423
  141OSM   H13G15411   0.399   4.129   3.915  0.7156 -0.1557  0.3957
  141OSM   C14F15412   0.290   4.155   4.101  0.0471 -0.3144 -0.0147
  141OSM   H14F15413   0.185   4.191   4.103  0.6653  1.7218 -1.0165
  141OSM   H14G15414   0.349   4.209   4.178 -2.0671 -1.9891  2.9843
  141OSM   C15F15415   0.289   4.001   4.124  0.1337  0.1461 -0.0853
  141OSM   H15F15416   0.396   3.970   4.112  0.0225  0.2198 -1.3504
  141OSM   H15G15417   0.217   3.955   4.054 -1.5016 -0.2818  1.7956
  141OSM   C16F15418   0.240   3.951   4.257 -0.5231  0.1867  1.5442
  141OSM   H16F15419   0.205   3.849   4.231 -0.5412  0.6158 -0.2116
  141OSM   H16G15420   0.158   4.018   4.290 -0.6214  1.2703 -0.7358
  141OSM   C17F15421   0.351   3.954   4.364  0.0503 -0.1059  0.3427
  141OSM   H17F15422   0.345   4.053   4.414  1.3010 -0.1813  0.6751
  141OSM   H17G15423   0.447   3.946   4.310 -0.8040 -0.7377 -1.1525
  141OSM   C18F15424   0.361   3.832   4.459  0.2985 -1.0833 -0.0785
  141OSM   H18F15425   0.380   3.743   4.394 -0.6021 -1.7797  0.5930
  141OSM   H18G15426   0.264   3.819   4.511  0.5243  2.0228  1.3008
  141OSM   H18H15427   0.438   3.837   4.538 -0.8033 -3.2017  1.2152
  142OSM      N15428   6.449   5.582   1.931 -0.0134  0.1542 -0.3285
  142OSM    C1515429   6.330   5.511   1.990 -0.4514 -0.1779  0.1536
  142OSM   H15A15430   6.238   5.542   1.942 -0.1566  1.1938  0.4355
  142OSM   H15B15431   6.315   5.523   2.096 -1.1180 -0.4968  0.1021
  142OSM   H15C15432   6.360   5.407   1.985 -0.1404 -0.0478 -0.9833
  142OSM    C1415433   6.461   5.557   1.781  0.2275 -0.0244  0.1597
  142OSM   H14A15434   6.428   5.455   1.769  2.3967 -0.7739  0.1320
  142OSM   H14B15435   6.563   5.569   1.749  0.7498 -0.6834  1.4851
  142OSM   H14C15436   6.393   5.619   1.725 -0.5631  0.3158  1.4485
  142OSM    C1315437   6.433   5.729   1.956 -0.1199 -0.4790 -1.0308
  142OSM   H13A15438   6.432   5.760   2.059 -0.2638 -2.3061 -0.4446
  142OSM   H13B15439   6.352   5.769   1.896  0.7282 -0.4545 -2.2017
  142OSM   H13C15440   6.522   5.773   1.915 -0.5119  1.4672  0.0809
  142OSM    C1215441   6.575   5.541   1.997  0.0338 -0.3234 -0.7408
  142OSM   H12A15442   6.564   5.578   2.098 -3.2243  0.1042 -1.1343
  142OSM   H12B15443   6.651   5.609   1.965 -1.1572  1.7828  0.6509
  142OSM    C1115444   6.629   5.397   1.991  0.4722 -0.0871 -0.3421
  142OSM   H11A15445   6.738   5.416   2.004  0.5746 -1.8067  1.8561
  142OSM   H11B15446   6.607   5.349   1.893  0.0899 -1.3037  0.3221
  142OSM      P15447   6.618   5.342   2.247  0.0636 -0.2423  0.1006
  142OSM    O1315448   6.762   5.382   2.230 -0.1024  0.4086  0.4418
  142OSM    O1415449   6.542   5.450   2.318 -0.3518 -0.7277 -0.0334
  142OSM    O1115450   6.598   5.201   2.318  0.6360  0.0165  0.0280
  142OSM    O1215451   6.566   5.311   2.092 -0.2984 -0.2890  0.7369
  142OSM    C1S15452   6.680   5.161   2.423 -0.2597  0.4074 -0.6878
  142OSM    H1S15453   6.769   5.227   2.433 -0.8161  0.9483  0.8516
  142OSM    H1T15454   6.716   5.058   2.400  0.4184  0.0075  1.8822
  142OSM     NF15455   6.704   5.167   2.672 -0.3428 -0.2825 -0.2467
  142OSM    HNF15456   6.714   5.090   2.735  1.1113  0.1380  0.0517
  142OSM    C2S15457   6.609   5.162   2.558  0.0076 -0.4007 -0.3337
  142OSM    H2S15458   6.545   5.253   2.563 -0.6259 -0.7472 -1.5544
  142OSM    C3S15459   6.509   5.048   2.559 -0.0175 -0.4935  0.2868
  142OSM    H3S15460   6.569   4.955   2.562 -0.1933 -0.6870 -1.3777
  142OSM     O315461   6.426   5.032   2.437 -0.5627  0.1621  0.6513
  142OSM    HO315462   6.461   5.105   2.385 -1.7899  0.5728  0.3653
  142OSM    C4S15463   6.407   5.061   2.667  0.2979 -0.2820  0.3520
  142OSM    H4S15464   6.324   5.131   2.650 -0.2901 -1.1381 -0.3759
  142OSM    C5S15465   6.395   4.981   2.777 -0.0657 -0.3793 -0.4124
  142OSM    H5S15466   6.467   4.900   2.798  0.9627  0.8368  0.9386
  142OSM    C6S15467   6.301   5.015   2.893 -0.6172 -0.3557 -0.1253
  142OSM    H6S15468   6.285   4.918   2.945 -1.0521  1.1034  2.6462
  142OSM    H6T15469   6.203   5.056   2.860 -0.6738  2.0144  2.6249
  142OSM    C7S15470   6.364   5.121   2.991 -0.0869 -0.4697 -0.0377
  142OSM    H7S15471   6.354   5.221   2.944  1.7196  0.1261  0.7487
  142OSM    H7T15472   6.472   5.102   3.004  0.4760  0.5699 -2.6463
  142OSM    C8S15473   6.301   5.117   3.133 -0.2299  0.0641 -0.2512
  142OSM    H8S15474   6.377   5.152   3.206 -0.8552  3.4020 -1.0278
  142OSM    H8T15475   6.275   5.011   3.154 -1.1489  0.2094 -0.5920
  142OSM    C9S15476   6.166   5.186   3.150 -0.2233 -0.4296 -0.8587
  142OSM    H9S15477   6.099   5.144   3.071 -1.8320  0.6188 -0.1065
  142OSM    H9T15478   6.167   5.296   3.136 -0.7385  0.0176  2.0244
  142OSM   C10S15479   6.096   5.158   3.284  0.6139  0.0374 -0.6598
  142OSM   H10S15480   6.090   5.048   3.298 -0.5995 -0.0640 -1.8535
  142OSM   H10T15481   6.001   5.216   3.284  1.3927  1.3625 -1.1625
  142OSM   C11S15482   6.177   5.215   3.400  0.3707 -0.0388 -0.4382
  142OSM   H11S15483   6.212   5.320   3.390  0.8031 -0.0530  0.7312
  142OSM   H11T15484   6.267   5.150   3.408 -0.6498 -1.3978  0.7040
  142OSM   C12S15485   6.112   5.202   3.541 -0.2846  0.2457 -0.3026
  142OSM   H12S15486   6.057   5.106   3.548 -0.6608  0.4964  0.2821
  142OSM   H12T15487   6.036   5.282   3.549  0.6429  1.2429 -1.1638
  142OSM   C13S15488   6.227   5.217   3.650 -0.7043  0.1620  0.1821
  142OSM   H13S15489   6.273   5.307   3.603  0.0791 -0.4971 -0.3289
  142OSM   H13T15490   6.284   5.122   3.657 -1.0961 -0.0216  1.0058
  142OSM   C14S15491   6.173   5.248   3.788  0.2330  0.0155  0.4076
  142OSM   H14S15492   6.074   5.297   3.780 -0.1978 -1.0862 -1.8238
  142OSM   H14T15493   6.244   5.310   3.846 -0.8815  0.4965  1.3017
  142OSM   C15S15494   6.161   5.124   3.876 -0.0825 -0.6298  0.5929
  142OSM   H15S15495   6.255   5.069   3.858  0.9596  1.3066 -0.1920
  142OSM   H15T15496   6.067   5.077   3.838 -0.5339  1.2357 -0.7961
  142OSM   C16S15497   6.134   5.158   4.020  0.3949 -0.6235  0.1582
  142OSM   H16S15498   6.052   5.232   4.007  1.0033  0.0030 -0.1378
  142OSM   H16T15499   6.208   5.223   4.070  0.6755 -1.0655  0.3311
  142OSM   C17S15500   6.093   5.043   4.121  0.0651  0.0858  0.2136
  142OSM   H17S15501   6.186   5.009   4.173 -0.7551 -1.6635  0.6157
  142OSM   H17T15502   6.046   4.952   4.078 -0.3830  0.3976  0.0368
  142OSM   C18S15503   6.005   5.102   4.235 -0.2017  0.3484 -0.1221
  142OSM   H18S15504   5.915   5.152   4.194  0.0473 -0.3059 -1.5445
  142OSM   H18T15505   6.060   5.182   4.288 -2.9295  2.1868  0.1715
  142OSM   H18U15506   5.981   5.024   4.310  0.3244  1.2490  1.0061
  142OSM    C1F15507   6.783   5.276   2.705  0.1572  0.2088  0.6628
  142OSM     OF15508   6.773   5.380   2.645  0.1617 -0.1505 -0.2196
  142OSM    C2F15509   6.872   5.256   2.817 -0.7680 -0.1692 -0.6016
  142OSM    H2F15510   6.973   5.223   2.783 -0.5140  0.1425 -0.1647
  142OSM    H2G15511   6.834   5.176   2.884  0.8345 -1.5618 -1.2644
  142OSM    C3F15512   6.900   5.390   2.894  0.3531  0.4433  0.0838
  142OSM    H3F15513   6.932   5.480   2.838  0.0295  0.2895 -0.3568
  142OSM    H3G15514   6.986   5.365   2.960 -0.5798 -0.8442  0.8679
  142OSM    C4F15515   6.791   5.453   2.982  0.0279  0.2949 -0.3907
  142OSM    H4F15516   6.707   5.491   2.920 -1.3456  1.2200  1.8918
  142OSM    H4G15517   6.841   5.538   3.033  0.4674 -0.2662  0.1357
  142OSM    C5F15518   6.750   5.362   3.101 -0.0943  0.0117  0.4520
  142OSM    H5F15519   6.842   5.351   3.163  0.0253  0.8486  0.4386
  142OSM    H5G15520   6.730   5.260   3.062  0.0689 -0.3781  1.3462
  142OSM    C6F15521   6.627   5.402   3.189  0.1392 -0.1639 -0.6863
  142OSM    H6F15522   6.587   5.310   3.235  0.7898  0.5654  1.4992
  142OSM    H6G15523   6.545   5.442   3.126 -0.6729 -0.0902  0.3970
  142OSM    C7F15524   6.652   5.518   3.281  0.1406 -0.5751  0.1149
  142OSM    H7F15525   6.687   5.605   3.221 -2.7421  0.5545 -0.0553
  142OSM    H7G15526   6.735   5.491   3.350 -0.2901  0.2938  0.9995
  142OSM    C8F15527   6.539   5.556   3.368 -0.1389 -0.4030 -0.3592
  142OSM    H8F15528   6.448   5.568   3.306 -1.4934 -0.9492  1.4259
  142OSM    H8G15529   6.557   5.660   3.405  0.6761 -0.6108 -0.1535
  142OSM    C9F15530   6.519   5.455   3.475  0.6489 -0.4759  0.2076
  142OSM    H9F15531   6.554   5.358   3.436  0.1029  0.2871 -2.4025
  142OSM   C10F15532   6.471   5.472   3.594  0.9424 -0.0091 -0.4644
  142OSM   H10F15533   6.465   5.387   3.664  2.5363  0.2594  0.0421
  142OSM   C11F15534   6.419   5.601   3.663  0.6145  0.6951  0.2290
  142OSM   H11F15535   6.321   5.623   3.615 -0.0380  2.1566  2.0934
  142OSM   H11G15536   6.471   5.696   3.638  0.8061  1.1041  2.0365
  142OSM   C12F15537   6.420   5.592   3.817  0.8618  0.1177 -1.1903
  142OSM   H12F15538   6.523   5.609   3.855  0.4024 -1.7301  1.0978
  142OSM   H12G15539   6.380   5.494   3.852 -2.3267  2.4305  2.6139
  142OSM   C13F15540   6.325   5.696   3.889  0.3569  0.6272  0.1776
  142OSM   H13F15541   6.221   5.676   3.856  0.9589  0.9030 -2.0340
  142OSM   H13G15542   6.344   5.797   3.846 -1.5191  1.9458  2.1875
  142OSM   C14F15543   6.339   5.711   4.041  0.5161  0.2366  0.4523
  142OSM   H14F15544   6.444   5.742   4.062  0.8889  0.6289 -1.7425
  142OSM   H14G15545   6.326   5.611   4.088  0.2702  0.1482  0.1969
  142OSM   C15F15546   6.235   5.806   4.099  0.6634 -0.6052  0.0017
  142OSM   H15F15547   6.270   5.909   4.077 -0.1199 -0.3172  0.0888
  142OSM   H15G15548   6.245   5.801   4.210 -0.1394 -0.3597  0.0879
  142OSM   C16F15549   6.086   5.807   4.055  0.1374 -0.3806 -0.8309
  142OSM   H16F15550   6.082   5.839   3.949  0.1763  0.3353 -0.6229
  142OSM   H16G15551   6.027   5.883   4.112 -0.0408  0.3907 -2.0063
  142OSM   C17F15552   6.018   5.673   4.089  0.6391  0.5462  0.0640
  142OSM   H17F15553   6.054   5.597   4.016  0.5067 -0.8432  1.3977
  142OSM   H17G15554   5.911   5.684   4.063  0.3375 -2.0456 -0.0306
  142OSM   C18F15555   6.026   5.619   4.232  0.4304  0.7114 -0.1446
  142OSM   H18F15556   6.134   5.594   4.248  0.9320  2.3713 -0.8016
  142OSM   H18G15557   5.969   5.524   4.246  0.3544  0.3019 -2.7459
  142OSM   H18H15558   5.999   5.704   4.297  0.2494  0.4936  0.0690
  143OSM      N15559   5.271   5.611   2.084  0.4189  0.0888 -0.5126
  143OSM    C1515560   5.285   5.704   2.207 -0.5649 -0.3191 -0.1117
  143OSM   H15A15561   5.384   5.738   2.231 -1.5238  1.5156  1.5214
  143OSM   H15B15562   5.229   5.674   2.294 -1.5260 -2.7817 -1.4761
  143OSM   H15C15563   5.236   5.794   2.174  0.7338 -0.0661 -1.4627
  143OSM    C1415564   5.125   5.595   2.049 -0.2465 -0.1054 -0.3477
  143OSM   H14A15565   5.069   5.541   2.124 -0.7552  1.0034  0.0849
  143OSM   H14B15566   5.121   5.537   1.958  3.4845 -0.0535 -0.7175
  143OSM   H14C15567   5.072   5.688   2.038 -1.0684 -0.6714 -1.3454
  143OSM    C1315568   5.336   5.680   1.967 -0.2320  0.0551 -0.1927
  143OSM   H13A15569   5.439   5.684   2.000 -0.1699 -2.3552  0.0511
  143OSM   H13B15570   5.287   5.773   1.941  1.5322  1.5442  1.4802
  143OSM   H13C15571   5.332   5.611   1.884 -1.0920  0.0419 -0.1489
  143OSM    C1215572   5.336   5.483   2.099 -0.0263  0.4695  0.2079
  143OSM   H12A15573   5.438   5.490   2.066 -0.6180 -1.0399 -2.1988
  143OSM   H12B15574   5.288   5.409   2.038 -1.9578  0.9716  1.0396
  143OSM    C1115575   5.343   5.423   2.234  0.8002 -0.5546 -0.2936
  143OSM   H11A15576   5.271   5.478   2.299  2.6557  4.5554 -2.0751
  143OSM   H11B15577   5.442   5.455   2.271  1.2070  0.3051 -1.9937
  143OSM      P15578   5.226   5.199   2.317  0.5245  0.4208  0.2068
  143OSM    O1315579   5.087   5.246   2.299  0.6119 -0.1887 -0.2363
  143OSM    O1415580   5.254   5.056   2.280 -0.0194  0.3730  0.9084
  143OSM    O1115581   5.270   5.225   2.458 -0.3595 -0.1276 -0.6616
  143OSM    O1215582   5.323   5.286   2.228 -0.0268 -0.1143  0.2177
  143OSM    C1S15583   5.272   5.129   2.561 -0.1454 -0.2709  0.6466
  143OSM    H1S15584   5.254   5.025   2.527 -2.1474  0.8456 -2.0371
  143OSM    H1T15585   5.194   5.162   2.633  0.5537  1.7762  0.5289
  143OSM     NF15586   5.362   5.037   2.768 -0.1311 -0.3749 -0.5797
  143OSM    HNF15587   5.293   5.071   2.832  0.4077  0.0401 -0.2126
  143OSM    C2S15588   5.393   5.131   2.654 -0.1435 -0.2888  0.6039
  143OSM    H2S15589   5.480   5.087   2.601  0.1494  1.1709 -0.1979
  143OSM    C3S15590   5.426   5.279   2.699  0.3607 -0.1147  0.1362
  143OSM    H3S15591   5.339   5.322   2.754  1.6068  2.1633  0.4599
  143OSM     O315592   5.434   5.376   2.585 -0.7688  0.2102 -1.1047
  143OSM    HO315593   5.394   5.318   2.520 -0.6006 -2.3328  0.8946
  143OSM    C4S15594   5.537   5.284   2.791 -0.3764  0.2618 -0.5403
  143OSM    H4S15595   5.633   5.262   2.741  0.0683 -0.8187  0.7266
  143OSM    C5S15596   5.523   5.335   2.920  0.1780  0.2027  0.8536
  143OSM    H5S15597   5.425   5.366   2.960 -0.6088 -0.9311 -0.1180
  143OSM    C6S15598   5.641   5.357   3.017  0.1482  0.3643  0.1474
  143OSM    H6S15599   5.633   5.460   3.056 -1.4925  0.3467 -0.0507
  143OSM    H6T15600   5.740   5.337   2.972 -0.3929  0.7491 -1.2984
  143OSM    C7S15601   5.628   5.262   3.132  0.4725  0.8708  0.9254
  143OSM    H7S15602   5.625   5.163   3.082 -2.1782  0.1030  2.4087
  143OSM    H7T15603   5.530   5.274   3.181  0.2567 -0.0490  0.7429
  143OSM    C8S15604   5.740   5.277   3.238  0.0452  0.2022 -0.6252
  143OSM    H8S15605   5.762   5.386   3.245  0.6788  0.0996 -0.9609
  143OSM    H8T15606   5.832   5.230   3.197 -0.1801 -0.1762 -0.7019
  143OSM    C9S15607   5.705   5.212   3.375 -0.4176 -0.1566 -0.1059
  143OSM    H9S15608   5.608   5.257   3.405 -0.7131 -0.8917  0.0540
  143OSM    H9T15609   5.784   5.242   3.447  1.4593  1.5214 -2.6520
  143OSM   C10S15610   5.705   5.055   3.378 -0.1561 -0.9435  0.4448
  143OSM   H10S15611   5.783   5.009   3.314  1.0963  2.2325 -0.4863
  143OSM   H10T15612   5.606   5.019   3.343 -0.2932  2.4080 -3.2534
  143OSM   C11S15613   5.722   5.006   3.525 -0.1293  0.2073 -0.3325
  143OSM   H11S15614   5.824   5.040   3.554  1.2152 -2.6949 -1.2535
  143OSM   H11T15615   5.725   4.896   3.514  0.1751  0.1489  0.3229
  143OSM   C12S15616   5.613   5.051   3.618 -0.3414  0.6142  1.3974
  143OSM   H12S15617   5.521   5.029   3.561  2.4833 -1.7325 -2.8240
  143OSM   H12T15618   5.599   5.160   3.630 -1.3341  0.5441  0.9755
  143OSM   C13S15619   5.620   4.990   3.754  0.5765  0.2811  0.2281
  143OSM   H13S15620   5.728   4.975   3.776  0.7527 -0.4697 -1.0288
  143OSM   H13T15621   5.566   4.893   3.752 -0.5805  0.8614 -3.2770
  143OSM   C14S15622   5.563   5.075   3.871 -0.0503  0.4690  0.7556
  143OSM   H14S15623   5.458   5.099   3.847  0.1712  0.8681  0.1537
  143OSM   H14T15624   5.605   5.178   3.864 -1.3417  1.0407  1.0833
  143OSM   C15S15625   5.588   5.032   4.015 -0.3840  0.0416 -0.3803
  143OSM   H15S15626   5.696   5.029   4.041 -0.3969 -2.5450 -0.3820
  143OSM   H15T15627   5.553   4.927   4.014  1.4371 -0.6024 -0.8148
  143OSM   C16S15628   5.512   5.111   4.124 -0.2726 -0.3051 -0.5536
  143OSM   H16S15629   5.409   5.129   4.085  0.9157 -0.1373 -3.9520
  143OSM   H16T15630   5.552   5.215   4.123 -1.2211  0.0895  0.3158
  143OSM   C17S15631   5.519   5.053   4.266 -0.2477  0.1441  0.2915
  143OSM   H17S15632   5.613   5.085   4.314  0.0970  0.1091 -0.3437
  143OSM   H17T15633   5.518   4.943   4.247 -0.7583  0.3932 -1.3246
  143OSM   C18S15634   5.397   5.084   4.362  0.1017  0.0877  0.5030
  143OSM   H18S15635   5.303   5.057   4.308 -0.8440  1.9584  1.1241
  143OSM   H18T15636   5.396   5.190   4.394 -1.3292  0.3972 -0.4621
  143OSM   H18U15637   5.405   5.022   4.455  2.2113 -1.3861 -0.5808
  143OSM    C1F15638   5.365   4.906   2.757  0.1774  0.2161  0.1090
  143OSM     OF15639   5.390   4.854   2.650 -0.1493 -0.0247 -0.0871
  143OSM    C2F15640   5.333   4.827   2.875 -0.0339 -0.2311 -0.0592
  143OSM    H2F15641   5.222   4.826   2.884 -0.0723  1.7527  0.2782
  143OSM    H2G15642   5.378   4.889   2.956  2.8504  1.1150 -2.5277
  143OSM    C3F15643   5.403   4.687   2.856  0.3730 -0.0125  0.1016
  143OSM    H3F15644   5.513   4.693   2.842  0.6194  0.3351  1.8733
  143OSM    H3G15645   5.350   4.626   2.781 -0.0324 -0.9446  1.1208
  143OSM    C4F15646   5.384   4.615   2.990  0.9184 -0.7728  0.6977
  143OSM    H4F15647   5.428   4.518   2.960 -0.0931 -0.1479 -3.4771
  143OSM    H4G15648   5.279   4.603   3.024  0.6897 -1.3866 -0.1890
  143OSM    C5F15649   5.463   4.686   3.103 -0.6509  0.1425  0.0112
  143OSM    H5F15650   5.414   4.778   3.139  0.2278  0.3738  0.6230
  143OSM    H5G15651   5.567   4.710   3.074 -1.3727  1.4037 -1.7071
  143OSM    C6F15652   5.460   4.596   3.233  0.0865 -0.9985 -0.0712
  143OSM    H6F15653   5.516   4.506   3.199  0.3039 -0.8610 -0.0758
  143OSM    H6G15654   5.354   4.563   3.241 -0.2765  0.4306  1.4029
  143OSM    C7F15655   5.527   4.656   3.357 -0.9831  0.4116  0.2566
  143OSM    H7F15656   5.618   4.707   3.320 -2.4903  2.4916 -0.8332
  143OSM    H7G15657   5.552   4.567   3.419  1.3056  1.1159  0.4147
  143OSM    C8F15658   5.436   4.745   3.442 -0.2705 -0.1672  0.0692
  143OSM    H8F15659   5.402   4.831   3.381 -0.7290 -0.4396 -0.0669
  143OSM    H8G15660   5.504   4.782   3.522  0.6456  0.5616 -1.0020
  143OSM    C9F15661   5.308   4.682   3.496  0.0501  0.0964 -0.2510
  143OSM    H9F15662   5.234   4.650   3.421 -0.1240  0.4888 -0.2459
  143OSM   C10F15663   5.260   4.684   3.625  0.6058  0.1330 -0.4348
  143OSM   H10F15664   5.164   4.631   3.640 -0.2433  1.4237 -1.1226
  143OSM   C11F15665   5.333   4.738   3.739  0.2680  0.0788 -0.2493
  143OSM   H11F15666   5.311   4.847   3.747  1.9663  0.3643  1.3598
  143OSM   H11G15667   5.443   4.729   3.728  0.3027 -0.1467  0.2547
  143OSM   C12F15668   5.322   4.659   3.874  0.3238 -0.2527  0.5330
  143OSM   H12F15669   5.403   4.699   3.940  0.8807  1.8351 -1.2782
  143OSM   H12G15670   5.339   4.552   3.849  1.0715 -0.1627  0.6101
  143OSM   C13F15671   5.181   4.681   3.945 -0.7024  0.2964 -0.5045
  143OSM   H13F15672   5.096   4.641   3.886 -0.5180  1.1358 -1.3704
  143OSM   H13G15673   5.164   4.791   3.948 -1.0869  0.2113  1.4591
  143OSM   C14F15674   5.183   4.615   4.079  0.3160 -0.4076  0.1401
  143OSM   H14F15675   5.183   4.505   4.070  1.0760 -0.2240 -3.6744
  143OSM   H14G15676   5.087   4.635   4.133  1.7914 -0.2627  2.8902
  143OSM   C15F15677   5.291   4.676   4.174  0.4220 -0.3161  0.6922
  143OSM   H15F15678   5.286   4.787   4.174  0.3428 -0.3197 -0.1920
  143OSM   H15G15679   5.396   4.649   4.152  0.9994  1.6687  0.8290
  143OSM   C16F15680   5.258   4.636   4.317  0.0467 -0.4091  0.5345
  143OSM   H16F15681   5.252   4.528   4.340  1.0884 -0.2235  1.7638
  143OSM   H16G15682   5.158   4.675   4.343  0.3801  1.0282 -0.2229
  143OSM   C17F15683   5.347   4.700   4.420  0.1891  0.0689  0.9833
  143OSM   H17F15684   5.354   4.806   4.387 -1.9631 -0.3450 -1.0734
  143OSM   H17G15685   5.452   4.666   4.403 -0.1524  0.1790 -1.7937
  143OSM   C18F15686   5.291   4.684   4.562 -0.1174 -1.1867 -0.1732
  143OSM   H18F15687   5.355   4.730   4.640 -0.4108 -2.5548  0.9085
  143OSM   H18G15688   5.295   4.575   4.583 -0.4736 -1.5838 -1.9555
  143OSM   H18H15689   5.189   4.727   4.569  0.9403  1.3091  1.5540
  144OSM      N15690   4.040   6.012   1.897  0.0288 -0.2708  0.2506
  144OSM    C1515691   3.926   5.985   1.811 -0.9381 -0.5329  0.5825
  144OSM   H15A15692   3.892   6.081   1.773  1.8676  0.0005 -0.8571
  144OSM   H15B15693   3.847   5.935   1.865 -1.7836  0.1647  0.0208
  144OSM   H15C15694   3.956   5.930   1.723  0.4646  1.1105 -0.0352
  144OSM    C1415695   4.098   5.878   1.935 -0.5088  0.0070  0.0447
  144OSM   H14A15696   4.123   5.814   1.852 -1.0003  1.1361 -0.9898
  144OSM   H14B15697   4.028   5.817   1.991 -0.4637 -1.7307 -1.6716
  144OSM   H14C15698   4.189   5.874   1.992  0.6423 -1.0413 -1.7736
  144OSM    C1315699   4.144   6.076   1.819  0.1876 -0.2962  0.2148
  144OSM   H13A15700   4.223   6.104   1.887  1.3148 -2.5208 -0.0942
  144OSM   H13B15701   4.101   6.161   1.768 -2.3633 -2.3090 -1.2496
  144OSM   H13C15702   4.188   6.014   1.742  1.0975  1.8138 -1.0757
  144OSM    C1215703   3.999   6.091   2.025 -0.6323 -0.4116  0.5653
  144OSM   H12A15704   3.914   6.040   2.068  0.6646 -1.2151  2.3019
  144OSM   H12B15705   3.967   6.189   1.993 -0.5921 -0.1313  1.3600
  144OSM    C1115706   4.116   6.102   2.133  0.0625 -0.3138 -0.4147
  144OSM   H11A15707   4.155   6.001   2.157  0.7100  0.3882  1.7284
  144OSM   H11B15708   4.068   6.145   2.223  1.0928 -1.1991  0.5856
  144OSM      P15709   4.236   6.327   2.144 -0.2738  0.2793  0.7069
  144OSM    O1315710   4.349   6.393   2.074 -0.5357 -0.0587  0.5749
  144OSM    O1415711   4.104   6.393   2.132  0.2149 -0.6265  0.0832
  144OSM    O1115712   4.268   6.312   2.297 -0.3079  0.1828 -0.7325
  144OSM    O1215713   4.223   6.184   2.090  0.0927 -0.3814 -0.3856
  144OSM    C1S15714   4.359   6.218   2.342  0.6370  0.0164  0.3741
  144OSM    H1S15715   4.452   6.225   2.283 -1.7546 -0.4562 -3.8166
  144OSM    H1T15716   4.314   6.118   2.326 -1.5623  0.6115  2.2967
  144OSM     NF15717   4.462   6.130   2.542  0.4673  0.5666  0.1355
  144OSM    HNF15718   4.420   6.051   2.585 -0.8544  1.3450  0.3433
  144OSM    C2S15719   4.377   6.235   2.499  0.0179 -0.1751 -0.1157
  144OSM    H2S15720   4.416   6.338   2.517  1.9466 -0.3958 -2.5860
  144OSM    C3S15721   4.229   6.237   2.565 -0.5291  0.4245 -0.1413
  144OSM    H3S15722   4.176   6.145   2.535  0.1485 -1.3478  3.5405
  144OSM     O315723   4.146   6.348   2.522 -0.5739 -0.1289 -0.1850
  144OSM    HO315724   4.169   6.366   2.430  2.0138 -0.2491  0.3575
  144OSM    C4S15725   4.243   6.237   2.721  0.7881 -0.4273  0.1619
  144OSM    H4S15726   4.228   6.140   2.770 -0.9397 -1.5426 -2.3781
  144OSM    C5S15727   4.277   6.347   2.797 -0.1049  0.4319  0.1626
  144OSM    H5S15728   4.305   6.444   2.753 -1.0913  0.3277 -0.7564
  144OSM    C6S15729   4.304   6.341   2.949 -0.3091  0.3628  0.5078
  144OSM    H6S15730   4.406   6.383   2.956  0.4428 -0.6924 -2.5074
  144OSM    H6T15731   4.314   6.237   2.988  1.0017 -0.3584 -1.6037
  144OSM    C7S15732   4.200   6.425   3.022 -0.3234 -0.1559  0.2602
  144OSM    H7S15733   4.097   6.397   2.993  0.6724 -1.7206 -2.1160
  144OSM    H7T15734   4.214   6.530   2.986 -1.8219 -0.5798 -1.7293
  144OSM    C8S15735   4.227   6.425   3.170 -0.8116  0.1381  0.3648
  144OSM    H8S15736   4.304   6.505   3.185 -1.0140  0.7052 -1.4142
  144OSM    H8T15737   4.278   6.331   3.200 -1.0660 -0.1414 -0.0847
  144OSM    C9S15738   4.099   6.457   3.247  0.2074 -1.1525 -0.4258
  144OSM    H9S15739   4.017   6.382   3.242 -0.4628 -0.7965  2.7011
  144OSM    H9T15740   4.054   6.554   3.215 -1.6079 -2.1754 -1.1177
  144OSM   C10S15741   4.127   6.471   3.399  0.2528 -0.0153  0.6202
  144OSM   H10S15742   4.208   6.546   3.413 -0.6175  2.1412 -4.0594
  144OSM   H10T15743   4.147   6.371   3.443 -0.4646  0.5963  2.3989
  144OSM   C11S15744   4.005   6.516   3.470 -0.6087 -0.2678 -0.9014
  144OSM   H11S15745   3.925   6.441   3.458 -0.8584 -0.0071 -0.8886
  144OSM   H11T15746   3.959   6.607   3.425 -0.8842  0.6451  1.0932
  144OSM   C12S15747   4.040   6.555   3.613  0.6967 -0.3247 -0.1383
  144OSM   H12S15748   3.955   6.604   3.665  0.6418  0.0047 -0.5334
  144OSM   H12T15749   4.109   6.642   3.618 -0.3080  0.4453  4.5863
  144OSM   C13S15750   4.095   6.435   3.693 -0.1632 -0.0040  0.3146
  144OSM   H13S15751   4.197   6.407   3.656 -0.8049  1.5405 -3.0026
  144OSM   H13T15752   4.028   6.348   3.678  0.1285 -0.1142 -0.4104
  144OSM   C14S15753   4.087   6.455   3.846  0.6453  0.0337  0.3560
  144OSM   H14S15754   4.152   6.539   3.878  0.9264  0.3007 -0.8477
  144OSM   H14T15755   4.127   6.362   3.892 -0.7514  0.8645  3.4616
  144OSM   C15S15756   3.949   6.471   3.904  0.1544 -0.8960 -0.4200
  144OSM   H15S15757   3.887   6.397   3.850 -0.9997 -0.9145  0.8666
  144OSM   H15T15758   3.896   6.569   3.898  0.0608 -1.0104 -1.6928
  144OSM   C16S15759   3.934   6.412   4.043 -0.4101 -0.4191 -0.3569
  144OSM   H16S15760   4.011   6.467   4.101  0.3822 -1.3993 -0.4477
  144OSM   H16T15761   3.961   6.304   4.035 -0.8770 -0.7268  1.5838
  144OSM   C17S15762   3.792   6.434   4.102  0.7994  0.0450  0.1579
  144OSM   H17S15763   3.718   6.393   4.031 -0.7869  0.6591  1.3838
  144OSM   H17T15764   3.768   6.543   4.097  3.3641  0.6528 -0.5066
  144OSM   C18S15765   3.762   6.387   4.245 -0.2544  0.2408 -0.0179
  144OSM   H18S15766   3.784   6.279   4.261  1.0476  0.5405  0.3014
  144OSM   H18T15767   3.659   6.401   4.284 -1.0487 -0.3877 -1.7771
  144OSM   H18U15768   3.837   6.441   4.305 -0.4827 -2.5591  3.1257
  144OSM    C1F15769   4.595   6.124   2.523  0.1700 -0.0896 -0.6823
  144OSM     OF15770   4.648   6.228   2.483 -0.2823  0.1141  0.3392
  144OSM    C2F15771   4.659   5.996   2.555 -0.3257 -0.0823 -0.6400
  144OSM    H2F15772   4.637   5.919   2.478 -2.6416 -0.5202  0.3735
  144OSM    H2G15773   4.617   5.952   2.648  2.0210  0.4323  0.7374
  144OSM    C3F15774   4.816   6.013   2.586 -0.1858 -0.3715 -0.7601
  144OSM    H3F15775   4.860   6.057   2.493  0.2603  3.7028  1.1488
  144OSM    H3G15776   4.865   5.914   2.596  0.3112  0.0545  1.5556
  144OSM    C4F15777   4.855   6.116   2.702 -0.3122  0.0076 -0.0335
  144OSM    H4F15778   4.838   6.223   2.678  0.4672  0.6894  2.1730
  144OSM    H4G15779   4.965   6.109   2.715 -0.4191 -0.1732  0.9024
  144OSM    C5F15780   4.789   6.081   2.842 -0.9553  0.2543 -0.1453
  144OSM    H5F15781   4.806   5.973   2.860  2.2938  0.8672  1.3167
  144OSM    H5G15782   4.680   6.100   2.836 -1.0027  0.2707  0.6091
  144OSM    C6F15783   4.859   6.149   2.969 -0.1687 -0.6749 -0.0367
  144OSM    H6F15784   4.967   6.160   2.949 -0.1438 -1.7647 -0.5850
  144OSM    H6G15785   4.851   6.089   3.062 -3.8099  0.3712  0.4788
  144OSM    C7F15786   4.787   6.276   3.008 -0.2426 -0.4599 -0.3215
  144OSM    H7F15787   4.807   6.352   2.930  0.0673 -0.7973 -0.5745
  144OSM    H7G15788   4.841   6.319   3.095 -0.1356 -0.3125 -0.4593
  144OSM    C8F15789   4.633   6.262   3.038  0.2489  0.2031  0.1410
  144OSM    H8F15790   4.580   6.219   2.951 -2.1710  2.5794  0.3282
  144OSM    H8G15791   4.607   6.370   3.047  1.7540  0.5772  0.2744
  144OSM    C9F15792   4.599   6.183   3.156 -0.9403 -0.4590  0.3333
  144OSM    H9F15793   4.601   6.076   3.130 -0.3957 -0.3928  0.0792
  144OSM   C10F15794   4.566   6.208   3.281  0.1676  0.7840 -0.1379
  144OSM   H10F15795   4.555   6.128   3.355 -3.0726  0.3601 -0.9289
  144OSM   C11F15796   4.558   6.352   3.334 -0.4816 -0.2957  0.2596
  144OSM   H11F15797   4.449   6.373   3.341 -0.2822  1.2879 -0.9767
  144OSM   H11G15798   4.609   6.427   3.271 -0.3622 -0.3133  0.3356
  144OSM   C12F15799   4.622   6.371   3.473 -0.7915 -0.7842 -0.0793
  144OSM   H12F15800   4.616   6.478   3.501  2.9950 -0.7361  1.0843
  144OSM   H12G15801   4.732   6.352   3.465 -0.6478  0.0071 -0.0741
  144OSM   C13F15802   4.564   6.287   3.588 -0.0021 -0.4695 -0.3208
  144OSM   H13F15803   4.556   6.182   3.552  0.2099  0.1703 -2.3342
  144OSM   H13G15804   4.458   6.316   3.596 -0.1071  0.4065 -3.5413
  144OSM   C14F15805   4.641   6.302   3.723 -0.1804  0.5954 -0.0367
  144OSM   H14F15806   4.649   6.410   3.748 -1.1675  0.4849  0.8517
  144OSM   H14G15807   4.746   6.269   3.711 -1.6103 -4.2806 -1.4370
  144OSM   C15F15808   4.590   6.223   3.847  0.0367  0.3741  0.3070
  144OSM   H15F15809   4.612   6.116   3.828  0.6655  0.5482  0.0018
  144OSM   H15G15810   4.479   6.225   3.844  0.0345 -0.5636 -1.0404
  144OSM   C16F15811   4.639   6.280   3.982 -0.0063  0.6133 -0.2833
  144OSM   H16F15812   4.614   6.387   3.994 -0.5655  0.2718  1.9978
  144OSM   H16G15813   4.749   6.265   3.986 -0.0015  0.3537 -1.1439
  144OSM   C17F15814   4.572   6.213   4.101  0.5756 -0.8953  0.3250
  144OSM   H17F15815   4.601   6.256   4.199  1.4507 -0.0646 -0.2720
  144OSM   H17G15816   4.599   6.106   4.096 -2.6358 -1.8296  0.4476
  144OSM   C18F15817   4.415   6.240   4.105 -0.5614  0.0620 -0.7757
  144OSM   H18F15818   4.387   6.348   4.110 -0.3019  0.0643  1.4282
  144OSM   H18G15819   4.364   6.206   4.197 -0.2165  1.1503 -0.1596
  144OSM   H18H15820   4.370   6.187   4.018 -1.7449 -2.8813  1.4971
  145SAPE     N15821   3.646   6.267   6.509 -0.5344 -0.9359  0.2677
  145SAPE   HN115822   3.584   6.303   6.434 -0.5542 -1.1721  0.1693
  145SAPE   HN215823   3.610   6.174   6.539  0.4611 -0.7321  2.2589
  145SAPE   HN315824   3.630   6.329   6.591  0.2275  1.3870 -1.2447
  145SAPE   C1215825   3.788   6.253   6.472  0.3645 -0.0948 -0.2953
  145SAPE  H12A15826   3.828   6.355   6.452  0.2943  0.0245  0.1694
  145SAPE  H12B15827   3.785   6.204   6.372  1.1383  0.4237 -0.5816
  145SAPE   C1115828   3.873   6.162   6.563  0.0824 -0.7515  0.8356
  145SAPE  H11A15829   3.902   6.214   6.657 -0.2747 -0.8270  0.9904
  145SAPE  H11B15830   3.966   6.151   6.504 -1.0044 -0.1435 -1.0955
  145SAPE     P15831   3.854   5.908   6.640  0.2605  0.1311  0.6203
  145SAPE   O1315832   4.002   5.914   6.650 -0.4071  0.6402 -0.1612
  145SAPE   O1415833   3.778   5.869   6.764  0.5013 -0.5654 -0.3393
  145SAPE   O1215834   3.797   6.042   6.578  0.5300 -0.1309  0.6971
  145SAPE   O1115835   3.823   5.800   6.525 -0.3011  0.5064 -0.6111
  145SAPE    C115836   3.740   5.835   6.419  0.4467  0.0228 -0.2106
  145SAPE    HA15837   3.645   5.872   6.464  0.9007  2.6249 -1.1980
  145SAPE    HB15838   3.795   5.903   6.351  2.1118 -2.2810 -1.3078
  145SAPE    C215839   3.685   5.712   6.354  0.5141  0.2923  0.0244
  145SAPE    HS15840   3.639   5.647   6.431  0.3083  0.2068 -0.1696
  145SAPE   O2115841   3.784   5.641   6.275 -0.7719  0.3770 -0.0642
  145SAPE   C2115842   3.761   5.508   6.265  0.3071  0.2369 -0.0978
  145SAPE   O2215843   3.671   5.448   6.319 -0.1964  0.2793 -0.2086
  145SAPE   C2215844   3.883   5.450   6.179  0.3754  0.2944  0.2266
  145SAPE   H2R15845   3.943   5.529   6.128  0.7716 -1.1592 -1.6762
  145SAPE   H2S15846   3.946   5.389   6.247 -1.1047 -1.3661  0.1766
  145SAPE    C315847   3.566   5.760   6.267  0.4267 -0.8158  0.6898
  145SAPE    HX15848   3.593   5.841   6.197  0.6175 -0.4492  1.1807
  145SAPE    HY15849   3.485   5.809   6.326  1.8745  1.4854  0.9023
  145SAPE   O3115850   3.521   5.649   6.183  0.2083  0.2160 -0.1802
  145SAPE   C3115851   3.404   5.674   6.118 -0.0209  1.2107 -0.2179
  145SAPE   O3215852   3.326   5.760   6.142  0.5405 -0.4413  0.5542
  145SAPE   C3215853   3.365   5.566   6.025  0.1788 -0.0603 -0.4793
  145SAPE   H2X15854   3.294   5.500   6.080  1.8014 -0.4845  1.2174
  145SAPE   H2Y15855   3.448   5.495   6.004  0.9250  1.6522 -4.0926
  145SAPE   C2315856   3.835   5.354   6.074 -0.3267 -0.4629  0.6851
  145SAPE   H3R15857   3.754   5.287   6.111 -0.6079 -1.1853 -1.1299
  145SAPE   H3S15858   3.917   5.281   6.055  0.3504  0.3373  0.4413
  145SAPE   C2415859   3.775   5.416   5.948  1.0931 -0.2314  0.2829
  145SAPE   H4R15860   3.703   5.494   5.980 -1.2591 -1.2659 -2.1097
  145SAPE   H4S15861   3.713   5.329   5.919 -0.5783  1.2465 -0.7617
  145SAPE   C2515862   3.871   5.464   5.849 -0.0794 -0.1372 -0.9467
  145SAPE   H5R15863   3.965   5.498   5.895  0.6431 -3.0738 -0.0500
  145SAPE   C2615864   3.854   5.453   5.715  0.4103 -0.9535 -0.3651
  145SAPE   H6R15865   3.943   5.494   5.665  0.2908  1.5951  1.3128
  145SAPE   C2715866   3.736   5.400   5.635  0.1019  0.0018 -0.9066
  145SAPE   H7R15867   3.656   5.370   5.705 -0.7317  2.6441 -0.6368
  145SAPE   H7S15868   3.773   5.299   5.605  0.0604 -0.8292  1.6215
  145SAPE   C2815869   3.681   5.493   5.529 -0.4399 -0.6998 -0.2816
  145SAPE   H8R15870   3.623   5.576   5.573 -0.5987 -0.1296 -1.5084
  145SAPE   C2915871   3.714   5.512   5.395  0.8483  0.1267  0.7502
  145SAPE   H9R15872   3.663   5.589   5.335  1.1311  0.4788  0.9502
  145SAPE  C21015873   3.809   5.427   5.310 -0.9104 -0.4430 -0.2045
  145SAPE  H10R15874   3.821   5.333   5.368  0.2115  1.2778  2.5846
  145SAPE  H10S15875   3.908   5.476   5.325 -0.9062 -0.8246  1.1877
  145SAPE  C21115876   3.750   5.401   5.173  0.4049 -0.3166  1.1648
  145SAPE  H11R15877   3.726   5.296   5.151  0.5904 -0.2885  0.8151
  145SAPE  C21215878   3.745   5.490   5.069 -0.2248 -0.6446 -0.2882
  145SAPE  H12R15879   3.699   5.464   4.973  0.5452 -0.7648 -0.6320
  145SAPE  C21315880   3.802   5.632   5.083 -0.2187 -0.0331 -0.0419
  145SAPE  H13R15881   3.902   5.631   5.133  0.1571 -0.9828 -0.7887
  145SAPE  H13S15882   3.726   5.686   5.143 -2.4029 -1.2425 -1.5949
  145SAPE  C21415883   3.825   5.694   4.954 -0.3790 -0.1523 -0.0301
  145SAPE  H14R15884   3.924   5.739   4.939 -0.7232  0.3226 -0.9568
  145SAPE  C21515885   3.746   5.704   4.843  0.1516  0.5869  0.2558
  145SAPE  H15R15886   3.776   5.758   4.752 -2.1765  1.2278 -0.2011
  145SAPE  C21615887   3.596   5.658   4.829 -0.6842 -0.4485  0.4441
  145SAPE  H16R15888   3.552   5.760   4.824  1.2122  0.3531 -2.1902
  145SAPE  H16S15889   3.567   5.600   4.919  1.0090  0.6469  1.7695
  145SAPE  C21715890   3.583   5.569   4.707  0.0543  0.0051  0.9530
  145SAPE  H17R15891   3.503   5.496   4.728  0.0027 -1.0463 -2.2512
  145SAPE  H17S15892   3.677   5.511   4.695  0.6095  1.2223 -1.1386
  145SAPE  C21815893   3.539   5.653   4.585  0.3154  0.2361 -0.0908
  145SAPE  H18R15894   3.557   5.609   4.485 -0.2505 -0.3286  0.0429
  145SAPE  H18S15895   3.604   5.743   4.581  2.8604 -1.4724  0.3137
  145SAPE  C21915896   3.390   5.682   4.593 -0.5457 -0.5283 -0.0567
  145SAPE  H19R15897   3.382   5.752   4.678  2.3062  0.9482 -0.8807
  145SAPE  H19S15898   3.341   5.583   4.607 -0.3524 -0.7711 -0.9939
  145SAPE  C22015899   3.334   5.755   4.470  0.3447  0.3065  0.6012
  145SAPE  H20R15900   3.225   5.770   4.484  0.5155  1.0984  1.1531
  145SAPE  H20S15901   3.342   5.706   4.370 -2.6547 -1.0797  0.9361
  145SAPE  H20T15902   3.387   5.852   4.457 -2.2381  1.7418  0.2393
  145SAPE   C3315903   3.309   5.627   5.896  0.1700  0.8484  0.7189
  145SAPE   H3X15904   3.371   5.711   5.858  1.2796 -1.3823 -3.0113
  145SAPE   H3Y15905   3.206   5.652   5.929 -0.1248  1.0768 -0.3221
  145SAPE   C3415906   3.299   5.533   5.773 -0.0490 -0.5899  0.4932
  145SAPE   H4X15907   3.234   5.444   5.786 -1.4206 -0.0872 -2.1126
  145SAPE   H4Y15908   3.399   5.496   5.743  0.1595 -0.4576  1.0134
  145SAPE   C3515909   3.242   5.607   5.647  0.1154  0.9736 -0.6462
  145SAPE   H5X15910   3.312   5.692   5.630 -0.1129  1.2446 -0.2391
  145SAPE   H5Y15911   3.135   5.626   5.668 -0.2455 -1.7450  0.4155
  145SAPE   C3615912   3.257   5.512   5.521  0.2868  0.3757 -0.1124
  145SAPE   H6X15913   3.196   5.421   5.543  0.5361  0.5224  1.2230
  145SAPE   H6Y15914   3.360   5.478   5.496  0.6857  1.5536 -0.1537
  145SAPE   C3715915   3.209   5.595   5.404  0.3053  0.2713 -0.0468
  145SAPE   H7X15916   3.257   5.694   5.399 -0.1990  0.6468  1.7946
  145SAPE   H7Y15917   3.102   5.615   5.426  0.6192 -0.1231  2.0682
  145SAPE   C3815918   3.227   5.525   5.269  0.2621 -1.2820 -0.4138
  145SAPE   H8X15919   3.154   5.442   5.257 -0.1239 -0.8603 -1.1239
  145SAPE   H8Y15920   3.318   5.463   5.263  0.3650 -1.1112 -0.6317
  145SAPE   C3915921   3.213   5.633   5.150 -0.7504  0.0083  0.6807
  145SAPE   H9X15922   3.292   5.709   5.169  0.3012 -1.2221  1.4498
  145SAPE   H9Y15923   3.119   5.692   5.155 -0.3031  1.0048 -1.4067
  145SAPE  C31015924   3.235   5.578   5.006  0.1861 -0.2827 -0.2080
  145SAPE  H10X15925   3.307   5.495   5.016 -0.0421 -0.4826 -0.2087
  145SAPE  H10Y15926   3.288   5.654   4.945 -0.2856 -1.1107 -1.6866
  145SAPE  C31115927   3.100   5.535   4.940  0.2980 -0.4442  0.7300
  145SAPE  H11X15928   3.037   5.625   4.925 -1.4119 -1.9051 -1.4431
  145SAPE  H11Y15929   3.034   5.469   5.000 -0.8009 -0.2747 -0.2575
  145SAPE  C31215930   3.122   5.478   4.795 -0.6753 -0.0261 -0.1248
  145SAPE  H12X15931   3.214   5.416   4.786 -1.2205 -0.5880 -3.0397
  145SAPE  H12Y15932   3.124   5.562   4.723  2.6875 -0.4046 -0.6230
  145SAPE  C31315933   3.003   5.384   4.749 -0.1739 -0.2088  0.0606
  145SAPE  H13X15934   2.914   5.451   4.749 -0.8262 -1.0460 -0.9710
  145SAPE  H13Y15935   2.990   5.301   4.822  1.2439  1.2218  2.0799
  145SAPE  C31415936   3.017   5.348   4.596  0.5184  0.1767 -0.2701
  145SAPE  H14X15937   3.121   5.341   4.558  0.5438 -3.3717  0.1056
  145SAPE  H14Y15938   2.971   5.434   4.543  0.1414 -1.0532 -1.9861
  145SAPE  C31515939   2.934   5.230   4.553  0.3910  0.0317 -0.0341
  145SAPE  H15X15940   2.926   5.250   4.444  2.3873  2.9593  0.2428
  145SAPE  H15Y15941   2.837   5.218   4.604  0.1152 -0.9169 -0.7480
  145SAPE  C31615942   3.018   5.100   4.569  0.0532  0.2029  0.1916
  145SAPE  H16X15943   3.040   5.071   4.674 -0.9376 -1.2954  0.0132
  145SAPE  H16Y15944   3.116   5.124   4.522  0.0433 -1.4840 -0.7716
  145SAPE  C31715945   2.971   4.982   4.488  0.2217  0.2280  0.1063
  145SAPE  H17X15946   3.012   4.886   4.525 -0.3613 -0.4837 -1.0352
  145SAPE  H17Y15947   3.014   5.007   4.388 -0.2684  1.6762  0.2320
  145SAPE  C31815948   2.822   4.968   4.483  0.6179  0.0647 -0.2839
  145SAPE  H18X15949   2.809   4.861   4.454 -0.9547  0.3074 -0.5620
  145SAPE  H18Y15950   2.778   5.030   4.402  1.1961  0.7146 -0.1098
  145SAPE  H18Z15951   2.777   4.995   4.581 -0.5709  0.6787 -0.9699
  146SAPE     N15952   0.404   6.197   6.913  0.3050 -0.2231  0.1802
  146SAPE   HN115953   0.451   6.290   6.906 -1.6805  0.8807  0.6021
  146SAPE   HN215954   0.316   6.241   6.948 -0.5317 -0.6222 -1.3379
  146SAPE   HN315955   0.448   6.140   6.989  0.4298 -1.2588 -0.6469
  146SAPE   C1215956   0.396   6.110   6.789 -0.1747 -0.2605  0.4999
  146SAPE  H12A15957   0.503   6.102   6.758  0.0170  1.4659  0.6423
  146SAPE  H12B15958   0.338   6.166   6.712 -0.3649  0.3511  1.0773
  146SAPE   C1115959   0.322   5.986   6.825  0.0720  0.2131  0.2444
  146SAPE  H11A15960   0.370   5.940   6.914  0.3922  0.6898  0.3207
  146SAPE  H11B15961   0.330   5.919   6.736  0.9232 -0.1169  0.5596
  146SAPE     P15962   0.081   5.906   6.883 -0.0146 -0.0364  0.0977
  146SAPE   O1315963   0.126   5.786   6.965  0.1979  0.3071 -0.1235
  146SAPE   O1415964  -0.038   5.976   6.938  0.2239 -0.2028 -0.1321
  146SAPE   O1215965   0.190   6.010   6.865 -0.3250 -0.2211 -0.2451
  146SAPE   O1115966   0.046   5.863   6.737 -0.4438 -0.1766  0.1102
  146SAPE    C115967  -0.023   5.938   6.645 -0.0079 -0.9008  0.2719
  146SAPE    HA15968  -0.119   5.891   6.615 -0.1456  0.2922 -1.3198
  146SAPE    HB15969  -0.050   6.033   6.696 -4.9774 -3.1096  2.4298
  146SAPE    C215970   0.053   5.968   6.515 -0.0608  0.3233 -0.7635
  146SAPE    HS15971   0.129   6.042   6.548  0.4306  0.2114 -1.6142
  146SAPE   O2115972  -0.031   6.019   6.409  0.3665 -0.7520 -0.2236
  146SAPE   C2115973  -0.073   6.152   6.431  0.3534  0.5478 -1.0473
  146SAPE   O2215974  -0.037   6.211   6.533  0.7633  0.2900  0.6494
  146SAPE   C2215975  -0.156   6.216   6.318 -0.1065 -0.3216 -0.3190
  146SAPE   H2R15976  -0.244   6.274   6.352  0.1455  0.3427 -0.7707
  146SAPE   H2S15977  -0.079   6.276   6.265  1.3300  0.2137  2.2111
  146SAPE    C315978   0.128   5.839   6.462  0.4011 -0.2312  0.3291
  146SAPE    HX15979   0.053   5.759   6.441 -0.1620  0.7246 -1.4922
  146SAPE    HY15980   0.202   5.804   6.538  1.1129  0.4508 -0.0405
  146SAPE   O3115981   0.185   5.866   6.332  0.0640 -0.1348  0.1891
  146SAPE   C3115982   0.300   5.946   6.345  0.9661  0.4601 -0.0551
  146SAPE   O3215983   0.349   5.980   6.453 -0.0083  0.0137 -0.6049
  146SAPE   C3215984   0.361   5.965   6.201 -0.3224  0.1048 -1.0798
  146SAPE   H2X15985   0.456   5.908   6.199 -0.5547 -0.2515 -2.1300
  146SAPE   H2Y15986   0.396   6.070   6.206  1.2913 -0.4007 -1.2659
  146SAPE   C2315987  -0.197   6.117   6.196  0.3405 -0.0738 -0.0278
  146SAPE   H3R15988  -0.275   6.052   6.240 -0.0383  0.6731  0.4386
  146SAPE   H3S15989  -0.110   6.062   6.154  1.4746  2.3429 -1.0978
  146SAPE   C2415990  -0.264   6.183   6.070  0.4051  0.2521 -0.1659
  146SAPE   H4R15991  -0.196   6.264   6.038 -0.2903  0.5949 -0.8184
  146SAPE   H4S15992  -0.358   6.229   6.108  0.1529 -0.7633  0.4781
  146SAPE   C2515993  -0.297   6.086   5.957  0.0813 -0.0592  0.0961
  146SAPE   H5R15994  -0.343   5.991   5.989 -0.8855  0.2008 -0.4695
  146SAPE   C2615995  -0.294   6.099   5.824 -0.5745 -0.0739 -0.0692
  146SAPE   H6R15996  -0.327   6.008   5.770  0.4716  0.7239 -2.1695
  146SAPE   C2715997  -0.259   6.219   5.738  0.6291  0.5731  0.7055
  146SAPE   H7R15998  -0.240   6.313   5.795  1.5909  1.6318 -1.2279
  146SAPE   H7S15999  -0.354   6.239   5.683  0.3085  1.7150  1.6157
  146SAPE   C2816000  -0.158   6.192   5.631  0.2485  0.4118  0.0929
  146SAPE   H8R16001  -0.057   6.223   5.662 -0.0133  2.1980 -0.6970
  146SAPE   C2916002  -0.169   6.129   5.508  0.0458 -0.5301  0.2137
  146SAPE   H9R16003  -0.082   6.127   5.441  2.2241  0.6059  2.8343
  146SAPE  C21016004  -0.296   6.067   5.447  0.0883  1.0322 -1.1930
  146SAPE  H10R16005  -0.376   6.036   5.517  0.9038 -0.6779 -0.9496
  146SAPE  H10S16006  -0.273   5.968   5.401 -0.8022 -0.4928  1.4636
  146SAPE  C21116007  -0.352   6.159   5.345  0.4638 -0.5563  1.0282
  146SAPE  H11R16008  -0.359   6.263   5.381  0.9125 -0.2847  0.3563
  146SAPE  C21216009  -0.420   6.127   5.232  0.2128  0.8864 -0.1902
  146SAPE  H12R16010  -0.461   6.215   5.181  3.1800  2.8039  0.4643
  146SAPE  C21316011  -0.449   5.996   5.168 -0.6310 -0.0326 -0.4600
  146SAPE  H13R16012  -0.557   5.975   5.182 -0.0863 -1.6902  2.0236
  146SAPE  H13S16013  -0.390   5.918   5.222  0.9078  1.1960 -0.3002
  146SAPE  C21416014  -0.396   5.993   5.023  0.1961  0.0148  0.4235
  146SAPE  H14R16015  -0.289   5.971   5.013 -0.0430 -0.6637 -0.7951
  146SAPE  C21516016  -0.469   6.002   4.908  0.2485  0.0819 -0.1554
  146SAPE  H15R16017  -0.427   5.987   4.807 -0.9044 -2.5339 -0.3162
  146SAPE  C21616018  -0.621   6.026   4.920 -0.1676  0.1176  0.7858
  146SAPE  H16R16019  -0.616   6.110   4.849 -0.3774  0.3084  0.9944
  146SAPE  H16S16020  -0.648   6.085   5.011  1.2203  0.2840  1.1090
  146SAPE  C21716021  -0.730   5.923   4.867 -0.0924  0.3193 -0.1044
  146SAPE  H17R16022  -0.827   5.966   4.900  0.2968  0.5546  0.7547
  146SAPE  H17S16023  -0.722   5.829   4.926 -2.5374 -0.4483 -0.8609
  146SAPE  C21816024  -0.738   5.872   4.723 -0.2983 -0.4923 -0.8425
  146SAPE  H18R16025  -0.827   5.805   4.714 -0.5952 -0.2219 -0.0096
  146SAPE  H18S16026  -0.654   5.800   4.716  2.0614  2.1030 -0.5872
  146SAPE  C21916027  -0.728   5.971   4.608 -0.0995 -0.5174  0.4448
  146SAPE  H19R16028  -0.623   6.005   4.618  1.3218 -4.7488  2.5331
  146SAPE  H19S16029  -0.803   6.053   4.618  0.3678 -0.0424  0.1268
  146SAPE  C22016030  -0.732   5.907   4.475 -0.4627  0.5031 -0.3091
  146SAPE  H20R16031  -0.825   5.849   4.456  0.2510 -0.8870  0.3130
  146SAPE  H20S16032  -0.657   5.826   4.460 -0.0807  0.3869  1.9615
  146SAPE  H20T16033  -0.714   5.979   4.392  0.9208  1.8078  1.0730
  146SAPE   C3316034   0.270   5.952   6.076  0.4898  0.8925  0.2715
  146SAPE   H3X16035   0.188   6.027   6.085 -0.4662  0.2553 -2.2410
  146SAPE   H3Y16036   0.222   5.851   6.075 -0.4463  1.2836  1.7842
  146SAPE   C3416037   0.339   5.966   5.937 -0.0751 -0.1289 -0.1626
  146SAPE   H4X16038   0.408   5.881   5.916 -0.9922 -0.9469  0.0777
  146SAPE   H4Y16039   0.401   6.059   5.935 -0.2280  0.0514  1.8921
  146SAPE   C3516040   0.247   5.973   5.815 -0.0591  0.2765  0.6870
  146SAPE   H5X16041   0.165   5.902   5.837 -0.3320  0.9257  1.8279
  146SAPE   H5Y16042   0.294   5.934   5.722  1.6598  0.7504  1.3098
  146SAPE   C3616043   0.175   6.103   5.776 -0.4048 -0.4909  0.2868
  146SAPE   H6X16044   0.136   6.162   5.862  0.7014  0.4810  0.1341
  146SAPE   H6Y16045   0.085   6.072   5.718  0.5854 -0.7518 -1.1668
  146SAPE   C3716046   0.273   6.198   5.699  0.1402  0.7101  0.3270
  146SAPE   H7X16047   0.345   6.239   5.773  0.8716  1.7931 -0.9367
  146SAPE   H7Y16048   0.221   6.292   5.672 -1.4691 -0.4864 -0.9420
  146SAPE   C3816049   0.358   6.144   5.581  0.5327  0.0912  0.2190
  146SAPE   H8X16050   0.420   6.059   5.614 -0.5559 -0.9239 -0.2607
  146SAPE   H8Y16051   0.427   6.221   5.542 -2.3424  2.0385 -1.4246
  146SAPE   C3916052   0.270   6.092   5.469  0.0547  0.7574  0.3477
  146SAPE   H9X16053   0.182   6.034   5.504  0.1658  0.8720  0.8149
  146SAPE   H9Y16054   0.319   6.010   5.412 -1.1316  1.7264 -2.2617
  146SAPE  C31016055   0.226   6.198   5.374  0.3869  0.1945  0.5443
  146SAPE  H10X16056   0.310   6.261   5.339 -1.5353  2.0067 -1.0144
  146SAPE  H10Y16057   0.140   6.250   5.422 -0.7708 -1.5934  0.5353
  146SAPE  C31116058   0.172   6.131   5.245  0.0717 -0.0283 -0.2410
  146SAPE  H11X16059   0.100   6.048   5.263 -2.4668  1.7805 -1.4500
  146SAPE  H11Y16060   0.249   6.085   5.180 -0.1903 -0.6586 -0.1103
  146SAPE  C31216061   0.107   6.239   5.147 -0.2517 -0.5225 -0.5399
  146SAPE  H12X16062   0.031   6.284   5.214 -0.4903 -3.2812  1.1983
  146SAPE  H12Y16063   0.066   6.191   5.055  1.3529 -0.2519 -1.4411
  146SAPE  C31316064   0.200   6.351   5.086 -0.7267 -0.0219 -1.0860
  146SAPE  H13X16065   0.252   6.397   5.174 -0.0591  0.9332 -1.9507
  146SAPE  H13Y16066   0.140   6.432   5.041  2.2299  3.4341  0.6303
  146SAPE  C31416067   0.299   6.285   4.988 -0.0694 -0.0347  1.0841
  146SAPE  H14X16068   0.231   6.229   4.921 -0.0317 -0.9115  1.7572
  146SAPE  H14Y16069   0.365   6.202   5.021  0.5697 -0.5259 -1.2551
  146SAPE  C31516070   0.387   6.399   4.931  0.2643 -0.1032 -0.0509
  146SAPE  H15X16071   0.473   6.412   5.000 -0.8130 -1.0069  1.5140
  146SAPE  H15Y16072   0.328   6.493   4.925  3.3462  2.0145  0.0627
  146SAPE  C31616073   0.440   6.369   4.793  0.4070  0.1643  0.4310
  146SAPE  H16X16074   0.482   6.465   4.755  0.8616 -1.3842 -3.4065
  146SAPE  H16Y16075   0.361   6.336   4.722  1.3742 -0.6179 -0.3189
  146SAPE  C31716076   0.560   6.273   4.790  0.5041 -0.2763  0.3008
  146SAPE  H17X16077   0.533   6.172   4.826 -0.0468 -0.4584 -0.5878
  146SAPE  H17Y16078   0.628   6.316   4.866 -0.9432  2.0630  0.3692
  146SAPE  C31816079   0.628   6.255   4.655  0.2097  0.2605 -0.1039
  146SAPE  H18X16080   0.717   6.190   4.667  1.3541  1.1934 -2.7220
  146SAPE  H18Y16081   0.675   6.346   4.612  1.7141  0.1035  1.1189
  146SAPE  H18Z16082   0.559   6.209   4.581  0.6445 -0.4772 -0.0603
  147SAPE     N16083   4.463   2.204   6.501 -0.2981 -0.1106 -0.4948
  147SAPE   HN116084   4.512   2.152   6.577 -1.4322  1.5532  1.4924
  147SAPE   HN216085   4.514   2.194   6.411  0.7596  0.4234  0.0333
  147SAPE   HN316086   4.448   2.302   6.532 -0.5158 -0.1904 -0.3448
  147SAPE   C1216087   4.333   2.134   6.515  0.0409  0.3623  0.0661
  147SAPE  H12A16088   4.260   2.154   6.433  0.3396 -1.4503 -0.6946
  147SAPE  H12B16089   4.287   2.158   6.613 -1.2830 -1.1804 -0.1299
  147SAPE   C1116090   4.356   1.978   6.518  0.0390  0.2817  0.1130
  147SAPE  H11A16091   4.404   1.940   6.425  3.3068  1.3508  1.2120
  147SAPE  H11B16092   4.254   1.937   6.510 -0.2511  1.1337 -0.9112
  147SAPE     P16093   4.571   1.905   6.649  0.1168 -0.2413 -0.1803
  147SAPE   O1316094   4.631   2.042   6.668 -0.4986  0.3477  0.0758
  147SAPE   O1416095   4.604   1.803   6.752  0.4387 -0.7709 -0.5294
  147SAPE   O1216096   4.408   1.922   6.632 -0.5228  0.5879 -0.3780
  147SAPE   O1116097   4.630   1.854   6.516 -1.0470  0.3134  0.4416
  147SAPE    C116098   4.575   1.745   6.445 -0.3071 -0.0349  0.2775
  147SAPE    HA16099   4.600   1.653   6.502  2.0500 -0.3129 -1.0582
  147SAPE    HB16100   4.464   1.740   6.438 -0.1758 -0.6583 -3.1343
  147SAPE    C216101   4.633   1.741   6.300  0.1304  0.5707 -0.7124
  147SAPE    HS16102   4.740   1.763   6.315 -0.4760  2.2202  1.6768
  147SAPE   O2116103   4.557   1.839   6.223 -0.6476  0.1038  0.3944
  147SAPE   C2116104   4.631   1.923   6.159  0.3196 -0.1232  0.1750
  147SAPE   O2216105   4.753   1.930   6.154  0.6657  0.2102 -0.0315
  147SAPE   C2216106   4.537   2.017   6.086  0.4778 -0.2036  0.4046
  147SAPE   H2R16107   4.489   1.961   6.003  2.6934 -0.2536 -0.9046
  147SAPE   H2S16108   4.459   2.056   6.155 -2.3275  0.6373 -3.0063
  147SAPE    C316109   4.612   1.599   6.244  0.3071 -0.1333  0.1148
  147SAPE    HX16110   4.501   1.596   6.234  0.2986 -0.4195  0.2728
  147SAPE    HY16111   4.635   1.517   6.316 -0.9117 -0.6372 -0.0366
  147SAPE   O3116112   4.686   1.577   6.122  0.0749 -0.6040 -0.1897
  147SAPE   C3116113   4.621   1.552   6.016 -0.0933  0.2017  0.6622
  147SAPE   O3216114   4.500   1.534   6.007 -0.0512  0.4595 -0.7111
  147SAPE   C3216115   4.718   1.553   5.903  0.0248 -0.4486  0.0766
  147SAPE   H2X16116   4.769   1.455   5.893  1.5992  0.2167  1.2381
  147SAPE   H2Y16117   4.797   1.623   5.936 -1.5055 -0.0774  3.3987
  147SAPE   C2316118   4.616   2.124   6.015  0.3062 -0.2633  0.4070
  147SAPE   H3R16119   4.686   2.082   5.939 -0.0516  0.4567 -0.3366
  147SAPE   H3S16120   4.684   2.176   6.086  1.9444 -1.7919  0.0393
  147SAPE   C2416121   4.535   2.240   5.946 -0.0335  0.2960  0.7588
  147SAPE   H4R16122   4.604   2.297   5.880  0.1620 -1.6515 -0.8183
  147SAPE   H4S16123   4.491   2.303   6.025  2.6206  0.8521  1.9016
  147SAPE   C2516124   4.427   2.190   5.851 -0.2875  0.6424  0.0506
  147SAPE   H5R16125   4.373   2.121   5.918  1.1076 -0.8034 -0.2346
  147SAPE   C2616126   4.400   2.217   5.718 -0.3216 -0.1502  0.9469
  147SAPE   H6R16127   4.318   2.165   5.665 -0.3995 -0.0568  0.9760
  147SAPE   C2716128   4.466   2.315   5.618  0.4876  0.5518  0.5221
  147SAPE   H7R16129   4.534   2.385   5.672  1.4867  0.5913 -0.7608
  147SAPE   H7S16130   4.382   2.371   5.570  1.1949  0.9437 -0.2787
  147SAPE   C2816131   4.539   2.248   5.508  0.0256 -0.1107  0.3827
  147SAPE   H8R16132   4.649   2.240   5.517 -0.0692 -4.9236 -0.2732
  147SAPE   C2916133   4.484   2.198   5.394  0.2985  0.3440 -0.2422
  147SAPE   H9R16134   4.555   2.159   5.320  2.5202 -0.1859  2.0122
  147SAPE  C21016135   4.331   2.192   5.372 -1.1425  0.2142 -0.3502
  147SAPE  H10R16136   4.283   2.284   5.409 -0.0259  0.9050 -0.5729
  147SAPE  H10S16137   4.293   2.103   5.427  2.7675 -2.2997 -1.3009
  147SAPE  C21116138   4.294   2.165   5.227 -0.4997  0.0614 -0.3104
  147SAPE  H11R16139   4.303   2.058   5.205 -0.8719 -0.1548  0.5403
  147SAPE  C21216140   4.265   2.257   5.132  0.4054  0.4619  0.4258
  147SAPE  H12R16141   4.237   2.220   5.032 -0.9851  1.8393  0.2590
  147SAPE  C21316142   4.266   2.410   5.145 -0.3949  0.2618 -0.3165
  147SAPE  H13R16143   4.343   2.432   5.221 -1.6294 -0.3643  1.1596
  147SAPE  H13S16144   4.162   2.438   5.173 -0.9052  1.1066 -2.8014
  147SAPE  C21416145   4.292   2.482   5.019 -0.7503 -0.6186 -0.8334
  147SAPE  H14R16146   4.204   2.512   4.961  0.2369  2.4223 -0.9376
  147SAPE  C21516147   4.407   2.536   4.981  0.1427  0.0467 -0.0609
  147SAPE  H15R16148   4.405   2.615   4.904  0.6016  3.2526  2.9349
  147SAPE  C21616149   4.537   2.523   5.052  0.6834  0.5656 -0.2748
  147SAPE  H16R16150   4.520   2.479   5.153 -2.0378  3.6397  0.7814
  147SAPE  H16S16151   4.584   2.623   5.065  3.0251 -0.3666 -0.9261
  147SAPE  C21716152   4.625   2.426   4.980  0.2878 -0.0454  0.0539
  147SAPE  H17R16153   4.564   2.334   4.976 -2.1464  1.5183 -1.9555
  147SAPE  H17S16154   4.710   2.398   5.046  0.2016 -1.6044 -0.4696
  147SAPE  C21816155   4.680   2.463   4.846 -0.0789  0.2491  0.2045
  147SAPE  H18R16156   4.742   2.555   4.855  1.6323 -0.7311 -0.9874
  147SAPE  H18S16157   4.598   2.498   4.780 -1.2826  0.2933  1.6665
  147SAPE  C21916158   4.772   2.356   4.775  0.7428 -0.3744  0.1401
  147SAPE  H19R16159   4.815   2.296   4.858 -2.3884 -1.7190  0.9440
  147SAPE  H19S16160   4.846   2.414   4.716  0.2986 -0.8727 -0.9130
  147SAPE  C22016161   4.706   2.265   4.674  0.4593 -0.2009  0.3619
  147SAPE  H20R16162   4.618   2.219   4.722  1.6706 -1.5358  1.3813
  147SAPE  H20S16163   4.774   2.185   4.638  1.2096  1.1869 -1.4604
  147SAPE  H20T16164   4.666   2.314   4.583  1.9619 -0.8494 -0.7010
  147SAPE   C3316165   4.650   1.607   5.775  0.4407 -0.5148  0.1731
  147SAPE   H3X16166   4.620   1.711   5.802 -0.2586 -1.1030  1.8061
  147SAPE   H3Y16167   4.565   1.543   5.744 -0.7550  0.6789  0.8563
  147SAPE   C3416168   4.748   1.620   5.659  0.4422  0.2148  0.3029
  147SAPE   H4X16169   4.786   1.516   5.647 -1.4386 -0.7080  1.7111
  147SAPE   H4Y16170   4.837   1.682   5.681  0.9995 -0.8013  1.0168
  147SAPE   C3516171   4.688   1.676   5.527 -0.2879  0.1106 -0.4625
  147SAPE   H5X16172   4.628   1.761   5.565  0.7329  0.9573 -0.6913
  147SAPE   H5Y16173   4.616   1.598   5.496 -2.6411  2.0876 -0.2601
  147SAPE   C3616174   4.782   1.713   5.410 -0.2398 -0.1488  1.1407
  147SAPE   H6X16175   4.843   1.622   5.392  0.4426  0.1167  2.0056
  147SAPE   H6Y16176   4.856   1.793   5.434 -0.5397  0.5917 -0.2587
  147SAPE   C3716177   4.698   1.767   5.288  0.4041  0.1400  0.3853
  147SAPE   H7X16178   4.632   1.846   5.330 -0.0876 -0.7543  1.3511
  147SAPE   H7Y16179   4.616   1.697   5.263  0.3808 -0.5155  2.1353
  147SAPE   C3816180   4.778   1.810   5.162 -0.1619 -0.4248  0.1759
  147SAPE   H8X16181   4.842   1.724   5.134 -1.6537 -0.8039 -2.4317
  147SAPE   H8Y16182   4.836   1.900   5.191 -1.7727  0.0277  2.2318
  147SAPE   C3916183   4.684   1.845   5.038 -0.1202  0.3270 -0.3784
  147SAPE   H9X16184   4.614   1.759   5.030  0.7000 -0.4605  0.4816
  147SAPE   H9Y16185   4.747   1.856   4.946  0.5556  1.0727  0.1665
  147SAPE  C31016186   4.607   1.976   5.069  0.7439  0.1706  0.4219
  147SAPE  H10X16187   4.685   2.046   5.103  1.2034 -0.7909  1.4196
  147SAPE  H10Y16188   4.528   1.961   5.146  0.1590  1.9603  0.2000
  147SAPE  C31116189   4.525   2.022   4.945  0.5587 -0.1349 -0.4472
  147SAPE  H11X16190   4.592   2.012   4.858  0.1935 -1.8725 -0.5680
  147SAPE  H11Y16191   4.510   2.130   4.969  1.8184  0.2271 -1.2123
  147SAPE  C31216192   4.384   1.961   4.929 -0.2411 -0.1071 -0.5035
  147SAPE  H12X16193   4.329   1.978   5.024 -0.3600  1.5471 -0.8360
  147SAPE  H12Y16194   4.401   1.851   4.925 -0.2984 -0.2900  2.3342
  147SAPE  C31316195   4.307   2.019   4.812  0.1354  0.1725  0.1600
  147SAPE  H13X16196   4.346   1.975   4.718  1.5122 -0.5543  1.0414
  147SAPE  H13Y16197   4.312   2.129   4.824  2.0020  0.1052  0.3214
  147SAPE  C31416198   4.156   1.981   4.817 -0.8129  0.1021  0.8476
  147SAPE  H14X16199   4.114   2.039   4.902 -1.2528  2.2201 -0.7501
  147SAPE  H14Y16200   4.134   1.873   4.837 -0.5445  0.2200  1.8538
  147SAPE  C31516201   4.087   2.011   4.691 -0.5752 -1.2807  0.4792
  147SAPE  H15X16202   3.987   1.964   4.682 -0.9187 -0.2164 -2.4779
  147SAPE  H15Y16203   4.154   1.976   4.609  0.6691 -1.8224  1.6999
  147SAPE  C31616204   4.064   2.158   4.666  0.1547  0.2682  0.0717
  147SAPE  H16X16205   4.158   2.217   4.667  0.3985  0.0840 -2.7899
  147SAPE  H16Y16206   4.004   2.200   4.749 -1.4901 -0.7441 -0.5446
  147SAPE  C31716207   3.994   2.186   4.533 -0.2599 -0.7706 -0.0265
  147SAPE  H17X16208   3.976   2.295   4.519 -1.8237 -0.8461  1.0751
  147SAPE  H17Y16209   3.894   2.139   4.541 -1.3923  1.7026  1.7173
  147SAPE  C31816210   4.068   2.151   4.406 -0.0293  0.3878  0.1538
  147SAPE  H18X16211   4.018   2.136   4.308 -2.2962  0.4391  1.2481
  147SAPE  H18Y16212   4.130   2.061   4.425  1.0808  0.8620 -1.0490
  147SAPE  H18Z16213   4.137   2.236   4.384 -1.4665  1.1632 -1.6196
  148SAPE     N16214   3.044   2.579   6.760 -0.1088  0.0989 -0.0382
  148SAPE   HN116215   3.147   2.587   6.749 -0.0601  0.1536  0.4332
  148SAPE   HN216216   3.024   2.479   6.741  1.8065 -0.4308  0.5292
  148SAPE   HN316217   2.989   2.649   6.706 -1.3389  0.6346  1.7958
  148SAPE   C1216218   3.023   2.615   6.909  0.0088  0.3526  0.3869
  148SAPE  H12A16219   3.119   2.587   6.957  0.4597  0.2492 -0.5503
  148SAPE  H12B16220   2.933   2.557   6.940 -1.4441  0.4930 -3.0433
  148SAPE   C1116221   3.029   2.766   6.939  0.7202  0.1938  0.7278
  148SAPE  H11A16222   3.019   2.786   7.047 -2.7165  1.1431  0.3396
  148SAPE  H11B16223   2.934   2.801   6.892 -0.4432 -0.4528  2.5198
  148SAPE     P16224   3.159   2.965   6.815  0.0936  0.5366  0.2496
  148SAPE   O1316225   3.076   3.062   6.893 -0.0926 -0.1776 -0.0833
  148SAPE   O1416226   3.302   2.997   6.793 -0.5435 -0.4344 -0.0529
  148SAPE   O1216227   3.151   2.825   6.885 -0.0503  0.3985  0.0414
  148SAPE   O1116228   3.086   2.928   6.674  0.0267  0.1791 -0.3205
  148SAPE    C116229   3.151   2.851   6.565  0.4299 -0.2995  0.5566
  148SAPE    HA16230   3.193   2.751   6.588  2.3073  0.5185  0.9094
  148SAPE    HB16231   3.063   2.837   6.499  1.3408 -1.3298 -0.4846
  148SAPE    C216232   3.240   2.949   6.475  0.1619  0.2501  0.2593
  148SAPE    HS16233   3.303   3.001   6.550 -0.4804  0.4642  0.6605
  148SAPE   O2116234   3.159   3.049   6.413  0.8571  0.1945  0.0522
  148SAPE   C2116235   3.155   3.172   6.456 -0.3992 -0.4088  0.5256
  148SAPE   O2216236   3.201   3.225   6.555 -0.3496  0.3614 -0.0710
  148SAPE   C2216237   3.085   3.259   6.348  0.1664  0.7428  0.0452
  148SAPE   H2R16238   3.125   3.209   6.257  0.5242  1.3591 -0.1433
  148SAPE   H2S16239   2.977   3.239   6.357  0.2229 -0.2927 -1.3117
  148SAPE    C316240   3.319   2.879   6.364  0.7370  0.3193 -0.3628
  148SAPE    HX16241   3.252   2.803   6.318 -0.0476  1.7481 -1.6691
  148SAPE    HY16242   3.406   2.830   6.412  1.7642  0.1729 -2.3078
  148SAPE   O3116243   3.366   2.972   6.262  0.6139 -0.3263 -0.3909
  148SAPE   C3116244   3.490   3.020   6.281  0.4654 -0.5204  0.2198
  148SAPE   O3216245   3.565   3.001   6.374  0.2634 -0.1439  0.4497
  148SAPE   C3216246   3.538   3.094   6.156  0.2285 -0.2646  0.0937
  148SAPE   H2X16247   3.511   3.023   6.074  1.0804 -2.5543  1.6904
  148SAPE   H2Y16248   3.649   3.094   6.150  0.3922 -2.1933  1.7938
  148SAPE   C2316249   3.121   3.414   6.350 -0.0737  0.1189  0.1051
  148SAPE   H3R16250   3.227   3.431   6.377  0.5544 -0.6613 -1.7287
  148SAPE   H3S16251   3.052   3.471   6.416 -0.7723  2.1120 -2.1483
  148SAPE   C2416252   3.123   3.483   6.204 -0.5104 -0.4353 -0.7406
  148SAPE   H4R16253   3.208   3.437   6.149 -1.2429 -2.4644 -0.2837
  148SAPE   H4S16254   3.145   3.591   6.215 -2.2843 -0.0648 -0.4278
  148SAPE   C2516255   2.995   3.458   6.144  0.3873  0.1536 -0.4469
  148SAPE   H5R16256   2.914   3.438   6.216  0.8872 -0.7231 -0.1127
  148SAPE   C2616257   2.969   3.441   6.011 -0.1541  0.2693 -0.3877
  148SAPE   H6R16258   2.865   3.429   5.978 -0.3028 -1.0009  0.4533
  148SAPE   C2716259   3.061   3.440   5.897  0.0771 -0.4808  0.9355
  148SAPE   H7R16260   3.085   3.332   5.882 -0.0668 -0.2665 -1.0823
  148SAPE   H7S16261   3.154   3.496   5.922  0.6282 -1.2021  0.5463
  148SAPE   C2816262   3.004   3.500   5.766  0.3482  0.1677 -0.4328
  148SAPE   H8R16263   3.014   3.609   5.752 -1.9855  0.3202 -1.2769
  148SAPE   C2916264   2.943   3.439   5.667  0.2521 -0.3624 -0.6352
  148SAPE   H9R16265   2.926   3.506   5.581 -2.6902  1.5384  1.2337
  148SAPE  C21016266   2.913   3.293   5.649 -0.5176 -0.0508 -0.0772
  148SAPE  H10R16267   2.912   3.252   5.752  1.1801 -2.6182 -0.9758
  148SAPE  H10S16268   3.002   3.243   5.605 -0.8138 -1.7597  1.1669
  148SAPE  C21116269   2.798   3.244   5.568  0.6571  0.2759  0.0975
  148SAPE  H11R16270   2.698   3.248   5.615  0.6461 -0.2156  0.1185
  148SAPE  C21216271   2.797   3.211   5.439  0.0337  0.7156 -0.4644
  148SAPE  H12R16272   2.704   3.169   5.398  0.2470  0.2134 -0.4410
  148SAPE  C21316273   2.914   3.212   5.337  0.0818  0.4350  0.1206
  148SAPE  H13R16274   2.903   3.116   5.281  1.0908  1.0012 -1.0904
  148SAPE  H13S16275   3.007   3.204   5.397 -1.2940 -1.5164  2.1988
  148SAPE  C21416276   2.934   3.339   5.254  0.7166  0.1197 -0.4808
  148SAPE  H14R16277   2.887   3.428   5.298  0.5046  0.9015 -2.2084
  148SAPE  C21516278   2.987   3.343   5.133 -0.8996  0.1074  0.3604
  148SAPE  H15R16279   3.004   3.441   5.087  0.6988  0.0371  0.7270
  148SAPE  C21616280   3.037   3.217   5.064  0.1644  0.3236  0.4692
  148SAPE  H16R16281   3.053   3.128   5.129 -1.2102  0.4163  0.9585
  148SAPE  H16S16282   3.133   3.250   5.018 -0.4111  2.6090  0.7893
  148SAPE  C21716283   2.944   3.190   4.944 -0.3254  0.1684  0.6630
  148SAPE  H17R16284   2.925   3.289   4.899 -1.7517 -0.6482 -0.6139
  148SAPE  H17S16285   2.854   3.139   4.985 -0.7172  1.2019  1.1260
  148SAPE  C21816286   3.005   3.112   4.828 -0.1875 -0.1451  0.4303
  148SAPE  H18R16287   3.015   3.002   4.844 -2.8295 -1.0273 -2.8240
  148SAPE  H18S16288   3.107   3.143   4.797  0.7183 -3.6790 -0.6655
  148SAPE  C21916289   2.912   3.115   4.704  0.2982 -0.8125  0.2927
  148SAPE  H19R16290   2.897   3.222   4.680 -1.9161 -1.0608  0.4180
  148SAPE  H19S16291   2.809   3.084   4.730 -0.6097  0.4819 -1.5784
  148SAPE  C22016292   2.963   3.035   4.581  0.2685 -0.1068  0.2093
  148SAPE  H20R16293   2.948   2.925   4.586  2.6422 -0.4749  0.3763
  148SAPE  H20S16294   3.071   3.056   4.568  0.9887 -2.7938  1.2608
  148SAPE  H20T16295   2.905   3.078   4.497  2.0369  2.6850  0.2841
  148SAPE   C3316296   3.485   3.235   6.139 -0.0215 -0.3829  0.0490
  148SAPE   H3X16297   3.513   3.300   6.224 -0.4579 -0.3011  0.1323
  148SAPE   H3Y16298   3.374   3.241   6.140 -0.1417 -1.9824 -0.4646
  148SAPE   C3416299   3.531   3.297   6.011  0.3692  0.1675 -0.5112
  148SAPE   H4X16300   3.639   3.272   6.001  0.7094  0.0816  2.4115
  148SAPE   H4Y16301   3.533   3.407   6.027 -0.9776  0.1447 -0.0418
  148SAPE   C3516302   3.439   3.277   5.893 -0.6606 -0.5307 -0.9681
  148SAPE   H5X16303   3.346   3.322   5.935  0.4436  0.0888  0.9696
  148SAPE   H5Y16304   3.443   3.168   5.872 -1.4580 -0.7519 -0.0429
  148SAPE   C3616305   3.480   3.342   5.759  1.0913 -0.6082 -0.8988
  148SAPE   H6X16306   3.581   3.305   5.731  0.5573 -2.3760 -0.6026
  148SAPE   H6Y16307   3.479   3.453   5.764  1.6646 -0.6198  3.5489
  148SAPE   C3716308   3.373   3.307   5.644 -0.2119  0.3448 -0.2037
  148SAPE   H7X16309   3.269   3.317   5.683  0.1024  2.5894  0.2042
  148SAPE   H7Y16310   3.398   3.203   5.613  1.3638  1.2660 -2.2888
  148SAPE   C3816311   3.397   3.386   5.513 -0.6423 -0.2946  0.5947
  148SAPE   H8X16312   3.508   3.385   5.511 -0.6324 -0.6228  1.1545
  148SAPE   H8Y16313   3.364   3.491   5.528  0.8378  0.2526  0.1401
  148SAPE   C3916314   3.332   3.316   5.390  0.2649 -0.1898 -0.4170
  148SAPE   H9X16315   3.225   3.305   5.416  1.5467 -1.7929  5.4914
  148SAPE   H9Y16316   3.379   3.216   5.381  1.1114  0.2337 -0.8562
  148SAPE  C31016317   3.352   3.392   5.256  0.2394  0.2616 -0.4809
  148SAPE  H10X16318   3.307   3.328   5.177  0.3294 -2.5535  1.6124
  148SAPE  H10Y16319   3.461   3.393   5.236  0.4204 -2.1197  0.1077
  148SAPE  C31116320   3.313   3.537   5.240 -0.0547 -0.6420  0.9481
  148SAPE  H11X16321   3.351   3.612   5.313 -1.0932  1.3624 -0.4766
  148SAPE  H11Y16322   3.204   3.555   5.242  0.0399  0.1525 -0.3159
  148SAPE  C31216323   3.361   3.592   5.103  0.4169 -0.0392  0.0195
  148SAPE  H12X16324   3.472   3.597   5.101  0.4804  1.7343  2.7008
  148SAPE  H12Y16325   3.327   3.696   5.084  4.8732  1.4046 -1.1533
  148SAPE  C31316326   3.324   3.505   4.976 -0.6156 -0.0538 -0.1219
  148SAPE  H13X16327   3.221   3.466   4.996 -0.7669 -0.2355 -1.1940
  148SAPE  H13Y16328   3.387   3.414   4.974  0.1547  0.3279  2.8471
  148SAPE  C31416329   3.351   3.576   4.849  0.0851 -0.0919 -0.3231
  148SAPE  H14X16330   3.455   3.616   4.845  0.5953 -1.3695 -0.2452
  148SAPE  H14Y16331   3.278   3.660   4.853 -0.7178 -0.7737 -0.3488
  148SAPE  C31516332   3.311   3.493   4.730  0.6098 -1.0956  0.3200
  148SAPE  H15X16333   3.360   3.393   4.730  0.6509 -1.0795 -0.3448
  148SAPE  H15Y16334   3.361   3.549   4.648  0.7796 -0.5964  0.7569
  148SAPE  C31616335   3.164   3.490   4.714  0.3498 -0.1615 -0.4264
  148SAPE  H16X16336   3.127   3.592   4.692  1.9277  1.0109  1.8463
  148SAPE  H16Y16337   3.109   3.468   4.808 -0.6693  1.4351 -0.6071
  148SAPE  C31716338   3.119   3.403   4.598 -0.1834  0.4534  0.1527
  148SAPE  H17X16339   3.009   3.412   4.602 -0.4266 -0.4329 -2.8290
  148SAPE  H17Y16340   3.136   3.295   4.613 -2.8562 -0.0776 -0.2010
  148SAPE  C31816341   3.164   3.462   4.465  0.2184 -0.0593 -0.1597
  148SAPE  H18X16342   3.087   3.438   4.388 -2.0544  2.7138  1.0236
  148SAPE  H18Y16343   3.268   3.436   4.436 -0.5374 -3.1399 -0.4309
  148SAPE  H18Z16344   3.163   3.574   4.467  0.7229 -0.0670  1.0475
  149SAPE     N16345   2.753   0.303   6.735  0.7042 -0.2514  0.2706
  149SAPE   HN116346   2.708   0.209   6.740  0.6798 -0.2037  1.0726
  149SAPE   HN216347   2.852   0.296   6.767  1.0953  0.0150 -0.8421
  149SAPE   HN316348   2.698   0.367   6.795 -1.2955  0.9360 -2.5946
  149SAPE   C1216349   2.740   0.353   6.598 -0.1643 -0.5504 -0.0186
  149SAPE  H12A16350   2.645   0.318   6.552 -0.8183 -1.5781  2.0164
  149SAPE  H12B16351   2.816   0.288   6.549 -1.1505 -1.6573 -0.1144
  149SAPE   C1116352   2.779   0.499   6.561  0.1009  0.5860  0.0843
  149SAPE  H11A16353   2.711   0.574   6.606  1.0508  2.1854 -1.0430
  149SAPE  H11B16354   2.767   0.517   6.452  1.8196 -1.6205 -0.5622
  149SAPE     P16355   3.011   0.631   6.563 -0.1370 -0.1274 -0.2136
  149SAPE   O1316356   2.938   0.763   6.584 -0.8886 -0.5035 -0.5712
  149SAPE   O1416357   3.143   0.622   6.637  0.4905 -0.1495  0.1412
  149SAPE   O1216358   2.911   0.521   6.610 -0.2511  0.4720 -0.3058
  149SAPE   O1116359   3.039   0.607   6.408 -0.1937  0.1452 -0.1493
  149SAPE    C116360   3.084   0.471   6.365  0.2142  0.0356  0.2557
  149SAPE    HA16361   3.166   0.427   6.425 -0.1733 -0.1249  0.6717
  149SAPE    HB16362   2.993   0.408   6.378  0.0173 -0.4298 -2.6579
  149SAPE    C216363   3.113   0.461   6.208 -0.0291  0.0486 -0.5233
  149SAPE    HS16364   3.205   0.522   6.191 -1.0785  1.5853 -0.8180
  149SAPE   O2116365   2.997   0.511   6.145  0.1420 -0.3081 -0.2327
  149SAPE   C2116366   3.009   0.635   6.106 -0.0936 -0.8861 -0.0139
  149SAPE   O2216367   3.111   0.700   6.102  0.1010  0.1142  0.5487
  149SAPE   C2216368   2.884   0.680   6.034 -0.3351  0.2883 -0.0567
  149SAPE   H2R16369   2.861   0.601   5.959  1.5900 -0.4464  0.0756
  149SAPE   H2S16370   2.795   0.685   6.100 -0.7113 -1.9833 -0.3006
  149SAPE    C316371   3.136   0.316   6.162 -0.3037  0.0998 -0.1082
  149SAPE    HX16372   3.061   0.243   6.199 -0.9835  0.7272 -0.2302
  149SAPE    HY16373   3.233   0.272   6.195 -0.0486 -1.2278 -2.3717
  149SAPE   O3116374   3.143   0.295   6.012  0.8360 -0.2348 -0.2541
  149SAPE   C3116375   3.261   0.332   5.963 -0.6413  0.5193  0.3959
  149SAPE   O3216376   3.351   0.381   6.029 -0.5514  0.0074 -0.8481
  149SAPE   C3216377   3.271   0.264   5.823  0.4822  0.8908  0.3905
  149SAPE   H2X16378   3.297   0.161   5.855 -1.0921  0.6498  0.9811
  149SAPE   H2Y16379   3.351   0.310   5.762 -0.1819  2.2799  0.5376
  149SAPE   C2316380   2.882   0.811   5.960 -0.8997 -0.0811  0.0617
  149SAPE   H3R16381   2.959   0.811   5.880 -2.3999  0.1371 -1.4391
  149SAPE   H3S16382   2.910   0.890   6.033  0.0899 -0.9968  0.6977
  149SAPE   C2416383   2.752   0.836   5.896 -1.1242 -0.5067  0.2644
  149SAPE   H4R16384   2.682   0.853   5.980 -1.1307 -2.0120  0.5902
  149SAPE   H4S16385   2.709   0.745   5.848 -2.7743 -0.7450  2.0748
  149SAPE   C2516386   2.768   0.959   5.809  0.3256  0.3317 -0.6955
  149SAPE   H5R16387   2.708   1.043   5.847 -2.9219 -1.7005 -0.9613
  149SAPE   C2616388   2.805   0.963   5.680 -0.9667 -0.1934 -0.2634
  149SAPE   H6R16389   2.813   1.060   5.629 -0.5182 -0.6043 -0.9892
  149SAPE   C2716390   2.861   0.854   5.590  0.1393  0.1168  0.1383
  149SAPE   H7R16391   2.907   0.775   5.653  1.8063  0.8895 -0.0381
  149SAPE   H7S16392   2.947   0.896   5.534  0.0215 -0.9638 -0.8881
  149SAPE   C2816393   2.771   0.784   5.489  0.4136  0.0451  0.2120
  149SAPE   H8R16394   2.677   0.748   5.536  2.3433 -2.5823  2.4011
  149SAPE   C2916395   2.794   0.756   5.360  0.1257 -0.6146 -0.3266
  149SAPE   H9R16396   2.719   0.695   5.307 -0.8299 -0.8435  1.2374
  149SAPE  C21016397   2.928   0.780   5.286  0.5136  0.7196  0.6255
  149SAPE  H10R16398   2.991   0.689   5.285  0.8440  0.9343  1.3271
  149SAPE  H10S16399   2.979   0.870   5.329 -1.3442  3.0249 -1.6544
  149SAPE  C21116400   2.901   0.831   5.145  0.1037 -0.4777 -0.1694
  149SAPE  H11R16401   2.866   0.935   5.151 -2.2591 -1.2559  0.7096
  149SAPE  C21216402   2.896   0.762   5.030 -0.1107 -0.1938 -0.6994
  149SAPE  H12R16403   2.868   0.799   4.930 -1.8122 -0.6389 -0.4166
  149SAPE  C21316404   2.906   0.610   5.022  0.6062  0.0955 -0.4370
  149SAPE  H13R16405   2.914   0.564   5.122 -0.9975  2.0445  0.6686
  149SAPE  H13S16406   2.999   0.572   4.975 -0.2918 -1.0053 -1.3604
  149SAPE  C21416407   2.785   0.556   4.958  0.2174 -0.0350 -0.4926
  149SAPE  H14R16408   2.694   0.579   5.017  1.9060  2.0980  1.4786
  149SAPE  C21516409   2.774   0.500   4.834 -0.3247  0.0558 -0.3813
  149SAPE  H15R16410   2.676   0.469   4.795 -2.6932  3.6424  2.0484
  149SAPE  C21616411   2.890   0.480   4.738 -0.3363  0.1463  0.5790
  149SAPE  H16R16412   2.984   0.517   4.786  1.3332 -1.3552 -1.3251
  149SAPE  H16S16413   2.872   0.532   4.642  0.0874  0.0094  0.4205
  149SAPE  C21716414   2.917   0.330   4.709 -0.2888 -0.4441  0.1291
  149SAPE  H17R16415   2.824   0.275   4.680 -1.6103  0.4007  2.4895
  149SAPE  H17S16416   2.962   0.287   4.801  1.0986  1.8038  0.5772
  149SAPE  C21816417   2.992   0.316   4.577 -0.5675 -0.3144  0.6856
  149SAPE  H18R16418   3.086   0.373   4.591 -0.8744  0.2289  0.5943
  149SAPE  H18S16419   2.932   0.365   4.497  0.0184 -0.3626  0.2069
  149SAPE  C21916420   3.029   0.166   4.539 -0.2399  0.9178 -0.4174
  149SAPE  H19R16421   2.936   0.106   4.525  0.2293 -0.2689  1.2835
  149SAPE  H19S16422   3.089   0.136   4.628 -0.3335 -2.6508 -1.4045
  149SAPE  C22016423   3.111   0.144   4.410  0.9231 -0.9651 -0.4412
  149SAPE  H20R16424   3.215   0.179   4.425  0.3846  0.6376 -0.1664
  149SAPE  H20S16425   3.064   0.196   4.324 -0.8936 -2.4340 -0.3941
  149SAPE  H20T16426   3.123   0.042   4.369 -0.6406 -1.9622  1.4062
  149SAPE   C3316427   3.128   0.270   5.751 -0.1626 -0.0987  0.0240
  149SAPE   H3X16428   3.098   0.377   5.748  1.6464  0.4442 -0.6943
  149SAPE   H3Y16429   3.053   0.220   5.815  1.0396  0.2310  1.7467
  149SAPE   C3416430   3.131   0.212   5.604  0.1395 -0.4540 -0.5133
  149SAPE   H4X16431   3.029   0.175   5.581 -0.0061 -0.4116  0.0618
  149SAPE   H4Y16432   3.197   0.123   5.590  1.5221  0.0827  2.0039
  149SAPE   C3516433   3.156   0.331   5.513  0.4499  0.0708 -0.0464
  149SAPE   H5X16434   3.255   0.369   5.544  0.4450 -0.2834  0.4135
  149SAPE   H5Y16435   3.086   0.412   5.542  1.2738 -0.1848  2.9143
  149SAPE   C3616436   3.153   0.308   5.360 -0.8414 -0.0136  0.2187
  149SAPE   H6X16437   3.062   0.270   5.308  1.1697 -1.5036 -2.4908
  149SAPE   H6Y16438   3.232   0.231   5.347 -0.6838  0.5799 -3.1224
  149SAPE   C3716439   3.202   0.439   5.292  0.6361 -0.2019  0.8401
  149SAPE   H7X16440   3.292   0.487   5.336  0.1462  1.9782 -0.3659
  149SAPE   H7Y16441   3.128   0.521   5.298  1.6936  0.9593 -1.0405
  149SAPE   C3816442   3.226   0.411   5.141  0.7104  0.1544  0.2539
  149SAPE   H8X16443   3.133   0.384   5.087  1.3929 -2.4363  0.2280
  149SAPE   H8Y16444   3.297   0.327   5.125  0.4836 -0.1678  0.8666
  149SAPE   C3916445   3.292   0.534   5.072  0.0719  0.1607 -0.4887
  149SAPE   H9X16446   3.393   0.554   5.115  0.9797 -0.3278 -2.2642
  149SAPE   H9Y16447   3.230   0.617   5.111 -1.0943 -0.6467 -0.6035
  149SAPE  C31016448   3.286   0.523   4.919  0.0928 -0.6603  0.3110
  149SAPE  H10X16449   3.349   0.610   4.890  0.3874 -0.6603  0.9436
  149SAPE  H10Y16450   3.185   0.526   4.872  0.4564  0.9172 -0.4453
  149SAPE  C31116451   3.364   0.399   4.873 -0.0807  0.1799  0.0951
  149SAPE  H11X16452   3.325   0.300   4.904 -1.3911  0.7110  0.1720
  149SAPE  H11Y16453   3.466   0.419   4.912 -1.3269  1.1068  3.1572
  149SAPE  C31216454   3.374   0.412   4.719 -0.1160  0.0850 -0.0009
  149SAPE  H12X16455   3.407   0.510   4.679 -2.3747  1.5017  1.3459
  149SAPE  H12Y16456   3.271   0.408   4.677 -0.3744  2.8689  0.1771
  149SAPE  C31316457   3.445   0.297   4.649 -0.1099  1.0467  0.2793
  149SAPE  H13X16458   3.361   0.245   4.599  0.1827 -0.2344  1.0760
  149SAPE  H13Y16459   3.482   0.222   4.722  0.4895  1.4245  0.3704
  149SAPE  C31416460   3.567   0.342   4.558 -0.2471 -0.1624 -0.5806
  149SAPE  H14X16461   3.639   0.378   4.635  0.4875  0.8361 -1.7010
  149SAPE  H14Y16462   3.542   0.434   4.502  0.3088 -0.2816 -1.0348
  149SAPE  C31516463   3.624   0.237   4.466 -0.6971  0.5297  0.6033
  149SAPE  H15X16464   3.671   0.290   4.380 -2.2112  1.4198  0.2835
  149SAPE  H15Y16465   3.535   0.178   4.435 -0.5949 -0.4251  2.0430
  149SAPE  C31616466   3.731   0.143   4.526 -0.3590 -0.8331  0.2831
  149SAPE  H16X16467   3.692   0.104   4.622  3.0000  0.9963  2.5805
  149SAPE  H16Y16468   3.817   0.198   4.569 -0.5650 -0.6971  0.5278
  149SAPE  C31716469   3.784   0.019   4.448  0.3356  0.1552 -0.0911
  149SAPE  H17X16470   3.869   0.047   4.383 -0.9465 -0.2163 -2.0435
  149SAPE  H17Y16471   3.699  -0.025   4.391  0.8311 -0.4687 -0.3571
  149SAPE  C31816472   3.841  -0.092   4.535  0.0686 -0.0132  0.0423
  149SAPE  H18X16473   3.884  -0.175   4.476 -2.0170 -1.2943  0.2113
  149SAPE  H18Y16474   3.758  -0.132   4.597 -0.8428  0.9338 -0.5147
  149SAPE  H18Z16475   3.919  -0.050   4.601 -0.8496  0.4954  0.8409
  150SAPE     N16476   5.434   1.752   6.923  0.0138 -0.2287  0.5384
  150SAPE   HN116477   5.527   1.711   6.901 -0.4109 -1.0333  0.1999
  150SAPE   HN216478   5.447   1.853   6.943  2.1919 -0.1745 -0.8355
  150SAPE   HN316479   5.405   1.709   7.012  0.3204  2.1608  1.8859
  150SAPE   C1216480   5.351   1.725   6.798  0.7269  0.2277  0.9412
  150SAPE  H12A16481   5.384   1.808   6.732  0.2779  1.4607  2.2039
  150SAPE  H12B16482   5.244   1.738   6.825  0.9243  2.7724  0.7493
  150SAPE   C1116483   5.376   1.592   6.727 -0.1793  0.2751  0.2658
  150SAPE  H11A16484   5.311   1.576   6.638  0.2424 -0.7658  0.1278
  150SAPE  H11B16485   5.359   1.502   6.791 -1.2610  0.0726 -0.2887
  150SAPE     P16486   5.560   1.627   6.556 -0.3087  0.2738  0.2843
  150SAPE   O1316487   5.694   1.676   6.575 -0.0456  0.6453  0.4131
  150SAPE   O1416488   5.543   1.507   6.467  0.5010  0.5284  0.0542
  150SAPE   O1216489   5.509   1.587   6.695  0.5715 -0.7213  0.8130
  150SAPE   O1116490   5.464   1.746   6.506 -0.1876  0.0484 -0.5937
  150SAPE    C116491   5.377   1.737   6.393  0.2870 -0.8391 -0.3323
  150SAPE    HA16492   5.324   1.639   6.395 -2.0126  0.2610 -1.9017
  150SAPE    HB16493   5.302   1.819   6.391  0.6958 -0.4324  0.6806
  150SAPE    C216494   5.465   1.726   6.269  0.2547 -0.2402  0.0092
  150SAPE    HS16495   5.528   1.635   6.274  2.0495  0.7161 -2.7343
  150SAPE   O2116496   5.536   1.851   6.268  0.4675  0.3300 -0.1129
  150SAPE   C2116497   5.667   1.838   6.254  0.3587 -0.0005  0.7881
  150SAPE   O2216498   5.729   1.734   6.242  0.3772  0.7109  0.1124
  150SAPE   C2216499   5.736   1.974   6.252  0.1183  0.6103 -0.5919
  150SAPE   H2R16500   5.728   2.007   6.358 -2.5724 -1.6743  0.0533
  150SAPE   H2S16501   5.842   1.956   6.223  0.0543 -1.3976  0.2662
  150SAPE    C316502   5.371   1.724   6.145 -0.4872  0.3093  0.4781
  150SAPE    HX16503   5.330   1.824   6.121  2.6504  0.8871 -3.3865
  150SAPE    HY16504   5.288   1.651   6.162  0.4602 -1.0378 -0.4475
  150SAPE   O3116505   5.442   1.692   6.019  0.0999  0.0575  0.1467
  150SAPE   C3116506   5.495   1.569   6.012 -0.4902 -0.6807  0.3563
  150SAPE   O3216507   5.479   1.481   6.092  0.8781  0.3885 -0.1632
  150SAPE   C3216508   5.580   1.563   5.884  0.3839  0.0476  0.6609
  150SAPE   H2X16509   5.512   1.602   5.805  0.2451  0.8017  1.1444
  150SAPE   H2Y16510   5.607   1.456   5.871  1.4673  0.2441  1.1849
  150SAPE   C2316511   5.665   2.068   6.147  0.4515 -0.7288  0.2098
  150SAPE   H3R16512   5.716   2.166   6.151 -1.2157  0.1642  0.1881
  150SAPE   H3S16513   5.555   2.081   6.155  0.3745 -0.9096 -0.4954
  150SAPE   C2416514   5.684   2.007   6.006  0.0551  0.2087 -1.0509
  150SAPE   H4R16515   5.618   1.918   5.995  0.7269 -0.3677 -0.5006
  150SAPE   H4S16516   5.784   1.960   5.995 -0.4232 -1.0730 -0.1759
  150SAPE   C2516517   5.660   2.119   5.900  0.6359  0.5881 -0.2920
  150SAPE   H5R16518   5.728   2.204   5.915  1.2368 -0.1702  1.6331
  150SAPE   C2616519   5.610   2.113   5.771  0.8426 -0.2121 -0.5066
  150SAPE   H6R16520   5.616   2.209   5.718 -1.4365 -0.6752 -1.7256
  150SAPE   C2716521   5.544   1.997   5.695  0.0096 -0.8513  1.1289
  150SAPE   H7R16522   5.464   1.948   5.754  0.2511  0.2829  2.4411
  150SAPE   H7S16523   5.624   1.922   5.675 -0.0065 -0.7705  0.7583
  150SAPE   C2816524   5.486   2.053   5.562 -0.0052 -0.9628 -0.5402
  150SAPE   H8R16525   5.389   2.104   5.563  0.0617 -0.7015 -2.6829
  150SAPE   C2916526   5.547   2.043   5.438 -0.0201 -0.7525 -1.2947
  150SAPE   H9R16527   5.499   2.084   5.348 -0.7665  0.5207 -0.3524
  150SAPE  C21016528   5.687   1.987   5.412  0.4613  0.5188 -0.0111
  150SAPE  H10R16529   5.671   1.923   5.323  1.7268  0.6675 -0.3700
  150SAPE  H10S16530   5.709   1.920   5.498  2.5216  0.0443 -0.8423
  150SAPE  C21116531   5.787   2.097   5.395  0.1502 -0.1875  0.4921
  150SAPE  H11R16532   5.839   2.134   5.485  0.5670  3.1770 -0.9770
  150SAPE  C21216533   5.826   2.160   5.279  0.1196  0.6954 -0.3875
  150SAPE  H12R16534   5.904   2.235   5.298  0.7776 -0.8607  4.0008
  150SAPE  C21316535   5.774   2.137   5.136 -0.0568  0.1677 -0.9297
  150SAPE  H13R16536   5.744   2.240   5.105  1.8427  1.2304  0.5380
  150SAPE  H13S16537   5.679   2.082   5.122 -1.3132  2.2258 -0.9263
  150SAPE  C21416538   5.876   2.092   5.040  0.3193  0.8108  0.5863
  150SAPE  H14R16539   5.883   1.983   5.028 -1.2343  0.4209  2.5860
  150SAPE  C21516540   5.973   2.163   4.981 -0.2986  0.4161  0.6976
  150SAPE  H15R16541   6.042   2.113   4.911 -0.0276 -0.7212  1.7321
  150SAPE  C21616542   6.016   2.310   5.003  0.0937 -0.5370 -0.2044
  150SAPE  H16R16543   6.115   2.311   5.052  0.5332 -0.2610 -1.0833
  150SAPE  H16S16544   5.950   2.357   5.080  2.2815 -1.3595  2.3329
  150SAPE  C21716545   6.017   2.399   4.871  0.1864 -0.2080  0.6094
  150SAPE  H17R16546   5.922   2.381   4.816 -0.0556  1.5017  0.4326
  150SAPE  H17S16547   6.095   2.358   4.803  0.7894 -0.9179  1.7030
  150SAPE  C21816548   6.030   2.550   4.893 -0.1246  0.0795 -0.8376
  150SAPE  H18R16549   6.083   2.566   4.989  2.4916  1.8221 -2.4315
  150SAPE  H18S16550   5.929   2.598   4.901  1.2083  3.2224 -1.2868
  150SAPE  C21916551   6.114   2.623   4.793  0.4711  0.1693 -0.0885
  150SAPE  H19R16552   6.215   2.579   4.790  1.4439  2.1941  0.8181
  150SAPE  H19S16553   6.121   2.730   4.823  0.7653  0.1163  0.0334
  150SAPE  C22016554   6.070   2.623   4.644 -0.0212 -0.8338  0.2717
  150SAPE  H20R16555   6.154   2.676   4.594  1.1071 -1.8785  1.0255
  150SAPE  H20S16556   5.977   2.680   4.621 -0.5859 -1.3032  1.3193
  150SAPE  H20T16557   6.067   2.519   4.605  1.1330 -0.7258 -0.1536
  150SAPE   C3316558   5.707   1.645   5.896  0.3573  0.5421 -0.2366
  150SAPE   H3X16559   5.758   1.618   5.991  2.1222  0.9240 -1.0400
  150SAPE   H3Y16560   5.673   1.751   5.903 -0.3144  0.4720 -2.0241
  150SAPE   C3416561   5.800   1.633   5.772 -0.2377 -0.5137  0.1653
  150SAPE   H4X16562   5.852   1.536   5.787 -0.1671 -1.0197 -2.7512
  150SAPE   H4Y16563   5.876   1.714   5.770  1.3193 -1.9365 -0.3853
  150SAPE   C3516564   5.729   1.622   5.633 -0.0559 -0.0628 -0.4831
  150SAPE   H5X16565   5.659   1.709   5.630 -0.6668 -0.4588  1.1392
  150SAPE   H5Y16566   5.668   1.530   5.626 -2.2352  1.2473  0.0527
  150SAPE   C3616567   5.828   1.632   5.511  0.5574 -0.5407  0.0910
  150SAPE   H6X16568   5.898   1.546   5.505 -2.2122 -2.8815 -2.6247
  150SAPE   H6Y16569   5.882   1.729   5.508 -0.5770  0.1227  0.3824
  150SAPE   C3716570   5.745   1.636   5.378 -0.5422 -1.0078  1.1465
  150SAPE   H7X16571   5.675   1.722   5.375 -0.6242 -1.0792 -1.8054
  150SAPE   H7Y16572   5.685   1.543   5.386  0.2459 -1.5483  0.8640
  150SAPE   C3816573   5.835   1.618   5.251  0.9012  0.3515  0.1190
  150SAPE   H8X16574   5.918   1.545   5.260  2.6710  2.0434 -1.6555
  150SAPE   H8Y16575   5.889   1.714   5.235 -1.0349  1.1683 -2.0151
  150SAPE   C3916576   5.749   1.587   5.122 -0.0758  0.0965 -0.2426
  150SAPE   H9X16577   5.646   1.626   5.134 -0.1209 -0.5038  1.5548
  150SAPE   H9Y16578   5.738   1.477   5.114  0.4148 -0.2747  3.1049
  150SAPE  C31016579   5.808   1.638   4.990  0.3076 -0.8324 -0.3087
  150SAPE  H10X16580   5.905   1.584   4.976 -0.5216 -2.3159 -0.5030
  150SAPE  H10Y16581   5.822   1.744   5.019 -0.0637 -0.3859 -1.6958
  150SAPE  C31116582   5.718   1.630   4.872  0.3937  0.1590 -0.5385
  150SAPE  H11X16583   5.762   1.692   4.792 -1.4514  2.6280  0.2183
  150SAPE  H11Y16584   5.618   1.677   4.887 -1.2226 -3.0962 -0.1236
  150SAPE  C31216585   5.695   1.485   4.826 -0.4071 -0.1591 -0.3113
  150SAPE  H12X16586   5.623   1.432   4.892  1.4539  0.0211  2.0096
  150SAPE  H12Y16587   5.792   1.439   4.854  1.1787  3.8651  1.6717
  150SAPE  C31316588   5.664   1.474   4.677 -0.4860 -0.2032  0.4199
  150SAPE  H13X16589   5.668   1.369   4.642 -1.7741  0.3797 -1.7551
  150SAPE  H13Y16590   5.723   1.534   4.604  0.2214 -2.7276 -1.2185
  150SAPE  C31416591   5.525   1.528   4.655  0.1765  0.0391  0.6924
  150SAPE  H14X16592   5.516   1.635   4.680 -3.2308 -0.1863  0.9059
  150SAPE  H14Y16593   5.449   1.488   4.726 -0.7286 -1.4232 -1.0091
  150SAPE  C31516594   5.472   1.517   4.508  0.3803 -0.1773 -0.2093
  150SAPE  H15X16595   5.553   1.573   4.457  1.3876 -0.3234  1.1555
  150SAPE  H15Y16596   5.379   1.578   4.503 -1.2474 -2.1701  2.8328
  150SAPE  C31616597   5.449   1.376   4.467  0.4462  0.1627 -0.0258
  150SAPE  H16X16598   5.373   1.338   4.539 -1.2130 -1.2545 -2.3800
  150SAPE  H16Y16599   5.539   1.311   4.474  0.1678 -0.2725 -0.4496
  150SAPE  C31716600   5.391   1.361   4.327 -0.4617  0.1378 -0.4918
  150SAPE  H17X16601   5.432   1.443   4.263  1.2898  0.0957  0.5203
  150SAPE  H17Y16602   5.281   1.373   4.334 -0.6506 -2.3543  2.6178
  150SAPE  C31816603   5.426   1.230   4.249  0.7375  0.7299  0.0192
  150SAPE  H18X16604   5.536   1.238   4.235  1.0637  1.4988  2.4367
  150SAPE  H18Y16605   5.383   1.238   4.148  0.4288 -1.5423 -0.0706
  150SAPE  H18Z16606   5.388   1.141   4.303 -2.7899  0.3625 -2.7706
  151SAPE     N16607   0.461   4.087   7.002  0.1584  0.4057 -0.3559
  151SAPE   HN116608   0.548   4.034   6.982  0.1347 -0.1025  0.8422
  151SAPE   HN216609   0.420   4.060   7.094 -2.3781  1.0178 -1.2326
  151SAPE   HN316610   0.387   4.072   6.931 -1.1062 -2.2942  1.3488
  151SAPE   C1216611   0.494   4.230   6.990 -0.3499 -0.1307 -0.1720
  151SAPE  H12A16612   0.540   4.259   7.087 -0.2256  0.3463 -0.3748
  151SAPE  H12B16613   0.403   4.293   6.982  0.6849  1.4221 -0.0215
  151SAPE   C1116614   0.578   4.276   6.865 -0.1395  0.3232  0.0681
  151SAPE  H11A16615   0.619   4.379   6.877 -2.8914  1.5146 -0.1319
  151SAPE  H11B16616   0.518   4.273   6.772  0.7522 -0.9198 -0.4995
  151SAPE     P16617   0.811   4.179   6.919 -0.4545  0.1493 -0.2667
  151SAPE   O1316618   0.816   4.289   7.015  0.7250 -0.3355  0.1657
  151SAPE   O1416619   0.842   4.043   6.958 -0.1841  0.0840  0.5690
  151SAPE   O1216620   0.678   4.175   6.845  0.1422  0.1405  0.3311
  151SAPE   O1116621   0.915   4.216   6.803  0.7132 -0.7452 -0.0256
  151SAPE    C116622   0.960   4.111   6.714 -0.0261  0.2500  0.1155
  151SAPE    HA16623   1.063   4.078   6.737  0.6974  2.4004  0.1301
  151SAPE    HB16624   0.888   4.026   6.708 -0.1783  0.1987  2.1415
  151SAPE    C216625   0.962   4.162   6.563 -0.0684 -0.4432  0.4178
  151SAPE    HS16626   1.020   4.257   6.556 -1.3013  0.2235 -1.6568
  151SAPE   O2116627   0.826   4.175   6.523 -0.2248  0.5215 -0.5194
  151SAPE   C2116628   0.794   4.301   6.490  0.0262  0.2563  0.0675
  151SAPE   O2216629   0.867   4.398   6.495  0.2648 -0.4893  0.2040
  151SAPE   C2216630   0.644   4.293   6.449 -0.1373  1.1119 -1.2476
  151SAPE   H2R16631   0.633   4.216   6.370  1.6112  0.1551 -0.5892
  151SAPE   H2S16632   0.576   4.263   6.531  0.5022  0.7070 -0.8589
  151SAPE    C316633   1.046   4.063   6.467 -0.0255  0.5220  0.0695
  151SAPE    HX16634   1.017   3.960   6.499 -1.5432  0.8876 -0.0461
  151SAPE    HY16635   1.150   4.089   6.494 -0.2809 -0.8953  2.7594
  151SAPE   O3116636   1.027   4.080   6.327 -0.0022 -0.6423  0.5845
  151SAPE   C3116637   1.070   3.984   6.245  0.2111  0.0301  0.1370
  151SAPE   O3216638   1.128   3.884   6.277 -0.2083 -0.0417  0.0158
  151SAPE   C3216639   1.057   4.021   6.097  0.1662 -0.0460 -0.7520
  151SAPE   H2X16640   0.953   4.052   6.074 -0.1794  1.3653  2.2574
  151SAPE   H2Y16641   1.092   3.928   6.046 -0.0471 -0.4923 -0.1057
  151SAPE   C2316642   0.589   4.438   6.417 -0.3165 -0.3649  0.1912
  151SAPE   H3R16643   0.663   4.483   6.348 -0.0845 -3.7344 -1.9845
  151SAPE   H3S16644   0.587   4.509   6.503  0.6559 -0.0588 -0.0209
  151SAPE   C2416645   0.446   4.436   6.358  0.2764 -0.3812  0.0478
  151SAPE   H4R16646   0.380   4.393   6.436 -1.2652 -0.7331 -1.3771
  151SAPE   H4S16647   0.436   4.358   6.280 -1.1002 -0.6562  0.4797
  151SAPE   C2516648   0.400   4.572   6.318  0.0304 -0.2152  0.1280
  151SAPE   H5R16649   0.446   4.653   6.376 -2.8595  2.4661 -1.0523
  151SAPE   C2616650   0.316   4.606   6.218 -0.6599  0.8240 -0.6932
  151SAPE   H6R16651   0.282   4.709   6.196  2.6889  2.1824 -0.0817
  151SAPE   C2716652   0.255   4.489   6.135  0.2450 -0.1554 -0.1733
  151SAPE   H7R16653   0.272   4.383   6.164 -0.5089 -0.2341  0.0203
  151SAPE   H7S16654   0.317   4.483   6.044 -0.5689 -1.2592 -0.6827
  151SAPE   C2816655   0.107   4.520   6.101  0.2863  0.6777 -0.3796
  151SAPE   H8R16656   0.025   4.504   6.173 -0.3698  0.5846 -1.1243
  151SAPE   C2916657   0.067   4.581   5.988 -0.0329 -0.0714  0.1375
  151SAPE   H9R16658  -0.038   4.605   5.969 -0.2495 -1.4738 -0.6306
  151SAPE  C21016659   0.156   4.600   5.864 -0.3689  0.2006 -0.0680
  151SAPE  H10R16660   0.093   4.584   5.774 -2.1492  1.3354  0.9234
  151SAPE  H10S16661   0.229   4.516   5.857 -1.0290 -0.5030  1.2296
  151SAPE  C21116662   0.219   4.734   5.841 -0.3688 -0.3252 -0.1172
  151SAPE  H11R16663   0.274   4.773   5.928  1.6121 -3.8210  0.4038
  151SAPE  C21216664   0.205   4.814   5.729 -0.2610 -0.1253 -0.4385
  151SAPE  H12R16665   0.255   4.911   5.733  0.7682 -0.6075 -1.2434
  151SAPE  C21316666   0.121   4.775   5.611 -0.6412 -0.6116  0.5367
  151SAPE  H13R16667   0.024   4.828   5.627 -1.4013 -2.5866  3.1769
  151SAPE  H13S16668   0.091   4.668   5.608  0.6200 -0.9577 -1.3544
  151SAPE  C21416669   0.180   4.816   5.481 -0.2912 -0.1269  0.0421
  151SAPE  H14R16670   0.237   4.909   5.486 -1.7567  0.7660  0.7872
  151SAPE  C21516671   0.170   4.762   5.360  0.0933  0.0540  0.5446
  151SAPE  H15R16672   0.236   4.822   5.294 -0.2930  0.6309  0.6767
  151SAPE  C21616673   0.094   4.640   5.310 -0.0049  0.2252  0.0756
  151SAPE  H16R16674   0.072   4.576   5.398 -0.7367 -0.6383 -0.7070
  151SAPE  H16S16675   0.170   4.580   5.256 -0.1353  0.8005 -0.7725
  151SAPE  C21716676  -0.034   4.650   5.220  0.6668  0.6578 -0.5550
  151SAPE  H17R16677  -0.109   4.715   5.267  0.8382  0.2441  0.3124
  151SAPE  H17S16678  -0.075   4.550   5.193 -2.3835  1.9372 -0.9768
  151SAPE  C21816679  -0.007   4.708   5.081 -0.3057 -1.0696 -0.6614
  151SAPE  H18R16680   0.080   4.659   5.032  0.7952 -0.0720  0.2258
  151SAPE  H18S16681   0.026   4.813   5.096 -0.0047 -1.1795 -0.5449
  151SAPE  C21916682  -0.124   4.700   4.981 -0.7951  0.2986  0.2369
  151SAPE  H19R16683  -0.096   4.773   4.901 -0.8143 -1.8675 -1.8503
  151SAPE  H19S16684  -0.215   4.742   5.028 -0.1694  1.7658  0.2012
  151SAPE  C22016685  -0.149   4.568   4.916  0.0817  0.0636 -0.1090
  151SAPE  H20R16686  -0.061   4.518   4.870 -0.3085 -0.9108  0.1890
  151SAPE  H20S16687  -0.228   4.564   4.838  0.3834  2.6047 -0.6340
  151SAPE  H20T16688  -0.194   4.503   4.994 -1.4115  0.5886 -0.5095
  151SAPE   C3316689   1.163   4.119   6.040  0.4326  0.4477 -0.4572
  151SAPE   H3X16690   1.258   4.081   6.084 -0.2871  1.2447  1.9677
  151SAPE   H3Y16691   1.152   4.221   6.083  1.0525 -0.2748  1.5224
  151SAPE   C3416692   1.161   4.139   5.888 -0.3515  0.8265 -0.0191
  151SAPE   H4X16693   1.141   4.042   5.838 -2.1257  2.3576 -2.5431
  151SAPE   H4Y16694   1.265   4.171   5.864 -0.3788  1.5932  0.8144
  151SAPE   C3516695   1.069   4.245   5.842 -0.6393 -1.0742  0.1699
  151SAPE   H5X16696   1.097   4.344   5.882 -1.7402 -0.3270 -0.8424
  151SAPE   H5Y16697   0.969   4.219   5.882 -1.0588  1.1383  0.6746
  151SAPE   C3616698   1.076   4.251   5.689  0.2687  0.3157 -0.3726
  151SAPE   H6X16699   1.053   4.147   5.656 -2.2620  0.8509 -0.5008
  151SAPE   H6Y16700   1.175   4.286   5.654  0.9600 -0.8043  0.3939
  151SAPE   C3716701   0.958   4.329   5.630  0.2634  0.2933  0.7688
  151SAPE   H7X16702   0.958   4.424   5.687 -1.2662  0.3088  0.7850
  151SAPE   H7Y16703   0.864   4.272   5.649  1.5038 -1.6371  1.4443
  151SAPE   C3816704   0.966   4.370   5.480 -0.4680 -0.0172 -0.1880
  151SAPE   H8X16705   0.871   4.428   5.469  0.6741  1.9133 -0.4024
  151SAPE   H8Y16706   0.957   4.282   5.413 -0.4949 -0.5555  0.5177
  151SAPE   C3916707   1.086   4.456   5.443  0.1855 -0.0978  0.1587
  151SAPE   H9X16708   1.176   4.392   5.454  1.2094  0.8644 -1.9474
  151SAPE   H9Y16709   1.092   4.544   5.509  0.2588 -0.6334  0.8792
  151SAPE  C31016710   1.074   4.474   5.290 -0.0716  0.5775  0.9534
  151SAPE  H10X16711   1.042   4.376   5.248 -2.3305  1.3060  0.8166
  151SAPE  H10Y16712   1.179   4.485   5.256  0.0645 -1.4901  0.5577
  151SAPE  C31116713   0.998   4.600   5.250 -0.3153  0.2609  0.0255
  151SAPE  H11X16714   1.047   4.690   5.292 -0.6525 -0.0625  1.1469
  151SAPE  H11Y16715   0.898   4.592   5.298 -0.8418 -1.3187 -1.2325
  151SAPE  C31216716   0.990   4.628   5.098  0.9062  0.1331  0.1809
  151SAPE  H12X16717   0.924   4.549   5.056  0.8740 -0.1849  0.8221
  151SAPE  H12Y16718   1.091   4.619   5.052  0.0397  1.3806 -2.1466
  151SAPE  C31316719   0.929   4.767   5.064  0.1216  0.1089  0.2437
  151SAPE  H13X16720   1.018   4.833   5.058  1.1338 -1.2787 -0.4752
  151SAPE  H13Y16721   0.859   4.813   5.138  0.2250  0.9114 -0.1434
  151SAPE  C31416722   0.878   4.763   4.919 -0.3190  0.1576  1.1844
  151SAPE  H14X16723   0.778   4.717   4.906 -0.2734  0.3264  0.0903
  151SAPE  H14Y16724   0.938   4.691   4.858  0.6079  1.4265  0.5356
  151SAPE  C31516725   0.879   4.896   4.839 -0.2021 -0.4946  0.1901
  151SAPE  H15X16726   0.983   4.936   4.836 -1.0515  1.9527  0.6703
  151SAPE  H15Y16727   0.825   4.977   4.893  1.8619  1.8668 -1.0624
  151SAPE  C31616728   0.830   4.869   4.693 -0.1714 -0.7207 -0.8660
  151SAPE  H16X16729   0.737   4.810   4.706 -2.5802  1.9171 -4.1702
  151SAPE  H16Y16730   0.904   4.813   4.631  1.6192  0.4225  0.1508
  151SAPE  C31716731   0.776   4.994   4.616 -0.0094  0.4237 -1.0254
  151SAPE  H17X16732   0.856   5.069   4.635  1.3053 -1.3267  0.8121
  151SAPE  H17Y16733   0.692   5.040   4.672  0.9711  0.7742  0.2008
  151SAPE  C31816734   0.740   4.977   4.470 -0.0783 -0.0134 -0.5760
  151SAPE  H18X16735   0.640   4.932   4.452 -0.3974  0.4178  0.1057
  151SAPE  H18Y16736   0.800   4.893   4.429 -1.1700 -1.9089  1.5096
  151SAPE  H18Z16737   0.764   5.067   4.409 -1.6040  0.9340  0.1786
  152SAPE     N16738   2.209   6.647   6.826  0.2400  0.4452 -0.4675
  152SAPE   HN116739   2.153   6.731   6.850 -0.6583  0.6080 -2.8280
  152SAPE   HN216740   2.308   6.654   6.857  0.1774  0.1852 -0.1960
  152SAPE   HN316741   2.216   6.635   6.723  1.4456  3.4336 -0.8277
  152SAPE   C1216742   2.144   6.529   6.882 -0.3299  0.4921 -0.4071
  152SAPE  H12A16743   2.135   6.553   6.990 -1.4012 -0.1388 -0.3538
  152SAPE  H12B16744   2.198   6.433   6.868 -1.8925 -0.9362  2.5355
  152SAPE   C1116745   1.996   6.514   6.818 -0.0458  0.2930  0.2610
  152SAPE  H11A16746   1.950   6.434   6.879  0.7200  0.2925  0.8626
  152SAPE  H11B16747   2.009   6.488   6.711 -1.1061  3.6929 -0.8376
  152SAPE     P16748   1.888   6.724   6.698  0.3380 -0.3314 -0.2616
  152SAPE   O1316749   1.781   6.819   6.726 -0.1131  0.7516  1.0192
  152SAPE   O1416750   2.012   6.788   6.648 -1.1139  0.1503 -0.5986
  152SAPE   O1216751   1.921   6.632   6.823 -0.1093 -0.0358 -0.1278
  152SAPE   O1116752   1.838   6.630   6.585 -0.7547  0.0407 -0.4279
  152SAPE    C116753   1.719   6.545   6.613  0.3590  0.3023  0.0535
  152SAPE    HA16754   1.745   6.438   6.609  3.1333  0.9137  0.1404
  152SAPE    HB16755   1.670   6.564   6.711  0.6410  0.0455  0.2433
  152SAPE    C216756   1.609   6.579   6.498 -0.5023 -0.1073 -0.0887
  152SAPE    HS16757   1.524   6.509   6.510  0.0055 -0.5465  1.0701
  152SAPE   O2116758   1.662   6.571   6.365  0.0462 -0.6236  0.1530
  152SAPE   C2116759   1.693   6.453   6.327 -0.3618  0.4923  0.4057
  152SAPE   O2216760   1.685   6.350   6.392 -0.1722  0.2069 -0.8578
  152SAPE   C2216761   1.774   6.467   6.192  0.0187 -0.7908  0.3401
  152SAPE   H2R16762   1.785   6.576   6.174  0.4645 -1.0548 -1.1356
  152SAPE   H2S16763   1.881   6.438   6.201  0.1552 -1.5489 -2.6579
  152SAPE    C316764   1.541   6.721   6.514  0.4208  0.2405 -0.5331
  152SAPE    HX16765   1.632   6.781   6.535  1.8220 -2.2700  1.2023
  152SAPE    HY16766   1.483   6.721   6.608  1.8907 -0.2679  0.4192
  152SAPE   O3116767   1.468   6.768   6.393 -0.0940 -0.1711  0.3750
  152SAPE   C3116768   1.349   6.715   6.370 -0.2067 -0.9742 -0.2766
  152SAPE   O3216769   1.299   6.626   6.432 -0.2246 -0.1102 -0.3603
  152SAPE   C3216770   1.282   6.774   6.245  0.4015 -0.6719  0.2839
  152SAPE   H2X16771   1.365   6.811   6.181 -0.1430  0.3939  0.1732
  152SAPE   H2Y16772   1.214   6.857   6.275  0.1514 -0.2555 -1.3623
  152SAPE   C2316773   1.714   6.401   6.074 -0.6891 -0.4396  0.1623
  152SAPE   H3R16774   1.723   6.293   6.095  0.9318 -0.1654  1.0443
  152SAPE   H3S16775   1.771   6.411   5.979  0.6460 -3.9857  0.4673
  152SAPE   C2416776   1.567   6.445   6.048 -0.5558  0.1666  0.2814
  152SAPE   H4R16777   1.563   6.535   5.984  2.6308 -0.5797 -1.2077
  152SAPE   H4S16778   1.523   6.462   6.148  2.8605 -0.0004  1.9658
  152SAPE   C2516779   1.480   6.334   5.986 -0.8430  0.0564  0.1193
  152SAPE   H5R16780   1.419   6.300   6.071  1.4469  0.1305  1.8723
  152SAPE   C2616781   1.476   6.311   5.857  0.0762 -0.2674 -0.0689
  152SAPE   H6R16782   1.424   6.221   5.820 -0.0234 -0.0343 -0.5036
  152SAPE   C2716783   1.567   6.370   5.748 -1.0363 -0.5281  0.0384
  152SAPE   H7R16784   1.672   6.353   5.781 -1.2747  2.2398  2.5842
  152SAPE   H7S16785   1.554   6.480   5.743 -1.1344 -0.5592 -0.5332
  152SAPE   C2816786   1.538   6.326   5.608  0.1108 -0.0606  0.0222
  152SAPE   H8R16787   1.466   6.392   5.558 -1.4426  0.5317  2.7730
  152SAPE   C2916788   1.588   6.221   5.537  0.9218 -0.1124 -0.0020
  152SAPE   H9R16789   1.528   6.218   5.444 -1.1729  1.3833  1.2103
  152SAPE  C21016790   1.690   6.118   5.574  0.3960  0.7833  0.0202
  152SAPE  H10R16791   1.716   6.112   5.682 -0.5768 -0.8525  0.1989
  152SAPE  H10S16792   1.777   6.170   5.527 -0.3017  1.1603 -0.8699
  152SAPE  C21116793   1.652   5.985   5.532  0.0193  0.5225  0.2570
  152SAPE  H11R16794   1.571   5.933   5.585 -0.7927  2.1557  0.6918
  152SAPE  C21216795   1.695   5.924   5.417  1.0357 -0.4588 -0.2136
  152SAPE  H12R16796   1.655   5.824   5.393  0.3931  0.2671 -2.5308
  152SAPE  C21316797   1.799   5.978   5.318 -0.4879  0.0326 -0.0588
  152SAPE  H13R16798   1.870   5.897   5.293 -1.0881 -0.3281 -0.6255
  152SAPE  H13S16799   1.861   6.062   5.355  0.2483  0.3450 -1.9316
  152SAPE  C21416800   1.734   6.035   5.196  0.0537 -0.0972 -0.6089
  152SAPE  H14R16801   1.643   6.095   5.210 -0.6815 -1.3273 -0.0344
  152SAPE  C21516802   1.765   6.008   5.071  0.8695  1.0974  0.2908
  152SAPE  H15R16803   1.715   6.063   4.989  3.0028  2.4250 -0.2174
  152SAPE  C21616804   1.858   5.896   5.030 -0.3057  0.8379 -0.3727
  152SAPE  H16R16805   1.800   5.831   4.961 -1.3465 -0.4960  1.6556
  152SAPE  H16S16806   1.889   5.825   5.111  0.5087  0.3009 -1.1316
  152SAPE  C21716807   1.984   5.956   4.970  0.9739  0.4020 -0.1641
  152SAPE  H17R16808   1.954   6.018   4.883  0.6811 -1.0932 -1.1582
  152SAPE  H17S16809   2.051   5.877   4.930  1.9809  0.8800  0.5631
  152SAPE  C21816810   2.086   6.018   5.070  0.3982 -0.2431 -0.3395
  152SAPE  H18R16811   2.119   5.946   5.147  1.0615  1.1259  0.7023
  152SAPE  H18S16812   2.048   6.105   5.128  0.8410  0.4208 -1.0095
  152SAPE  C21916813   2.201   6.081   4.991  0.0056  0.2527  0.2414
  152SAPE  H19R16814   2.152   6.154   4.924 -0.4159  0.8427  1.1695
  152SAPE  H19S16815   2.251   6.006   4.925 -1.7990 -0.9135  0.1216
  152SAPE  C22016816   2.309   6.153   5.075 -0.5757  0.8639 -0.2115
  152SAPE  H20R16817   2.339   6.070   5.142 -0.2454 -0.4071 -1.8550
  152SAPE  H20S16818   2.263   6.238   5.129 -1.1443 -0.1438  0.9340
  152SAPE  H20T16819   2.393   6.188   5.012  0.6595  2.2928  2.1161
  152SAPE   C3316820   1.202   6.671   6.153 -0.8798 -0.5572  0.6879
  152SAPE   H3X16821   1.115   6.626   6.205 -1.9653  1.2070  0.4837
  152SAPE   H3Y16822   1.270   6.587   6.128 -0.5963 -0.7363  1.9957
  152SAPE   C3416823   1.157   6.724   6.020  0.2427 -0.8462  0.0178
  152SAPE   H4X16824   1.179   6.833   6.011  1.1402 -0.7938  2.2097
  152SAPE   H4Y16825   1.047   6.712   6.009  0.1030  0.9416 -0.8971
  152SAPE   C3516826   1.215   6.658   5.893  0.6822 -0.3022 -0.2989
  152SAPE   H5X16827   1.203   6.548   5.894  0.5938 -0.2907 -0.0088
  152SAPE   H5Y16828   1.326   6.668   5.903  0.5536  0.1901  0.7523
  152SAPE   C3616829   1.166   6.710   5.754 -0.1915 -0.4275  0.0726
  152SAPE   H6X16830   1.059   6.682   5.745 -0.0781 -1.0560  0.6680
  152SAPE   H6Y16831   1.225   6.661   5.673  1.2527  3.2829 -1.3564
  152SAPE   C3716832   1.184   6.860   5.732 -0.2865 -0.4875 -0.0810
  152SAPE   H7X16833   1.291   6.887   5.747 -1.2710  3.9746  0.2934
  152SAPE   H7Y16834   1.113   6.921   5.792 -2.3972 -0.4883 -2.4239
  152SAPE   C3816835   1.160   6.893   5.589 -0.2368  0.5032 -0.4884
  152SAPE   H8X16836   1.134   7.000   5.575 -0.8135  0.2009 -1.9148
  152SAPE   H8Y16837   1.086   6.830   5.534  1.6732 -1.9084 -0.4398
  152SAPE   C3916838   1.283   6.872   5.502  0.1174 -0.6092 -0.1815
  152SAPE   H9X16839   1.324   6.769   5.505  2.7404  0.3662  0.1861
  152SAPE   H9Y16840   1.365   6.939   5.539  0.0969 -0.4080 -0.4931
  152SAPE  C31016841   1.254   6.900   5.354  0.0293 -0.0270 -0.2358
  152SAPE  H10X16842   1.199   6.997   5.358  0.2975  0.1164 -0.0508
  152SAPE  H10Y16843   1.177   6.822   5.336  0.7264 -1.0292  0.9913
  152SAPE  C31116844   1.372   6.897   5.250  0.6910 -0.1552 -0.5110
  152SAPE  H11X16845   1.405   6.791   5.247 -0.1224 -0.4726  1.0573
  152SAPE  H11Y16846   1.448   6.963   5.295  0.4068 -0.0617 -0.1683
  152SAPE  C31216847   1.325   6.963   5.123 -0.2815 -0.1932 -0.6630
  152SAPE  H12X16848   1.297   7.063   5.163  2.7740 -0.3276  2.2322
  152SAPE  H12Y16849   1.234   6.933   5.067  0.0298  1.9625 -2.4998
  152SAPE  C31316850   1.434   6.987   5.020 -0.4326  0.0570 -0.5656
  152SAPE  H13X16851   1.476   6.887   4.995  0.9347  0.7098 -0.9868
  152SAPE  H13Y16852   1.513   7.044   5.074  1.1311 -2.8494  0.4015
  152SAPE  C31416853   1.383   7.065   4.898  0.1760  0.0566  0.1561
  152SAPE  H14X16854   1.350   7.167   4.927  0.8397 -0.1649  1.8151
  152SAPE  H14Y16855   1.288   7.013   4.873  0.0218 -0.2524  1.3271
  152SAPE  C31516856   1.481   7.076   4.782  0.7814 -0.5040 -0.2665
  152SAPE  H15X16857   1.523   6.973   4.770  0.8891 -0.3801 -1.0059
  152SAPE  H15Y16858   1.564   7.145   4.806  0.2870 -0.0793  0.2242
  152SAPE  C31616859   1.423   7.117   4.647 -0.0066 -0.9800 -0.6571
  152SAPE  H16X16860   1.421   7.228   4.648  0.1958 -0.9756  0.1119
  152SAPE  H16Y16861   1.319   7.080   4.635 -0.3084 -0.0615 -0.9420
  152SAPE  C31716862   1.502   7.074   4.517 -0.3026  0.6545  0.2224
  152SAPE  H17X16863   1.469   6.974   4.484  0.3824  0.6867 -0.5898
  152SAPE  H17Y16864   1.611   7.068   4.537 -0.3549  1.3340  0.7705
  152SAPE  C31816865   1.490   7.176   4.405  0.2630 -0.2884 -0.1623
  152SAPE  H18X16866   1.544   7.273   4.412 -0.5426  0.1169  0.6700
  152SAPE  H18Y16867   1.384   7.207   4.398  0.2421 -0.3472 -0.1082
  152SAPE  H18Z16868   1.527   7.136   4.308 -0.6442  0.3805 -0.7937
  153SAPE     N16869   6.400   4.970   7.253 -0.3931  0.1793 -0.3441
  153SAPE   HN116870   6.391   4.884   7.311 -0.4711 -0.4440 -1.2627
  153SAPE   HN216871   6.364   5.057   7.297  0.5338  1.1368 -1.4111
  153SAPE   HN316872   6.337   4.952   7.172  1.6513  0.6093 -2.1357
  153SAPE   C1216873   6.538   4.995   7.212 -0.1253 -0.7617 -1.0636
  153SAPE  H12A16874   6.591   4.897   7.214 -1.8321 -1.7153  0.5718
  153SAPE  H12B16875   6.579   5.059   7.293 -1.8904 -1.2262  0.2755
  153SAPE   C1116876   6.534   5.050   7.069 -0.1985  0.4879 -0.1776
  153SAPE  H11A16877   6.517   4.969   6.994 -0.4232 -0.8916  1.3265
  153SAPE  H11B16878   6.638   5.089   7.054 -0.1324  0.4744  0.2573
  153SAPE     P16879   6.310   5.121   6.964 -0.2817 -0.3334  0.3136
  153SAPE   O1316880   6.245   4.999   7.016 -0.5477  0.4682  0.2331
  153SAPE   O1416881   6.226   5.240   6.969 -0.4355 -0.3559  0.5510
  153SAPE   O1216882   6.440   5.160   7.059 -0.1872  0.1751  0.4720
  153SAPE   O1116883   6.360   5.100   6.815 -0.3083  0.4350  0.8658
  153SAPE    C116884   6.475   5.168   6.754  0.7405 -0.2516 -0.4107
  153SAPE    HA16885   6.535   5.228   6.825 -1.8923  0.7041  1.1461
  153SAPE    HB16886   6.544   5.093   6.709  0.7852 -0.7990  0.5432
  153SAPE    C216887   6.425   5.259   6.639  0.2113 -0.0528  0.5906
  153SAPE    HS16888   6.368   5.338   6.692  1.6726  1.2753  0.2429
  153SAPE   O2116889   6.346   5.177   6.550  0.5196 -0.6194  0.2509
  153SAPE   C2116890   6.267   5.259   6.468 -0.3419  0.3287 -1.0642
  153SAPE   O2216891   6.257   5.383   6.491  0.2214 -0.0004 -0.5198
  153SAPE   C2216892   6.199   5.182   6.355  0.1187 -0.6018  0.2199
  153SAPE   H2R16893   6.263   5.100   6.316 -0.8434 -0.9556 -0.6555
  153SAPE   H2S16894   6.103   5.141   6.395  0.5539 -0.0796  1.8943
  153SAPE    C316895   6.542   5.337   6.559 -0.3696 -0.3158 -0.0746
  153SAPE    HX16896   6.599   5.383   6.643  2.1025 -0.6181 -1.4766
  153SAPE    HY16897   6.497   5.422   6.503 -3.3562 -0.3285  2.0645
  153SAPE   O3116898   6.621   5.250   6.475 -0.8515 -0.3636 -0.4239
  153SAPE   C3116899   6.729   5.304   6.421 -1.0534 -0.0768 -0.3663
  153SAPE   O3216900   6.783   5.410   6.443  0.2999  0.0470  0.0658
  153SAPE   C3216901   6.762   5.229   6.295 -0.0643  0.0436  0.2515
  153SAPE   H2X16902   6.679   5.218   6.222  0.7908  1.6669 -1.0140
  153SAPE   H2Y16903   6.797   5.127   6.321 -1.1917 -0.2181  0.7882
  153SAPE   C2316904   6.158   5.278   6.242 -0.6105  0.0604 -0.1508
  153SAPE   H3R16905   6.250   5.328   6.204 -1.0235  1.5062  0.6589
  153SAPE   H3S16906   6.093   5.358   6.283  0.5493  1.1227 -0.3306
  153SAPE   C2416907   6.096   5.214   6.112  0.9307  0.0023  0.9120
  153SAPE   H4R16908   6.076   5.295   6.038  3.1550 -0.9181 -0.8408
  153SAPE   H4S16909   6.000   5.171   6.149  0.4648 -0.4689 -0.7402
  153SAPE   C2516910   6.175   5.103   6.037 -0.0646 -0.0642  0.5403
  153SAPE   H5R16911   6.170   5.004   6.085 -0.0651  0.4033  1.5293
  153SAPE   C2616912   6.272   5.131   5.943  0.5709  0.0959  0.3942
  153SAPE   H6R16913   6.322   5.047   5.892 -0.9364  0.3797 -1.7150
  153SAPE   C2716914   6.302   5.268   5.885  0.3918  0.0312  0.4370
  153SAPE   H7R16915   6.411   5.277   5.864  0.5882 -1.4316  0.7199
  153SAPE   H7S16916   6.286   5.349   5.960  0.0782 -0.9245  1.4283
  153SAPE   C2816917   6.221   5.293   5.756  0.7420  0.0697 -0.5342
  153SAPE   H8R16918   6.131   5.232   5.743  1.6878 -1.1715 -1.6439
  153SAPE   C2916919   6.245   5.375   5.652  0.0041  0.4595  0.8930
  153SAPE   H9R16920   6.172   5.390   5.571  0.8596  0.8870  0.1839
  153SAPE  C21016921   6.372   5.453   5.634 -0.4110 -0.2143 -0.0574
  153SAPE  H10R16922   6.464   5.397   5.660  1.4686  2.0828 -1.3545
  153SAPE  H10S16923   6.356   5.536   5.706 -2.0790 -1.4852  1.1122
  153SAPE  C21116924   6.405   5.493   5.489 -0.3362 -0.1758 -0.0468
  153SAPE  H11R16925   6.461   5.422   5.427  0.4141  0.9527 -0.6969
  153SAPE  C21216926   6.377   5.607   5.429  0.2181  0.2584  0.0074
  153SAPE  H12R16927   6.408   5.625   5.325  3.3989 -2.0587  0.4212
  153SAPE  C21316928   6.299   5.729   5.480 -0.7925 -0.8515  0.5279
  153SAPE  H13R16929   6.324   5.816   5.416  4.1864 -2.6995 -0.4366
  153SAPE  H13S16930   6.346   5.760   5.576 -0.2142 -0.3190  0.0769
  153SAPE  C21416931   6.151   5.709   5.493 -0.1029 -0.4327  0.5488
  153SAPE  H14R16932   6.102   5.649   5.415  0.9779  0.6887 -1.0558
  153SAPE  C21516933   6.076   5.761   5.593  0.6273 -0.1628 -0.0101
  153SAPE  H15R16934   5.966   5.751   5.592  0.5704  0.3041  0.8379
  153SAPE  C21616935   6.123   5.844   5.703 -0.4410 -0.0079  0.6097
  153SAPE  H16R16936   6.069   5.939   5.721  0.1431  0.4095  0.1873
  153SAPE  H16S16937   6.229   5.877   5.703 -1.1188  2.3691 -0.3989
  153SAPE  C21716938   6.096   5.753   5.826 -0.1371  0.5157  0.2315
  153SAPE  H17R16939   6.160   5.662   5.818  0.9242  1.1260  1.3352
  153SAPE  H17S16940   5.990   5.726   5.845  0.7761 -2.7275  1.4112
  153SAPE  C21816941   6.143   5.824   5.952  0.1224  0.3162  0.3503
  153SAPE  H18R16942   6.111   5.930   5.940  0.4898  0.7616  2.7805
  153SAPE  H18S16943   6.254   5.824   5.952  0.2376  3.0968 -1.6914
  153SAPE  C21916944   6.080   5.784   6.085  0.2015  0.3151  0.5424
  153SAPE  H19R16945   5.971   5.799   6.073  0.5561  2.5392 -0.2860
  153SAPE  H19S16946   6.121   5.851   6.163  1.8074  2.8134 -2.2381
  153SAPE  C22016947   6.125   5.639   6.120  0.0201  0.1844  0.0773
  153SAPE  H20R16948   6.236   5.637   6.122  0.2190  3.7989  2.3219
  153SAPE  H20S16949   6.080   5.566   6.049 -1.0208  0.4567  0.4336
  153SAPE  H20T16950   6.087   5.618   6.223 -2.3753 -1.3794 -1.0378
  153SAPE   C3316951   6.881   5.298   6.218 -0.4629 -0.0614  0.3515
  153SAPE   H3X16952   6.962   5.309   6.293 -1.1041  0.9687  0.9068
  153SAPE   H3Y16953   6.839   5.398   6.195  1.9763  1.1126  0.6149
  153SAPE   C3416954   6.918   5.229   6.085  0.2695  0.0144 -0.1242
  153SAPE   H4X16955   6.923   5.118   6.091 -0.1189  0.0884  2.6687
  153SAPE   H4Y16956   7.019   5.251   6.047  0.2526 -2.4417 -1.8578
  153SAPE   C3516957   6.815   5.259   5.976 -0.5060 -0.0274 -0.0464
  153SAPE   H5X16958   6.812   5.368   5.954 -2.8060  0.1856  1.0001
  153SAPE   H5Y16959   6.715   5.230   6.017 -0.8450 -1.0336 -1.5000
  153SAPE   C3616960   6.823   5.189   5.840  0.0462  0.6531  0.8828
  153SAPE   H6X16961   6.811   5.080   5.860 -1.8947  0.2139 -2.0375
  153SAPE   H6Y16962   6.921   5.199   5.789 -1.0312 -0.9499 -1.6990
  153SAPE   C3716963   6.721   5.235   5.737  0.3366  0.0782  0.0255
  153SAPE   H7X16964   6.746   5.338   5.703 -2.0791  0.6380 -0.2712
  153SAPE   H7Y16965   6.618   5.244   5.776 -0.0554  1.5327 -1.2292
  153SAPE   C3816966   6.718   5.140   5.620 -0.4711 -0.0119  0.0203
  153SAPE   H8X16967   6.689   5.039   5.658 -0.4362 -0.2857 -0.6752
  153SAPE   H8Y16968   6.816   5.140   5.568 -1.3567 -0.0972 -1.7097
  153SAPE   C3916969   6.620   5.194   5.511  0.1915 -0.3806 -0.5985
  153SAPE   H9X16970   6.644   5.299   5.486  3.5494 -0.3547  1.9060
  153SAPE   H9Y16971   6.523   5.192   5.565  0.1866 -2.5780 -0.6001
  153SAPE  C31016972   6.630   5.101   5.396 -0.4893  0.1729  0.4488
  153SAPE  H10X16973   6.620   4.993   5.420  2.1191 -0.2113  0.0606
  153SAPE  H10Y16974   6.737   5.100   5.366 -0.5734 -1.0311  0.1207
  153SAPE  C31116975   6.535   5.143   5.284  0.2424  0.0652 -0.2024
  153SAPE  H11X16976   6.547   5.252   5.266  0.7210 -0.0843 -0.8355
  153SAPE  H11Y16977   6.427   5.128   5.308 -0.1171  4.0095  1.5623
  153SAPE  C31216978   6.567   5.077   5.149 -0.0153  0.2105 -0.4862
  153SAPE  H12X16979   6.591   4.970   5.164 -1.4341 -0.4471 -2.4474
  153SAPE  H12Y16980   6.665   5.113   5.112 -0.3657  1.1129 -0.5777
  153SAPE  C31316981   6.465   5.088   5.037  0.6161  0.0599 -0.3715
  153SAPE  H13X16982   6.363   5.053   5.067 -0.1235  2.0071 -0.4755
  153SAPE  H13Y16983   6.492   5.016   4.956  1.0350 -1.2247  0.8747
  153SAPE  C31416984   6.470   5.236   4.986 -0.2851 -0.0543  1.2110
  153SAPE  H14X16985   6.566   5.262   4.935 -1.4004  1.9952  0.0153
  153SAPE  H14Y16986   6.485   5.315   5.063 -0.3206  3.4710 -2.0936
  153SAPE  C31516987   6.345   5.258   4.891 -0.1535  0.9687 -0.4471
  153SAPE  H15X16988   6.265   5.273   4.967  0.1637  0.6053 -0.0423
  153SAPE  H15Y16989   6.319   5.171   4.826 -0.0448  0.6843 -0.1104
  153SAPE  C31616990   6.365   5.382   4.799  0.1693 -0.1272  0.1528
  153SAPE  H16X16991   6.470   5.385   4.762 -0.0190 -1.0165 -0.5010
  153SAPE  H16Y16992   6.341   5.466   4.867 -0.6411 -1.0148  0.9806
  153SAPE  C31716993   6.272   5.378   4.682 -0.1635 -0.2916  0.7489
  153SAPE  H17X16994   6.170   5.351   4.717 -0.4382 -1.0416 -0.5560
  153SAPE  H17Y16995   6.295   5.291   4.616 -1.3938 -0.9901  1.2094
  153SAPE  C31816996   6.262   5.494   4.594 -0.1644 -0.0107 -0.7125
  153SAPE  H18X16997   6.359   5.524   4.548  1.3511 -1.7446  1.1417
  153SAPE  H18Y16998   6.224   5.577   4.657 -0.5158 -0.5389 -0.2192
  153SAPE  H18Z16999   6.184   5.478   4.517 -0.3605  0.9992 -0.7276
  154SAPE     N17000   6.325   4.268   6.691  0.1896 -0.1416  0.1566
  154SAPE   HN117001   6.392   4.307   6.623  1.7113 -2.0532  0.4758
  154SAPE   HN217002   6.323   4.330   6.775 -0.0381 -0.6495  0.5291
  154SAPE   HN317003   6.372   4.183   6.729  1.8734  1.0358  0.8492
  154SAPE   C1217004   6.186   4.258   6.620 -1.0643  0.6207  0.1819
  154SAPE  H12A17005   6.122   4.230   6.707  0.7076 -0.1320  1.3236
  154SAPE  H12B17006   6.199   4.176   6.546  0.5814 -0.2950  1.4019
  154SAPE   C1117007   6.143   4.388   6.549  0.0973 -0.1404  0.5467
  154SAPE  H11A17008   6.047   4.369   6.496  1.5280 -1.1785 -1.8582
  154SAPE  H11B17009   6.214   4.415   6.468 -1.2878  2.9449  0.2271
  154SAPE     P17010   6.001   4.535   6.713 -0.2935  0.1048 -0.5711
  154SAPE   O1317011   5.951   4.411   6.781 -0.0738  0.2182 -0.3817
  154SAPE   O1417012   6.029   4.659   6.793  0.3397  0.0625  0.0903
  154SAPE   O1217013   6.137   4.490   6.641  0.0912  0.3864  0.4005
  154SAPE   O1117014   5.903   4.574   6.595  0.6208 -0.0920  0.4766
  154SAPE    C117015   5.950   4.665   6.500  0.1537 -0.4353 -0.9460
  154SAPE    HA17016   5.969   4.762   6.549  0.9946 -0.2373 -1.6227
  154SAPE    HB17017   6.048   4.632   6.457  0.1686 -0.2857 -1.0270
  154SAPE    C217018   5.858   4.673   6.377  0.2320 -0.4895 -0.9809
  154SAPE    HS17019   5.753   4.663   6.410 -0.1860 -0.1279 -2.1440
  154SAPE   O2117020   5.891   4.566   6.284 -0.1774  0.2512 -0.0171
  154SAPE   C2117021   5.816   4.458   6.293 -0.5146  0.0252 -0.0150
  154SAPE   O2217022   5.732   4.435   6.381  0.2473 -0.2583 -0.1697
  154SAPE   C2217023   5.865   4.360   6.190 -0.2565 -0.2639 -0.3344
  154SAPE   H2R17024   5.816   4.383   6.093 -2.3603  1.0925  0.9715
  154SAPE   H2S17025   5.973   4.374   6.169  0.1766 -1.3628  1.0330
  154SAPE    C317026   5.879   4.808   6.311  0.0904 -0.9131  0.4524
  154SAPE    HX17027   5.987   4.829   6.297 -0.0247 -1.4632 -1.5408
  154SAPE    HY17028   5.832   4.882   6.380 -1.3645 -2.0887  0.7783
  154SAPE   O3117029   5.807   4.821   6.190  0.5391 -0.1285  0.7862
  154SAPE   C3117030   5.880   4.830   6.087 -0.4769  0.2393 -0.5141
  154SAPE   O3217031   6.003   4.823   6.078 -0.0677 -0.1718  0.1818
  154SAPE   C3217032   5.781   4.850   5.972  0.7237 -0.1179 -0.0425
  154SAPE   H2X17033   5.677   4.846   6.008  0.4318 -0.9192 -0.9339
  154SAPE   H2Y17034   5.814   4.758   5.919  1.8049 -1.0431  2.0857
  154SAPE   C2317035   5.845   4.210   6.227 -0.3015 -0.0283 -0.7591
  154SAPE   H3R17036   5.740   4.194   6.259  0.6469 -0.3727  2.5519
  154SAPE   H3S17037   5.917   4.186   6.308 -1.6865 -0.0858  0.4941
  154SAPE   C2417038   5.874   4.129   6.099 -0.3246 -0.7326 -0.3936
  154SAPE   H4R17039   5.811   4.172   6.019  3.1471  1.1607 -2.3520
  154SAPE   H4S17040   5.843   4.025   6.125  1.6036 -0.7736  2.1446
  154SAPE   C2517041   6.018   4.122   6.063 -0.0776 -0.2966  0.0581
  154SAPE   H5R17042   6.062   4.039   6.120  1.2627  0.4951  0.2180
  154SAPE   C2617043   6.095   4.188   5.973  0.3020 -0.0088  0.1073
  154SAPE   H6R17044   6.196   4.146   5.968  1.0477  1.6801  0.5313
  154SAPE   C2717045   6.046   4.292   5.879  0.0173 -0.5825 -0.3391
  154SAPE   H7R17046   6.031   4.383   5.941  2.8773 -0.5729  0.4428
  154SAPE   H7S17047   5.947   4.264   5.837 -0.7803 -1.1221  1.7699
  154SAPE   C2817048   6.145   4.326   5.774 -0.0207 -0.4935  0.3087
  154SAPE   H8R17049   6.244   4.277   5.781  1.5542  2.6866  2.5914
  154SAPE   C2917050   6.132   4.422   5.681  1.0373  0.0686 -0.4439
  154SAPE   H9R17051   6.220   4.449   5.621  0.6435  1.9680 -0.2262
  154SAPE  C21017052   6.013   4.513   5.664  0.0234  0.4118  0.1700
  154SAPE  H10R17053   6.013   4.586   5.747  1.3626  0.1222  0.4407
  154SAPE  H10S17054   5.927   4.444   5.681  0.3792 -0.7732 -2.3050
  154SAPE  C21117055   6.004   4.566   5.522  0.4193 -0.1661  0.3543
  154SAPE  H11R17056   6.052   4.664   5.508  0.1644 -0.2450 -1.1675
  154SAPE  C21217057   5.949   4.501   5.417  0.2834 -0.4545  0.6940
  154SAPE  H12R17058   5.944   4.555   5.321 -0.5446 -2.0463 -0.1911
  154SAPE  C21317059   5.884   4.361   5.401 -0.5203 -0.5198 -0.2324
  154SAPE  H13R17060   5.808   4.354   5.320 -0.5151 -2.3548 -0.1192
  154SAPE  H13S17061   5.830   4.333   5.494 -1.2258  0.6186 -0.2800
  154SAPE  C21417062   6.003   4.261   5.376 -0.3717 -0.1099  0.3219
  154SAPE  H14R17063   6.096   4.286   5.428 -0.1587  0.8976 -0.5295
  154SAPE  C21517064   5.997   4.143   5.306 -0.2000  0.0571  0.6832
  154SAPE  H15R17065   6.084   4.076   5.302  0.1798  0.4943  1.4361
  154SAPE  C21617066   5.868   4.088   5.252 -0.1731 -0.7368 -0.6638
  154SAPE  H16R17067   5.783   4.123   5.315  2.8662  3.5297  1.5444
  154SAPE  H16S17068   5.865   3.978   5.239 -0.3741 -0.4721 -3.3185
  154SAPE  C21717069   5.843   4.141   5.110 -0.0021 -0.2380  0.4682
  154SAPE  H17R17070   5.828   4.251   5.107 -2.3793 -0.5031  0.9362
  154SAPE  H17S17071   5.744   4.108   5.071 -0.4410  0.4820  0.9548
  154SAPE  C21817072   5.946   4.099   5.008 -0.0893 -0.0349  0.7791
  154SAPE  H18R17073   5.959   3.988   5.004  1.7321  0.1705  0.1699
  154SAPE  H18S17074   6.043   4.144   5.036  0.1113 -0.4308  0.7263
  154SAPE  C21917075   5.906   4.136   4.863 -0.8579  0.4817  0.9779
  154SAPE  H19R17076   5.994   4.099   4.806 -1.2824  1.3474 -0.2723
  154SAPE  H19S17077   5.905   4.245   4.846  0.5873  0.6895  2.0473
  154SAPE  C22017078   5.776   4.080   4.816 -0.3887  0.0470  0.0326
  154SAPE  H20R17079   5.763   4.109   4.709  1.8290 -1.4302 -0.7135
  154SAPE  H20S17080   5.690   4.117   4.876  0.9014  0.0760  1.9697
  154SAPE  H20T17081   5.775   3.969   4.826 -0.8942 -0.0196 -0.6537
  154SAPE   C3317082   5.807   4.974   5.897  0.0128 -0.7429 -0.3133
  154SAPE   H3X17083   5.917   4.990   5.890 -0.2205  0.8543 -0.7724
  154SAPE   H3Y17084   5.762   5.062   5.948  2.4845  0.7915 -0.5564
  154SAPE   C3417085   5.742   4.966   5.762  0.2286 -0.2485  0.4812
  154SAPE   H4X17086   5.707   5.068   5.736  1.5885  0.2758  0.6113
  154SAPE   H4Y17087   5.660   4.892   5.769 -0.7765  0.8664  0.6000
  154SAPE   C3517088   5.832   4.922   5.647 -0.4136  0.8402 -0.0755
  154SAPE   H5X17089   5.793   4.909   5.543 -0.1032  0.0686 -0.0998
  154SAPE   H5Y17090   5.866   4.819   5.669 -2.2911 -0.0202 -0.9636
  154SAPE   C3617091   5.953   5.011   5.624  0.1977  0.2928  0.5885
  154SAPE   H6X17092   6.039   4.984   5.689  0.6976  0.2162 -0.0883
  154SAPE   H6Y17093   5.928   5.115   5.653 -0.1644  0.8154 -1.4114
  154SAPE   C3717094   6.005   4.988   5.481 -0.7613 -0.8332 -0.0052
  154SAPE   H7X17095   5.998   4.881   5.451  2.2771 -0.7627 -1.2884
  154SAPE   H7Y17096   6.116   4.987   5.481 -0.7411  0.2576  0.5503
  154SAPE   C3817097   5.949   5.079   5.370  0.3978 -0.1634 -0.8115
  154SAPE   H8X17098   5.990   5.179   5.396 -1.4040  0.1444  1.0203
  154SAPE   H8Y17099   5.839   5.081   5.384  0.6394  0.7023  1.3237
  154SAPE   C3917100   5.996   5.062   5.220 -0.1311  1.0367  0.1603
  154SAPE   H9X17101   6.101   5.026   5.215 -0.4059  0.1691  0.5867
  154SAPE   H9Y17102   5.990   5.155   5.158 -0.3636 -0.5090 -2.2817
  154SAPE  C31017103   5.909   4.959   5.150  0.7522 -0.1889  0.1664
  154SAPE  H10X17104   5.810   5.000   5.122  0.7479 -0.5236 -0.3206
  154SAPE  H10Y17105   5.896   4.870   5.215  3.2402 -0.2871  0.6574
  154SAPE  C31117106   5.983   4.898   5.030  0.1578 -0.4842 -0.0881
  154SAPE  H11X17107   5.915   4.831   4.974  0.8123 -1.1452 -0.1053
  154SAPE  H11Y17108   6.060   4.827   5.067  0.0685 -0.1340  0.7990
  154SAPE  C31217109   6.043   5.001   4.934  0.3488  0.0459 -0.5074
  154SAPE  H12X17110   6.134   5.055   4.968 -0.3233  1.0774 -0.3003
  154SAPE  H12Y17111   5.961   5.072   4.913  0.0011 -0.5533 -1.2141
  154SAPE  C31317112   6.068   4.943   4.793 -0.1740  0.0498  0.1230
  154SAPE  H13X17113   6.067   5.024   4.718 -0.8359  2.0058  2.1131
  154SAPE  H13Y17114   6.007   4.852   4.771  2.7468 -2.5001  1.7338
  154SAPE  C31417115   6.206   4.882   4.780 -0.0775  0.1501  0.0609
  154SAPE  H14X17116   6.212   4.815   4.868  0.5560 -0.6107 -0.5500
  154SAPE  H14Y17117   6.290   4.953   4.799  0.4744 -0.4736 -0.0328
  154SAPE  C31517118   6.236   4.803   4.651  0.8532  0.0324  0.3834
  154SAPE  H15X17119   6.196   4.855   4.562  2.1568  0.2498 -0.0928
  154SAPE  H15Y17120   6.173   4.712   4.664 -0.5531  0.9731  0.4462
  154SAPE  C31617121   6.384   4.770   4.622 -0.3568  0.1223 -0.2044
  154SAPE  H16X17122   6.412   4.701   4.540  1.9238  0.6313  0.0507
  154SAPE  H16Y17123   6.418   4.721   4.716  3.4364  2.2311 -0.2670
  154SAPE  C31717124   6.470   4.891   4.600 -0.2919 -0.0069  0.1487
  154SAPE  H17X17125   6.576   4.858   4.607 -1.1236 -2.9480  0.2747
  154SAPE  H17Y17126   6.451   4.964   4.681 -2.5606 -0.9803  0.5374
  154SAPE  C31817127   6.437   4.956   4.467  0.5724  0.1396  0.5677
  154SAPE  H18X17128   6.508   5.029   4.422 -0.0396 -0.2262 -1.0463
  154SAPE  H18Y17129   6.343   5.015   4.462  1.7702  2.3174  1.7860
  154SAPE  H18Z17130   6.435   4.881   4.386  0.9324 -0.3709  1.0254
  155SAPE     N17131   1.418   3.522   6.851 -0.0944  0.4000 -0.1019
  155SAPE   HN117132   1.509   3.498   6.894 -0.7064 -1.4922  0.2177
  155SAPE   HN217133   1.389   3.617   6.885 -0.2004  0.6391 -0.8455
  155SAPE   HN317134   1.345   3.450   6.867 -0.1269  0.4191 -0.1644
  155SAPE   C1217135   1.428   3.530   6.706 -0.1058  0.5976 -0.2536
  155SAPE  H12A17136   1.328   3.501   6.665 -0.3561  2.3990 -1.0289
  155SAPE  H12B17137   1.507   3.461   6.669  1.4942  1.7706  0.8718
  155SAPE   C1117138   1.474   3.671   6.662 -0.2192  0.3827 -0.5648
  155SAPE  H11A17139   1.438   3.680   6.557 -1.0930  1.4447 -0.1972
  155SAPE  H11B17140   1.584   3.678   6.654  0.0348 -0.8242  1.1832
  155SAPE     P17141   1.326   3.888   6.697 -0.0752  0.5711 -0.0788
  155SAPE   O1317142   1.212   3.811   6.644 -0.1477 -0.0331 -0.0369
  155SAPE   O1417143   1.304   3.999   6.798  0.1007  0.3648 -0.0382
  155SAPE   O1217144   1.431   3.778   6.754 -0.1279  0.0960  0.1324
  155SAPE   O1117145   1.399   3.942   6.572  0.1713 -0.2971 -0.6042
  155SAPE    C117146   1.505   4.038   6.577 -0.6180  0.2012  0.2943
  155SAPE    HA17147   1.498   4.097   6.670 -2.8020  0.8227 -0.1903
  155SAPE    HB17148   1.600   3.981   6.567 -0.4913  0.3192  0.8361
  155SAPE    C217149   1.503   4.135   6.452 -0.2085 -1.1577  0.3174
  155SAPE    HS17150   1.597   4.193   6.453  0.0048 -1.4835 -0.1791
  155SAPE   O2117151   1.383   4.212   6.446  0.4087  0.3401  0.2587
  155SAPE   C2117152   1.384   4.344   6.456 -0.4353  0.2840  0.3009
  155SAPE   O2217153   1.487   4.414   6.451 -0.4153  0.3967 -0.0599
  155SAPE   C2217154   1.247   4.398   6.448  0.1147 -0.2918 -0.5622
  155SAPE   H2R17155   1.192   4.339   6.371  0.0659 -2.2928  0.9300
  155SAPE   H2S17156   1.197   4.376   6.545  0.4373  0.2230 -0.2791
  155SAPE    C317157   1.509   4.043   6.323  0.3405 -0.0647 -0.5385
  155SAPE    HX17158   1.439   3.957   6.332  1.8300 -1.2246  0.4364
  155SAPE    HY17159   1.602   3.983   6.324 -0.5066 -1.4813 -1.9168
  155SAPE   O3117160   1.487   4.112   6.198  0.1536  0.5344  0.2749
  155SAPE   C3117161   1.598   4.161   6.147 -0.1800  0.2258 -0.2071
  155SAPE   O3217162   1.708   4.135   6.185  0.1574  0.8186 -0.2983
  155SAPE   C3217163   1.566   4.255   6.029  0.0368 -0.0758  0.0716
  155SAPE   H2X17164   1.589   4.361   6.055  1.8256 -0.1821 -0.9054
  155SAPE   H2Y17165   1.459   4.243   6.001 -0.0139  1.1525 -0.3052
  155SAPE   C2317166   1.225   4.548   6.426  0.4507 -0.0698  0.1062
  155SAPE   H3R17167   1.312   4.605   6.466  0.6910  1.1237 -1.9393
  155SAPE   H3S17168   1.128   4.584   6.465  0.6341  2.1292 -1.2590
  155SAPE   C2417169   1.215   4.577   6.274  0.0565  0.1570 -0.0349
  155SAPE   H4R17170   1.311   4.536   6.235  0.0344  0.0458  0.0278
  155SAPE   H4S17171   1.217   4.688   6.272 -1.3736  0.2972  2.3306
  155SAPE   C2517172   1.097   4.512   6.213 -0.4283  0.2220  0.2232
  155SAPE   H5R17173   1.043   4.443   6.279 -0.8067  0.7382  0.4644
  155SAPE   C2617174   1.033   4.546   6.101  0.0579  0.0239  0.5768
  155SAPE   H6R17175   0.955   4.474   6.073 -0.1640 -0.7813  3.0165
  155SAPE   C2717176   1.072   4.657   6.013  0.4148 -0.1376  0.4287
  155SAPE   H7R17177   1.059   4.629   5.907 -1.5530  1.3562  0.2072
  155SAPE   H7S17178   1.179   4.686   6.024  0.9440 -1.0610 -1.7514
  155SAPE   C2817179   0.982   4.769   6.037  0.4233 -0.5627 -0.9089
  155SAPE   H8R17180   0.943   4.778   6.139 -0.5694  0.4428 -1.3614
  155SAPE   C2917181   0.965   4.866   5.940  0.3343  0.8331 -0.3859
  155SAPE   H9R17182   0.887   4.942   5.954  1.0115  1.3184  0.8791
  155SAPE  C21017183   1.033   4.868   5.803  0.6167 -0.0206 -0.7810
  155SAPE  H10R17184   1.052   4.766   5.761 -2.6480 -1.0203 -0.1420
  155SAPE  H10S17185   1.132   4.916   5.817 -0.2026  1.5132 -0.0398
  155SAPE  C21117186   0.972   4.961   5.709  0.1009 -0.1465  0.6737
  155SAPE  H11R17187   0.994   5.068   5.709 -1.6789  0.2615  1.4193
  155SAPE  C21217188   0.895   4.917   5.603  0.5555  0.1805 -0.2559
  155SAPE  H12R17189   0.854   4.985   5.526  0.0040 -1.6875 -1.6763
  155SAPE  C21317190   0.858   4.771   5.571 -0.7382 -0.3509 -0.1537
  155SAPE  H13R17191   0.889   4.702   5.653  1.7923  0.4675 -0.3496
  155SAPE  H13S17192   0.931   4.757   5.488 -0.2796  2.0618 -0.2172
  155SAPE  C21417193   0.720   4.751   5.507 -0.0034 -0.4959 -0.5907
  155SAPE  H14R17194   0.713   4.730   5.399 -2.4868 -1.5241 -0.2826
  155SAPE  C21517195   0.611   4.743   5.589  0.1997  0.3492 -0.2403
  155SAPE  H15R17196   0.513   4.723   5.542  0.0833  1.1619 -0.3561
  155SAPE  C21617197   0.606   4.766   5.742 -0.5470 -0.2332  0.9155
  155SAPE  H16R17198   0.547   4.857   5.766  0.7708  0.7882  0.3831
  155SAPE  H16S17199   0.711   4.788   5.771 -0.8538  0.3116  1.6631
  155SAPE  C21717200   0.552   4.651   5.826  0.4225 -0.4307 -0.9965
  155SAPE  H17R17201   0.456   4.608   5.791 -0.2699 -0.9527  1.4020
  155SAPE  H17S17202   0.524   4.696   5.924 -0.8136  0.6937 -1.8247
  155SAPE  C21817203   0.659   4.537   5.837  1.1348  0.6568  0.3638
  155SAPE  H18R17204   0.725   4.591   5.908  1.4410  1.0856 -0.2464
  155SAPE  H18S17205   0.701   4.515   5.737  0.8828 -2.4453  0.8550
  155SAPE  C21917206   0.586   4.418   5.906 -0.2843  0.3314 -0.0277
  155SAPE  H19R17207   0.504   4.366   5.851 -1.3718  0.6571  1.2154
  155SAPE  H19S17208   0.542   4.449   6.003  0.0665  2.3308 -0.4701
  155SAPE  C22017209   0.677   4.298   5.923 -0.2146  0.1494  0.7863
  155SAPE  H20R17210   0.724   4.253   5.833 -0.8877 -1.8823  1.3985
  155SAPE  H20S17211   0.609   4.225   5.973  0.2991  0.5439  2.1110
  155SAPE  H20T17212   0.763   4.322   5.989 -0.7442  0.5326  1.3482
  155SAPE   C3317213   1.661   4.232   5.903 -0.2713  0.2861 -0.4386
  155SAPE   H3X17214   1.651   4.125   5.874 -0.1859  0.3595 -0.7433
  155SAPE   H3Y17215   1.768   4.254   5.926 -0.7970  2.8138 -0.1219
  155SAPE   C3417216   1.617   4.313   5.781  0.4348  0.4693  0.5733
  155SAPE   H4X17217   1.598   4.419   5.805  1.7251  0.6269  0.9805
  155SAPE   H4Y17218   1.513   4.278   5.765  0.4061 -1.1822  3.5813
  155SAPE   C3517219   1.697   4.291   5.654  0.0675 -0.8628  0.3931
  155SAPE   H5X17220   1.712   4.184   5.628 -1.1237 -0.3655 -2.9414
  155SAPE   H5Y17221   1.790   4.344   5.680 -1.4630  1.7089  0.9509
  155SAPE   C3617222   1.644   4.376   5.533 -0.6173  0.1031 -0.8613
  155SAPE   H6X17223   1.728   4.404   5.466 -1.4362 -0.1498 -2.0285
  155SAPE   H6Y17224   1.614   4.476   5.569  0.4857  0.3081 -0.4816
  155SAPE   C3717225   1.529   4.306   5.467  0.3001 -0.6663 -0.0478
  155SAPE   H7X17226   1.442   4.279   5.531 -0.4960  2.6505  0.4699
  155SAPE   H7Y17227   1.582   4.217   5.427  4.0847  1.2294  0.3345
  155SAPE   C3817228   1.484   4.397   5.346 -0.7312  0.0102  0.2929
  155SAPE   H8X17229   1.438   4.490   5.386 -2.5007 -0.4418 -0.5756
  155SAPE   H8Y17230   1.398   4.343   5.302 -0.5361  0.5438 -0.7647
  155SAPE   C3917231   1.595   4.438   5.247  0.5704 -0.1841  0.8379
  155SAPE   H9X17232   1.671   4.364   5.214 -0.2927 -0.6079 -0.2601
  155SAPE   H9Y17233   1.657   4.521   5.288  1.4704  0.5379 -1.7811
  155SAPE  C31017234   1.524   4.487   5.125 -0.1909 -0.7446 -0.0156
  155SAPE  H10X17235   1.451   4.568   5.147  0.7909  0.3198 -0.5681
  155SAPE  H10Y17236   1.463   4.401   5.091 -0.5516 -0.3732 -0.3268
  155SAPE  C31117237   1.626   4.538   5.012 -0.1369 -0.3007  0.6508
  155SAPE  H11X17238   1.688   4.614   5.063 -1.3107  0.4791  0.9691
  155SAPE  H11Y17239   1.560   4.582   4.934  2.8908  0.0118 -1.9455
  155SAPE  C31217240   1.722   4.428   4.951  0.2005  0.9802 -0.7624
  155SAPE  H12X17241   1.672   4.338   4.909  0.8483 -0.2665  1.0133
  155SAPE  H12Y17242   1.766   4.373   5.037 -5.9570 -1.9741  1.1113
  155SAPE  C31317243   1.829   4.488   4.863 -0.7264  0.2679  0.1936
  155SAPE  H13X17244   1.907   4.410   4.852 -1.1132 -0.0415 -0.4254
  155SAPE  H13Y17245   1.880   4.575   4.909 -0.3168 -0.3426  0.9142
  155SAPE  C31417246   1.788   4.525   4.711  0.3512  0.0390  0.0051
  155SAPE  H14X17247   1.703   4.591   4.735  0.4457 -1.0656  4.0616
  155SAPE  H14Y17248   1.730   4.444   4.661 -0.9797  1.8572 -1.5356
  155SAPE  C31517249   1.899   4.581   4.624 -0.3187  0.4003  0.1954
  155SAPE  H15X17250   1.959   4.656   4.679  1.8344  0.6995 -2.3889
  155SAPE  H15Y17251   1.850   4.619   4.532 -2.1737  0.1077  1.0095
  155SAPE  C31617252   1.997   4.474   4.565 -0.0585 -0.0625  0.1710
  155SAPE  H16X17253   2.058   4.434   4.648 -0.1925 -1.1190 -0.2298
  155SAPE  H16Y17254   2.067   4.528   4.497  1.2637  0.8317  2.1570
  155SAPE  C31717255   1.938   4.354   4.494  0.3982 -0.7243 -0.6191
  155SAPE  H17X17256   1.866   4.401   4.424  1.0176  2.6652  0.8157
  155SAPE  H17Y17257   1.880   4.281   4.556 -1.8867  1.0013 -0.6017
  155SAPE  C31817258   2.048   4.289   4.415  0.2297  0.1828 -0.2559
  155SAPE  H18X17259   2.120   4.255   4.492 -1.7803 -1.7145  0.8702
  155SAPE  H18Y17260   2.098   4.360   4.346  0.8877 -0.7522 -0.7602
  155SAPE  H18Z17261   2.011   4.209   4.347 -0.5314  2.0957 -2.2318
  156SAPE     N17262   1.627   5.179   7.091  0.4162  0.1008  0.0647
  156SAPE   HN117263   1.664   5.275   7.104  1.3567 -0.2890  0.3363
  156SAPE   HN217264   1.703   5.121   7.050 -0.2208 -0.5634 -0.1958
  156SAPE   HN317265   1.555   5.186   7.016 -0.7422 -1.2699  0.9863
  156SAPE   C1217266   1.589   5.124   7.227 -0.4502  0.3662  0.2334
  156SAPE  H12A17267   1.493   5.171   7.259  0.1048  1.1691  0.7446
  156SAPE  H12B17268   1.664   5.165   7.298 -0.5889  1.4194 -0.2041
  156SAPE   C1117269   1.572   4.969   7.234  0.8150  0.0220  0.5317
  156SAPE  H11A17270   1.536   4.942   7.336  2.1525  0.9568  1.2673
  156SAPE  H11B17271   1.678   4.939   7.221  1.1741  0.4196  2.2918
  156SAPE     P17272   1.327   4.918   7.138  0.0233  0.2695 -0.3395
  156SAPE   O1317273   1.281   4.782   7.164  0.0925  0.1632  0.3371
  156SAPE   O1417274   1.283   5.017   7.237 -0.8139  0.3770 -0.8150
  156SAPE   O1217275   1.489   4.915   7.129  0.1591 -0.1681 -0.8089
  156SAPE   O1117276   1.284   4.969   6.995 -0.4088  0.0816 -0.0166
  156SAPE    C117277   1.316   4.892   6.878  0.2816 -0.3613  0.0156
  156SAPE    HA17278   1.350   4.787   6.892  2.7450  0.2889 -0.5987
  156SAPE    HB17279   1.223   4.883   6.818  2.0135  3.0508 -3.6335
  156SAPE    C217280   1.426   4.961   6.787  0.4994  0.0571  0.1297
  156SAPE    HS17281   1.511   4.997   6.848  2.0939  0.0377 -1.9776
  156SAPE   O2117282   1.376   5.074   6.717 -0.4339 -0.8891  0.0608
  156SAPE   C2117283   1.385   5.189   6.783  0.0621 -0.6188 -0.1198
  156SAPE   O2217284   1.429   5.198   6.896 -0.2501 -0.1866  0.0025
  156SAPE   C2217285   1.351   5.295   6.681 -0.2982  0.5256 -0.7741
  156SAPE   H2R17286   1.445   5.304   6.622  0.1738  0.5664 -0.0275
  156SAPE   H2S17287   1.272   5.256   6.613  0.7499 -0.2134 -1.6189
  156SAPE    C317288   1.490   4.854   6.692  0.1600  0.2934 -0.0860
  156SAPE    HX17289   1.404   4.802   6.646  1.1593  0.8147 -2.7479
  156SAPE    HY17290   1.548   4.779   6.751 -2.1146 -0.4895  1.2674
  156SAPE   O3117291   1.566   4.914   6.582 -0.4827 -0.4400 -0.1486
  156SAPE   C3117292   1.700   4.930   6.599  0.1335 -0.0739 -0.1304
  156SAPE   O3217293   1.761   4.903   6.699  0.6701 -0.3915 -0.5792
  156SAPE   C3217294   1.758   4.983   6.473 -0.8162  0.7362  0.6357
  156SAPE   H2X17295   1.710   5.083   6.463 -0.7475  0.7095  0.0352
  156SAPE   H2Y17296   1.713   4.922   6.392 -1.3437  2.1958 -0.1995
  156SAPE   C2317297   1.300   5.422   6.747  0.2665 -0.0225  0.1610
  156SAPE   H3R17298   1.374   5.433   6.830 -1.4245 -3.1000  2.3030
  156SAPE   H3S17299   1.204   5.405   6.801 -0.7355 -0.6476 -1.7295
  156SAPE   C2417300   1.296   5.539   6.650  0.6138  0.1503  0.9201
  156SAPE   H4R17301   1.239   5.617   6.705 -0.0951  1.1908 -1.1910
  156SAPE   H4S17302   1.226   5.521   6.566  0.9259 -2.1405  1.0824
  156SAPE   C2517303   1.425   5.596   6.598 -0.5392  0.3721  0.1560
  156SAPE   H5R17304   1.483   5.625   6.687  0.6201  0.9002 -0.7540
  156SAPE   C2617305   1.478   5.618   6.480 -0.9056 -0.1014  0.0501
  156SAPE   H6R17306   1.577   5.667   6.475 -0.6218 -0.5242  1.2835
  156SAPE   C2717307   1.421   5.580   6.346  0.6708 -0.0980  0.5315
  156SAPE   H7R17308   1.462   5.628   6.255 -1.7287 -0.1520 -0.6426
  156SAPE   H7S17309   1.320   5.627   6.343 -1.5788 -4.2538  2.1827
  156SAPE   C2817310   1.415   5.431   6.312 -0.2599  0.0351  0.3052
  156SAPE   H8R17311   1.508   5.373   6.299 -1.6532 -2.0730 -0.7972
  156SAPE   C2917312   1.300   5.367   6.288  1.0104 -0.5063  0.2940
  156SAPE   H9R17313   1.306   5.258   6.280 -1.5398 -0.8512  1.7223
  156SAPE  C21017314   1.164   5.435   6.292  0.9643  0.1547 -0.1484
  156SAPE  H10R17315   1.161   5.523   6.224 -0.2607  2.2854  2.4610
  156SAPE  H10S17316   1.144   5.470   6.396  0.5555 -2.5294  0.7453
  156SAPE  C21117317   1.046   5.342   6.270  0.1607 -0.2865  0.0434
  156SAPE  H11R17318   1.008   5.294   6.361  1.1582 -0.2475  0.4894
  156SAPE  C21217319   0.963   5.315   6.166  0.2897  0.2836 -0.4844
  156SAPE  H12R17320   0.881   5.249   6.198  0.5666  1.1373  2.2038
  156SAPE  C21317321   0.981   5.366   6.024  0.0022  0.2695 -0.2110
  156SAPE  H13R17322   0.981   5.272   5.965  2.0017 -0.4933  0.9160
  156SAPE  H13S17323   1.078   5.416   6.008  1.2649 -2.0396 -0.2491
  156SAPE  C21417324   0.862   5.448   5.975  0.7954  0.3603  0.0216
  156SAPE  H14R17325   0.808   5.509   6.049  1.1458  1.8135 -0.8811
  156SAPE  C21517326   0.820   5.446   5.847 -0.1206  0.1695 -0.3619
  156SAPE  H15R17327   0.755   5.528   5.813 -1.7178 -1.1518 -0.5906
  156SAPE  C21617328   0.893   5.385   5.733 -0.2317  0.3964 -0.1685
  156SAPE  H16R17329   0.902   5.278   5.762 -1.2153 -0.1953 -1.8985
  156SAPE  H16S17330   0.999   5.418   5.736 -0.3815  0.8272  0.9615
  156SAPE  C21717331   0.828   5.397   5.587  0.1155 -0.3263 -0.5160
  156SAPE  H17R17332   0.839   5.501   5.550 -6.8326  1.2551  0.5329
  156SAPE  H17S17333   0.718   5.394   5.599  0.1742 -3.1929 -0.0681
  156SAPE  C21817334   0.856   5.279   5.493  0.1400  0.2484  0.3445
  156SAPE  H18R17335   0.777   5.273   5.415  1.0547  0.9295 -0.6544
  156SAPE  H18S17336   0.860   5.188   5.557  0.5057 -0.6555 -0.9321
  156SAPE  C21917337   1.002   5.293   5.437  0.5006  0.4085 -0.6363
  156SAPE  H19R17338   1.025   5.212   5.364 -2.1695 -0.4716 -0.6185
  156SAPE  H19S17339   1.069   5.283   5.524  0.0760 -0.3675 -0.3894
  156SAPE  C22017340   1.032   5.427   5.365  0.0950 -0.3060  0.5558
  156SAPE  H20R17341   0.964   5.432   5.277  0.8276 -0.3177 -0.0209
  156SAPE  H20S17342   1.140   5.435   5.341 -0.2539 -0.4035 -1.1710
  156SAPE  H20T17343   1.006   5.518   5.423  1.0563 -0.1185  0.6989
  156SAPE   C3317344   1.915   5.001   6.466 -0.2815 -0.6943 -0.0925
  156SAPE   H3X17345   1.957   4.899   6.451 -0.8094 -0.9328  0.0343
  156SAPE   H3Y17346   1.935   5.040   6.568 -0.4098 -0.5150 -0.1369
  156SAPE   C3417347   1.944   5.093   6.346  0.1947 -0.9396 -0.0476
  156SAPE   H4X17348   2.051   5.117   6.362 -0.4002  1.1234  1.3361
  156SAPE   H4Y17349   1.883   5.185   6.358 -1.6598 -1.9113 -1.5573
  156SAPE   C3517350   1.923   5.033   6.205 -0.0016  0.2257 -0.2775
  156SAPE   H5X17351   1.815   5.007   6.204  0.6109 -2.7157  0.7816
  156SAPE   H5Y17352   1.972   4.936   6.182 -0.2841  0.1652 -0.6301
  156SAPE   C3617353   1.960   5.122   6.079  0.0433 -0.5358 -0.7001
  156SAPE   H6X17354   2.071   5.124   6.074  0.0765  1.9271 -0.4174
  156SAPE   H6Y17355   1.928   5.228   6.088 -1.5442 -0.9581 -1.0845
  156SAPE   C3717356   1.931   5.069   5.943  0.7032  0.1116  0.4987
  156SAPE   H7X17357   1.994   4.982   5.915  1.0686  1.1302 -2.1460
  156SAPE   H7Y17358   1.969   5.148   5.875  0.2298 -1.5345 -1.7744
  156SAPE   C3817359   1.783   5.042   5.915  0.5986  0.2499 -0.2924
  156SAPE   H8X17360   1.712   5.099   5.977  1.0083  0.0106  0.4087
  156SAPE   H8Y17361   1.763   4.936   5.943  0.7103 -0.9276 -4.0936
  156SAPE   C3917362   1.743   5.063   5.766 -0.9410  0.1178  0.0011
  156SAPE   H9X17363   1.732   5.174   5.763  3.1864  0.8018  2.5326
  156SAPE   H9Y17364   1.644   5.015   5.749 -1.1497  0.6690 -0.4002
  156SAPE  C31017365   1.843   5.029   5.653 -0.8432 -0.7588 -0.8025
  156SAPE  H10X17366   1.862   4.920   5.659 -1.8164 -1.0419 -2.3579
  156SAPE  H10Y17367   1.940   5.083   5.662 -0.4863 -1.1730 -2.0350
  156SAPE  C31117368   1.788   5.070   5.515 -0.2035 -0.5810 -0.4362
  156SAPE  H11X17369   1.746   5.172   5.529 -0.7795 -0.8835  0.1006
  156SAPE  H11Y17370   1.698   5.005   5.504 -0.4795 -0.2625 -0.0781
  156SAPE  C31217371   1.879   5.058   5.393  0.4704 -0.2028 -0.2760
  156SAPE  H12X17372   1.925   4.957   5.391  1.3214  0.1089  1.2423
  156SAPE  H12Y17373   1.953   5.142   5.396  0.6988 -0.4067 -0.1722
  156SAPE  C31317374   1.797   5.069   5.266  0.2410  0.9102  0.0962
  156SAPE  H13X17375   1.739   5.164   5.264 -2.4123 -0.6314 -1.6835
  156SAPE  H13Y17376   1.727   4.983   5.264  1.4874 -0.1299 -1.0770
  156SAPE  C31417377   1.884   5.055   5.144  0.0866 -0.6127 -0.1179
  156SAPE  H14X17378   1.917   4.949   5.136 -0.8786 -0.7940 -2.6714
  156SAPE  H14Y17379   1.976   5.116   5.146 -0.8302  1.3394 -4.6436
  156SAPE  C31517380   1.806   5.092   5.013 -0.7744  0.4634  0.3397
  156SAPE  H15X17381   1.770   5.196   5.027 -0.9769  0.5745 -0.8585
  156SAPE  H15Y17382   1.723   5.018   5.009  1.0514 -1.7253  1.1404
  156SAPE  C31617383   1.897   5.076   4.884  0.8176  0.0560  0.2382
  156SAPE  H16X17384   1.945   4.976   4.888  0.6275 -0.1057 -1.1562
  156SAPE  H16Y17385   1.977   5.153   4.883  1.9142 -1.0606 -1.1926
  156SAPE  C31717386   1.819   5.076   4.751  0.3801 -0.1336 -0.1120
  156SAPE  H17X17387   1.742   4.996   4.746 -1.4264  1.5686 -1.4901
  156SAPE  H17Y17388   1.890   5.063   4.667 -0.7382  0.3771 -1.1760
  156SAPE  C31817389   1.738   5.206   4.716 -0.4617 -0.0456  0.2026
  156SAPE  H18X17390   1.676   5.193   4.625 -2.2279  0.9493  1.2081
  156SAPE  H18Y17391   1.804   5.295   4.703 -0.1999 -0.3861 -0.9344
  156SAPE  H18Z17392   1.668   5.224   4.800  0.5080  1.3379  0.7469
  157SAPE     N17393   2.169   3.656   7.021 -0.2943 -0.2653 -0.8488
  157SAPE   HN117394   2.183   3.693   7.118 -0.0158  0.9018 -1.3103
  157SAPE   HN217395   2.263   3.654   6.977  1.7560  2.1188  2.8430
  157SAPE   HN317396   2.118   3.724   6.961  0.9233 -0.7342 -2.5067
  157SAPE   C1217397   2.109   3.522   7.031 -0.0789  0.5291  0.4773
  157SAPE  H12A17398   2.179   3.463   7.094 -0.0844  2.5081  2.4371
  157SAPE  H12B17399   2.104   3.488   6.925  0.8726  2.3666 -0.2019
  157SAPE   C1117400   1.968   3.524   7.081 -0.0116  0.8064 -0.4049
  157SAPE  H11A17401   1.955   3.599   7.163  0.3407 -0.5597  0.9400
  157SAPE  H11B17402   1.949   3.425   7.127  0.3845  0.9985  0.1828
  157SAPE     P17403   1.763   3.452   6.939 -0.0067 -0.0030  0.4631
  157SAPE   O1317404   1.806   3.310   6.944 -0.7399 -0.0009 -0.0797
  157SAPE   O1417405   1.638   3.488   6.999  0.0241  0.2320  0.0263
  157SAPE   O1217406   1.870   3.554   6.981  0.4624 -0.7565 -0.2497
  157SAPE   O1117407   1.739   3.484   6.789  0.3067 -1.0631 -0.3036
  157SAPE    C117408   1.842   3.530   6.698  0.3476  0.7306 -0.0930
  157SAPE    HA17409   1.887   3.623   6.739 -0.6215  0.6268  1.2933
  157SAPE    HB17410   1.923   3.455   6.711  1.7532  1.9465 -1.5080
  157SAPE    C217411   1.802   3.536   6.546  0.0936  0.1152  0.1048
  157SAPE    HS17412   1.701   3.579   6.534  0.5395  1.9389  2.2014
  157SAPE   O2117413   1.816   3.405   6.490  0.0487 -0.0456 -0.6122
  157SAPE   C2117414   1.771   3.387   6.372 -0.9339  0.1885  0.0227
  157SAPE   O2217415   1.707   3.466   6.303 -0.2659  0.1028 -0.2072
  157SAPE   C2217416   1.809   3.238   6.335 -0.1210 -0.4385 -0.5728
  157SAPE   H2R17417   1.749   3.179   6.408  3.2170 -2.4452  0.7605
  157SAPE   H2S17418   1.769   3.220   6.233  1.2807 -1.3396 -0.9983
  157SAPE    C317419   1.910   3.630   6.483  0.1598  0.0777 -0.2398
  157SAPE    HX17420   2.010   3.585   6.505  0.5683  1.8627  1.8428
  157SAPE    HY17421   1.913   3.728   6.534  0.4722 -1.0142  1.9715
  157SAPE   O3117422   1.911   3.640   6.336  0.0878 -0.6470 -0.1194
  157SAPE   C3117423   1.847   3.742   6.283  1.0714  0.2219 -0.2149
  157SAPE   O3217424   1.803   3.836   6.349 -0.0703 -0.0551 -0.0421
  157SAPE   C3217425   1.829   3.733   6.132 -0.0020 -0.2193  0.1589
  157SAPE   H2X17426   1.720   3.749   6.114  0.1936  0.2401 -0.6310
  157SAPE   H2Y17427   1.844   3.625   6.108 -1.8540 -0.3935 -0.4395
  157SAPE   C2317428   1.962   3.211   6.343  0.0058 -0.3619 -0.1279
  157SAPE   H3R17429   1.990   3.104   6.333 -1.8012 -0.7386 -1.4914
  157SAPE   H3S17430   1.996   3.244   6.444  1.0772  0.6622 -0.8044
  157SAPE   C2417431   2.039   3.305   6.249 -1.0682  0.2948  0.1732
  157SAPE   H4R17432   2.131   3.344   6.298 -0.0050  0.0371 -1.5124
  157SAPE   H4S17433   1.985   3.402   6.242 -2.5701 -0.5200  0.1010
  157SAPE   C2517434   2.088   3.230   6.126  0.3023  0.0609  0.1704
  157SAPE   H5R17435   2.169   3.159   6.148  0.3414 -0.3736 -1.3100
  157SAPE   C2617436   2.044   3.230   5.998 -0.4720 -0.7170  0.0560
  157SAPE   H6R17437   2.099   3.164   5.930  0.5537 -1.3316  1.4472
  157SAPE   C2717438   1.941   3.328   5.944 -0.1576  0.5393 -0.6750
  157SAPE   H7R17439   1.983   3.399   5.869 -0.0392  1.9293  0.6485
  157SAPE   H7S17440   1.894   3.391   6.023  0.6399  1.0907 -0.6361
  157SAPE   C2817441   1.833   3.238   5.883 -0.6317 -0.1984 -0.1748
  157SAPE   H8R17442   1.781   3.175   5.957 -0.0677  1.0866  1.3726
  157SAPE   C2917443   1.791   3.239   5.750  0.3618  0.2498 -0.3554
  157SAPE   H9R17444   1.718   3.167   5.710  0.4189  0.8019 -1.4870
  157SAPE  C21017445   1.843   3.329   5.643 -0.7099 -0.0475 -0.6269
  157SAPE  H10R17446   1.894   3.418   5.686 -0.4507 -0.1103 -0.8013
  157SAPE  H10S17447   1.766   3.363   5.571  0.3490  3.0122 -0.4755
  157SAPE  C21117448   1.947   3.264   5.555  0.6904  0.3012 -0.0049
  157SAPE  H11R17449   1.921   3.161   5.529 -0.0809 -0.0780  2.0366
  157SAPE  C21217450   2.050   3.323   5.497  0.0476 -0.2752  0.0323
  157SAPE  H12R17451   2.114   3.261   5.434  2.0319  2.1121 -0.4852
  157SAPE  C21317452   2.105   3.467   5.512 -0.0884  0.4725 -0.0897
  157SAPE  H13R17453   2.205   3.473   5.465  0.5715  0.8971  1.3133
  157SAPE  H13S17454   2.126   3.482   5.620 -5.2650  0.3114  1.1969
  157SAPE  C21417455   2.015   3.568   5.449  0.2061 -0.2446  0.1881
  157SAPE  H14R17456   1.916   3.553   5.493  1.4445 -4.1498  2.1604
  157SAPE  C21517457   2.045   3.646   5.344  0.4443 -0.2014  0.0257
  157SAPE  H15R17458   1.972   3.720   5.307  1.6304  1.5943  1.0794
  157SAPE  C21617459   2.170   3.653   5.266 -0.2601  0.1130  0.0678
  157SAPE  H16R17460   2.245   3.590   5.318 -1.6101 -1.4009  0.2569
  157SAPE  H16S17461   2.227   3.748   5.262 -0.2437  0.0695 -1.1410
  157SAPE  C21717462   2.148   3.605   5.122  0.1030 -0.5304  1.0793
  157SAPE  H17R17463   2.112   3.689   5.059  3.0609  0.1363  0.0784
  157SAPE  H17S17464   2.081   3.517   5.122  1.1884 -1.3971 -0.3210
  157SAPE  C21817465   2.282   3.555   5.062 -0.1748 -0.1073  0.1319
  157SAPE  H18R17466   2.322   3.472   5.123 -0.4412  0.6328  1.3429
  157SAPE  H18S17467   2.348   3.644   5.056 -1.2408  0.7329  0.5152
  157SAPE  C21917468   2.275   3.519   4.907  0.1359 -0.3838  0.3770
  157SAPE  H19R17469   2.197   3.445   4.883 -2.8228  2.0441  1.7617
  157SAPE  H19S17470   2.364   3.469   4.864 -0.3793 -1.3531  0.4232
  157SAPE  C22017471   2.237   3.641   4.822 -0.3668 -0.2785  0.0041
  157SAPE  H20R17472   2.326   3.706   4.832  0.4387 -1.5940  2.0585
  157SAPE  H20S17473   2.147   3.691   4.864 -1.0373 -0.4151 -1.2034
  157SAPE  H20T17474   2.218   3.619   4.714 -2.3517  0.0911  0.2263
  157SAPE   C3317475   1.889   3.842   6.049  0.1846 -0.0800 -0.2302
  157SAPE   H3X17476   1.995   3.826   6.021  1.1938  2.7710  1.5634
  157SAPE   H3Y17477   1.897   3.940   6.100  0.3537 -0.3191  0.2195
  157SAPE   C3417478   1.808   3.881   5.923 -0.1784  0.4395  1.0662
  157SAPE   H4X17479   1.862   3.969   5.884 -2.0243  0.9466 -0.4941
  157SAPE   H4Y17480   1.710   3.905   5.969 -0.7110  0.8850 -0.2634
  157SAPE   C3517481   1.800   3.762   5.820 -0.0751  0.0187  0.3431
  157SAPE   H5X17482   1.726   3.682   5.836  2.7026 -2.5659  1.1246
  157SAPE   H5Y17483   1.897   3.708   5.814 -1.5911 -2.8007  0.0515
  157SAPE   C3617484   1.783   3.821   5.682 -0.2939 -0.5169  0.7530
  157SAPE   H6X17485   1.800   3.749   5.599  1.9195  0.9103 -0.1240
  157SAPE   H6Y17486   1.853   3.907   5.672  0.3437 -1.2715 -2.5061
  157SAPE   C3717487   1.646   3.882   5.664  0.0189  0.1789  0.9371
  157SAPE   H7X17488   1.641   3.964   5.589 -2.4261 -0.3119  0.4597
  157SAPE   H7Y17489   1.607   3.933   5.754 -0.8930  0.7687  0.2325
  157SAPE   C3817490   1.540   3.775   5.644  0.1386  0.8037 -0.0271
  157SAPE   H8X17491   1.562   3.681   5.699  0.0111 -0.9674 -2.8281
  157SAPE   H8Y17492   1.540   3.755   5.535 -1.4342 -0.4767  0.1691
  157SAPE   C3917493   1.394   3.811   5.682  0.0602 -0.9144  0.2002
  157SAPE   H9X17494   1.387   3.811   5.793  2.1735  0.5489  0.3853
  157SAPE   H9Y17495   1.330   3.725   5.653 -0.5335 -0.4896  0.2236
  157SAPE  C31017496   1.341   3.939   5.608  0.1443  0.4708 -0.6018
  157SAPE  H10X17497   1.409   4.025   5.620 -0.2955  1.5150 -4.3455
  157SAPE  H10Y17498   1.241   3.967   5.648 -0.9087 -1.2140 -1.8796
  157SAPE  C31117499   1.327   3.900   5.455 -0.4096 -0.7982 -0.5034
  157SAPE  H11X17500   1.286   3.798   5.441 -2.2678 -0.1549  0.0374
  157SAPE  H11Y17501   1.434   3.899   5.425 -0.0880  0.4485  0.4934
  157SAPE  C31217502   1.256   4.011   5.377  0.5171  0.1619  0.4642
  157SAPE  H12X17503   1.326   4.085   5.333  0.1797 -0.1392 -0.6054
  157SAPE  H12Y17504   1.179   4.058   5.442 -0.8102 -0.8497 -0.3298
  157SAPE  C31317505   1.186   3.945   5.257  0.4082  0.1867 -0.4664
  157SAPE  H13X17506   1.132   3.856   5.296  2.7147 -1.8280 -1.6249
  157SAPE  H13Y17507   1.268   3.914   5.188  0.6287 -0.4144  0.0602
  157SAPE  C31417508   1.094   4.046   5.186 -0.1235  0.2570 -0.5536
  157SAPE  H14X17509   1.025   4.087   5.263  0.2865 -2.0037  1.1435
  157SAPE  H14Y17510   1.040   3.983   5.111 -0.8801  0.0517  0.1440
  157SAPE  C31517511   1.174   4.149   5.105 -0.3963  0.1677  0.6928
  157SAPE  H15X17512   1.271   4.116   5.062 -1.2188  2.2542 -3.3028
  157SAPE  H15Y17513   1.197   4.232   5.175 -0.1093  0.0664  0.7205
  157SAPE  C31617514   1.084   4.208   4.989 -0.1735 -0.4409 -0.3812
  157SAPE  H16X17515   1.109   4.313   4.963  1.6828 -0.7981 -0.1687
  157SAPE  H16Y17516   0.989   4.186   5.041  0.4278 -2.1151  0.0978
  157SAPE  C31717517   1.081   4.128   4.856 -0.5611  0.3889  0.1834
  157SAPE  H17X17518   0.985   4.159   4.809 -0.5586  2.7068  1.5387
  157SAPE  H17Y17519   1.083   4.018   4.871 -0.5300 -0.1716 -3.1487
  157SAPE  C31817520   1.200   4.168   4.768  0.0144 -0.1675 -0.6559
  157SAPE  H18X17521   1.205   4.115   4.671  0.6652  0.1799 -0.8194
  157SAPE  H18Y17522   1.294   4.160   4.828  0.2406  0.1620 -0.9660
  157SAPE  H18Z17523   1.194   4.276   4.746 -2.7986 -0.1123 -0.0403
  158SAPE     N17524   2.632   2.259   6.488  0.4660 -0.4142 -0.5674
  158SAPE   HN117525   2.656   2.166   6.449  3.5870  0.4461 -0.9778
  158SAPE   HN217526   2.698   2.290   6.563  0.7636  0.7786 -1.3051
  158SAPE   HN317527   2.536   2.254   6.526  0.9482 -0.3974  0.7102
  158SAPE   C1217528   2.628   2.374   6.394  0.2229 -0.2864  0.0768
  158SAPE  H12A17529   2.566   2.332   6.312 -1.0009  0.2274  0.7277
  158SAPE  H12B17530   2.733   2.393   6.361 -0.2492  1.4116 -0.5672
  158SAPE   C1117531   2.570   2.501   6.459  0.0748  0.5542  0.2089
  158SAPE  H11A17532   2.467   2.497   6.502  0.2376  0.1975  0.5720
  158SAPE  H11B17533   2.555   2.571   6.374  1.4219 -0.2321 -0.7134
  158SAPE     P17534   2.697   2.712   6.558  0.1217 -0.2933  0.0612
  158SAPE   O1317535   2.574   2.784   6.602 -0.4187 -0.4820 -0.0220
  158SAPE   O1417536   2.810   2.730   6.651  0.1227  0.4086 -0.5571
  158SAPE   O1217537   2.662   2.558   6.557  0.2768 -0.1823  0.0342
  158SAPE   O1117538   2.735   2.742   6.408  0.3922  0.4522 -0.0673
  158SAPE    C117539   2.845   2.685   6.334  0.0900  0.3843  0.4512
  158SAPE    HA17540   2.916   2.632   6.400 -0.4916  0.8830  1.4966
  158SAPE    HB17541   2.811   2.609   6.261  2.6358  0.3907 -0.8688
  158SAPE    C217542   2.901   2.800   6.246 -0.1714  0.1025  0.0572
  158SAPE    HS17543   2.943   2.866   6.325 -5.1418  1.9115  1.5632
  158SAPE   O2117544   2.800   2.864   6.173 -0.7768  0.3728  0.1964
  158SAPE   C2117545   2.770   2.983   6.212 -0.4839 -0.0597 -0.0525
  158SAPE   O2217546   2.808   3.035   6.318  0.0504  0.0366  0.1544
  158SAPE   C2217547   2.698   3.055   6.101  0.3801  0.5280 -0.5778
  158SAPE   H2R17548   2.761   3.038   6.012 -0.6120 -0.6468 -1.0744
  158SAPE   H2S17549   2.597   3.011   6.087  1.4153 -1.9539 -0.6718
  158SAPE    C317550   3.004   2.751   6.147  0.2318  0.1211 -0.2429
  158SAPE    HX17551   2.939   2.694   6.077 -0.1979  0.1009  0.1641
  158SAPE    HY17552   3.076   2.685   6.198 -1.1446 -0.0991  1.4921
  158SAPE   O3117553   3.048   2.876   6.077  0.7196  0.2315  0.6158
  158SAPE   C3117554   3.174   2.864   6.030  0.0443  0.1457  0.0864
  158SAPE   O3217555   3.239   2.763   6.041 -0.2454  0.0306  0.3098
  158SAPE   C3217556   3.225   2.994   5.954  0.5682  0.1012  0.1365
  158SAPE   H2X17557   3.325   2.968   5.913 -0.9310 -2.3421 -2.3527
  158SAPE   H2Y17558   3.233   3.073   6.032  1.7158  1.5931 -1.4104
  158SAPE   C2317559   2.681   3.205   6.120 -0.3121  0.0397 -0.4274
  158SAPE   H3R17560   2.784   3.243   6.135 -0.3084  0.5003 -1.5379
  158SAPE   H3S17561   2.625   3.209   6.216 -1.2813 -3.7843 -0.6694
  158SAPE   C2417562   2.610   3.286   6.012  0.4648  1.3138 -0.0179
  158SAPE   H4R17563   2.647   3.251   5.913 -1.0049  0.0969 -0.1671
  158SAPE   H4S17564   2.645   3.392   6.012  1.0325  1.1339  0.7738
  158SAPE   C2517565   2.458   3.274   6.012 -0.4865 -0.3224 -0.0934
  158SAPE   H5R17566   2.410   3.267   6.111 -1.7919 -0.2508 -0.6984
  158SAPE   C2617567   2.386   3.257   5.899  0.4852 -0.2873  0.0691
  158SAPE   H6R17568   2.277   3.266   5.901  0.4843 -0.3686  0.5107
  158SAPE   C2717569   2.441   3.249   5.756  0.1340  0.4859 -0.0604
  158SAPE   H7R17570   2.533   3.307   5.737  1.3235 -0.0246  3.3302
  158SAPE   H7S17571   2.359   3.284   5.690 -1.0892  0.8522  1.5625
  158SAPE   C2817572   2.468   3.105   5.725  0.2021  0.3077 -0.6312
  158SAPE   H8R17573   2.480   3.037   5.811 -1.4012  1.0662  0.2342
  158SAPE   C2917574   2.457   3.043   5.612 -0.4230  0.5365  0.5078
  158SAPE   H9R17575   2.477   2.935   5.611 -0.4186  0.5156 -2.0214
  158SAPE  C21017576   2.418   3.090   5.475  0.4691  0.1877 -0.7848
  158SAPE  H10R17577   2.434   3.198   5.455 -0.8838  0.1310 -2.4408
  158SAPE  H10S17578   2.307   3.083   5.479  0.5545 -0.4360  1.3067
  158SAPE  C21117579   2.469   3.003   5.359 -0.1075 -0.4559 -0.2941
  158SAPE  H11R17580   2.469   2.897   5.389 -1.8797  0.0434  1.7170
  158SAPE  C21217581   2.493   3.035   5.233 -0.2062  0.0651 -0.2344
  158SAPE  H12R17582   2.512   2.957   5.157 -2.1600  1.5186 -2.3320
  158SAPE  C21317583   2.466   3.169   5.172  0.4033  0.4781 -0.1998
  158SAPE  H13R17584   2.471   3.243   5.254 -1.9486  1.2083 -0.6543
  158SAPE  H13S17585   2.362   3.163   5.133  0.0786 -1.7107  0.8629
  158SAPE  C21417586   2.549   3.211   5.055  0.1900 -0.5016 -0.1671
  158SAPE  H14R17587   2.633   3.274   5.089  0.5692 -0.9390 -0.2830
  158SAPE  C21517588   2.545   3.169   4.932  0.4754  0.7024  0.0885
  158SAPE  H15R17589   2.611   3.222   4.862  0.3359  0.8935  0.1015
  158SAPE  C21617590   2.431   3.081   4.883  0.3810  0.6350  0.1932
  158SAPE  H16R17591   2.361   3.152   4.834  2.4711  1.0252 -2.4726
  158SAPE  H16S17592   2.387   3.017   4.962 -1.1811  1.2774 -0.1180
  158SAPE  C21717593   2.471   2.990   4.766  0.3395 -0.3907 -0.0331
  158SAPE  H17R17594   2.551   2.923   4.804  1.3058  0.2819 -0.8154
  158SAPE  H17S17595   2.525   3.048   4.687 -0.3970 -0.1535 -0.3688
  158SAPE  C21817596   2.363   2.915   4.702  1.0909  0.1689  0.2341
  158SAPE  H18R17597   2.286   2.989   4.670  2.4845  0.8517 -1.7402
  158SAPE  H18S17598   2.314   2.849   4.776  0.3052 -0.3713 -0.7479
  158SAPE  C21917599   2.412   2.845   4.572  0.2686  0.4677  0.3383
  158SAPE  H19R17600   2.443   2.917   4.494 -0.2062  0.9329  0.5737
  158SAPE  H19S17601   2.326   2.796   4.522  1.5585 -0.8156 -0.6849
  158SAPE  C22017602   2.529   2.753   4.599  0.0749 -0.4368  0.0872
  158SAPE  H20R17603   2.559   2.699   4.506  0.9003  0.5742 -0.2528
  158SAPE  H20S17604   2.491   2.673   4.667  1.6721 -0.0723  1.4863
  158SAPE  H20T17605   2.616   2.801   4.649  0.3009 -1.0938  0.3512
  158SAPE   C3317606   3.134   3.027   5.834 -0.1854 -0.0571  0.6209
  158SAPE   H3X17607   3.178   3.118   5.788 -1.3820  1.0170  1.5173
  158SAPE   H3Y17608   3.035   3.045   5.882 -0.3391 -1.8051  1.0364
  158SAPE   C3417609   3.136   2.915   5.725  0.0944  0.0690 -0.0483
  158SAPE   H4X17610   3.066   2.830   5.743  0.1997 -1.2921 -4.8311
  158SAPE   H4Y17611   3.243   2.883   5.726  0.2747  0.4259 -2.4996
  158SAPE   C3517612   3.124   2.976   5.587 -0.3030 -1.1873 -0.0873
  158SAPE   H5X17613   3.186   3.067   5.574  0.0530 -1.3225  0.6432
  158SAPE   H5Y17614   3.016   3.003   5.578 -0.2597 -0.7964  0.4692
  158SAPE   C3617615   3.166   2.875   5.477 -0.1189 -0.1038 -0.9286
  158SAPE   H6X17616   3.082   2.807   5.451 -1.4296  1.4732 -0.9676
  158SAPE   H6Y17617   3.261   2.824   5.503  0.1828  0.3548 -1.1147
  158SAPE   C3717618   3.192   2.941   5.349 -0.1123  0.0717  0.3156
  158SAPE   H7X17619   3.258   3.030   5.350 -0.1079  0.1508 -1.8929
  158SAPE   H7Y17620   3.106   2.992   5.301  0.2387 -1.3984 -2.0262
  158SAPE   C3817621   3.245   2.844   5.246  0.3410  0.2789  0.5056
  158SAPE   H8X17622   3.171   2.766   5.218  0.4523 -0.8211  3.0249
  158SAPE   H8Y17623   3.332   2.792   5.290  1.1377  1.1052 -0.0549
  158SAPE   C3917624   3.284   2.912   5.119  0.2222  0.5087 -0.2330
  158SAPE   H9X17625   3.377   2.968   5.142  0.7361 -0.9387  1.4000
  158SAPE   H9Y17626   3.198   2.973   5.082  0.6731  1.9415  0.9818
  158SAPE  C31017627   3.300   2.802   5.011  0.2126  0.6185  0.2723
  158SAPE  H10X17628   3.205   2.744   5.006 -0.8830  2.3561  0.0745
  158SAPE  H10Y17629   3.386   2.732   5.018 -1.1060 -1.1474 -0.3799
  158SAPE  C31117630   3.331   2.870   4.877 -0.1993 -0.3326 -0.5428
  158SAPE  H11X17631   3.399   2.957   4.887 -2.4733  1.5952 -0.7787
  158SAPE  H11Y17632   3.240   2.922   4.839  1.5172  1.4510 -2.4917
  158SAPE  C31217633   3.392   2.780   4.767 -0.6776  1.0055  0.8094
  158SAPE  H12X17634   3.332   2.686   4.766 -0.9330  1.1605 -0.2651
  158SAPE  H12Y17635   3.501   2.764   4.784 -1.0093 -1.8091  0.7800
  158SAPE  C31317636   3.383   2.852   4.628 -0.5590  0.3414  0.4236
  158SAPE  H13X17637   3.281   2.895   4.630 -0.4596  0.6997  3.5165
  158SAPE  H13Y17638   3.389   2.781   4.543  0.7506 -0.4410  1.1416
  158SAPE  C31417639   3.493   2.966   4.614  0.1604 -0.3835 -0.6299
  158SAPE  H14X17640   3.587   2.920   4.651  0.2363  1.2826  1.4134
  158SAPE  H14Y17641   3.472   3.047   4.686 -2.4066 -1.7141  0.2212
  158SAPE  C31517642   3.500   3.035   4.477 -0.5008  0.4250  0.3805
  158SAPE  H15X17643   3.534   2.963   4.399  1.0087  2.6760 -1.1912
  158SAPE  H15Y17644   3.576   3.115   4.489  1.2687 -1.3965  2.1597
  158SAPE  C31617645   3.372   3.074   4.404  0.1656 -0.0023  0.3314
  158SAPE  H16X17646   3.315   3.157   4.452 -1.6461 -0.2715 -1.2801
  158SAPE  H16Y17647   3.302   2.989   4.400 -0.7700  0.7948 -2.6552
  158SAPE  C31717648   3.400   3.136   4.266 -0.4470  0.3747  0.8802
  158SAPE  H17X17649   3.460   3.068   4.201  3.4799  1.4957  2.9852
  158SAPE  H17Y17650   3.471   3.222   4.274 -1.2589  1.0301  1.1013
  158SAPE  C31817651   3.275   3.190   4.192 -0.0396  0.9191  0.3021
  158SAPE  H18X17652   3.298   3.238   4.094  0.2037 -1.0048 -0.6182
  158SAPE  H18Y17653   3.226   3.262   4.261  1.1930  2.7022 -0.5800
  158SAPE  H18Z17654   3.212   3.100   4.176  1.4433 -0.2332  0.7566
  159SAPE     N17655   2.165   1.122   2.305  0.4485 -0.1637 -0.5547
  159SAPE   HN117656   2.151   1.032   2.255  0.7994  0.7664 -2.4293
  159SAPE   HN217657   2.101   1.137   2.386 -0.4168  2.5596 -1.6077
  159SAPE   HN317658   2.142   1.204   2.245  1.8274  1.2755  0.8038
  159SAPE   C1217659   2.305   1.127   2.370  0.7693  0.0744  0.9761
  159SAPE  H12A17660   2.383   1.103   2.295 -0.9569  1.7714 -1.5299
  159SAPE  H12B17661   2.308   1.045   2.446  0.4388 -3.9214 -2.9057
  159SAPE   C1117662   2.322   1.259   2.438  0.1829  0.3156 -0.0815
  159SAPE  H11A17663   2.416   1.253   2.498  0.2571 -1.5248 -0.3244
  159SAPE  H11B17664   2.241   1.274   2.512  0.5120 -0.5289  0.4681
  159SAPE     P17665   2.431   1.424   2.264 -0.6033 -0.2888  0.0665
  159SAPE   O1317666   2.531   1.330   2.211 -0.4408  0.3692  0.2019
  159SAPE   O1417667   2.372   1.523   2.171  0.1877  0.0243  0.2513
  159SAPE   O1217668   2.314   1.362   2.345  0.1233 -0.2106 -0.4913
  159SAPE   O1117669   2.513   1.508   2.379 -0.2302  0.0244  0.5097
  159SAPE    C117670   2.445   1.579   2.490 -0.1742  0.8827  0.1999
  159SAPE    HA17671   2.335   1.578   2.474 -0.2912  0.8610  1.0071
  159SAPE    HB17672   2.463   1.531   2.589 -0.1318 -2.1607 -1.1543
  159SAPE    C217673   2.495   1.719   2.499 -0.0818 -0.3071  0.1263
  159SAPE    HS17674   2.491   1.753   2.393  0.4045 -0.2363  0.1315
  159SAPE   O2117675   2.633   1.719   2.555 -0.2207 -0.0469  0.3447
  159SAPE   C2117676   2.710   1.823   2.513 -0.4880 -0.1252 -0.8311
  159SAPE   O2217677   2.672   1.901   2.429  0.5992  0.0253 -0.3301
  159SAPE   C2217678   2.835   1.822   2.606 -0.1074 -0.0004 -0.0085
  159SAPE   H2R17679   2.814   1.771   2.703  0.8132  2.7972  1.7526
  159SAPE   H2S17680   2.916   1.777   2.544 -0.2685 -0.4307  0.0841
  159SAPE    C317681   2.400   1.823   2.581 -0.2700 -0.0097 -0.1150
  159SAPE    HX17682   2.299   1.827   2.533 -0.4572 -0.8652  0.1951
  159SAPE    HY17683   2.435   1.928   2.574  0.9530 -0.4132 -0.3018
  159SAPE   O3117684   2.387   1.774   2.716 -0.2430  0.2754 -0.2888
  159SAPE   C3117685   2.490   1.813   2.791  0.1193  0.2759 -0.3848
  159SAPE   O3217686   2.568   1.902   2.766  0.0226 -0.4498 -0.3480
  159SAPE   C3217687   2.488   1.726   2.920  0.4909 -0.2766  0.3161
  159SAPE   H2X17688   2.427   1.636   2.900 -0.6202  0.8964 -2.0001
  159SAPE   H2Y17689   2.439   1.791   2.996  1.8485 -0.9737  1.8358
  159SAPE   C2317690   2.870   1.967   2.648 -0.2309 -0.5697  0.4155
  159SAPE   H3R17691   2.787   2.010   2.707  1.1133  1.4696  0.9100
  159SAPE   H3S17692   2.899   2.018   2.554  5.1659 -0.6285  1.6948
  159SAPE   C2417693   2.991   1.965   2.744  0.4312 -0.3828  0.3116
  159SAPE   H4R17694   3.071   1.901   2.700  0.2533 -1.0844  0.9782
  159SAPE   H4S17695   2.960   1.911   2.836 -0.6392  0.3950  0.4225
  159SAPE   C2517696   3.038   2.106   2.775 -0.3278 -0.2856 -0.0222
  159SAPE   H5R17697   3.123   2.132   2.711  0.5969 -3.8675 -0.4649
  159SAPE   C2617698   2.983   2.192   2.864  0.1934  0.0314  0.3346
  159SAPE   H6R17699   3.021   2.295   2.871 -1.1903  0.5818  0.1033
  159SAPE   C2717700   2.852   2.151   2.933 -0.4803 -0.3352 -0.6849
  159SAPE   H7R17701   2.843   2.040   2.934  2.0245 -0.5787 -0.4078
  159SAPE   H7S17702   2.765   2.197   2.881  0.4378  0.6537 -1.3748
  159SAPE   C2817703   2.875   2.203   3.073 -0.2126 -0.0054 -0.2718
  159SAPE   H8R17704   2.902   2.309   3.078 -0.8463  0.4167 -3.4613
  159SAPE   C2917705   2.846   2.138   3.187 -0.2039  0.6237 -0.1431
  159SAPE   H9R17706   2.852   2.186   3.286 -2.4510  0.1027  0.3132
  159SAPE  C21017707   2.810   1.995   3.207 -0.4022 -0.4924  0.0652
  159SAPE  H10R17708   2.835   1.971   3.312 -0.1309  0.1264  0.1418
  159SAPE  H10S17709   2.875   1.918   3.159  2.1088  1.7743 -0.4570
  159SAPE  C21117710   2.664   1.971   3.169  0.4177  0.2105 -0.2593
  159SAPE  H11R17711   2.637   1.959   3.063 -0.0678 -3.7654  0.1400
  159SAPE  C21217712   2.569   1.916   3.248 -0.1735 -0.0902 -0.3211
  159SAPE  H12R17713   2.470   1.902   3.202 -1.1181 -1.3085  1.9399
  159SAPE  C21317714   2.575   1.897   3.397  0.0126  0.3564  0.3812
  159SAPE  H13R17715   2.476   1.919   3.442 -1.4634 -1.3714 -1.8028
  159SAPE  H13S17716   2.653   1.965   3.438  1.2261 -0.5974 -0.2646
  159SAPE  C21417717   2.614   1.747   3.424 -0.6584 -0.0555 -0.2614
  159SAPE  H14R17718   2.574   1.673   3.354 -0.5051 -0.1264 -0.2723
  159SAPE  C21517719   2.691   1.706   3.529 -0.6594 -0.6971  0.0298
  159SAPE  H15R17720   2.704   1.597   3.535  0.3677 -0.5543  0.7630
  159SAPE  C21617721   2.746   1.798   3.637 -0.3119  0.0901  1.1302
  159SAPE  H16R17722   2.823   1.860   3.586 -0.0995 -0.6469  0.5432
  159SAPE  H16S17723   2.801   1.726   3.702 -1.2903 -2.0826 -0.3081
  159SAPE  C21717724   2.664   1.879   3.739 -0.0879  0.0248 -0.2571
  159SAPE  H17R17725   2.588   1.938   3.684 -1.9846 -0.6899  1.4809
  159SAPE  H17S17726   2.734   1.946   3.795 -1.9806  0.9713  1.0996
  159SAPE  C21817727   2.587   1.794   3.835 -0.1986  0.3277  0.1888
  159SAPE  H18R17728   2.530   1.725   3.769  0.5249  0.3456 -0.4674
  159SAPE  H18S17729   2.506   1.850   3.887 -1.5565  0.2660 -1.7520
  159SAPE  C21917730   2.667   1.704   3.937 -0.8455  0.0592  0.0775
  159SAPE  H19R17731   2.733   1.771   3.996 -1.1131  0.9703 -0.6291
  159SAPE  H19S17732   2.742   1.635   3.892 -0.0605  1.2813 -0.5434
  159SAPE  C22017733   2.576   1.627   4.040 -0.4523  0.5823 -0.2993
  159SAPE  H20R17734   2.511   1.701   4.091  1.0803  0.2627  2.3048
  159SAPE  H20S17735   2.635   1.564   4.110 -1.4273 -2.9655 -2.4218
  159SAPE  H20T17736   2.520   1.553   3.979  4.7319 -1.0278 -3.8309
  159SAPE   C3317737   2.631   1.675   2.962  0.6034 -0.3509  0.5480
  159SAPE   H3X17738   2.703   1.753   2.995  1.2743 -0.7895  0.1297
  159SAPE   H3Y17739   2.670   1.619   2.875 -0.2220  1.2140 -0.8962
  159SAPE   C3417740   2.633   1.576   3.087 -0.1678 -0.2468 -0.2752
  159SAPE   H4X17741   2.555   1.611   3.158  1.0392  0.3367  0.7906
  159SAPE   H4Y17742   2.731   1.572   3.139  0.0743  0.5505 -0.6483
  159SAPE   C3517743   2.600   1.432   3.047  0.2848 -0.0649 -0.0136
  159SAPE   H5X17744   2.684   1.396   2.983  0.5069 -0.1850  0.3448
  159SAPE   H5Y17745   2.506   1.451   2.991  0.1425  1.4276  0.7039
  159SAPE   C3617746   2.561   1.347   3.168 -0.4353 -0.2130  0.2173
  159SAPE   H6X17747   2.515   1.248   3.143  1.4595 -1.1619  0.3236
  159SAPE   H6Y17748   2.482   1.403   3.223 -1.3437  0.3675 -1.5730
  159SAPE   C3717749   2.673   1.320   3.273 -0.1878 -0.8039 -0.6295
  159SAPE   H7X17750   2.706   1.422   3.303  0.1901 -0.9262 -0.6208
  159SAPE   H7Y17751   2.762   1.274   3.224  0.8313  1.6501 -1.2952
  159SAPE   C3817752   2.629   1.238   3.391 -0.1160 -0.1970 -0.0325
  159SAPE   H8X17753   2.719   1.220   3.454 -0.4291  1.3356  0.9033
  159SAPE   H8Y17754   2.587   1.138   3.367 -0.1885 -0.3163  0.5721
  159SAPE   C3917755   2.537   1.310   3.492  0.5656 -0.0045  0.2299
  159SAPE   H9X17756   2.433   1.324   3.456  0.0334  0.4378  1.8985
  159SAPE   H9Y17757   2.581   1.404   3.531 -2.1090  0.7201  1.7466
  159SAPE  C31017758   2.514   1.237   3.623 -0.4220 -0.2155 -0.3931
  159SAPE  H10X17759   2.610   1.205   3.669  0.7906  0.6321 -2.2165
  159SAPE  H10Y17760   2.463   1.141   3.598 -0.4991  0.0520 -1.3109
  159SAPE  C31117761   2.423   1.308   3.723 -0.9205  0.8081 -0.0658
  159SAPE  H11X17762   2.318   1.277   3.704 -0.6872  0.5131 -0.9421
  159SAPE  H11Y17763   2.449   1.416   3.715 -1.1448  0.8198 -0.7485
  159SAPE  C31217764   2.437   1.268   3.869 -0.2959 -0.4283 -0.5649
  159SAPE  H12X17765   2.376   1.325   3.942  0.1449 -0.6519 -0.0164
  159SAPE  H12Y17766   2.543   1.282   3.900 -0.8375  1.5876  0.6058
  159SAPE  C31317767   2.401   1.128   3.890  0.2501  0.4141 -0.6617
  159SAPE  H13X17768   2.474   1.054   3.852 -1.5629 -2.0439  0.3534
  159SAPE  H13Y17769   2.303   1.110   3.839  0.1158  0.2535 -0.3481
  159SAPE  C31417770   2.378   1.091   4.050 -0.1979 -0.8084  0.1315
  159SAPE  H14X17771   2.309   1.168   4.092  0.2666  0.4152 -1.2687
  159SAPE  H14Y17772   2.483   1.089   4.087  0.8236  0.1265 -2.4746
  159SAPE  C31517773   2.328   0.955   4.073  0.7738  0.1068 -0.1129
  159SAPE  H15X17774   2.401   0.890   4.020 -0.4756 -1.1715 -0.3270
  159SAPE  H15Y17775   2.226   0.948   4.029  0.9731  0.1670 -0.5963
  159SAPE  C31617776   2.330   0.927   4.221  0.4950  0.0757  0.4479
  159SAPE  H16X17777   2.302   1.014   4.284  0.8555 -0.3342  1.1880
  159SAPE  H16Y17778   2.438   0.908   4.235  1.0889  1.9873 -1.1252
  159SAPE  C31717779   2.270   0.798   4.251  0.2985 -0.5485  0.2533
  159SAPE  H17X17780   2.295   0.775   4.357 -0.6486  1.5759  0.9949
  159SAPE  H17Y17781   2.313   0.724   4.180  0.2918 -0.1826 -0.1294
  159SAPE  C31817782   2.115   0.798   4.244 -0.6167 -0.1963  0.6971
  159SAPE  H18X17783   2.077   0.699   4.211  3.2424 -1.9551  0.9815
  159SAPE  H18Y17784   2.085   0.867   4.162  0.8666 -0.2476  0.0770
  159SAPE  H18Z17785   2.065   0.835   4.335  0.3770  2.9266  0.0900
  160SAPE     N17786   2.466   0.131   1.964  0.1418  0.2633 -0.1988
  160SAPE   HN117787   2.426   0.147   1.870 -0.6717 -3.2949 -0.6031
  160SAPE   HN217788   2.519   0.215   1.993 -1.0420  1.8464 -2.3992
  160SAPE   HN317789   2.540   0.058   1.957 -0.8571 -0.7831 -0.1395
  160SAPE   C1217790   2.369   0.076   2.066 -0.7094 -0.0781  0.0536
  160SAPE  H12A17791   2.356  -0.033   2.052 -2.1918 -0.0616  1.0848
  160SAPE  H12B17792   2.273   0.125   2.040 -0.6267  0.4532  0.6925
  160SAPE   C1117793   2.409   0.108   2.212 -0.2017  0.1731 -0.2449
  160SAPE  H11A17794   2.320   0.095   2.276 -1.4115  0.2355 -1.8608
  160SAPE  H11B17795   2.425   0.216   2.232 -0.4099  0.4518 -1.4862
  160SAPE     P17796   2.525  -0.109   2.298  0.1184 -0.0465 -0.5862
  160SAPE   O1317797   2.398  -0.167   2.248 -0.2515  0.0848  0.2077
  160SAPE   O1417798   2.650  -0.172   2.252 -0.1321  0.0120  0.0749
  160SAPE   O1217799   2.532   0.045   2.258  0.2815  0.1090  0.4027
  160SAPE   O1117800   2.517  -0.119   2.451  0.6937  0.0888 -0.4827
  160SAPE    C117801   2.575  -0.032   2.549  0.6328 -0.3128 -0.4386
  160SAPE    HA17802   2.630  -0.104   2.614  0.4860  0.4693  0.5712
  160SAPE    HB17803   2.652   0.038   2.510  1.5977 -0.9201  0.3323
  160SAPE    C217804   2.475   0.050   2.635  0.0281 -0.3600  0.2090
  160SAPE    HS17805   2.473   0.152   2.591  0.8635  0.1013  1.1916
  160SAPE   O2117806   2.519   0.061   2.774 -0.4531  0.0762  0.3185
  160SAPE   C2117807   2.622   0.139   2.798 -0.8028  0.1244 -1.2930
  160SAPE   O2217808   2.671   0.214   2.712  0.6023  0.8174  0.1958
  160SAPE   C2217809   2.655   0.141   2.945  0.0453 -0.3885  0.5682
  160SAPE   H2R17810   2.679   0.038   2.980 -2.1502 -1.0795  0.2489
  160SAPE   H2S17811   2.749   0.200   2.942  0.0392 -0.4139 -0.4281
  160SAPE    C317812   2.334  -0.018   2.638 -0.2542  0.3936 -0.1077
  160SAPE    HX17813   2.291  -0.023   2.536 -0.9872  0.2840  0.1986
  160SAPE    HY17814   2.276   0.059   2.694  1.8859  1.8556  0.2297
  160SAPE   O3117815   2.334  -0.154   2.694 -0.0810 -0.2215 -0.1057
  160SAPE   C3117816   2.292  -0.176   2.820  0.6050 -0.7687  0.1291
  160SAPE   O3217817   2.235  -0.092   2.885  0.3225  0.5463 -0.3284
  160SAPE   C3217818   2.323  -0.317   2.863  0.3281  0.8641 -0.1831
  160SAPE   H2X17819   2.344  -0.382   2.775  1.2618  0.3934  0.3728
  160SAPE   H2Y17820   2.231  -0.356   2.911  0.7706 -0.4183 -0.3460
  160SAPE   C2317821   2.546   0.213   3.020  0.0827 -0.9481 -0.5136
  160SAPE   H3R17822   2.450   0.160   3.002  0.6289 -1.6783 -1.3671
  160SAPE   H3S17823   2.538   0.316   2.978 -2.6841 -1.5391 -1.6893
  160SAPE   C2417824   2.568   0.224   3.163  0.1856  0.1016 -0.2184
  160SAPE   H4R17825   2.500   0.300   3.207  0.1258  0.0960 -0.2998
  160SAPE   H4S17826   2.671   0.264   3.170  0.8308 -1.0734 -2.1964
  160SAPE   C2517827   2.557   0.088   3.237  0.0042 -0.5204  0.1708
  160SAPE   H5R17828   2.531   0.000   3.177  0.4366  0.1617 -1.0304
  160SAPE   C2617829   2.575   0.077   3.369 -1.3835  0.7187  0.6215
  160SAPE   H6R17830   2.591  -0.027   3.404  0.0488  0.3583 -1.0046
  160SAPE   C2717831   2.605   0.182   3.466 -0.3374 -0.2743 -0.2076
  160SAPE   H7R17832   2.657   0.269   3.421  0.2531 -0.2859  0.4330
  160SAPE   H7S17833   2.679   0.145   3.540 -1.6301 -1.0998  0.7367
  160SAPE   C2817834   2.485   0.220   3.544  1.0408  0.1042  0.4008
  160SAPE   H8R17835   2.420   0.294   3.495 -1.2504 -1.8322  0.3212
  160SAPE   C2917836   2.460   0.190   3.674  0.0428  0.1095  0.1579
  160SAPE   H9R17837   2.369   0.234   3.718  0.7755  1.2613  0.5579
  160SAPE  C21017838   2.536   0.100   3.769 -0.1820  0.1920  0.0874
  160SAPE  H10R17839   2.644   0.128   3.773  0.1106 -0.7416 -1.0054
  160SAPE  H10S17840   2.543  -0.004   3.733  0.1690  0.2470 -0.0086
  160SAPE  C21117841   2.473   0.087   3.907 -0.0284 -0.3333 -0.5559
  160SAPE  H11R17842   2.364   0.083   3.914 -0.0239 -1.2289 -0.8457
  160SAPE  C21217843   2.541   0.072   4.021  0.3563 -0.9542 -0.3395
  160SAPE  H12R17844   2.475   0.075   4.109 -0.4952  1.2060 -0.9817
  160SAPE  C21317845   2.692   0.067   4.031 -0.5541  0.2337  0.5405
  160SAPE  H13R17846   2.724   0.092   4.134  1.2082 -0.1704  0.1303
  160SAPE  H13S17847   2.733   0.136   3.954 -0.7993  0.8311  0.9436
  160SAPE  C21417848   2.738  -0.072   3.984  0.1157  0.2305  0.7252
  160SAPE  H14R17849   2.729  -0.084   3.875  0.7626 -0.8593  0.7892
  160SAPE  C21517850   2.815  -0.159   4.056  0.1181 -0.1402  0.2158
  160SAPE  H15R17851   2.836  -0.258   4.011 -1.0357  1.0609 -3.3282
  160SAPE  C21617852   2.863  -0.139   4.193  0.2717 -0.2472 -0.4924
  160SAPE  H16R17853   2.777  -0.163   4.259 -1.2217 -0.0281 -2.2755
  160SAPE  H16S17854   2.865  -0.031   4.218  1.7821 -0.5934  1.1277
  160SAPE  C21717855   2.987  -0.205   4.243 -0.7616 -0.3736  0.3831
  160SAPE  H17R17856   2.982  -0.315   4.231 -0.6240 -0.2519 -0.9581
  160SAPE  H17S17857   2.995  -0.189   4.352  0.7126 -0.9481  0.3797
  160SAPE  C21817858   3.124  -0.144   4.187 -0.6541 -0.0268  0.2356
  160SAPE  H18R17859   3.129  -0.033   4.181  0.1022 -0.0418  0.5087
  160SAPE  H18S17860   3.113  -0.183   4.083 -3.6102 -2.6189  1.3654
  160SAPE  C21917861   3.252  -0.195   4.254 -0.7931 -0.2489  0.6880
  160SAPE  H19R17862   3.247  -0.304   4.276 -1.8921 -0.2729  0.3757
  160SAPE  H19S17863   3.248  -0.135   4.347 -3.2649 -0.2039  0.6127
  160SAPE  C22017864   3.384  -0.167   4.183  0.5211 -0.0804 -0.1195
  160SAPE  H20R17865   3.461  -0.242   4.208  1.9726  2.0534  2.2870
  160SAPE  H20S17866   3.419  -0.066   4.216 -1.6671  1.3744 -1.8955
  160SAPE  H20T17867   3.363  -0.179   4.075  0.7811 -2.3063  0.0364
  160SAPE   C3317868   2.454  -0.335   2.948  0.4248 -0.3092  0.0953
  160SAPE   H3X17869   2.542  -0.289   2.898 -0.3733 -0.6290 -1.6842
  160SAPE   H3Y17870   2.481  -0.441   2.968  2.3233  0.6149  2.9792
  160SAPE   C3417871   2.437  -0.283   3.093 -0.0090  0.1248 -0.2233
  160SAPE   H4X17872   2.342  -0.313   3.141  0.9775 -0.8062  1.2183
  160SAPE   H4Y17873   2.438  -0.171   3.094  0.1164  0.1272 -0.4585
  160SAPE   C3517874   2.556  -0.316   3.181 -0.4410 -0.1238 -0.1016
  160SAPE   H5X17875   2.635  -0.238   3.167 -0.9332  0.1842 -1.2065
  160SAPE   H5Y17876   2.613  -0.407   3.152 -1.1880 -0.3237 -0.9761
  160SAPE   C3617877   2.525  -0.309   3.330  0.5293 -0.2017  0.6090
  160SAPE   H6X17878   2.442  -0.379   3.355  1.7625 -2.0625 -0.2491
  160SAPE   H6Y17879   2.486  -0.206   3.345 -0.9458 -0.3316 -1.8279
  160SAPE   C3717880   2.650  -0.350   3.410 -1.1368  0.8221 -0.1606
  160SAPE   H7X17881   2.722  -0.283   3.360  0.4259 -0.1084  0.7631
  160SAPE   H7Y17882   2.677  -0.457   3.401 -0.1224  1.1916 -1.9071
  160SAPE   C3817883   2.633  -0.311   3.562  0.2167 -0.0424 -0.3604
  160SAPE   H8X17884   2.631  -0.202   3.582 -1.3650 -0.4446  2.0267
  160SAPE   H8Y17885   2.721  -0.343   3.623  0.3956  3.4143  1.4234
  160SAPE   C3917886   2.514  -0.387   3.623 -1.1246 -0.2292 -0.3158
  160SAPE   H9X17887   2.501  -0.495   3.600 -0.9700 -1.0069  2.7923
  160SAPE   H9Y17888   2.424  -0.337   3.582 -0.5480  2.6333  1.5654
  160SAPE  C31017889   2.494  -0.367   3.774 -0.2245  0.1075 -0.6402
  160SAPE  H10X17890   2.394  -0.409   3.797  0.6315 -1.2545  0.8859
  160SAPE  H10Y17891   2.506  -0.262   3.807  1.8149 -1.1282  3.1742
  160SAPE  C31117892   2.588  -0.445   3.872 -0.1152 -0.8369  0.7398
  160SAPE  H11X17893   2.693  -0.417   3.845 -0.9920  2.2444  0.1387
  160SAPE  H11Y17894   2.573  -0.554   3.861 -1.0385 -0.6290 -0.1616
  160SAPE  C31217895   2.559  -0.404   4.009  0.1173  0.1313  0.0144
  160SAPE  H12X17896   2.457  -0.417   4.052 -0.0586  0.5758 -0.2557
  160SAPE  H12Y17897   2.593  -0.300   4.028 -0.5556  0.3376  0.1096
  160SAPE  C31317898   2.649  -0.491   4.108  0.2559  0.0604  0.3514
  160SAPE  H13X17899   2.755  -0.486   4.074  0.1826 -2.7936 -0.5251
  160SAPE  H13Y17900   2.618  -0.598   4.110 -0.0654  0.1586  0.7912
  160SAPE  C31417901   2.655  -0.442   4.257 -0.3439  0.2439  0.4765
  160SAPE  H14X17902   2.637  -0.333   4.270 -1.2650 -0.0674  2.1160
  160SAPE  H14Y17903   2.760  -0.467   4.286  0.2310  0.5572 -1.2396
  160SAPE  C31517904   2.560  -0.530   4.340  0.1001 -0.5271 -0.2489
  160SAPE  H15X17905   2.583  -0.639   4.331 -4.0961 -1.7237  1.1049
  160SAPE  H15Y17906   2.458  -0.528   4.297 -0.5368 -0.3753  1.2369
  160SAPE  C31617907   2.541  -0.489   4.482 -0.1797 -0.2628 -0.7015
  160SAPE  H16X17908   2.503  -0.384   4.479 -0.8526 -0.5002 -0.7434
  160SAPE  H16Y17909   2.639  -0.486   4.533 -0.1647  0.1179 -0.7460
  160SAPE  C31717910   2.427  -0.572   4.553 -0.1762 -0.6593 -0.3143
  160SAPE  H17X17911   2.459  -0.677   4.544  0.9203 -0.4460  0.8205
  160SAPE  H17Y17912   2.326  -0.557   4.508 -0.7132  1.4934  1.4193
  160SAPE  C31817913   2.409  -0.554   4.707 -0.7820 -1.0880  0.3369
  160SAPE  H18X17914   2.396  -0.444   4.714  0.6507 -0.6985 -2.1532
  160SAPE  H18Y17915   2.497  -0.590   4.764 -0.7110 -2.0447 -0.3452
  160SAPE  H18Z17916   2.317  -0.610   4.736  0.1046 -3.6653 -1.4025
  161SAPE     N17917   1.256   1.989   2.466 -0.4222  0.0151  0.2207
  161SAPE   HN117918   1.220   1.894   2.485  0.6495 -0.3768  0.4044
  161SAPE   HN217919   1.235   2.049   2.548 -1.3809  0.0326 -0.0285
  161SAPE   HN317920   1.222   2.036   2.380  1.4687  1.4890  0.1907
  161SAPE   C1217921   1.410   1.971   2.442  0.2736  0.7073 -0.4226
  161SAPE  H12A17922   1.435   1.946   2.337  4.1747  0.6312  0.3553
  161SAPE  H12B17923   1.435   1.878   2.496 -0.9985  1.5113  1.6708
  161SAPE   C1117924   1.491   2.095   2.480  0.5084 -0.0186  0.1462
  161SAPE  H11A17925   1.598   2.067   2.474  0.5942  0.5828 -1.9657
  161SAPE  H11B17926   1.466   2.114   2.587  0.6465  1.7754 -0.1099
  161SAPE     P17927   1.509   2.355   2.434 -0.0783 -0.2831 -0.5423
  161SAPE   O1317928   1.643   2.382   2.379 -0.1320 -0.6319 -0.1779
  161SAPE   O1417929   1.403   2.448   2.394  0.8729  0.3493 -0.2899
  161SAPE   O1217930   1.462   2.204   2.399 -0.0282  0.2102 -0.1650
  161SAPE   O1117931   1.513   2.362   2.588 -0.6983  0.7602 -0.3853
  161SAPE    C117932   1.412   2.428   2.665  0.3285  0.0672  0.3489
  161SAPE    HA17933   1.311   2.408   2.623  0.3173  1.9045 -0.6114
  161SAPE    HB17934   1.400   2.371   2.759 -1.0520 -3.0385 -1.5531
  161SAPE    C217935   1.433   2.575   2.686 -0.6394 -0.1089 -0.3121
  161SAPE    HS17936   1.441   2.623   2.586 -2.5111 -0.2549 -0.5718
  161SAPE   O2117937   1.553   2.590   2.764  0.0017  0.1920  0.2826
  161SAPE   C2117938   1.626   2.696   2.725  0.1130  0.6402  0.0946
  161SAPE   O2217939   1.604   2.776   2.639 -0.3846  0.2118  0.6165
  161SAPE   C2217940   1.748   2.703   2.815 -0.5374  0.0056  1.2315
  161SAPE   H2R17941   1.769   2.598   2.843 -1.0955 -0.8306 -1.1871
  161SAPE   H2S17942   1.830   2.733   2.745 -1.8004 -0.3915 -0.4944
  161SAPE    C317943   1.322   2.653   2.761 -0.3536  0.7568  0.4268
  161SAPE    HX17944   1.225   2.641   2.708 -1.2532  1.5723  1.7878
  161SAPE    HY17945   1.341   2.762   2.765  1.8207  0.4340  4.0049
  161SAPE   O3117946   1.295   2.602   2.890  0.4694  0.2733 -0.3349
  161SAPE   C3117947   1.226   2.682   2.970  0.4756 -0.1877 -0.1388
  161SAPE   O3217948   1.174   2.790   2.935 -0.3134 -0.3871  0.2499
  161SAPE   C3217949   1.211   2.616   3.102  0.2805  0.3963 -0.4809
  161SAPE   H2X17950   1.312   2.600   3.146 -1.0880 -2.1899  2.1271
  161SAPE   H2Y17951   1.170   2.516   3.077  0.7325  0.8990 -3.6022
  161SAPE   C2317952   1.718   2.801   2.926 -0.3738 -0.6089  0.4194
  161SAPE   H3R17953   1.693   2.897   2.876  2.2613 -0.5297 -0.9431
  161SAPE   H3S17954   1.815   2.826   2.974  0.3824  3.5923 -2.7108
  161SAPE   C2417955   1.618   2.750   3.030  0.3048 -0.4218 -1.0372
  161SAPE   H4R17956   1.669   2.685   3.104  0.7780 -0.0569 -1.0377
  161SAPE   H4S17957   1.535   2.686   2.994  0.3658 -0.4980 -1.0419
  161SAPE   C2517958   1.567   2.876   3.097 -0.5240  0.0384  0.3004
  161SAPE   H5R17959   1.500   2.932   3.031 -1.0948 -0.5368  0.3735
  161SAPE   C2617960   1.602   2.918   3.220  0.2207  0.3840  0.4824
  161SAPE   H6R17961   1.551   3.009   3.255 -0.8987 -0.6709  1.7067
  161SAPE   C2717962   1.698   2.848   3.315 -0.0870  0.4779 -0.4577
  161SAPE   H7R17963   1.743   2.927   3.379 -0.4711  0.1235  0.2661
  161SAPE   H7S17964   1.787   2.820   3.254 -0.5308 -0.2795 -0.7635
  161SAPE   C2817965   1.648   2.724   3.388 -0.0170 -0.1883 -0.4609
  161SAPE   H8R17966   1.625   2.635   3.329 -0.4703 -0.0713 -0.4629
  161SAPE   C2917967   1.616   2.713   3.515  0.3334  0.0359 -1.2194
  161SAPE   H9R17968   1.578   2.613   3.539  0.6063 -0.5524 -3.0772
  161SAPE  C21017969   1.602   2.810   3.635 -0.6873  0.2441  0.3636
  161SAPE  H10R17970   1.498   2.817   3.673 -0.9750 -0.3495 -0.2987
  161SAPE  H10S17971   1.621   2.917   3.613 -0.8850  0.3062  0.4926
  161SAPE  C21117972   1.694   2.774   3.743 -0.4383  0.8796 -0.6509
  161SAPE  H11R17973   1.797   2.781   3.706 -0.3668  2.1377 -0.2641
  161SAPE  C21217974   1.657   2.749   3.870 -0.1014 -0.7166  0.7058
  161SAPE  H12R17975   1.729   2.736   3.953 -0.6573 -1.9822  1.0221
  161SAPE  C21317976   1.513   2.733   3.925 -0.9366 -0.4800  0.4316
  161SAPE  H13R17977   1.443   2.757   3.842 -0.5108 -2.4035 -0.5371
  161SAPE  H13S17978   1.496   2.814   3.999  2.5648  0.4207  0.4022
  161SAPE  C21417979   1.492   2.588   3.977  0.0265 -0.3747  0.4948
  161SAPE  H14R17980   1.474   2.511   3.900 -1.3810 -1.1869  1.5986
  161SAPE  C21517981   1.493   2.554   4.104 -0.7071 -0.2618  0.5324
  161SAPE  H15R17982   1.468   2.455   4.142 -2.1202  0.0417  0.4346
  161SAPE  C21617983   1.534   2.645   4.217 -0.1203 -0.2766  0.3514
  161SAPE  H16R17984   1.455   2.646   4.295 -1.1078  2.2714 -0.5604
  161SAPE  H16S17985   1.536   2.750   4.181 -1.8748 -0.3964 -0.1833
  161SAPE  C21717986   1.675   2.617   4.280  0.7626  0.5674  0.8853
  161SAPE  H17R17987   1.745   2.619   4.194 -2.3246 -1.2890 -1.9266
  161SAPE  H17S17988   1.671   2.514   4.322 -1.4381 -0.2548 -1.1546
  161SAPE  C21817989   1.711   2.724   4.388 -0.1556 -0.5526  0.0050
  161SAPE  H18R17990   1.634   2.714   4.467 -0.7892  0.9877 -0.3843
  161SAPE  H18S17991   1.709   2.827   4.347  0.7751 -0.0377  1.1845
  161SAPE  C21917992   1.842   2.709   4.461 -0.8015 -0.4430  0.1738
  161SAPE  H19R17993   1.858   2.608   4.505 -0.5208 -0.6383 -0.3728
  161SAPE  H19S17994   1.832   2.774   4.550  0.2773  1.5766 -1.1161
  161SAPE  C22017995   1.967   2.748   4.379 -0.1196 -0.1626 -0.0196
  161SAPE  H20R17996   1.990   2.677   4.296 -1.2866 -0.5993  0.0208
  161SAPE  H20S17997   2.052   2.754   4.450  0.5342 -0.2230 -0.7789
  161SAPE  H20T17998   1.957   2.852   4.340  0.0930 -0.1004  0.0907
  161SAPE   C3317999   1.114   2.688   3.211 -0.5005 -0.0898  0.1274
  161SAPE   H3X18000   1.040   2.614   3.248  2.6078 -1.9820  3.1239
  161SAPE   H3Y18001   1.056   2.771   3.165 -1.3731 -0.0300  1.2991
  161SAPE   C3418002   1.191   2.729   3.333  0.5027 -0.8329 -0.9019
  161SAPE   H4X18003   1.272   2.799   3.303  0.3068 -0.4950 -0.6447
  161SAPE   H4Y18004   1.239   2.640   3.379  1.4416  0.3744  0.5398
  161SAPE   C3518005   1.101   2.799   3.434 -0.0970  0.4502 -0.3922
  161SAPE   H5X18006   1.025   2.725   3.465 -0.6290  0.8218 -0.7838
  161SAPE   H5Y18007   1.041   2.880   3.387 -1.2302 -0.0597  0.1560
  161SAPE   C3618008   1.181   2.828   3.560 -0.0411 -0.1638  0.2903
  161SAPE   H6X18009   1.266   2.890   3.523 -0.7965  0.6485 -0.1203
  161SAPE   H6Y18010   1.229   2.738   3.603  2.1581  0.4381 -0.7598
  161SAPE   C3718011   1.108   2.914   3.660  0.1475 -0.0598  0.2876
  161SAPE   H7X18012   1.001   2.886   3.672  0.1921 -0.0209  0.8109
  161SAPE   H7Y18013   1.103   3.016   3.616 -1.1146  0.0019  0.5307
  161SAPE   C3818014   1.187   2.919   3.795  0.4283 -0.1158 -0.0242
  161SAPE   H8X18015   1.291   2.945   3.768 -0.3696  1.3500 -1.9731
  161SAPE   H8Y18016   1.180   2.825   3.853 -0.0410  1.4262  2.5457
  161SAPE   C3918017   1.118   3.024   3.872  1.3486 -0.6836  1.1892
  161SAPE   H9X18018   1.009   3.019   3.852  1.7191 -3.2425 -0.6045
  161SAPE   H9Y18019   1.157   3.121   3.834  0.5744 -0.9636 -0.3821
  161SAPE  C31018020   1.147   3.020   4.021 -0.0466  0.3453  0.5113
  161SAPE  H10X18021   1.255   3.008   4.044 -0.0436 -1.1839 -0.1567
  161SAPE  H10Y18022   1.105   2.920   4.048  0.1196 -0.0032 -0.4699
  161SAPE  C31118023   1.080   3.136   4.091 -0.4586  0.3079 -0.2224
  161SAPE  H11X18024   0.977   3.131   4.051  0.1196  1.6303 -1.9913
  161SAPE  H11Y18025   1.122   3.231   4.052 -1.1453  0.8817  0.4052
  161SAPE  C31218026   1.075   3.125   4.248  0.5139  0.0487  0.3174
  161SAPE  H12X18027   1.176   3.101   4.288  0.4636  0.4015  0.6619
  161SAPE  H12Y18028   1.013   3.036   4.275  1.8618 -1.5701 -1.6500
  161SAPE  C31318029   1.020   3.254   4.302 -0.5468  0.6365 -0.3516
  161SAPE  H13X18030   0.914   3.278   4.284 -0.7496 -0.6403 -0.9745
  161SAPE  H13Y18031   1.081   3.332   4.252  0.9920 -0.4604 -0.2750
  161SAPE  C31418032   1.033   3.262   4.468  0.1130 -0.9520 -0.8183
  161SAPE  H14X18033   1.026   3.369   4.498 -0.4004 -0.8194 -1.3883
  161SAPE  H14Y18034   1.136   3.227   4.488  0.4976  0.4615 -0.1961
  161SAPE  C31518035   0.941   3.167   4.539  0.0163 -0.7368  0.9247
  161SAPE  H15X18036   0.959   3.064   4.502 -0.9311 -0.1861 -1.2348
  161SAPE  H15Y18037   0.837   3.202   4.524 -0.1421 -1.9137 -1.0170
  161SAPE  C31618038   0.964   3.166   4.693 -0.2964 -0.4702  0.8483
  161SAPE  H16X18039   0.980   3.273   4.718 -1.1009  0.0578 -0.7552
  161SAPE  H16Y18040   1.062   3.114   4.699 -0.6221 -1.2118  0.0735
  161SAPE  C31718041   0.855   3.105   4.776  0.1675 -0.0703 -0.8879
  161SAPE  H17X18042   0.845   2.996   4.752 -3.2143  0.1537 -1.0235
  161SAPE  H17Y18043   0.754   3.132   4.739 -0.5256 -0.6744  0.4785
  161SAPE  C31818044   0.870   3.113   4.924  0.4268 -0.5181 -0.0111
  161SAPE  H18X18045   0.961   3.059   4.958  1.1679  0.3921 -0.4899
  161SAPE  H18Y18046   0.775   3.071   4.963 -0.1117 -0.3514 -1.0880
  161SAPE  H18Z18047   0.864   3.219   4.956 -1.8992 -0.7203  0.4215
  162SAPE     N18048   6.098   4.662   1.962  0.1266 -0.0724  0.0907
  162SAPE   HN118049   6.151   4.717   2.033  0.0117 -1.0264  0.9303
  162SAPE   HN218050   6.013   4.629   2.011 -1.9940  3.6138 -0.7607
  162SAPE   HN318051   6.156   4.581   1.932  0.5115 -0.7446  2.4692
  162SAPE   C1218052   6.046   4.759   1.861  0.3881  0.0571  0.1902
  162SAPE  H12A18053   5.960   4.706   1.813 -1.3300  1.3320  1.6894
  162SAPE  H12B18054   6.129   4.783   1.791  0.7895 -0.6128  0.4283
  162SAPE   C1118055   5.987   4.888   1.929 -0.5175  0.3166 -0.3043
  162SAPE  H11A18056   5.921   4.858   2.013  0.7490  1.3173  1.1104
  162SAPE  H11B18057   5.925   4.944   1.856  1.6974  3.4498 -0.0110
  162SAPE     P18058   6.160   4.964   2.125 -0.0294  0.0253 -0.2376
  162SAPE   O1318059   6.126   4.826   2.173  0.2811 -0.3946  0.4091
  162SAPE   O1418060   6.302   4.995   2.120  0.1679 -0.2873  0.0324
  162SAPE   O1218061   6.095   4.971   1.977  0.3307  0.5341 -0.4848
  162SAPE   O1118062   6.083   5.071   2.203  0.1222 -0.7617  0.5626
  162SAPE    C118063   5.942   5.073   2.228  0.5299  0.3896  0.5017
  162SAPE    HA18064   5.902   5.158   2.170  0.9901 -0.5970 -1.3598
  162SAPE    HB18065   5.891   4.986   2.180  0.2177 -1.5356  4.0292
  162SAPE    C218066   5.905   5.068   2.379  0.1838 -0.1304 -0.3661
  162SAPE    HS18067   5.800   5.034   2.374  0.5401 -1.1965 -3.7437
  162SAPE   O2118068   5.940   5.197   2.431 -0.0805  0.6240 -0.9781
  162SAPE   C2118069   5.860   5.234   2.527  0.2599  0.7616 -0.2431
  162SAPE   O2218070   5.761   5.176   2.576 -0.7431  0.1790  0.8939
  162SAPE   C2218071   5.893   5.372   2.577 -0.2775 -0.2719 -0.4045
  162SAPE   H2R18072   5.915   5.448   2.499  2.5088  0.4810  1.0049
  162SAPE   H2S18073   5.800   5.409   2.625  0.3201  0.6698  0.0590
  162SAPE    C318074   5.996   4.967   2.458  0.1459  0.2441 -0.2596
  162SAPE    HX18075   6.097   5.001   2.426  0.3076 -1.4587 -1.7145
  162SAPE    HY18076   5.985   4.862   2.423  1.0153  0.4204 -1.1146
  162SAPE   O3118077   5.973   4.979   2.592 -0.3504  0.0222 -0.1561
  162SAPE   C3118078   5.879   4.899   2.646  0.2128  0.3888  0.4805
  162SAPE   O3218079   5.797   4.839   2.578  0.2922 -0.0568 -0.3306
  162SAPE   C3218080   5.888   4.914   2.800 -0.1851  0.0850 -0.1394
  162SAPE   H2X18081   5.913   5.019   2.828 -2.4800  0.8252 -0.6350
  162SAPE   H2Y18082   5.968   4.840   2.821 -0.0395  0.5123  0.8685
  162SAPE   C2318083   6.000   5.363   2.685  0.6317 -0.3884  0.8962
  162SAPE   H3R18084   5.962   5.305   2.772  0.3265 -0.5830  0.6325
  162SAPE   H3S18085   6.016   5.466   2.723 -1.6702  0.5419 -0.4381
  162SAPE   C2418086   6.145   5.307   2.642 -0.1956 -1.0879  0.5520
  162SAPE   H4R18087   6.144   5.233   2.560 -0.3132  2.3645 -2.8280
  162SAPE   H4S18088   6.187   5.265   2.736  1.4314 -0.2774  0.2183
  162SAPE   C2518089   6.217   5.435   2.596 -0.0440 -0.3763  0.2953
  162SAPE   H5R18090   6.170   5.482   2.508  0.1235  0.7087  0.7635
  162SAPE   C2618091   6.327   5.499   2.648 -0.9415  1.2264 -0.6316
  162SAPE   H6R18092   6.369   5.588   2.599  0.6515  1.8183  1.6632
  162SAPE   C2718093   6.406   5.457   2.770 -0.5897 -0.0848  0.1825
  162SAPE   H7R18094   6.512   5.486   2.754 -0.4220  0.0870  1.5265
  162SAPE   H7S18095   6.416   5.347   2.786  0.1591  0.0071  0.3607
  162SAPE   C2818096   6.350   5.518   2.899 -1.3459  0.4024  0.8212
  162SAPE   H8R18097   6.260   5.469   2.939 -0.3502 -1.9602  0.3401
  162SAPE   C2918098   6.389   5.626   2.968  0.4985 -0.4802  0.1460
  162SAPE   H9R18099   6.341   5.651   3.064  0.8427  1.8926 -0.2425
  162SAPE  C21018100   6.495   5.733   2.929 -0.3016  1.1974 -0.5359
  162SAPE  H10R18101   6.572   5.681   2.868  0.4555  1.4258  0.2075
  162SAPE  H10S18102   6.541   5.765   3.025  3.1059 -1.0640 -1.2304
  162SAPE  C21118103   6.429   5.847   2.856  0.1129  0.1322  0.5382
  162SAPE  H11R18104   6.387   5.834   2.755  0.0149  3.0389  0.1180
  162SAPE  C21218105   6.406   5.969   2.904 -0.0345 -0.0937  0.1174
  162SAPE  H12R18106   6.359   6.039   2.833 -0.5656  0.4995  1.0322
  162SAPE  C21318107   6.433   6.021   3.043 -0.0798  0.4191  0.4901
  162SAPE  H13R18108   6.479   6.122   3.048 -2.6088  1.6414  0.9563
  162SAPE  H13S18109   6.505   5.958   3.100 -0.1552  0.0676  0.1940
  162SAPE  C21418110   6.298   6.031   3.100  1.2046 -0.0347  0.3758
  162SAPE  H14R18111   6.218   6.071   3.036  0.6866  1.0506  1.6525
  162SAPE  C21518112   6.258   5.976   3.216  0.3977  0.1721  0.1045
  162SAPE  H15R18113   6.153   5.984   3.250  0.3117 -3.8008  1.2268
  162SAPE  C21618114   6.342   5.898   3.310 -0.0914 -0.0975  1.0205
  162SAPE  H16R18115   6.449   5.923   3.293  0.1073 -1.3828  0.3051
  162SAPE  H16S18116   6.319   5.792   3.288  1.1883 -0.4616  1.3653
  162SAPE  C21718117   6.316   5.926   3.455  0.5997  0.0678  0.7534
  162SAPE  H17R18118   6.317   6.036   3.472 -0.4685  0.4827 -1.5638
  162SAPE  H17S18119   6.392   5.881   3.522  2.3839  0.3216 -1.0100
  162SAPE  C21818120   6.176   5.874   3.498 -0.2293  0.2154 -0.4447
  162SAPE  H18R18121   6.160   5.765   3.483 -0.7190 -0.0674  1.8653
  162SAPE  H18S18122   6.102   5.917   3.427 -1.6628 -0.1785  0.7519
  162SAPE  C21918123   6.123   5.914   3.635 -0.0304 -0.0551  0.3868
  162SAPE  H19R18124   6.131   6.024   3.651  2.1571 -0.3571  1.8164
  162SAPE  H19S18125   6.192   5.876   3.713 -4.0456 -1.1825  3.7509
  162SAPE  C22018126   5.986   5.856   3.679  0.3198  0.6080  0.3593
  162SAPE  H20R18127   5.960   5.884   3.783  1.9719 -1.2717  1.3258
  162SAPE  H20S18128   5.986   5.745   3.677 -0.1967  0.6017 -1.1733
  162SAPE  H20T18129   5.907   5.890   3.608  1.2122 -1.0291 -1.5053
  162SAPE   C3318130   5.767   4.887   2.882  0.4060  0.2104 -0.3574
  162SAPE   H3X18131   5.741   4.779   2.874 -1.1127  0.6293 -1.4000
  162SAPE   H3Y18132   5.689   4.950   2.836 -1.4816 -2.2022 -0.6449
  162SAPE   C3418133   5.784   4.932   3.031  0.4782 -0.5002 -0.0466
  162SAPE   H4X18134   5.694   4.921   3.096  0.1069  0.5749 -0.3549
  162SAPE   H4Y18135   5.806   5.041   3.020 -2.3252  0.3997  1.9573
  162SAPE   C3518136   5.888   4.857   3.108 -0.3417  0.5423 -0.3278
  162SAPE   H5X18137   5.902   4.910   3.205  1.3841 -2.3659  1.1373
  162SAPE   H5Y18138   5.976   4.877   3.043  0.7963  1.7068  1.4519
  162SAPE   C3618139   5.880   4.700   3.131  1.0804 -0.6481  0.4746
  162SAPE   H6X18140   5.891   4.671   3.025  0.8725  1.5028 -0.1926
  162SAPE   H6Y18141   5.781   4.671   3.172  0.0336 -0.5146 -1.8096
  162SAPE   C3718142   5.998   4.640   3.210 -0.0004  0.0063  0.4388
  162SAPE   H7X18143   6.095   4.659   3.160 -0.6961 -0.5318 -1.2037
  162SAPE   H7Y18144   5.980   4.530   3.210 -1.5488  0.2394  1.0555
  162SAPE   C3818145   6.008   4.691   3.355 -0.1315  0.4253  0.7849
  162SAPE   H8X18146   6.032   4.800   3.355 -0.2716  0.4640  1.4676
  162SAPE   H8Y18147   6.095   4.636   3.397  1.8249  1.1664 -2.0348
  162SAPE   C3918148   5.889   4.661   3.442 -0.2667  0.2627 -0.3403
  162SAPE   H9X18149   5.866   4.555   3.422 -2.0292  0.6938 -0.8270
  162SAPE   H9Y18150   5.802   4.728   3.425 -0.9472 -0.5435 -0.0985
  162SAPE  C31018151   5.927   4.686   3.587  0.2412 -0.3914  0.2832
  162SAPE  H10X18152   5.955   4.793   3.599 -0.2707  0.2443 -3.0129
  162SAPE  H10Y18153   6.012   4.615   3.599 -1.0461 -1.9244  0.5532
  162SAPE  C31118154   5.813   4.656   3.687  0.8000 -0.1388 -0.1817
  162SAPE  H11X18155   5.786   4.549   3.688 -0.3166  0.1268 -0.2791
  162SAPE  H11Y18156   5.719   4.712   3.667  0.2304 -1.0586 -0.0824
  162SAPE  C31218157   5.859   4.702   3.830  0.6443 -0.0894  0.4323
  162SAPE  H12X18158   5.879   4.812   3.826 -1.0903  0.3684  2.4765
  162SAPE  H12Y18159   5.958   4.660   3.857 -0.9781 -2.7063  2.8029
  162SAPE  C31318160   5.764   4.686   3.945  0.4870 -0.0106 -0.4951
  162SAPE  H13X18161   5.756   4.577   3.967 -1.6913  0.4390  1.2877
  162SAPE  H13Y18162   5.670   4.729   3.905 -0.2164 -0.0775  1.0163
  162SAPE  C31418163   5.818   4.755   4.069 -0.6281 -0.4727 -0.6191
  162SAPE  H14X18164   5.829   4.863   4.044  0.6051 -0.9031 -2.1108
  162SAPE  H14Y18165   5.921   4.720   4.094 -0.4444 -0.0564 -0.7862
  162SAPE  C31518166   5.739   4.748   4.201 -0.1009 -0.8990 -0.5299
  162SAPE  H15X18167   5.720   4.644   4.236  1.8041 -0.7143  1.2470
  162SAPE  H15Y18168   5.631   4.772   4.190 -0.6432 -2.8931 -0.0210
  162SAPE  C31618169   5.805   4.831   4.319 -0.3765  0.7165  0.4089
  162SAPE  H16X18170   5.786   4.940   4.305 -2.0001  0.6098  1.4605
  162SAPE  H16Y18171   5.915   4.819   4.320 -0.3825  0.5919 -0.1457
  162SAPE  C31718172   5.752   4.791   4.462 -0.4082 -0.1860  0.6551
  162SAPE  H17X18173   5.800   4.693   4.484 -0.4994 -0.8714 -1.8215
  162SAPE  H17Y18174   5.642   4.787   4.445 -0.1471 -1.4651 -1.0060
  162SAPE  C31818175   5.789   4.899   4.566 -0.4424  0.2034  0.2111
  162SAPE  H18X18176   5.754   4.999   4.533 -0.5127  0.3175  0.6291
  162SAPE  H18Y18177   5.900   4.894   4.564 -0.3919  1.1944 -0.2059
  162SAPE  H18Z18178   5.760   4.871   4.669  0.0465 -0.7467  0.1050
  163SAPE     N18179   1.435   4.304   2.044  0.5019  0.0308  0.6271
  163SAPE   HN118180   1.381   4.300   1.955  0.2952 -2.6541  0.7907
  163SAPE   HN218181   1.395   4.374   2.110  2.2780  3.4605 -1.5832
  163SAPE   HN318182   1.530   4.342   2.025  0.9772 -2.0247 -1.5838
  163SAPE   C1218183   1.433   4.164   2.102  0.5027 -0.7572  0.3985
  163SAPE  H12A18184   1.499   4.105   2.035 -0.5239 -1.7008  0.1968
  163SAPE  H12B18185   1.329   4.126   2.107  1.3595 -3.1017  3.6827
  163SAPE   C1118186   1.478   4.159   2.245  0.0057 -0.5267 -0.2625
  163SAPE  H11A18187   1.568   4.223   2.257  0.5033 -1.3075  0.2639
  163SAPE  H11B18188   1.527   4.062   2.267  2.7871  0.6437 -0.7975
  163SAPE     P18189   1.335   4.329   2.387  0.3199 -0.2533 -0.4006
  163SAPE   O1318190   1.406   4.431   2.307 -0.7235  0.3581  0.4279
  163SAPE   O1418191   1.190   4.347   2.398  0.5032 -0.0321 -0.1849
  163SAPE   O1218192   1.379   4.187   2.342  0.3327  0.1358  0.0784
  163SAPE   O1118193   1.387   4.334   2.533  0.5277  0.1387  0.0852
  163SAPE    C118194   1.397   4.212   2.614 -0.0996  0.0933  0.3799
  163SAPE    HA18195   1.426   4.124   2.552  0.6348 -1.0293  2.2492
  163SAPE    HB18196   1.484   4.229   2.681 -0.6760  0.2362  1.1072
  163SAPE    C218197   1.274   4.183   2.710  0.5812  0.0320  0.4651
  163SAPE    HS18198   1.199   4.142   2.639  2.1484 -0.1474 -1.1332
  163SAPE   O2118199   1.216   4.310   2.766  0.3278  0.7798  0.4332
  163SAPE   C2118200   1.086   4.307   2.775 -0.2392  0.4205 -0.4103
  163SAPE   O2218201   1.012   4.219   2.734  0.2060  0.8997 -0.6640
  163SAPE   C2218202   1.036   4.414   2.876 -0.4211  0.1526  0.4812
  163SAPE   H2R18203   1.110   4.435   2.956 -0.5793  0.1205  0.6382
  163SAPE   H2S18204   1.032   4.505   2.813  0.8003  0.2760  0.5577
  163SAPE    C318205   1.293   4.074   2.820  0.5865 -0.0960 -0.3858
  163SAPE    HX18206   1.361   4.117   2.897  2.3656 -2.1613 -0.6948
  163SAPE    HY18207   1.352   3.995   2.768 -0.3274 -0.0934 -1.4586
  163SAPE   O3118208   1.179   4.029   2.889 -0.0963  0.1032 -0.3246
  163SAPE   C3118209   1.099   3.957   2.822 -0.1630  0.0574 -0.4011
  163SAPE   O3218210   1.112   3.910   2.713  0.3599  0.4725  0.5064
  163SAPE   C3218211   0.972   3.926   2.905  0.3863  0.2706  0.9971
  163SAPE   H2X18212   0.890   3.943   2.832  0.9434  1.0450  0.5305
  163SAPE   H2Y18213   0.958   4.009   2.977 -3.8067  0.5174  0.1728
  163SAPE   C2318214   0.904   4.379   2.954 -0.0568  0.2848  0.2901
  163SAPE   H3R18215   0.846   4.293   2.915 -0.2355  0.3337  0.4442
  163SAPE   H3S18216   0.832   4.464   2.954  0.2774  0.5912 -1.4630
  163SAPE   C2418217   0.937   4.355   3.104  0.3125  0.5641  0.2380
  163SAPE   H4R18218   0.842   4.344   3.162  0.6483 -0.0127  0.6871
  163SAPE   H4S18219   0.979   4.451   3.141 -0.3959  2.5586 -3.6011
  163SAPE   C2518220   1.037   4.241   3.121  0.1592  0.0067 -0.3949
  163SAPE   H5R18221   1.104   4.224   3.036  0.4045 -0.0681 -0.1873
  163SAPE   C2618222   1.023   4.143   3.217 -0.0963 -0.5051 -0.5988
  163SAPE   H6R18223   1.100   4.065   3.213  0.4234  0.0356 -2.3083
  163SAPE   C2718224   0.933   4.139   3.343  0.2628  0.0807 -0.1674
  163SAPE   H7R18225   0.952   4.039   3.390 -1.0051 -0.2681 -0.3549
  163SAPE   H7S18226   0.827   4.153   3.315 -0.6554 -0.8663  2.4771
  163SAPE   C2818227   0.967   4.244   3.450 -0.5863 -0.2524  0.2581
  163SAPE   H8R18228   1.075   4.260   3.458 -0.3739 -1.9716  1.4550
  163SAPE   C2918229   0.884   4.336   3.514  0.3213 -0.0879  0.1545
  163SAPE   H9R18230   0.927   4.408   3.585 -2.4159  1.2177  0.6196
  163SAPE  C21018231   0.736   4.346   3.519  0.3712  0.4245 -0.0531
  163SAPE  H10R18232   0.700   4.316   3.620  3.6223 -2.5980  0.4017
  163SAPE  H10S18233   0.688   4.291   3.436  0.8972 -2.2283  1.2872
  163SAPE  C21118234   0.696   4.487   3.504  0.4203 -1.2581  0.1258
  163SAPE  H11R18235   0.695   4.522   3.400 -0.7761  0.7107  0.7457
  163SAPE  C21218236   0.638   4.571   3.590  0.0456  0.9726  0.2375
  163SAPE  H12R18237   0.622   4.675   3.556  2.4490  1.5061  0.5789
  163SAPE  C21318238   0.613   4.554   3.740 -0.8003 -0.3953 -0.3395
  163SAPE  H13R18239   0.694   4.502   3.796 -0.5118  1.4652  1.0759
  163SAPE  H13S18240   0.511   4.510   3.747 -1.8476  1.6625 -1.6070
  163SAPE  C21418241   0.610   4.695   3.804 -0.9938  0.3895 -1.1102
  163SAPE  H14R18242   0.668   4.771   3.749 -1.3467  0.4432 -1.4148
  163SAPE  C21518243   0.570   4.723   3.926 -0.3503  0.3668 -0.0717
  163SAPE  H15R18244   0.555   4.830   3.949 -0.1190  0.7070 -1.4066
  163SAPE  C21618245   0.507   4.626   4.019  0.0776 -0.2153 -0.3124
  163SAPE  H16R18246   0.439   4.560   3.961 -0.8201  0.2367  0.2032
  163SAPE  H16S18247   0.441   4.677   4.093 -2.3460 -1.5082 -1.4613
  163SAPE  C21718248   0.612   4.555   4.101  0.2722  0.6931 -0.2859
  163SAPE  H17R18249   0.686   4.498   4.042 -1.3489 -0.1312 -1.5942
  163SAPE  H17S18250   0.566   4.476   4.164  1.9726  0.2805  0.5001
  163SAPE  C21818251   0.695   4.648   4.194 -0.0059 -0.3831  0.6058
  163SAPE  H18R18252   0.614   4.701   4.248  0.6171  1.5614 -0.2657
  163SAPE  H18S18253   0.766   4.719   4.147  0.3777 -0.9841  0.2494
  163SAPE  C21918254   0.777   4.562   4.283 -0.3456  0.1759  0.7612
  163SAPE  H19R18255   0.852   4.521   4.212 -0.6009  0.1334  0.5173
  163SAPE  H19S18256   0.722   4.477   4.327 -0.0419  1.1068  3.0611
  163SAPE  C22018257   0.849   4.632   4.396 -0.2833 -0.2146 -0.0206
  163SAPE  H20R18258   0.894   4.727   4.360 -1.0121  0.6608  1.3257
  163SAPE  H20S18259   0.926   4.568   4.445 -1.6369 -1.0475  1.0877
  163SAPE  H20T18260   0.775   4.656   4.475 -1.6637 -0.9272 -1.0519
  163SAPE   C3318261   0.971   3.783   2.961 -0.1328 -1.1871 -0.6073
  163SAPE   H3X18262   1.055   3.792   3.034 -1.3377  1.9733  0.5929
  163SAPE   H3Y18263   1.001   3.720   2.875  1.5899  2.8590 -3.3017
  163SAPE   C3418264   0.832   3.741   3.010 -0.8114  0.3485 -0.2361
  163SAPE   H4X18265   0.747   3.765   2.943 -1.4532  0.3478  0.5540
  163SAPE   H4Y18266   0.809   3.802   3.101  2.6150  1.5903 -0.0555
  163SAPE   C3518267   0.833   3.589   3.032  0.7279 -0.2616  0.0446
  163SAPE   H5X18268   0.859   3.541   2.935 -1.0600  1.8029 -1.5609
  163SAPE   H5Y18269   0.734   3.550   3.064 -0.9318  1.0616 -2.9718
  163SAPE   C3618270   0.936   3.532   3.134  0.3827 -0.4211  0.2842
  163SAPE   H6X18271   1.031   3.584   3.108 -0.6565  0.6504 -1.6362
  163SAPE   H6Y18272   0.938   3.422   3.123  0.2410 -0.2917 -1.1539
  163SAPE   C3718273   0.899   3.561   3.287 -0.2525 -0.1715  0.0775
  163SAPE   H7X18274   0.812   3.497   3.310  1.5952 -2.4768  1.0107
  163SAPE   H7Y18275   0.866   3.665   3.305 -0.4215 -0.4897  1.7500
  163SAPE   C3818276   1.010   3.527   3.387  0.2134  0.0552 -0.2577
  163SAPE   H8X18277   1.112   3.557   3.352  0.6763 -0.7479  0.3758
  163SAPE   H8Y18278   1.012   3.417   3.399  1.6426  0.1952  1.0776
  163SAPE   C3918279   0.973   3.605   3.514  0.0117  0.1623  0.4826
  163SAPE   H9X18280   0.864   3.605   3.534 -0.0591  0.8442  0.1537
  163SAPE   H9Y18281   1.008   3.710   3.496 -0.1085 -0.0089 -0.8790
  163SAPE  C31018282   1.047   3.558   3.640 -0.7081 -0.5691 -0.0035
  163SAPE  H10X18283   1.153   3.530   3.622 -0.2566  1.4465 -0.7583
  163SAPE  H10Y18284   0.998   3.464   3.675 -2.2979  0.0442 -0.4726
  163SAPE  C31118285   1.039   3.651   3.757 -0.1159  0.0398 -0.8226
  163SAPE  H11X18286   0.930   3.670   3.766  0.3420  1.9368  1.8036
  163SAPE  H11Y18287   1.090   3.748   3.742 -0.2066  0.1225 -0.6035
  163SAPE  C31218288   1.080   3.594   3.895 -0.3131  0.4202  0.3484
  163SAPE  H12X18289   1.191   3.589   3.898 -0.3793 -0.8531  1.4796
  163SAPE  H12Y18290   1.043   3.489   3.898  1.3313 -0.2675 -1.5543
  163SAPE  C31318291   1.015   3.692   3.996 -0.9591 -0.2536 -0.4042
  163SAPE  H13X18292   0.907   3.713   3.980 -0.9179 -0.3464 -0.8279
  163SAPE  H13Y18293   1.064   3.792   3.988 -0.4901 -0.4986 -0.6656
  163SAPE  C31418294   1.049   3.643   4.139  1.2763 -0.0786 -0.4629
  163SAPE  H14X18295   1.159   3.640   4.152  1.1182  0.0871  1.0339
  163SAPE  H14Y18296   1.008   3.541   4.157  0.1250  0.3375 -0.6001
  163SAPE  C31518297   0.998   3.741   4.245 -0.9609 -0.1785 -0.5117
  163SAPE  H15X18298   0.887   3.744   4.243 -1.0044 -0.4250  0.6456
  163SAPE  H15Y18299   1.029   3.846   4.224 -4.6673  0.8831 -1.3549
  163SAPE  C31618300   1.051   3.693   4.382 -0.6770  0.8126  0.3865
  163SAPE  H16X18301   1.161   3.694   4.372 -0.7147  1.7199 -0.0761
  163SAPE  H16Y18302   1.005   3.597   4.413 -0.5650  0.8628  0.7142
  163SAPE  C31718303   1.029   3.792   4.496  0.2263  0.2421 -0.4395
  163SAPE  H17X18304   0.920   3.814   4.493  0.4126  1.6354  1.3375
  163SAPE  H17Y18305   1.079   3.891   4.489  0.5330  0.0330 -1.3768
  163SAPE  C31818306   1.060   3.734   4.631  0.5545  0.0094 -0.1797
  163SAPE  H18X18307   1.168   3.707   4.630  0.7017  0.5510  0.2287
  163SAPE  H18Y18308   0.989   3.654   4.661  1.0599 -1.1347 -1.8661
  163SAPE  H18Z18309   1.049   3.806   4.715 -4.4241 -1.1129  0.4447
  164SAPE     N18310   4.104   3.286   2.038  0.0877  0.0795  0.0740
  164SAPE   HN118311   4.121   3.207   2.103 -0.7230  0.9734  1.4266
  164SAPE   HN218312   4.032   3.345   2.085  0.0623  0.5957 -0.5896
  164SAPE   HN318313   4.051   3.244   1.959  2.2252 -0.5066 -1.1315
  164SAPE   C1218314   4.231   3.357   2.001  0.5826 -0.2198 -0.8850
  164SAPE  H12A18315   4.205   3.437   1.928 -1.0203  1.0733  0.9839
  164SAPE  H12B18316   4.304   3.288   1.954 -1.9881 -1.6975 -2.9924
  164SAPE   C1118317   4.295   3.447   2.114 -0.6107  0.2282  0.3956
  164SAPE  H11A18318   4.224   3.529   2.136 -0.9258  0.1312 -0.2359
  164SAPE  H11B18319   4.391   3.489   2.076 -0.4813  0.2515  0.7479
  164SAPE     P18320   4.338   3.453   2.371  0.3527  0.0090  0.0755
  164SAPE   O1318321   4.464   3.404   2.444 -0.8798  0.0675 -0.1045
  164SAPE   O1418322   4.325   3.601   2.350  0.6956  0.1757  0.1341
  164SAPE   O1218323   4.325   3.368   2.231  0.2686  0.4832 -0.0194
  164SAPE   O1118324   4.224   3.411   2.458 -0.4552  0.1991  0.7763
  164SAPE    C118325   4.101   3.355   2.419 -0.2196 -0.2472 -0.6760
  164SAPE    HA18326   4.017   3.427   2.407 -0.4329 -0.3456  0.1911
  164SAPE    HB18327   4.106   3.300   2.322  0.8359 -0.2046 -0.6551
  164SAPE    C218328   4.059   3.244   2.522 -0.2979  0.1806  0.4971
  164SAPE    HS18329   3.962   3.208   2.483 -0.3759  2.1068 -1.2516
  164SAPE   O2118330   4.044   3.290   2.657 -0.0048 -0.6464  0.3872
  164SAPE   C2118331   3.967   3.389   2.690 -0.3759  0.1580 -0.0134
  164SAPE   O2218332   3.896   3.450   2.608  0.2849 -0.1837  0.2884
  164SAPE   C2218333   3.983   3.424   2.834  0.4932  0.8214 -0.4684
  164SAPE   H2R18334   3.958   3.532   2.831  1.6059  1.0650 -2.3782
  164SAPE   H2S18335   3.907   3.354   2.875  1.6429 -1.1965 -1.6532
  164SAPE    C318336   4.152   3.129   2.512  0.0123 -0.4592  0.3056
  164SAPE    HX18337   4.254   3.165   2.538 -0.1914  0.8512 -0.6351
  164SAPE    HY18338   4.164   3.097   2.406  1.6602 -1.9212  0.8793
  164SAPE   O3118339   4.099   3.019   2.593  0.3018 -0.0032  0.0378
  164SAPE   C3118340   4.150   3.013   2.711  0.0371 -0.1920 -0.1932
  164SAPE   O3218341   4.238   3.086   2.757 -0.3369  0.5273  0.2331
  164SAPE   C3218342   4.080   2.899   2.793 -0.3141 -0.3174  0.7717
  164SAPE   H2X18343   4.124   2.807   2.749  0.7669  0.2842  0.5564
  164SAPE   H2Y18344   3.970   2.897   2.778 -0.0233 -2.4594 -2.1113
  164SAPE   C2318345   4.120   3.398   2.902 -0.3120  0.1411  0.4106
  164SAPE   H3R18346   4.192   3.467   2.853  0.5530  1.1556  2.9728
  164SAPE   H3S18347   4.159   3.299   2.871  0.7856  0.4530  0.7571
  164SAPE   C2418348   4.127   3.415   3.052 -0.3458 -0.9462 -0.0257
  164SAPE   H4R18349   4.232   3.411   3.088  0.1775  1.2315 -1.1383
  164SAPE   H4S18350   4.075   3.327   3.095 -0.1742 -1.2883 -0.5122
  164SAPE   C2518351   4.067   3.538   3.112  0.0566 -0.5803  0.2248
  164SAPE   H5R18352   4.045   3.617   3.039 -0.0064  0.2199  1.0855
  164SAPE   C2618353   4.046   3.552   3.237  0.1182  0.5228 -0.5311
  164SAPE   H6R18354   4.007   3.645   3.279 -0.9260  0.0609 -0.4582
  164SAPE   C2718355   4.049   3.441   3.335 -0.1229 -0.3401 -0.7312
  164SAPE   H7R18356   4.156   3.419   3.355  0.5282  0.4679 -3.0315
  164SAPE   H7S18357   4.014   3.340   3.304 -1.9347 -0.1601  0.5790
  164SAPE   C2818358   3.969   3.470   3.465 -0.2184 -0.2002 -0.6918
  164SAPE   H8R18359   3.865   3.433   3.466 -0.2631 -0.1094  0.8048
  164SAPE   C2918360   4.011   3.534   3.573  0.0096 -0.0304  0.5212
  164SAPE   H9R18361   3.932   3.564   3.644 -0.5471 -0.6384  0.1745
  164SAPE  C21018362   4.145   3.598   3.603  0.2040 -0.0983  0.1371
  164SAPE  H10R18363   4.221   3.539   3.547 -0.5521 -0.4822 -0.5053
  164SAPE  H10S18364   4.163   3.568   3.708 -0.8886 -1.6517 -0.0835
  164SAPE  C21118365   4.175   3.748   3.599  0.3410  0.2755  0.0696
  164SAPE  H11R18366   4.202   3.786   3.499  1.0911  2.0916  0.9246
  164SAPE  C21218367   4.184   3.832   3.704  0.4755  0.4505 -0.5203
  164SAPE  H12R18368   4.192   3.938   3.675 -0.6435  0.3537 -1.2228
  164SAPE  C21318369   4.164   3.801   3.849 -0.0025  0.2069 -0.7197
  164SAPE  H13R18370   4.076   3.733   3.856  0.0671  0.0549 -1.3243
  164SAPE  H13S18371   4.134   3.894   3.903 -0.1856 -0.5743  0.5881
  164SAPE  C21418372   4.280   3.738   3.915 -0.0692 -0.4013 -0.0787
  164SAPE  H14R18373   4.360   3.704   3.847 -0.0303 -0.3066 -0.0814
  164SAPE  C21518374   4.294   3.736   4.050  0.0341  0.0365  0.4538
  164SAPE  H15R18375   4.389   3.693   4.087 -0.5971 -1.2705  0.6062
  164SAPE  C21618376   4.209   3.791   4.153  0.0450 -0.0399 -0.2633
  164SAPE  H16R18377   4.181   3.710   4.223  1.4638 -1.0601 -0.8393
  164SAPE  H16S18378   4.118   3.837   4.108 -0.6545 -1.5100 -0.3868
  164SAPE  C21718379   4.278   3.895   4.239  0.6246  0.4487  0.3281
  164SAPE  H17R18380   4.199   3.918   4.313 -1.7264  2.1233 -2.4894
  164SAPE  H17S18381   4.310   3.979   4.173 -0.9074  1.1575  0.4334
  164SAPE  C21818382   4.393   3.857   4.333  0.6650  0.5972  0.5599
  164SAPE  H18R18383   4.456   3.946   4.352  1.2968 -0.1157  1.9970
  164SAPE  H18S18384   4.467   3.794   4.278  0.3939 -0.3604  1.2646
  164SAPE  C21918385   4.360   3.777   4.460  0.3716 -0.0248 -0.0939
  164SAPE  H19R18386   4.295   3.690   4.437  3.2428 -1.1861 -5.0512
  164SAPE  H19S18387   4.310   3.842   4.536  0.2783  0.1614 -0.3135
  164SAPE  C22018388   4.487   3.719   4.531 -0.0244  0.2299  0.2762
  164SAPE  H20R18389   4.455   3.650   4.612  3.2473  0.0034  1.5106
  164SAPE  H20S18390   4.549   3.800   4.575  2.2141 -0.5415 -1.2561
  164SAPE  H20T18391   4.538   3.661   4.451 -0.9282 -0.1830 -0.0145
  164SAPE   C3318392   4.126   2.891   2.942  0.0247 -0.4650  0.2653
  164SAPE   H3X18393   4.237   2.893   2.939  0.0236  1.9284 -0.2377
  164SAPE   H3Y18394   4.094   2.792   2.980  1.2051  0.0891  3.0219
  164SAPE   C3418395   4.072   3.007   3.029  0.2623 -0.6214  0.7363
  164SAPE   H4X18396   3.963   2.985   3.032  0.3354 -0.9142  1.4636
  164SAPE   H4Y18397   4.084   3.103   2.974 -0.0634  0.9875  3.3247
  164SAPE   C3518398   4.126   3.009   3.168 -0.6088  0.0240 -0.8537
  164SAPE   H5X18399   4.073   3.086   3.229 -0.6504 -1.7739  1.5427
  164SAPE   H5Y18400   4.235   3.030   3.178 -0.5808 -1.1227  4.2283
  164SAPE   C3618401   4.108   2.869   3.248  0.1821 -0.0428  0.1841
  164SAPE   H6X18402   4.178   2.791   3.212 -2.2636 -3.0455  1.4965
  164SAPE   H6Y18403   4.005   2.827   3.241 -0.0252  0.5099 -0.1867
  164SAPE   C3718404   4.131   2.872   3.396 -0.1869 -0.2941 -0.6687
  164SAPE   H7X18405   4.236   2.898   3.421  0.3318 -1.9824 -0.9206
  164SAPE   H7Y18406   4.108   2.770   3.434 -2.1765  0.3669 -0.0083
  164SAPE   C3818407   4.043   2.976   3.476  0.4096  0.1909  0.4626
  164SAPE   H8X18408   3.934   2.959   3.462 -0.1821  0.7798  3.7022
  164SAPE   H8Y18409   4.071   3.081   3.452 -1.9274  0.5915 -0.8506
  164SAPE   C3918410   4.056   2.979   3.630  0.5042 -0.3822 -0.6643
  164SAPE   H9X18411   4.158   3.018   3.651  0.4437 -1.1505  1.2989
  164SAPE   H9Y18412   4.047   2.876   3.671  0.5708 -0.8563 -1.7800
  164SAPE  C31018413   3.952   3.062   3.715  0.0598 -0.2261  0.2371
  164SAPE  H10X18414   3.854   3.017   3.687  0.0005  0.9059 -1.5989
  164SAPE  H10Y18415   3.954   3.168   3.682 -1.1673  0.4992  2.3243
  164SAPE  C31118416   3.983   3.059   3.859 -0.7297  0.3724  0.7773
  164SAPE  H11X18417   4.089   3.087   3.878 -0.5140  1.1920 -1.3257
  164SAPE  H11Y18418   3.982   2.954   3.895 -1.2206  0.3629  0.7461
  164SAPE  C31218419   3.891   3.142   3.961 -1.2295 -0.0951  0.1497
  164SAPE  H12X18420   3.914   3.123   4.068  0.9322 -1.8725 -0.5405
  164SAPE  H12Y18421   3.789   3.106   3.936 -0.8957  0.6950 -2.6321
  164SAPE  C31318422   3.904   3.286   3.926  0.0386  0.2202 -0.4651
  164SAPE  H13X18423   3.844   3.307   3.835  0.7399 -2.5496 -1.6697
  164SAPE  H13Y18424   4.008   3.311   3.895  0.1366 -1.9961 -2.1570
  164SAPE  C31418425   3.867   3.373   4.050  1.0914  0.8239  0.5071
  164SAPE  H14X18426   3.894   3.319   4.144 -1.4168  0.7125  1.2343
  164SAPE  H14Y18427   3.757   3.380   4.056  1.0019  0.4993 -0.6245
  164SAPE  C31518428   3.932   3.510   4.039  0.4588  0.3215 -0.3891
  164SAPE  H15X18429   3.918   3.572   3.948  2.1019  1.3959  0.0685
  164SAPE  H15Y18430   4.038   3.485   4.058  1.0440 -0.2677 -3.8156
  164SAPE  C31618431   3.873   3.600   4.152 -0.5604 -0.6029  0.6065
  164SAPE  H16X18432   3.763   3.601   4.161 -0.5399  0.1115  0.8976
  164SAPE  H16Y18433   3.906   3.702   4.122  0.8881 -0.9500  0.9056
  164SAPE  C31718434   3.934   3.569   4.284  0.6610  0.1956 -0.8144
  164SAPE  H17X18435   4.023   3.509   4.257  0.1996 -0.5863 -0.6519
  164SAPE  H17Y18436   3.870   3.489   4.330  1.9549 -1.6251 -2.0501
  164SAPE  C31818437   3.954   3.676   4.391 -0.1274 -0.3580 -0.2542
  164SAPE  H18X18438   3.992   3.768   4.342  0.0496 -0.7033 -0.7761
  164SAPE  H18Y18439   4.031   3.639   4.462  1.1907  0.2907 -1.3112
  164SAPE  H18Z18440   3.860   3.711   4.439  1.0219 -0.1728  1.9652
  165SAPE     N18441   3.682   4.636   2.090  0.1944 -0.0456 -0.2942
  165SAPE   HN118442   3.689   4.533   2.085 -1.0589 -0.1025 -1.7905
  165SAPE   HN218443   3.764   4.687   2.051 -0.8121  2.1156  0.2506
  165SAPE   HN318444   3.666   4.659   2.190 -0.8220 -0.4566 -0.3494
  165SAPE   C1218445   3.568   4.687   2.009  0.7785 -0.5242 -0.6538
  165SAPE  H12A18446   3.585   4.666   1.901  1.3249 -0.1733 -0.6433
  165SAPE  H12B18447   3.560   4.798   2.018  0.0279 -0.6661  0.7195
  165SAPE   C1118448   3.436   4.619   2.048 -0.2884 -0.1536 -0.5908
  165SAPE  H11A18449   3.393   4.663   2.141 -3.4813  0.4393 -2.2037
  165SAPE  H11B18450   3.463   4.513   2.065  2.6105  0.7523  1.2548
  165SAPE     P18451   3.259   4.736   1.892 -0.0456 -0.2128 -0.3067
  165SAPE   O1318452   3.347   4.821   1.806  0.3754  0.1832  0.2693
  165SAPE   O1418453   3.141   4.692   1.821 -1.1362 -0.2285  0.1815
  165SAPE   O1218454   3.346   4.613   1.945  0.1109  0.1078  0.2350
  165SAPE   O1118455   3.224   4.829   2.015  0.5801  0.2939 -0.9734
  165SAPE    C118456   3.134   4.774   2.121  0.6078  0.2689  0.1296
  165SAPE    HA18457   3.047   4.715   2.084  1.4885 -0.6936 -0.4536
  165SAPE    HB18458   3.185   4.705   2.192 -0.6328  0.9530  1.7542
  165SAPE    C218459   3.058   4.881   2.201 -0.5613  0.3277  0.0856
  165SAPE    HS18460   3.013   4.952   2.129  0.3472  1.1441  0.2982
  165SAPE   O2118461   3.156   4.946   2.290 -0.0157 -0.5781  0.4523
  165SAPE   C2118462   3.107   5.038   2.367  0.0107  0.1563  0.7929
  165SAPE   O2218463   2.994   5.086   2.356 -0.2691 -0.6606  0.1641
  165SAPE   C2218464   3.210   5.070   2.479  0.6051  0.3160 -0.7256
  165SAPE   H2R18465   3.286   4.989   2.471  0.8773  0.7259 -2.9512
  165SAPE   H2S18466   3.262   5.166   2.464  4.8723 -1.0707  2.8890
  165SAPE    C318467   2.935   4.809   2.273  0.0384 -0.0323 -0.0245
  165SAPE    HX18468   2.863   4.775   2.196  0.4499  1.6965 -1.2417
  165SAPE    HY18469   2.882   4.888   2.331  0.2661  0.8381 -0.9746
  165SAPE   O3118470   2.979   4.696   2.352 -0.4477 -0.1891 -0.0772
  165SAPE   C3118471   2.896   4.659   2.444 -0.7068  0.1163  0.0045
  165SAPE   O3218472   2.800   4.719   2.485  0.1818  0.1857  0.0407
  165SAPE   C3218473   2.956   4.535   2.509  0.2525  0.4023  0.0492
  165SAPE   H2X18474   2.935   4.447   2.445 -2.2933  2.6778 -2.4963
  165SAPE   H2Y18475   2.912   4.525   2.610  1.3321  1.6833  0.6779
  165SAPE   C2318476   3.145   5.089   2.617  0.2955 -0.2452  0.6962
  165SAPE   H3R18477   3.073   5.006   2.636  0.2833 -0.2477  0.6408
  165SAPE   H3S18478   3.092   5.186   2.633 -0.6133 -0.5992 -0.0524
  165SAPE   C2418479   3.254   5.086   2.731 -0.5424 -0.2792 -0.0584
  165SAPE   H4R18480   3.209   5.130   2.823 -1.4058  2.0287 -1.4903
  165SAPE   H4S18481   3.325   5.159   2.685 -0.7180 -0.1309 -0.0979
  165SAPE   C2518482   3.308   4.947   2.767 -0.0836  0.3662 -1.0292
  165SAPE   H5R18483   3.360   4.891   2.688  0.3480  1.1123 -1.2801
  165SAPE   C2618484   3.305   4.895   2.893  0.3041 -0.0818 -0.0845
  165SAPE   H6R18485   3.351   4.795   2.905 -0.3555 -0.1544  2.2199
  165SAPE   C2718486   3.261   4.964   3.017  0.3230  0.7262  0.9971
  165SAPE   H7R18487   3.268   5.074   3.006  0.5825  0.5617 -0.7068
  165SAPE   H7S18488   3.333   4.930   3.095 -0.5768  0.2330  1.6191
  165SAPE   C2818489   3.119   4.925   3.054  0.0269  0.3440  0.3738
  165SAPE   H8R18490   3.050   4.922   2.969 -2.9629 -0.5846  2.6846
  165SAPE   C2918491   3.069   4.906   3.179 -0.2237  0.1594 -1.0814
  165SAPE   H9R18492   2.962   4.879   3.185  0.4828 -2.5288  2.7067
  165SAPE  C21018493   3.138   4.926   3.314  0.5129  0.6411  0.2289
  165SAPE  H10R18494   3.077   4.973   3.394  2.0934  2.2363  0.5587
  165SAPE  H10S18495   3.212   5.008   3.304  0.4214  0.7660  0.5507
  165SAPE  C21118496   3.212   4.802   3.360 -0.4739 -0.3117 -0.2245
  165SAPE  H11R18497   3.216   4.716   3.292 -3.3694 -0.8003  0.1039
  165SAPE  C21218498   3.275   4.782   3.477 -0.7226  0.1697  0.2535
  165SAPE  H12R18499   3.318   4.681   3.486 -0.9702  0.0808  0.4276
  165SAPE  C21318500   3.268   4.875   3.593 -0.3663  0.5146 -0.2771
  165SAPE  H13R18501   3.195   4.956   3.574 -1.0895 -0.1365 -0.3136
  165SAPE  H13S18502   3.363   4.931   3.611  0.1296  0.4984 -2.5077
  165SAPE  C21418503   3.224   4.793   3.710  0.1861  0.3852  0.0442
  165SAPE  H14R18504   3.134   4.733   3.688  0.5265  0.1123 -0.6176
  165SAPE  C21518505   3.269   4.788   3.836 -0.1787  0.5611 -0.7814
  165SAPE  H15R18506   3.227   4.712   3.904 -1.1019  1.9277  0.2404
  165SAPE  C21618507   3.385   4.868   3.893  0.1273 -0.3611 -0.7205
  165SAPE  H16R18508   3.351   4.955   3.953  1.4057  1.2721 -2.2459
  165SAPE  H16S18509   3.453   4.904   3.813  0.2153 -0.7034 -0.8001
  165SAPE  C21718510   3.475   4.794   3.986  0.4140  0.4389  0.1759
  165SAPE  H17R18511   3.555   4.864   4.017  0.5868  1.2067 -1.8858
  165SAPE  H17S18512   3.531   4.710   3.940  3.0657  2.0924  0.1691
  165SAPE  C21818513   3.411   4.756   4.126 -0.6273 -0.1204  1.0105
  165SAPE  H18R18514   3.309   4.714   4.112 -1.6330  2.4392  0.0208
  165SAPE  H18S18515   3.387   4.845   4.188 -0.1903  1.2382 -0.6793
  165SAPE  C21918516   3.507   4.666   4.201  0.5853  0.6844  0.3604
  165SAPE  H19R18517   3.602   4.721   4.212  1.4030  0.1768 -3.0431
  165SAPE  H19S18518   3.521   4.577   4.135 -0.0623  0.9350 -0.1277
  165SAPE  C22018519   3.459   4.602   4.332  0.5157  0.1447 -0.8630
  165SAPE  H20R18520   3.386   4.521   4.312  1.4125 -0.0850 -3.6195
  165SAPE  H20S18521   3.415   4.672   4.406 -3.0863 -2.0261 -0.7044
  165SAPE  H20T18522   3.544   4.555   4.385 -0.6542 -0.0447  0.9359
  165SAPE   C3318523   3.109   4.525   2.540  0.3544  0.2341  1.0605
  165SAPE   H3X18524   3.167   4.535   2.446 -2.6705  1.2245 -0.8722
  165SAPE   H3Y18525   3.132   4.418   2.561  1.4567  0.2782  0.1126
  165SAPE   C3418526   3.152   4.618   2.657 -0.1666 -0.2243  0.2829
  165SAPE   H4X18527   3.126   4.726   2.649 -0.9076  0.0359  4.4551
  165SAPE   H4Y18528   3.263   4.623   2.644 -0.2516 -0.4148 -0.5980
  165SAPE   C3518529   3.107   4.569   2.799  0.2416 -0.3006  0.7198
  165SAPE   H5X18530   2.999   4.583   2.821 -0.0383 -1.7468  0.3687
  165SAPE   H5Y18531   3.164   4.640   2.864 -0.2137  1.9365 -1.1819
  165SAPE   C3618532   3.143   4.427   2.845  0.8371  0.4495 -0.0627
  165SAPE   H6X18533   3.253   4.420   2.834  0.6615 -1.0569 -1.2293
  165SAPE   H6Y18534   3.095   4.355   2.775  0.5901  0.4150  0.1428
  165SAPE   C3718535   3.104   4.396   2.995 -0.7471  0.1407 -0.2355
  165SAPE   H7X18536   3.123   4.287   3.005  1.0268  0.4279 -0.2180
  165SAPE   H7Y18537   2.997   4.424   3.005 -0.7770  0.4876 -1.3441
  165SAPE   C3818538   3.193   4.470   3.098  0.0022  1.0289 -0.0438
  165SAPE   H8X18539   3.176   4.578   3.119  0.3319  1.0031  0.3624
  165SAPE   H8Y18540   3.297   4.473   3.060 -0.1062  0.4727 -0.3839
  165SAPE   C3918541   3.189   4.396   3.232  0.8053  0.3401 -0.4279
  165SAPE   H9X18542   3.277   4.430   3.290  0.4497  1.0097 -0.2753
  165SAPE   H9Y18543   3.205   4.287   3.217  0.7929  0.5976 -2.6135
  165SAPE  C31018544   3.067   4.432   3.312  0.1603  0.7598 -0.3961
  165SAPE  H10X18545   2.970   4.402   3.267 -0.0029 -1.2986  1.1314
  165SAPE  H10Y18546   3.061   4.543   3.313  3.8444  1.1112 -0.8054
  165SAPE  C31118547   3.082   4.372   3.454 -0.1253  0.1518  0.1341
  165SAPE  H11X18548   3.178   4.390   3.507 -0.4067 -2.1875  1.5835
  165SAPE  H11Y18549   3.067   4.262   3.445 -0.3877  0.2539 -0.8273
  165SAPE  C31218550   2.972   4.409   3.556  0.0982 -0.1044 -0.1480
  165SAPE  H12X18551   2.871   4.402   3.510 -0.3588  2.3402  0.3922
  165SAPE  H12Y18552   2.992   4.511   3.594  1.9245 -0.2728 -0.5518
  165SAPE  C31318553   2.975   4.313   3.670 -0.4339  0.1781  0.3947
  165SAPE  H13X18554   3.073   4.327   3.721 -0.2964 -0.3236  0.2693
  165SAPE  H13Y18555   2.971   4.207   3.637 -1.3312  0.4644 -0.4513
  165SAPE  C31418556   2.863   4.347   3.773 -0.4123 -0.4425  0.2124
  165SAPE  H14X18557   2.770   4.301   3.731 -0.0686 -2.3376  1.3865
  165SAPE  H14Y18558   2.846   4.457   3.776  1.3792 -0.1530  2.9463
  165SAPE  C31518559   2.881   4.309   3.921  1.0330  0.3942  0.0115
  165SAPE  H15X18560   2.972   4.363   3.955  1.4595 -0.0099 -0.4726
  165SAPE  H15Y18561   2.895   4.199   3.920 -0.6261  0.1279  0.8843
  165SAPE  C31618562   2.750   4.359   3.995 -0.7262 -0.5395 -0.1072
  165SAPE  H16X18563   2.654   4.311   3.967 -2.2548 -0.9075  4.7387
  165SAPE  H16Y18564   2.742   4.468   3.972 -0.5845 -0.4076  0.4457
  165SAPE  C31718565   2.776   4.348   4.149 -0.0643  0.3335 -0.0308
  165SAPE  H17X18566   2.683   4.383   4.199 -0.1524  0.9568 -0.6145
  165SAPE  H17Y18567   2.863   4.417   4.150  0.0620  0.1740  0.0331
  165SAPE  C31818568   2.820   4.213   4.209 -0.5275 -0.0558 -0.3412
  165SAPE  H18X18569   2.876   4.241   4.301 -0.8335 -1.9266  0.4549
  165SAPE  H18Y18570   2.883   4.168   4.130  0.5106  2.8076 -1.2889
  165SAPE  H18Z18571   2.733   4.148   4.232  0.0749 -1.5144 -1.9601
  166SAPE     N18572   4.909   4.575   2.015  0.5201 -0.5922  0.2469
  166SAPE   HN118573   4.897   4.473   2.006  0.1128 -0.6871  1.6829
  166SAPE   HN218574   4.813   4.614   2.032 -0.0560 -0.7173 -2.3283
  166SAPE   HN318575   4.939   4.628   1.930  3.0415 -2.4581 -0.1420
  166SAPE   C1218576   4.994   4.607   2.137 -0.1630  0.3124  0.3684
  166SAPE  H12A18577   4.965   4.710   2.167  1.2375  0.6203  0.7301
  166SAPE  H12B18578   5.100   4.597   2.108  0.0891  0.0058  1.3538
  166SAPE   C1118579   4.956   4.529   2.265  0.0240 -0.0261 -0.4905
  166SAPE  H11A18580   5.023   4.560   2.347 -0.0500 -1.8190  0.2974
  166SAPE  H11B18581   4.970   4.420   2.249 -2.7883 -0.1167 -3.4608
  166SAPE     P18582   4.742   4.616   2.405  0.1279  0.0747  0.1503
  166SAPE   O1318583   4.806   4.745   2.429  0.2693  0.2619  0.0665
  166SAPE   O1418584   4.595   4.611   2.380  0.1156  0.5094  0.2991
  166SAPE   O1218585   4.814   4.540   2.289 -0.2740 -0.2334  0.1069
  166SAPE   O1118586   4.773   4.525   2.535 -0.2281  0.4685  0.0305
  166SAPE    C118587   4.907   4.500   2.585 -0.3714 -0.2664  0.2087
  166SAPE    HA18588   4.937   4.406   2.534  2.2354  0.3025  0.5248
  166SAPE    HB18589   4.976   4.584   2.562 -1.4726  1.3253  2.3709
  166SAPE    C218590   4.904   4.494   2.738 -0.2122  0.4870 -0.3943
  166SAPE    HS18591   4.852   4.399   2.761  0.6762  0.4154  1.4577
  166SAPE   O2118592   4.834   4.611   2.791 -0.3376  0.0997 -0.2952
  166SAPE   C2118593   4.718   4.576   2.869  0.5631  0.0902  0.3973
  166SAPE   O2218594   4.684   4.462   2.886  0.5268 -0.2735  0.4913
  166SAPE   C2218595   4.650   4.700   2.925 -0.4753 -0.3233  0.1819
  166SAPE   H2R18596   4.704   4.786   2.879  0.7075 -0.2564  1.6232
  166SAPE   H2S18597   4.547   4.693   2.884 -0.7155 -0.3632  0.7885
  166SAPE    C318598   5.049   4.486   2.808 -0.2242  0.6213 -0.3455
  166SAPE    HX18599   5.114   4.574   2.791 -0.5264  0.6154 -1.5938
  166SAPE    HY18600   5.100   4.395   2.769  0.3428  1.4538 -1.5704
  166SAPE   O3118601   5.037   4.457   2.947  0.2383  0.3096 -0.5796
  166SAPE   C3118602   5.022   4.567   3.024  0.2600  0.2669  0.5422
  166SAPE   O3218603   5.026   4.685   2.985  0.1684  0.1744  0.3825
  166SAPE   C3218604   4.999   4.528   3.170 -0.2739  0.2152  0.3253
  166SAPE   H2X18605   5.091   4.481   3.210  2.1623  5.0215  1.1232
  166SAPE   H2Y18606   4.911   4.465   3.195 -0.0346 -1.3065 -2.2640
  166SAPE   C2318607   4.655   4.706   3.084  0.1414 -0.7965  0.1504
  166SAPE   H3R18608   4.644   4.811   3.119  2.7598  0.6378 -2.7903
  166SAPE   H3S18609   4.752   4.670   3.125  1.3815  0.4014 -1.5794
  166SAPE   C2418610   4.534   4.631   3.147 -0.1085  0.5081 -0.3700
  166SAPE   H4R18611   4.534   4.523   3.120  1.8672  0.8113 -1.7918
  166SAPE   H4S18612   4.435   4.665   3.112 -0.2876  0.8534  0.4379
  166SAPE   C2518613   4.545   4.638   3.299  0.7947  0.1725 -0.7570
  166SAPE   H5R18614   4.566   4.739   3.338  2.1654  0.5847 -2.4409
  166SAPE   C2618615   4.555   4.534   3.385  0.0005 -0.0654 -0.1369
  166SAPE   H6R18616   4.540   4.547   3.493 -1.1985  0.4297 -0.3415
  166SAPE   C2718617   4.564   4.386   3.357  0.3209  0.0853 -0.8989
  166SAPE   H7R18618   4.628   4.341   3.437 -0.7894  0.7667  0.4168
  166SAPE   H7S18619   4.625   4.375   3.265 -0.6597 -1.6186 -1.3802
  166SAPE   C2818620   4.441   4.293   3.359 -0.3253 -0.7456  0.2502
  166SAPE   H8R18621   4.382   4.290   3.266 -0.1165 -2.1994  0.1354
  166SAPE   C2918622   4.403   4.228   3.469 -0.2974 -0.4934 -0.0740
  166SAPE   H9R18623   4.312   4.167   3.463  0.2144 -1.1627 -1.3945
  166SAPE  C21018624   4.477   4.216   3.601 -0.4586  0.3584  0.1156
  166SAPE  H10R18625   4.529   4.314   3.617  0.7478 -0.4781  1.5972
  166SAPE  H10S18626   4.550   4.134   3.594  0.4224  1.1571 -0.2790
  166SAPE  C21118627   4.384   4.174   3.712  0.5345 -0.5258  0.2153
  166SAPE  H11R18628   4.288   4.133   3.678  0.5239 -2.4478  2.2813
  166SAPE  C21218629   4.415   4.172   3.845 -0.4498  0.4861 -0.6567
  166SAPE  H12R18630   4.338   4.133   3.913 -0.5871 -2.1535 -2.1889
  166SAPE  C21318631   4.535   4.232   3.913 -0.2890  0.1230 -0.2005
  166SAPE  H13R18632   4.586   4.298   3.840  2.5067 -0.3034  1.2667
  166SAPE  H13S18633   4.610   4.155   3.941  0.6560  1.6295  1.6796
  166SAPE  C21418634   4.480   4.307   4.035  0.2455 -0.5339 -0.4136
  166SAPE  H14R18635   4.406   4.384   4.010  0.6748 -0.8008 -2.6893
  166SAPE  C21518636   4.494   4.274   4.165 -0.4089 -0.7234  0.2600
  166SAPE  H15R18637   4.462   4.350   4.238 -0.3443 -1.2521  0.8459
  166SAPE  C21618638   4.586   4.167   4.217 -0.2310  0.0562  0.3092
  166SAPE  H16R18639   4.567   4.080   4.151 -0.8369  0.5184 -0.1430
  166SAPE  H16S18640   4.561   4.151   4.323  1.0507  0.0805  0.6325
  166SAPE  C21718641   4.736   4.204   4.199 -0.1827  0.1990 -0.9346
  166SAPE  H17R18642   4.752   4.260   4.104  2.6459 -1.1449 -1.3368
  166SAPE  H17S18643   4.801   4.115   4.196 -0.5733 -0.0610 -2.2824
  166SAPE  C21818644   4.795   4.296   4.314  0.7423  0.2259  0.4205
  166SAPE  H18R18645   4.764   4.260   4.415 -1.5872  0.9682  0.0333
  166SAPE  H18S18646   4.742   4.392   4.296 -2.0111 -0.9558  1.6319
  166SAPE  C21918647   4.945   4.314   4.323 -0.0278 -0.5803  0.2273
  166SAPE  H19R18648   4.972   4.370   4.231 -1.7706  0.7071  0.4555
  166SAPE  H19S18649   4.980   4.209   4.311  1.2333  0.0151 -1.8997
  166SAPE  C22018650   5.001   4.384   4.446  0.8409 -0.4551 -0.1911
  166SAPE  H20R18651   5.112   4.397   4.450  0.8429 -0.5762  0.1229
  166SAPE  H20S18652   4.986   4.318   4.534  1.8272 -0.0956  0.2752
  166SAPE  H20T18653   4.963   4.487   4.462 -0.4378 -1.1203  1.2664
  166SAPE   C3318654   4.995   4.654   3.261  0.1065 -0.0402 -0.1008
  166SAPE   H3X18655   4.916   4.725   3.226 -0.4483 -0.8901 -0.6087
  166SAPE   H3Y18656   5.088   4.714   3.262 -0.1783  0.4113 -0.2209
  166SAPE   C3418657   4.947   4.604   3.396 -0.3253  0.3727 -0.3121
  166SAPE   H4X18658   5.034   4.558   3.447 -1.4459 -0.7960  0.6116
  166SAPE   H4Y18659   4.875   4.520   3.389 -0.3708  0.3522  0.3388
  166SAPE   C3518660   4.893   4.713   3.483 -0.0090 -0.0076 -0.0091
  166SAPE   H5X18661   4.797   4.731   3.431  0.3951  0.0817 -0.7370
  166SAPE   H5Y18662   4.957   4.803   3.478  0.4868 -0.4293 -1.7965
  166SAPE   C3618663   4.876   4.662   3.623  0.0006  0.0576  0.3586
  166SAPE   H6X18664   4.972   4.654   3.678  1.1495 -1.1956 -1.6903
  166SAPE   H6Y18665   4.852   4.554   3.606  1.6235 -0.3448  0.4008
  166SAPE   C3718666   4.761   4.720   3.708 -0.1706 -0.1670  0.0839
  166SAPE   H7X18667   4.663   4.724   3.657 -0.6190  0.1117  0.9560
  166SAPE   H7Y18668   4.789   4.826   3.728  2.2626 -0.8951  0.9475
  166SAPE   C3818669   4.750   4.640   3.840  1.0432  0.6375 -0.6106
  166SAPE   H8X18670   4.847   4.599   3.876  0.0306 -0.3073  1.1774
  166SAPE   H8Y18671   4.681   4.555   3.821  0.6742  0.6871  0.4747
  166SAPE   C3918672   4.695   4.707   3.962  0.1112 -0.7287  0.4837
  166SAPE   H9X18673   4.589   4.736   3.942 -0.1434 -1.0030  1.4080
  166SAPE   H9Y18674   4.751   4.801   3.982 -0.3230 -0.1922 -0.7169
  166SAPE  C31018675   4.686   4.619   4.088 -0.1786 -0.4940  0.0672
  166SAPE  H10X18676   4.786   4.593   4.130 -0.6333 -1.0885  0.8213
  166SAPE  H10Y18677   4.649   4.525   4.041  0.9290  0.2278 -2.4232
  166SAPE  C31118678   4.588   4.674   4.183  0.7601 -0.0490  0.2636
  166SAPE  H11X18679   4.618   4.778   4.209  0.0715  0.5676 -1.2954
  166SAPE  H11Y18680   4.595   4.612   4.274 -1.9329 -1.0759 -0.1390
  166SAPE  C31218681   4.443   4.671   4.140  0.0315  0.1871  0.2358
  166SAPE  H12X18682   4.403   4.568   4.125  0.5074  0.0671 -0.2302
  166SAPE  H12Y18683   4.417   4.715   4.041  0.4229 -1.6665 -0.7373
  166SAPE  C31318684   4.347   4.746   4.225 -0.6254 -0.0462  0.7795
  166SAPE  H13X18685   4.245   4.757   4.183  0.3198 -1.2383 -2.0272
  166SAPE  H13Y18686   4.380   4.851   4.246 -1.2079  0.4518 -0.6872
  166SAPE  C31418687   4.307   4.677   4.356 -0.4967  0.2602  0.1219
  166SAPE  H14X18688   4.396   4.647   4.416 -1.0575  1.2390  1.4737
  166SAPE  H14Y18689   4.251   4.583   4.335  1.3535 -0.3470 -2.7271
  166SAPE  C31518690   4.207   4.740   4.440 -0.0912 -0.2230 -0.1519
  166SAPE  H15X18691   4.109   4.704   4.401  1.4792 -2.6454 -2.1251
  166SAPE  H15Y18692   4.213   4.851   4.429 -2.2155  0.1443  1.5875
  166SAPE  C31618693   4.219   4.712   4.588  0.2281 -1.0762 -0.6139
  166SAPE  H16X18694   4.320   4.723   4.633 -0.4845 -1.2038  1.0893
  166SAPE  H16Y18695   4.198   4.605   4.612 -0.5743 -0.2608  2.8292
  166SAPE  C31718696   4.124   4.786   4.678  0.0649 -0.2279 -0.0381
  166SAPE  H17X18697   4.023   4.760   4.640 -0.5317  2.3746 -0.3758
  166SAPE  H17Y18698   4.137   4.896   4.679  1.9771 -0.4155  1.0688
  166SAPE  C31818699   4.132   4.739   4.827  0.2196 -0.2574 -0.1074
  166SAPE  H18X18700   4.083   4.816   4.890  0.0425 -2.5930  2.8736
  166SAPE  H18Y18701   4.240   4.735   4.855  0.2869  0.3171 -0.2810
  166SAPE  H18Z18702   4.087   4.638   4.840  2.1494 -1.0654  0.7301
  167SAPE     N18703   4.164   2.172   1.910  0.0296  0.8843  0.0487
  167SAPE   HN118704   4.226   2.159   1.827  0.2481 -1.1959  0.4657
  167SAPE   HN218705   4.067   2.203   1.889  0.2192  0.2013 -2.0872
  167SAPE   HN318706   4.206   2.245   1.971  0.8397 -0.0188  0.6020
  167SAPE   C1218707   4.167   2.037   1.987  1.6555 -0.0569 -0.5614
  167SAPE  H12A18708   4.109   1.964   1.925  2.0186 -0.4578 -0.4334
  167SAPE  H12B18709   4.115   2.061   2.082 -1.0434  2.1076 -2.4238
  167SAPE   C1118710   4.316   1.986   2.024 -0.3440 -1.1953  0.3656
  167SAPE  H11A18711   4.319   1.916   2.110  0.9218  1.8394  3.0042
  167SAPE  H11B18712   4.376   2.074   2.056 -0.7838 -0.8524  0.2586
  167SAPE     P18713   4.397   1.779   1.882 -0.3708 -0.0577 -0.0701
  167SAPE   O1318714   4.352   1.749   1.742 -0.2427  0.2217 -0.8080
  167SAPE   O1418715   4.542   1.748   1.904 -0.0352  0.1157 -0.4929
  167SAPE   O1218716   4.370   1.931   1.906  0.2860 -0.1060 -0.5605
  167SAPE   O1118717   4.314   1.702   1.995  0.0878  0.3970 -0.5610
  167SAPE    C118718   4.181   1.664   1.982  0.2698 -0.1770  0.1268
  167SAPE    HA18719   4.117   1.746   1.943  1.4882 -0.8304 -3.6381
  167SAPE    HB18720   4.170   1.588   1.902 -2.4203 -0.2487  0.4658
  167SAPE    C218721   4.118   1.604   2.110 -0.6712 -0.9170 -0.2911
  167SAPE    HS18722   4.011   1.633   2.111 -1.0311 -2.1295 -1.2025
  167SAPE   O2118723   4.193   1.645   2.228 -0.2022  0.3017 -0.4286
  167SAPE   C2118724   4.156   1.759   2.272  0.1357  0.0511  0.1392
  167SAPE   O2218725   4.095   1.849   2.209 -0.0611  0.2714  0.4148
  167SAPE   C2218726   4.212   1.771   2.413  0.2257 -0.4589 -0.6593
  167SAPE   H2R18727   4.277   1.689   2.449  1.4234  0.2273 -1.2140
  167SAPE   H2S18728   4.277   1.861   2.404 -0.8336  0.2905 -1.1794
  167SAPE    C318729   4.128   1.452   2.100  0.5841  0.1757  0.4296
  167SAPE    HX18730   4.228   1.412   2.073  0.7740 -0.3873  1.8769
  167SAPE    HY18731   4.072   1.421   2.009 -0.7054  2.9514  0.1738
  167SAPE   O3118732   4.085   1.380   2.217  0.0743  0.2997  0.2160
  167SAPE   C3118733   4.187   1.367   2.310 -0.4361  0.2698 -0.4474
  167SAPE   O3218734   4.304   1.395   2.288  0.7154 -0.1938  0.0711
  167SAPE   C3218735   4.140   1.314   2.446  0.0889  1.1406 -1.0293
  167SAPE   H2X18736   4.083   1.221   2.426  1.1438  0.4469 -0.8347
  167SAPE   H2Y18737   4.074   1.394   2.487 -2.0650 -1.3076  0.5617
  167SAPE   C2318738   4.089   1.794   2.505 -0.0310  0.0267 -0.0541
  167SAPE   H3R18739   4.043   1.895   2.499 -2.0376 -0.6485  2.0956
  167SAPE   H3S18740   4.124   1.796   2.611 -1.7902  0.2849  0.5603
  167SAPE   C2418741   3.972   1.696   2.495  0.5085  0.5069 -0.3346
  167SAPE   H4R18742   4.014   1.597   2.523 -0.0767  0.7457  1.5923
  167SAPE   H4S18743   3.931   1.675   2.394  0.4562 -3.0825  0.2862
  167SAPE   C2518744   3.854   1.718   2.589  0.0041 -0.1171  0.7139
  167SAPE   H5R18745   3.775   1.782   2.546 -0.2460 -0.6389  0.3904
  167SAPE   C2618746   3.855   1.671   2.720 -0.4840  0.6189  0.0560
  167SAPE   H6R18747   3.764   1.696   2.777  0.1241 -0.1046  1.4134
  167SAPE   C2718748   3.955   1.581   2.793  0.2987 -0.7259  0.3309
  167SAPE   H7R18749   4.044   1.547   2.735  2.8418  0.8133  3.0562
  167SAPE   H7S18750   3.900   1.489   2.823  0.9683 -0.8889  1.0632
  167SAPE   C2818751   4.016   1.648   2.907 -0.0509 -0.0577  0.0520
  167SAPE   H8R18752   4.100   1.711   2.875 -0.0069 -0.4088 -0.5480
  167SAPE   C2918753   3.970   1.646   3.035  0.2674  0.0705 -0.2183
  167SAPE   H9R18754   4.033   1.703   3.105 -0.6444  0.5929  0.1943
  167SAPE  C21018755   3.855   1.565   3.097 -0.4682  0.2096  0.6358
  167SAPE  H10R18756   3.891   1.515   3.189 -2.5478  1.1591  2.0564
  167SAPE  H10S18757   3.827   1.481   3.030 -0.2897 -1.5110  2.6172
  167SAPE  C21118758   3.738   1.652   3.131  0.0805 -0.1646  0.4311
  167SAPE  H11R18759   3.718   1.737   3.064 -1.2329 -0.5045  0.3635
  167SAPE  C21218760   3.654   1.625   3.233 -0.1635  0.0875  0.9988
  167SAPE  H12R18761   3.571   1.697   3.235  0.2465  0.6284 -0.2815
  167SAPE  C21318762   3.670   1.517   3.335 -0.0116 -0.3504  0.3433
  167SAPE  H13R18763   3.724   1.563   3.419 -0.4168 -2.4853  1.8545
  167SAPE  H13S18764   3.731   1.432   3.299 -0.2600 -0.7075  0.7620
  167SAPE  C21418765   3.532   1.461   3.369 -0.3073 -0.3787  1.4316
  167SAPE  H14R18766   3.502   1.375   3.308  2.5193  1.0351 -2.3334
  167SAPE  C21518767   3.447   1.507   3.459 -0.0221 -0.7357 -0.5884
  167SAPE  H15R18768   3.347   1.461   3.451 -0.1895 -0.8480  1.5519
  167SAPE  C21618769   3.457   1.632   3.543  0.0124  0.0604  0.2733
  167SAPE  H16R18770   3.359   1.680   3.568  1.0071  1.4926  1.6223
  167SAPE  H16S18771   3.513   1.713   3.491 -2.1978  0.6902 -1.3025
  167SAPE  C21718772   3.525   1.622   3.687 -0.0586  0.3973  0.3826
  167SAPE  H17R18773   3.504   1.719   3.738 -1.9725  0.8407 -1.1214
  167SAPE  H17S18774   3.634   1.605   3.680  0.0458  1.2867 -0.4266
  167SAPE  C21818775   3.473   1.502   3.769 -0.3530  0.3617 -1.4774
  167SAPE  H18R18776   3.518   1.408   3.731  0.2393  0.6672 -1.5470
  167SAPE  H18S18777   3.365   1.495   3.742 -0.4682  0.8110 -1.1422
  167SAPE  C21918778   3.493   1.516   3.919  0.1514  0.1551  0.6959
  167SAPE  H19R18779   3.427   1.601   3.947  0.0248  1.4038 -2.8670
  167SAPE  H19S18780   3.596   1.547   3.946 -0.3118  0.8462  1.7304
  167SAPE  C22018781   3.452   1.396   4.008  0.1072 -0.0889  0.5936
  167SAPE  H20R18782   3.355   1.356   3.973 -0.1875  1.7681 -0.8768
  167SAPE  H20S18783   3.446   1.429   4.114 -3.1272  1.0031  0.1905
  167SAPE  H20T18784   3.531   1.319   3.996  1.0715  1.0933 -1.0674
  167SAPE   C3318785   4.248   1.276   2.553  0.2867 -0.4506  0.9126
  167SAPE   H3X18786   4.317   1.360   2.579 -0.4084 -0.3648  2.5805
  167SAPE   H3Y18787   4.313   1.203   2.501  2.6524  0.6505  2.1740
  167SAPE   C3418788   4.170   1.238   2.682  0.3872 -0.3164  0.1784
  167SAPE   H4X18789   4.095   1.156   2.679 -0.2248  0.1641  1.3899
  167SAPE   H4Y18790   4.111   1.324   2.722  0.9377 -0.6988  1.9145
  167SAPE   C3518791   4.277   1.224   2.794  0.5148  0.1348  0.4624
  167SAPE   H5X18792   4.358   1.298   2.774 -0.4061  0.8109 -0.9601
  167SAPE   H5Y18793   4.311   1.119   2.786 -0.9416 -0.2710 -1.0599
  167SAPE   C3618794   4.224   1.248   2.935  0.6972  0.0892 -0.1875
  167SAPE   H6X18795   4.150   1.168   2.959  1.4455 -0.8630 -0.9627
  167SAPE   H6Y18796   4.172   1.346   2.945  1.3418  0.2748  1.6943
  167SAPE   C3718797   4.343   1.249   3.030 -0.2187  0.0657 -0.4574
  167SAPE   H7X18798   4.414   1.330   3.001  2.0618 -1.6600  0.0158
  167SAPE   H7Y18799   4.401   1.156   3.012 -1.5711 -1.1756  1.2145
  167SAPE   C3818800   4.314   1.275   3.179  0.8099  0.6033  0.4609
  167SAPE   H8X18801   4.408   1.284   3.237  0.1813 -2.3289  2.1474
  167SAPE   H8Y18802   4.259   1.187   3.220  0.4891 -0.8726 -2.8046
  167SAPE   C3918803   4.243   1.407   3.204 -0.2806  1.0449  0.1578
  167SAPE   H9X18804   4.137   1.396   3.172  0.4974 -1.8685 -1.8748
  167SAPE   H9Y18805   4.290   1.489   3.145  1.4745  0.6546  0.9550
  167SAPE  C31018806   4.242   1.442   3.350  0.5910  0.1788 -0.2972
  167SAPE  H10X18807   4.347   1.449   3.386  0.4316 -1.0477  0.4720
  167SAPE  H10Y18808   4.196   1.364   3.415  1.6900 -1.0084 -0.8936
  167SAPE  C31118809   4.152   1.571   3.380  0.4280  0.1696 -0.6931
  167SAPE  H11X18810   4.053   1.553   3.332 -0.0031 -2.4654  1.0171
  167SAPE  H11Y18811   4.201   1.655   3.326  1.8240 -1.2137 -1.6291
  167SAPE  C31218812   4.127   1.589   3.527 -0.4438  0.1495 -0.1836
  167SAPE  H12X18813   4.221   1.634   3.565  0.0835 -0.6064 -0.5566
  167SAPE  H12Y18814   4.108   1.487   3.567 -1.7708 -0.1788 -1.5370
  167SAPE  C31318815   4.001   1.668   3.565 -0.5544  0.5567  0.3652
  167SAPE  H13X18816   3.924   1.626   3.497 -0.2902  0.2658  0.2398
  167SAPE  H13Y18817   4.027   1.769   3.528  1.5183  0.3354  1.0708
  167SAPE  C31418818   3.956   1.677   3.713 -0.5902 -0.0999  0.8685
  167SAPE  H14X18819   3.915   1.581   3.751 -1.8519 -0.5686 -1.4717
  167SAPE  H14Y18820   3.873   1.751   3.714 -0.0747  0.5930 -1.3423
  167SAPE  C31518821   4.080   1.710   3.799 -0.2092 -0.1290  0.3592
  167SAPE  H15X18822   4.133   1.791   3.745 -1.3849  0.1562 -0.4146
  167SAPE  H15Y18823   4.143   1.619   3.797  0.5726  0.4138 -1.3099
  167SAPE  C31618824   4.041   1.769   3.938 -0.2806  0.0495 -0.6979
  167SAPE  H16X18825   3.992   1.697   4.007  0.4885  0.7453  0.6104
  167SAPE  H16Y18826   3.980   1.859   3.919 -0.2709  0.1496 -0.2697
  167SAPE  C31718827   4.165   1.819   4.023  0.3456  0.7631  0.7222
  167SAPE  H17X18828   4.240   1.891   3.983  1.3416 -0.1324  0.9198
  167SAPE  H17Y18829   4.218   1.729   4.061 -1.8372 -0.4363  1.0941
  167SAPE  C31818830   4.136   1.875   4.157  0.3086 -0.0780  0.3956
  167SAPE  H18X18831   4.213   1.873   4.237 -0.9524  0.7396  1.6801
  167SAPE  H18Y18832   4.060   1.809   4.205  1.5376 -2.0089 -0.2081
  167SAPE  H18Z18833   4.096   1.978   4.144  1.0816  0.1605 -0.2007
  168SAPE     N18834   6.548   4.912   2.162 -0.4059  1.2296 -0.2864
  168SAPE   HN118835   6.559   4.933   2.263 -2.9100  1.8189 -0.0706
  168SAPE   HN218836   6.596   4.983   2.103  2.4998  0.4687  0.9817
  168SAPE   HN318837   6.446   4.929   2.154 -0.9450 -0.1173  2.4154
  168SAPE   C1218838   6.596   4.778   2.123 -0.4464  0.4761  0.1692
  168SAPE  H12A18839   6.593   4.766   2.012 -0.7047 -1.5149  0.3628
  168SAPE  H12B18840   6.528   4.697   2.154  0.1617 -0.1044  0.0106
  168SAPE   C1118841   6.734   4.756   2.189  0.3637 -0.5756  0.3802
  168SAPE  H11A18842   6.766   4.660   2.142  1.7865 -1.2041  2.5033
  168SAPE  H11B18843   6.735   4.750   2.300 -0.1381  1.2408  0.5130
  168SAPE     P18844   6.964   4.871   2.215  0.2868 -0.4017 -0.2943
  168SAPE   O1318845   7.056   4.793   2.123 -0.3729  0.7201 -0.4018
  168SAPE   O1418846   6.993   5.016   2.245 -0.1759  0.1829 -0.0038
  168SAPE   O1218847   6.819   4.859   2.145 -0.3881 -0.1523 -0.3910
  168SAPE   O1118848   6.946   4.799   2.359 -0.3050  0.5130  0.4108
  168SAPE    C118849   6.976   4.880   2.474 -0.7066 -0.1935 -0.4601
  168SAPE    HA18850   7.081   4.915   2.468 -0.9252  0.4046 -0.9812
  168SAPE    HB18851   6.909   4.969   2.479  0.5058  0.7218  0.0225
  168SAPE    C218852   6.964   4.807   2.611 -0.1456  0.7710 -0.6433
  168SAPE    HS18853   6.989   4.878   2.692 -0.0195 -1.5590  1.5033
  168SAPE   O2118854   7.039   4.684   2.610  0.4459 -0.0449 -0.4441
  168SAPE   C2118855   7.102   4.656   2.722 -0.1731  0.9994 -0.3459
  168SAPE   O2218856   7.090   4.702   2.833  0.0338 -0.6028 -0.2920
  168SAPE   C2218857   7.177   4.523   2.695  1.0026 -0.1912  0.2231
  168SAPE   H2R18858   7.104   4.446   2.662  0.0118  0.9591 -0.3513
  168SAPE   H2S18859   7.253   4.540   2.615  2.0380  0.6626  1.3379
  168SAPE    C318860   6.816   4.749   2.642 -0.3211 -0.3853  0.0325
  168SAPE    HX18861   6.803   4.662   2.575 -1.5993  1.7622 -2.7268
  168SAPE    HY18862   6.751   4.830   2.603  0.0044  0.1054  0.4861
  168SAPE   O3118863   6.801   4.729   2.787  0.2447 -0.8085  0.0872
  168SAPE   C3118864   6.798   4.845   2.855  0.2308  0.2098 -0.4583
  168SAPE   O3218865   6.791   4.958   2.814  0.5296 -0.5419  0.0670
  168SAPE   C3218866   6.814   4.813   2.998 -0.3630  0.3979 -0.6646
  168SAPE   H2X18867   6.921   4.818   3.030 -0.0653  1.9089 -1.7741
  168SAPE   H2Y18868   6.788   4.707   3.016  0.9102  0.3058  0.9191
  168SAPE   C2318869   7.256   4.472   2.821 -0.1507  0.2622  0.1936
  168SAPE   H3R18870   7.319   4.554   2.862  2.6273 -1.2081 -0.8893
  168SAPE   H3S18871   7.316   4.388   2.780 -1.5104  1.3366 -4.7505
  168SAPE   C2418872   7.182   4.409   2.936 -0.6904 -0.6023  0.4111
  168SAPE   H4R18873   7.134   4.314   2.903 -0.3163 -0.3179 -1.0072
  168SAPE   H4S18874   7.103   4.479   2.972 -0.7435  0.1233 -1.0499
  168SAPE   C2518875   7.275   4.364   3.046 -0.2954 -0.1588  0.2676
  168SAPE   H5R18876   7.327   4.268   3.030 -0.9169 -0.7406  1.6361
  168SAPE   C2618877   7.299   4.430   3.158  0.2127  0.1933  0.3713
  168SAPE   H6R18878   7.378   4.389   3.221 -1.5953 -1.3410  1.7619
  168SAPE   C2718879   7.223   4.549   3.217 -0.2465 -0.1160  0.4343
  168SAPE   H7R18880   7.182   4.610   3.133 -0.5198 -2.0523 -0.9097
  168SAPE   H7S18881   7.291   4.614   3.277 -0.5032 -0.1975  0.8129
  168SAPE   C2818882   7.094   4.499   3.282  0.3484  0.0561 -0.0699
  168SAPE   H8R18883   7.059   4.398   3.254  0.2949  0.5545 -1.9857
  168SAPE   C2918884   7.052   4.563   3.386  0.1762  0.5276 -0.2058
  168SAPE   H9R18885   6.974   4.510   3.443  1.0815  0.4859  1.0463
  168SAPE  C21018886   7.098   4.690   3.446 -0.1516 -1.0855 -0.0597
  168SAPE  H10R18887   7.173   4.747   3.386 -0.2948 -1.7292 -0.8691
  168SAPE  H10S18888   7.160   4.668   3.536 -0.0776  0.6939  0.3699
  168SAPE  C21118889   6.988   4.787   3.485  0.0454 -0.0364  0.7966
  168SAPE  H11R18890   6.915   4.806   3.404  2.3890 -1.0333 -1.7168
  168SAPE  C21218891   6.963   4.840   3.606  0.2090  0.1001 -0.4772
  168SAPE  H12R18892   6.873   4.902   3.604 -0.9496 -1.5353 -1.7029
  168SAPE  C21318893   7.052   4.813   3.721  0.0239 -0.2098  0.3895
  168SAPE  H13R18894   7.156   4.837   3.689  0.1444 -1.0318  0.1571
  168SAPE  H13S18895   7.063   4.706   3.748  1.2774 -0.6424 -1.6317
  168SAPE  C21418896   7.023   4.903   3.842  0.9222  0.0288  0.2623
  168SAPE  H14R18897   7.099   4.983   3.849  1.1837 -0.2818  1.1804
  168SAPE  C21518898   6.926   4.909   3.934  0.0747 -0.1736 -0.4481
  168SAPE  H15R18899   6.921   4.976   4.021  0.3106 -4.3884  3.1618
  168SAPE  C21618900   6.818   4.806   3.947  0.4039  0.3213  0.1278
  168SAPE  H16R18901   6.846   4.714   3.891 -1.5812  0.4016 -1.1123
  168SAPE  H16S18902   6.732   4.848   3.890 -0.7403 -0.1924  1.4076
  168SAPE  C21718903   6.766   4.766   4.085 -0.7769 -0.2120 -0.8429
  168SAPE  H17R18904   6.685   4.691   4.078 -1.1776  0.1860 -0.5051
  168SAPE  H17S18905   6.717   4.851   4.138  1.0384  0.5496 -0.2826
  168SAPE  C21818906   6.866   4.702   4.177  0.0801  0.0697  0.2233
  168SAPE  H18R18907   6.836   4.709   4.284 -1.3261 -0.8866 -0.0828
  168SAPE  H18S18908   6.963   4.755   4.169 -0.9365  1.8816 -0.9894
  168SAPE  C21918909   6.883   4.556   4.156  0.9501  0.8579  0.0513
  168SAPE  H19R18910   6.909   4.541   4.049  0.3374  2.3374 -0.3233
  168SAPE  H19S18911   6.785   4.504   4.165  1.6265 -0.9170 -1.8913
  168SAPE  C22018912   6.983   4.492   4.247  0.0187  0.2981  0.2684
  168SAPE  H20R18913   6.987   4.382   4.233  0.3239  0.5238 -1.8092
  168SAPE  H20S18914   6.972   4.515   4.355  0.7145  0.8221  0.2344
  168SAPE  H20T18915   7.085   4.534   4.233 -0.3294  0.7101 -1.3576
  168SAPE   C3318916   6.717   4.902   3.080 -0.5282 -0.7099 -0.3621
  168SAPE   H3X18917   6.621   4.911   3.024 -0.0122  0.1611 -1.1235
  168SAPE   H3Y18918   6.758   5.004   3.087 -1.3496 -0.4438  0.9148
  168SAPE   C3418919   6.685   4.865   3.226 -0.7860 -0.1978  0.7352
  168SAPE   H4X18920   6.775   4.861   3.291  0.1459 -0.0721 -0.5056
  168SAPE   H4Y18921   6.645   4.761   3.224  0.7096 -0.8180  1.1961
  168SAPE   C3518922   6.585   4.951   3.287  0.5364  0.7240  0.0625
  168SAPE   H5X18923   6.489   4.964   3.231  0.4659  2.0906  0.4464
  168SAPE   H5Y18924   6.628   5.053   3.298  1.4333  0.1185  3.5232
  168SAPE   C3618925   6.557   4.883   3.428  0.7476 -0.0819  0.1563
  168SAPE   H6X18926   6.650   4.847   3.477  0.9436 -0.0990 -0.2237
  168SAPE   H6Y18927   6.481   4.804   3.408 -0.4020  1.2610 -1.0269
  168SAPE   C3718928   6.481   4.970   3.533 -0.6281  0.3131 -0.0595
  168SAPE   H7X18929   6.373   4.976   3.507 -0.1958 -1.9541 -2.9709
  168SAPE   H7Y18930   6.509   5.077   3.529  0.7233 -0.0253 -0.2332
  168SAPE   C3818931   6.511   4.918   3.673 -0.0453  0.8961 -0.3687
  168SAPE   H8X18932   6.481   4.995   3.748 -0.9762  1.3661 -1.1932
  168SAPE   H8Y18933   6.620   4.900   3.677 -0.1921 -0.6400 -2.0230
  168SAPE   C3918934   6.428   4.786   3.701 -0.3210  0.1707  0.2975
  168SAPE   H9X18935   6.462   4.714   3.624 -1.6321  0.6549 -0.7676
  168SAPE   H9Y18936   6.318   4.797   3.690 -0.3599 -0.1219  0.3719
  168SAPE  C31018937   6.434   4.724   3.841  0.2249 -0.2251  0.1849
  168SAPE  H10X18938   6.539   4.691   3.857  0.4356  0.9814  1.5660
  168SAPE  H10Y18939   6.366   4.636   3.836 -1.2421  0.7390  1.8992
  168SAPE  C31118940   6.392   4.812   3.958 -0.7923  0.5417  0.2473
  168SAPE  H11X18941   6.294   4.853   3.925  0.7026  1.0726 -4.2094
  168SAPE  H11Y18942   6.466   4.891   3.982 -0.9285  0.4794  0.9120
  168SAPE  C31218943   6.362   4.726   4.080 -0.2852 -0.6799 -0.0485
  168SAPE  H12X18944   6.348   4.808   4.154  0.1096  0.4468 -1.1760
  168SAPE  H12Y18945   6.448   4.665   4.113  2.3540  1.4920 -2.3689
  168SAPE  C31318946   6.230   4.654   4.069  0.3129  0.1093 -0.3140
  168SAPE  H13X18947   6.243   4.570   3.997 -0.0292 -0.2992  0.0952
  168SAPE  H13Y18948   6.158   4.724   4.021  0.3921  0.8688  0.6421
  168SAPE  C31418949   6.174   4.604   4.201  1.1629 -0.7795 -0.4009
  168SAPE  H14X18950   6.123   4.689   4.251  1.3534 -0.8863 -0.0245
  168SAPE  H14Y18951   6.259   4.576   4.267  0.1789  0.4433  1.4812
  168SAPE  C31518952   6.076   4.476   4.185  0.1505 -0.2335  0.7650
  168SAPE  H15X18953   6.132   4.393   4.138  0.4876  0.9716 -1.0835
  168SAPE  H15Y18954   6.003   4.517   4.111  0.5670  0.8572  0.9394
  168SAPE  C31618955   6.005   4.435   4.310  0.9729 -0.5363  0.6179
  168SAPE  H16X18956   5.916   4.377   4.277  0.1721  1.6202 -1.2470
  168SAPE  H16Y18957   5.955   4.524   4.352  2.4493  0.5698  0.1285
  168SAPE  C31718958   6.095   4.373   4.409  0.3021 -0.2730 -0.4453
  168SAPE  H17X18959   6.180   4.440   4.431 -0.6480  0.5204  0.9502
  168SAPE  H17Y18960   6.133   4.280   4.362  1.2910 -0.6940  1.1530
  168SAPE  C31818961   6.030   4.334   4.547  0.0023  0.0840 -0.1550
  168SAPE  H18X18962   6.097   4.269   4.608  2.4007  1.8415 -0.7475
  168SAPE  H18Y18963   5.942   4.270   4.525  1.3414 -1.9662  0.2444
  168SAPE  H18Z18964   5.999   4.418   4.613  2.5111  0.0248  1.2486
  169SAPE     N18965   5.451   2.187   2.210 -0.7456 -0.0779 -0.2587
  169SAPE   HN118966   5.468   2.217   2.308  2.0824 -2.0283 -0.0209
  169SAPE   HN218967   5.414   2.090   2.205 -0.2045 -0.4901  2.2084
  169SAPE   HN318968   5.548   2.180   2.172  0.3405  0.8787  2.1132
  169SAPE   C1218969   5.356   2.281   2.144 -0.2749 -0.0308  0.9319
  169SAPE  H12A18970   5.338   2.246   2.040  1.7370  0.2874  0.4497
  169SAPE  H12B18971   5.414   2.375   2.150  1.0896 -0.7363 -0.6212
  169SAPE   C1118972   5.221   2.290   2.208 -0.3028  0.3049  0.1808
  169SAPE  H11A18973   5.171   2.369   2.149  0.6526 -0.0816 -1.2032
  169SAPE  H11B18974   5.222   2.327   2.312  1.4335  1.2285 -0.1328
  169SAPE     P18975   5.010   2.156   2.255  0.1001  0.2702  0.2093
  169SAPE   O1318976   4.958   2.291   2.246 -0.1350  0.7278 -0.4981
  169SAPE   O1418977   4.942   2.057   2.172 -0.9642 -0.2174  0.8051
  169SAPE   O1218978   5.157   2.164   2.200  0.1330  0.1718 -0.3089
  169SAPE   O1118979   5.026   2.107   2.406 -0.1266 -0.1063  0.3241
  169SAPE    C118980   5.100   1.991   2.443  0.5219  0.3192  0.2279
  169SAPE    HA18981   5.192   1.988   2.380 -0.7135  0.3562 -1.6461
  169SAPE    HB18982   5.114   1.996   2.553 -2.4587  0.7179  0.6558
  169SAPE    C218983   5.020   1.856   2.416  0.4737  0.3795  0.4167
  169SAPE    HS18984   4.988   1.858   2.310  0.5414  0.1381  0.3899
  169SAPE   O2118985   4.912   1.839   2.513 -0.1862  0.2850 -0.5102
  169SAPE   C2118986   4.822   1.760   2.468  0.1947 -0.1986 -0.1499
  169SAPE   O2218987   4.808   1.713   2.357  0.0161 -0.6536  0.1565
  169SAPE   C2218988   4.728   1.725   2.582  0.0719  0.5044 -0.1961
  169SAPE   H2R18989   4.781   1.638   2.628 -0.6138 -0.9708 -2.0578
  169SAPE   H2S18990   4.719   1.802   2.661 -0.4457 -1.0224  1.3017
  169SAPE    C318991   5.123   1.735   2.426 -0.7404 -0.2928 -0.0495
  169SAPE    HX18992   5.210   1.763   2.362  0.6274 -3.2605  0.3582
  169SAPE    HY18993   5.084   1.639   2.386 -0.7186 -0.3166 -0.0132
  169SAPE   O3118994   5.181   1.729   2.553 -0.2110 -0.0650  0.3645
  169SAPE   C3118995   5.128   1.628   2.626 -1.1751  0.1198 -0.5400
  169SAPE   O3218996   5.043   1.551   2.582  0.1010  0.1234 -0.4266
  169SAPE   C3218997   5.203   1.628   2.760 -0.3164  0.0967 -0.1598
  169SAPE   H2X18998   5.298   1.685   2.748 -1.1042  1.2672 -1.0695
  169SAPE   H2Y18999   5.223   1.519   2.773 -0.8701 -0.0457 -0.4920
  169SAPE   C2319000   4.587   1.676   2.534 -0.6636  0.9064  0.3490
  169SAPE   H3R19001   4.597   1.578   2.483 -1.8012 -0.2667  2.3006
  169SAPE   H3S19002   4.538   1.741   2.458  1.1967 -0.3985 -2.1460
  169SAPE   C2419003   4.493   1.674   2.657  0.8062 -0.4562 -0.2961
  169SAPE   H4R19004   4.390   1.647   2.626  0.7316 -0.5085 -0.0070
  169SAPE   H4S19005   4.489   1.775   2.702  3.3039 -0.4305  0.0281
  169SAPE   C2519006   4.530   1.561   2.754 -0.1874  0.8844  0.2096
  169SAPE   H5R19007   4.553   1.465   2.706 -2.7638  0.1302  0.3126
  169SAPE   C2619008   4.551   1.576   2.887  0.5138  0.2934  0.3944
  169SAPE   H6R19009   4.578   1.495   2.957  1.1062  1.8514  2.0366
  169SAPE   C2719010   4.529   1.702   2.965  0.0840 -0.3505  0.0197
  169SAPE   H7R19011   4.454   1.681   3.045  0.7120 -1.8105  0.2558
  169SAPE   H7S19012   4.499   1.792   2.909  1.5779  0.4927  0.5173
  169SAPE   C2819013   4.656   1.738   3.039 -0.9256 -0.2834 -0.1887
  169SAPE   H8R19014   4.733   1.774   2.970 -1.0887 -0.5468 -0.5111
  169SAPE   C2919015   4.687   1.715   3.171 -0.1512  0.5774  0.7323
  169SAPE   H9R19016   4.776   1.772   3.201  0.1082  1.7996 -2.0074
  169SAPE  C21019017   4.603   1.665   3.285  0.1873 -0.3196  0.6946
  169SAPE  H10R19018   4.662   1.594   3.346  1.4038  1.5145  1.7207
  169SAPE  H10S19019   4.520   1.603   3.243 -0.0537  1.4840 -1.6538
  169SAPE  C21119020   4.551   1.780   3.365 -0.1369  0.4871  0.1088
  169SAPE  H11R19021   4.519   1.863   3.300  1.4961 -0.8471 -2.6060
  169SAPE  C21219022   4.535   1.793   3.499 -0.2884 -0.4008  0.4806
  169SAPE  H12R19023   4.493   1.888   3.535 -0.6490 -0.7181  0.9082
  169SAPE  C21319024   4.567   1.685   3.598 -0.5643 -0.2655  0.8036
  169SAPE  H13R19025   4.673   1.706   3.627  0.6105 -1.9900 -1.8557
  169SAPE  H13S19026   4.565   1.581   3.561 -0.8655 -0.1836  0.5831
  169SAPE  C21419027   4.468   1.690   3.706  0.9007  0.2221 -0.7063
  169SAPE  H14R19028   4.382   1.622   3.695  1.8311 -1.2271  0.5616
  169SAPE  C21519029   4.474   1.778   3.812  0.2369  0.3945 -1.0558
  169SAPE  H15R19030   4.399   1.777   3.892  1.1512 -0.1454 -0.1827
  169SAPE  C21619031   4.587   1.884   3.829  0.0754  0.1984 -0.5541
  169SAPE  H16R19032   4.530   1.974   3.860 -2.3360 -2.2011  2.5686
  169SAPE  H16S19033   4.645   1.910   3.737  1.7998  0.2800  0.5109
  169SAPE  C21719034   4.683   1.843   3.939 -0.2807 -0.0165 -0.1267
  169SAPE  H17R19035   4.771   1.911   3.940 -1.6914  1.8871 -0.6256
  169SAPE  H17S19036   4.724   1.740   3.927 -1.3353 -0.4142 -0.4117
  169SAPE  C21819037   4.615   1.837   4.073 -0.8377 -0.0427 -0.1642
  169SAPE  H18R19038   4.561   1.739   4.074  0.4974 -0.8344  1.8383
  169SAPE  H18S19039   4.537   1.917   4.072 -0.6955  0.0914 -0.5939
  169SAPE  C21919040   4.719   1.845   4.190 -0.9868  0.7777  0.7000
  169SAPE  H19R19041   4.770   1.944   4.187 -0.8121  0.7266  1.6811
  169SAPE  H19S19042   4.803   1.773   4.181 -0.7117  0.9875  1.4900
  169SAPE  C22019043   4.664   1.827   4.325  0.3027  0.4182 -0.8060
  169SAPE  H20R19044   4.680   1.723   4.362  2.4059  0.6964 -0.7817
  169SAPE  H20S19045   4.559   1.864   4.328  1.1763  3.1400  2.2846
  169SAPE  H20T19046   4.722   1.887   4.398  2.7243 -1.1667 -1.3044
  169SAPE   C3319047   5.111   1.674   2.873  0.2727 -0.4434 -0.1245
  169SAPE   H3X19048   5.032   1.595   2.866 -2.1789  1.8350  0.1201
  169SAPE   H3Y19049   5.050   1.761   2.840 -1.1167 -0.9235  1.0588
  169SAPE   C3419050   5.167   1.690   3.010  0.3155 -0.0627 -0.1273
  169SAPE   H4X19051   5.245   1.769   3.014  0.3312  0.0958 -2.3129
  169SAPE   H4Y19052   5.208   1.590   3.037 -3.6456 -2.3946 -1.8977
  169SAPE   C3519053   5.056   1.723   3.112  0.3854 -0.2892 -0.0476
  169SAPE   H5X19054   4.966   1.660   3.093 -0.7749  1.2294  0.2097
  169SAPE   H5Y19055   5.030   1.831   3.116 -0.0018 -0.4022  0.7186
  169SAPE   C3619056   5.112   1.693   3.250 -0.6833  0.1392  0.2282
  169SAPE   H6X19057   5.195   1.765   3.268  0.8284 -1.7459  1.1804
  169SAPE   H6Y19058   5.160   1.594   3.260 -0.0503  0.3471 -0.6310
  169SAPE   C3719059   5.011   1.716   3.358 -0.4949 -0.1313  0.4690
  169SAPE   H7X19060   4.934   1.636   3.362 -1.0371  0.3360 -0.3867
  169SAPE   H7Y19061   4.970   1.815   3.330 -0.0836 -0.4537 -1.4308
  169SAPE   C3819062   5.072   1.744   3.492 -0.8095  0.3783  0.4171
  169SAPE   H8X19063   5.149   1.824   3.496  0.1871 -0.5786  0.8365
  169SAPE   H8Y19064   5.125   1.660   3.540  2.5617  2.1953  0.2521
  169SAPE   C3919065   4.965   1.779   3.593  0.0012  0.8619 -0.0238
  169SAPE   H9X19066   4.894   1.695   3.608  1.1785  0.2090  2.4218
  169SAPE   H9Y19067   4.910   1.867   3.554  0.3243  0.5588 -1.1882
  169SAPE  C31019068   5.022   1.824   3.737 -0.3763 -0.4945 -0.4148
  169SAPE  H10X19069   4.925   1.842   3.788  0.2011 -1.6301  1.1353
  169SAPE  H10Y19070   5.083   1.914   3.712  0.2508 -0.7469  0.1974
  169SAPE  C31119071   5.103   1.728   3.816  0.0569 -0.0915 -0.3488
  169SAPE  H11X19072   5.194   1.692   3.762  0.3197 -2.4046  1.5159
  169SAPE  H11Y19073   5.043   1.636   3.828  0.4768 -0.3895 -0.5042
  169SAPE  C31219074   5.152   1.767   3.960  0.2729  0.8018 -0.0884
  169SAPE  H12X19075   5.092   1.846   4.010  0.9658  0.3502  1.4964
  169SAPE  H12Y19076   5.255   1.808   3.954  0.9192 -0.7610  0.0386
  169SAPE  C31319077   5.176   1.639   4.049  0.1055  0.1811  0.4600
  169SAPE  H13X19078   5.247   1.573   3.996 -1.2168 -1.7548  1.0148
  169SAPE  H13Y19079   5.083   1.579   4.053  0.7257 -0.7331  1.6258
  169SAPE  C31419080   5.208   1.677   4.199 -0.2421  0.5399  0.6720
  169SAPE  H14X19081   5.308   1.724   4.198 -0.2376  0.6601 -2.7232
  169SAPE  H14Y19082   5.207   1.580   4.254 -0.9233  0.1776  0.0426
  169SAPE  C31519083   5.103   1.765   4.261  0.3785 -0.5880  0.7742
  169SAPE  H15X19084   5.009   1.710   4.241 -0.4666  1.0433  0.1268
  169SAPE  H15Y19085   5.094   1.863   4.210  1.8485 -0.0597  1.4605
  169SAPE  C31619086   5.107   1.791   4.408  0.1614 -0.3198  0.3606
  169SAPE  H16X19087   5.168   1.883   4.424  2.4166 -1.5953 -0.3777
  169SAPE  H16Y19088   5.152   1.702   4.457  1.2804 -0.7620 -1.3598
  169SAPE  C31719089   4.971   1.820   4.461 -0.1852 -0.5332 -0.3213
  169SAPE  H17X19090   4.903   1.735   4.439 -0.9117  0.4404 -2.0844
  169SAPE  H17Y19091   4.934   1.905   4.399 -0.5672 -1.0522 -0.8152
  169SAPE  C31819092   4.963   1.861   4.605 -0.2651 -0.7844 -0.8451
  169SAPE  H18X19093   4.963   1.776   4.678 -0.2500  0.9674  1.2993
  169SAPE  H18Y19094   4.874   1.926   4.615  1.4162  1.4223  0.6862
  169SAPE  H18Z19095   5.058   1.916   4.625  0.7928 -3.1271  1.1258
  170SAPE     N19096   4.589   3.610   2.565 -0.0680  0.1249 -0.3265
  170SAPE   HN119097   4.523   3.540   2.528 -0.9594  1.1446 -0.7096
  170SAPE   HN219098   4.551   3.707   2.558  0.6738  0.3234 -2.0665
  170SAPE   HN319099   4.678   3.603   2.512  1.3873  0.7983  1.8694
  170SAPE   C1219100   4.629   3.593   2.717  0.6252 -0.8539 -1.1799
  170SAPE  H12A19101   4.627   3.482   2.730  1.5215 -0.8367 -0.8460
  170SAPE  H12B19102   4.553   3.630   2.789  1.7337 -2.4264  0.9102
  170SAPE   C1119103   4.757   3.673   2.756 -0.3589  0.0240 -0.4944
  170SAPE  H11A19104   4.773   3.651   2.863  2.1801  1.1332 -0.5727
  170SAPE  H11B19105   4.750   3.784   2.749 -0.2130 -0.0143 -1.4678
  170SAPE     P19106   4.934   3.713   2.562  0.5740  0.2996  0.0560
  170SAPE   O1319107   4.834   3.699   2.446 -0.0302  0.2049 -0.4851
  170SAPE   O1419108   4.962   3.845   2.604 -0.3130  0.5679 -0.2139
  170SAPE   O1219109   4.873   3.632   2.688 -0.0190 -0.3282 -0.1406
  170SAPE   O1119110   5.067   3.641   2.516  0.7061 -0.0757 -0.3769
  170SAPE    C119111   5.108   3.515   2.572  0.0579 -0.1684 -0.4610
  170SAPE    HA19112   5.026   3.465   2.629  1.2395 -1.8373 -0.1455
  170SAPE    HB19113   5.131   3.447   2.488  0.5132  1.3070 -1.5723
  170SAPE    C219114   5.235   3.523   2.664 -0.4026 -0.3013 -0.0091
  170SAPE    HS19115   5.283   3.423   2.665  0.7027  0.1400 -2.3460
  170SAPE   O2119116   5.204   3.577   2.793 -0.8696 -0.2353 -0.2093
  170SAPE   C2119117   5.144   3.488   2.870 -0.4694 -0.6159  0.2893
  170SAPE   O2219118   5.132   3.369   2.846  0.6482  0.7694  0.2655
  170SAPE   C2219119   5.059   3.571   2.965  0.4666  1.0038  0.2401
  170SAPE   H2R19120   5.122   3.644   3.020 -0.0787  0.7670  1.1782
  170SAPE   H2S19121   4.977   3.611   2.901 -1.4926  0.6052  2.3653
  170SAPE    C319122   5.329   3.621   2.591  0.4253 -0.1267  1.2039
  170SAPE    HX19123   5.292   3.724   2.572  4.0998  1.3516  1.2644
  170SAPE    HY19124   5.342   3.576   2.490  1.6247  2.9051 -0.1071
  170SAPE   O3119125   5.458   3.635   2.652  0.1500  0.0080 -0.4435
  170SAPE   C3119126   5.478   3.753   2.712 -0.9701  0.4960 -0.2263
  170SAPE   O3219127   5.410   3.849   2.708  0.8707  0.1622  0.6714
  170SAPE   C3219128   5.604   3.742   2.802  0.2628 -0.0901 -0.1490
  170SAPE   H2X19129   5.617   3.844   2.845 -2.1866  0.4200 -0.4577
  170SAPE   H2Y19130   5.696   3.715   2.747  0.8977 -0.7933  1.1888
  170SAPE   C2319131   4.993   3.486   3.077  0.3189 -0.6878 -0.2766
  170SAPE   H3R19132   5.076   3.450   3.143  0.1053 -0.1130  0.3101
  170SAPE   H3S19133   4.941   3.394   3.042 -2.4230 -0.8560  3.5991
  170SAPE   C2419134   4.899   3.574   3.161 -0.0688  0.5402 -0.2191
  170SAPE   H4R19135   4.855   3.506   3.237 -1.0977 -2.1407 -3.0135
  170SAPE   H4S19136   4.811   3.607   3.103 -1.3336 -2.5256 -0.2629
  170SAPE   C2519137   4.975   3.683   3.230  0.0948 -0.2721  0.2378
  170SAPE   H5R19138   5.017   3.758   3.161  2.7285 -2.1630 -0.3710
  170SAPE   C2619139   4.994   3.708   3.365  0.1167  0.9187  0.0824
  170SAPE   H6R19140   5.037   3.807   3.389  2.7955 -0.2227  0.2715
  170SAPE   C2719141   4.943   3.619   3.474 -0.9951 -0.0935  0.3349
  170SAPE   H7R19142   4.874   3.535   3.453  1.6814 -2.4278  0.2045
  170SAPE   H7S19143   4.896   3.681   3.553  0.6071  1.2343  0.2897
  170SAPE   C2819144   5.069   3.546   3.528 -0.1356 -0.3100 -0.2646
  170SAPE   H8R19145   5.127   3.500   3.446  0.0094 -0.9374  0.1816
  170SAPE   C2919146   5.094   3.521   3.656 -0.2929  0.1974 -0.5137
  170SAPE   H9R19147   5.189   3.475   3.685  0.2862  0.8803 -1.2763
  170SAPE  C21019148   5.007   3.570   3.773  0.3326  0.2366 -0.2249
  170SAPE  H10R19149   4.925   3.496   3.784 -1.1041  1.9685  1.6067
  170SAPE  H10S19150   4.963   3.670   3.751  2.1779  1.9628  3.0693
  170SAPE  C21119151   5.086   3.568   3.904  0.1588  0.2888 -0.3174
  170SAPE  H11R19152   5.147   3.656   3.928 -1.1975  1.1656  0.0050
  170SAPE  C21219153   5.076   3.470   4.001 -0.1032  0.7147  0.4176
  170SAPE  H12R19154   5.129   3.482   4.096 -0.2837 -3.4417  1.2361
  170SAPE  C21319155   4.998   3.344   4.006  0.9203  0.0852 -0.0771
  170SAPE  H13R19156   5.021   3.271   3.926 -0.0074  0.6849 -0.9129
  170SAPE  H13S19157   4.896   3.373   3.973 -0.2105 -0.3151  2.7917
  170SAPE  C21419158   4.998   3.277   4.145 -0.5358  0.2954  0.3849
  170SAPE  H14R19159   4.905   3.283   4.204 -0.2083  0.8195  0.8584
  170SAPE  C21519160   5.106   3.214   4.197 -0.0994 -0.4351 -0.0325
  170SAPE  H15R19161   5.107   3.167   4.297  1.2913 -2.9114 -1.1099
  170SAPE  C21619162   5.252   3.200   4.146 -0.3618  0.2880  0.1761
  170SAPE  H16R19163   5.280   3.282   4.077  0.3703 -0.8086 -0.8592
  170SAPE  H16S19164   5.275   3.115   4.079 -1.2917 -0.9953  1.4060
  170SAPE  C21719165   5.363   3.201   4.254  0.4057  0.3654 -0.2341
  170SAPE  H17R19166   5.355   3.297   4.310 -1.3620  0.1964 -0.1688
  170SAPE  H17S19167   5.460   3.190   4.200 -0.6612 -1.9329 -1.7955
  170SAPE  C21819168   5.360   3.078   4.358  1.7270 -0.1301 -0.1088
  170SAPE  H18R19169   5.323   2.989   4.303  0.4968  1.1066 -1.3823
  170SAPE  H18S19170   5.280   3.099   4.433 -0.4627 -0.6422 -2.1472
  170SAPE  C21919171   5.488   3.036   4.432  0.8672 -0.9414 -0.3429
  170SAPE  H19R19172   5.465   2.956   4.505 -2.8817  0.9249  0.7593
  170SAPE  H19S19173   5.524   3.118   4.498 -0.0693 -2.4268  2.1439
  170SAPE  C22019174   5.601   2.997   4.337  0.4184 -0.5417 -0.1631
  170SAPE  H20R19175   5.695   2.962   4.384 -0.1195 -0.9967  0.5960
  170SAPE  H20S19176   5.634   3.079   4.269 -0.9750  0.7611  0.6764
  170SAPE  H20T19177   5.560   2.917   4.271  1.1439 -0.7177 -0.4014
  170SAPE   C3319178   5.590   3.643   2.922 -0.5908  0.5822 -0.2992
  170SAPE   H3X19179   5.687   3.651   2.977 -0.2636  1.1319 -0.9471
  170SAPE   H3Y19180   5.560   3.543   2.884 -0.3179 -0.5319  2.2265
  170SAPE   C3419181   5.474   3.675   3.021  0.1192 -0.0811 -0.5908
  170SAPE   H4X19182   5.370   3.680   2.983 -0.3486  0.3098  0.7005
  170SAPE   H4Y19183   5.484   3.778   3.062  0.5124 -0.1189 -0.5869
  170SAPE   C3519184   5.485   3.583   3.146 -0.1962  1.0495 -0.3655
  170SAPE   H5X19185   5.590   3.551   3.160  0.7136  2.3258 -3.4252
  170SAPE   H5Y19186   5.446   3.483   3.117  3.5932 -0.5228 -0.5328
  170SAPE   C3619187   5.419   3.645   3.265  0.0871 -0.3955  0.8355
  170SAPE   H6X19188   5.362   3.570   3.324 -0.8758 -0.4158 -0.0872
  170SAPE   H6Y19189   5.339   3.714   3.231  0.9403 -0.3037 -1.1814
  170SAPE   C3719190   5.519   3.728   3.345 -0.6464  0.1382  0.7606
  170SAPE   H7X19191   5.574   3.802   3.283  0.5958  0.6593  2.4197
  170SAPE   H7Y19192   5.595   3.662   3.392 -1.4037 -2.2312 -1.0860
  170SAPE   C3819193   5.453   3.806   3.459  0.4601 -0.3940 -0.2753
  170SAPE   H8X19194   5.369   3.873   3.432  0.2966 -0.6211 -0.3304
  170SAPE   H8Y19195   5.528   3.882   3.489 -0.8987  1.5226 -1.5611
  170SAPE   C3919196   5.411   3.727   3.587 -0.7792  0.6759 -0.1222
  170SAPE   H9X19197   5.326   3.659   3.567 -1.6190  1.5725  0.3191
  170SAPE   H9Y19198   5.371   3.794   3.665 -0.2854  1.1459 -0.2633
  170SAPE  C31019199   5.518   3.635   3.641 -0.7252  0.2545  0.4680
  170SAPE  H10X19200   5.619   3.682   3.635 -1.5533  1.9509 -3.7516
  170SAPE  H10Y19201   5.529   3.549   3.571 -0.3450 -2.1323  3.3044
  170SAPE  C31119202   5.494   3.569   3.777  0.2120 -0.9002 -0.3570
  170SAPE  H11X19203   5.388   3.539   3.791 -1.3567  3.3386 -1.7531
  170SAPE  H11Y19204   5.495   3.655   3.847  0.1711 -0.0140 -1.4046
  170SAPE  C31219205   5.589   3.458   3.819 -0.5510  0.0053  0.0228
  170SAPE  H12X19206   5.685   3.463   3.764 -0.0604 -3.1308  0.4070
  170SAPE  H12Y19207   5.540   3.364   3.788 -0.9772 -0.9890  3.2812
  170SAPE  C31319208   5.610   3.443   3.970 -0.6101 -0.2556  0.8431
  170SAPE  H13X19209   5.652   3.341   3.978 -2.0739 -1.0841 -1.2388
  170SAPE  H13Y19210   5.514   3.437   4.025  0.0014 -0.3217  1.9271
  170SAPE  C31419211   5.700   3.552   4.037  0.3446  0.3278  0.0801
  170SAPE  H14X19212   5.671   3.654   4.002 -0.2504 -0.8504 -3.2949
  170SAPE  H14Y19213   5.805   3.530   4.005  1.9565  0.9969  4.3095
  170SAPE  C31519214   5.708   3.539   4.189 -0.6145  0.3860  0.1446
  170SAPE  H15X19215   5.605   3.559   4.225 -1.1699  0.5648 -1.4594
  170SAPE  H15Y19216   5.787   3.607   4.225 -0.0539 -1.5029  2.7419
  170SAPE  C31619217   5.738   3.397   4.232 -0.9915 -0.1568 -0.2462
  170SAPE  H16X19218   5.820   3.373   4.161 -0.8230 -0.2355 -0.0275
  170SAPE  H16Y19219   5.655   3.324   4.225 -0.5935 -0.6852  0.4020
  170SAPE  C31719220   5.805   3.406   4.374  0.0563 -0.1067  0.2007
  170SAPE  H17X19221   5.736   3.447   4.451  0.9083 -1.1011  1.5356
  170SAPE  H17Y19222   5.884   3.482   4.389 -1.1631  0.9521  1.6622
  170SAPE  C31819223   5.839   3.267   4.426 -0.0875 -1.0657  0.2586
  170SAPE  H18X19224   5.904   3.271   4.516  2.8141  0.3356 -1.7512
  170SAPE  H18Y19225   5.893   3.211   4.346 -2.0763  0.6878 -2.4997
  170SAPE  H18Z19226   5.747   3.208   4.445 -1.3776  0.7246 -0.1598
  171SAPE     N19227   5.377   2.843   2.270  0.8158  0.1455  0.0593
  171SAPE   HN119228   5.340   2.933   2.308  2.3023  1.8813 -2.3203
  171SAPE   HN219229   5.303   2.788   2.221  1.4156 -1.1772  0.6139
  171SAPE   HN319230   5.409   2.790   2.353  1.9023 -0.1576 -0.5396
  171SAPE   C1219231   5.508   2.873   2.200  0.1045  0.3490  0.0280
  171SAPE  H12A19232   5.479   2.953   2.130 -3.7585  0.7836  1.8678
  171SAPE  H12B19233   5.531   2.782   2.140  0.6926 -0.5897  1.5956
  171SAPE   C1119234   5.629   2.891   2.296 -0.2710  0.1397 -0.1876
  171SAPE  H11A19235   5.598   2.963   2.374 -1.3541 -1.6330  1.0936
  171SAPE  H11B19236   5.714   2.926   2.232 -0.6196  1.1235 -0.1192
  171SAPE     P19237   5.718   2.752   2.507 -0.2493 -0.3669  0.3113
  171SAPE   O1319238   5.626   2.675   2.595 -0.3584 -0.3573  0.0188
  171SAPE   O1419239   5.854   2.696   2.478 -0.4024 -0.1040 -0.4563
  171SAPE   O1219240   5.652   2.766   2.359  0.1223  0.4570  0.2507
  171SAPE   O1119241   5.739   2.906   2.554  0.2301  0.0230 -0.0098
  171SAPE    C119242   5.853   2.941   2.635  0.2742  0.4699  0.4925
  171SAPE    HA19243   5.942   2.951   2.569  0.1000 -0.5199  0.0785
  171SAPE    HB19244   5.833   3.041   2.677 -1.4701  0.7651 -0.9224
  171SAPE    C219245   5.888   2.848   2.755  0.2309  0.0337  0.3947
  171SAPE    HS19246   5.956   2.769   2.716 -0.0150 -0.5522  1.1176
  171SAPE   O2119247   5.767   2.804   2.819  0.6390 -1.2675 -0.4399
  171SAPE   C2119248   5.779   2.686   2.874 -0.3424  0.1452 -0.1094
  171SAPE   O2219249   5.879   2.616   2.878 -0.4693 -0.2684  0.0051
  171SAPE   C2219250   5.645   2.647   2.940  0.2326  0.3910 -0.4747
  171SAPE   H2R19251   5.585   2.741   2.941 -0.9290 -0.3419 -0.1498
  171SAPE   H2S19252   5.588   2.589   2.865  0.6314  1.5898 -1.7491
  171SAPE    C319253   5.959   2.928   2.863  0.2589  0.7059  0.4668
  171SAPE    HX19254   5.893   3.016   2.878 -3.8983 -1.6325 -2.1784
  171SAPE    HY19255   6.057   2.959   2.820  0.2276  0.0369 -0.1153
  171SAPE   O3119256   5.961   2.859   2.990 -0.2553  0.1792 -0.1949
  171SAPE   C3119257   6.078   2.810   3.023 -0.7725  0.5143 -0.0104
  171SAPE   O3219258   6.186   2.816   2.966 -0.4712  0.1014 -0.5157
  171SAPE   C3219259   6.053   2.733   3.154  0.0544  0.1774  0.6195
  171SAPE   H2X19260   6.000   2.639   3.129  0.7724 -0.4064  1.2499
  171SAPE   H2Y19261   6.000   2.796   3.229  0.5814 -1.4683  2.4756
  171SAPE   C2319262   5.653   2.568   3.075  0.0515 -0.0345 -0.4351
  171SAPE   H3R19263   5.727   2.486   3.060  0.9785  1.1125 -2.4999
  171SAPE   H3S19264   5.552   2.531   3.107 -0.2121  0.3992 -0.7634
  171SAPE   C2419265   5.713   2.667   3.190  0.0200  0.3003  0.2493
  171SAPE   H4R19266   5.635   2.741   3.216 -1.5044 -2.1360  3.2487
  171SAPE   H4S19267   5.797   2.717   3.138  1.0928 -1.0745  0.6101
  171SAPE   C2519268   5.764   2.580   3.308 -0.6110 -0.1912  0.0889
  171SAPE   H5R19269   5.847   2.517   3.274  0.2108  1.3908 -0.9981
  171SAPE   C2619270   5.714   2.578   3.440 -0.3309  0.1031 -0.2912
  171SAPE   H6R19271   5.773   2.517   3.510  1.4896 -1.9993 -3.3684
  171SAPE   C2719272   5.596   2.653   3.494 -0.1108 -0.3232 -0.1370
  171SAPE   H7R19273   5.517   2.581   3.521 -0.2371  0.5974  2.1225
  171SAPE   H7S19274   5.538   2.710   3.418  1.6370  0.6126 -0.8558
  171SAPE   C2819275   5.645   2.727   3.617  0.0150  0.2192  0.0114
  171SAPE   H8R19276   5.721   2.803   3.596 -0.5824  1.0100  0.6247
  171SAPE   C2919277   5.606   2.710   3.742 -0.0706  0.1162  0.5420
  171SAPE   H9R19278   5.651   2.778   3.815  0.1616  0.3618  0.1724
  171SAPE  C21019279   5.491   2.623   3.791  0.3765 -0.4434  0.5359
  171SAPE  H10R19280   5.530   2.552   3.868  1.4970  1.2330  1.5705
  171SAPE  H10S19281   5.464   2.559   3.703  0.0069  1.0259 -0.4578
  171SAPE  C21119282   5.374   2.705   3.844 -0.3158 -0.6240  0.4487
  171SAPE  H11R19283   5.321   2.775   3.778 -1.1157 -0.2420  1.4877
  171SAPE  C21219284   5.328   2.693   3.969  0.0536  0.6100 -0.0000
  171SAPE  H12R19285   5.242   2.753   4.004  0.3738  1.1585 -0.1425
  171SAPE  C21319286   5.379   2.605   4.080 -0.3333  0.3628  0.1223
  171SAPE  H13R19287   5.414   2.506   4.045 -0.4090  1.0630 -2.1312
  171SAPE  H13S19288   5.288   2.576   4.137 -1.6642  1.6033 -1.2725
  171SAPE  C21419289   5.494   2.656   4.168  0.3547  0.6173 -0.1634
  171SAPE  H14R19290   5.569   2.713   4.111  1.5468 -0.7851 -0.0629
  171SAPE  C21519291   5.509   2.610   4.299 -0.3878 -0.0729  0.4496
  171SAPE  H15R19292   5.596   2.638   4.360 -0.1653  0.9649 -0.3253
  171SAPE  C21619293   5.411   2.526   4.372  0.7936  0.1053 -1.3876
  171SAPE  H16R19294   5.452   2.427   4.401 -2.2749 -1.1107 -0.7407
  171SAPE  H16S19295   5.324   2.502   4.307 -2.5143  1.8089  1.9827
  171SAPE  C21719296   5.345   2.602   4.495  0.3998  0.6384 -0.0239
  171SAPE  H17R19297   5.421   2.660   4.552  1.1181  0.9496 -1.2529
  171SAPE  H17S19298   5.300   2.537   4.574  0.0089  1.4883  0.4675
  171SAPE  C21819299   5.244   2.703   4.444 -0.9860 -0.1438 -0.5340
  171SAPE  H18R19300   5.182   2.654   4.366  1.3506 -0.5212 -2.2339
  171SAPE  H18S19301   5.302   2.776   4.384 -1.3986  1.1253  0.5363
  171SAPE  C21919302   5.153   2.766   4.548  0.2571 -0.0898 -0.7615
  171SAPE  H19R19303   5.213   2.819   4.625 -0.6540  1.1327 -0.8712
  171SAPE  H19S19304   5.097   2.687   4.602  1.6638 -1.0045 -0.5688
  171SAPE  C22019305   5.056   2.873   4.499  0.4508  0.0495  0.2198
  171SAPE  H20R19306   4.965   2.837   4.448 -0.3936 -1.3926  2.6032
  171SAPE  H20S19307   5.106   2.930   4.417  2.1177 -0.2785  0.9591
  171SAPE  H20T19308   5.032   2.945   4.580  1.3115 -0.2816  0.7900
  171SAPE   C3319309   6.185   2.688   3.213 -0.8214 -0.2045 -0.8274
  171SAPE   H3X19310   6.242   2.779   3.242 -1.0720  0.2304 -1.6715
  171SAPE   H3Y19311   6.248   2.632   3.140 -1.1354  0.3994 -1.5654
  171SAPE   C3419312   6.175   2.606   3.341 -0.7922  0.3254 -0.8326
  171SAPE   H4X19313   6.280   2.575   3.362 -0.5106  2.3357  1.0443
  171SAPE   H4Y19314   6.108   2.519   3.324  1.0160 -0.8176 -2.5895
  171SAPE   C3519315   6.141   2.681   3.472 -0.5613  0.2308  0.2242
  171SAPE   H5X19316   6.047   2.736   3.448 -0.5466  1.5216  2.7064
  171SAPE   H5Y19317   6.220   2.756   3.491 -0.6340  0.9835 -2.1329
  171SAPE   C3619318   6.111   2.582   3.581 -0.3320 -0.7369  0.1322
  171SAPE   H6X19319   6.198   2.516   3.604  0.6441  0.5640  0.3009
  171SAPE   H6Y19320   6.042   2.510   3.532  0.6593 -2.1606  0.7202
  171SAPE   C3719321   6.045   2.638   3.709 -0.3495  0.0746 -0.0237
  171SAPE   H7X19322   5.955   2.689   3.667 -1.1172 -0.5668  0.7914
  171SAPE   H7Y19323   6.121   2.699   3.762 -1.1131 -0.7079  2.0613
  171SAPE   C3819324   6.004   2.529   3.813  0.5520 -0.5454 -0.3254
  171SAPE   H8X19325   6.087   2.456   3.817  1.3805  0.2459 -2.1440
  171SAPE   H8Y19326   5.921   2.467   3.772  1.5689 -1.7262 -0.6528
  171SAPE   C3919327   5.959   2.593   3.946  0.0910  0.5009 -0.2495
  171SAPE   H9X19328   5.863   2.646   3.934 -0.0082  0.3418 -0.1597
  171SAPE   H9Y19329   6.032   2.676   3.957  0.7687 -0.0358 -0.5705
  171SAPE  C31019330   5.971   2.502   4.066  0.2426 -0.2230  0.7650
  171SAPE  H10X19331   6.069   2.462   4.099  0.6059  1.0852  1.3437
  171SAPE  H10Y19332   5.899   2.418   4.055 -0.7086  0.6937 -0.2021
  171SAPE  C31119333   5.932   2.586   4.189 -0.7681  0.5137 -0.5496
  171SAPE  H11X19334   5.832   2.633   4.182 -1.1343 -0.4599 -2.4550
  171SAPE  H11Y19335   6.005   2.669   4.199  0.2344 -0.4598  0.5473
  171SAPE  C31219336   5.938   2.503   4.318  0.3067 -0.5757 -0.0723
  171SAPE  H12X19337   5.913   2.573   4.401 -0.1205 -0.7109 -0.0835
  171SAPE  H12Y19338   6.040   2.467   4.339  0.6933 -0.6656 -1.9264
  171SAPE  C31319339   5.846   2.384   4.330  0.3113  0.7107  0.2085
  171SAPE  H13X19340   5.893   2.299   4.276  0.3227  0.0733  1.1918
  171SAPE  H13Y19341   5.750   2.401   4.276 -0.1347  0.2496  0.8305
  171SAPE  C31419342   5.834   2.336   4.476  0.1431 -0.5553  0.0152
  171SAPE  H14X19343   5.790   2.422   4.531  3.3794  0.1202  1.7635
  171SAPE  H14Y19344   5.937   2.326   4.515  0.4213 -0.2439 -0.6160
  171SAPE  C31519345   5.749   2.211   4.496  0.3434  0.1227 -0.4040
  171SAPE  H15X19346   5.788   2.121   4.442 -1.3573 -0.9851  0.1083
  171SAPE  H15Y19347   5.644   2.214   4.458 -0.5463 -1.5863  1.7260
  171SAPE  C31619348   5.733   2.174   4.643  0.0649  0.0341  0.4616
  171SAPE  H16X19349   5.696   2.264   4.697 -0.3209  1.0762 -1.4515
  171SAPE  H16Y19350   5.837   2.148   4.670  0.7018  2.4387  0.5827
  171SAPE  C31719351   5.631   2.062   4.664  0.4649 -0.3696  0.5943
  171SAPE  H17X19352   5.652   1.970   4.605  1.1560 -1.0510  1.8499
  171SAPE  H17Y19353   5.529   2.080   4.625 -0.3431 -1.5199  2.0467
  171SAPE  C31819354   5.613   2.017   4.812 -0.4264 -0.6365  0.5535
  171SAPE  H18X19355   5.540   1.935   4.795 -1.1378  0.0556  0.1293
  171SAPE  H18Y19356   5.567   2.099   4.872 -1.1256 -0.2839 -0.4316
  171SAPE  H18Z19357   5.699   1.967   4.860 -0.3937 -1.5334 -0.4029
  172SAPE     N19358   5.161   6.397   2.553  0.3124  0.4713 -0.0490
  172SAPE   HN119359   5.216   6.446   2.480  2.1849 -0.3205  0.7702
  172SAPE   HN219360   5.080   6.350   2.508 -0.3358  0.5213  1.0355
  172SAPE   HN319361   5.128   6.468   2.622  0.4215  1.1989 -0.7240
  172SAPE   C1219362   5.239   6.296   2.630 -0.0124  0.3112 -0.6689
  172SAPE  H12A19363   5.161   6.237   2.681 -0.8084 -0.2794 -2.4653
  172SAPE  H12B19364   5.299   6.350   2.706 -1.0751 -0.0833  0.4714
  172SAPE   C1119365   5.329   6.208   2.538  0.3382 -0.3736  0.0128
  172SAPE  H11A19366   5.406   6.157   2.600  0.1427 -1.9443 -0.9887
  172SAPE  H11B19367   5.378   6.273   2.463 -0.3186  0.5618  0.3725
  172SAPE     P19368   5.292   6.010   2.360 -0.0227 -0.2945  0.4340
  172SAPE   O1319369   5.172   5.986   2.275 -0.6602 -0.0542  0.0313
  172SAPE   O1419370   5.423   6.047   2.297 -0.0071 -0.4512  0.4397
  172SAPE   O1219371   5.252   6.115   2.472  0.4904 -0.2058  0.2813
  172SAPE   O1119372   5.315   5.875   2.450  0.2598  0.1504 -0.0171
  172SAPE    C119373   5.192   5.818   2.517 -0.2647 -0.5946  1.0982
  172SAPE    HA19374   5.094   5.856   2.481  1.1874  1.5777 -0.8414
  172SAPE    HB19375   5.190   5.710   2.491  0.5267 -0.0552 -1.4284
  172SAPE    C219376   5.206   5.826   2.674  0.1158 -0.4425  0.5736
  172SAPE    HS19377   5.177   5.931   2.696 -0.5047 -0.2113 -1.1552
  172SAPE   O2119378   5.334   5.795   2.727  0.5414 -0.0395  0.1194
  172SAPE   C2119379   5.375   5.867   2.824 -0.6713 -0.0624  0.2835
  172SAPE   O2219380   5.320   5.971   2.862 -0.5384  0.3890  0.3879
  172SAPE   C2219381   5.493   5.804   2.885 -0.8057 -0.2980 -0.5894
  172SAPE   H2R19382   5.570   5.784   2.807  0.6577 -0.5383  0.8419
  172SAPE   H2S19383   5.544   5.891   2.932  0.9938 -1.3698 -0.4658
  172SAPE    C319384   5.097   5.737   2.745 -0.1445 -0.2231  0.9950
  172SAPE    HX19385   5.143   5.637   2.758  2.0472  0.8974  2.4763
  172SAPE    HY19386   5.010   5.736   2.675  0.4080  0.6374  0.2791
  172SAPE   O3119387   5.046   5.796   2.870 -0.7372  0.4255 -0.2960
  172SAPE   C3119388   5.030   5.710   2.973  0.4799  0.4183  0.4976
  172SAPE   O3219389   5.075   5.598   2.983  0.5814  0.2554 -0.0067
  172SAPE   C3219390   4.969   5.782   3.097  0.4050 -0.3031 -0.4477
  172SAPE   H2X19391   4.996   5.889   3.101  0.9526 -0.4371  3.2115
  172SAPE   H2Y19392   5.011   5.735   3.189  0.8508 -3.3672 -2.0831
  172SAPE   C2319393   5.458   5.675   2.967  0.1951 -0.4112  0.2353
  172SAPE   H3R19394   5.559   5.637   2.996  1.4621  1.6875 -1.1354
  172SAPE   H3S19395   5.403   5.602   2.905  2.2547 -0.2308 -1.9318
  172SAPE   C2419396   5.386   5.701   3.099  0.5766 -1.2156 -0.1322
  172SAPE   H4R19397   5.295   5.758   3.071  2.5271  2.5542  0.4841
  172SAPE   H4S19398   5.452   5.768   3.159 -2.0211  2.2715 -0.8548
  172SAPE   C2519399   5.363   5.569   3.171  0.1811 -0.4443  0.0710
  172SAPE   H5R19400   5.301   5.497   3.115  2.3016 -2.4024  0.0986
  172SAPE   C2619401   5.415   5.521   3.285  0.5182  0.3680  0.2180
  172SAPE   H6R19402   5.390   5.418   3.317  1.6484  0.0031 -0.0200
  172SAPE   C2719403   5.495   5.585   3.393 -0.7753  0.1853 -0.5097
  172SAPE   H7R19404   5.508   5.694   3.373 -2.1702  0.5244  0.2308
  172SAPE   H7S19405   5.599   5.548   3.392 -1.3608 -1.5421 -0.9744
  172SAPE   C2819406   5.423   5.565   3.529 -0.7072  0.3130 -0.1959
  172SAPE   H8R19407   5.318   5.531   3.522 -0.2288 -1.4953  0.7278
  172SAPE   C2919408   5.483   5.584   3.652 -0.0307  0.0304 -0.9201
  172SAPE   H9R19409   5.424   5.573   3.744  0.3928  2.3230 -0.3032
  172SAPE  C21019410   5.628   5.612   3.679 -0.4686  0.1801 -0.6667
  172SAPE  H10R19411   5.630   5.715   3.720 -0.0282  0.1305 -0.5600
  172SAPE  H10S19412   5.685   5.620   3.584  3.4816  0.6212  1.5127
  172SAPE  C21119413   5.697   5.522   3.777  0.0111  0.1744 -0.3456
  172SAPE  H11R19414   5.783   5.468   3.737  0.9277  1.9926 -0.9395
  172SAPE  C21219415   5.672   5.499   3.909  0.4861 -0.3409 -0.3402
  172SAPE  H12R19416   5.730   5.423   3.962  3.2638  0.6070 -1.8325
  172SAPE  C21319417   5.566   5.582   3.986 -0.1640  0.4800  0.6433
  172SAPE  H13R19418   5.535   5.665   3.919 -0.6322 -1.1251 -1.2242
  172SAPE  H13S19419   5.606   5.632   4.077  0.9351  0.5038  0.1641
  172SAPE  C21419420   5.452   5.490   4.030  0.5415  0.9390 -0.7039
  172SAPE  H14R19421   5.434   5.404   3.965  2.3463 -1.5862  1.8659
  172SAPE  C21519422   5.367   5.509   4.135 -0.0650  0.3562 -0.1657
  172SAPE  H15R19423   5.299   5.424   4.155  0.1678 -0.5173 -2.6182
  172SAPE  C21619424   5.365   5.626   4.225  0.3777 -0.2908 -0.5513
  172SAPE  H16R19425   5.265   5.671   4.245  0.9191  1.0418 -0.7611
  172SAPE  H16S19426   5.419   5.713   4.181 -1.4557  1.7346  0.9868
  172SAPE  C21719427   5.432   5.607   4.362  0.1526 -0.2630 -0.1278
  172SAPE  H17R19428   5.539   5.586   4.341 -0.5288 -3.2068 -1.0680
  172SAPE  H17S19429   5.393   5.527   4.429 -1.0096 -0.5113 -1.0685
  172SAPE  C21819430   5.420   5.724   4.462 -0.5457  0.2044 -0.4978
  172SAPE  H18R19431   5.314   5.751   4.480 -0.3412  0.8946 -0.2721
  172SAPE  H18S19432   5.472   5.812   4.417 -0.8899  0.3764 -0.5665
  172SAPE  C21919433   5.510   5.711   4.592 -0.0842  0.8255 -0.3608
  172SAPE  H19R19434   5.619   5.713   4.570  0.3958 -1.5476  1.4508
  172SAPE  H19S19435   5.476   5.608   4.618 -2.7879  1.3540 -1.4117
  172SAPE  C22019436   5.480   5.807   4.709 -0.6204 -0.2663  0.8317
  172SAPE  H20R19437   5.444   5.757   4.801  2.8058 -2.4635  1.1506
  172SAPE  H20S19438   5.423   5.891   4.665 -0.1619 -0.7906 -0.8499
  172SAPE  H20T19439   5.578   5.854   4.733  0.0808 -2.0881  1.7271
  172SAPE   C3319440   4.812   5.775   3.091 -0.7155  0.0789  0.3446
  172SAPE   H3X19441   4.777   5.670   3.079 -0.7496 -0.4240  3.8028
  172SAPE   H3Y19442   4.777   5.828   3.000  0.9956 -0.8611 -0.9059
  172SAPE   C3419443   4.753   5.828   3.228 -0.4160  0.1557 -0.3712
  172SAPE   H4X19444   4.643   5.812   3.233 -0.3680 -0.1827 -0.3601
  172SAPE   H4Y19445   4.768   5.937   3.242  1.9257  0.3314 -3.1706
  172SAPE   C3519446   4.819   5.760   3.352  0.0334  1.0754  0.1206
  172SAPE   H5X19447   4.926   5.786   3.369  0.9340 -0.9891 -1.9126
  172SAPE   H5Y19448   4.815   5.652   3.329 -0.1831  0.4872  2.5852
  172SAPE   C3619449   4.738   5.801   3.478 -1.0229  0.7082 -0.2467
  172SAPE   H6X19450   4.632   5.768   3.479 -0.5185 -1.0751 -0.8261
  172SAPE   H6Y19451   4.735   5.912   3.481  0.4269  0.7967 -1.0896
  172SAPE   C3719452   4.800   5.730   3.602  0.1859  0.0676  0.5668
  172SAPE   H7X19453   4.910   5.742   3.610  0.3123 -0.2957 -0.5184
  172SAPE   H7Y19454   4.775   5.622   3.590  1.4336  0.0779 -4.3155
  172SAPE   C3819455   4.731   5.788   3.729  0.1610  0.4850 -0.8025
  172SAPE   H8X19456   4.625   5.815   3.711  0.1556  0.3066 -1.0423
  172SAPE   H8Y19457   4.783   5.885   3.742 -2.1265  1.5670  1.0701
  172SAPE   C3919458   4.740   5.704   3.851 -0.3154  0.0873 -0.4790
  172SAPE   H9X19459   4.849   5.688   3.863 -0.2944  0.0336 -0.7237
  172SAPE   H9Y19460   4.687   5.609   3.828  3.1356 -1.8286 -1.2054
  172SAPE  C31019461   4.675   5.771   3.973 -0.3896  1.0047  0.1654
  172SAPE  H10X19462   4.570   5.807   3.965 -0.3643  1.2051  0.6953
  172SAPE  H10Y19463   4.728   5.868   3.988  0.1452  0.5681  1.1794
  172SAPE  C31119464   4.709   5.690   4.102 -0.2372  0.0793 -0.2330
  172SAPE  H11X19465   4.812   5.723   4.127  0.4362 -1.5763 -0.6661
  172SAPE  H11Y19466   4.724   5.583   4.075 -2.3857 -1.2427  3.1434
  172SAPE  C31219467   4.612   5.712   4.211  0.4347 -0.2499 -0.3790
  172SAPE  H12X19468   4.511   5.681   4.177 -0.2834  2.1100 -0.5276
  172SAPE  H12Y19469   4.598   5.821   4.223  1.2197 -0.1119 -0.7011
  172SAPE  C31319470   4.637   5.640   4.340  0.0671 -0.1557  0.4202
  172SAPE  H13X19471   4.733   5.684   4.376  0.3978 -0.6461  0.1349
  172SAPE  H13Y19472   4.656   5.533   4.319  1.0858  0.3790 -1.5772
  172SAPE  C31419473   4.538   5.668   4.457  0.0530 -0.1740  0.1127
  172SAPE  H14X19474   4.507   5.774   4.473 -2.3782 -0.6977 -0.6403
  172SAPE  H14Y19475   4.590   5.641   4.551  0.7544 -1.8961 -0.7266
  172SAPE  C31519476   4.405   5.583   4.453  0.6130 -0.1209  0.3011
  172SAPE  H15X19477   4.433   5.479   4.426  0.5953 -0.0135 -0.1485
  172SAPE  H15Y19478   4.346   5.623   4.368  0.3562  0.3064  0.6774
  172SAPE  C31619479   4.317   5.603   4.579 -0.2219 -0.1202 -0.7215
  172SAPE  H16X19480   4.342   5.690   4.643 -1.8365 -0.0606 -0.1483
  172SAPE  H16Y19481   4.345   5.522   4.648 -0.0107  1.1770  0.7762
  172SAPE  C31719482   4.170   5.601   4.548  0.2586 -0.2236 -0.1191
  172SAPE  H17X19483   4.162   5.511   4.483 -1.3150  0.0639 -0.3516
  172SAPE  H17Y19484   4.138   5.690   4.489  0.9575  0.4338  0.4691
  172SAPE  C31819485   4.090   5.577   4.679 -1.0111  0.6883  0.1958
  172SAPE  H18X19486   3.984   5.557   4.656 -0.2134 -0.9478 -2.4922
  172SAPE  H18Y19487   4.094   5.659   4.754 -1.0549  1.1653 -0.3191
  172SAPE  H18Z19488   4.135   5.484   4.721 -1.0875 -0.5063 -2.1860
  173SLPC     N19489   0.773   5.458   7.363  0.2086 -0.4801  0.1077
  173SLPC   C1319490   0.629   5.451   7.322  0.1020 -0.4179 -0.4453
  173SLPC  H13A19491   0.616   5.352   7.282 -0.8005 -0.6877  0.4866
  173SLPC  H13B19492   0.570   5.463   7.412 -1.6064  0.9702 -1.6924
  173SLPC  H13C19493   0.606   5.522   7.244 -0.0389 -0.7829 -0.7325
  173SLPC   C1419494   0.801   5.343   7.450  0.6980  0.8051 -0.1195
  173SLPC  H14A19495   0.784   5.371   7.553  0.4789  1.5722 -0.3612
  173SLPC  H14B19496   0.757   5.250   7.416  1.8203  0.3864 -0.4589
  173SLPC  H14C19497   0.905   5.317   7.452 -0.1370 -3.4507 -1.3076
  173SLPC   C1519498   0.799   5.581   7.437  0.3368  0.2260 -0.1514
  173SLPC  H15A19499   0.879   5.580   7.510 -1.2080  1.8923  1.6728
  173SLPC  H15B19500   0.807   5.676   7.385 -2.1956 -0.6686 -2.4371
  173SLPC  H15C19501   0.709   5.596   7.495  1.2791  0.3785  1.3095
  173SLPC   C1219502   0.862   5.451   7.244 -0.2160  0.0723  0.6099
  173SLPC  H12A19503   0.859   5.352   7.200  0.0444  0.8774 -1.3280
  173SLPC  H12B19504   0.964   5.446   7.281 -0.1100 -0.5599  0.2494
  173SLPC   C1119505   0.843   5.552   7.132 -0.2481  0.6324 -0.6284
  173SLPC  H11A19506   0.933   5.548   7.067 -1.3050 -0.8477 -2.0531
  173SLPC  H11B19507   0.834   5.657   7.170 -1.4857 -0.0682  1.1283
  173SLPC     P19508   0.725   5.405   6.954  0.0803  0.5648 -0.2005
  173SLPC   O1319509   0.845   5.320   6.970  0.2081  0.1492 -0.6656
  173SLPC   O1419510   0.598   5.338   6.970  0.0913 -0.4200  0.6309
  173SLPC   O1219511   0.729   5.527   7.054  0.0175  0.3802  0.4553
  173SLPC   O1119512   0.736   5.473   6.804 -0.4355  0.6895 -1.0480
  173SLPC    C119513   0.622   5.541   6.757 -0.6983 -0.5130  0.5241
  173SLPC    HA19514   0.532   5.477   6.764 -1.1295  0.1504  1.3284
  173SLPC    HB19515   0.598   5.628   6.823  0.6738 -1.4133  2.3088
  173SLPC    C219516   0.652   5.587   6.604 -0.0327 -0.0073 -0.1273
  173SLPC    HS19517   0.664   5.496   6.543  0.6452  1.6596 -2.6431
  173SLPC   O2119518   0.776   5.667   6.604 -0.1330  0.7378  0.4891
  173SLPC   C2119519   0.851   5.644   6.493  0.2930  0.9701 -0.5386
  173SLPC   O2219520   0.843   5.542   6.420  0.7085 -0.2400 -0.3280
  173SLPC   C2219521   0.935   5.767   6.478 -0.3038 -0.4101  0.1260
  173SLPC   H2R19522   0.880   5.857   6.515 -0.7417 -0.2201 -0.9732
  173SLPC   H2S19523   1.025   5.743   6.539  0.7793 -0.7366 -1.5521
  173SLPC    C319524   0.528   5.662   6.540  0.1588 -0.6705  0.5192
  173SLPC    HX19525   0.535   5.766   6.579  0.2375 -1.4689  2.7513
  173SLPC    HY19526   0.430   5.646   6.590 -1.0353  0.4527 -1.3329
  173SLPC   O3119527   0.528   5.655   6.396  0.6719 -0.2641  0.2906
  173SLPC   C3119528   0.471   5.539   6.362  0.3053  0.1550  0.7360
  173SLPC   O3219529   0.409   5.467   6.440 -0.0177  0.3366 -0.3655
  173SLPC   C3219530   0.507   5.516   6.215 -0.0985 -0.6227  0.4123
  173SLPC   H2X19531   0.523   5.407   6.202 -0.9830 -0.8432  1.0197
  173SLPC   H2Y19532   0.600   5.566   6.182 -1.7338  1.2939 -1.5625
  173SLPC   C2319533   0.977   5.790   6.333  0.1286 -0.0587  0.2257
  173SLPC   H3R19534   1.038   5.704   6.298 -0.3439  0.4221 -1.9065
  173SLPC   H3S19535   1.034   5.885   6.341  2.7512 -1.6288  1.4786
  173SLPC   C2419536   0.844   5.805   6.242 -0.7198  0.1735  0.0893
  173SLPC   H4R19537   0.796   5.894   6.289 -0.1098  0.7173 -0.2959
  173SLPC   H4S19538   0.777   5.717   6.243 -2.0425  1.1545  0.4383
  173SLPC   C2519539   0.867   5.844   6.097 -0.0883  0.1785 -0.0873
  173SLPC   H5R19540   0.940   5.776   6.049 -0.0637  2.0439 -2.9145
  173SLPC   H5S19541   0.914   5.945   6.090 -1.0222  1.0960  4.0956
  173SLPC   C2619542   0.743   5.839   6.009  0.5146  0.5001 -0.3066
  173SLPC   H6R19543   0.679   5.916   6.057  1.7730  0.2320  1.9310
  173SLPC   H6S19544   0.700   5.736   6.004 -1.7095  1.4129 -1.5777
  173SLPC   C2719545   0.779   5.868   5.861  0.0209 -0.3150  1.1456
  173SLPC   H7R19546   0.818   5.785   5.798 -1.2421 -0.7099  0.8408
  173SLPC   H7S19547   0.851   5.952   5.870 -0.2696  0.2370 -1.0996
  173SLPC   C2819548   0.670   5.928   5.778  0.8492  0.3307 -0.5058
  173SLPC   H8R19549   0.627   6.013   5.836 -0.3875  0.1988 -1.2053
  173SLPC   H8S19550   0.587   5.863   5.743  0.3427  1.6385 -1.8463
  173SLPC   C2919551   0.716   5.987   5.648  0.3268  0.4058 -0.7033
  173SLPC   H9R19552   0.754   6.089   5.662 -1.1909  0.7279  1.7108
  173SLPC  C21019553   0.705   5.928   5.525 -0.9375  0.3013 -0.0734
  173SLPC  H10R19554   0.715   5.992   5.436 -1.3551  0.7877  0.2243
  173SLPC  C21119555   0.663   5.790   5.493 -0.5303 -0.1846  0.1676
  173SLPC  H11R19556   0.656   5.727   5.584  1.6480  1.4113  1.5324
  173SLPC  H11S19557   0.741   5.748   5.426 -1.5692 -0.9180 -0.6115
  173SLPC  C21219558   0.524   5.782   5.430 -0.4232 -0.3986 -0.1962
  173SLPC  H12R19559   0.456   5.850   5.483 -0.1963  1.0841 -1.7504
  173SLPC  C21319560   0.474   5.732   5.315  0.5663 -0.2864 -0.2706
  173SLPC  H13R19561   0.367   5.736   5.292  0.5527 -0.8560 -0.3260
  173SLPC  C21419562   0.555   5.638   5.229 -0.1760 -0.1009  0.0500
  173SLPC  H14R19563   0.475   5.572   5.188 -0.8997  2.2633 -2.7614
  173SLPC  H14S19564   0.629   5.583   5.290 -2.9501 -3.5212  0.6520
  173SLPC  C21519565   0.624   5.699   5.103  0.8182  0.0847 -0.9176
  173SLPC  H15R19566   0.697   5.623   5.068 -0.3434 -2.2174  1.3209
  173SLPC  H15S19567   0.690   5.785   5.123 -0.3409  0.6769  0.5156
  173SLPC  C21619568   0.526   5.740   4.991  0.0904 -0.1270 -0.5136
  173SLPC  H16R19569   0.440   5.779   5.049  1.7314  0.7160  1.4823
  173SLPC  H16S19570   0.506   5.652   4.926  1.0133 -0.4621 -0.3597
  173SLPC  C21719571   0.586   5.838   4.894 -0.2921 -0.1643  0.2527
  173SLPC  H17R19572   0.684   5.803   4.855 -0.8646 -1.2573 -0.2533
  173SLPC  H17S19573   0.597   5.931   4.954 -1.7499 -0.8935  1.7229
  173SLPC  C21819574   0.498   5.881   4.776  0.7515 -0.1068  0.6597
  173SLPC  H18R19575   0.463   5.793   4.719 -1.2663  2.8482 -3.1785
  173SLPC  H18S19576   0.558   5.941   4.704  0.7561 -0.0286  0.7287
  173SLPC  H18T19577   0.402   5.933   4.798  0.5113  0.4927 -1.5394
  173SLPC   C3319578   0.392   5.564   6.132 -0.1269 -0.6374  0.0232
  173SLPC   H3X19579   0.346   5.661   6.163  0.0990 -0.9174  1.2888
  173SLPC   H3Y19580   0.302   5.499   6.137 -0.7521  0.1654 -0.4887
  173SLPC   C3419581   0.430   5.578   5.985 -0.2182 -1.3271 -0.2478
  173SLPC   H4X19582   0.513   5.510   5.959  1.5067  0.7440 -0.3970
  173SLPC   H4Y19583   0.491   5.666   5.955 -0.5544 -1.4442 -1.3505
  173SLPC   C3519584   0.310   5.564   5.891 -0.4128 -0.0774 -0.4008
  173SLPC   H5X19585   0.228   5.635   5.919 -0.2462 -0.6172  1.5687
  173SLPC   H5Y19586   0.271   5.462   5.908  0.3489 -0.1050  1.3271
  173SLPC   C3619587   0.341   5.577   5.750  0.4137  0.2566  0.5325
  173SLPC   H6X19588   0.438   5.531   5.722  0.1706 -0.8551  1.4698
  173SLPC   H6Y19589   0.330   5.680   5.710 -0.6488 -0.3294 -0.7417
  173SLPC   C3719590   0.230   5.487   5.679  0.0949  1.0700 -0.5564
  173SLPC   H7X19591   0.124   5.500   5.708 -0.3529  0.4709 -1.8800
  173SLPC   H7Y19592   0.270   5.388   5.712  1.0085  1.5266 -0.2701
  173SLPC   C3819593   0.240   5.497   5.529  0.0029 -0.2399  0.8863
  173SLPC   H8X19594   0.344   5.507   5.491  0.1326  1.1107  1.5413
  173SLPC   H8Y19595   0.200   5.597   5.503 -0.6700 -0.6978  0.1228
  173SLPC   C3919596   0.158   5.385   5.453 -0.2555 -0.5296  0.0400
  173SLPC   H9X19597   0.051   5.415   5.456  0.0789  0.5815  1.6729
  173SLPC   H9Y19598   0.169   5.279   5.486 -0.2650 -1.1392 -1.8062
  173SLPC  C31019599   0.195   5.394   5.305  0.1170  0.3689 -0.1521
  173SLPC  H10X19600   0.283   5.328   5.287 -0.0798 -0.5656  1.9756
  173SLPC  H10Y19601   0.216   5.500   5.279  1.9495  0.3602  1.0935
  173SLPC  C31119602   0.076   5.338   5.220  0.7331  0.1486 -0.9165
  173SLPC  H11X19603  -0.008   5.402   5.252  0.3889 -0.4922 -0.5205
  173SLPC  H11Y19604   0.049   5.239   5.263 -1.3965  1.4506  0.9213
  173SLPC  C31219605   0.106   5.322   5.069 -0.4537 -0.9339 -0.4740
  173SLPC  H12X19606   0.184   5.400   5.053 -0.9918 -0.0160  1.1372
  173SLPC  H12Y19607   0.015   5.336   5.008 -0.1688 -0.0433 -0.7091
  173SLPC  C31319608   0.169   5.188   5.040  0.0980 -0.3224  0.3490
  173SLPC  H13X19609   0.103   5.104   5.072  0.6838 -0.8510  0.2079
  173SLPC  H13Y19610   0.264   5.181   5.098  0.6625 -3.8988 -0.7299
  173SLPC  C31419611   0.214   5.159   4.893 -0.1843 -0.1833  0.3428
  173SLPC  H14X19612   0.292   5.079   4.893 -2.2292 -2.2835  0.3166
  173SLPC  H14Y19613   0.263   5.245   4.844  2.8016 -1.4457  0.8352
  173SLPC  C31519614   0.096   5.112   4.796  0.2511  1.0699 -0.0673
  173SLPC  H15X19615   0.016   5.187   4.809 -0.4514  0.4478 -0.7279
  173SLPC  H15Y19616   0.052   5.018   4.835  1.6063 -0.3630 -1.8059
  173SLPC  C31619617   0.119   5.096   4.647  1.0268 -0.0340  0.3512
  173SLPC  H16X19618   0.201   5.022   4.636 -0.1230 -1.0616 -2.3516
  173SLPC  H16Y19619   0.152   5.195   4.608  0.8237  0.9058  2.4569
  173SLPC  C31719620  -0.001   5.055   4.566 -0.1149  0.6281  0.1841
  173SLPC  H17X19621  -0.083   5.128   4.580 -1.6184  0.2707 -4.7776
  173SLPC  H17Y19622  -0.043   4.958   4.600 -0.3353 -0.3079 -2.5309
  173SLPC  C31819623   0.017   5.059   4.413  0.1059  0.2018 -0.3972
  173SLPC  H18X19624  -0.000   5.166   4.388  1.6688  0.6445  0.2964
  173SLPC  H18Y19625  -0.046   4.985   4.360  1.4226 -1.0363 -0.2693
  173SLPC  H18Z19626   0.116   5.030   4.374  0.3322  0.6199 -0.1481
  174SLPC     N19627   4.388   6.707   7.060  0.5034  0.6441  0.1274
  174SLPC   C1319628   4.538   6.702   7.031  0.8146  0.4329  0.1741
  174SLPC  H13A19629   4.593   6.701   7.124  0.0509 -0.5437  0.6346
  174SLPC  H13B19630   4.557   6.615   6.970  0.7273 -1.1198  2.2594
  174SLPC  H13C19631   4.561   6.793   6.977  0.7195  0.3965  0.0699
  174SLPC   C1419632   4.357   6.827   7.144  0.4362  0.3429  1.1363
  174SLPC  H14A19633   4.420   6.841   7.231  0.8619 -0.8257  1.0413
  174SLPC  H14B19634   4.342   6.920   7.092  0.8090  0.2535  0.8606
  174SLPC  H14C19635   4.260   6.806   7.185  0.7369 -1.3629  1.0581
  174SLPC   C1519636   4.352   6.577   7.136  0.0260  0.4055 -0.4682
  174SLPC  H15A19637   4.380   6.502   7.063  0.6743  0.8279 -0.6585
  174SLPC  H15B19638   4.416   6.552   7.220  2.2244  1.5425 -1.7346
  174SLPC  H15C19639   4.249   6.561   7.165  0.7237 -0.3398  1.8811
  174SLPC   C1219640   4.315   6.722   6.933  0.8127 -0.0352  0.2250
  174SLPC  H12A19641   4.338   6.822   6.898  0.6037 -0.4086 -1.0244
  174SLPC  H12B19642   4.209   6.724   6.953  0.9389 -0.2617  0.9313
  174SLPC   C1119643   4.353   6.633   6.815  0.2084 -0.0916 -0.5276
  174SLPC  H11A19644   4.460   6.636   6.787  0.7732 -0.0634  1.4828
  174SLPC  H11B19645   4.297   6.663   6.724  0.0510 -2.0460 -1.1163
  174SLPC     P19646   4.167   6.453   6.831 -0.3490 -0.0610 -0.0314
  174SLPC   O1319647   4.161   6.305   6.852  0.2012 -0.2251  0.2936
  174SLPC   O1419648   4.084   6.535   6.918  0.3526 -0.0583 -0.0891
  174SLPC   O1219649   4.321   6.497   6.845 -0.0678 -0.7108 -0.1484
  174SLPC   O1119650   4.138   6.498   6.679  0.0087  0.5779  0.5367
  174SLPC    C119651   4.222   6.428   6.587  0.4343  0.6261 -0.0269
  174SLPC    HA19652   4.331   6.427   6.605  0.1218  0.0319  2.1258
  174SLPC    HB19653   4.186   6.324   6.574  0.0144  0.6755  0.6440
  174SLPC    C219654   4.213   6.492   6.445 -0.2469  0.1210 -0.3267
  174SLPC    HS19655   4.248   6.597   6.454  0.2590  0.2514 -3.0656
  174SLPC   O2119656   4.082   6.488   6.383 -0.5012  0.1431  0.1998
  174SLPC   C2119657   4.058   6.585   6.299  0.5377 -1.1900 -0.1708
  174SLPC   O2219658   4.130   6.679   6.271 -0.1016  0.1763  0.3437
  174SLPC   C2219659   3.914   6.573   6.260  1.0510  0.2920 -0.0207
  174SLPC   H2R19660   3.855   6.539   6.347  1.2497 -0.8511 -0.3190
  174SLPC   H2S19661   3.874   6.674   6.237  0.9308 -0.0492 -1.3572
  174SLPC    C319662   4.320   6.431   6.355 -0.0451 -1.5067  0.3404
  174SLPC    HX19663   4.300   6.322   6.355 -0.4483 -1.4351  0.0115
  174SLPC    HY19664   4.416   6.456   6.405 -0.3414 -0.2404  0.3020
  174SLPC   O3119665   4.315   6.470   6.214  1.1240  0.0383  0.0692
  174SLPC   C3119666   4.431   6.468   6.145  0.2574  0.5897 -0.0036
  174SLPC   O3219667   4.535   6.419   6.180  0.4855 -0.3223  0.4423
  174SLPC   C3219668   4.413   6.532   6.002  0.0326  0.0609 -0.1010
  174SLPC   H2X19669   4.457   6.633   6.016  0.2777 -0.2896  1.8209
  174SLPC   H2Y19670   4.305   6.548   5.982  0.1773 -0.3913 -1.3720
  174SLPC   C2319671   3.893   6.487   6.135 -0.3954 -0.6698  0.1956
  174SLPC   H3R19672   3.927   6.543   6.045  0.7646 -1.2984  0.2129
  174SLPC   H3S19673   3.785   6.465   6.120 -0.6140 -0.4941  1.4082
  174SLPC   C2419674   3.961   6.351   6.146 -0.2467  0.0685  0.0404
  174SLPC   H4R19675   3.932   6.289   6.234  1.8755 -2.2103 -0.7096
  174SLPC   H4S19676   4.071   6.363   6.157  0.2797 -2.8943 -0.8169
  174SLPC   C2519677   3.938   6.260   6.019  1.3555 -0.6673 -0.1882
  174SLPC   H5R19678   4.008   6.174   6.031  0.8216 -0.8092  2.5630
  174SLPC   H5S19679   3.957   6.305   5.919  1.4117 -1.4011 -0.5180
  174SLPC   C2619680   3.800   6.193   6.018 -0.1640 -0.1472  0.3732
  174SLPC   H6R19681   3.714   6.251   5.980 -0.1416 -1.6714 -2.2488
  174SLPC   H6S19682   3.783   6.147   6.118 -0.5681  0.0759  0.4097
  174SLPC   C2719683   3.803   6.070   5.915 -0.4409 -0.3577  0.6498
  174SLPC   H7R19684   3.893   6.009   5.938  0.1393 -1.5057 -3.7409
  174SLPC   H7S19685   3.832   6.116   5.817 -0.8748  2.2372  1.6636
  174SLPC   C2819686   3.676   5.978   5.903 -0.6036 -0.1571 -0.0641
  174SLPC   H8R19687   3.595   6.043   5.865  0.0021  0.5489 -0.1615
  174SLPC   H8S19688   3.647   5.937   6.002  0.6137  0.0538  0.3977
  174SLPC   C2919689   3.705   5.856   5.822 -0.1758  0.4935 -0.1619
  174SLPC   H9R19690   3.746   5.772   5.879 -1.3244 -0.8969 -1.3007
  174SLPC  C21019691   3.659   5.842   5.693 -0.1381  0.1827  0.7325
  174SLPC  H10R19692   3.671   5.747   5.640  0.1784  0.5663  0.0979
  174SLPC  C21119693   3.598   5.948   5.612  0.1156 -0.3181 -0.3888
  174SLPC  H11R19694   3.666   5.948   5.524  1.8062 -0.0645  0.8546
  174SLPC  H11S19695   3.627   6.043   5.663 -0.0774 -0.3544 -0.2107
  174SLPC  C21219696   3.449   5.935   5.590  0.6886  0.1230  0.4404
  174SLPC  H12R19697   3.386   5.939   5.680  1.7750  0.4174  1.2142
  174SLPC  C21319698   3.397   5.921   5.464  1.0691 -0.0143  0.0701
  174SLPC  H13R19699   3.287   5.918   5.457  1.0247  1.0882  0.0556
  174SLPC  C21419700   3.471   5.923   5.329  0.1154 -0.0749 -0.6230
  174SLPC  H14R19701   3.475   5.816   5.301 -1.2881 -0.3610  0.1382
  174SLPC  H14S19702   3.572   5.968   5.335 -0.8684  2.4703 -1.7140
  174SLPC  C21519703   3.389   5.995   5.225  0.0965 -0.1992 -0.7635
  174SLPC  H15R19704   3.388   6.105   5.241  2.0284 -0.1833 -0.5572
  174SLPC  H15S19705   3.281   5.968   5.228  0.0932 -0.1661 -0.5878
  174SLPC  C21619706   3.423   5.975   5.077  0.1752 -0.0514 -0.7311
  174SLPC  H16R19707   3.411   5.866   5.061 -2.2594 -0.3659  2.2047
  174SLPC  H16S19708   3.530   6.002   5.068 -0.0292  1.3078  0.4023
  174SLPC  C21719709   3.348   6.057   4.971  0.1954 -0.0864  0.3257
  174SLPC  H17R19710   3.248   6.009   4.968 -0.8426  1.9410  0.3988
  174SLPC  H17S19711   3.395   6.050   4.870 -0.1951 -1.9040  0.2302
  174SLPC  C21819712   3.337   6.207   4.988  0.0389  0.4349 -0.1612
  174SLPC  H18R19713   3.278   6.227   5.080  2.5972 -1.0661  1.9505
  174SLPC  H18S19714   3.295   6.254   4.897 -1.6214  1.1894  0.9288
  174SLPC  H18T19715   3.434   6.247   5.025 -0.1281 -0.2424  1.0767
  174SLPC   C3319716   4.481   6.447   5.892  0.3592 -0.0940 -0.2551
  174SLPC   H3X19717   4.440   6.343   5.888 -0.2885  0.0418  1.6110
  174SLPC   H3Y19718   4.587   6.436   5.923  0.1444  1.4186  1.1580
  174SLPC   C3419719   4.491   6.515   5.755  0.0473  0.6720  0.3241
  174SLPC   H4X19720   4.542   6.460   5.673 -0.1177  1.7135 -0.4972
  174SLPC   H4Y19721   4.536   6.616   5.762 -0.1713  0.8708 -0.8235
  174SLPC   C3519722   4.344   6.540   5.703 -0.9496  0.0739  0.4287
  174SLPC   H5X19723   4.294   6.621   5.761 -1.7423 -0.0722 -0.0420
  174SLPC   H5Y19724   4.298   6.440   5.719 -1.4897  0.4372  1.2345
  174SLPC   C3619725   4.339   6.574   5.552 -0.1620  0.1530  0.7353
  174SLPC   H6X19726   4.416   6.646   5.517  0.5374 -1.0983 -0.3952
  174SLPC   H6Y19727   4.238   6.614   5.530  0.2123 -0.3543 -2.3849
  174SLPC   C3719728   4.361   6.438   5.470 -0.4150 -0.5944  0.4055
  174SLPC   H7X19729   4.278   6.375   5.508 -0.3688  0.1173  1.7206
  174SLPC   H7Y19730   4.454   6.388   5.506  0.4740  1.9395  1.8242
  174SLPC   C3819731   4.359   6.446   5.318 -0.3409 -0.6162 -0.2486
  174SLPC   H8X19732   4.373   6.348   5.268 -0.7233 -1.3330  0.9861
  174SLPC   H8Y19733   4.449   6.507   5.295  0.5014 -2.3870 -1.9343
  174SLPC   C3919734   4.231   6.513   5.282  0.7051 -0.0406  0.0207
  174SLPC   H9X19735   4.249   6.619   5.313 -1.0402  0.4474 -0.4899
  174SLPC   H9Y19736   4.148   6.465   5.338  0.7275  1.9577  1.9278
  174SLPC  C31019737   4.197   6.501   5.135 -0.5283  0.5200  0.5833
  174SLPC  H10X19738   4.194   6.391   5.120 -0.1523  0.6003 -0.0976
  174SLPC  H10Y19739   4.290   6.542   5.091 -0.0407 -0.2307  0.8927
  174SLPC  C31119740   4.064   6.558   5.088 -0.8056  0.0965  0.7413
  174SLPC  H11X19741   4.049   6.663   5.121 -2.2253  0.0071  0.4369
  174SLPC  H11Y19742   3.978   6.495   5.121  0.0474 -2.4633 -1.5648
  174SLPC  C31219743   4.064   6.577   4.937  0.0102  0.6026  0.4294
  174SLPC  H12X19744   4.157   6.626   4.900 -0.7915  2.2311  0.4972
  174SLPC  H12Y19745   3.981   6.646   4.914 -0.8605  0.4591  2.9052
  174SLPC  C31319746   4.044   6.458   4.845 -0.6523 -0.0462 -0.4866
  174SLPC  H13X19747   4.121   6.379   4.858 -0.5698  0.2846  1.2237
  174SLPC  H13Y19748   4.049   6.500   4.742 -0.7371  0.8489 -0.1354
  174SLPC  C31419749   3.903   6.402   4.849 -0.0635  0.1957  0.3843
  174SLPC  H14X19750   3.839   6.478   4.801 -2.2949 -3.0455 -2.2985
  174SLPC  H14Y19751   3.872   6.378   4.953  0.8508 -1.4745  0.3187
  174SLPC  C31519752   3.891   6.272   4.764  0.3949 -0.0594 -0.7544
  174SLPC  H15X19753   3.937   6.186   4.816 -2.2095 -1.5134 -0.6487
  174SLPC  H15Y19754   3.944   6.286   4.667  0.6871  0.6673 -0.4999
  174SLPC  C31619755   3.745   6.236   4.726  0.3106  1.2502 -0.5674
  174SLPC  H16X19756   3.690   6.329   4.703 -0.8299  0.6316 -0.4086
  174SLPC  H16Y19757   3.688   6.175   4.800  0.3684 -0.5076 -1.8961
  174SLPC  C31719758   3.745   6.153   4.600 -0.0192 -0.4318  0.3379
  174SLPC  H17X19759   3.790   6.052   4.607 -2.2742 -1.5596 -0.5445
  174SLPC  H17Y19760   3.807   6.211   4.529  0.5207  0.8674  1.8142
  174SLPC  C31819761   3.607   6.140   4.530  0.3966 -0.8630 -0.2177
  174SLPC  H18X19762   3.567   6.244   4.520  1.0437 -0.6840 -1.0238
  174SLPC  H18Y19763   3.530   6.083   4.587  0.8027 -0.3024  0.9190
  174SLPC  H18Z19764   3.617   6.103   4.426 -3.5005  1.9357 -1.8419
  175SLPC     N19765   6.499   1.969   7.609  0.5268  0.1267 -0.0110
  175SLPC   C1319766   6.543   2.107   7.628 -0.2361 -0.8068 -0.0807
  175SLPC  H13A19767   6.550   2.124   7.735 -0.2008  0.0222 -0.2065
  175SLPC  H13B19768   6.640   2.134   7.588 -1.7092 -0.0529 -3.5003
  175SLPC  H13C19769   6.475   2.180   7.588 -0.3798 -0.7218  0.3162
  175SLPC   C1419770   6.379   1.942   7.693 -0.6374 -0.0314  0.0637
  175SLPC  H14A19771   6.296   2.009   7.675 -0.0488  1.1897  1.6591
  175SLPC  H14B19772   6.348   1.839   7.682  2.0153 -0.8019 -0.9502
  175SLPC  H14C19773   6.414   1.944   7.795  1.0461 -1.4665 -0.4339
  175SLPC   C1519774   6.606   1.869   7.649 -0.3567  0.4807  0.4219
  175SLPC  H15A19775   6.601   1.770   7.606  3.2843 -0.0177  0.8768
  175SLPC  H15B19776   6.698   1.913   7.614 -0.0986 -1.1046 -1.0284
  175SLPC  H15C19777   6.612   1.852   7.755 -0.2464 -0.0958  0.3239
  175SLPC   C1219778   6.455   1.961   7.463  0.1167  0.5827 -0.0755
  175SLPC  H12A19779   6.371   2.028   7.448 -0.0061  0.7729  1.3320
  175SLPC  H12B19780   6.434   1.857   7.444  0.5651  0.5133 -0.1953
  175SLPC   C1119781   6.562   1.989   7.358 -0.0510 -0.0253 -0.5532
  175SLPC  H11A19782   6.543   1.942   7.259  0.7737 -1.2386 -0.1665
  175SLPC  H11B19783   6.657   1.935   7.377  0.0803 -0.0958 -1.3791
  175SLPC     P19784   6.499   2.221   7.253  0.1091 -0.2875  0.1460
  175SLPC   O1319785   6.356   2.199   7.276 -0.4418  0.7925 -0.2310
  175SLPC   O1419786   6.552   2.364   7.260  0.2023 -0.1934 -0.2638
  175SLPC   O1219787   6.586   2.130   7.340 -0.0583  0.2464 -0.4353
  175SLPC   O1119788   6.543   2.177   7.111 -0.4681  0.3052 -0.2556
  175SLPC    C119789   6.676   2.174   7.063 -0.2333  0.5990 -0.0132
  175SLPC    HA19790   6.754   2.219   7.127 -0.0295 -0.1140  0.2499
  175SLPC    HB19791   6.711   2.070   7.050  0.6091  0.9223 -0.3629
  175SLPC    C219792   6.689   2.226   6.918 -0.1866 -0.7501  0.0897
  175SLPC    HS19793   6.648   2.329   6.922 -1.3556 -1.1101 -1.3622
  175SLPC   O2119794   6.603   2.153   6.833 -0.1429 -0.0776  0.1143
  175SLPC   C2119795   6.557   2.204   6.717  0.1367  0.7116 -0.8478
  175SLPC   O2219796   6.556   2.322   6.697 -0.6251  0.0143 -0.0188
  175SLPC   C2219797   6.506   2.095   6.619 -0.0029  0.2895  0.5146
  175SLPC   H2R19798   6.564   2.000   6.621 -1.8815 -0.9185  0.5180
  175SLPC   H2S19799   6.401   2.071   6.648  0.5334 -3.2164 -0.0339
  175SLPC    C319800   6.843   2.213   6.864  0.5635  0.1769  0.2780
  175SLPC    HX19801   6.875   2.107   6.858  1.2395  0.3307  1.0468
  175SLPC    HY19802   6.905   2.273   6.935  0.4865  1.6168 -0.8047
  175SLPC   O3119803   6.850   2.283   6.730  0.3025  0.5456 -0.0108
  175SLPC   C3119804   6.960   2.275   6.668 -0.9802 -0.5000  0.1529
  175SLPC   O3219805   7.062   2.219   6.706  0.0443  0.5566 -0.6424
  175SLPC   C3219806   6.948   2.333   6.529 -0.4664  0.1080 -0.2128
  175SLPC   H2X19807   6.947   2.443   6.541 -1.9034  0.2470 -1.3463
  175SLPC   H2Y19808   6.846   2.313   6.491 -0.3283 -1.4251  0.1665
  175SLPC   C2319809   6.487   2.158   6.477 -0.9026  0.4792  0.1787
  175SLPC   H3R19810   6.449   2.262   6.479 -2.9284 -0.2268  2.0473
  175SLPC   H3S19811   6.415   2.093   6.422 -0.9186  0.1967  0.5258
  175SLPC   C2419812   6.626   2.154   6.413 -0.0805  0.4240 -0.2826
  175SLPC   H4R19813   6.689   2.076   6.461  0.3826  0.1883 -1.2445
  175SLPC   H4S19814   6.686   2.245   6.436  1.9089 -0.7624 -0.5263
  175SLPC   C2519815   6.629   2.125   6.262  0.2495 -0.2239  0.0863
  175SLPC   H5R19816   6.569   2.033   6.245  0.0190 -0.3853  1.6753
  175SLPC   H5S19817   6.734   2.112   6.227 -0.5605 -2.4300 -1.7556
  175SLPC   C2619818   6.577   2.246   6.194  0.0976 -0.6393  0.2869
  175SLPC   H6R19819   6.622   2.341   6.230  0.5148 -1.2576  1.4816
  175SLPC   H6S19820   6.467   2.258   6.206  0.2753  1.4677  0.0577
  175SLPC   C2719821   6.601   2.240   6.047 -0.2812  0.2046 -0.7749
  175SLPC   H7R19822   6.704   2.258   6.008 -0.2597 -1.1683 -1.3936
  175SLPC   H7S19823   6.532   2.324   6.026  0.8250  1.9302  1.9010
  175SLPC   C2819824   6.529   2.115   5.980  0.1717 -0.3824 -0.4518
  175SLPC   H8R19825   6.439   2.092   6.041  0.9091 -1.2094  0.3502
  175SLPC   H8S19826   6.602   2.031   5.983  0.6188 -0.0005 -0.4926
  175SLPC   C2919827   6.498   2.146   5.838  0.2544 -0.2433 -0.0824
  175SLPC   H9R19828   6.578   2.101   5.777  0.3172  0.6754 -0.6946
  175SLPC  C21019829   6.394   2.216   5.787  0.1812  0.6230  0.1209
  175SLPC  H10R19830   6.385   2.217   5.677  0.4082 -1.8421  0.0102
  175SLPC  C21119831   6.284   2.279   5.863 -0.4175  0.0848  1.0388
  175SLPC  H11R19832   6.306   2.281   5.972 -0.4734  2.9415  1.0871
  175SLPC  H11S19833   6.198   2.209   5.857  0.3250 -0.7688 -0.1877
  175SLPC  C21219834   6.246   2.417   5.822 -0.3656 -0.0440 -0.6391
  175SLPC  H12R19835   6.281   2.492   5.895 -1.3374 -0.6652  0.5127
  175SLPC  C21319836   6.147   2.465   5.741 -0.6964 -0.4442 -0.2854
  175SLPC  H13R19837   6.144   2.574   5.729  0.1806 -0.3957 -0.1422
  175SLPC  C21419838   6.042   2.383   5.662 -1.0537 -0.2423 -0.2114
  175SLPC  H14R19839   5.946   2.397   5.716 -0.7887 -1.8455  0.7261
  175SLPC  H14S19840   6.058   2.274   5.674 -0.3009 -0.4915 -2.8173
  175SLPC  C21519841   6.038   2.409   5.508 -0.0971  0.4465 -0.7744
  175SLPC  H15R19842   5.983   2.320   5.471  0.0220 -0.6344  1.4459
  175SLPC  H15S19843   6.143   2.393   5.477  0.1478 -0.4170  0.4286
  175SLPC  C21619844   5.990   2.543   5.462 -0.4867 -0.5759 -0.1988
  175SLPC  H16R19845   6.057   2.626   5.495 -4.1677  1.9403  1.6336
  175SLPC  H16S19846   5.895   2.564   5.516 -0.4975 -0.8206 -0.1245
  175SLPC  C21719847   5.977   2.545   5.314 -0.5506  0.2482  0.1164
  175SLPC  H17R19848   5.884   2.491   5.287  0.6430 -0.8666 -2.0633
  175SLPC  H17S19849   6.052   2.481   5.263 -0.5526 -1.5413  2.1888
  175SLPC  C21819850   5.975   2.683   5.254 -0.4224  0.6838 -0.7942
  175SLPC  H18R19851   5.888   2.738   5.296 -0.8167 -0.2649 -0.3408
  175SLPC  H18S19852   5.949   2.681   5.146 -2.4130  2.2329 -0.4009
  175SLPC  H18T19853   6.070   2.739   5.262 -0.9440  1.6630 -1.2846
  175SLPC   C3319854   7.054   2.291   6.432 -0.2270  0.3331  0.9907
  175SLPC   H3X19855   7.067   2.181   6.431 -1.6249  0.0262 -3.1080
  175SLPC   H3Y19856   7.155   2.331   6.453  1.1492 -1.6633 -1.3004
  175SLPC   C3419857   7.020   2.347   6.290 -1.0541 -0.1471 -0.3315
  175SLPC   H4X19858   7.035   2.457   6.289  0.6152 -0.3465 -1.3010
  175SLPC   H4Y19859   6.915   2.326   6.259 -0.6831 -0.0089 -1.7746
  175SLPC   C3519860   7.112   2.287   6.180  0.3108 -0.2105  0.0753
  175SLPC   H5X19861   7.096   2.177   6.179 -0.7480 -0.0704  0.6101
  175SLPC   H5Y19862   7.215   2.308   6.215  0.2531  1.8440 -0.8694
  175SLPC   C3619863   7.088   2.356   6.043 -0.5305  0.6572  0.3578
  175SLPC   H6X19864   7.100   2.466   6.055 -3.7944  1.0201  1.4550
  175SLPC   H6Y19865   6.983   2.347   6.006  0.0340 -0.1543 -1.1472
  175SLPC   C3719866   7.169   2.298   5.923  0.0846 -0.5143  0.7308
  175SLPC   H7X19867   7.140   2.194   5.896  2.9126 -0.5857 -2.7348
  175SLPC   H7Y19868   7.278   2.302   5.948  0.1282  1.7012  0.3842
  175SLPC   C3819869   7.157   2.389   5.794  0.1306 -0.0948 -0.1454
  175SLPC   H8X19870   7.191   2.490   5.826  2.2183 -0.5780 -0.6701
  175SLPC   H8Y19871   7.048   2.393   5.773 -0.5560 -1.6854  2.5969
  175SLPC   C3919872   7.238   2.335   5.670 -0.7289  0.1080 -0.5031
  175SLPC   H9X19873   7.239   2.224   5.666  0.8762  0.0901 -0.0396
  175SLPC   H9Y19874   7.344   2.352   5.696 -1.1621  0.1703  1.4231
  175SLPC  C31019875   7.205   2.404   5.545  0.7407 -0.3664 -0.0172
  175SLPC  H10X19876   7.196   2.513   5.562  2.6482 -0.1250 -0.2815
  175SLPC  H10Y19877   7.115   2.366   5.491  0.3539 -0.3460  0.6111
  175SLPC  C31119878   7.308   2.396   5.436 -0.4783  0.8488  0.2561
  175SLPC  H11X19879   7.413   2.402   5.469 -0.0844  0.9910 -0.9585
  175SLPC  H11Y19880   7.299   2.482   5.365 -1.2058 -0.4484 -1.3077
  175SLPC  C31219881   7.298   2.272   5.351  0.4087  0.7358 -0.4220
  175SLPC  H12X19882   7.193   2.249   5.321 -0.2024 -1.2361  2.8246
  175SLPC  H12Y19883   7.327   2.178   5.402 -0.0942  0.2979 -0.9309
  175SLPC  C31319884   7.386   2.285   5.220  0.6005 -0.1754 -0.3713
  175SLPC  H13X19885   7.495   2.299   5.235  0.3411  2.0181 -0.2150
  175SLPC  H13Y19886   7.345   2.376   5.172  0.7942  0.2711  0.3078
  175SLPC  C31419887   7.362   2.177   5.112 -0.2241 -0.2895 -0.2370
  175SLPC  H14X19888   7.398   2.085   5.162 -0.2516  0.1768  0.6535
  175SLPC  H14Y19889   7.441   2.182   5.034  0.6660  1.3295  0.7113
  175SLPC  C31519890   7.223   2.170   5.053 -0.9308 -0.4274  0.0445
  175SLPC  H15X19891   7.171   2.266   5.070  0.2193  0.3779 -0.8307
  175SLPC  H15Y19892   7.169   2.077   5.083 -0.2932 -0.6902  0.4190
  175SLPC  C31619893   7.239   2.148   4.901  0.5310  0.6785 -0.4426
  175SLPC  H16X19894   7.304   2.059   4.884  0.8547  0.5923  1.0844
  175SLPC  H16Y19895   7.291   2.233   4.854 -2.4139  2.3279 -0.9515
  175SLPC  C31719896   7.099   2.144   4.830 -0.1988 -0.0759 -0.6437
  175SLPC  H17X19897   7.044   2.239   4.843  1.0955  0.3707  2.3792
  175SLPC  H17Y19898   7.031   2.074   4.884 -0.1548  0.6289  0.3510
  175SLPC  C31819899   7.105   2.101   4.686  0.3680 -0.4718 -0.7270
  175SLPC  H18X19900   7.007   2.128   4.641  0.6165  2.4484  0.3061
  175SLPC  H18Y19901   7.137   1.995   4.682  0.1262 -0.5558 -0.4927
  175SLPC  H18Z19902   7.179   2.157   4.625 -0.1786  2.2991  0.9945
  176SLPC     N19903   0.069   0.103   7.031 -0.2889  0.7392 -0.4262
  176SLPC   C1319904   0.172   0.034   6.937 -0.2017 -0.6268  0.0557
  176SLPC  H13A19905   0.191  -0.067   6.970  2.3159 -0.7473 -1.4865
  176SLPC  H13B19906   0.112   0.030   6.847 -1.4735 -0.3687  0.8563
  176SLPC  H13C19907   0.262   0.093   6.927 -0.1509 -0.8672 -1.1432
  176SLPC   C1419908  -0.045   0.009   7.038  0.5378 -0.3843 -0.4475
  176SLPC  H14A19909  -0.020  -0.092   7.064  0.6478 -0.3116 -0.2703
  176SLPC  H14B19910  -0.124   0.032   7.108  0.7456 -0.1179 -0.2950
  176SLPC  H14C19911  -0.089   0.006   6.939 -3.7561  1.5492  1.1462
  176SLPC   C1519912   0.033   0.232   6.969 -0.3539 -0.5301  0.0053
  176SLPC  H15A19913  -0.017   0.291   7.044 -0.3814 -2.0511  1.2376
  176SLPC  H15B19914   0.122   0.281   6.932 -1.0602  0.5337 -0.3391
  176SLPC  H15C19915  -0.036   0.222   6.886 -0.6145 -0.0988  0.1686
  176SLPC   C1219916   0.142   0.105   7.166  0.2221  0.4892  0.2658
  176SLPC  H12A19917   0.179   0.005   7.184  1.3971  1.1439  1.7106
  176SLPC  H12B19918   0.079   0.121   7.252  0.6718 -0.8297  0.8661
  176SLPC   C1119919   0.260   0.201   7.180 -0.0275  0.1709  0.2305
  176SLPC  H11A19920   0.296   0.206   7.286 -1.4009  1.2184  0.6783
  176SLPC  H11B19921   0.243   0.306   7.148  0.4714  0.5379  1.1119
  176SLPC     P19922   0.471   0.046   7.159 -0.0118  0.4037 -0.5555
  176SLPC   O1319923   0.578   0.111   7.236  0.0450  0.4689  0.6688
  176SLPC   O1419924   0.395  -0.056   7.234  0.3583  0.3751  0.0770
  176SLPC   O1219925   0.372   0.156   7.103 -0.2590 -1.0287  0.2997
  176SLPC   O1119926   0.523  -0.019   7.030  0.2952  0.2030  0.0784
  176SLPC    C119927   0.518   0.057   6.908  0.2826 -0.0555  0.0529
  176SLPC    HA19928   0.416   0.073   6.867  0.4023  1.7802  0.3852
  176SLPC    HB19929   0.561   0.159   6.915 -2.8122  1.4923 -1.4899
  176SLPC    C219930   0.590  -0.014   6.794  0.0630  0.2075 -0.1051
  176SLPC    HS19931   0.593   0.072   6.722  0.8764  2.9148  2.9317
  176SLPC   O2119932   0.523  -0.133   6.736 -0.5497 -0.2731 -0.1285
  176SLPC   C2119933   0.428  -0.105   6.654  0.9274 -0.0307 -0.1021
  176SLPC   O2219934   0.389   0.002   6.612  0.0868 -0.2016 -0.0264
  176SLPC   C2219935   0.355  -0.234   6.614  0.0581 -0.6579 -0.1717
  176SLPC   H2R19936   0.309  -0.260   6.711 -3.1097  2.0535 -0.7542
  176SLPC   H2S19937   0.268  -0.214   6.548  0.4980  0.6486 -0.3974
  176SLPC    C319938   0.738  -0.042   6.821 -0.1115  0.4545 -0.6424
  176SLPC    HX19939   0.747  -0.114   6.904 -0.5012  2.8578  1.6247
  176SLPC    HY19940   0.787   0.047   6.866  2.4559 -1.3658  0.4492
  176SLPC   O3119941   0.813  -0.078   6.699  0.3113 -0.2838 -0.5773
  176SLPC   C3119942   0.821  -0.207   6.670  0.0113  0.6704 -0.3916
  176SLPC   O3219943   0.784  -0.301   6.740 -0.2999  0.2939 -0.2618
  176SLPC   C3219944   0.888  -0.234   6.535  0.0556 -0.0644  0.1014
  176SLPC   H2X19945   0.980  -0.172   6.530 -0.0998  0.2095  0.6128
  176SLPC   H2Y19946   0.816  -0.208   6.454  0.3493  0.0920 -0.1131
  176SLPC   C2319947   0.449  -0.341   6.559 -0.5777  0.5970 -0.3696
  176SLPC   H3R19948   0.402  -0.439   6.581  0.2687  0.0668 -0.8425
  176SLPC   H3S19949   0.551  -0.345   6.604 -0.6475  0.5454 -0.2169
  176SLPC   C2419950   0.471  -0.313   6.409  1.0291 -0.2512  0.8770
  176SLPC   H4R19951   0.539  -0.231   6.379  0.4639  1.0585  2.9244
  176SLPC   H4S19952   0.375  -0.276   6.368  1.2239  0.0416  0.6877
  176SLPC   C2519953   0.521  -0.440   6.332  0.3166  0.0286 -0.2429
  176SLPC   H5R19954   0.447  -0.521   6.322 -0.2365  0.3866  0.8211
  176SLPC   H5S19955   0.611  -0.470   6.390 -0.6488  1.0698  1.9033
  176SLPC   C2619956   0.558  -0.404   6.193 -1.3138 -0.6447  0.3720
  176SLPC   H6R19957   0.627  -0.317   6.188 -1.0003 -0.9525 -1.1688
  176SLPC   H6S19958   0.473  -0.360   6.136  0.2678  0.9807 -0.8079
  176SLPC   C2719959   0.625  -0.509   6.112  0.1524  0.5163  0.0863
  176SLPC   H7R19960   0.564  -0.602   6.112 -0.2332  0.7460  1.1768
  176SLPC   H7S19961   0.723  -0.542   6.154 -0.4859  0.2672  1.4578
  176SLPC   C2819962   0.631  -0.471   5.961 -0.5535 -0.3544  0.6668
  176SLPC   H8R19963   0.528  -0.485   5.923 -1.0173  0.0476  1.7345
  176SLPC   H8S19964   0.700  -0.549   5.921 -1.3242 -0.5198 -0.3934
  176SLPC   C2919965   0.684  -0.335   5.922  0.3877  0.0130 -0.5460
  176SLPC   H9R19966   0.744  -0.278   5.994 -2.1537  2.3935 -0.1256
  176SLPC  C21019967   0.667  -0.279   5.801  0.0253  0.8601 -0.8267
  176SLPC  H10R19968   0.711  -0.180   5.788  1.3009  0.4410  0.1247
  176SLPC  C21119969   0.595  -0.345   5.695  0.1673  0.0834  1.5740
  176SLPC  H11R19970   0.505  -0.402   5.728 -0.9734  0.9656  0.1464
  176SLPC  H11S19971   0.662  -0.424   5.653 -0.8108 -0.8731  1.7614
  176SLPC  C21219972   0.540  -0.247   5.591 -0.2140 -0.3142  0.1504
  176SLPC  H12R19973   0.436  -0.214   5.605 -0.1215  0.7021 -1.2780
  176SLPC  C21319974   0.599  -0.193   5.489  0.1335  0.2567  0.3622
  176SLPC  H13R19975   0.542  -0.120   5.429 -1.0659  0.0512  1.2262
  176SLPC  C21419976   0.746  -0.208   5.462 -0.7654  0.6902 -0.3705
  176SLPC  H14R19977   0.800  -0.268   5.538 -1.3824  0.9118  0.2445
  176SLPC  H14S19978   0.799  -0.110   5.454  0.9259 -0.2055 -0.7531
  176SLPC  C21519979   0.761  -0.269   5.318  0.2996 -0.3897 -0.0180
  176SLPC  H15R19980   0.868  -0.275   5.288  0.8355  0.2382  1.6480
  176SLPC  H15S19981   0.708  -0.200   5.248  0.3597  0.0405  0.3551
  176SLPC  C21619982   0.708  -0.417   5.305  0.1999 -0.2717  0.4877
  176SLPC  H16R19983   0.598  -0.423   5.321  0.4250 -0.5858  2.1375
  176SLPC  H16S19984   0.754  -0.471   5.391  0.8599  1.3959  1.2190
  176SLPC  C21719985   0.730  -0.481   5.170  0.1996 -0.0306 -0.0702
  176SLPC  H17R19986   0.841  -0.492   5.173  0.4222  1.9903  0.6959
  176SLPC  H17S19987   0.711  -0.409   5.087  0.0286 -0.7981 -0.7018
  176SLPC  C21819988   0.673  -0.621   5.153  0.0161 -0.1335 -0.2068
  176SLPC  H18R19989   0.672  -0.677   5.250  1.9106 -1.5345 -0.9229
  176SLPC  H18S19990   0.744  -0.673   5.085  1.5531  0.5396  0.8116
  176SLPC  H18T19991   0.571  -0.624   5.111 -1.5498 -0.6880  3.2725
  176SLPC   C3319992   0.927  -0.384   6.532  0.5855  0.5382 -0.5128
  176SLPC   H3X19993   0.839  -0.451   6.535 -1.5459  3.1126 -1.1095
  176SLPC   H3Y19994   0.977  -0.402   6.629 -1.5860  0.5141  0.6567
  176SLPC   C3419995   1.036  -0.423   6.426  0.0920 -0.6519 -0.2874
  176SLPC   H4X19996   1.072  -0.525   6.450 -0.4858 -0.3683  1.9859
  176SLPC   H4Y19997   1.124  -0.357   6.438 -0.4224  0.0566 -0.2833
  176SLPC   C3519998   0.986  -0.418   6.279  0.8008  0.5909  0.2497
  176SLPC   H5X19999   0.971  -0.312   6.248  0.4998 -0.0316 -1.8840
  176SLPC   H5Y20000   0.883  -0.459   6.266  0.3414  2.2723 -2.0943
  176SLPC   C3620001   1.077  -0.492   6.176 -0.5810 -0.2966 -0.3536
  176SLPC   H6X20002   1.082  -0.602   6.193 -0.5642 -0.1474  0.6962
  176SLPC   H6Y20003   1.178  -0.449   6.195 -0.1514 -1.7086  0.7611
  176SLPC   C3720004   1.023  -0.470   6.034  0.5568 -0.4869 -0.7045
  176SLPC   H7X20005   1.052  -0.366   6.009 -0.3616 -0.0119  0.1227
  176SLPC   H7Y20006   0.913  -0.477   6.052  0.6689  0.2314  0.3425
  176SLPC   C3820007   1.071  -0.581   5.938  0.5967 -0.2360 -0.2790
  176SLPC   H8X20008   1.035  -0.680   5.974  1.2662 -2.4756 -4.9817
  176SLPC   H8Y20009   1.182  -0.585   5.949  0.5203 -0.4362  0.4264
  176SLPC   C3920010   1.017  -0.578   5.797  0.2571  0.2189  0.6068
  176SLPC   H9X20011   0.906  -0.570   5.807  0.3562  0.4999  1.6437
  176SLPC   H9Y20012   1.026  -0.675   5.744 -3.0725  0.5692 -0.8941
  176SLPC  C31020013   1.062  -0.458   5.723  0.2016 -0.8095 -0.0221
  176SLPC  H10X20014   1.156  -0.426   5.773  1.1961 -1.2247 -1.5318
  176SLPC  H10Y20015   0.994  -0.371   5.732  0.6169 -0.5920  1.2756
  176SLPC  C31120016   1.095  -0.465   5.572  0.8020 -0.2814 -0.8784
  176SLPC  H11X20017   0.998  -0.501   5.533  0.9954 -1.5517 -0.2347
  176SLPC  H11Y20018   1.177  -0.538   5.555  1.5720  0.0492  1.1677
  176SLPC  C31220019   1.141  -0.326   5.517  0.1567 -0.1190 -0.3206
  176SLPC  H12X20020   1.241  -0.302   5.559  0.6599  0.7931 -1.9423
  176SLPC  H12Y20021   1.070  -0.249   5.553 -0.8684 -1.7529  1.3119
  176SLPC  C31320022   1.180  -0.327   5.368  0.2481 -0.0943 -0.3252
  176SLPC  H13X20023   1.225  -0.234   5.326  2.6043 -1.7683 -1.7736
  176SLPC  H13Y20024   1.088  -0.337   5.306  0.4075 -1.5309 -0.3568
  176SLPC  C31420025   1.286  -0.436   5.318  0.0416  0.3790  0.3469
  176SLPC  H14X20026   1.314  -0.504   5.401  1.3044  0.6176  0.1346
  176SLPC  H14Y20027   1.370  -0.388   5.262 -0.5122 -0.2915 -1.1045
  176SLPC  C31520028   1.217  -0.542   5.230  0.0871  0.5416 -0.6171
  176SLPC  H15X20029   1.130  -0.579   5.288  0.9248  1.5190  1.3257
  176SLPC  H15Y20030   1.282  -0.632   5.231 -1.9902 -1.0168 -0.0435
  176SLPC  C31620031   1.186  -0.485   5.095  0.0211  0.1831  0.5615
  176SLPC  H16X20032   1.282  -0.452   5.049  0.8506  0.5032  2.4647
  176SLPC  H16Y20033   1.119  -0.397   5.096  0.3314  0.5506 -1.9954
  176SLPC  C31720034   1.132  -0.579   5.001  0.5768 -0.5174  0.3664
  176SLPC  H17X20035   1.050  -0.639   5.045  0.7742 -0.9567  0.1376
  176SLPC  H17Y20036   1.207  -0.658   4.979  0.5691  0.0739 -2.0962
  176SLPC  C31820037   1.082  -0.519   4.872 -0.3322  0.3025 -0.2528
  176SLPC  H18X20038   0.982  -0.477   4.896  0.0368  1.3046 -0.3805
  176SLPC  H18Y20039   1.068  -0.594   4.791 -0.7833  1.3598 -1.1960
  176SLPC  H18Z20040   1.145  -0.437   4.828  1.3115 -1.5216 -1.4856
  177SLPC     N20041   0.817   0.399   7.211 -0.3524  0.1264 -0.1823
  177SLPC   C1320042   0.827   0.386   7.364  0.3541 -0.4715 -0.1968
  177SLPC  H13A20043   0.748   0.447   7.405 -0.0720 -2.1814  1.7236
  177SLPC  H13B20044   0.808   0.282   7.389 -3.1155 -0.5353 -2.4636
  177SLPC  H13C20045   0.924   0.415   7.404  0.7092 -0.7583 -0.8325
  177SLPC   C1420046   0.855   0.538   7.175 -0.6689  0.5194  0.0991
  177SLPC  H14A20047   0.961   0.553   7.172 -0.7736  1.5261  0.7556
  177SLPC  H14B20048   0.824   0.565   7.075 -0.4703  1.9672  0.4045
  177SLPC  H14C20049   0.813   0.612   7.242 -1.7532  0.3247 -0.3293
  177SLPC   C1520050   0.677   0.371   7.174 -0.1162 -0.1795 -0.0506
  177SLPC  H15A20051   0.613   0.449   7.214  1.1293 -0.3327  2.4065
  177SLPC  H15B20052   0.673   0.368   7.066  0.9499  2.2146 -0.2302
  177SLPC  H15C20053   0.643   0.279   7.220  0.5869 -1.1764 -1.4635
  177SLPC   C1220054   0.910   0.295   7.151 -0.5761  0.5300  0.2004
  177SLPC  H12A20055   0.879   0.204   7.201 -1.1311 -0.0518 -1.1456
  177SLPC  H12B20056   1.010   0.326   7.176  0.2379 -2.9708  1.8365
  177SLPC   C1120057   0.898   0.253   7.006  0.1363 -0.9732  0.4549
  177SLPC  H11A20058   0.801   0.207   6.979 -0.1422 -1.0016  1.4773
  177SLPC  H11B20059   0.963   0.167   6.980  0.4272 -0.0184 -2.4142
  177SLPC     P20060   1.073   0.394   6.861  0.0267  0.2680 -0.4954
  177SLPC   O1320061   1.108   0.535   6.884  0.2354 -0.7933 -0.4377
  177SLPC   O1420062   1.165   0.301   6.938 -0.8848 -0.2307  0.7628
  177SLPC   O1220063   0.924   0.369   6.913  0.1232  0.3252 -0.0292
  177SLPC   O1120064   1.073   0.353   6.712 -0.2832 -0.4710  0.3019
  177SLPC    C120065   1.018   0.227   6.657  0.6477 -0.2637 -0.7364
  177SLPC    HA20066   1.102   0.182   6.598  0.4454  1.2796 -2.2959
  177SLPC    HB20067   0.993   0.150   6.733  0.9576  0.1108 -0.2493
  177SLPC    C220068   0.904   0.257   6.559  0.4979 -0.0910 -0.4132
  177SLPC    HS20069   0.820   0.207   6.611  1.1664 -1.6745 -0.8017
  177SLPC   O2120070   0.928   0.189   6.437 -0.7819  0.3731  0.1255
  177SLPC   C2120071   0.820   0.153   6.369  0.3168  0.5779 -0.1672
  177SLPC   O2220072   0.706   0.160   6.412 -0.1482  0.0377 -0.3430
  177SLPC   C2220073   0.852   0.088   6.233 -0.8095 -0.4353  0.2746
  177SLPC   H2R20074   0.849   0.173   6.162 -1.2901 -1.2882 -0.7579
  177SLPC   H2S20075   0.959   0.057   6.237 -0.7930 -0.4835 -0.4689
  177SLPC    C320076   0.892   0.401   6.529  0.0501 -0.3990 -0.2334
  177SLPC    HX20077   0.988   0.444   6.495 -1.0225  1.9612 -0.4905
  177SLPC    HY20078   0.869   0.453   6.625 -1.5648 -1.2452 -0.1231
  177SLPC   O3120079   0.784   0.434   6.437 -0.8356 -0.1875  0.0994
  177SLPC   C3120080   0.677   0.484   6.490 -0.1332 -0.1423  0.2694
  177SLPC   O3220081   0.644   0.493   6.605  0.4459  0.3313 -0.0035
  177SLPC   C3220082   0.588   0.560   6.384 -0.1840  0.0216  0.7522
  177SLPC   H2X20083   0.567   0.661   6.424 -2.6948 -1.0893  2.4975
  177SLPC   H2Y20084   0.488   0.512   6.390 -1.6057  2.6488 -0.2484
  177SLPC   C2320085   0.753  -0.024   6.179 -0.6573  0.0416  0.2700
  177SLPC   H3R20086   0.742  -0.109   6.250  1.6055  0.5614  1.3346
  177SLPC   H3S20087   0.794  -0.061   6.083 -1.7373  1.2641 -0.7114
  177SLPC   C2420088   0.614   0.033   6.135 -0.6835  0.6783  0.7709
  177SLPC   H4R20089   0.569   0.064   6.232 -0.2050  1.0017  0.8903
  177SLPC   H4S20090   0.554  -0.050   6.090 -0.3977  1.0087 -0.2439
  177SLPC   C2520091   0.616   0.147   6.028  0.0701  0.0720 -0.7221
  177SLPC   H5R20092   0.624   0.245   6.081 -2.7468  0.9870 -1.7852
  177SLPC   H5S20093   0.517   0.147   5.977  0.7600 -1.0204 -2.0961
  177SLPC   C2620094   0.715   0.132   5.911 -0.1390  0.2704 -0.6316
  177SLPC   H6R20095   0.695   0.028   5.879  0.2887 -0.3015  0.8779
  177SLPC   H6S20096   0.819   0.139   5.951 -0.0230  1.5397 -1.0977
  177SLPC   C2720097   0.693   0.242   5.798 -0.0913 -0.2948 -0.4770
  177SLPC   H7R20098   0.696   0.347   5.835 -2.2768 -0.1746 -0.5130
  177SLPC   H7S20099   0.585   0.234   5.771  0.1101  0.1374 -1.4541
  177SLPC   C2820100   0.780   0.234   5.671 -0.1024  0.7357 -0.1442
  177SLPC   H8R20101   0.879   0.203   5.712  0.1727  0.4631 -1.0078
  177SLPC   H8S20102   0.798   0.338   5.638  0.7332  0.6090 -0.1196
  177SLPC   C2920103   0.721   0.131   5.567  0.0906  0.1030  0.3838
  177SLPC   H9R20104   0.693   0.032   5.607 -0.4148  0.4354  0.8702
  177SLPC  C21020105   0.689   0.160   5.444 -0.3186 -0.1826 -0.1972
  177SLPC  H10R20106   0.646   0.085   5.376  0.9417  0.0708 -1.3068
  177SLPC  C21120107   0.697   0.302   5.387 -0.5597  0.7802  0.1627
  177SLPC  H11R20108   0.643   0.365   5.462 -3.1169 -2.4231  1.2482
  177SLPC  H11S20109   0.620   0.312   5.307 -2.9785 -0.0906  2.2424
  177SLPC  C21220110   0.835   0.357   5.353  0.3611 -0.5508  0.2705
  177SLPC  H12R20111   0.883   0.397   5.444  0.7340  1.5091 -0.7776
  177SLPC  C21320112   0.901   0.350   5.238 -0.2438 -0.5730 -0.0166
  177SLPC  H13R20113   1.009   0.370   5.238  0.1756 -2.5313 -1.4906
  177SLPC  C21420114   0.846   0.273   5.117 -0.5797 -0.1901 -0.2307
  177SLPC  H14R20115   0.905   0.313   5.031  0.3381  1.4414  1.0838
  177SLPC  H14S20116   0.740   0.304   5.105 -0.5427  0.2330  0.4638
  177SLPC  C21520117   0.861   0.112   5.125 -0.1326 -0.9175 -0.4760
  177SLPC  H15R20118   0.837   0.074   5.227  0.4518 -0.0343  0.0048
  177SLPC  H15S20119   0.970   0.094   5.113  0.1370  0.4674 -0.2834
  177SLPC  C21620120   0.795   0.032   5.015 -0.0287  0.4084 -0.9161
  177SLPC  H16R20121   0.852  -0.056   4.978  0.1185  0.4141 -0.7045
  177SLPC  H16S20122   0.804   0.107   4.933  0.9976  0.5004 -0.7371
  177SLPC  C21720123   0.649   0.005   5.026  0.3964 -0.3854  0.4678
  177SLPC  H17R20124   0.596   0.094   5.066 -0.9697 -1.3695  0.9430
  177SLPC  H17S20125   0.630  -0.063   5.112  1.5293  0.2806  1.2651
  177SLPC  C21820126   0.587  -0.039   4.896  0.6083 -0.5662 -0.4145
  177SLPC  H18R20127   0.556   0.043   4.828 -0.8332 -0.3409  0.4590
  177SLPC  H18S20128   0.491  -0.089   4.923 -1.7182  2.7872 -1.7312
  177SLPC  H18T20129   0.642  -0.111   4.832 -0.6999  0.4977 -2.8879
  177SLPC   C3320130   0.634   0.551   6.232 -0.2100 -0.7339 -0.5983
  177SLPC   H3X20131   0.613   0.444   6.208  2.3952 -1.5955  0.6393
  177SLPC   H3Y20132   0.739   0.566   6.199 -0.6596  1.6742 -1.1165
  177SLPC   C3420133   0.547   0.633   6.126 -0.2670 -0.7607  0.6883
  177SLPC   H4X20134   0.579   0.738   6.141  1.5558 -1.0485 -0.7437
  177SLPC   H4Y20135   0.441   0.609   6.150  0.1394 -0.9470  2.4414
  177SLPC   C3520136   0.584   0.588   5.982  0.6956  0.0414 -0.9455
  177SLPC   H5X20137   0.566   0.478   5.977 -0.6693  0.1492  0.5951
  177SLPC   H5Y20138   0.691   0.612   5.967  0.7064  0.0959 -0.7905
  177SLPC   C3620139   0.514   0.658   5.866 -0.0785 -0.8118 -0.3474
  177SLPC   H6X20140   0.546   0.763   5.889 -0.9213 -0.5689 -0.2648
  177SLPC   H6Y20141   0.406   0.640   5.882  0.3935 -3.6537  0.0989
  177SLPC   C3720142   0.566   0.627   5.722  0.6537  0.1909 -0.8078
  177SLPC   H7X20143   0.547   0.519   5.704 -0.2041  0.3802 -1.1166
  177SLPC   H7Y20144   0.676   0.635   5.720  0.5952  0.9699 -2.4634
  177SLPC   C3820145   0.499   0.704   5.613  0.1454 -0.2029 -0.0846
  177SLPC   H8X20146   0.502   0.811   5.643  0.8834 -0.2959  0.1975
  177SLPC   H8Y20147   0.391   0.679   5.603  0.2232 -0.8531  0.6085
  177SLPC   C3920148   0.573   0.689   5.471  0.3592  0.0709 -0.1857
  177SLPC   H9X20149   0.574   0.580   5.448  1.6380 -0.1343  0.7456
  177SLPC   H9Y20150   0.674   0.732   5.486 -0.1983  2.0523 -1.6669
  177SLPC  C31020151   0.493   0.780   5.374 -0.5099 -0.7970 -0.3783
  177SLPC  H10X20152   0.484   0.883   5.413  1.3892 -0.2022 -1.4165
  177SLPC  H10Y20153   0.390   0.744   5.350 -0.0091 -1.1984 -2.0387
  177SLPC  C31120154   0.573   0.797   5.243 -0.0761  0.1887  0.2938
  177SLPC  H11X20155   0.678   0.826   5.269 -0.3177  1.6500 -0.2502
  177SLPC  H11Y20156   0.523   0.884   5.195  2.2468  1.4800  0.0648
  177SLPC  C31220157   0.581   0.670   5.159  0.5092  0.2999 -1.1861
  177SLPC  H12X20158   0.488   0.614   5.181 -0.9255  2.2563 -1.9359
  177SLPC  H12Y20159   0.671   0.612   5.188 -0.1535 -0.1369  0.0615
  177SLPC  C31320160   0.590   0.692   5.008  0.4674  0.2796  0.1518
  177SLPC  H13X20161   0.593   0.594   4.957  0.2930 -1.3071  3.0051
  177SLPC  H13Y20162   0.680   0.754   4.986 -0.2959  2.1300  1.9508
  177SLPC  C31420163   0.485   0.793   4.950 -0.1977  0.6210 -0.4811
  177SLPC  H14X20164   0.468   0.793   4.841  1.1741  0.6277 -0.7058
  177SLPC  H14Y20165   0.519   0.892   4.987  1.5797 -0.6579  1.5360
  177SLPC  C31520166   0.340   0.767   4.999  0.2573  0.5401 -0.2451
  177SLPC  H15X20167   0.332   0.797   5.106  2.4323  0.4165 -0.0051
  177SLPC  H15Y20168   0.326   0.657   5.009 -0.7291  0.7623  1.1549
  177SLPC  C31620169   0.233   0.846   4.921 -0.8199 -0.4772 -0.7443
  177SLPC  H16X20170   0.275   0.948   4.910  0.9181 -0.8000  2.0733
  177SLPC  H16Y20171   0.140   0.869   4.977 -0.4574  2.1589 -1.0910
  177SLPC  C31720172   0.194   0.789   4.792  0.5467  0.2854 -0.4421
  177SLPC  H17X20173   0.192   0.678   4.792 -1.4166  0.2617  1.1279
  177SLPC  H17Y20174   0.278   0.812   4.723  1.7878 -3.3121 -0.3160
  177SLPC  C31820175   0.055   0.828   4.735 -0.3791 -0.8091  0.2369
  177SLPC  H18X20176   0.060   0.917   4.668  1.4051 -1.9862 -1.3000
  177SLPC  H18Y20177  -0.007   0.848   4.825  0.4970 -0.9663  0.8926
  177SLPC  H18Z20178   0.008   0.747   4.676 -3.9858  0.9746  0.3888
  178SLPC     N20179   6.317   5.651   7.339 -0.3301  0.8761 -1.1030
  178SLPC   C1320180   6.404   5.745   7.412 -0.1138 -0.1234 -0.2641
  178SLPC  H13A20181   6.392   5.734   7.519  0.2159 -0.8911 -0.2966
  178SLPC  H13B20182   6.509   5.746   7.388 -0.3238  0.9955 -1.2515
  178SLPC  H13C20183   6.376   5.846   7.388 -0.5925 -0.0971  0.3840
  178SLPC   C1420184   6.173   5.682   7.378  0.8607 -0.3020  0.3196
  178SLPC  H14A20185   6.103   5.608   7.341  1.4830  0.2949 -2.2143
  178SLPC  H14B20186   6.150   5.693   7.483  1.0572 -1.7034  0.5255
  178SLPC  H14C20187   6.151   5.783   7.346 -0.0036 -0.4723  0.3460
  178SLPC   C1520188   6.353   5.505   7.377 -0.6763  0.2572  0.4283
  178SLPC  H15A20189   6.342   5.484   7.483  0.9011 -1.4546  0.3121
  178SLPC  H15B20190   6.285   5.439   7.326  0.1563 -1.6358  1.6628
  178SLPC  H15C20191   6.454   5.478   7.348 -0.8438 -0.9385  0.8973
  178SLPC   C1220192   6.338   5.662   7.188  0.4968  0.4080 -0.1932
  178SLPC  H12A20193   6.316   5.571   7.135  0.0247 -0.8219  1.9938
  178SLPC  H12B20194   6.442   5.690   7.177  0.2266  0.8783 -1.9633
  178SLPC   C1120195   6.254   5.767   7.125  0.1113  0.6968 -0.2108
  178SLPC  H11A20196   6.147   5.739   7.139 -0.0578  0.2217 -2.1856
  178SLPC  H11B20197   6.277   5.762   7.017  0.6897 -1.4804 -0.0317
  178SLPC     P20198   6.196   6.025   7.154  0.3440 -0.3141  0.2825
  178SLPC   O1320199   6.052   5.995   7.180 -0.2414  0.3808  0.5333
  178SLPC   O1420200   6.247   6.132   7.239 -0.8087 -0.6026  0.7500
  178SLPC   O1220201   6.287   5.893   7.188 -0.3431 -0.3907  0.9287
  178SLPC   O1120202   6.217   6.060   7.001 -0.0661 -0.2943  0.0094
  178SLPC    C120203   6.343   6.099   6.937  0.6395  0.1240  0.3398
  178SLPC    HA20204   6.357   6.209   6.939  2.2276 -0.0687  0.6725
  178SLPC    HB20205   6.429   6.061   6.997  0.1519 -1.9120 -0.1613
  178SLPC    C220206   6.356   6.063   6.782 -0.1378 -0.2717 -0.6304
  178SLPC    HS20207   6.452   6.106   6.746  0.5325 -0.6489  0.6489
  178SLPC   O2120208   6.238   6.119   6.711 -0.0466  0.0136 -0.0373
  178SLPC   C2120209   6.266   6.201   6.612 -0.1046 -0.0451 -0.5549
  178SLPC   O2220210   6.377   6.245   6.587  0.5105  0.2041 -0.1505
  178SLPC   C2220211   6.152   6.217   6.511 -0.1575 -0.5138  0.0254
  178SLPC   H2R20212   6.070   6.149   6.543 -0.6029  0.2369  0.4972
  178SLPC   H2S20213   6.128   6.325   6.516 -0.3130 -0.5572  0.2558
  178SLPC    C320214   6.357   5.908   6.769 -0.5846 -0.2205  0.2031
  178SLPC    HX20215   6.260   5.873   6.810  0.0901 -0.7689  1.3921
  178SLPC    HY20216   6.442   5.867   6.827  1.6105 -0.8730 -3.2023
  178SLPC   O3120217   6.393   5.859   6.638  0.3551  0.5855 -0.4498
  178SLPC   C3120218   6.290   5.837   6.555  0.6143  1.2305  0.0335
  178SLPC   O3220219   6.172   5.838   6.583  0.1920  0.1039 -0.3164
  178SLPC   C3220220   6.336   5.770   6.428 -0.6478 -0.6845  0.2179
  178SLPC   H2X20221   6.272   5.824   6.355 -1.4597 -1.3601  0.4237
  178SLPC   H2Y20222   6.309   5.662   6.427 -2.2868 -0.2987 -0.7407
  178SLPC   C2320223   6.188   6.172   6.368  0.0875  0.2020  1.0030
  178SLPC   H3R20224   6.184   6.064   6.346  0.1591  0.1330  1.3223
  178SLPC   H3S20225   6.293   6.203   6.347  0.5967 -1.4264  1.0021
  178SLPC   C2420226   6.085   6.221   6.261 -0.1848 -0.7230 -0.3060
  178SLPC   H4R20227   6.078   6.331   6.274  3.1642 -0.4367  0.0038
  178SLPC   H4S20228   5.994   6.178   6.307  0.3090 -1.1908  0.2393
  178SLPC   C2520229   6.114   6.169   6.126  0.3587  0.8429 -0.1666
  178SLPC   H5R20230   6.060   6.073   6.109  0.8521  0.3873  0.7884
  178SLPC   H5S20231   6.221   6.140   6.122  0.0935 -0.6856  2.1671
  178SLPC   C2620232   6.087   6.271   6.010 -0.3278  0.5613  0.3463
  178SLPC   H6R20233   6.168   6.348   6.008 -0.8342  1.1479  1.3281
  178SLPC   H6S20234   5.991   6.322   6.034  0.3408  1.6900  0.7198
  178SLPC   C2720235   6.070   6.210   5.868 -0.5868  0.0561  0.7916
  178SLPC   H7R20236   6.022   6.110   5.878  0.5777 -0.6430 -0.2935
  178SLPC   H7S20237   6.174   6.186   5.837 -1.0411 -0.4525 -0.3845
  178SLPC   C2820238   6.007   6.295   5.763  0.3698  0.0088 -0.0507
  178SLPC   H8R20239   6.071   6.378   5.725 -0.0518  0.2572 -0.2306
  178SLPC   H8S20240   5.916   6.344   5.804 -0.0635 -0.2852 -0.6351
  178SLPC   C2920241   5.967   6.207   5.648  0.7309 -0.3524  0.2471
  178SLPC   H9R20242   5.902   6.120   5.663  2.8972 -2.0931 -0.0049
  178SLPC  C21020243   6.001   6.222   5.522 -0.0418  0.3254  0.0737
  178SLPC  H10R20244   5.960   6.146   5.454 -0.6731 -0.3814  1.2147
  178SLPC  C21120245   6.103   6.320   5.469 -0.1476  0.7215 -0.2917
  178SLPC  H11R20246   6.173   6.252   5.417  0.3611 -0.8983  2.3014
  178SLPC  H11S20247   6.157   6.371   5.552 -1.9821  2.3803 -0.0273
  178SLPC  C21220248   6.052   6.434   5.382  0.2503  0.4398 -0.6115
  178SLPC  H12R20249   6.064   6.526   5.441 -1.9602 -0.4009  1.3482
  178SLPC  C21320250   6.016   6.430   5.254  0.9000 -0.1313  0.2087
  178SLPC  H13R20251   5.989   6.526   5.208  1.2108  0.4300  1.1589
  178SLPC  C21420252   6.010   6.303   5.177 -0.0539 -0.3547 -0.0548
  178SLPC  H14R20253   6.031   6.206   5.227  0.5274  0.4394  1.3039
  178SLPC  H14S20254   6.088   6.322   5.101  0.2740  0.3577  0.4447
  178SLPC  C21520255   5.873   6.292   5.108  0.1542 -0.7942 -0.2000
  178SLPC  H15R20256   5.841   6.390   5.069 -2.3277 -1.7960 -0.8411
  178SLPC  H15S20257   5.787   6.269   5.174 -0.3375 -0.0780 -0.5930
  178SLPC  C21620258   5.864   6.197   4.990 -0.3819  0.6264  0.4342
  178SLPC  H16R20259   5.883   6.094   5.026 -0.0677  0.5299 -0.0009
  178SLPC  H16S20260   5.934   6.238   4.914 -0.1944  1.3246  0.9770
  178SLPC  C21720261   5.724   6.186   4.918 -0.0178  0.1576 -0.1043
  178SLPC  H17R20262   5.740   6.190   4.808  0.0987 -1.1027 -0.1506
  178SLPC  H17S20263   5.668   6.277   4.948 -0.3039  1.6910 -4.5037
  178SLPC  C21820264   5.636   6.066   4.969  0.2398  0.7801  0.3568
  178SLPC  H18R20265   5.695   5.972   4.976  1.4612  1.5500  0.6395
  178SLPC  H18S20266   5.544   6.060   4.907  0.2523  0.9409  0.3233
  178SLPC  H18T20267   5.604   6.082   5.075 -2.1423 -1.1863  0.0260
  178SLPC   C3320268   6.492   5.780   6.382 -0.6915 -0.1766 -0.2721
  178SLPC   H3X20269   6.552   5.721   6.455 -1.5196 -0.9288 -0.1829
  178SLPC   H3Y20270   6.517   5.888   6.387  0.6600 -0.4731  0.0024
  178SLPC   C3420271   6.517   5.732   6.235  0.7257 -0.1019 -0.7004
  178SLPC   H4X20272   6.466   5.802   6.166  0.2457  3.6665  3.0501
  178SLPC   H4Y20273   6.478   5.629   6.218  0.8766 -0.2231 -0.3325
  178SLPC   C3520274   6.673   5.719   6.210  1.4966  0.1377 -0.3193
  178SLPC   H5X20275   6.720   5.645   6.278 -0.0942 -1.9879 -1.4309
  178SLPC   H5Y20276   6.719   5.817   6.236  1.4850 -0.5129  2.5204
  178SLPC   C3620277   6.707   5.677   6.066 -0.1145  0.4382 -0.5770
  178SLPC   H6X20278   6.683   5.570   6.051 -0.6823  0.6363 -1.1083
  178SLPC   H6Y20279   6.816   5.693   6.055  0.4867 -1.9602  1.0594
  178SLPC   C3720280   6.642   5.755   5.948 -0.1695 -0.3537  0.5977
  178SLPC   H7X20281   6.669   5.863   5.946 -1.1832 -0.0408  2.0639
  178SLPC   H7Y20282   6.531   5.760   5.953 -0.2388 -2.1347  1.5254
  178SLPC   C3820283   6.687   5.704   5.811 -0.3789  0.4364  0.5461
  178SLPC   H8X20284   6.618   5.618   5.799 -0.1223  0.1160  1.2794
  178SLPC   H8Y20285   6.789   5.660   5.817 -0.5123 -0.0582 -0.5838
  178SLPC   C3920286   6.678   5.800   5.695  0.2634  0.0583  0.5062
  178SLPC   H9X20287   6.741   5.891   5.706 -0.4687  0.4983  1.1822
  178SLPC   H9Y20288   6.573   5.835   5.687  0.4387  0.4972  0.0178
  178SLPC  C31020289   6.743   5.722   5.573 -0.0253 -1.1913 -0.5431
  178SLPC  H10X20290   6.728   5.612   5.574 -1.7719 -0.9788 -1.0528
  178SLPC  H10Y20291   6.853   5.717   5.590 -0.1874 -0.9421  0.6440
  178SLPC  C31120292   6.715   5.790   5.442 -0.6011 -0.4871  0.1187
  178SLPC  H11X20293   6.737   5.897   5.461 -0.4407 -0.9999  3.3389
  178SLPC  H11Y20294   6.607   5.782   5.416 -0.2510  1.3759 -2.3178
  178SLPC  C31220295   6.788   5.730   5.328 -0.1166 -0.4320  0.2472
  178SLPC  H12X20296   6.758   5.623   5.320 -1.7871  0.0462 -0.4397
  178SLPC  H12Y20297   6.895   5.756   5.338 -0.2169  1.4098 -2.5226
  178SLPC  C31320298   6.744   5.787   5.190  0.5695 -0.4679 -0.5523
  178SLPC  H13X20299   6.749   5.898   5.202 -1.7270 -0.1328 -1.8959
  178SLPC  H13Y20300   6.638   5.764   5.165 -0.0736  0.8452  0.7832
  178SLPC  C31420301   6.838   5.740   5.079  0.3882  0.0980 -0.2345
  178SLPC  H14X20302   6.845   5.632   5.101 -1.4117  0.1437  0.7097
  178SLPC  H14Y20303   6.937   5.790   5.090  0.7093  0.1106 -2.5668
  178SLPC  C31520304   6.794   5.777   4.938  0.6581 -0.3353  1.0376
  178SLPC  H15X20305   6.828   5.882   4.926 -1.7860  0.3613 -0.7420
  178SLPC  H15Y20306   6.683   5.769   4.933  0.5551  0.9372  0.9549
  178SLPC  C31620307   6.855   5.706   4.815  0.5297 -0.8635  0.0725
  178SLPC  H16X20308   6.965   5.712   4.808  0.4960 -0.1090  0.1055
  178SLPC  H16Y20309   6.818   5.740   4.715  2.3838  1.3153  0.0486
  178SLPC  C31720310   6.813   5.567   4.820 -0.4885  1.1759 -0.3355
  178SLPC  H17X20311   6.706   5.554   4.848 -0.2474 -0.6990 -0.2078
  178SLPC  H17Y20312   6.868   5.519   4.903 -0.8227  0.0141 -0.7706
  178SLPC  C31820313   6.841   5.494   4.690  0.5587 -0.6124  0.3624
  178SLPC  H18X20314   6.781   5.401   4.676  0.8997 -0.8460  0.4377
  178SLPC  H18Y20315   6.946   5.458   4.688  0.3183 -1.3303 -2.2601
  178SLPC  H18Z20316   6.808   5.566   4.612 -0.9440 -0.6712  0.9036
  179SLPC     N20317   2.342   6.101   2.267 -0.4553  0.4505  0.4320
  179SLPC   C1320318   2.287   6.228   2.304  0.3840  0.4561  0.4709
  179SLPC  H13A20319   2.202   6.208   2.367  1.5631 -2.9396  1.2261
  179SLPC  H13B20320   2.356   6.291   2.359 -0.2873  1.7300 -0.1098
  179SLPC  H13C20321   2.260   6.288   2.219 -0.5720  0.1211  0.5309
  179SLPC   C1420322   2.476   6.108   2.193  0.7973 -0.1987 -0.5864
  179SLPC  H14A20323   2.508   6.012   2.154 -0.4238 -0.0510 -2.0223
  179SLPC  H14B20324   2.449   6.172   2.111  0.0900  1.4033  0.8452
  179SLPC  H14C20325   2.552   6.149   2.258 -0.7232  2.6678 -0.4933
  179SLPC   C1520326   2.248   6.016   2.181  0.5236 -0.3394 -0.4257
  179SLPC  H15A20327   2.155   6.008   2.233  0.9118 -3.8854 -0.0634
  179SLPC  H15B20328   2.244   6.060   2.082  2.0198 -0.8345 -0.7469
  179SLPC  H15C20329   2.283   5.914   2.171  0.2159 -0.5566  0.6270
  179SLPC   C1220330   2.366   6.029   2.405  0.8341  0.6167  0.3121
  179SLPC  H12A20331   2.420   6.090   2.476 -1.9568 -0.7294  3.9489
  179SLPC  H12B20332   2.427   5.942   2.388  0.2577  0.4807 -1.1922
  179SLPC   C1120333   2.239   5.984   2.485 -0.3693  0.5532 -0.0362
  179SLPC  H11A20334   2.274   5.946   2.583  1.4249  3.0244  0.3835
  179SLPC  H11B20335   2.195   5.904   2.422 -2.6168  0.5184  1.4672
  179SLPC     P20336   2.134   6.176   2.629  0.1039  0.2569 -0.2320
  179SLPC   O1320337   2.211   6.121   2.744  0.3121 -0.4657  0.2247
  179SLPC   O1420338   2.166   6.311   2.582  0.2124 -0.1395 -0.0503
  179SLPC   O1220339   2.135   6.082   2.502  0.3523  0.0022 -0.4173
  179SLPC   O1120340   1.985   6.177   2.662 -0.2747  0.0987  0.1035
  179SLPC    C120341   1.924   6.300   2.699  0.0163 -0.3844 -0.5644
  179SLPC    HA20342   1.989   6.372   2.753 -2.2280  0.7374  0.8383
  179SLPC    HB20343   1.884   6.357   2.613  1.7662  2.2065  0.2064
  179SLPC    C220344   1.819   6.271   2.801  0.4890 -0.0104  0.0257
  179SLPC    HS20345   1.761   6.365   2.816  1.6680  1.0992 -1.9660
  179SLPC   O2120346   1.875   6.222   2.928  0.4862 -0.6502 -0.1703
  179SLPC   C2120347   1.938   6.317   3.007 -0.4125  1.5389 -0.3471
  179SLPC   O2220348   1.945   6.435   2.982  0.2853 -0.4664 -0.6569
  179SLPC   C2220349   1.978   6.248   3.143 -0.1730  0.0546 -0.3280
  179SLPC   H2R20350   1.893   6.264   3.213  0.4002  1.8073  0.0153
  179SLPC   H2S20351   1.996   6.141   3.121 -0.2698  0.3317 -1.8644
  179SLPC    C320352   1.714   6.171   2.746 -0.0281  0.2790 -0.9128
  179SLPC    HX20353   1.767   6.076   2.724  0.2680  0.3412 -0.4655
  179SLPC    HY20354   1.673   6.210   2.650 -4.3853 -0.4166  0.4435
  179SLPC   O3120355   1.612   6.144   2.845  0.0336 -0.1343  0.2688
  179SLPC   C3120356   1.495   6.205   2.823  0.6559 -0.4724  0.4386
  179SLPC   O3220357   1.474   6.288   2.733  0.2771  0.2461 -0.3620
  179SLPC   C3220358   1.383   6.157   2.918 -0.1630  0.3107  0.9367
  179SLPC   H2X20359   1.358   6.052   2.895  1.3216  0.1228  0.0306
  179SLPC   H2Y20360   1.305   6.235   2.901  0.1220  0.3006 -0.5337
  179SLPC   C2320361   2.104   6.321   3.199  0.5075 -0.0878  0.0150
  179SLPC   H3R20362   2.079   6.425   3.228  2.3388 -0.0536  1.6800
  179SLPC   H3S20363   2.189   6.321   3.127 -0.0220  0.1558 -0.6177
  179SLPC   C2420364   2.154   6.262   3.332  0.5675  0.2589 -0.6059
  179SLPC   H4R20365   2.248   6.311   3.364 -0.0565  1.7023 -0.9115
  179SLPC   H4S20366   2.183   6.157   3.311  0.4448  0.1880 -0.4275
  179SLPC   C2520367   2.057   6.253   3.452  0.2115 -0.3632  0.3561
  179SLPC   H5R20368   1.970   6.185   3.437  0.1191  0.0737 -1.2696
  179SLPC   H5S20369   2.014   6.354   3.471 -1.0986 -0.8129 -0.0986
  179SLPC   C2620370   2.131   6.193   3.573  0.5394  0.1403  0.3121
  179SLPC   H6R20371   2.203   6.269   3.610 -0.8394  0.9710  1.3761
  179SLPC   H6S20372   2.159   6.089   3.545 -1.1739 -0.1921 -0.2545
  179SLPC   C2720373   2.039   6.166   3.690  0.0999  0.6578 -0.5939
  179SLPC   H7R20374   1.938   6.129   3.663 -0.3625  0.6014  1.0582
  179SLPC   H7S20375   2.028   6.261   3.746  2.1810 -0.0068  1.0917
  179SLPC   C2820376   2.096   6.060   3.794  0.5764  0.4212 -0.4604
  179SLPC   H8R20377   2.198   6.097   3.815  0.7645 -0.8808  1.1911
  179SLPC   H8S20378   2.107   5.964   3.739  0.7627 -1.1107  2.0985
  179SLPC   C2920379   2.025   6.052   3.933  0.4944 -0.1825 -0.0543
  179SLPC   H9R20380   1.925   6.007   3.930  0.8356 -0.9170 -2.4856
  179SLPC  C21020381   2.067   6.087   4.054 -0.2218 -0.0457  0.7578
  179SLPC  H10R20382   1.993   6.080   4.135  0.0330  0.3880  1.0334
  179SLPC  C21120383   2.205   6.145   4.076 -0.2299  0.5886 -0.5413
  179SLPC  H11R20384   2.215   6.209   4.166  0.3723 -0.5032  0.1860
  179SLPC  H11S20385   2.235   6.220   4.000  2.0582  1.2114  0.8790
  179SLPC  C21220386   2.319   6.049   4.095 -0.4049 -0.0424 -0.0732
  179SLPC  H12R20387   2.404   6.065   4.027 -2.0948  2.9829 -1.6710
  179SLPC  C21320388   2.344   5.963   4.195  0.1211  0.3973 -0.2051
  179SLPC  H13R20389   2.437   5.904   4.185  0.2723  0.5491  0.3238
  179SLPC  C21420390   2.257   5.933   4.313  0.4941  0.6944  0.0611
  179SLPC  H14R20391   2.161   5.883   4.285  0.8150  0.5217 -0.7576
  179SLPC  H14S20392   2.228   6.027   4.365 -1.5817  0.4664 -0.5764
  179SLPC  C21520393   2.336   5.837   4.406  0.0833  0.4197 -0.3073
  179SLPC  H15R20394   2.437   5.881   4.419 -0.5485  1.9693 -0.4223
  179SLPC  H15S20395   2.355   5.740   4.355 -2.4349 -1.6123  2.2614
  179SLPC  C21620396   2.264   5.829   4.542  0.2877 -0.1456  0.1935
  179SLPC  H16R20397   2.169   5.772   4.534 -1.6538  2.1383  3.9169
  179SLPC  H16S20398   2.231   5.931   4.571  0.1323 -0.5066  1.3229
  179SLPC  C21720399   2.349   5.763   4.652 -0.0159  0.4458 -0.3786
  179SLPC  H17R20400   2.356   5.659   4.614 -1.1193  1.0230 -2.3013
  179SLPC  H17S20401   2.285   5.757   4.742 -1.7656 -1.9680 -1.6610
  179SLPC  C21820402   2.495   5.826   4.668  0.5174  0.2813 -0.0242
  179SLPC  H18R20403   2.474   5.930   4.702 -3.9044 -1.1586  2.5274
  179SLPC  H18S20404   2.555   5.827   4.574  0.0989  1.3184 -0.2949
  179SLPC  H18T20405   2.553   5.771   4.744 -1.3404 -0.0726  1.1985
  179SLPC   C3320406   1.419   6.178   3.064 -0.0487 -0.5178 -0.0336
  179SLPC   H3X20407   1.338   6.173   3.140  0.3925  0.6359  0.5411
  179SLPC   H3Y20408   1.461   6.281   3.072  2.1888 -1.3478 -0.3914
  179SLPC   C3420409   1.526   6.080   3.117  0.1949 -0.1672 -0.0081
  179SLPC   H4X20410   1.623   6.091   3.066  1.1524  0.0224  1.7749
  179SLPC   H4Y20411   1.486   5.977   3.109 -0.0732 -0.0203 -0.6049
  179SLPC   C3520412   1.561   6.090   3.271 -0.2456  0.7399  0.4987
  179SLPC   H5X20413   1.589   6.196   3.292  0.1009  0.6370  0.5618
  179SLPC   H5Y20414   1.483   6.064   3.345  0.4889  0.4553  1.1862
  179SLPC   C3620415   1.679   5.993   3.313  0.0344  0.0635  1.0960
  179SLPC   H6X20416   1.763   6.026   3.247  0.2562  1.8575  2.2082
  179SLPC   H6Y20417   1.655   5.889   3.284 -1.3724  0.8711 -0.8524
  179SLPC   C3720418   1.720   6.014   3.457  0.7443  0.4796 -0.8776
  179SLPC   H7X20419   1.742   6.121   3.475 -0.6538  0.4731  1.3375
  179SLPC   H7Y20420   1.811   5.951   3.468  2.2857  2.7015 -0.1786
  179SLPC   C3820421   1.609   5.966   3.561 -0.2372  0.4396  0.2774
  179SLPC   H8X20422   1.584   5.865   3.522 -0.2720  0.8216 -0.7353
  179SLPC   H8Y20423   1.511   6.017   3.549 -1.7049 -1.8834  1.7144
  179SLPC   C3920424   1.656   5.944   3.702 -0.5332 -1.3333  0.3489
  179SLPC   H9X20425   1.607   6.007   3.779  0.8353 -0.6253  0.6753
  179SLPC   H9Y20426   1.764   5.962   3.720 -0.5774 -0.9888  0.2798
  179SLPC  C31020427   1.637   5.805   3.759 -0.4478  0.0253  0.0372
  179SLPC  H10X20428   1.709   5.737   3.709 -2.0743 -0.7554 -1.3304
  179SLPC  H10Y20429   1.534   5.781   3.728  0.4590 -4.2863 -0.2346
  179SLPC  C31120430   1.658   5.785   3.916  0.1404  0.7240 -0.0625
  179SLPC  H11X20431   1.742   5.852   3.945  2.5615 -1.6237 -1.2406
  179SLPC  H11Y20432   1.670   5.677   3.935 -2.1978 -0.2755 -3.3312
  179SLPC  C31220433   1.543   5.835   3.998  0.2562  0.3648 -0.5856
  179SLPC  H12X20434   1.453   5.816   3.935  1.5918 -0.2166 -2.4342
  179SLPC  H12Y20435   1.564   5.941   4.024 -0.1941  0.2527  0.2689
  179SLPC  C31320436   1.535   5.769   4.135  0.4007 -0.1074 -0.0220
  179SLPC  H13X20437   1.551   5.662   4.110  1.2827 -0.1391  0.6276
  179SLPC  H13Y20438   1.442   5.776   4.196  0.9422  0.7232  0.7323
  179SLPC  C31420439   1.630   5.829   4.230 -0.3572  0.5651  0.5881
  179SLPC  H14X20440   1.619   5.939   4.221 -0.7303  0.4666 -0.2659
  179SLPC  H14Y20441   1.735   5.812   4.197 -0.2728  1.2409  0.4841
  179SLPC  C31520442   1.600   5.775   4.372  1.1467 -0.5262  1.0098
  179SLPC  H15X20443   1.572   5.667   4.376  0.6168 -0.4232  0.3034
  179SLPC  H15Y20444   1.515   5.836   4.408  1.6255 -0.1057  1.4482
  179SLPC  C31620445   1.709   5.800   4.476  0.3544 -0.0652 -0.8982
  179SLPC  H16X20446   1.730   5.909   4.476 -0.8167  0.1926 -2.2793
  179SLPC  H16Y20447   1.805   5.761   4.435  0.8985  0.9464 -0.6183
  179SLPC  C31720448   1.675   5.745   4.612 -0.5527  0.0644  0.3302
  179SLPC  H17X20449   1.573   5.761   4.652 -0.7844 -2.4389  0.8895
  179SLPC  H17Y20450   1.739   5.794   4.688  1.1407 -1.9542  0.3021
  179SLPC  C31820451   1.702   5.592   4.626  0.2323 -0.4167  0.6164
  179SLPC  H18X20452   1.633   5.533   4.562 -0.4940 -1.5671  2.3712
  179SLPC  H18Y20453   1.680   5.562   4.731 -0.9267 -0.4149  0.3849
  179SLPC  H18Z20454   1.810   5.568   4.612  0.9747  2.3353  1.1277
  180SLPC     N20455   6.643   0.218   2.373 -0.1676 -0.0694  0.3154
  180SLPC   C1320456   6.548   0.108   2.331 -0.3126 -0.5682  0.8877
  180SLPC  H13A20457   6.513   0.050   2.415 -0.2008 -0.1171  1.2458
  180SLPC  H13B20458   6.459   0.135   2.275  0.8260  0.3648 -0.5524
  180SLPC  H13C20459   6.596   0.031   2.271  0.4413 -1.3430  2.4257
  180SLPC   C1420460   6.704   0.279   2.247  0.3381  0.3639 -0.2169
  180SLPC  H14A20461   6.747   0.377   2.262 -0.3015  1.1216 -2.7206
  180SLPC  H14B20462   6.782   0.216   2.207  0.4492 -0.7451  1.6401
  180SLPC  H14C20463   6.629   0.293   2.170  0.2146 -2.2548 -0.6607
  180SLPC   C1520464   6.752   0.162   2.454  0.0366  0.1439  0.4753
  180SLPC  H15A20465   6.828   0.238   2.464  0.0792  0.5478 -2.0793
  180SLPC  H15B20466   6.719   0.127   2.550  2.6343  0.8158  1.6906
  180SLPC  H15C20467   6.803   0.076   2.413  0.3110 -1.0861  3.1904
  180SLPC   C1220468   6.566   0.319   2.449  0.8425  0.6111 -0.6145
  180SLPC  H12A20469   6.510   0.381   2.381  1.2657  0.9159 -0.6915
  180SLPC  H12B20470   6.632   0.394   2.491 -1.6096  1.7210  1.5530
  180SLPC   C1120471   6.474   0.279   2.569  0.5292 -0.6877  0.2046
  180SLPC  H11A20472   6.455   0.375   2.622  2.3841 -1.4294  2.3378
  180SLPC  H11B20473   6.531   0.218   2.642  1.0227  0.8285  1.1489
  180SLPC     P20474   6.245   0.296   2.441 -0.4520  0.1687  0.4605
  180SLPC   O1320475   6.291   0.434   2.421 -0.3482 -0.3800  0.1005
  180SLPC   O1420476   6.206   0.222   2.315 -0.6359 -0.2160 -1.0264
  180SLPC   O1220477   6.358   0.216   2.523 -0.1098  0.4772 -0.3319
  180SLPC   O1120478   6.126   0.290   2.545  1.0516 -0.0597  0.0188
  180SLPC    C120479   6.150   0.360   2.669 -0.1362  0.5056  0.7522
  180SLPC    HA20480   6.228   0.302   2.722 -0.0777 -1.1660 -1.0469
  180SLPC    HB20481   6.184   0.466   2.662  0.1581  0.4235  0.9148
  180SLPC    C220482   6.028   0.350   2.763  0.3350  0.4982  0.6293
  180SLPC    HS20483   5.952   0.422   2.727  0.6217  0.6650  0.3574
  180SLPC   O2120484   6.063   0.367   2.901  0.8076 -0.6994 -0.0824
  180SLPC   C2120485   6.077   0.497   2.944 -0.5400  0.4134 -0.6488
  180SLPC   O2220486   6.080   0.592   2.874 -0.3432 -0.8908  0.2485
  180SLPC   C2220487   6.105   0.493   3.096 -0.2724  0.2473 -0.4104
  180SLPC   H2R20488   6.023   0.461   3.164  1.5721 -0.9925  1.3679
  180SLPC   H2S20489   6.183   0.415   3.104 -0.5179 -0.0859 -1.1743
  180SLPC    C320490   5.970   0.208   2.750 -0.3330  0.3446 -0.5049
  180SLPC    HX20491   6.046   0.142   2.796 -1.1377  0.0803  0.4946
  180SLPC    HY20492   5.948   0.166   2.649 -0.1108 -0.8110 -0.0942
  180SLPC   O3120493   5.853   0.196   2.833  0.0916 -0.3925  0.5080
  180SLPC   C3120494   5.748   0.244   2.772 -0.0502 -0.6476 -0.1866
  180SLPC   O3220495   5.740   0.280   2.655  0.2467  0.2465  0.0214
  180SLPC   C3220496   5.620   0.238   2.872 -0.4043 -0.6498  0.1288
  180SLPC   H2X20497   5.544   0.178   2.818 -0.7530  2.0528 -2.6615
  180SLPC   H2Y20498   5.581   0.342   2.868 -1.6441 -1.1237 -2.8932
  180SLPC   C2320499   6.150   0.634   3.155  0.1516 -0.2402 -0.2446
  180SLPC   H3R20500   6.077   0.715   3.136  0.8021  0.8063  1.5288
  180SLPC   H3S20501   6.242   0.650   3.095 -0.8178 -1.3789 -2.1586
  180SLPC   C2420502   6.171   0.628   3.305  0.1140  0.0843  0.2962
  180SLPC   H4R20503   6.079   0.618   3.366  0.0053  1.9057  0.4831
  180SLPC   H4S20504   6.216   0.722   3.344  0.6857  0.7967 -1.9491
  180SLPC   C2520505   6.275   0.521   3.343 -0.0199  0.2050 -0.1553
  180SLPC   H5R20506   6.365   0.519   3.278  0.2335 -1.1042  0.2121
  180SLPC   H5S20507   6.225   0.423   3.331  0.0521  0.4841 -3.3174
  180SLPC   C2620508   6.323   0.520   3.492  0.1139  0.2407 -0.3251
  180SLPC   H6R20509   6.228   0.478   3.534  0.0880 -0.9553 -1.5066
  180SLPC   H6S20510   6.331   0.626   3.524  1.7470 -0.3428  1.3061
  180SLPC   C2720511   6.440   0.431   3.514 -0.3500 -0.6945 -0.3345
  180SLPC   H7R20512   6.521   0.464   3.445  1.7894 -1.0291  1.8585
  180SLPC   H7S20513   6.430   0.325   3.484  0.4952 -0.7926 -0.2886
  180SLPC   C2820514   6.491   0.459   3.657 -0.6848  0.4320 -0.3005
  180SLPC   H8R20515   6.480   0.569   3.660  0.2592  0.6287 -2.4138
  180SLPC   H8S20516   6.598   0.432   3.663 -0.7035  0.0752 -1.2893
  180SLPC   C2920517   6.417   0.382   3.764  0.1414  0.4495 -0.1794
  180SLPC   H9R20518   6.419   0.273   3.752 -0.1072  0.4566 -0.3063
  180SLPC  C21020519   6.349   0.425   3.871 -0.5222 -0.6083 -0.3421
  180SLPC  H10R20520   6.325   0.343   3.941  0.9705 -2.1573 -1.5463
  180SLPC  C21120521   6.318   0.571   3.916  0.1436  0.1903 -0.1745
  180SLPC  H11R20522   6.353   0.649   3.845  1.0784 -0.0780 -0.0184
  180SLPC  H11S20523   6.387   0.580   4.004  0.1921 -1.5959  0.0074
  180SLPC  C21220524   6.174   0.611   3.941  0.3844 -0.0800  0.5740
  180SLPC  H12R20525   6.122   0.650   3.852 -0.3409  0.9002  1.4044
  180SLPC  C21320526   6.108   0.607   4.054  0.0757  0.8264  0.1247
  180SLPC  H13R20527   6.016   0.666   4.049  0.0184  0.7466  0.2254
  180SLPC  C21420528   6.155   0.571   4.191  0.5236  0.1192 -0.6099
  180SLPC  H14R20529   6.092   0.617   4.269 -1.4073 -0.0994 -1.9630
  180SLPC  H14S20530   6.262   0.600   4.200  0.9487 -1.2978 -0.8243
  180SLPC  C21520531   6.127   0.417   4.221  0.0280 -0.0719 -0.2196
  180SLPC  H15R20532   6.186   0.349   4.155  0.9455  0.0550  0.4611
  180SLPC  H15S20533   6.021   0.392   4.200 -0.9102  0.8128  2.9837
  180SLPC  C21620534   6.152   0.390   4.372  0.6309 -0.2876 -0.3424
  180SLPC  H16R20535   6.105   0.468   4.434  0.8086  0.3589 -1.0052
  180SLPC  H16S20536   6.260   0.408   4.385  0.8898 -0.8967 -1.4733
  180SLPC  C21720537   6.099   0.248   4.407 -0.0364 -0.9088 -0.4601
  180SLPC  H17R20538   6.141   0.174   4.335  3.2701 -0.2637  0.6084
  180SLPC  H17S20539   5.989   0.252   4.400  0.0310  0.4298 -1.1140
  180SLPC  C21820540   6.129   0.198   4.551  0.0456 -0.3529 -0.1802
  180SLPC  H18R20541   6.237   0.173   4.549  0.4135  1.0512  0.7586
  180SLPC  H18S20542   6.067   0.113   4.589 -1.4625  0.2914 -1.1011
  180SLPC  H18T20543   6.129   0.292   4.610  0.9642 -0.2540 -0.3209
  180SLPC   C3320544   5.631   0.185   3.013 -0.3514  0.1394  0.0267
  180SLPC   H3X20545   5.535   0.218   3.059 -1.2229  2.1860 -2.9568
  180SLPC   H3Y20546   5.710   0.240   3.068  0.9002  2.3080 -3.5401
  180SLPC   C3420547   5.652   0.034   3.024  0.1573  0.5081 -0.1110
  180SLPC   H4X20548   5.742   0.015   2.963  0.3802 -0.5348  0.5268
  180SLPC   H4Y20549   5.565  -0.022   2.984  0.7353 -0.0021 -0.6711
  180SLPC   C3520550   5.683  -0.019   3.165 -0.1403 -0.3950 -0.1503
  180SLPC   H5X20551   5.601   0.008   3.235  0.5883  2.1322 -0.1692
  180SLPC   H5Y20552   5.768   0.040   3.205  0.0128 -0.5854 -0.1937
  180SLPC   C3620553   5.711  -0.161   3.172  0.2008  0.5025 -0.8791
  180SLPC   H6X20554   5.813  -0.173   3.129  1.3106  0.0731  1.6821
  180SLPC   H6Y20555   5.645  -0.218   3.104 -0.2545  0.3408 -0.3134
  180SLPC   C3720556   5.713  -0.226   3.308 -0.1067  0.1093 -1.3302
  180SLPC   H7X20557   5.786  -0.184   3.380 -1.8314 -0.4567  0.8436
  180SLPC   H7Y20558   5.737  -0.334   3.298  0.4685  0.2168 -1.1390
  180SLPC   C3820559   5.577  -0.204   3.371  0.2842 -0.5833  0.2464
  180SLPC   H8X20560   5.504  -0.207   3.287 -0.6558  0.3239  1.0084
  180SLPC   H8Y20561   5.587  -0.099   3.405  0.1047 -0.4259 -0.1810
  180SLPC   C3920562   5.540  -0.307   3.473 -0.3503 -0.1080 -0.3943
  180SLPC   H9X20563   5.555  -0.407   3.428 -2.0099 -0.8622  0.6423
  180SLPC   H9Y20564   5.429  -0.305   3.486 -0.3337 -0.7509 -0.1483
  180SLPC  C31020565   5.604  -0.287   3.613 -0.4940 -0.9842 -0.7563
  180SLPC  H10X20566   5.612  -0.177   3.617 -2.2176 -0.7495 -2.3146
  180SLPC  H10Y20567   5.707  -0.326   3.605  0.1436  0.7600 -1.4484
  180SLPC  C31120568   5.532  -0.360   3.729  1.2283  0.0281  0.3181
  180SLPC  H11X20569   5.553  -0.469   3.733 -1.5047 -0.5779  0.5819
  180SLPC  H11Y20570   5.422  -0.347   3.719  1.2345 -0.5995 -0.6651
  180SLPC  C31220571   5.558  -0.288   3.858  0.2766 -0.1170 -0.8934
  180SLPC  H12X20572   5.538  -0.179   3.860  1.5672  0.1395 -0.9287
  180SLPC  H12Y20573   5.664  -0.293   3.892  0.1638 -2.5483 -0.6807
  180SLPC  C31320574   5.466  -0.344   3.975  0.3151 -0.6719  0.6543
  180SLPC  H13X20575   5.531  -0.395   4.049 -1.6787 -0.8629  2.3709
  180SLPC  H13Y20576   5.382  -0.407   3.938 -0.0688 -0.2479  0.7963
  180SLPC  C31420577   5.401  -0.228   4.056  0.2105  0.0688  0.1417
  180SLPC  H14X20578   5.358  -0.159   3.980  0.4469 -0.1804 -0.2228
  180SLPC  H14Y20579   5.478  -0.165   4.105 -1.6388  1.5487  1.3009
  180SLPC  C31520580   5.303  -0.273   4.167 -0.1369  0.6889 -0.1908
  180SLPC  H15X20581   5.251  -0.364   4.130 -0.2103  0.8279 -0.4305
  180SLPC  H15Y20582   5.235  -0.186   4.170  0.6669  1.4195 -1.6089
  180SLPC  C31620583   5.364  -0.286   4.305  0.0942  0.1776 -0.2853
  180SLPC  H16X20584   5.414  -0.190   4.333 -0.9953  0.0803  2.3072
  180SLPC  H16Y20585   5.444  -0.363   4.301 -0.4580 -0.4674  0.6427
  180SLPC  C31720586   5.261  -0.333   4.404  0.1050  0.5650 -0.0673
  180SLPC  H17X20587   5.235  -0.439   4.387  2.1326  0.2200 -1.4965
  180SLPC  H17Y20588   5.173  -0.267   4.390  1.5845  2.5911 -0.3591
  180SLPC  C31820589   5.316  -0.322   4.547  0.2846  0.3465  0.2015
  180SLPC  H18X20590   5.339  -0.214   4.558 -2.2475  1.5315 -3.9063
  180SLPC  H18Y20591   5.404  -0.387   4.563 -0.2904 -0.2211  1.2442
  180SLPC  H18Z20592   5.241  -0.346   4.626  0.2291  0.0911  0.0706
  181SLPC     N20593   4.956   6.409   1.901  0.2695  0.1524 -0.6508
  181SLPC   C1320594   4.957   6.541   1.833 -0.2067  0.1365 -0.1846
  181SLPC  H13A20595   5.056   6.566   1.798 -0.9468  1.3359 -1.5391
  181SLPC  H13B20596   4.879   6.534   1.758 -0.2223 -1.6207 -0.0427
  181SLPC  H13C20597   4.925   6.616   1.904 -0.4922 -1.0571  0.9964
  181SLPC   C1420598   5.012   6.309   1.811  0.2988  0.3347  0.9739
  181SLPC  H14A20599   5.115   6.322   1.779  0.2974 -0.0131  0.8254
  181SLPC  H14B20600   4.988   6.207   1.835  1.6052  0.0263  1.0549
  181SLPC  H14C20601   4.954   6.314   1.721 -1.1853 -1.3896  1.7636
  181SLPC   C1520602   4.816   6.365   1.935 -0.5524 -0.0141 -0.2464
  181SLPC  H15A20603   4.762   6.453   1.967 -1.5528 -0.4692 -0.6428
  181SLPC  H15B20604   4.765   6.330   1.846  0.9688  0.0833 -1.1955
  181SLPC  H15C20605   4.819   6.286   2.009 -1.5864  0.5675  0.4471
  181SLPC   C1220606   5.033   6.410   2.034 -0.7870 -0.3862  0.2595
  181SLPC  H12A20607   5.138   6.429   2.022 -0.7771  0.0917  1.0339
  181SLPC  H12B20608   5.027   6.314   2.083  0.7227  0.4401  2.1782
  181SLPC   C1120609   4.989   6.511   2.134  0.2816 -0.0690  0.2419
  181SLPC  H11A20610   5.029   6.462   2.225 -1.4047 -3.2687 -0.5902
  181SLPC  H11B20611   4.879   6.503   2.150  0.1277 -1.6300 -1.3001
  181SLPC     P20612   4.969   6.775   2.149 -0.0365  0.3067 -0.2058
  181SLPC   O1320613   5.057   6.896   2.162  0.1750  0.4870 -0.0620
  181SLPC   O1420614   4.855   6.795   2.056 -0.3728  0.0375 -0.1992
  181SLPC   O1220615   5.039   6.643   2.107  0.2551 -0.1236 -0.1549
  181SLPC   O1120616   4.924   6.731   2.296 -0.2356 -0.1397 -0.3672
  181SLPC    C120617   5.018   6.726   2.404 -0.0013 -0.2516  0.1438
  181SLPC    HA20618   5.052   6.621   2.414  0.2383 -0.2748 -0.8012
  181SLPC    HB20619   5.103   6.797   2.395  2.8100 -3.3926  0.1375
  181SLPC    C220620   4.944   6.770   2.536 -0.3509  0.6290  0.5834
  181SLPC    HS20621   5.019   6.750   2.615  1.9560  2.9028 -0.8796
  181SLPC   O2120622   4.817   6.699   2.556  0.3356  0.0305  0.0903
  181SLPC   C2120623   4.822   6.581   2.604 -0.4474  0.4015 -0.2970
  181SLPC   O2220624   4.923   6.523   2.640 -0.0508 -0.0202  0.5569
  181SLPC   C2220625   4.679   6.530   2.616  0.5409  0.2920 -0.0440
  181SLPC   H2R20626   4.639   6.521   2.513  0.0567 -0.5763  0.2030
  181SLPC   H2S20627   4.671   6.430   2.665 -0.7286  1.1145  1.5377
  181SLPC    C320628   4.909   6.925   2.532 -0.6464  0.4411 -0.0057
  181SLPC    HX20629   4.844   6.923   2.442 -1.1592 -1.5613  0.3664
  181SLPC    HY20630   5.000   6.982   2.503  0.9492 -1.5940  0.7522
  181SLPC   O3120631   4.855   6.985   2.646  0.3762 -0.5158  0.6435
  181SLPC   C3120632   4.933   6.986   2.757 -0.1830 -0.3145 -0.5724
  181SLPC   O3220633   5.050   6.953   2.759 -0.0269  0.3134 -0.3271
  181SLPC   C3220634   4.842   7.021   2.872  0.8269  0.2498  0.0027
  181SLPC   H2X20635   4.759   6.948   2.881  0.9015  0.2614  0.8949
  181SLPC   H2Y20636   4.792   7.118   2.849  1.4486  1.1007  2.0635
  181SLPC   C2320637   4.590   6.623   2.699 -0.0505 -0.3058 -0.1993
  181SLPC   H3R20638   4.481   6.606   2.690  0.0367 -2.8189  2.2053
  181SLPC   H3S20639   4.603   6.731   2.674  0.7383  0.2388  2.2582
  181SLPC   C2420640   4.622   6.609   2.850  0.1475  0.2761 -0.2043
  181SLPC   H4R20641   4.729   6.627   2.872  0.4388 -1.2969 -0.2484
  181SLPC   H4S20642   4.614   6.501   2.877  2.6415  0.2414  0.5914
  181SLPC   C2520643   4.527   6.697   2.943  0.0145  0.3208  0.2446
  181SLPC   H5R20644   4.422   6.662   2.937  0.6400 -1.8327  0.6211
  181SLPC   H5S20645   4.530   6.802   2.907  3.7524 -0.6590 -3.0986
  181SLPC   C2620646   4.565   6.683   3.090  0.1648  0.4646 -0.4563
  181SLPC   H6R20647   4.666   6.727   3.100  0.5448 -0.8361  2.5772
  181SLPC   H6S20648   4.585   6.577   3.119  1.7746  0.1868 -2.3775
  181SLPC   C2720649   4.464   6.756   3.176  0.3109 -0.1344 -0.5683
  181SLPC   H7R20650   4.361   6.741   3.136 -0.2549  0.9823  0.4211
  181SLPC   H7S20651   4.492   6.863   3.163  0.8212 -0.3313 -1.1600
  181SLPC   C2820652   4.471   6.715   3.327 -0.6741 -0.5427 -0.0585
  181SLPC   H8R20653   4.572   6.732   3.369 -0.4670 -3.1934  0.6647
  181SLPC   H8S20654   4.461   6.605   3.316 -0.6028 -0.4468 -1.3410
  181SLPC   C2920655   4.358   6.779   3.405  0.2904 -0.4296 -0.4924
  181SLPC   H9R20656   4.274   6.813   3.342  0.8715  1.1197 -0.4811
  181SLPC  C21020657   4.357   6.798   3.535 -0.2712  0.3658 -0.8321
  181SLPC  H10R20658   4.265   6.846   3.571 -2.5833 -1.8333 -3.3803
  181SLPC  C21120659   4.469   6.753   3.629 -0.8193  0.0494 -0.0152
  181SLPC  H11R20660   4.484   6.842   3.693 -0.7934  0.2215 -0.2607
  181SLPC  H11S20661   4.570   6.732   3.588 -0.4266 -2.2690  1.9193
  181SLPC  C21220662   4.421   6.635   3.713 -0.3510  0.4066 -0.1965
  181SLPC  H12R20663   4.333   6.581   3.674  0.3132  1.2712 -3.1894
  181SLPC  C21320664   4.484   6.604   3.831  0.1685  0.2622  0.0718
  181SLPC  H13R20665   4.444   6.510   3.873  1.3581 -0.3888 -0.1820
  181SLPC  C21420666   4.607   6.666   3.888  0.4859 -0.8887  0.2480
  181SLPC  H14R20667   4.639   6.761   3.840 -1.7635  0.8661  1.9467
  181SLPC  H14S20668   4.699   6.604   3.886  0.8837 -0.3007 -0.0177
  181SLPC  C21520669   4.589   6.693   4.036 -0.0212  0.0387 -0.6394
  181SLPC  H15R20670   4.688   6.734   4.069 -0.8752  2.3682 -0.7723
  181SLPC  H15S20671   4.570   6.596   4.086 -1.5080 -0.3996 -2.0164
  181SLPC  C21620672   4.481   6.794   4.087  0.7383  1.1713 -0.0288
  181SLPC  H16R20673   4.376   6.765   4.065  1.2643  2.4353 -5.5806
  181SLPC  H16S20674   4.486   6.886   4.025 -1.7514  0.3503 -1.5841
  181SLPC  C21720675   4.494   6.807   4.239 -0.1660 -0.3478  0.1032
  181SLPC  H17R20676   4.599   6.841   4.249  0.5910 -2.2751 -0.8712
  181SLPC  H17S20677   4.493   6.706   4.283 -0.4652 -1.1176 -1.5726
  181SLPC  C21820678   4.384   6.894   4.295 -0.0557  0.5998  0.2085
  181SLPC  H18R20679   4.389   6.995   4.248  2.0811 -0.6527 -2.5242
  181SLPC  H18S20680   4.388   6.889   4.406  0.1463 -0.5732  0.1512
  181SLPC  H18T20681   4.285   6.856   4.263  0.2716  0.6932 -0.9545
  181SLPC   C3320682   4.920   7.029   3.004  0.4580  0.6656 -0.0325
  181SLPC   H3X20683   4.964   7.132   3.002 -1.6897  1.6487  0.1923
  181SLPC   H3Y20684   5.003   6.957   3.016 -0.4690 -0.7210 -1.5397
  181SLPC   C3420685   4.816   7.027   3.112  0.1126 -0.4852 -0.2134
  181SLPC   H4X20686   4.746   6.941   3.102  0.2224 -0.6801  0.6069
  181SLPC   H4Y20687   4.762   7.123   3.124  1.7059  0.3310  0.7700
  181SLPC   C3520688   4.885   6.996   3.251 -0.0217 -0.5790 -0.0054
  181SLPC   H5X20689   4.950   7.083   3.275 -0.4275  0.2097 -1.6132
  181SLPC   H5Y20690   4.943   6.903   3.237  2.1798  1.0003 -2.2886
  181SLPC   C3620691   4.777   6.990   3.360  0.2789  0.4208  0.5049
  181SLPC   H6X20692   4.702   6.909   3.345  1.6019 -0.3275 -2.8160
  181SLPC   H6Y20693   4.710   7.079   3.350  0.8794  0.6626 -1.9158
  181SLPC   C3720694   4.836   6.983   3.491 -0.2219 -0.5960  0.1907
  181SLPC   H7X20695   4.912   7.065   3.495  0.4807 -1.2050 -0.3261
  181SLPC   H7Y20696   4.886   6.886   3.514 -0.6790 -0.7302  0.6425
  181SLPC   C3820697   4.739   7.002   3.613  0.3036 -0.1759 -0.1904
  181SLPC   H8X20698   4.665   6.918   3.617  0.6126 -0.4856 -0.9178
  181SLPC   H8Y20699   4.683   7.097   3.604 -1.2851 -0.9910  0.6554
  181SLPC   C3920700   4.817   7.001   3.741  0.7693  0.1191 -0.0451
  181SLPC   H9X20701   4.900   7.075   3.741  2.8145 -2.0147 -1.7019
  181SLPC   H9Y20702   4.859   6.902   3.769  0.7186  0.1210  0.0373
  181SLPC  C31020703   4.732   7.031   3.867  0.0758 -0.0878 -0.4388
  181SLPC  H10X20704   4.665   6.943   3.872 -0.6205  0.4251 -0.4438
  181SLPC  H10Y20705   4.669   7.123   3.862 -1.5236 -1.1903 -1.5279
  181SLPC  C31120706   4.821   7.048   3.999 -0.1576 -0.8123  0.2730
  181SLPC  H11X20707   4.897   7.123   3.968 -0.7977  0.2492  1.2001
  181SLPC  H11Y20708   4.864   6.953   4.035  0.2163 -1.5086 -1.8755
  181SLPC  C31220709   4.739   7.109   4.113  0.4258  0.5389 -0.0538
  181SLPC  H12X20710   4.656   7.035   4.124  0.4991  0.3316 -0.8203
  181SLPC  H12Y20711   4.699   7.210   4.090  0.9148  0.6972 -0.2088
  181SLPC  C31320712   4.811   7.112   4.248  0.0356 -0.6144  0.0369
  181SLPC  H13X20713   4.814   7.003   4.268 -2.3299 -1.5506 -3.7328
  181SLPC  H13Y20714   4.751   7.166   4.324  1.8325 -0.7874  1.6651
  181SLPC  C31420715   4.946   7.179   4.257 -0.0353 -0.0326  0.2681
  181SLPC  H14X20716   4.934   7.288   4.237  1.8026 -0.0233 -0.9613
  181SLPC  H14Y20717   5.010   7.142   4.174 -1.9109 -2.0546 -0.3804
  181SLPC  C31520718   5.015   7.170   4.395  0.3691  0.2776  0.0122
  181SLPC  H15X20719   5.018   7.062   4.423 -0.1159  0.1588 -0.3816
  181SLPC  H15Y20720   4.961   7.234   4.468  0.1896 -0.5637  0.6322
  181SLPC  C31620721   5.159   7.219   4.382  0.7662 -0.2060  0.3583
  181SLPC  H16X20722   5.158   7.329   4.401  0.5387 -0.1286 -0.0831
  181SLPC  H16Y20723   5.197   7.203   4.278  1.0152 -0.0748  0.4280
  181SLPC  C31720724   5.261   7.154   4.475 -0.0516 -0.6280 -1.0372
  181SLPC  H17X20725   5.358   7.202   4.449 -0.6681 -0.3009 -2.9554
  181SLPC  H17Y20726   5.271   7.045   4.453 -2.7035 -0.8788 -1.4483
  181SLPC  C31820727   5.234   7.166   4.627  0.1619  0.4500  0.3334
  181SLPC  H18X20728   5.139   7.109   4.640 -1.1389  2.3484 -0.3525
  181SLPC  H18Y20729   5.208   7.272   4.650 -1.6177 -0.2557  1.7809
  181SLPC  H18Z20730   5.312   7.139   4.701 -1.0843 -0.3764  1.3909
  182SLPC     N20731   2.795   5.644   2.175 -0.4179 -0.3140 -0.5309
  182SLPC   C1320732   2.943   5.626   2.147 -0.8741 -0.4348 -0.4953
  182SLPC  H13A20733   2.994   5.713   2.186 -1.3209 -0.6205  0.5533
  182SLPC  H13B20734   2.985   5.542   2.201 -0.5886 -0.1752 -0.3093
  182SLPC  H13C20735   2.969   5.616   2.043  0.5895  2.0873 -0.4587
  182SLPC   C1420736   2.752   5.759   2.092  0.7030 -0.2282 -0.2771
  182SLPC  H14A20737   2.777   5.857   2.131 -0.2721  0.3860 -1.1741
  182SLPC  H14B20738   2.800   5.757   1.996  1.1534 -3.0490 -0.0847
  182SLPC  H14C20739   2.645   5.758   2.080  0.1330 -0.8830  3.5581
  182SLPC   C1520740   2.787   5.681   2.317 -0.4350 -0.1284  0.0375
  182SLPC  H15A20741   2.808   5.597   2.380  2.1547  0.5240  0.1530
  182SLPC  H15B20742   2.839   5.774   2.334  1.1326 -0.1328 -3.6838
  182SLPC  H15C20743   2.684   5.700   2.343 -0.3001  2.0582 -0.8089
  182SLPC   C1220744   2.725   5.522   2.130 -0.1621  0.3850 -0.0999
  182SLPC  H12A20745   2.753   5.493   2.029  0.8539  0.5992  0.1121
  182SLPC  H12B20746   2.623   5.556   2.124  0.0860  1.6047  1.8707
  182SLPC   C1120747   2.740   5.395   2.224 -0.0864  0.7042 -1.0815
  182SLPC  H11A20748   2.847   5.407   2.253 -1.2247  3.0118  3.0619
  182SLPC  H11B20749   2.726   5.302   2.166 -1.3698 -0.6392  1.2567
  182SLPC     P20750   2.506   5.369   2.337  0.3095  0.2995  0.0311
  182SLPC   O1320751   2.435   5.496   2.300  0.2505  0.6373  0.3557
  182SLPC   O1420752   2.479   5.249   2.253 -0.5164  0.1520 -0.5150
  182SLPC   O1220753   2.659   5.398   2.341 -0.2908  0.8557  0.6492
  182SLPC   O1120754   2.482   5.344   2.492  0.2826 -0.1706  0.0066
  182SLPC    C120755   2.554   5.253   2.577  0.0963  0.7125 -0.0893
  182SLPC    HA20756   2.489   5.174   2.621  0.9923 -0.3509 -0.6366
  182SLPC    HB20757   2.629   5.191   2.523 -0.2695 -0.7079  0.9807
  182SLPC    C220758   2.617   5.320   2.697  0.3306  0.3597  0.1044
  182SLPC    HS20759   2.667   5.245   2.761  1.2786  0.7537 -0.1572
  182SLPC   O2120760   2.529   5.403   2.771 -0.0892 -0.2009  0.0365
  182SLPC   C2120761   2.446   5.330   2.838 -0.2850 -0.7421 -0.0034
  182SLPC   O2220762   2.442   5.208   2.839 -0.0895 -0.1333 -0.1150
  182SLPC   C2220763   2.343   5.407   2.920 -0.0327 -0.4867  0.5097
  182SLPC   H2R20764   2.289   5.473   2.849  0.0581 -0.2493  0.6569
  182SLPC   H2S20765   2.267   5.342   2.967 -0.3140 -0.5571 -0.0395
  182SLPC    C320766   2.732   5.405   2.638 -0.5896 -0.0647 -0.8168
  182SLPC    HX20767   2.693   5.496   2.589 -2.3688  0.8864  2.0819
  182SLPC    HY20768   2.768   5.345   2.552  2.5757 -0.6525  0.7591
  182SLPC   O3120769   2.845   5.413   2.728  0.3488  0.8563 -0.0284
  182SLPC   C3120770   2.828   5.519   2.805 -0.8589  0.5411 -0.4950
  182SLPC   O3220771   2.749   5.609   2.785 -0.1919  0.0964  0.0695
  182SLPC   C3220772   2.950   5.524   2.898 -0.0759 -0.5104  0.5183
  182SLPC   H2X20773   2.939   5.628   2.935  0.5097  0.5215 -2.0205
  182SLPC   H2Y20774   3.047   5.526   2.844 -0.3843 -1.0472 -0.0654
  182SLPC   C2320775   2.419   5.490   3.023 -0.6968  0.3388 -0.1116
  182SLPC   H3R20776   2.369   5.587   3.045 -1.5065 -0.0699 -0.1212
  182SLPC   H3S20777   2.513   5.526   2.976 -1.5082  0.6712 -1.5428
  182SLPC   C2420778   2.458   5.423   3.151 -0.2236 -0.1409 -0.1845
  182SLPC   H4R20779   2.493   5.496   3.227 -0.9751 -1.6222  1.6769
  182SLPC   H4S20780   2.541   5.351   3.132  0.7709  1.1292 -0.8038
  182SLPC   C2520781   2.348   5.344   3.225  0.4298  0.1820  0.4666
  182SLPC   H5R20782   2.327   5.256   3.160  0.1861 -0.1378  0.9641
  182SLPC   H5S20783   2.256   5.404   3.241  1.1009  1.6477 -0.9212
  182SLPC   C2620784   2.391   5.288   3.367  0.4725 -0.0794  0.4316
  182SLPC   H6R20785   2.484   5.228   3.353 -0.3118 -1.9239  2.4932
  182SLPC   H6S20786   2.316   5.209   3.390  0.6172 -0.2106  0.4590
  182SLPC   C2720787   2.390   5.385   3.480  0.7946  0.2248  0.1927
  182SLPC   H7R20788   2.313   5.466   3.475 -2.0155 -2.2698  0.3624
  182SLPC   H7S20789   2.489   5.435   3.480  0.6679  0.6369 -2.4473
  182SLPC   C2820790   2.374   5.319   3.624  0.2197 -0.2355 -0.5913
  182SLPC   H8R20791   2.275   5.268   3.617 -0.0103 -0.1203  1.3109
  182SLPC   H8S20792   2.356   5.391   3.706  0.2284 -1.8684  0.9036
  182SLPC   C2920793   2.473   5.209   3.665 -0.1381  0.3767 -0.0579
  182SLPC   H9R20794   2.533   5.157   3.589  1.6710 -0.5516  1.9203
  182SLPC  C21020795   2.494   5.162   3.791 -0.0162 -0.4433 -0.1401
  182SLPC  H10R20796   2.568   5.086   3.819 -0.6545  0.0922  3.4343
  182SLPC  C21120797   2.429   5.215   3.910 -0.6672  0.0295  0.5021
  182SLPC  H11R20798   2.351   5.150   3.955 -0.7306  1.2190  2.1939
  182SLPC  H11S20799   2.385   5.316   3.896  0.4107  0.5502  0.7450
  182SLPC  C21220800   2.535   5.224   4.011 -0.1437  0.0134 -0.0359
  182SLPC  H12R20801   2.577   5.325   4.019 -1.2481  0.8295 -3.1669
  182SLPC  C21320802   2.580   5.140   4.103  0.6893 -0.3190  0.1119
  182SLPC  H13R20803   2.668   5.161   4.165 -0.7080  2.0802  1.4523
  182SLPC  C21420804   2.523   5.004   4.122  0.6445  0.3073  0.1765
  182SLPC  H14R20805   2.417   5.014   4.156  0.0864 -1.1814 -1.0086
  182SLPC  H14S20806   2.571   4.966   4.215  0.3693  1.0793  0.6516
  182SLPC  C21520807   2.540   4.896   4.015 -0.1198  0.3223 -0.0642
  182SLPC  H15R20808   2.493   4.919   3.917  0.8388  3.4221  0.1030
  182SLPC  H15S20809   2.479   4.807   4.043  1.8170 -1.5992 -1.6187
  182SLPC  C21620810   2.682   4.864   3.975  0.7713 -0.2124  0.4121
  182SLPC  H16R20811   2.730   4.953   3.929 -0.9201  0.3834 -0.2737
  182SLPC  H16S20812   2.691   4.788   3.894 -0.1726  0.6847 -0.5781
  182SLPC  C21720813   2.762   4.806   4.094  0.3762 -0.0744 -0.9235
  182SLPC  H17R20814   2.698   4.759   4.172  0.0663  1.5887 -0.1395
  182SLPC  H17S20815   2.802   4.899   4.141 -2.1180  0.9925 -0.7519
  182SLPC  C21820816   2.885   4.719   4.061 -0.6044  1.4339  0.1824
  182SLPC  H18R20817   2.906   4.657   4.151 -1.2929  1.3470  0.2867
  182SLPC  H18S20818   2.976   4.772   4.027 -0.5630  0.8652 -0.6329
  182SLPC  H18T20819   2.859   4.644   3.983  1.1111 -0.1193  1.0018
  182SLPC   C3320820   2.946   5.422   3.016  0.2326  0.4093 -0.3158
  182SLPC   H3X20821   2.894   5.328   2.990  1.7990  0.0661 -2.5481
  182SLPC   H3Y20822   2.891   5.468   3.101  0.0712 -0.3628 -0.0013
  182SLPC   C3420823   3.083   5.390   3.071 -0.2715  0.3117 -0.6314
  182SLPC   H4X20824   3.114   5.474   3.136 -0.6383  0.7529 -1.0105
  182SLPC   H4Y20825   3.159   5.376   2.990  1.2338  2.4631  0.3192
  182SLPC   C3520826   3.092   5.259   3.153 -0.2588  0.1620  0.4059
  182SLPC   H5X20827   3.186   5.233   3.207 -1.9450  1.2527  4.1665
  182SLPC   H5Y20828   3.074   5.179   3.077 -2.0374 -0.6142  1.5714
  182SLPC   C3620829   2.970   5.241   3.246 -0.2472  0.1657  0.4132
  182SLPC   H6X20830   2.982   5.139   3.289 -0.5285 -1.0985 -2.2876
  182SLPC   H6Y20831   2.874   5.243   3.190 -0.7350  0.7423  1.2500
  182SLPC   C3720832   2.955   5.336   3.367 -0.2917  0.3825  0.1630
  182SLPC   H7X20833   2.927   5.437   3.329  2.1410  0.3363 -2.0261
  182SLPC   H7Y20834   3.061   5.345   3.398 -0.2311  0.1512  0.0253
  182SLPC   C3820835   2.876   5.269   3.484 -0.4353 -0.0525 -0.7224
  182SLPC   H8X20836   2.876   5.159   3.475 -0.3921  0.0059 -1.4753
  182SLPC   H8Y20837   2.772   5.308   3.479 -0.2668  0.7637  1.0684
  182SLPC   C3920838   2.929   5.310   3.620 -0.0137  0.3016 -0.4549
  182SLPC   H9X20839   2.886   5.409   3.645  1.9980  1.0283  0.3571
  182SLPC   H9Y20840   3.039   5.327   3.618  0.2982 -1.2977  0.7912
  182SLPC  C31020841   2.896   5.210   3.729 -0.2267 -0.9057  0.0957
  182SLPC  H10X20842   2.912   5.103   3.704 -2.9891 -1.5913  0.9034
  182SLPC  H10Y20843   2.795   5.231   3.770  0.7631  0.5050  1.9737
  182SLPC  C31120844   2.990   5.238   3.849 -0.4683  0.1929  0.5576
  182SLPC  H11X20845   2.989   5.348   3.866  2.3991  0.9535 -3.1261
  182SLPC  H11Y20846   3.098   5.218   3.832 -0.2726  2.4826 -1.2211
  182SLPC  C31220847   2.962   5.155   3.976  0.5670  0.0204  0.7499
  182SLPC  H12X20848   2.961   5.047   3.947 -3.1523  0.5374 -1.7025
  182SLPC  H12Y20849   2.858   5.178   4.009  1.0691  0.7998  1.8353
  182SLPC  C31320850   3.049   5.172   4.094  0.2800 -0.6159 -0.0420
  182SLPC  H13X20851   3.005   5.120   4.181 -2.5873 -1.6030 -1.9645
  182SLPC  H13Y20852   3.035   5.278   4.124 -0.0947  0.2110 -2.7817
  182SLPC  C31420853   3.196   5.131   4.091 -0.3136  0.8990  0.0510
  182SLPC  H14X20854   3.261   5.179   4.014  1.2265  0.3726  0.9630
  182SLPC  H14Y20855   3.194   5.020   4.083  2.5623  0.7910 -0.2316
  182SLPC  C31520856   3.264   5.156   4.226  0.0951  0.3385 -0.6677
  182SLPC  H15X20857   3.367   5.115   4.221 -0.6820 -1.5517 -2.4647
  182SLPC  H15Y20858   3.220   5.098   4.310 -1.1721  1.6251 -0.4153
  182SLPC  C31620859   3.272   5.299   4.270  0.0113 -0.3493 -0.4149
  182SLPC  H16X20860   3.171   5.339   4.294 -0.1468 -2.3298  2.8056
  182SLPC  H16Y20861   3.330   5.356   4.195 -0.3214 -0.3708 -0.6948
  182SLPC  C31720862   3.350   5.322   4.398 -0.0782  0.1800  0.3635
  182SLPC  H17X20863   3.337   5.239   4.471  1.0591  0.0859  0.4888
  182SLPC  H17Y20864   3.328   5.419   4.448  0.7378  0.6642 -0.1810
  182SLPC  C31820865   3.504   5.327   4.385  0.4418 -0.0733 -0.1947
  182SLPC  H18X20866   3.546   5.246   4.320  2.0822  0.5503  0.0234
  182SLPC  H18Y20867   3.547   5.323   4.487 -2.4878  0.5508  1.1505
  182SLPC  H18Z20868   3.532   5.418   4.328 -2.4485  2.1766  1.7677
  183SLPC     N20869   4.029   0.748   1.922 -0.5366 -0.0365  0.2240
  183SLPC   C1320870   3.915   0.756   1.829  0.0039 -0.6520 -0.5504
  183SLPC  H13A20871   3.928   0.698   1.739  2.5227 -0.2721 -0.4856
  183SLPC  H13B20872   3.830   0.707   1.874  0.2173 -0.5587 -0.0423
  183SLPC  H13C20873   3.889   0.859   1.805  0.0190 -0.6853 -0.7126
  183SLPC   C1420874   4.137   0.838   1.859  0.4524  0.8187  0.2383
  183SLPC  H14A20875   4.184   0.784   1.778  0.4427  1.4345 -0.1824
  183SLPC  H14B20876   4.098   0.935   1.831 -0.5266 -0.0077 -1.4418
  183SLPC  H14C20877   4.216   0.845   1.932  0.9693  2.9126 -0.4461
  183SLPC   C1520878   4.086   0.610   1.930 -0.1738 -0.1557  0.7796
  183SLPC  H15A20879   4.146   0.596   1.842 -0.6257 -0.9113  0.5841
  183SLPC  H15B20880   4.151   0.603   2.016 -0.1929  0.7241  0.8725
  183SLPC  H15C20881   4.006   0.537   1.938  1.2525 -1.5962  3.1727
  183SLPC   C1220882   4.000   0.802   2.060  0.1290  0.5678 -0.5191
  183SLPC  H12A20883   3.926   0.747   2.116 -1.1772  1.6122 -1.1653
  183SLPC  H12B20884   3.966   0.904   2.051  1.5000  0.9228 -2.1943
  183SLPC   C1120885   4.118   0.830   2.155  0.2406  0.1224 -0.4402
  183SLPC  H11A20886   4.167   0.730   2.165 -0.1030  0.0008  0.0403
  183SLPC  H11B20887   4.081   0.850   2.257  0.5406 -1.1772 -0.0563
  183SLPC     P20888   4.354   0.921   2.183 -0.0762 -0.1856  0.4786
  183SLPC   O1320889   4.424   0.843   2.084  0.2541  0.0695 -0.1853
  183SLPC   O1420890   4.405   1.059   2.220  0.4153  0.1462 -0.4909
  183SLPC   O1220891   4.206   0.932   2.120 -0.1359 -0.9026 -0.3761
  183SLPC   O1120892   4.347   0.831   2.310  0.5585  0.9858  0.2228
  183SLPC    C120893   4.319   0.905   2.435  0.1905  0.0774  0.3514
  183SLPC    HA20894   4.409   0.956   2.476 -0.2762  1.1633  0.0474
  183SLPC    HB20895   4.238   0.980   2.419 -1.6270 -1.2160  2.6626
  183SLPC    C220896   4.268   0.809   2.555  0.3920 -0.5176 -0.0290
  183SLPC    HS20897   4.169   0.850   2.586  0.6537  0.1907 -0.1235
  183SLPC   O2120898   4.353   0.803   2.676  0.1629  0.3620  0.3564
  183SLPC   C2120899   4.281   0.795   2.786  0.8216  0.5816  0.5501
  183SLPC   O2220900   4.160   0.781   2.795  0.2963  0.3774 -0.2441
  183SLPC   C2220901   4.368   0.810   2.904  0.6841 -0.7155 -0.0615
  183SLPC   H2R20902   4.405   0.706   2.920 -1.5189 -1.1870  2.8054
  183SLPC   H2S20903   4.449   0.884   2.887 -0.8753  1.0834  0.1438
  183SLPC    C320904   4.253   0.656   2.494  0.3894  0.1865  0.5220
  183SLPC    HX20905   4.344   0.640   2.431 -0.0724  2.4842 -0.8281
  183SLPC    HY20906   4.161   0.664   2.432 -0.2800 -3.1165  0.9104
  183SLPC   O3120907   4.239   0.559   2.595 -0.3943 -0.0443  0.2168
  183SLPC   C3120908   4.356   0.508   2.640  0.2403 -0.0253 -0.5572
  183SLPC   O3220909   4.467   0.545   2.609  0.5314 -0.5270 -0.5469
  183SLPC   C3220910   4.321   0.397   2.746  0.3337 -0.1374  0.3925
  183SLPC   H2X20911   4.301   0.302   2.693  1.5543  0.0883 -0.5195
  183SLPC   H2Y20912   4.238   0.437   2.808  0.7234  3.5157 -1.1861
  183SLPC   C2320913   4.297   0.843   3.046  0.0127  0.0536 -0.0915
  183SLPC   H3R20914   4.217   0.766   3.052  0.8156 -0.9260 -1.3777
  183SLPC   H3S20915   4.256   0.945   3.032  0.9866  0.3487 -0.8991
  183SLPC   C2420916   4.392   0.825   3.163  0.5111  0.2130  0.2331
  183SLPC   H4R20917   4.481   0.889   3.145  0.9114 -0.2278  0.6051
  183SLPC   H4S20918   4.448   0.729   3.171  0.3652  0.0006 -1.1464
  183SLPC   C2520919   4.331   0.861   3.299  0.0019  0.5301 -0.1543
  183SLPC   H5R20920   4.284   0.764   3.329  2.1178 -0.1239  1.2894
  183SLPC   H5S20921   4.257   0.939   3.274 -1.6916 -0.1351  2.3357
  183SLPC   C2620922   4.432   0.908   3.404 -0.2189  0.2390 -0.3116
  183SLPC   H6R20923   4.480   0.998   3.360  0.5409  0.7364  1.4334
  183SLPC   H6S20924   4.519   0.840   3.416 -0.0328  0.8421  2.4528
  183SLPC   C2720925   4.372   0.909   3.553  0.1410  0.1358 -0.0900
  183SLPC   H7R20926   4.454   0.933   3.624 -0.0635  1.1369 -0.1826
  183SLPC   H7S20927   4.321   0.813   3.576  1.3872 -0.3895  0.5130
  183SLPC   C2820928   4.265   1.018   3.566  0.5444 -0.0776  0.4432
  183SLPC   H8R20929   4.168   0.996   3.517  0.2497  1.3259  0.3583
  183SLPC   H8S20930   4.310   1.116   3.537 -1.4019  1.0543  1.0505
  183SLPC   C2920931   4.230   1.027   3.706  0.6510 -0.2186  0.1738
  183SLPC   H9R20932   4.181   0.933   3.734 -1.2199  0.8295  0.6414
  183SLPC  C21020933   4.258   1.119   3.802 -0.6350 -0.4898  0.2365
  183SLPC  H10R20934   4.219   1.110   3.904  2.0331 -2.1282  1.2110
  183SLPC  C21120935   4.349   1.240   3.784 -0.2481  0.1408 -1.0864
  183SLPC  H11R20936   4.374   1.257   3.678 -1.5945 -0.4790 -1.5347
  183SLPC  H11S20937   4.443   1.228   3.842 -1.9492 -3.7189  1.2797
  183SLPC  C21220938   4.272   1.356   3.842  0.3006  0.6802  0.3070
  183SLPC  H12R20939   4.186   1.391   3.782  0.9791  2.5980  0.3812
  183SLPC  C21320940   4.296   1.424   3.959  0.1114  0.1558  1.0370
  183SLPC  H13R20941   4.232   1.511   3.979  0.0723  0.2478  0.5270
  183SLPC  C21420942   4.406   1.418   4.058  0.0310 -0.0942 -0.3404
  183SLPC  H14R20943   4.484   1.482   4.011  0.0224 -0.1988 -0.4965
  183SLPC  H14S20944   4.453   1.318   4.066 -0.1629 -0.1694 -0.1402
  183SLPC  C21520945   4.390   1.486   4.189 -0.0961 -0.2119  0.2573
  183SLPC  H15R20946   4.358   1.591   4.172 -0.6218 -0.2097  1.1896
  183SLPC  H15S20947   4.492   1.495   4.232  0.3587  1.9829 -1.1080
  183SLPC  C21620948   4.299   1.413   4.290 -0.7685 -0.4816 -0.9104
  183SLPC  H16R20949   4.341   1.310   4.300 -1.4623 -0.7662 -0.9198
  183SLPC  H16S20950   4.198   1.410   4.244 -1.2297 -0.0128  0.0502
  183SLPC  C21720951   4.271   1.481   4.428  0.3901  0.0941 -0.0570
  183SLPC  H17R20952   4.365   1.514   4.477 -0.9486  1.1812  1.8954
  183SLPC  H17S20953   4.223   1.408   4.496 -0.7888  0.4604 -0.4792
  183SLPC  C21820954   4.171   1.594   4.415  0.7154  0.4743 -0.3946
  183SLPC  H18R20955   4.082   1.556   4.361 -0.5522  1.6957  0.7314
  183SLPC  H18S20956   4.206   1.685   4.362  0.1345  0.5453 -0.6637
  183SLPC  H18T20957   4.124   1.615   4.514 -0.0751 -1.3029 -0.3520
  183SLPC   C3320958   4.445   0.373   2.830 -0.4848 -0.8589  0.6292
  183SLPC   H3X20959   4.482   0.474   2.860 -0.2450 -0.6570 -0.3153
  183SLPC   H3Y20960   4.526   0.317   2.780  1.8195  0.3059  2.8136
  183SLPC   C3420961   4.431   0.312   2.970 -0.3572 -0.1230  0.4703
  183SLPC   H4X20962   4.534   0.277   2.992  0.7722 -0.1379 -3.8500
  183SLPC   H4Y20963   4.360   0.226   2.964  1.8351 -1.9528 -3.1474
  183SLPC   C3520964   4.366   0.410   3.073  0.0818  0.6673 -0.4595
  183SLPC   H5X20965   4.262   0.426   3.038  0.0588  2.2310  0.2230
  183SLPC   H5Y20966   4.417   0.509   3.064  1.4519  0.0354  0.0537
  183SLPC   C3620967   4.382   0.354   3.217  1.0833  0.0519  0.9676
  183SLPC   H6X20968   4.490   0.331   3.230  1.3557  0.6210 -0.1637
  183SLPC   H6Y20969   4.330   0.257   3.231  1.2721 -0.1401  0.3653
  183SLPC   C3720970   4.345   0.449   3.331 -0.6242 -0.1329 -0.3333
  183SLPC   H7X20971   4.238   0.476   3.322 -0.8082 -0.4727  0.7371
  183SLPC   H7Y20972   4.402   0.542   3.309 -0.7615 -0.2904 -1.4083
  183SLPC   C3820973   4.372   0.399   3.471 -0.1268 -0.1507  0.2666
  183SLPC   H8X20974   4.476   0.360   3.478 -0.7436 -2.2343 -1.2303
  183SLPC   H8Y20975   4.299   0.316   3.483 -0.0833 -1.1772 -4.4395
  183SLPC   C3920976   4.335   0.498   3.588  0.5216 -0.4049 -0.6195
  183SLPC   H9X20977   4.226   0.516   3.596  0.6322 -0.5401  4.1880
  183SLPC   H9Y20978   4.377   0.594   3.553  1.7812 -1.0389 -0.8987
  183SLPC  C31020979   4.376   0.461   3.735  0.3221  0.6974 -0.3200
  183SLPC  H10X20980   4.485   0.438   3.736  0.6543  2.1435  0.8811
  183SLPC  H10Y20981   4.317   0.373   3.768 -0.8287  0.0382 -3.7658
  183SLPC  C31120982   4.352   0.580   3.834 -0.6620  0.0682 -0.4789
  183SLPC  H11X20983   4.357   0.537   3.936  1.5484 -0.0164 -0.5813
  183SLPC  H11Y20984   4.255   0.633   3.823 -0.2040  1.6579  2.3285
  183SLPC  C31220985   4.461   0.683   3.814  0.6244 -0.0092  0.5579
  183SLPC  H12X20986   4.448   0.738   3.718 -0.6484 -1.7176 -0.2938
  183SLPC  H12Y20987   4.550   0.625   3.784 -1.3401 -2.1057 -1.6659
  183SLPC  C31320988   4.473   0.780   3.937 -0.0796  0.5101  0.4322
  183SLPC  H13X20989   4.490   0.725   4.032  0.7082 -0.3751 -0.1880
  183SLPC  H13Y20990   4.374   0.827   3.953 -0.9293 -1.0442 -0.0373
  183SLPC  C31420991   4.579   0.888   3.909 -0.6613 -0.8972 -0.0996
  183SLPC  H14X20992   4.566   0.932   3.807 -1.4838  2.8089  1.4438
  183SLPC  H14Y20993   4.683   0.851   3.917  0.7863  2.6575 -0.6509
  183SLPC  C31520994   4.555   1.004   4.008  0.1150  0.6003 -0.1244
  183SLPC  H15X20995   4.446   1.024   4.002  0.0054 -0.1743 -0.8329
  183SLPC  H15Y20996   4.598   1.098   3.967  1.5263 -0.1436 -0.4114
  183SLPC  C31620997   4.603   0.979   4.151 -0.2459 -0.6667  0.7347
  183SLPC  H16X20998   4.711   0.957   4.142  0.3333  0.2078  4.1488
  183SLPC  H16Y20999   4.557   0.885   4.188 -3.6091  0.1706 -0.9150
  183SLPC  C31721000   4.588   1.101   4.241 -0.4775 -0.5011  0.1408
  183SLPC  H17X21001   4.491   1.144   4.210  0.3817  0.9854 -0.6031
  183SLPC  H17Y21002   4.667   1.178   4.228  2.1215 -2.6929  1.7746
  183SLPC  C31821003   4.593   1.079   4.394  0.7417  0.2759 -0.0607
  183SLPC  H18X21004   4.546   0.985   4.429  2.0046  0.4903  2.3751
  183SLPC  H18Y21005   4.537   1.164   4.439  0.7115  0.4783 -0.4751
  183SLPC  H18Z21006   4.701   1.070   4.418  1.2356  1.5491 -1.6197
  184SLPC     N21007   4.637   3.126   2.156  0.1110  0.4908 -0.4035
  184SLPC   C1321008   4.603   3.034   2.039  0.2887 -0.2268  0.0678
  184SLPC  H13A21009   4.698   2.994   2.009  1.1979  2.3251 -0.7012
  184SLPC  H13B21010   4.522   2.962   2.035 -0.5981  0.7780 -3.0116
  184SLPC  H13C21011   4.578   3.100   1.958 -0.1099  0.0418  0.4038
  184SLPC   C1421012   4.685   3.260   2.109 -0.4888  0.5227  0.1250
  184SLPC  H14A21013   4.706   3.319   2.197  1.4128 -1.1363  0.8698
  184SLPC  H14B21014   4.766   3.260   2.037  1.3195  0.4802  2.0467
  184SLPC  H14C21015   4.596   3.310   2.075 -0.6684  0.2598  0.2074
  184SLPC   C1521016   4.752   3.057   2.230 -0.2160 -0.0411 -0.0966
  184SLPC  H15A21017   4.732   2.954   2.253 -1.8795  0.4563  0.8670
  184SLPC  H15B21018   4.840   3.048   2.167  1.1379 -1.6620  1.9027
  184SLPC  H15C21019   4.765   3.110   2.323 -2.2599 -0.3203  0.3958
  184SLPC   C1221020   4.513   3.142   2.253  0.1810  0.5682  0.3813
  184SLPC  H12A21021   4.427   3.186   2.204 -1.6554 -2.4219  0.6343
  184SLPC  H12B21022   4.533   3.212   2.332  0.1774  1.1467 -0.1194
  184SLPC   C1121023   4.454   3.013   2.313 -0.3144 -0.3126 -0.0218
  184SLPC  H11A21024   4.378   3.041   2.389  0.6479  0.4564  0.6703
  184SLPC  H11B21025   4.537   2.951   2.352 -3.1053 -3.9003  0.8025
  184SLPC     P21026   4.257   2.941   2.153  0.0051 -0.1834 -0.0667
  184SLPC   O1321027   4.203   3.079   2.159  0.0890 -0.0471 -0.0996
  184SLPC   O1421028   4.266   2.875   2.022  0.1551  0.0092  0.1458
  184SLPC   O1221029   4.401   2.935   2.206 -0.3160 -0.0921  0.4831
  184SLPC   O1121030   4.182   2.845   2.255 -0.2319  0.2619 -0.2517
  184SLPC    C121031   4.195   2.709   2.256 -0.6750  0.5797 -0.1411
  184SLPC    HA21032   4.100   2.659   2.227  0.1323 -1.4128  0.4864
  184SLPC    HB21033   4.261   2.673   2.174 -0.7926 -2.0271  0.8340
  184SLPC    C221034   4.234   2.635   2.383 -0.3017  0.1825 -0.2320
  184SLPC    HS21035   4.247   2.529   2.352 -0.1569  0.2856 -0.5228
  184SLPC   O2121036   4.129   2.650   2.474 -0.5374 -0.5996  0.2244
  184SLPC   C2121037   4.029   2.564   2.476  0.2223 -0.3049 -0.5359
  184SLPC   O2221038   4.021   2.464   2.404 -0.2145 -0.3497 -0.0588
  184SLPC   C2221039   3.922   2.588   2.586  0.3633 -0.0852  0.5002
  184SLPC   H2R21040   3.915   2.696   2.609 -0.8005  0.0269 -0.2521
  184SLPC   H2S21041   3.824   2.554   2.545  1.7666 -2.3815 -1.1811
  184SLPC    C321042   4.364   2.692   2.443 -0.1656  0.6539 -0.4340
  184SLPC    HX21043   4.335   2.795   2.472 -1.0323  0.0483  0.9325
  184SLPC    HY21044   4.440   2.695   2.362  0.4290 -0.5303  0.0515
  184SLPC   O3121045   4.405   2.608   2.555  0.2535 -0.1586  1.3351
  184SLPC   C3121046   4.422   2.667   2.673  0.0065  0.4874 -0.0970
  184SLPC   O3221047   4.425   2.785   2.689  0.3651 -0.1835  0.6578
  184SLPC   C3221048   4.478   2.561   2.771  0.7218 -0.2239 -0.2992
  184SLPC   H2X21049   4.585   2.586   2.783  0.3650  1.2071  0.1250
  184SLPC   H2Y21050   4.475   2.462   2.722 -2.8442 -0.3466 -0.1156
  184SLPC   C2321051   3.970   2.516   2.709 -0.3756 -0.5498  0.2913
  184SLPC   H3R21052   4.078   2.540   2.722 -0.7140  1.8618 -0.8592
  184SLPC   H3S21053   3.962   2.406   2.694 -2.2711 -0.1700 -1.9545
  184SLPC   C2421054   3.889   2.549   2.833  0.0412  1.0166 -0.0286
  184SLPC   H4R21055   3.785   2.511   2.829 -0.1590  1.4402  1.0343
  184SLPC   H4S21056   3.880   2.657   2.857 -1.9221  0.7250  0.7152
  184SLPC   C2521057   3.950   2.483   2.960 -0.4486 -0.4561  0.2073
  184SLPC   H5R21058   4.058   2.509   2.960 -0.8075  1.1938  1.4287
  184SLPC   H5S21059   3.942   2.373   2.952  2.6224 -0.6640 -1.3071
  184SLPC   C2621060   3.894   2.540   3.085 -0.1790  0.7692 -0.8668
  184SLPC   H6R21061   3.786   2.566   3.074 -1.0578 -1.4324  1.5101
  184SLPC   H6S21062   3.941   2.636   3.116  0.6658 -0.3234  1.4402
  184SLPC   C2721063   3.905   2.455   3.211 -0.4419  0.2862 -0.4633
  184SLPC   H7R21064   4.005   2.407   3.205 -0.9163 -1.0016  1.1689
  184SLPC   H7S21065   3.833   2.371   3.213 -1.2413  0.9667 -0.1405
  184SLPC   C2821066   3.876   2.525   3.341  0.2152  0.1347  0.1983
  184SLPC   H8R21067   3.770   2.559   3.348  0.2105 -0.0068  0.9965
  184SLPC   H8S21068   3.929   2.623   3.339 -0.0639  0.2962  0.5337
  184SLPC   C2921069   3.906   2.452   3.461 -0.3654  0.2487 -0.0860
  184SLPC   H9R21070   3.986   2.378   3.450  0.7649  1.1199  1.7530
  184SLPC  C21021071   3.854   2.473   3.591  0.1012 -0.4073 -0.4629
  184SLPC  H10R21072   3.899   2.409   3.669 -0.9543 -0.5950  0.0074
  184SLPC  C21121073   3.745   2.568   3.642 -0.0468  0.3635 -0.4790
  184SLPC  H11R21074   3.681   2.501   3.703  0.3086  1.0393  0.6667
  184SLPC  H11S21075   3.683   2.601   3.555  0.7170 -0.2670 -1.2910
  184SLPC  C21221076   3.790   2.691   3.717  0.0965  0.1696 -0.0087
  184SLPC  H12R21077   3.848   2.765   3.660 -0.5772  1.5891  1.0689
  184SLPC  C21321078   3.772   2.706   3.851 -0.1266 -0.0344 -0.2349
  184SLPC  H13R21079   3.791   2.803   3.899  0.3262 -0.9021  1.4185
  184SLPC  C21421080   3.698   2.607   3.935  0.4582  0.1501 -0.0844
  184SLPC  H14R21081   3.750   2.511   3.914  1.4496  0.6721 -0.0771
  184SLPC  H14S21082   3.591   2.596   3.906  0.7105  0.3615 -1.1232
  184SLPC  C21521083   3.708   2.630   4.089 -0.2287 -0.5455  0.4646
  184SLPC  H15R21084   3.637   2.712   4.115 -0.8611 -0.8548 -0.2339
  184SLPC  H15S21085   3.807   2.667   4.122 -0.6516 -1.2753  2.7562
  184SLPC  C21621086   3.669   2.502   4.161  0.1340 -0.3093  0.0303
  184SLPC  H16R21087   3.717   2.413   4.114  0.5604  1.1319 -2.4309
  184SLPC  H16S21088   3.560   2.484   4.150  0.5799 -2.6937 -1.3743
  184SLPC  C21721089   3.714   2.523   4.299  0.5612 -0.8347 -0.4202
  184SLPC  H17R21090   3.653   2.608   4.336  0.3364 -1.3575  0.4381
  184SLPC  H17S21091   3.820   2.556   4.294  0.7767 -1.1372  1.3204
  184SLPC  C21821092   3.683   2.416   4.411 -0.6634 -0.5594  0.6748
  184SLPC  H18R21093   3.747   2.332   4.379  0.4958  0.3423  0.5912
  184SLPC  H18S21094   3.576   2.384   4.404 -1.4848  1.9629  0.5996
  184SLPC  H18T21095   3.712   2.449   4.513 -0.7321  2.4311 -0.1687
  184SLPC   C3321096   4.405   2.565   2.907 -0.2126 -0.3903  0.1632
  184SLPC   H3X21097   4.304   2.521   2.895 -0.9749  1.8264 -2.8958
  184SLPC   H3Y21098   4.385   2.670   2.937 -0.0153 -0.2640 -0.1328
  184SLPC   C3421099   4.492   2.504   3.016 -0.3493  0.2010 -0.0412
  184SLPC   H4X21100   4.593   2.549   3.002 -0.1477 -0.1813  0.1917
  184SLPC   H4Y21101   4.505   2.394   3.003 -0.9038  0.2877 -1.5945
  184SLPC   C3521102   4.456   2.554   3.159  0.9477  0.2485 -0.3421
  184SLPC   H5X21103   4.404   2.652   3.157  0.0159 -0.2165  0.3664
  184SLPC   H5Y21104   4.549   2.551   3.219  1.1311  4.2178 -0.2129
  184SLPC   C3621105   4.351   2.462   3.234 -0.1238  0.4520 -0.6124
  184SLPC   H6X21106   4.389   2.358   3.242  0.8686  0.8708  0.3877
  184SLPC   H6Y21107   4.266   2.459   3.162  0.7196 -0.4763 -1.5952
  184SLPC   C3721108   4.302   2.504   3.370  0.4893  0.5428  0.0803
  184SLPC   H7X21109   4.261   2.408   3.407  0.0520  0.9512  0.6670
  184SLPC   H7Y21110   4.210   2.566   3.365 -1.7279 -2.6129 -3.0262
  184SLPC   C3821111   4.396   2.564   3.477 -0.3670  0.3548  0.0673
  184SLPC   H8X21112   4.428   2.661   3.433 -0.4834 -0.2097 -1.3046
  184SLPC   H8Y21113   4.480   2.492   3.480  0.8139  1.7041  1.1942
  184SLPC   C3921114   4.319   2.588   3.608  0.0609  0.1961  0.2807
  184SLPC   H9X21115   4.291   2.484   3.633  0.4979 -0.2991 -1.1557
  184SLPC   H9Y21116   4.228   2.650   3.595  0.6916  1.3703  1.2595
  184SLPC  C31021117   4.411   2.650   3.719  0.5846 -0.3900  0.2332
  184SLPC  H10X21118   4.421   2.760   3.705  0.0897 -0.3810 -0.0755
  184SLPC  H10Y21119   4.515   2.614   3.726  1.5097  2.1629  0.8496
  184SLPC  C31121120   4.336   2.643   3.859 -0.5534  0.4269  0.5772
  184SLPC  H11X21121   4.357   2.538   3.890 -0.0225  0.7050  1.1927
  184SLPC  H11Y21122   4.227   2.660   3.848 -0.5881  0.0047  0.2538
  184SLPC  C31221123   4.405   2.735   3.964 -0.1863 -0.1907  0.5544
  184SLPC  H12X21124   4.413   2.835   3.916 -1.4759  0.8219  2.3378
  184SLPC  H12Y21125   4.505   2.688   3.975 -0.2810 -0.5147  0.0883
  184SLPC  C31321126   4.333   2.755   4.099 -0.1372  0.3049 -0.4665
  184SLPC  H13X21127   4.411   2.783   4.173  1.1437  0.2378 -1.7443
  184SLPC  H13Y21128   4.300   2.654   4.132  1.7548 -1.3224 -3.0982
  184SLPC  C31421129   4.212   2.856   4.095 -0.6610 -0.3590 -0.4618
  184SLPC  H14X21130   4.132   2.817   4.028 -1.8288  1.5893 -0.2744
  184SLPC  H14Y21131   4.253   2.950   4.052  0.8967 -0.4528  0.7229
  184SLPC  C31521132   4.159   2.887   4.241  0.5848 -0.3747  0.6608
  184SLPC  H15X21133   4.222   2.967   4.285  0.7741  0.4149 -0.9704
  184SLPC  H15Y21134   4.183   2.792   4.294 -2.1597 -1.7988 -0.4336
  184SLPC  C31621135   4.012   2.916   4.248  0.3970  0.3938  0.2176
  184SLPC  H16X21136   3.970   2.855   4.165  0.3342  0.1517  0.4276
  184SLPC  H16Y21137   3.995   3.024   4.229  1.4896  0.3519 -1.2607
  184SLPC  C31721138   3.942   2.876   4.377 -0.1357 -0.5494  0.5800
  184SLPC  H17X21139   3.989   2.949   4.446  0.3000  0.7857 -1.0456
  184SLPC  H17Y21140   3.974   2.775   4.410 -1.3878 -0.7693  1.1822
  184SLPC  C31821141   3.794   2.882   4.366  0.2551 -0.2003  0.1669
  184SLPC  H18X21142   3.760   2.988   4.370 -0.7723 -0.5401  1.0252
  184SLPC  H18Y21143   3.755   2.816   4.446  0.0840  0.6882  0.8259
  184SLPC  H18Z21144   3.745   2.827   4.282 -0.5744 -0.3586  0.7387
  185POPC     N21145   6.467   3.610   6.953 -0.3783 -0.1729 -0.6027
  185POPC   C1221146   6.525   3.607   6.817  0.1591 -0.3798  0.1745
  185POPC  H12A21147   6.491   3.686   6.753 -1.0366 -0.2876  0.8902
  185POPC  H12B21148   6.474   3.524   6.770 -2.2009  0.3757  1.2471
  185POPC   C1321149   6.491   3.484   7.032 -0.2280 -0.2344 -0.2629
  185POPC  H13A21150   6.438   3.398   6.993 -2.3468  0.9829 -0.2496
  185POPC  H13B21151   6.594   3.466   7.057 -0.4390 -1.9057 -0.4865
  185POPC  H13C21152   6.452   3.504   7.131 -1.1215 -0.0425 -0.6377
  185POPC   C1421153   6.528   3.715   7.030 -0.6010 -0.3821 -0.5456
  185POPC  H14A21154   6.632   3.684   7.027 -0.7735 -1.1150  0.5165
  185POPC  H14B21155   6.522   3.808   6.977 -1.3689 -0.4565 -0.6000
  185POPC  H14C21156   6.505   3.723   7.136  2.9200 -1.3109  0.4466
  185POPC   C1521157   6.320   3.635   6.941 -0.1077 -1.0037 -0.0474
  185POPC  H15A21158   6.265   3.648   7.033 -2.7272 -0.8789 -1.5208
  185POPC  H15B21159   6.282   3.556   6.878  0.1140 -0.1216 -1.3144
  185POPC  H15C21160   6.317   3.729   6.889  1.3861  0.8611  2.9617
  185POPC   C1121161   6.682   3.589   6.806  0.3762  0.3931  1.0755
  185POPC  H11A21162   6.708   3.556   6.703 -1.1727  2.8488 -0.1998
  185POPC  H11B21163   6.714   3.513   6.881  1.2333  0.6239  0.9580
  185POPC     P21164   6.773   3.820   6.733 -0.1193  0.1605  0.2223
  185POPC   O1321165   6.717   3.942   6.798  0.0115  0.5139  0.2385
  185POPC   O1421166   6.710   3.782   6.604 -0.2181 -0.0783 -0.2351
  185POPC   O1221167   6.752   3.704   6.836 -0.0721 -0.5110  0.1151
  185POPC   O1121168   6.925   3.831   6.724 -0.1976  0.7768  0.1487
  185POPC    C121169   7.037   3.737   6.715  0.3378 -0.5720  0.6245
  185POPC    HA21170   7.001   3.637   6.749  1.2897 -0.4720  2.0076
  185POPC    HB21171   7.117   3.776   6.782  1.6900 -1.7736 -0.2399
  185POPC    C221172   7.085   3.722   6.569  0.0892 -0.0346  0.0222
  185POPC    HS21173   7.192   3.696   6.564 -0.4667 -2.3319 -3.6876
  185POPC   O2121174   7.040   3.832   6.492  0.0158 -0.1484  0.6062
  185POPC   C2121175   7.135   3.919   6.479  0.2202 -0.3596 -0.0902
  185POPC   O2221176   7.255   3.900   6.493 -0.1642 -0.1999 -0.6968
  185POPC   C2221177   7.083   4.057   6.439 -0.2908  0.0531 -0.1859
  185POPC   H2R21178   7.161   4.132   6.417 -1.8136  1.5416 -0.6816
  185POPC   H2S21179   7.029   4.111   6.519  0.4877  0.9971 -0.2791
  185POPC    C321180   7.022   3.598   6.504  0.0854 -0.4392 -0.0705
  185POPC    HX21181   6.912   3.619   6.504 -0.3110 -2.2291 -1.5745
  185POPC    HY21182   7.055   3.507   6.559  0.3639  0.9958  2.2843
  185POPC   O3121183   7.069   3.587   6.371  0.2392  0.0059 -0.2102
  185POPC   C3121184   7.033   3.468   6.319 -0.3742  0.0417 -0.8914
  185POPC   O3221185   6.975   3.380   6.383  0.2142  0.0133 -0.2476
  185POPC   C3221186   7.093   3.457   6.188  0.0889 -0.0473  0.4805
  185POPC   H2X21187   7.202   3.438   6.196  0.2197  0.2367 -0.4335
  185POPC   H2Y21188   7.093   3.551   6.128  3.0130  0.2087  0.7411
  185POPC   C2321189   6.992   4.052   6.309  0.3662  0.2941  0.2883
  185POPC   H3R21190   6.946   4.152   6.317  2.5513  1.5368 -1.5998
  185POPC   H3S21191   6.910   3.977   6.309  0.9305 -0.3442 -0.6108
  185POPC   C2421192   7.070   4.045   6.177  0.1418 -0.2024  0.4361
  185POPC   H4R21193   7.139   3.961   6.159  1.3031  1.1810 -2.2167
  185POPC   H4S21194   7.152   4.120   6.179  1.7530 -1.9208  1.0562
  185POPC   C2521195   6.996   4.074   6.044  0.5019 -0.4909  0.1025
  185POPC   H5R21196   6.957   4.178   6.039  2.2347  0.1728 -0.5215
  185POPC   H5S21197   6.913   4.003   6.022  0.6511 -1.2399  1.8041
  185POPC   C2621198   7.088   4.075   5.922 -0.5837 -1.2123  0.1020
  185POPC   H6R21199   7.133   3.976   5.898 -1.6192 -1.2799 -1.7680
  185POPC   H6S21200   7.175   4.141   5.940  0.3977 -1.0164 -4.4115
  185POPC   C2721201   7.007   4.125   5.795 -0.0621 -0.2371 -0.3888
  185POPC   H7R21202   6.955   4.217   5.830 -0.7529 -1.2682  1.4084
  185POPC   H7S21203   6.932   4.045   5.775 -0.8908  0.1244  1.1423
  185POPC   C2821204   7.078   4.138   5.658  0.1146  0.2968  0.1197
  185POPC   H8R21205   7.093   4.029   5.644  0.5844  0.4108 -0.3543
  185POPC   H8S21206   7.180   4.182   5.668  0.0608  0.7419 -1.0478
  185POPC   C2921207   6.992   4.221   5.562 -0.1984  0.7232  0.1759
  185POPC   H9121208   6.904   4.170   5.521  2.1483 -0.5132 -3.7965
  185POPC  C21021209   7.025   4.341   5.514 -0.6431  1.4760 -0.1739
  185POPC  H10121210   6.958   4.396   5.446 -3.4085 -0.2107  0.9774
  185POPC  C21121211   7.146   4.420   5.557  0.2318 -0.4432 -0.1009
  185POPC  H11R21212   7.169   4.408   5.665  3.6094  2.2020 -0.3474
  185POPC  H11S21213   7.137   4.529   5.541  0.6725 -0.1590  1.4732
  185POPC  C21221214   7.276   4.371   5.483  0.3314  0.4216 -0.1533
  185POPC  H12R21215   7.267   4.262   5.463 -1.4262  0.2653  1.2217
  185POPC  H12S21216   7.362   4.362   5.554  0.0063  1.4925  0.3861
  185POPC  C21321217   7.312   4.445   5.351 -0.9381 -0.1058  0.5002
  185POPC  H13R21218   7.393   4.517   5.374 -0.2820 -1.0816  1.3328
  185POPC  H13S21219   7.223   4.501   5.315 -1.9110 -1.2862  0.9770
  185POPC  C21421220   7.350   4.353   5.229 -0.4557 -1.2555  0.0823
  185POPC  H14R21221   7.260   4.292   5.208 -1.2154 -0.3567  0.6437
  185POPC  H14S21222   7.432   4.284   5.259 -0.5965 -1.0959  0.8790
  185POPC  C21521223   7.389   4.435   5.109 -0.0079  0.6979 -0.7678
  185POPC  H15R21224   7.485   4.491   5.118  2.2533 -2.8241 -0.8936
  185POPC  H15S21225   7.314   4.514   5.089  0.9808  1.7012 -0.5974
  185POPC  C21621226   7.408   4.352   4.986  0.5290  0.4531  0.5247
  185POPC  H16R21227   7.318   4.288   4.982  2.2963 -2.1258 -1.4014
  185POPC  H16S21228   7.493   4.291   5.022 -0.3461  0.0036  1.9133
  185POPC  C21721229   7.423   4.431   4.857  0.7841  0.0237  0.1675
  185POPC  H17R21230   7.506   4.504   4.868  0.5682  0.5741 -1.5625
  185POPC  H17S21231   7.329   4.489   4.850  0.7726  0.2866  2.1500
  185POPC  C21821232   7.450   4.351   4.717 -0.8344 -0.1830  0.0212
  185POPC  H18R21233   7.544   4.292   4.710 -1.0626 -0.4215 -1.4071
  185POPC  H18S21234   7.459   4.427   4.636 -0.4715  1.4647  1.5536
  185POPC  H18T21235   7.370   4.276   4.699  0.5653 -1.9427  0.8233
  185POPC   C3321236   7.032   3.340   6.104 -0.6703 -0.0117  0.3906
  185POPC   H3X21237   6.936   3.369   6.056 -0.9519  1.8786  1.9783
  185POPC   H3Y21238   7.009   3.259   6.177 -0.1801 -0.3345  0.1942
  185POPC   C3421239   7.116   3.292   5.989 -1.1478  0.4341  0.1142
  185POPC   H4X21240   7.086   3.194   5.947 -1.6733 -0.0237  1.5084
  185POPC   H4Y21241   7.221   3.279   6.024 -0.2183  1.6877 -1.9924
  185POPC   C3521242   7.106   3.394   5.870 -0.2876  0.4124 -0.0154
  185POPC   H5X21243   7.148   3.492   5.901  1.7557  0.1843 -1.7927
  185POPC   H5Y21244   7.001   3.417   5.840 -0.4022  1.3333  1.0331
  185POPC   C3621245   7.188   3.338   5.749  0.0518  0.2193  0.6586
  185POPC   H6X21246   7.179   3.228   5.752  1.6225  0.0333 -0.2062
  185POPC   H6Y21247   7.295   3.362   5.771  0.5727 -0.3808 -1.0752
  185POPC   C3721248   7.132   3.383   5.613 -0.6060 -0.1078  0.8171
  185POPC   H7X21249   7.111   3.493   5.611 -0.7175 -0.0944 -2.1092
  185POPC   H7Y21250   7.042   3.328   5.578 -0.0905 -0.2666 -0.3111
  185POPC   C3821251   7.239   3.346   5.506  0.3208 -0.4547  0.1525
  185POPC   H8X21252   7.222   3.240   5.475  0.0327  0.3333 -2.6810
  185POPC   H8Y21253   7.344   3.367   5.536  0.4845 -0.4798 -0.3782
  185POPC   C3921254   7.219   3.414   5.374  0.3962  0.4998  0.1556
  185POPC   H9X21255   7.216   3.524   5.380 -2.9371  0.4779  0.4985
  185POPC   H9Y21256   7.114   3.384   5.356  0.4072 -0.3094  1.3052
  185POPC  C31021257   7.317   3.375   5.265  0.3397 -0.2725  0.3664
  185POPC  H10X21258   7.315   3.268   5.239  2.1610 -0.6208  1.4819
  185POPC  H10Y21259   7.421   3.405   5.290  0.8312 -0.1037 -1.7085
  185POPC  C31121260   7.271   3.456   5.141  0.2662  0.2526  0.2221
  185POPC  H11X21261   7.288   3.566   5.142  2.7906 -0.0558 -1.0344
  185POPC  H11Y21262   7.161   3.443   5.131  0.4130  0.3174 -1.8464
  185POPC  C31221263   7.355   3.416   5.022  0.1703  0.0884 -0.1582
  185POPC  H12X21264   7.343   3.307   5.004  1.5065  0.2264 -2.0898
  185POPC  H12Y21265   7.459   3.441   5.052  0.5942 -2.5049  0.8270
  185POPC  C31321266   7.337   3.493   4.895  0.0903 -0.5730  0.3123
  185POPC  H13X21267   7.346   3.601   4.916 -0.8549 -0.4502  0.1131
  185POPC  H13Y21268   7.230   3.492   4.867  0.7895 -2.6985 -2.8689
  185POPC  C31421269   7.425   3.456   4.772 -0.5053  0.2544 -0.3542
  185POPC  H14X21270   7.395   3.359   4.727 -1.0685  0.4671 -0.4546
  185POPC  H14Y21271   7.524   3.424   4.811 -0.8513 -0.1378  0.2177
  185POPC  C31521272   7.439   3.559   4.662  0.4624 -0.4562  0.0519
  185POPC  H15X21273   7.462   3.654   4.713 -1.8061  1.7534 -2.7054
  185POPC  H15Y21274   7.343   3.560   4.607 -0.0959  0.0022  1.0184
  185POPC  C31621275   7.536   3.530   4.550 -0.2911  0.4698  0.7206
  185POPC  H16X21276   7.536   3.615   4.478 -2.4018 -1.2458 -1.4966
  185POPC  H16Y21277   7.509   3.451   4.476 -1.2781  1.6475 -0.2115
  185POPC  H16Z21278   7.642   3.518   4.580  1.2951  1.0215 -3.7737
  186POPC     N21279   4.593   2.987   6.912 -0.2079  0.2666 -0.6091
  186POPC   C1221280   4.543   3.015   7.057  0.0350 -0.7587 -0.4269
  186POPC  H12A21281   4.631   3.052   7.108  0.7497  2.0054 -3.3332
  186POPC  H12B21282   4.514   2.916   7.090  0.9564 -0.6977  0.6600
  186POPC   C1321283   4.487   2.950   6.815 -0.2173 -0.2282 -0.2571
  186POPC  H13A21284   4.438   2.856   6.839  0.1581  0.0966  1.9727
  186POPC  H13B21285   4.416   3.030   6.806 -2.0207 -1.7026  0.2048
  186POPC  H13C21286   4.529   2.939   6.716  1.3890 -2.0738  0.5478
  186POPC   C1421287   4.655   3.108   6.852  2.0759  0.0627 -0.3178
  186POPC  H14A21288   4.645   3.203   6.901  1.4325  0.7309 -1.6944
  186POPC  H14B21289   4.759   3.078   6.842  1.6422 -1.4239 -0.6639
  186POPC  H14C21290   4.623   3.137   6.753  0.8246  1.3958  0.4429
  186POPC   C1521291   4.692   2.872   6.916  0.0741  0.1349  0.3977
  186POPC  H15A21292   4.784   2.897   6.967  0.3540 -1.7255  0.8773
  186POPC  H15B21293   4.715   2.839   6.816 -1.3001 -0.2626  0.1897
  186POPC  H15C21294   4.653   2.786   6.969 -1.3060 -0.3414 -1.2814
  186POPC   C1121295   4.448   3.136   7.075 -0.1171  0.0858  0.2904
  186POPC  H11A21296   4.414   3.142   7.181 -0.4103  2.0534  0.1084
  186POPC  H11B21297   4.360   3.110   7.013  0.0967 -2.5281  0.9364
  186POPC     P21298   4.428   3.392   7.048 -0.2310 -0.3207 -0.3912
  186POPC   O1321299   4.521   3.501   7.090 -0.0264 -0.2375 -0.7496
  186POPC   O1421300   4.309   3.370   7.139  0.4078 -0.2857 -0.0551
  186POPC   O1221301   4.516   3.254   7.040 -0.5297  0.1415  0.3167
  186POPC   O1121302   4.377   3.414   6.908  0.4509 -0.1733  0.8209
  186POPC    C121303   4.338   3.305   6.821 -0.4815 -0.5237 -0.3713
  186POPC    HA21304   4.245   3.254   6.852 -0.4608  0.3640  1.2780
  186POPC    HB21305   4.414   3.224   6.815  1.4059  1.0214  1.0961
  186POPC    C221306   4.315   3.357   6.679  0.5867  0.0425 -0.2359
  186POPC    HS21307   4.292   3.272   6.612  3.3448 -0.7014 -0.3762
  186POPC   O2121308   4.436   3.417   6.634 -0.1595 -0.5239  0.4267
  186POPC   C2121309   4.529   3.337   6.592 -0.2199  0.1206  0.0390
  186POPC   O2221310   4.534   3.216   6.603  0.0801  0.4778  0.6609
  186POPC   C2221311   4.637   3.417   6.523 -0.1244 -0.1006  0.1450
  186POPC   H2R21312   4.728   3.371   6.567 -1.0807 -2.0754  0.1408
  186POPC   H2S21313   4.627   3.526   6.540 -4.8244 -0.4530  1.0640
  186POPC    C321314   4.193   3.461   6.682  0.3307 -0.1007  0.4077
  186POPC    HX21315   4.226   3.557   6.727  0.9877  0.3636 -1.0174
  186POPC    HY21316   4.110   3.416   6.741 -0.2035  0.0535 -0.2189
  186POPC   O3121317   4.146   3.475   6.548 -0.6135 -0.1604 -0.1123
  186POPC   C3121318   4.181   3.581   6.474 -0.4817  0.0354  0.2176
  186POPC   O3221319   4.251   3.670   6.503  0.1173 -0.2622  0.5574
  186POPC   C3221320   4.114   3.569   6.334  0.1120  0.7346  0.2070
  186POPC   H2X21321   4.022   3.632   6.334  0.6817  1.5953  0.8197
  186POPC   H2Y21322   4.079   3.465   6.319 -1.0151  1.0943  0.2057
  186POPC   C2321323   4.635   3.386   6.370  0.2009 -0.5098 -0.0817
  186POPC   H3R21324   4.539   3.392   6.314  2.0367  0.2814 -3.4149
  186POPC   H3S21325   4.663   3.279   6.358  1.7400  0.0687 -2.2324
  186POPC   C2421326   4.735   3.463   6.288  0.4361  0.8415 -0.5627
  186POPC   H4R21327   4.768   3.396   6.206 -0.2829 -0.8896  0.5087
  186POPC   H4S21328   4.828   3.490   6.343  1.4804 -0.9955 -1.3572
  186POPC   C2521329   4.682   3.592   6.216  0.1069  0.2943 -0.5985
  186POPC   H5R21330   4.636   3.650   6.299 -0.1991  2.6062 -2.2785
  186POPC   H5S21331   4.601   3.571   6.144 -0.9111 -1.7091  1.0159
  186POPC   C2621332   4.795   3.675   6.152 -0.5610  0.0639 -0.3635
  186POPC   H6R21333   4.871   3.703   6.227 -0.2164 -1.6772 -0.0216
  186POPC   H6S21334   4.756   3.773   6.116  0.1474  0.4325 -0.1401
  186POPC   C2721335   4.862   3.595   6.047  0.2157  0.2218 -0.0624
  186POPC   H7R21336   4.786   3.530   5.998 -0.7607 -0.0029  1.6569
  186POPC   H7S21337   4.927   3.529   6.109  0.6882  0.4005 -0.3631
  186POPC   C2821338   4.924   3.682   5.939 -0.5404  0.2140  0.3711
  186POPC   H8R21339   4.837   3.735   5.895 -0.8170 -1.4038 -1.1147
  186POPC   H8S21340   4.964   3.603   5.872 -4.8155 -3.2143  1.4459
  186POPC   C2921341   5.034   3.780   5.991 -0.0500  0.4190  0.6100
  186POPC   H9121342   5.032   3.817   6.094 -0.3786  0.9444  0.4213
  186POPC  C21021343   5.137   3.811   5.912  1.0276 -0.2908  0.3765
  186POPC  H10121344   5.206   3.883   5.960 -3.2144  4.1933  0.4871
  186POPC  C21121345   5.163   3.769   5.771 -0.0585  0.3316 -0.0851
  186POPC  H11R21346   5.134   3.662   5.774  2.0861 -0.2974 -0.5982
  186POPC  H11S21347   5.271   3.776   5.748  0.3072 -1.3194  0.9942
  186POPC  C21221348   5.082   3.834   5.660 -0.1055 -0.3300  0.2846
  186POPC  H12R21349   5.080   3.945   5.654  0.3794 -0.2038  1.9044
  186POPC  H12S21350   4.977   3.801   5.676  0.1442 -2.0893 -1.2543
  186POPC  C21321351   5.106   3.765   5.524  0.2066 -0.2075  0.2799
  186POPC  H13R21352   5.085   3.659   5.552 -0.2638 -0.1980 -0.0347
  186POPC  H13S21353   5.215   3.774   5.506  0.0813 -0.3040 -0.5522
  186POPC  C21421354   5.016   3.804   5.410 -0.6233  0.2803  0.0388
  186POPC  H14R21355   5.011   3.914   5.393  0.9020  0.8837  2.8734
  186POPC  H14S21356   4.912   3.772   5.430 -0.6687  0.2009 -0.3117
  186POPC  C21521357   5.046   3.725   5.284 -1.0229 -0.4817  0.2752
  186POPC  H15R21358   5.157   3.717   5.279 -0.8731  1.5812 -1.4809
  186POPC  H15S21359   5.021   3.798   5.204 -0.0328  0.8732  1.1626
  186POPC  C21621360   4.982   3.593   5.270  0.1107  0.5406  0.2661
  186POPC  H16R21361   4.872   3.596   5.281  0.0559  0.8268 -0.3059
  186POPC  H16S21362   5.027   3.514   5.334  1.4571  0.5191 -0.6592
  186POPC  C21721363   5.002   3.545   5.122  0.4979  1.0179  0.6817
  186POPC  H17R21364   4.935   3.605   5.057 -0.9898 -2.2477 -1.0570
  186POPC  H17S21365   4.953   3.445   5.112  0.3966  1.1753 -0.5786
  186POPC  C21821366   5.142   3.526   5.076  0.2308  0.3967  0.3456
  186POPC  H18R21367   5.215   3.609   5.091 -0.7177  1.2398  0.3612
  186POPC  H18S21368   5.135   3.504   4.968  1.4955  0.8886  0.1410
  186POPC  H18T21369   5.188   3.431   5.113 -1.1492 -0.7444 -0.7621
  186POPC   C3321370   4.208   3.611   6.222 -0.2998 -0.3424  0.2939
  186POPC   H3X21371   4.285   3.531   6.216  0.8216  0.7202  0.0527
  186POPC   H3Y21372   4.250   3.713   6.239 -1.0489 -0.1047  0.7654
  186POPC   C3421373   4.126   3.610   6.092  0.1470 -0.0353 -0.0619
  186POPC   H4X21374   4.054   3.693   6.110  0.1021  0.5732 -2.7221
  186POPC   H4Y21375   4.074   3.512   6.081 -1.8131  0.9250  0.1518
  186POPC   C3521376   4.213   3.638   5.967  0.6388 -0.7875 -0.3223
  186POPC   H5X21377   4.268   3.544   5.946 -0.3483 -1.3233 -0.5635
  186POPC   H5Y21378   4.292   3.715   5.987 -0.0385 -0.2637  0.4043
  186POPC   C3621379   4.132   3.688   5.851 -0.5508 -0.3013 -0.6380
  186POPC   H6X21380   4.104   3.790   5.885 -0.5805  0.0322 -1.6079
  186POPC   H6Y21381   4.035   3.637   5.829 -0.8628  0.6089 -1.4618
  186POPC   C3721382   4.212   3.695   5.726  0.4191 -0.1907  0.0184
  186POPC   H7X21383   4.267   3.599   5.715 -1.0016 -1.1354  0.8131
  186POPC   H7Y21384   4.296   3.768   5.717  2.0483 -2.0330 -0.4303
  186POPC   C3821385   4.126   3.711   5.598 -0.3701 -0.0576 -0.3022
  186POPC   H8X21386   4.073   3.809   5.602 -1.9165 -0.8198 -1.2209
  186POPC   H8Y21387   4.051   3.630   5.612  0.8091 -0.8464  2.1007
  186POPC   C3921388   4.208   3.708   5.469 -0.4342 -0.0705  0.4751
  186POPC   H9X21389   4.279   3.623   5.465  0.5749  0.8169 -1.7127
  186POPC   H9Y21390   4.261   3.805   5.471 -0.8028  0.1937 -1.1205
  186POPC  C31021391   4.106   3.708   5.348  0.3470  0.4244 -0.1148
  186POPC  H10X21392   4.041   3.798   5.345  0.0486  0.1826 -2.6386
  186POPC  H10Y21393   4.040   3.619   5.359  0.2083  0.3165 -1.6159
  186POPC  C31121394   4.181   3.686   5.212  0.5979  0.3818 -0.2249
  186POPC  H11X21395   4.231   3.587   5.220  1.6053  0.8589 -0.4026
  186POPC  H11Y21396   4.259   3.764   5.203 -1.0006  2.1449  0.5923
  186POPC  C31221397   4.090   3.704   5.093 -0.1619 -0.1571 -0.4578
  186POPC  H12X21398   4.056   3.809   5.095 -0.3709 -0.2314  0.4274
  186POPC  H12Y21399   3.995   3.652   5.120  0.3601 -1.3256 -0.7753
  186POPC  C31321400   4.153   3.664   4.955  0.3159 -0.4814 -0.1265
  186POPC  H13X21401   4.180   3.558   4.972 -2.5489 -1.6490 -2.0318
  186POPC  H13Y21402   4.243   3.728   4.940 -0.3296  0.1707 -1.3399
  186POPC  C31421403   4.057   3.671   4.833  0.0341 -0.4020  0.3583
  186POPC  H14X21404   3.972   3.604   4.856 -0.5702  0.9554  2.3585
  186POPC  H14Y21405   4.105   3.628   4.742 -0.4175  0.8938 -0.5298
  186POPC  C31521406   3.996   3.805   4.807  0.2519 -0.0782  0.3877
  186POPC  H15X21407   3.953   3.854   4.896  0.5582  2.0304 -0.5595
  186POPC  H15Y21408   3.913   3.797   4.734  1.2212  0.1487 -0.7930
  186POPC  C31621409   4.094   3.904   4.733 -0.0662  0.1652 -0.5529
  186POPC  H16X21410   4.117   3.852   4.637 -1.2177  1.7767 -1.7459
  186POPC  H16Y21411   4.190   3.916   4.788 -1.4078  0.9433  1.7561
  186POPC  H16Z21412   4.048   4.002   4.708  0.5452 -0.0779 -2.8442
  187POPC     N21413   4.723   4.139   2.390 -0.1672 -0.6001 -0.0058
  187POPC   C1221414   4.717   4.177   2.532  0.4865  0.0585 -0.1879
  187POPC  H12A21415   4.687   4.280   2.540  0.8033 -0.0186  3.6778
  187POPC  H12B21416   4.819   4.178   2.566  0.7097  2.5503 -0.7288
  187POPC   C1321417   4.589   4.159   2.330 -0.8271  0.2262 -0.0455
  187POPC  H13A21418   4.556   4.261   2.345  1.0588  1.4382 -3.1712
  187POPC  H13B21419   4.594   4.155   2.222 -1.1687  1.2750 -0.1088
  187POPC  H13C21420   4.519   4.088   2.373 -0.6317  0.3464  0.4818
  187POPC   C1421421   4.806   4.225   2.311 -0.6113 -0.2224  0.1082
  187POPC  H14A21422   4.766   4.325   2.301 -1.6686 -0.5768  0.6506
  187POPC  H14B21423   4.908   4.226   2.347 -0.0914 -2.1617 -1.1819
  187POPC  H14C21424   4.811   4.190   2.209 -3.3955  0.3103 -0.2798
  187POPC   C1521425   4.764   4.001   2.370  0.2086 -0.2278 -0.2972
  187POPC  H15A21426   4.699   3.929   2.417  1.1929 -1.4231 -0.7128
  187POPC  H15B21427   4.860   3.980   2.414 -0.3944 -3.0863 -0.1501
  187POPC  H15C21428   4.773   3.983   2.264  2.1466 -0.6354 -0.0890
  187POPC   C1121429   4.632   4.090   2.635 -0.1675 -0.2960 -0.4178
  187POPC  H11A21430   4.636   4.127   2.739  0.3475 -0.2168 -0.4657
  187POPC  H11B21431   4.673   3.987   2.639  0.1736 -0.2556 -2.0657
  187POPC     P21432   4.419   3.953   2.580 -0.6173 -0.0836  0.1049
  187POPC   O1321433   4.493   3.859   2.498 -0.2385 -0.3823 -0.5021
  187POPC   O1421434   4.286   3.987   2.539  0.4109  0.6625 -0.6437
  187POPC   O1221435   4.496   4.089   2.590 -0.6969 -0.0366  0.4527
  187POPC   O1121436   4.406   3.895   2.727  0.2186  0.8829 -0.0336
  187POPC    C121437   4.374   3.986   2.839 -0.5558 -0.7173 -0.2855
  187POPC    HA21438   4.265   4.009   2.839 -0.0049  2.2387 -0.4629
  187POPC    HB21439   4.430   4.082   2.838  0.3241 -1.1238  2.3033
  187POPC    C221440   4.404   3.908   2.981  0.2236 -0.5027  0.6061
  187POPC    HS21441   4.366   3.974   3.062 -0.8791 -0.4134  0.0449
  187POPC   O2121442   4.552   3.881   2.992 -0.5100  0.0491  0.3851
  187POPC   C2121443   4.629   3.987   3.017 -0.0058  0.3442  0.6177
  187POPC   O2221444   4.588   4.102   3.030  0.7097 -0.2628 -0.3383
  187POPC   C2221445   4.774   3.945   3.027 -0.6724 -0.9846 -0.1200
  187POPC   H2R21446   4.810   3.937   2.922 -0.9330 -0.7197 -0.2292
  187POPC   H2S21447   4.791   3.848   3.080  0.8562  0.5260  2.3623
  187POPC    C321448   4.326   3.780   2.976  0.1109 -0.0261  0.0076
  187POPC    HX21449   4.373   3.719   2.896  0.2522 -2.1844  1.6555
  187POPC    HY21450   4.221   3.806   2.951  0.3901  0.8063 -0.3317
  187POPC   O3121451   4.335   3.716   3.104 -0.0925 -0.2342 -0.2644
  187POPC   C3121452   4.440   3.636   3.128 -0.6722  0.1016  0.4457
  187POPC   O3221453   4.526   3.620   3.044 -0.3717 -0.1603 -0.0389
  187POPC   C3221454   4.441   3.590   3.273 -0.5111  0.5598 -0.0103
  187POPC   H2X21455   4.428   3.479   3.272 -1.3522  0.6459 -1.5739
  187POPC   H2Y21456   4.349   3.630   3.320 -0.2641 -0.1251  1.0993
  187POPC   C2321457   4.868   4.038   3.103 -0.0941  0.5006  0.2614
  187POPC   H3R21458   4.847   4.144   3.076 -2.1875 -0.5368 -2.8760
  187POPC   H3S21459   4.969   4.021   3.061 -0.1784  0.2403  0.1598
  187POPC   C2421460   4.851   4.020   3.253 -0.6453 -0.0487  0.1900
  187POPC   H4R21461   4.859   3.917   3.294 -2.6819  0.3315  1.6259
  187POPC   H4S21462   4.744   4.040   3.274 -1.0375 -2.3395  0.6741
  187POPC   C2521463   4.945   4.109   3.334  0.6045  0.4963  0.2552
  187POPC   H5R21464   4.934   4.212   3.292 -1.8673 -0.0306 -0.5475
  187POPC   H5S21465   5.053   4.085   3.323  0.6719  1.1376 -0.6691
  187POPC   C2621466   4.925   4.106   3.483  0.8433  0.3049  0.0980
  187POPC   H6R21467   4.899   4.004   3.520  0.5656  0.4748  0.3760
  187POPC   H6S21468   4.824   4.148   3.505  0.8052 -1.2135  3.3883
  187POPC   C2721469   5.037   4.180   3.557 -1.0868  0.2608  0.0343
  187POPC   H7R21470   5.087   4.257   3.495  2.1909  0.1379  2.2751
  187POPC   H7S21471   5.113   4.100   3.569 -1.1215  0.2391  0.1124
  187POPC   C2821472   5.001   4.254   3.690  0.3793  0.4430 -0.0449
  187POPC   H8R21473   4.949   4.184   3.759 -2.8723  1.6299 -1.0878
  187POPC   H8S21474   4.930   4.335   3.663  1.2375  1.0411 -0.5474
  187POPC   C2921475   5.122   4.315   3.744 -0.2590  0.0100 -0.0747
  187POPC   H9121476   5.164   4.403   3.694 -0.5342 -0.8160 -1.8179
  187POPC  C21021477   5.181   4.289   3.863  0.1795  0.5762 -0.8259
  187POPC  H10121478   5.273   4.332   3.905 -0.2207 -0.4412  1.2362
  187POPC  C21121479   5.138   4.183   3.953 -0.3554 -0.4010 -0.0352
  187POPC  H11R21480   5.042   4.135   3.923 -0.8525  0.9508 -0.7122
  187POPC  H11S21481   5.115   4.227   4.053  0.5081  1.5824 -0.6576
  187POPC  C21221482   5.240   4.067   3.976  0.1045 -0.0348 -0.6370
  187POPC  H12R21483   5.334   4.119   4.007 -0.2898 -0.5745  1.5883
  187POPC  H12S21484   5.243   4.018   3.876  1.1311 -0.4846 -0.4038
  187POPC  C21321485   5.201   3.976   4.089 -0.5299 -0.4172  0.1036
  187POPC  H13R21486   5.093   3.954   4.071 -0.4398  0.5195 -1.8567
  187POPC  H13S21487   5.215   4.029   4.186  1.2806 -1.2559  0.3352
  187POPC  C21421488   5.287   3.847   4.089 -0.0852  0.4015  0.8892
  187POPC  H14R21489   5.395   3.871   4.100 -0.3786  2.7311 -0.5882
  187POPC  H14S21490   5.275   3.786   3.997  1.3949  0.9187  0.3239
  187POPC  C21521491   5.253   3.758   4.205  0.6100 -0.0212 -0.0450
  187POPC  H15R21492   5.150   3.717   4.207 -0.3427  2.2375  0.9653
  187POPC  H15S21493   5.264   3.820   4.297  0.6347 -1.4938  0.9809
  187POPC  C21621494   5.356   3.642   4.231  0.7513 -0.7757 -0.6122
  187POPC  H16R21495   5.456   3.688   4.249  0.9029 -0.1609 -2.8354
  187POPC  H16S21496   5.366   3.568   4.150 -1.2117 -0.5095 -1.1428
  187POPC  C21721497   5.320   3.564   4.359 -0.2708  0.2650 -0.7150
  187POPC  H17R21498   5.394   3.484   4.380 -0.3897  0.2602 -0.3108
  187POPC  H17S21499   5.227   3.504   4.358 -0.4401  0.5171 -0.1559
  187POPC  C21821500   5.320   3.653   4.491 -0.2727  0.2227 -0.3435
  187POPC  H18R21501   5.262   3.748   4.481  1.2174  1.1934  0.0031
  187POPC  H18S21502   5.427   3.677   4.509  0.0324 -0.9327 -0.5347
  187POPC  H18T21503   5.277   3.589   4.571  1.6013 -2.7471 -1.5494
  187POPC   C3321504   4.569   3.638   3.350 -0.3467 -0.5012 -0.0832
  187POPC   H3X21505   4.664   3.620   3.295  1.6915 -1.3848  3.3993
  187POPC   H3Y21506   4.595   3.567   3.432 -0.9166 -0.4228  0.1700
  187POPC   C3421507   4.553   3.784   3.394  0.1223  0.0278 -0.4361
  187POPC   H4X21508   4.456   3.786   3.448  0.1856 -1.5186 -0.2085
  187POPC   H4Y21509   4.555   3.849   3.304  1.3419 -1.4833 -1.5627
  187POPC   C3521510   4.667   3.840   3.492 -0.4340 -0.0704 -0.5483
  187POPC   H5X21511   4.649   3.949   3.493  1.3473  0.2633  0.7563
  187POPC   H5Y21512   4.770   3.814   3.458 -0.1751  1.9536 -1.4516
  187POPC   C3621513   4.652   3.783   3.631  0.4800 -0.4630  0.0376
  187POPC   H6X21514   4.699   3.682   3.635  0.3431 -0.5897 -1.1013
  187POPC   H6Y21515   4.544   3.764   3.653  0.5247 -2.7377 -1.3827
  187POPC   C3721516   4.715   3.865   3.741  0.0049  0.1667  0.5159
  187POPC   H7X21517   4.668   3.964   3.759  0.1517  0.1742  0.8864
  187POPC   H7Y21518   4.820   3.884   3.710 -0.3438 -1.0036 -1.4974
  187POPC   C3821519   4.703   3.781   3.873 -0.0985  0.1170  0.2803
  187POPC   H8X21520   4.755   3.685   3.853 -0.6891 -0.3061  0.7533
  187POPC   H8Y21521   4.595   3.763   3.886  0.2110 -2.2037  0.0253
  187POPC   C3921522   4.759   3.856   4.000 -0.1785  0.4472  0.5839
  187POPC   H9X21523   4.714   3.957   4.010  1.2921  1.1559  0.3222
  187POPC   H9Y21524   4.866   3.865   3.971 -0.0308 -1.5500  0.3308
  187POPC  C31021525   4.745   3.788   4.131  0.1313  0.0278  0.1262
  187POPC  H10X21526   4.753   3.678   4.116 -0.9451  0.1638 -1.8174
  187POPC  H10Y21527   4.637   3.794   4.153  0.4975  2.9421  1.5961
  187POPC  C31121528   4.831   3.833   4.240 -0.8032  0.1758 -0.2267
  187POPC  H11X21529   4.801   3.932   4.279  0.5981  1.2012 -1.6636
  187POPC  H11Y21530   4.937   3.841   4.210 -0.8213 -1.1704 -0.7050
  187POPC  C31221531   4.834   3.737   4.360  0.3492  0.3067  0.3538
  187POPC  H12X21532   4.856   3.632   4.330  1.7737  0.3422  1.1670
  187POPC  H12Y21533   4.730   3.736   4.398  0.9327  1.7673  2.1331
  187POPC  C31321534   4.943   3.777   4.459  0.0041  0.1095  0.1790
  187POPC  H13X21535   5.021   3.847   4.422 -1.4393  1.2660 -0.7882
  187POPC  H13Y21536   5.007   3.689   4.480  0.3486  0.4054  0.3634
  187POPC  C31421537   4.892   3.832   4.594  0.1268 -0.0033 -0.3098
  187POPC  H14X21538   4.816   3.768   4.644 -0.3784  2.3982  2.2439
  187POPC  H14Y21539   4.842   3.928   4.571  0.1941 -0.0283 -0.5628
  187POPC  C31521540   5.007   3.855   4.695 -0.2196 -0.9006  0.4212
  187POPC  H15X21541   5.053   3.956   4.697 -1.3126 -0.3954  0.5920
  187POPC  H15Y21542   5.093   3.789   4.672  0.7587  0.5036 -0.1286
  187POPC  C31621543   4.966   3.840   4.842 -0.6622 -0.6898  0.1825
  187POPC  H16X21544   5.040   3.883   4.914 -0.8187  0.4511 -0.3150
  187POPC  H16Y21545   4.966   3.732   4.868 -0.6038 -0.2681  2.1491
  187POPC  H16Z21546   4.863   3.880   4.849 -1.8163 -3.2848 -0.6614
  188POPC     N21547   2.751   1.825   2.032 -0.0614 -0.6565 -0.1805
  188POPC   C1221548   2.808   1.748   1.914 -0.9368  0.0446 -0.4069
  188POPC  H12A21549   2.796   1.805   1.823 -0.4382  0.7178 -0.0532
  188POPC  H12B21550   2.749   1.658   1.902 -1.1338  0.4484 -3.1835
  188POPC   C1321551   2.602   1.839   2.020  0.1700 -0.1876  0.5638
  188POPC  H13A21552   2.561   1.899   2.100 -2.8347 -0.2995 -0.7484
  188POPC  H13B21553   2.578   1.893   1.929  3.2222 -0.7835 -0.7032
  188POPC  H13C21554   2.555   1.742   2.016  1.1637 -0.7031  1.0245
  188POPC   C1421555   2.785   1.755   2.169 -0.3346 -0.3387  1.1344
  188POPC  H14A21556   2.889   1.732   2.188  0.8330  1.9918 -1.6875
  188POPC  H14B21557   2.751   1.817   2.251 -0.3689  1.2131 -0.0194
  188POPC  H14C21558   2.727   1.664   2.157  0.3517 -0.7211  0.6474
  188POPC   C1521559   2.809   1.960   2.039 -0.0044  0.2542  0.4925
  188POPC  H15A21560   2.810   2.009   1.943  1.7770  0.5207  0.6124
  188POPC  H15B21561   2.908   1.952   2.082 -1.1158 -1.7322  2.9218
  188POPC  H15C21562   2.763   2.026   2.111 -1.4383 -0.3579  0.1752
  188POPC   C1121563   2.957   1.700   1.919  0.3949 -0.0856  0.5373
  188POPC  H11A21564   2.976   1.639   1.829  0.5888 -0.1966  0.6526
  188POPC  H11B21565   2.977   1.637   2.009  0.8848 -0.0644  0.4427
  188POPC     P21566   3.156   1.850   2.016  0.2058  0.1450 -0.5250
  188POPC   O1321567   3.214   1.983   1.983 -0.0567  0.2595 -0.8105
  188POPC   O1421568   3.248   1.737   2.006 -0.0409  0.5716  0.2347
  188POPC   O1221569   3.046   1.815   1.903  0.1305 -0.3396 -0.3268
  188POPC   O1121570   3.079   1.846   2.154 -0.2493 -0.5375  0.6411
  188POPC    C121571   3.093   1.944   2.250 -0.0883 -0.2559 -1.1826
  188POPC    HA21572   3.004   1.948   2.317  0.5608  1.5572 -0.3656
  188POPC    HB21573   3.095   2.047   2.209  0.0194  1.1351  2.0123
  188POPC    C221574   3.223   1.925   2.330  0.6228  0.0460 -0.1561
  188POPC    HS21575   3.309   1.920   2.261  0.7533  0.6522 -0.0452
  188POPC   O2121576   3.199   1.814   2.414 -0.4055  0.0448  0.2615
  188POPC   C2121577   3.314   1.743   2.442  0.0594  0.0761 -0.1179
  188POPC   O2221578   3.425   1.759   2.394  0.1267 -0.1273 -0.4233
  188POPC   C2221579   3.283   1.631   2.549  0.4692  0.2709  0.0303
  188POPC   H2R21580   3.305   1.529   2.510  0.0885  1.3670 -3.4203
  188POPC   H2S21581   3.174   1.638   2.571  0.3048 -1.1534 -0.2401
  188POPC    C321582   3.244   2.037   2.433  0.1036  0.0642 -0.5812
  188POPC    HX21583   3.150   2.042   2.492 -0.5330  1.8886 -1.6644
  188POPC    HY21584   3.251   2.124   2.364  0.1665 -0.3502 -1.1025
  188POPC   O3121585   3.367   2.025   2.512  0.2460 -0.1591 -0.2021
  188POPC   C3121586   3.477   2.084   2.464 -0.1124 -0.5385 -0.7096
  188POPC   O3221587   3.488   2.147   2.362 -0.4834  0.3628 -0.1248
  188POPC   C3221588   3.584   2.069   2.578  0.1975 -0.0588 -0.5533
  188POPC   H2X21589   3.621   1.965   2.569 -0.2718 -0.4851  1.7880
  188POPC   H2Y21590   3.525   2.083   2.672 -2.4858  0.4200 -2.2002
  188POPC   C2321591   3.380   1.648   2.674 -0.4067 -0.3429  0.2832
  188POPC   H3R21592   3.486   1.661   2.642 -0.7951 -1.1694 -1.4690
  188POPC   H3S21593   3.367   1.562   2.743 -2.2787 -0.3212  0.0004
  188POPC   C2421594   3.345   1.764   2.770 -0.3941  0.1316  0.1940
  188POPC   H4R21595   3.242   1.748   2.808  0.4348 -1.4087  1.9397
  188POPC   H4S21596   3.337   1.849   2.699  2.9220  1.6479  1.4588
  188POPC   C2521597   3.443   1.790   2.882 -0.2652  0.1988  0.8553
  188POPC   H5R21598   3.545   1.818   2.848  0.0406 -0.6479  1.0586
  188POPC   H5S21599   3.440   1.687   2.923 -1.2249 -1.0282 -2.0240
  188POPC   C2621600   3.397   1.894   2.983 -0.3669 -0.5096 -0.2168
  188POPC   H6R21601   3.365   1.983   2.925 -0.8313 -1.0639 -0.8288
  188POPC   H6S21602   3.472   1.914   3.062 -0.4917  0.5082 -0.3314
  188POPC   C2721603   3.273   1.863   3.069  0.0379  0.1718  0.0230
  188POPC   H7R21604   3.286   1.764   3.118  1.0066 -0.3327 -1.2046
  188POPC   H7S21605   3.192   1.838   2.997  0.7133  0.7474 -0.9473
  188POPC   C2821606   3.232   1.960   3.180 -0.3069 -0.6179 -0.1724
  188POPC   H8R21607   3.127   1.934   3.205 -1.0001  1.4125 -0.8253
  188POPC   H8S21608   3.219   2.059   3.131 -0.2887  0.9798  2.8133
  188POPC   C2921609   3.324   1.978   3.300 -0.4942 -0.7040  0.3780
  188POPC   H9121610   3.429   2.003   3.277 -0.2192 -0.3905  1.9021
  188POPC  C21021611   3.294   1.969   3.433 -0.2982 -0.1365  0.4969
  188POPC  H10121612   3.370   1.975   3.512  0.7701  1.0797 -0.5738
  188POPC  C21121613   3.155   1.944   3.485 -0.2705 -0.5564 -0.3625
  188POPC  H11R21614   3.139   1.835   3.481 -0.8627 -0.7338  3.3841
  188POPC  H11S21615   3.086   1.991   3.412 -2.1268 -0.2710  1.4858
  188POPC  C21221616   3.131   1.988   3.632  0.0096 -0.3310  0.0346
  188POPC  H12R21617   3.022   1.975   3.648 -0.4420  1.8161 -0.9057
  188POPC  H12S21618   3.168   2.091   3.651  3.2947 -1.0677 -1.6071
  188POPC  C21321619   3.205   1.891   3.714  0.3939 -0.2553 -0.0486
  188POPC  H13R21620   3.313   1.911   3.695  0.2347  0.9979  0.3100
  188POPC  H13S21621   3.164   1.788   3.700  0.0435  0.0102 -1.0813
  188POPC  C21421622   3.175   1.907   3.867 -0.0185  0.0240 -0.2528
  188POPC  H14R21623   3.065   1.891   3.877  0.2292 -1.3601  0.4231
  188POPC  H14S21624   3.199   2.007   3.907 -1.5162 -0.3186  1.6425
  188POPC  C21521625   3.233   1.794   3.950 -0.3434 -0.0241  0.3330
  188POPC  H15R21626   3.344   1.789   3.947 -0.3227  0.2686  0.6478
  188POPC  H15S21627   3.181   1.703   3.914 -0.7868  0.5799 -0.5944
  188POPC  C21621628   3.200   1.810   4.092  0.3779 -0.0779  0.1603
  188POPC  H16R21629   3.091   1.830   4.099  0.9355  3.1355  1.1411
  188POPC  H16S21630   3.249   1.904   4.124 -1.6674  1.0316  0.2291
  188POPC  C21721631   3.240   1.709   4.193  0.7852  0.4844 -0.6417
  188POPC  H17R21632   3.350   1.696   4.196  0.5740 -1.7171  0.4276
  188POPC  H17S21633   3.208   1.604   4.173 -0.6472  0.8431 -0.3776
  188POPC  C21821634   3.181   1.747   4.329  0.1441 -0.3217  0.3270
  188POPC  H18R21635   3.226   1.689   4.412 -1.4397  0.3826  1.7267
  188POPC  H18S21636   3.072   1.730   4.340  0.1851 -0.8879 -0.1340
  188POPC  H18T21637   3.194   1.856   4.349 -0.9629 -0.3274  1.1372
  188POPC   C3321638   3.689   2.173   2.569 -0.3779 -0.2896  0.4335
  188POPC   H3X21639   3.654   2.255   2.634  1.1644 -0.6148  1.7382
  188POPC   H3Y21640   3.701   2.211   2.465  2.2391 -1.3619  0.2738
  188POPC   C3421641   3.816   2.110   2.611 -0.2635  0.2505 -0.0182
  188POPC   H4X21642   3.894   2.189   2.621 -0.9321  0.9737 -0.4491
  188POPC   H4Y21643   3.860   2.043   2.534  0.8517  0.4301  0.4350
  188POPC   C3521644   3.823   2.024   2.740 -0.3609 -0.1326 -0.0323
  188POPC   H5X21645   3.917   1.966   2.750 -0.8171 -0.9117 -0.1775
  188POPC   H5Y21646   3.744   1.945   2.743  0.5039 -1.1179 -1.5750
  188POPC   C3621647   3.802   2.107   2.869  0.1778 -0.4236 -0.1121
  188POPC   H6X21648   3.718   2.175   2.843  0.0809  0.1076  1.4755
  188POPC   H6Y21649   3.897   2.156   2.902  0.0352  0.8518 -1.4959
  188POPC   C3721650   3.757   2.016   2.986 -0.4021 -0.4856  0.0065
  188POPC   H7X21651   3.838   1.943   3.007  1.7437  1.4117 -1.1722
  188POPC   H7Y21652   3.663   1.967   2.955 -0.8887  0.4751 -0.0774
  188POPC   C3821653   3.724   2.087   3.119  0.1612  0.2472 -0.2363
  188POPC   H8X21654   3.623   2.130   3.100 -0.0177  0.1720  0.5101
  188POPC   H8Y21655   3.794   2.172   3.130  0.2494 -0.0449  1.7267
  188POPC   C3921656   3.722   2.009   3.251 -0.1420 -0.2977 -0.8953
  188POPC   H9X21657   3.813   1.951   3.276 -0.6746 -1.0572 -0.7043
  188POPC   H9Y21658   3.642   1.932   3.252 -2.0886  1.6081 -1.2060
  188POPC  C31021659   3.711   2.094   3.380  0.1940 -0.5362  0.3359
  188POPC  H10X21660   3.618   2.154   3.386  2.0002  3.2084 -3.4988
  188POPC  H10Y21661   3.783   2.178   3.367 -1.2181  0.7793  0.7345
  188POPC  C31121662   3.734   2.003   3.506 -0.1123 -0.7908  0.7473
  188POPC  H11X21663   3.832   1.951   3.519 -1.0281 -3.8240 -2.6449
  188POPC  H11Y21664   3.653   1.928   3.517 -1.8712  1.3617  4.3326
  188POPC  C31221665   3.720   2.089   3.632 -0.0669 -0.1131 -0.4446
  188POPC  H12X21666   3.619   2.135   3.625  0.7462  1.5971 -1.9730
  188POPC  H12Y21667   3.793   2.173   3.629 -0.4244  0.2401  0.3726
  188POPC  C31321668   3.738   2.005   3.758 -0.1275  0.1343 -0.5634
  188POPC  H13X21669   3.848   1.989   3.772  0.1003 -0.5743 -2.8210
  188POPC  H13Y21670   3.684   1.909   3.759 -2.1995  1.2374 -1.3877
  188POPC  C31421671   3.702   2.080   3.887  0.5607  0.0998  0.3531
  188POPC  H14X21672   3.597   2.114   3.875 -0.3080 -2.4100  0.2395
  188POPC  H14Y21673   3.754   2.178   3.897 -1.1260  0.9555  1.3678
  188POPC  C31521674   3.712   1.991   4.012 -0.5182 -0.1609  0.6514
  188POPC  H15X21675   3.710   2.049   4.107  0.0954 -0.2398  0.7148
  188POPC  H15Y21676   3.807   1.935   4.005 -0.4513  0.0938 -0.8837
  188POPC  C31621677   3.602   1.890   4.014  0.7853 -0.1279 -0.2582
  188POPC  H16X21678   3.611   1.841   4.114 -0.9662 -0.0146 -0.0215
  188POPC  H16Y21679   3.616   1.813   3.934  1.8331 -1.1807  0.8947
  188POPC  H16Z21680   3.500   1.931   4.010  1.1793  0.8516 -0.4586
  189SAPI   C1221681   2.648   4.962   7.025 -0.3765  0.2119  0.1451
  189SAPI    H221682   2.677   4.937   6.921 -1.2729  1.5036 -0.4489
  189SAPI    O221683   2.730   5.061   7.084  0.5177  0.8637 -0.5081
  189SAPI   HO221684   2.814   5.018   7.098  0.3523  0.2687 -1.3087
  189SAPI   C1321685   2.504   4.992   7.020 -0.1008  0.2418 -0.3602
  189SAPI    H321686   2.448   4.904   6.984 -1.4036  0.0603  1.9099
  189SAPI    O321687   2.487   5.097   6.936  0.1572  0.2251  0.4141
  189SAPI   HO321688   2.527   5.176   6.973 -0.4207  1.0632 -0.6795
  189SAPI   C1421689   2.451   5.038   7.154  0.0871  0.0808  1.1333
  189SAPI    H421690   2.502   5.131   7.185 -1.4454 -0.1245  4.6769
  189SAPI    O421691   2.310   5.064   7.139  0.2284 -0.3693  0.3675
  189SAPI   HO421692   2.271   4.980   7.113 -0.4013 -0.3291  1.1430
  189SAPI   C1521693   2.483   4.937   7.268  0.1452 -0.2859  0.8350
  189SAPI    H521694   2.394   4.873   7.254 -0.4675  0.8724 -0.9981
  189SAPI    O521695   2.478   4.987   7.401  0.2711  0.0881  0.4645
  189SAPI   HO521696   2.446   4.913   7.453  0.6826 -0.2746  0.2061
  189SAPI   C1621697   2.600   4.841   7.249  0.1167  0.7433  0.5468
  189SAPI    H621698   2.677   4.893   7.309 -1.0312  2.5475  0.5425
  189SAPI    O621699   2.569   4.709   7.307 -0.0437  0.3873 -0.0911
  189SAPI   HO621700   2.628   4.690   7.381  0.1141 -1.9647 -0.7392
  189SAPI   C1121701   2.658   4.831   7.108  0.5847  0.1474 -0.0244
  189SAPI    H121702   2.604   4.752   7.052  0.4028  0.2932 -0.0571
  189SAPI     P21703   2.846   4.640   7.043 -0.3820  0.2145  0.2873
  189SAPI   O1321704   2.746   4.553   6.987  0.3860  0.1933  0.1022
  189SAPI   O1421705   2.947   4.585   7.135 -0.4741 -0.3767 -0.0892
  189SAPI   O1221706   2.787   4.780   7.121 -0.4090 -0.4292  0.1412
  189SAPI   O1121707   2.924   4.714   6.926 -0.6412  0.5929  0.5450
  189SAPI    C121708   3.038   4.799   6.950 -0.1291 -0.0388 -0.3539
  189SAPI    HA21709   3.010   4.892   7.003  0.3254  1.7153 -3.0172
  189SAPI    HB21710   3.121   4.751   7.006  1.3009  0.8631 -1.6282
  189SAPI    C221711   3.094   4.838   6.808  0.2299 -0.3565  0.4196
  189SAPI    HS21712   3.175   4.915   6.813  0.1023 -0.1083 -0.9419
  189SAPI   O2121713   2.984   4.884   6.732  0.1256  0.3052  0.2868
  189SAPI   C2121714   2.942   5.002   6.745  0.4221 -0.4165  1.1259
  189SAPI   O2221715   2.971   5.083   6.830  0.2998 -0.2001  0.2539
  189SAPI   C2221716   2.856   5.027   6.622 -0.8222  0.1099  0.6312
  189SAPI   H2R21717   2.927   5.018   6.537 -0.7696  1.5861  0.4922
  189SAPI   H2S21718   2.785   4.943   6.609  0.4609 -0.6542 -2.1645
  189SAPI    C321719   3.161   4.720   6.735  0.5007 -0.0256  0.3903
  189SAPI    HX21720   3.084   4.643   6.711 -1.7578  2.3280 -0.3428
  189SAPI    HY21721   3.243   4.680   6.798  0.4273  1.7228  1.6798
  189SAPI   O3121722   3.222   4.783   6.618  0.5411 -0.2069  0.0510
  189SAPI   C3121723   3.227   4.708   6.502  0.2622 -0.4655 -0.3928
  189SAPI   O3221724   3.189   4.593   6.503  0.0667  0.9241  0.3988
  189SAPI   C3221725   3.301   4.787   6.394  0.8819  0.6968 -0.0768
  189SAPI   H2X21726   3.405   4.811   6.424  1.1862 -0.2979 -0.2918
  189SAPI   H2Y21727   3.248   4.884   6.386 -3.0956 -1.2117  0.4950
  189SAPI   C2321728   2.787   5.158   6.620 -0.0306 -0.1239 -0.3404
  189SAPI   H3R21729   2.856   5.243   6.602 -0.6770  1.4536  3.5368
  189SAPI   H3S21730   2.751   5.185   6.722  0.4189 -3.3250  0.7853
  189SAPI   C2421731   2.662   5.170   6.527 -0.0077 -0.5813 -0.3308
  189SAPI   H4R21732   2.676   5.124   6.427 -1.0581  1.4878 -1.4866
  189SAPI   H4S21733   2.654   5.278   6.503 -1.2778 -0.5183  0.2969
  189SAPI   C2521734   2.521   5.131   6.572 -0.2132 -0.5882  0.6239
  189SAPI   H5R21735   2.515   5.112   6.680  0.7929 -0.8924  0.6414
  189SAPI   C2621736   2.409   5.105   6.501  0.1593 -0.2965 -0.3799
  189SAPI   H6R21737   2.319   5.077   6.557 -1.2047 -1.6415 -3.0487
  189SAPI   C2721738   2.388   5.120   6.357  0.1902  0.3083  0.0564
  189SAPI   H7R21739   2.485   5.137   6.305 -0.9261 -0.1411 -2.2724
  189SAPI   H7S21740   2.323   5.209   6.343  0.4854  0.5081 -0.0516
  189SAPI   C2821741   2.310   4.997   6.301 -0.0046  0.1321 -0.0093
  189SAPI   H8R21742   2.254   4.939   6.376  1.4386 -0.8353  0.3547
  189SAPI   C2921743   2.315   4.956   6.170 -0.2196  0.6811 -0.3111
  189SAPI   H9R21744   2.250   4.872   6.142 -1.3287  1.1531  0.7548
  189SAPI  C21021745   2.385   5.021   6.053  0.1690  0.1077  0.2607
  189SAPI  H10R21746   2.439   5.114   6.082  0.0253  0.6275 -1.0390
  189SAPI  H10S21747   2.306   5.056   5.983 -1.2542 -0.0513  1.7456
  189SAPI  C21121748   2.500   4.938   6.005  0.3893  0.4760  0.2578
  189SAPI  H11R21749   2.578   4.918   6.079  1.0519  0.9229 -0.3012
  189SAPI  C21221750   2.524   4.897   5.881  0.3859 -0.5012 -0.2885
  189SAPI  H12R21751   2.622   4.851   5.863  0.6127 -0.2763  0.3526
  189SAPI  C21321752   2.436   4.926   5.763  0.1637  0.4434  0.6690
  189SAPI  H13R21753   2.368   5.011   5.780 -1.2629 -0.3344 -0.9038
  189SAPI  H13S21754   2.377   4.832   5.762  0.0809  0.3060  4.6160
  189SAPI  C21421755   2.506   4.944   5.635  0.1652 -0.1552 -0.1696
  189SAPI  H14R21756   2.609   4.907   5.649  0.2818  0.3315  0.3061
  189SAPI  C21521757   2.468   4.998   5.523 -0.3541 -0.0558  0.9376
  189SAPI  H15R21758   2.536   5.006   5.437 -0.7935  2.1006  0.7252
  189SAPI  C21621759   2.329   5.051   5.500  0.3159  0.0314 -0.2577
  189SAPI  H16R21760   2.344   5.157   5.472  1.0506  0.2879  1.0083
  189SAPI  H16S21761   2.270   5.049   5.595 -0.4577 -0.7263 -0.7427
  189SAPI  C21721762   2.249   4.969   5.394 -0.8979  0.1298  0.5057
  189SAPI  H17R21763   2.151   5.022   5.388  0.4162  2.9219  1.6969
  189SAPI  H17S21764   2.228   4.864   5.424 -0.3252 -0.4451 -1.0213
  189SAPI  C21821765   2.311   4.972   5.257 -0.3932 -0.5134 -0.2078
  189SAPI  H18R21766   2.406   4.914   5.258  0.5166  0.8945  1.9963
  189SAPI  H18S21767   2.332   5.071   5.212  1.7911  0.6385  2.9577
  189SAPI  C21921768   2.218   4.887   5.159  0.2037  0.3719  0.1851
  189SAPI  H19R21769   2.118   4.879   5.207  0.2910  2.4453  0.8178
  189SAPI  H19S21770   2.251   4.782   5.146 -2.8910 -0.3728 -3.1627
  189SAPI  C22021771   2.212   4.942   5.016 -0.1610  0.2019  0.2282
  189SAPI  H20R21772   2.145   4.882   4.951 -0.9800  1.5383 -0.2025
  189SAPI  H20S21773   2.305   4.929   4.956 -0.7351 -1.0655 -0.4205
  189SAPI  H20T21774   2.182   5.049   5.002  0.7526  0.2758 -1.4547
  189SAPI   C3321775   3.295   4.701   6.263 -0.3612  0.9823  0.2887
  189SAPI   H3X21776   3.195   4.667   6.228  0.5359 -0.4681 -1.0096
  189SAPI   H3Y21777   3.355   4.611   6.290 -3.6183 -1.1447  1.0873
  189SAPI   C3421778   3.362   4.783   6.153 -0.7787 -0.2692  0.7206
  189SAPI   H4X21779   3.467   4.807   6.179 -1.0113  0.6997  0.8258
  189SAPI   H4Y21780   3.303   4.875   6.130 -1.1283 -0.4538  0.8798
  189SAPI   C3521781   3.371   4.705   6.019 -0.1093 -0.2941 -0.1399
  189SAPI   H5X21782   3.280   4.649   5.987  1.6718 -2.3590 -1.9436
  189SAPI   H5Y21783   3.450   4.628   6.032  0.6281  0.6206  0.9306
  189SAPI   C3621784   3.399   4.791   5.894  0.6209  0.3077 -0.6859
  189SAPI   H6X21785   3.484   4.861   5.907  1.3533 -0.8160  1.0227
  189SAPI   H6Y21786   3.308   4.850   5.870  0.3450 -1.1420 -3.5635
  189SAPI   C3721787   3.433   4.708   5.773 -0.1303  0.3384  0.3630
  189SAPI   H7X21788   3.365   4.626   5.740  0.5519  0.6174 -1.9275
  189SAPI   H7Y21789   3.529   4.654   5.788 -0.5630 -0.9386 -1.0661
  189SAPI   C3821790   3.444   4.810   5.658 -0.5094 -0.0043 -0.0132
  189SAPI   H8X21791   3.512   4.892   5.691 -0.0069 -0.9026  1.2513
  189SAPI   H8Y21792   3.342   4.851   5.647 -0.8730 -0.2253  2.1395
  189SAPI   C3921793   3.503   4.747   5.529 -0.0190 -0.0094  0.5557
  189SAPI   H9X21794   3.422   4.736   5.453  1.8166 -1.6236 -1.3060
  189SAPI   H9Y21795   3.544   4.645   5.546  0.2077  0.0370  0.2866
  189SAPI  C31021796   3.617   4.833   5.477 -0.2826  0.6174  0.1855
  189SAPI  H10X21797   3.718   4.829   5.524  1.3960  0.0206 -3.1321
  189SAPI  H10Y21798   3.585   4.939   5.478  0.9011  1.0769 -2.3040
  189SAPI  C31121799   3.645   4.806   5.329 -0.4565  0.4675 -0.1228
  189SAPI  H11X21800   3.559   4.814   5.259 -0.5180 -0.2816 -0.1434
  189SAPI  H11Y21801   3.659   4.696   5.328  0.8139  0.6004  0.7615
  189SAPI  C31221802   3.767   4.873   5.264  0.2344 -0.2959 -0.2266
  189SAPI  H12X21803   3.861   4.869   5.322  1.2667 -2.1889 -1.9177
  189SAPI  H12Y21804   3.746   4.979   5.239 -0.3578  0.1140  1.8245
  189SAPI  C31321805   3.799   4.806   5.131  0.1391 -0.0703 -0.2686
  189SAPI  H13X21806   3.825   4.699   5.148 -2.2255 -0.4013  1.7683
  189SAPI  H13Y21807   3.894   4.861   5.112  1.4187 -0.7910  3.2689
  189SAPI  C31421808   3.691   4.821   5.021  0.0541  0.0453 -0.0271
  189SAPI  H14X21809   3.658   4.927   5.030  0.4646  0.2835 -1.1446
  189SAPI  H14Y21810   3.616   4.748   5.057  1.3603 -0.3383  2.1094
  189SAPI  C31521811   3.747   4.779   4.886  0.6309 -0.2543 -0.3699
  189SAPI  H15X21812   3.759   4.668   4.886  0.6927 -0.2526  0.5249
  189SAPI  H15Y21813   3.845   4.829   4.871 -0.4682  2.4507  0.9189
  189SAPI  C31621814   3.656   4.821   4.771  0.3269  0.4079  0.0418
  189SAPI  H16X21815   3.634   4.927   4.795  1.6243  0.1833  2.5041
  189SAPI  H16Y21816   3.564   4.760   4.758  1.6197 -1.5918 -0.1274
  189SAPI  C31721817   3.727   4.830   4.634  0.3330 -0.2018  0.5015
  189SAPI  H17X21818   3.772   4.730   4.613 -0.4803 -0.3136 -0.8035
  189SAPI  H17Y21819   3.810   4.904   4.628  0.4536 -0.4590 -1.4266
  189SAPI  C31821820   3.629   4.854   4.514 -0.4238  0.2996 -0.2583
  189SAPI  H18X21821   3.671   4.817   4.418  0.0697  2.6583 -1.0219
  189SAPI  H18Y21822   3.616   4.963   4.494 -1.6551  0.2310  0.0736
  189SAPI  H18Z21823   3.527   4.814   4.533 -0.2808 -0.4945 -1.1078
  190SAPI   C1221824   3.090   0.119   6.820 -0.2502 -0.2228 -0.2475
  190SAPI    H221825   3.050   0.082   6.917  3.5170 -1.3077  1.0838
  190SAPI    O221826   2.985   0.130   6.727 -0.2667  0.0930 -0.4456
  190SAPI   HO221827   2.960   0.039   6.711  2.0410 -0.8830  0.9725
  190SAPI   C1321828   3.154   0.249   6.830 -0.1632 -0.3496 -0.7689
  190SAPI    H321829   3.242   0.241   6.898 -1.9441 -1.1364  1.6039
  190SAPI    O321830   3.065   0.351   6.892 -0.0486  0.2013 -0.1057
  190SAPI   HO321831   3.119   0.430   6.901  1.1108 -0.6228  0.2665
  190SAPI   C1421832   3.209   0.292   6.693  0.2932 -0.9408  0.0147
  190SAPI    H421833   3.117   0.321   6.639  0.2402 -0.0092  0.5969
  190SAPI    O421834   3.285   0.415   6.695 -0.3745 -0.0982  0.4295
  190SAPI   HO421835   3.231   0.494   6.685  0.0114  0.3131  1.4431
  190SAPI   C1521836   3.263   0.180   6.603 -0.1374 -0.2455  0.9510
  190SAPI    H521837   3.373   0.188   6.613 -0.1109 -0.3709  0.7540
  190SAPI    O521838   3.240   0.203   6.465 -0.1998 -0.3092  0.0213
  190SAPI   HO521839   3.320   0.210   6.413  0.7397 -0.9464  1.3259
  190SAPI   C1621840   3.232   0.030   6.637  0.0119  0.0866  0.2458
  190SAPI    H621841   3.159  -0.007   6.563  1.5621  0.4673 -1.5440
  190SAPI    O621842   3.345  -0.048   6.612  0.1691  0.1338 -0.0216
  190SAPI   HO621843   3.308  -0.135   6.595  0.0235  0.5085 -1.7357
  190SAPI   C1121844   3.187   0.008   6.782  0.0960  0.1795  0.6047
  190SAPI    H121845   3.280   0.020   6.842  0.8061  4.1793 -0.9193
  190SAPI     P21846   3.200  -0.251   6.851  0.0182  0.0996  0.2465
  190SAPI   O1321847   3.098  -0.353   6.886 -0.1239 -0.4361  0.4870
  190SAPI   O1421848   3.300  -0.216   6.955  0.2183  0.2545  0.8757
  190SAPI   O1221849   3.118  -0.118   6.800 -0.1131  0.0771  0.2646
  190SAPI   O1121850   3.272  -0.306   6.720  0.0514  0.7474  0.3538
  190SAPI    C121851   3.201  -0.393   6.631  0.4298  0.6307 -0.2544
  190SAPI    HA21852   3.187  -0.493   6.677  0.2311  1.0870  0.6904
  190SAPI    HB21853   3.103  -0.355   6.596  0.7756  0.0297 -1.9777
  190SAPI    C221854   3.283  -0.411   6.507 -0.0328 -0.6835  0.3816
  190SAPI    HS21855   3.377  -0.455   6.548  1.0861  1.7896  0.6769
  190SAPI   O2121856   3.302  -0.279   6.443 -0.0651  0.1599  0.0492
  190SAPI   C2121857   3.410  -0.273   6.365 -0.2071 -0.5318  0.4191
  190SAPI   O2221858   3.491  -0.356   6.347 -0.1287 -0.2948  0.4850
  190SAPI   C2221859   3.412  -0.144   6.296  0.4174 -0.6574 -0.4574
  190SAPI   H2R21860   3.346  -0.079   6.358  0.5375 -1.3607  0.4356
  190SAPI   H2S21861   3.511  -0.096   6.283  0.1622 -0.2090 -0.7899
  190SAPI    C321862   3.210  -0.514   6.418  0.3869 -0.0987 -0.0998
  190SAPI    HX21863   3.109  -0.470   6.428  0.6482  0.4314  0.2822
  190SAPI    HY21864   3.213  -0.615   6.464 -1.1649  0.7244  1.9513
  190SAPI   O3121865   3.243  -0.521   6.274 -0.5796  0.6134  0.3179
  190SAPI   C3121866   3.350  -0.599   6.254 -0.2315 -0.0767  0.4147
  190SAPI   O3221867   3.414  -0.656   6.341 -0.1018 -1.0404  0.4603
  190SAPI   C3221868   3.382  -0.620   6.104 -0.7890  0.2408  0.4376
  190SAPI   H2X21869   3.370  -0.726   6.074  1.1572  0.7379 -2.5827
  190SAPI   H2Y21870   3.489  -0.593   6.092 -1.1846  1.0082 -1.8411
  190SAPI   C2321871   3.357  -0.160   6.147  0.7746  0.1696  0.8867
  190SAPI   H3R21872   3.255  -0.197   6.173  1.0811 -0.5574  1.1055
  190SAPI   H3S21873   3.399  -0.243   6.085 -1.4652 -1.3477  1.2857
  190SAPI   C2421874   3.354  -0.031   6.060 -0.2538 -0.3602 -0.2272
  190SAPI   H4R21875   3.298   0.044   6.120  1.8223  0.9253  0.1917
  190SAPI   H4S21876   3.297  -0.056   5.968  0.8006 -2.1756 -0.4195
  190SAPI   C2521877   3.488   0.034   6.028 -0.4867 -1.0416  0.3127
  190SAPI   H5R21878   3.517   0.114   6.098 -0.7317  1.3701 -2.1782
  190SAPI   C2621879   3.573   0.007   5.927  0.1870  0.3495  0.2849
  190SAPI   H6R21880   3.659   0.077   5.926 -0.1856  1.0907  4.4761
  190SAPI   C2721881   3.557  -0.089   5.810 -0.3328 -0.4262 -0.5238
  190SAPI   H7R21882   3.605  -0.049   5.717 -1.6929 -1.7746 -1.8553
  190SAPI   H7S21883   3.447  -0.095   5.794 -0.7483  0.8840  1.4987
  190SAPI   C2821884   3.600  -0.235   5.835  0.2232 -1.0345  0.0243
  190SAPI   H8R21885   3.581  -0.260   5.941 -0.1460  2.2473  0.8414
  190SAPI   C2921886   3.665  -0.320   5.754  0.6256 -0.6502  0.8552
  190SAPI   H9R21887   3.699  -0.409   5.810 -1.7425 -1.2942  1.3850
  190SAPI  C21021888   3.711  -0.305   5.610 -0.0466 -0.7934 -0.2006
  190SAPI  H10R21889   3.689  -0.202   5.576 -1.5435 -0.4947  1.5195
  190SAPI  H10S21890   3.652  -0.363   5.536  0.2705 -1.0999 -0.2160
  190SAPI  C21121891   3.852  -0.348   5.584 -0.4626  0.2598 -0.5049
  190SAPI  H11R21892   3.864  -0.451   5.619  0.3497  0.3266 -0.5719
  190SAPI  C21221893   3.957  -0.269   5.569 -0.6411 -0.1059 -0.4090
  190SAPI  H12R21894   4.057  -0.313   5.569 -1.3238 -2.0080 -3.3253
  190SAPI  C21321895   3.958  -0.115   5.559  0.2331 -0.5542  0.4136
  190SAPI  H13R21896   4.048  -0.074   5.608 -0.8803  0.7146  1.4932
  190SAPI  H13S21897   3.885  -0.062   5.624  2.1559  1.5756  0.9446
  190SAPI  C21421898   3.945  -0.075   5.413 -0.2529  0.1134 -0.4952
  190SAPI  H14R21899   3.930  -0.161   5.347  1.1164  0.6386 -1.5452
  190SAPI  C21521900   3.965   0.046   5.356 -0.3045  0.3467 -1.0207
  190SAPI  H15R21901   3.991   0.058   5.249  0.2560  3.9370 -0.6274
  190SAPI  C21621902   4.002   0.170   5.433  0.0107  0.1107  0.1235
  190SAPI  H16R21903   3.989   0.147   5.541  1.0258 -2.9631 -0.3031
  190SAPI  H16S21904   3.941   0.255   5.397  0.4673 -0.0528 -1.1008
  190SAPI  C21721905   4.147   0.226   5.411 -0.2626  0.3272  0.0930
  190SAPI  H17R21906   4.163   0.306   5.335  3.5832 -0.2154  0.1516
  190SAPI  H17S21907   4.223   0.147   5.394  0.3062  0.9859 -0.5315
  190SAPI  C21821908   4.202   0.295   5.535  0.0558 -0.8238 -0.0331
  190SAPI  H18R21909   4.311   0.316   5.528 -0.1766  1.0246  1.2240
  190SAPI  H18S21910   4.183   0.230   5.623 -3.3855  0.8809  0.6362
  190SAPI  C21921911   4.138   0.432   5.567 -0.5677 -0.7936 -0.3701
  190SAPI  H19R21912   4.028   0.417   5.570 -1.0124  2.1011  1.8227
  190SAPI  H19S21913   4.152   0.505   5.484 -3.4728  0.7435  0.3376
  190SAPI  C22021914   4.181   0.501   5.698 -1.3035 -0.2252 -0.0603
  190SAPI  H20R21915   4.117   0.590   5.716  0.3059  0.6969  1.3013
  190SAPI  H20S21916   4.285   0.539   5.693 -0.3160 -2.7019  0.1016
  190SAPI  H20T21917   4.180   0.445   5.793  1.9418  0.2361  0.3753
  190SAPI   C3321918   3.304  -0.526   6.006 -0.3052  0.6258  0.1791
  190SAPI   H3X21919   3.320  -0.420   6.036  0.5059  1.0357 -1.5779
  190SAPI   H3Y21920   3.196  -0.548   6.023  0.3767 -2.0707  1.5038
  190SAPI   C3421921   3.346  -0.537   5.860 -0.6243  0.0330 -0.3525
  190SAPI   H4X21922   3.324  -0.643   5.834 -1.6158 -0.1208  0.9982
  190SAPI   H4Y21923   3.453  -0.516   5.840 -0.5256 -1.4978 -1.6347
  190SAPI   C3521924   3.253  -0.452   5.779  0.1319 -0.1393  0.1893
  190SAPI   H5X21925   3.261  -0.349   5.819 -2.4824  0.4581 -0.6835
  190SAPI   H5Y21926   3.146  -0.475   5.798 -0.1517  0.8700 -0.1316
  190SAPI   C3621927   3.293  -0.469   5.639  0.1848 -0.6977  0.5426
  190SAPI   H6X21928   3.301  -0.575   5.608  2.3426  0.0300 -1.7786
  190SAPI   H6Y21929   3.393  -0.426   5.617  1.3502 -3.2120  0.5932
  190SAPI   C3721930   3.195  -0.398   5.539 -0.1455 -0.6217  0.3219
  190SAPI   H7X21931   3.192  -0.289   5.562 -2.0202 -0.4217 -0.6851
  190SAPI   H7Y21932   3.093  -0.436   5.559  0.6262 -1.5616  2.9178
  190SAPI   C3821933   3.236  -0.421   5.391  0.6220 -0.0096 -0.0085
  190SAPI   H8X21934   3.234  -0.529   5.366  0.0236 -0.5731  2.2031
  190SAPI   H8Y21935   3.333  -0.370   5.370 -0.2166  1.0902 -1.3595
  190SAPI   C3921936   3.140  -0.346   5.285  0.3512 -0.3330 -0.2451
  190SAPI   H9X21937   3.036  -0.381   5.302 -0.0107  1.0941  0.5825
  190SAPI   H9Y21938   3.159  -0.369   5.178  0.0539  0.2997 -0.4401
  190SAPI  C31021939   3.149  -0.193   5.288  0.5904  0.6704  0.1723
  190SAPI  H10X21940   3.256  -0.168   5.305  0.5072  0.6446  0.7700
  190SAPI  H10Y21941   3.089  -0.146   5.368  0.9637  0.7164  0.4287
  190SAPI  C31121942   3.122  -0.136   5.148  0.5328  0.0243 -0.1542
  190SAPI  H11X21943   3.020  -0.159   5.109  1.1326  0.4047 -2.0398
  190SAPI  H11Y21944   3.188  -0.185   5.073  0.5227  1.4363 -1.1093
  190SAPI  C31221945   3.147   0.011   5.148  1.4936 -1.0274  0.2300
  190SAPI  H12X21946   3.240   0.033   5.204  0.9495  0.2107  0.6856
  190SAPI  H12Y21947   3.055   0.059   5.189  1.6316 -1.5055  1.1153
  190SAPI  C31321948   3.174   0.055   5.000  0.4630 -0.0093  0.6226
  190SAPI  H13X21949   3.264  -0.006   4.980 -1.8488 -4.2194  1.6941
  190SAPI  H13Y21950   3.197   0.164   5.006  0.3669 -0.0055  0.9980
  190SAPI  C31421951   3.064   0.036   4.905  0.3361 -0.3940 -0.2344
  190SAPI  H14X21952   3.059   0.126   4.840 -0.0876  0.9954  1.6391
  190SAPI  H14Y21953   2.968   0.035   4.961  0.2662  2.1016 -0.2158
  190SAPI  C31521954   3.079  -0.087   4.816 -0.1411 -0.2915  0.3214
  190SAPI  H15X21955   3.098  -0.181   4.873  0.6090 -1.2164 -1.3677
  190SAPI  H15Y21956   3.155  -0.060   4.739  0.5933  1.7181  1.6672
  190SAPI  C31621957   2.951  -0.126   4.734 -0.5631 -0.4312 -0.8369
  190SAPI  H16X21958   2.912  -0.041   4.675 -1.4008 -0.5961 -0.5380
  190SAPI  H16Y21959   2.875  -0.163   4.806  0.4433  0.6279  0.8521
  190SAPI  C31721960   2.982  -0.236   4.628 -0.3383 -0.4574 -0.1805
  190SAPI  H17X21961   3.048  -0.310   4.679  0.8867 -0.4431 -1.6787
  190SAPI  H17Y21962   3.039  -0.175   4.555 -0.5150 -0.1316 -0.0503
  190SAPI  C31821963   2.855  -0.306   4.575 -0.0732  0.0087 -0.3570
  190SAPI  H18X21964   2.871  -0.371   4.486 -3.3786 -1.5279  0.0257
  190SAPI  H18Y21965   2.783  -0.228   4.543  2.2677  3.0018  1.2198
  190SAPI  H18Z21966   2.808  -0.369   4.654 -0.9215  0.6621 -0.3307
  191SAPI   C1221967   2.008   1.961   1.976  0.1870  0.1326 -0.1616
  191SAPI    H221968   2.020   1.874   2.044  1.1066  1.1466  1.0020
  191SAPI    O221969   2.104   1.948   1.871 -0.2429 -0.6456  0.0566
  191SAPI   HO221970   2.181   1.912   1.916 -1.5252 -2.4083  0.9676
  191SAPI   C1321971   1.868   1.962   1.937 -0.6762  0.0881  0.1915
  191SAPI    H321972   1.808   1.984   2.027  1.7313 -0.4967  2.0490
  191SAPI    O321973   1.819   1.839   1.885  0.4462  0.5884  0.6449
  191SAPI   HO321974   1.750   1.806   1.943 -0.9157 -0.8293 -1.6213
  191SAPI   C1421975   1.845   2.065   1.831 -0.1593  0.3388 -0.2224
  191SAPI    H421976   1.903   2.043   1.739  0.3663  1.3776 -0.1545
  191SAPI    O421977   1.704   2.076   1.801  0.1404 -0.1560  0.1673
  191SAPI   HO421978   1.686   2.009   1.735  0.6226  0.0834 -0.2061
  191SAPI   C1521979   1.909   2.199   1.867 -0.0127 -0.0975  0.1343
  191SAPI    H521980   1.822   2.260   1.900 -0.5137 -0.8927  0.3064
  191SAPI    O521981   1.944   2.268   1.745 -0.3707 -0.4395 -0.0127
  191SAPI   HO521982   1.905   2.356   1.746  1.7969  0.6239  2.1292
  191SAPI   C1621983   2.009   2.214   1.981 -0.3389  0.1739  0.2513
  191SAPI    H621984   2.106   2.241   1.935  0.7151 -2.0453  1.0064
  191SAPI    O621985   1.978   2.317   2.078 -0.2089  0.0236  0.5312
  191SAPI   HO621986   1.902   2.280   2.122  0.1753  0.8066  1.9185
  191SAPI   C1121987   2.041   2.085   2.050 -0.0539  0.5333 -0.1373
  191SAPI    H121988   1.974   2.085   2.139  1.9463  3.0760  1.5224
  191SAPI     P21989   2.243   1.982   2.217  0.0411  0.8624 -0.0448
  191SAPI   O1321990   2.389   1.989   2.215  0.0548  1.1247  0.8430
  191SAPI   O1421991   2.177   1.849   2.208 -0.3079 -0.0230  0.5738
  191SAPI   O1221992   2.178   2.081   2.104  0.1503  0.1325 -0.1901
  191SAPI   O1121993   2.189   2.053   2.348 -0.0836  0.1474  0.4241
  191SAPI    C121994   2.216   2.191   2.366 -0.0083 -0.1671  0.9418
  191SAPI    HA21995   2.324   2.216   2.374 -0.4821  1.6551  2.2852
  191SAPI    HB21996   2.184   2.251   2.279 -2.3103 -0.4506  1.5131
  191SAPI    C221997   2.150   2.266   2.487 -0.0153 -0.2085 -0.7305
  191SAPI    HS21998   2.194   2.367   2.502 -0.9815  0.3966 -1.8336
  191SAPI   O2121999   2.173   2.194   2.611  0.1593 -0.4591 -0.3954
  191SAPI   C2122000   2.295   2.179   2.660 -0.6857 -0.3032  0.5373
  191SAPI   O2222001   2.395   2.230   2.617 -0.0451  0.4568  0.3052
  191SAPI   C2222002   2.280   2.126   2.799  0.7299  0.0585  0.0510
  191SAPI   H2R22003   2.175   2.144   2.831  0.2961 -1.4775 -0.4234
  191SAPI   H2S22004   2.299   2.017   2.809  0.4148 -0.0939 -0.9118
  191SAPI    C322005   1.995   2.273   2.465 -0.4004  0.0514  0.1115
  191SAPI    HX22006   1.948   2.177   2.437  2.3388 -1.3557  0.0604
  191SAPI    HY22007   1.983   2.327   2.369 -4.1252 -0.4205  0.1733
  191SAPI   O3122008   1.919   2.342   2.563  0.3905  0.6953 -0.7825
  191SAPI   C3122009   1.850   2.258   2.651 -0.3633  0.3746  0.2689
  191SAPI   O3222010   1.834   2.139   2.629  0.6760 -0.1319 -0.0866
  191SAPI   C3222011   1.807   2.322   2.783  0.4553  1.0056  0.6981
  191SAPI   H2X22012   1.704   2.360   2.766 -0.5815 -1.5897  0.7989
  191SAPI   H2Y22013   1.865   2.413   2.808  0.2195  1.3622 -0.0181
  191SAPI   C2322014   2.378   2.194   2.894  0.1512  0.0974 -0.7141
  191SAPI   H3R22015   2.360   2.304   2.888  1.1730  0.3835  0.9973
  191SAPI   H3S22016   2.487   2.181   2.877  0.0648 -0.9548 -0.4952
  191SAPI   C2422017   2.360   2.138   3.034  0.3030 -0.2854 -0.4627
  191SAPI   H4R22018   2.454   2.140   3.094 -0.9160 -0.0490  1.4937
  191SAPI   H4S22019   2.351   2.027   3.027 -0.9985 -0.5240  3.1006
  191SAPI   C2522020   2.246   2.207   3.100  0.7064  0.3947 -0.5494
  191SAPI   H5R22021   2.255   2.317   3.090 -0.6929  0.4154 -1.9610
  191SAPI   C2622022   2.141   2.157   3.170  0.1423 -0.4980 -0.8074
  191SAPI   H6R22023   2.059   2.219   3.211 -2.0021 -1.2867 -3.5263
  191SAPI   C2722024   2.130   2.010   3.198  0.0336 -0.0580  0.3303
  191SAPI   H7R22025   2.060   1.996   3.282  0.0085  1.4944  0.5924
  191SAPI   H7S22026   2.230   1.983   3.239  0.2675  0.9390  0.4416
  191SAPI   C2822027   2.098   1.919   3.085  0.1880 -0.1856  0.1788
  191SAPI   H8R22028   2.025   1.963   3.016  0.2833  0.4293  0.4614
  191SAPI   C2922029   2.095   1.789   3.092 -0.5751  1.0311 -0.2979
  191SAPI   H9R22030   2.056   1.746   2.998 -2.4537 -0.3440  1.0096
  191SAPI  C21022031   2.156   1.701   3.195  0.0956 -0.0651  0.1781
  191SAPI  H10R22032   2.169   1.753   3.293  2.1849 -0.0437 -0.0595
  191SAPI  H10S22033   2.260   1.681   3.162  0.0072 -1.9154  0.9078
  191SAPI  C21122034   2.086   1.574   3.211 -0.2774  0.0638 -0.0876
  191SAPI  H11R22035   2.080   1.514   3.119  2.9886  0.2882 -0.5747
  191SAPI  C21222036   2.018   1.522   3.318  0.0645 -0.0137 -0.5236
  191SAPI  H12R22037   1.960   1.429   3.309 -2.2708  1.4161 -1.0372
  191SAPI  C21322038   2.001   1.580   3.447 -0.6090  0.5699 -0.2600
  191SAPI  H13R22039   1.891   1.592   3.448 -1.1119 -2.3240  3.1763
  191SAPI  H13S22040   2.040   1.684   3.455 -0.6474  0.6130 -0.6418
  191SAPI  C21422041   2.043   1.492   3.564 -0.8841 -0.9862 -0.6000
  191SAPI  H14R22042   1.990   1.396   3.568 -0.0752 -1.4075  0.3454
  191SAPI  C21522043   2.142   1.518   3.653 -0.1638  0.4182  0.1400
  191SAPI  H15R22044   2.150   1.447   3.737 -0.9476 -0.5096 -0.5497
  191SAPI  C21622045   2.229   1.636   3.682  0.2140  0.0024 -0.0574
  191SAPI  H16R22046   2.253   1.690   3.588 -2.2682 -1.4656 -1.6613
  191SAPI  H16S22047   2.324   1.606   3.732  1.8864  2.5896 -1.4826
  191SAPI  C21722048   2.158   1.729   3.782  0.1768  0.0407  0.1786
  191SAPI  H17R22049   2.237   1.785   3.836 -0.8933  1.2239  0.5615
  191SAPI  H17S22050   2.099   1.666   3.853 -0.4734  1.0520  0.5563
  191SAPI  C21822051   2.060   1.838   3.732  0.8693 -0.7518  0.7961
  191SAPI  H18R22052   2.001   1.886   3.813 -0.7786 -1.4875  0.0811
  191SAPI  H18S22053   1.976   1.795   3.673  0.7865 -0.3744  0.6309
  191SAPI  C21922054   2.116   1.949   3.642 -0.1722  0.5085  0.4476
  191SAPI  H19R22055   2.138   1.897   3.547 -3.9533  0.7880 -0.7717
  191SAPI  H19S22056   2.210   1.986   3.689  0.5392 -0.0034 -0.5455
  191SAPI  C22022057   2.018   2.063   3.621  0.2318 -0.5503  0.4106
  191SAPI  H20R22058   1.928   2.023   3.570 -0.9025  0.9483  1.1813
  191SAPI  H20S22059   2.066   2.151   3.573  0.6448 -0.5487  0.8207
  191SAPI  H20T22060   1.988   2.096   3.722 -2.6798 -1.8543  0.0742
  191SAPI   C3322061   1.805   2.227   2.896 -0.7619 -0.3567 -0.1073
  191SAPI   H3X22062   1.899   2.168   2.910  0.3756  0.8334 -2.2249
  191SAPI   H3Y22063   1.714   2.166   2.878 -1.1405 -0.1625  1.0849
  191SAPI   C3422064   1.768   2.314   3.009  0.2292 -0.2458  0.3241
  191SAPI   H4X22065   1.688   2.385   2.980  1.4049  0.9113 -0.1770
  191SAPI   H4Y22066   1.858   2.378   3.020  0.9850 -0.5731 -2.8941
  191SAPI   C3522067   1.737   2.227   3.134  0.0656  0.2075 -0.2465
  191SAPI   H5X22068   1.814   2.149   3.122 -0.0931  0.4076 -3.2276
  191SAPI   H5Y22069   1.636   2.183   3.119 -0.6457  1.4474  0.6648
  191SAPI   C3622070   1.726   2.303   3.266 -0.1141 -0.0740  0.3063
  191SAPI   H6X22071   1.645   2.378   3.248  0.0183  0.4121  1.6822
  191SAPI   H6Y22072   1.823   2.353   3.284  0.1722 -0.4320 -0.1905
  191SAPI   C3722073   1.688   2.223   3.382 -0.1620  0.2898 -0.2105
  191SAPI   H7X22074   1.767   2.146   3.399 -1.1802 -0.1931  3.0385
  191SAPI   H7Y22075   1.591   2.178   3.352 -0.3163 -0.8477  1.8085
  191SAPI   C3822076   1.666   2.304   3.508 -0.6743  1.4975  1.3964
  191SAPI   H8X22077   1.579   2.371   3.491 -1.3599  0.0845 -1.0986
  191SAPI   H8Y22078   1.758   2.365   3.519  1.5669 -1.3756  0.1247
  191SAPI   C3922079   1.641   2.218   3.636 -0.2047  0.5171 -0.2583
  191SAPI   H9X22080   1.730   2.165   3.678 -1.2692 -0.8975  0.2848
  191SAPI   H9Y22081   1.578   2.130   3.612 -1.1646  0.5420  1.9222
  191SAPI  C31022082   1.587   2.300   3.749  0.3371 -0.0583  0.3687
  191SAPI  H10X22083   1.503   2.357   3.704  1.0205 -0.6159 -1.6905
  191SAPI  H10Y22084   1.666   2.373   3.777 -0.0871  0.9435 -0.9733
  191SAPI  C31122085   1.554   2.218   3.878  0.3335 -0.1917 -0.2329
  191SAPI  H11X22086   1.596   2.270   3.967 -0.7011  0.2571  0.0126
  191SAPI  H11Y22087   1.621   2.130   3.872  0.4308 -0.2182  1.1241
  191SAPI  C31222088   1.409   2.184   3.888  0.2606  0.0775 -0.0969
  191SAPI  H12X22089   1.388   2.140   3.788 -1.9357  0.8256 -0.0174
  191SAPI  H12Y22090   1.358   2.279   3.911  0.2923 -0.1044  0.7705
  191SAPI  C31322091   1.396   2.070   3.995  0.7742 -0.1388  0.0755
  191SAPI  H13X22092   1.352   2.121   4.084 -0.4855  0.1781 -0.6989
  191SAPI  H13Y22093   1.497   2.028   4.015  1.3123  0.1864 -1.8232
  191SAPI  C31422094   1.296   1.961   3.946  0.7142  0.3643 -0.2725
  191SAPI  H14X22095   1.292   1.876   4.017 -1.6065  0.4199 -0.2726
  191SAPI  H14Y22096   1.331   1.924   3.848  2.1350 -1.3984  0.8347
  191SAPI  C31522097   1.155   2.021   3.937  0.2484  0.2627 -0.0387
  191SAPI  H15X22098   1.155   2.081   3.843  1.3290  0.5860  0.1469
  191SAPI  H15Y22099   1.137   2.100   4.013 -1.1435  0.4472 -0.5330
  191SAPI  C31622100   1.040   1.921   3.940 -0.4651 -0.2357  0.2105
  191SAPI  H16X22101   1.042   1.865   4.036 -1.6231  0.4093  0.6257
  191SAPI  H16Y22102   1.053   1.855   3.851 -1.3270  0.8262 -0.7391
  191SAPI  C31722103   0.900   1.985   3.933  0.2693  0.3339 -0.1866
  191SAPI  H17X22104   0.893   2.041   3.837  1.1793 -0.1270 -0.5294
  191SAPI  H17Y22105   0.879   2.061   4.010  2.6197  0.4408  0.4100
  191SAPI  C31822106   0.786   1.880   3.942 -0.5083 -0.6293  0.4388
  191SAPI  H18X22107   0.798   1.814   4.031 -1.2315 -0.3527  0.7467
  191SAPI  H18Y22108   0.789   1.824   3.846  0.1349  1.3912 -0.7824
  191SAPI  H18Z22109   0.695   1.942   3.961  1.0556  2.0887 -0.2710
  192SAPI   C1222110   5.357   6.741   1.953  0.2422  0.3048 -0.2944
  192SAPI    H222111   5.341   6.819   2.031 -1.2696 -1.6660  1.4705
  192SAPI    O222112   5.233   6.710   1.893  0.1545 -0.0922  0.0383
  192SAPI   HO222113   5.161   6.678   1.948  1.7042 -0.4647  1.9542
  192SAPI   C1322114   5.456   6.800   1.853 -0.1518 -0.7705  0.9926
  192SAPI    H322115   5.553   6.816   1.905 -1.1661  0.9271  2.4547
  192SAPI    O322116   5.420   6.930   1.809  0.2184  0.1385 -0.3416
  192SAPI   HO322117   5.424   6.929   1.714 -1.1910 -1.0107 -0.4231
  192SAPI   C1422118   5.475   6.713   1.735 -0.8404  0.8794  0.3331
  192SAPI    H422119   5.379   6.699   1.681 -0.9251 -1.4054  0.9738
  192SAPI    O422120   5.558   6.766   1.623 -0.2445 -0.7274 -0.5766
  192SAPI   HO422121   5.645   6.796   1.652 -0.6472 -0.3788  0.2754
  192SAPI   C1522122   5.508   6.564   1.777 -0.1721 -0.0840  0.6561
  192SAPI    H522123   5.615   6.580   1.803 -0.3398 -1.2712  2.2023
  192SAPI    O522124   5.494   6.470   1.672 -0.5514  0.6687  0.2629
  192SAPI   HO522125   5.493   6.380   1.706  0.4421 -0.0104 -1.4246
  192SAPI   C1622126   5.458   6.508   1.913  0.3625 -0.1673  0.4350
  192SAPI    H622127   5.360   6.467   1.882 -0.1706  1.7455 -0.5443
  192SAPI    O622128   5.537   6.409   1.976  0.5318  0.0634  0.0168
  192SAPI   HO622129   5.510   6.403   2.068  0.4349  0.2170  0.0009
  192SAPI   C1122130   5.423   6.617   2.016  0.1194  0.2442  0.1739
  192SAPI    H122131   5.518   6.645   2.066 -0.0073 -2.0512  1.8259
  192SAPI     P22132   5.388   6.555   2.272  0.1231  0.2715  0.2423
  192SAPI   O1322133   5.507   6.471   2.276  0.2673  0.6855 -0.3269
  192SAPI   O1422134   5.281   6.511   2.359  0.2102 -0.7141 -0.0880
  192SAPI   O1222135   5.331   6.570   2.117 -0.4657  0.5958 -0.2316
  192SAPI   O1122136   5.414   6.706   2.315  0.1157 -0.0076 -0.0748
  192SAPI    C122137   5.528   6.752   2.393 -0.7687  0.2176  1.0841
  192SAPI    HA22138   5.615   6.692   2.358 -2.6526 -2.3878  0.5110
  192SAPI    HB22139   5.552   6.858   2.371 -0.9525  0.0151 -0.1406
  192SAPI    C222140   5.501   6.743   2.544  0.1602  0.1574  0.1992
  192SAPI    HS22141   5.573   6.808   2.597  1.3009  0.0997 -1.2221
  192SAPI   O2122142   5.510   6.608   2.590 -0.3772  0.2651  0.4076
  192SAPI   C2122143   5.634   6.571   2.609 -0.3534 -0.1782 -0.3954
  192SAPI   O2222144   5.734   6.633   2.575 -0.1877 -0.1033  0.0397
  192SAPI   C2222145   5.628   6.440   2.689  0.7297 -0.0278 -0.9209
  192SAPI   H2R22146   5.525   6.409   2.714  0.9585 -0.6391 -0.7031
  192SAPI   H2S22147   5.652   6.363   2.613  2.6666  0.0091 -0.4143
  192SAPI    C322148   5.364   6.815   2.588 -0.0626  0.2106 -0.6875
  192SAPI    HX22149   5.279   6.788   2.522 -0.0969 -0.9124 -0.1966
  192SAPI    HY22150   5.384   6.921   2.560 -0.4786  0.7185  0.8227
  192SAPI   O3122151   5.324   6.811   2.731  0.2815  0.0761 -0.6282
  192SAPI   C3122152   5.249   6.705   2.765 -0.4712 -0.6934 -0.1004
  192SAPI   O3222153   5.207   6.621   2.692  0.4907 -0.6741 -0.1980
  192SAPI   C3222154   5.242   6.691   2.921  0.4296 -0.2898 -0.3612
  192SAPI   H2X22155   5.271   6.788   2.966 -0.0137 -0.7835  1.0293
  192SAPI   H2Y22156   5.308   6.609   2.956 -0.3055 -0.4448  0.6835
  192SAPI   C2322157   5.728   6.435   2.814 -0.1246  0.2413  0.1450
  192SAPI   H3R22158   5.716   6.523   2.881 -2.4974 -2.9098  4.3504
  192SAPI   H3S22159   5.835   6.434   2.784 -0.7903 -0.7566 -2.4483
  192SAPI   C2422160   5.694   6.316   2.903  0.2880  0.3641 -0.1646
  192SAPI   H4R22161   5.584   6.328   2.917  0.4842  2.0818  0.1757
  192SAPI   H4S22162   5.736   6.338   3.003  0.7753 -1.1229 -0.0216
  192SAPI   C2522163   5.744   6.188   2.850 -0.4795  0.4062 -0.1032
  192SAPI   H5R22164   5.687   6.145   2.766  2.4344 -0.4666 -1.7796
  192SAPI   C2622165   5.865   6.130   2.882 -0.0768  0.0730  0.4710
  192SAPI   H6R22166   5.903   6.040   2.830  0.2566  0.7150 -0.4205
  192SAPI   C2722167   5.952   6.185   2.987  0.4282 -0.3314 -0.1055
  192SAPI   H7R22168   5.957   6.293   2.965  1.9952 -0.7557 -2.0161
  192SAPI   H7S22169   6.050   6.141   2.960  0.1647 -2.9010  2.6048
  192SAPI   C2822170   5.918   6.154   3.128 -0.3410 -0.6023  0.7159
  192SAPI   H8R22171   5.855   6.065   3.144 -0.7294 -0.1687  1.6520
  192SAPI   C2922172   5.945   6.224   3.238 -0.4258  0.1101 -0.3793
  192SAPI   H9R22173   5.916   6.180   3.334 -2.3102  0.6827 -0.6481
  192SAPI  C21022174   6.023   6.353   3.238  0.1726  0.1649 -0.5757
  192SAPI  H10R22175   5.963   6.424   3.299  0.7590 -1.8404  2.5954
  192SAPI  H10S22176   6.040   6.388   3.134 -1.4301  0.2582 -0.8288
  192SAPI  C21122177   6.152   6.319   3.314  0.6254  0.8744  0.0457
  192SAPI  H11R22178   6.219   6.252   3.258  1.1135  0.4147  1.1434
  192SAPI  C21222179   6.193   6.361   3.439  0.6527 -0.0563  0.5982
  192SAPI  H12R22180   6.299   6.343   3.463  0.4922 -0.6280  0.8880
  192SAPI  C21322181   6.125   6.473   3.521  0.1275 -0.0767  0.1463
  192SAPI  H13R22182   6.094   6.550   3.447 -2.6216  0.0142  1.2711
  192SAPI  H13S22183   6.195   6.530   3.585  0.1353  1.0394 -0.8157
  192SAPI  C21422184   5.998   6.425   3.586  0.1788 -0.0300  0.4075
  192SAPI  H14R22185   5.929   6.375   3.517 -0.0043 -0.6414  1.0153
  192SAPI  C21522186   5.961   6.445   3.711  0.6308 -0.5063 -0.9296
  192SAPI  H15R22187   5.869   6.400   3.751 -0.4338  2.8872  0.8693
  192SAPI  C21622188   6.043   6.513   3.817 -0.1817 -0.1245  0.3036
  192SAPI  H16R22189   5.982   6.568   3.892  1.7148  2.3386  0.1994
  192SAPI  H16S22190   6.106   6.598   3.781 -0.1980  0.3025  1.2576
  192SAPI  C21722191   6.141   6.410   3.885 -0.8661  1.2503  0.3240
  192SAPI  H17R22192   6.210   6.471   3.947  1.2814 -0.1160 -0.6246
  192SAPI  H17S22193   6.188   6.344   3.810 -3.7851 -0.3943 -0.2379
  192SAPI  C21822194   6.073   6.307   3.983 -0.5770 -0.3234  0.5191
  192SAPI  H18R22195   6.024   6.224   3.929  0.6477 -0.2833 -0.6857
  192SAPI  H18S22196   6.010   6.379   4.041  0.6440  0.4008  0.9854
  192SAPI  C21922197   6.186   6.251   4.069 -0.1368  0.4851 -0.2998
  192SAPI  H19R22198   6.254   6.329   4.109  1.2341 -1.4739  1.4134
  192SAPI  H19S22199   6.255   6.190   4.006  0.3853  0.7249  0.0334
  192SAPI  C22022200   6.144   6.166   4.188 -0.4030 -0.2772 -0.6065
  192SAPI  H20R22201   6.086   6.234   4.255  0.1229  0.1590 -0.5914
  192SAPI  H20S22202   6.233   6.134   4.248 -0.1242  1.1570 -0.2283
  192SAPI  H20T22203   6.082   6.079   4.155 -0.6328 -0.4520  0.2489
  192SAPI   C3322204   5.101   6.659   2.963  0.2591  0.1753 -0.0804
  192SAPI   H3X22205   5.068   6.563   2.918  0.4815 -1.1913  2.4434
  192SAPI   H3Y22206   5.035   6.741   2.929  0.6982 -0.4295 -2.5723
  192SAPI   C3422207   5.086   6.635   3.118 -0.5906 -0.6992  0.3417
  192SAPI   H4X22208   5.131   6.723   3.168  1.2973 -1.4877  0.0977
  192SAPI   H4Y22209   5.154   6.548   3.128 -0.7625 -0.9455 -0.5131
  192SAPI   C3522210   4.939   6.616   3.154 -0.5867  0.4644  0.0077
  192SAPI   H5X22211   4.900   6.550   3.073 -1.4674 -0.1530  0.9144
  192SAPI   H5Y22212   4.872   6.705   3.160  0.1818  1.2146 -1.6705
  192SAPI   C3622213   4.934   6.543   3.292  0.1937  0.8354  0.4603
  192SAPI   H6X22214   5.000   6.455   3.273 -0.3549  0.5706 -0.2790
  192SAPI   H6Y22215   4.830   6.520   3.320 -0.1703  1.6278 -0.2001
  192SAPI   C3722216   4.991   6.624   3.410 -0.5398  0.9919  0.9281
  192SAPI   H7X22217   4.931   6.713   3.439 -1.4787  0.3200  1.0965
  192SAPI   H7Y22218   5.095   6.661   3.401 -0.3634  0.2737 -0.1503
  192SAPI   C3822219   4.977   6.542   3.545  0.4306 -0.0284 -0.0236
  192SAPI   H8X22220   5.015   6.438   3.536 -0.5127 -0.2790 -1.4281
  192SAPI   H8Y22221   4.867   6.531   3.556  0.4617 -0.3569 -0.0254
  192SAPI   C3922222   5.021   6.607   3.678 -0.8659  0.0197 -0.0282
  192SAPI   H9X22223   4.986   6.713   3.682 -1.8369 -0.2837 -0.1903
  192SAPI   H9Y22224   5.131   6.617   3.679 -1.0068  3.7560 -1.7405
  192SAPI  C31022225   4.984   6.519   3.796  0.3628 -0.2725 -0.8315
  192SAPI  H10X22226   5.032   6.418   3.796 -2.5948 -1.8004 -1.1205
  192SAPI  H10Y22227   4.875   6.502   3.783  0.8000 -1.9718 -2.8830
  192SAPI  C31122228   5.027   6.576   3.923  0.2617  0.1466 -0.4912
  192SAPI  H11X22229   4.999   6.683   3.922  1.0339  0.3866 -2.9859
  192SAPI  H11Y22230   5.135   6.553   3.936  0.2210  1.0000  1.8305
  192SAPI  C31222231   4.962   6.501   4.049 -1.3112  0.9494 -0.7424
  192SAPI  H12X22232   5.006   6.401   4.064 -0.7049  1.4454  1.0453
  192SAPI  H12Y22233   4.857   6.489   4.015 -1.5591  1.4548 -0.1703
  192SAPI  C31322234   4.948   6.587   4.174 -0.9580  0.0568  0.2615
  192SAPI  H13X22235   4.887   6.674   4.143  1.0539  1.8495  1.0356
  192SAPI  H13Y22236   5.043   6.630   4.213  1.1067 -1.5870 -2.6015
  192SAPI  C31422237   4.868   6.520   4.281  0.2400  0.6295 -1.0512
  192SAPI  H14X22238   4.927   6.428   4.301  0.9286  0.8879 -1.8188
  192SAPI  H14Y22239   4.768   6.483   4.252 -0.4387 -0.3728  2.1457
  192SAPI  C31522240   4.824   6.608   4.399  0.5678 -0.2004  0.4303
  192SAPI  H15X22241   4.755   6.553   4.466 -3.2448  2.2128 -1.1779
  192SAPI  H15Y22242   4.766   6.690   4.353  0.0381  0.4336  2.1409
  192SAPI  C31622243   4.944   6.681   4.469  0.4751 -0.6233  0.0668
  192SAPI  H16X22244   4.999   6.734   4.388  1.8991 -2.2077 -0.0757
  192SAPI  H16Y22245   5.011   6.600   4.506 -1.0656 -1.3291  1.3939
  192SAPI  C31722246   4.920   6.792   4.574  0.4021  0.1797 -0.4866
  192SAPI  H17X22247   4.862   6.874   4.528 -1.7560  0.2848  2.1358
  192SAPI  H17Y22248   5.015   6.841   4.605  0.8247  1.9921 -4.1871
  192SAPI  C31822249   4.837   6.742   4.685  0.3517  0.1557 -0.3307
  192SAPI  H18X22250   4.900   6.699   4.766  0.6383 -1.0756 -1.1897
  192SAPI  H18Y22251   4.768   6.660   4.657 -0.5744 -0.7589  3.8738
  192SAPI  H18Z22252   4.780   6.828   4.728  1.0140  0.3417  0.1904
  193SOD    SOD22253   3.031   3.728   0.752 -0.0359 -0.1463  0.2692
  194SOD    SOD22254   3.299   6.438   0.115  0.2299  0.1502 -0.0089
  195SOD    SOD22255   2.535   4.441   6.990 -0.1136 -0.3007 -0.1072
  196SOD    SOD22256   0.938   6.080   2.034 -0.4605  0.1118 -0.2078
  197SOD    SOD22257   3.666   3.128   6.540 -0.1151  0.1817  0.1839
  198SOD    SOD22258   2.213   5.889   6.987 -0.0371 -0.3054 -0.1717
  199SOD    SOD22259   1.613   4.693   2.565  0.0066  0.1466  0.4922
  200SOD    SOD22260   1.285   1.569   1.999  0.1951  0.4363 -0.1171
  201SOD    SOD22261   3.181   1.777   7.154 -0.2644 -0.0108 -0.2010
  202SOD    SOD22262   5.455   3.203   8.485 -0.4280 -0.1905 -0.4853
  203SOD    SOD22263   0.026   0.424   0.334  0.0433 -0.6034  0.2600
  204SOD    SOD22264   3.697   0.623   7.165  0.2915  0.1196 -0.0756
  205SOD    SOD22265   2.580   5.284   7.719  0.0728 -0.4764 -0.2648
  206SOD    SOD22266   5.451   1.120   8.559  0.1129 -0.1081  0.4431
  207SOD    SOD22267   5.557   5.676   0.978 -0.1363  0.5853  0.2499
  208SOD    SOD22268   2.226   1.908   0.860  0.0125  0.0425  0.1493
  209SOD    SOD22269   4.537   6.516   2.146  0.2186 -0.1735  0.4101
  210SOD    SOD22270   3.467   4.769   0.670 -0.1264 -0.4487  0.2883
  211SOD    SOD22271   2.391   4.683   2.287  0.1985  0.3595 -0.3812
  212SOD    SOD22272   5.116   6.388   0.168 -0.0350 -0.3978  0.1504
  213SOD    SOD22273   4.834   1.774   0.420  0.0819  0.0594 -0.0204
  214SOD    SOD22274   0.819   5.033   0.297  0.5417  0.5527 -0.2607
  215SOD    SOD22275   4.781   1.488   1.541  0.4394 -0.8762  0.0978
  216SOD    SOD22276   4.995   6.321   6.741  0.5055  0.1354  0.5949
  217SOD    SOD22277   1.060   4.287   7.965 -0.0822 -0.0317  0.3666
  218SOD    SOD22278   6.258   2.478   2.305 -0.1213  0.1011 -0.0917
  219SOD    SOD22279   5.567   5.602   7.053 -0.0909  0.1092  0.5592
  220SOD    SOD22280   2.597   4.797   0.569  0.1445  0.0707  0.1614
  221SOD    SOD22281   4.785   1.116   6.950  0.2109 -0.5761  0.1601
  222SOD    SOD22282   0.066   1.482   0.628 -0.2968 -0.5585  0.0943
  223SOD    SOD22283   3.010   1.261   2.255 -0.4909  0.0108 -0.4331
  224SOD    SOD22284   4.903   5.755   8.622  0.2129 -0.1097  0.3544
  225SOD    SOD22285   4.692   5.899   7.584  0.0239  0.4764 -0.0146
  226SOD    SOD22286   3.576   2.560   6.367  0.4484  0.4752  0.1622
  227SOD    SOD22287   5.894   1.277   6.361  0.0402  0.1902 -0.7511
  228SOD    SOD22288   3.000   3.100   1.606 -0.2237 -0.1147  0.0155
  229SOD    SOD22289   0.078   2.777   8.495 -0.1903  0.2211 -0.0312
  230SOD    SOD22290   2.537   0.959   1.658  0.3273  0.0455 -0.5792
  231SOD    SOD22291   3.041   3.530   6.778 -1.0200 -0.1870  0.3336
  232SOD    SOD22292   6.750   4.007   1.450  0.1062 -0.2437  0.2589
  233SOD    SOD22293   2.064   4.251   7.521 -0.0924 -0.2027 -0.1125
  234CLA    CLA22294   4.432   3.167   1.345 -0.1088  0.0746  0.0880
  235CLA    CLA22295   0.107   3.037   0.521 -0.1282 -0.1270 -0.4318
  236CLA    CLA22296   3.259   5.794   7.985 -0.0865 -0.0927 -0.3693
  237CLA    CLA22297   0.656   6.224   0.043 -0.1812 -0.2018 -0.2857
  238CLA    CLA22298   0.978   4.143   1.791  0.1413  0.0068  0.2120
  239CLA    CLA22299   6.376   4.784   7.506  0.1985 -0.0302 -0.5654
  240CLA    CLA22300   2.108   3.090   0.708  0.0453  0.2618 -0.2261
  241CLA    CLA22301   2.271   6.005   1.808 -0.3194  0.0409 -0.2363
  242CLA    CLA22302   2.702   0.442   7.740  0.1395 -0.3629  0.2062
  243CLA    CLA22303   1.740   5.618   0.649  0.0314  0.2124  0.2226
  244CLA    CLA22304   2.732   4.844   8.717 -0.0339 -0.0598 -0.3777
  245CLA    CLA22305   0.394   0.651   8.117 -0.3647  0.1002 -0.1913
  246CLA    CLA22306   2.606   1.155   0.079  0.1328 -0.3184 -0.2892
  247CLA    CLA22307   0.097   6.613   7.790  0.3445  0.0309  0.2241
  248CLA    CLA22308   5.537   5.817   1.421 -0.1452  0.1812 -0.4631
  249CLA    CLA22309   3.885   4.042   8.487  0.4190  0.3452 -0.3283
  250CLA    CLA22310   5.934   4.483   0.270 -0.0639  0.1519  0.5114
  251TIP3   OH222311   6.092   2.557   2.460 -0.6456 -0.2539  0.2474
  251TIP3    H122312   6.024   2.624   2.460 -0.6513 -0.2561  0.6972
  251TIP3    H222313   6.047   2.478   2.491 -0.7637 -0.5990 -0.7746
  252TIP3   OH222314   2.357   6.032   0.713  0.2629 -0.7445 -0.1503
  252TIP3    H122315   2.399   6.117   0.724 -3.0173  0.7599  2.7267
  252TIP3    H222316   2.309   6.038   0.631 -0.4494  0.5070  0.3292
  253TIP3   OH222317   1.624   2.874   1.769 -0.0933  0.5100 -0.4512
  253TIP3    H122318   1.627   2.842   1.859 -0.7736 -0.6579 -0.8277
  253TIP3    H222319   1.702   2.929   1.761  0.1044  0.4401  0.7712
  254TIP3   OH222320   2.077   3.577   2.418  0.6597 -0.8833 -0.1108
  254TIP3    H122321   2.166   3.593   2.388  0.3279  1.6415  0.0315
  254TIP3    H222322   2.024   3.576   2.338  0.4949  0.3701 -0.0401
  255TIP3   OH222323   1.915   6.637   7.110  0.0761 -0.7769  0.1470
  255TIP3    H122324   1.970   6.699   7.063 -0.3956 -1.1968 -0.9922
  255TIP3    H222325   1.833   6.634   7.060 -1.1604  0.1034  1.9873
  256TIP3   OH222326   4.161   4.808   0.540  0.9858 -0.2236 -0.5111
  256TIP3    H122327   4.087   4.752   0.516  0.4733  0.8708 -1.5707
  256TIP3    H222328   4.238   4.754   0.523  0.4604 -1.4259  0.7168
  257TIP3   OH222329   0.258   1.051   8.701 -0.3438 -0.2157  0.3055
  257TIP3    H122330   0.252   1.141   8.669  0.2447 -0.2066  0.2040
  257TIP3    H222331   0.328   1.012   8.650  0.4102 -0.2913  1.3505
  258TIP3   OH222332   1.220   6.714   7.864  0.8197  0.7201  0.0345
  258TIP3    H122333   1.166   6.716   7.943  0.2182  1.3104 -0.3764
  258TIP3    H222334   1.308   6.690   7.895  0.3449 -0.1901  0.7212
  259TIP3   OH222335   1.250   4.315   8.603  0.1661 -0.2630 -0.1040
  259TIP3    H122336   1.331   4.355   8.575 -0.4030  1.1528  0.1856
  259TIP3    H222337   1.205   4.291   8.522 -0.4412  1.6853 -0.3804
  260TIP3   OH222338   4.354   4.131   8.794 -0.0368  0.0605  0.0179
  260TIP3    H122339   4.289   4.074   8.836 -1.7256  0.5879 -1.7137
  260TIP3    H222340   4.323   4.220   8.813  0.3754  0.3275 -0.5478
  261TIP3   OH222341   6.540   5.346   1.304 -0.6152  0.2277 -0.0708
  261TIP3    H122342   6.549   5.405   1.229  1.6792  0.8646  0.6285
  261TIP3    H222343   6.489   5.396   1.368 -0.5935  0.5739 -0.3213
  262TIP3   OH222344   5.371   5.989   1.954 -0.7540 -0.0413  0.0338
  262TIP3    H122345   5.458   6.014   1.923  0.3115 -2.0777  1.1571
  262TIP3    H222346   5.378   5.989   2.049 -2.6217  1.6838  0.2458
  263TIP3   OH222347   6.287   6.262   1.644 -0.3896 -0.2731  0.3919
  263TIP3    H122348   6.202   6.296   1.673 -0.4158 -1.1384  1.3858
  263TIP3    H222349   6.317   6.325   1.578 -0.7162  1.3573  1.7317
  264TIP3   OH222350   4.310   3.742   0.083  0.5332  0.2339 -0.1131
  264TIP3    H122351   4.406   3.749   0.081  0.5489 -0.0957 -1.0527
  264TIP3    H222352   4.294   3.647   0.083  0.2107  0.2892  0.3054
  265TIP3   OH222353   1.650   4.946   0.711  0.3449  0.3425 -0.2342
  265TIP3    H122354   1.611   5.026   0.745  0.2996  0.2189  0.0085
  265TIP3    H222355   1.628   4.945   0.618 -0.3655  0.1954 -0.0672
  266TIP3   OH222356   1.847   3.398   8.317  0.5450 -0.8167 -0.4687
  266TIP3    H122357   1.887   3.411   8.231 -0.6057  0.5648 -0.8349
  266TIP3    H222358   1.914   3.428   8.379  0.1443  1.5734 -1.0696
  267TIP3   OH222359   1.637   4.998   7.600  0.2841  0.6569  0.0455
  267TIP3    H122360   1.632   5.064   7.669  1.6838 -0.2191  1.0357
  267TIP3    H222361   1.556   5.010   7.550 -2.4811 -0.7699  3.7085
  268TIP3   OH222362   5.260   0.992   2.261 -0.3784  0.3335  0.1274
  268TIP3    H122363   5.316   1.008   2.185  1.3725 -0.3401  1.2053
  268TIP3    H222364   5.250   0.897   2.264 -1.1420  0.4134  0.2592
  269TIP3   OH222365   1.564   0.231   1.165  0.4563 -0.2206 -0.2706
  269TIP3    H122366   1.626   0.270   1.104  0.7320  0.5600  0.4937
  269TIP3    H222367   1.561   0.291   1.239 -2.4340  0.6274 -0.9402
  270TIP3   OH222368   3.582   3.217   0.981 -0.6399  0.0163  0.7019
  270TIP3    H122369   3.615   3.294   0.934 -0.1420 -0.2276  0.6480
  270TIP3    H222370   3.609   3.231   1.072  1.4861 -1.1573  0.3304
  271TIP3   OH222371   0.027   1.230   8.798 -0.3757  0.6507 -0.2109
  271TIP3    H122372   0.117   1.224   8.830 -0.9517  1.3759  1.7296
  271TIP3    H222373   0.033   1.212   8.704  1.5695 -0.8340  0.1429
  272TIP3   OH222374   2.048   0.392   6.284 -0.2754  0.2894 -0.3888
  272TIP3    H122375   2.068   0.309   6.329  1.2191  0.2166 -1.1408
  272TIP3    H222376   1.987   0.436   6.343 -2.3053 -1.9600 -0.6213
  273TIP3   OH222377   3.518   4.484   0.310  0.2620  0.1785 -0.1264
  273TIP3    H122378   3.524   4.391   0.291 -1.3507  0.0042  0.0900
  273TIP3    H222379   3.587   4.524   0.257  1.0263 -1.1319 -0.1581
  274TIP3   OH222380   0.802   5.288   6.472 -0.3807  0.0192  0.0121
  274TIP3    H122381   0.814   5.376   6.437  0.3800  0.1346  0.5494
  274TIP3    H222382   0.866   5.281   6.543 -0.5340 -0.9154  0.0730
  275TIP3   OH222383   4.062   0.984   7.543  0.1012  0.1029  0.1966
  275TIP3    H122384   4.012   1.020   7.469 -0.6665 -1.5783 -0.1684
  275TIP3    H222385   4.141   1.037   7.547 -0.5907  1.2725 -0.7990
  276TIP3   OH222386   0.154   4.507   2.372 -0.0625 -0.2121  0.0765
  276TIP3    H122387   0.094   4.459   2.428  1.8239 -0.7321  1.7702
  276TIP3    H222388   0.166   4.591   2.416  0.0914  0.0743 -0.4957
  277TIP3   OH222389   1.512   5.407   7.396  0.1042 -0.2515 -0.4620
  277TIP3    H122390   1.455   5.435   7.324  0.1993  1.8521  0.1903
  277TIP3    H222391   1.592   5.458   7.383  0.5333 -0.6524  0.5379
  278TIP3   OH222392   6.494   2.251   7.932 -0.3671  0.0859 -0.3148
  278TIP3    H122393   6.438   2.242   7.855  0.4019  0.2796 -0.9124
  278TIP3    H222394   6.515   2.162   7.957  1.1105  0.0151 -1.6456
  279TIP3   OH222395   1.826   5.087   1.311 -0.5731 -0.3384  0.2616
  279TIP3    H122396   1.774   5.152   1.265  0.5064  0.1965 -0.2190
  279TIP3    H222397   1.843   5.019   1.246 -0.7410 -0.5622  0.4470
  280TIP3   OH222398   5.104   0.734   7.941  0.9350  0.0866 -0.7366
  280TIP3    H122399   5.099   0.829   7.931  0.4572  0.2177  0.6026
  280TIP3    H222400   5.159   0.720   8.017  0.4138 -0.6865 -0.4874
  281TIP3   OH222401   2.226   4.249   7.713 -0.6195 -0.0698  0.2211
  281TIP3    H122402   2.155   4.280   7.768 -0.2681  1.0526  0.0613
  281TIP3    H222403   2.272   4.183   7.767 -0.0822  1.2304  1.4163
  282TIP3   OH222404   0.506   1.185   7.135 -0.4586 -0.4160 -0.4132
  282TIP3    H122405   0.503   1.167   7.041  1.4925 -2.4774 -0.1511
  282TIP3    H222406   0.477   1.103   7.176  0.5910 -0.2010  0.7942
  283TIP3   OH222407   3.908   4.283   7.874  0.0548  0.1107 -0.3410
  283TIP3    H122408   3.948   4.277   7.961  0.2494  3.1987 -0.1382
  283TIP3    H222409   3.846   4.210   7.871  0.6804 -0.5880  2.0301
  284TIP3   OH222410   2.881   1.999   0.442  0.1996  0.6251 -0.7654
  284TIP3    H122411   2.921   1.927   0.491 -0.8850  0.2565 -0.3768
  284TIP3    H222412   2.878   1.968   0.351  1.3498  0.9168 -0.9100
  285TIP3   OH222413   2.386   1.719   7.090  0.0410 -0.1103 -0.1316
  285TIP3    H122414   2.470   1.740   7.048  0.1405 -0.7648 -0.2641
  285TIP3    H222415   2.344   1.657   7.030  0.6223 -1.8534  1.1771
  286TIP3   OH222416   0.590   1.772   7.431  0.0330  0.2795  1.0230
  286TIP3    H122417   0.565   1.689   7.471 -1.5980 -0.6558 -1.6956
  286TIP3    H222418   0.638   1.818   7.500  0.7824 -2.7627  2.7016
  287TIP3   OH222419   3.408   2.377   1.080  0.2691  0.1177 -0.2908
  287TIP3    H122420   3.360   2.303   1.040 -0.6613  0.9881 -0.8386
  287TIP3    H222421   3.437   2.429   1.005 -1.5080  1.7904  0.0983
  288TIP3   OH222422   6.739   3.934   7.590 -0.5422  0.0322 -0.0658
  288TIP3    H122423   6.752   3.845   7.558 -0.2992 -0.0953  0.3734
  288TIP3    H222424   6.711   3.923   7.681  1.0326  0.4216  0.4942
  289TIP3   OH222425   4.681   4.710   6.628 -0.1110  0.0697  0.1598
  289TIP3    H122426   4.588   4.734   6.631 -0.0068  0.4113  1.0127
  289TIP3    H222427   4.681   4.619   6.599 -0.8945 -0.7967  2.6155
  290TIP3   OH222428   3.023   0.774   7.336  0.4793 -0.5041 -0.8579
  290TIP3    H122429   3.045   0.681   7.329 -0.9923 -1.0338  0.7306
  290TIP3    H222430   2.969   0.779   7.415  1.6745  1.9468 -0.1175
  291TIP3   OH222431   3.923   6.503   2.274  0.2479 -0.0456  0.4959
  291TIP3    H122432   3.990   6.459   2.221  0.0045  0.0833  0.0754
  291TIP3    H222433   3.911   6.588   2.232  1.3706  0.8128  1.8289
  292TIP3   OH222434   1.623   5.979   7.760  0.2757  0.2857  0.2993
  292TIP3    H122435   1.566   5.996   7.685  1.7032 -0.7317 -1.0568
  292TIP3    H222436   1.704   6.026   7.741  1.2049 -1.1842  0.4431
  293TIP3   OH222437   3.253   0.689   8.204  0.0815  0.3316 -0.5417
  293TIP3    H122438   3.257   0.760   8.140 -0.0950 -0.2591 -1.2182
  293TIP3    H222439   3.336   0.643   8.194 -0.8758 -1.1969 -2.0564
  294TIP3   OH222440   4.515   4.541   0.357  0.3701 -0.3308 -0.2845
  294TIP3    H122441   4.611   4.539   0.364  0.3498  1.6740  2.1205
  294TIP3    H222442   4.492   4.632   0.377 -1.9818 -0.2367 -2.8404
  295TIP3   OH222443   6.256   5.664   0.906 -0.4202  0.6056  0.1385
  295TIP3    H122444   6.309   5.620   0.840 -0.1605 -1.0528  1.3845
  295TIP3    H222445   6.282   5.756   0.900 -0.7428  0.6079 -2.3288
  296TIP3   OH222446   6.119   2.088   0.876  0.0799  0.0883 -0.0450
  296TIP3    H122447   6.051   2.033   0.914  1.2958 -1.4490  0.0049
  296TIP3    H222448   6.185   2.095   0.944  0.7578  0.1240 -0.6956
  297TIP3   OH222449   4.726   6.216   0.700  0.2533 -0.4062  0.4094
  297TIP3    H122450   4.744   6.310   0.693  0.7733 -0.5615 -0.4263
  297TIP3    H222451   4.796   6.174   0.650  0.3249 -1.2727  1.2158
  298TIP3   OH222452   0.323   3.758   7.211 -0.3009 -0.2652 -0.3529
  298TIP3    H122453   0.232   3.764   7.181 -1.4324 -0.6385  2.7016
  298TIP3    H222454   0.332   3.667   7.240  2.2220 -1.2944 -3.7276
  299TIP3   OH222455   3.158   6.539   8.214  0.2979  0.3369  0.5111
  299TIP3    H122456   3.181   6.469   8.152  3.2374  0.8298  0.8798
  299TIP3    H222457   3.069   6.518   8.242 -0.9573 -0.2774 -3.3432
  300TIP3   OH222458   0.244   5.317   7.295  0.5484  0.0491 -0.2354
  300TIP3    H122459   0.318   5.297   7.352  0.1283 -0.8853 -0.0088
  300TIP3    H222460   0.280   5.378   7.230  1.6365 -0.7745 -0.4268
  301TIP3   OH222461   5.042   4.963   2.092  0.1888  0.3340 -0.0809
  301TIP3    H122462   4.960   4.983   2.136 -0.2558  0.4787 -0.9486
  301TIP3    H222463   5.110   5.000   2.149 -0.3234 -0.0000  0.7618
  302TIP3   OH222464   4.738   5.420   1.550 -0.1601  0.0546 -0.1651
  302TIP3    H122465   4.770   5.340   1.590 -0.4316  0.6653  1.3260
  302TIP3    H222466   4.656   5.394   1.507 -0.2044 -0.4772  0.2358
  303TIP3   OH222467   0.703   4.637   7.362 -0.2477 -0.4785  0.4937
  303TIP3    H122468   0.626   4.597   7.402 -0.2641 -0.9453 -0.0031
  303TIP3    H222469   0.746   4.566   7.316 -0.7474  0.2273 -1.1184
  304TIP3   OH222470   0.871   6.353   2.594 -0.6738  0.4647 -0.1146
  304TIP3    H122471   0.800   6.301   2.555  0.3966 -1.1348  0.0169
  304TIP3    H222472   0.939   6.290   2.616  0.4180  1.8481  0.6670
  305TIP3   OH222473   4.484   1.266   2.080 -0.2507  0.1915  0.0768
  305TIP3    H122474   4.478   1.328   2.152  0.7904  0.4273 -0.0222
  305TIP3    H222475   4.462   1.181   2.119 -0.8362  0.4846  0.4019
  306TIP3   OH222476   2.502   4.664   7.815 -0.1997  0.2338 -0.2741
  306TIP3    H122477   2.513   4.715   7.734 -1.7835 -0.7577 -1.1864
  306TIP3    H222478   2.460   4.583   7.786 -2.3870  0.5319  1.7128
  307TIP3   OH222479   6.717   5.159   1.080  0.4821 -0.0818 -0.2202
  307TIP3    H122480   6.706   5.118   1.165 -0.4232 -0.6868 -0.6176
  307TIP3    H222481   6.792   5.113   1.041  1.5158  0.8432  0.6054
  308TIP3   OH222482   0.034   3.925   0.000  0.3035 -1.0496 -0.0349
  308TIP3    H122483   0.014   3.958  -0.087  1.3361 -0.6518 -0.1357
  308TIP3    H222484  -0.044   3.944   0.052  0.6532  1.1378 -0.2120
  309TIP3   OH222485   4.789   0.950   8.496  0.2106 -0.2078  0.1823
  309TIP3    H122486   4.846   1.010   8.543  0.5523 -1.1336  0.9726
  309TIP3    H222487   4.701   0.987   8.507  0.4275  0.2030  0.5593
  310TIP3   OH222488   0.199   5.461   6.601 -0.5147 -0.1297 -0.4794
  310TIP3    H122489   0.280   5.452   6.552 -0.1006 -0.8951  0.3091
  310TIP3    H222490   0.130   5.460   6.535  0.1170  0.7588 -1.1749
  311TIP3   OH222491   2.594   0.183   0.475  0.3578 -0.1370  0.1902
  311TIP3    H122492   2.554   0.097   0.466 -1.1424  0.6342 -0.8385
  311TIP3    H222493   2.626   0.205   0.388  1.2481  0.1274  0.5650
  312TIP3   OH222494   5.477   2.571   8.833  0.0584 -0.1814  0.1340
  312TIP3    H122495   5.459   2.618   8.915  0.2302 -0.0238  0.0822
  312TIP3    H222496   5.442   2.483   8.848 -0.1050 -0.0895  0.2971
  313TIP3   OH222497   5.343   3.641   8.669  0.0102 -0.0546 -0.2171
  313TIP3    H122498   5.336   3.668   8.578 -2.9284  2.9405  0.7016
  313TIP3    H222499   5.301   3.554   8.672 -0.9650  0.3434 -1.5620
  314TIP3   OH222500   0.985   2.412   7.496 -0.2788  0.7493 -0.6034
  314TIP3    H122501   0.950   2.352   7.562  0.2234  1.3890  0.2694
  314TIP3    H222502   1.057   2.363   7.455  2.3226  1.7645  2.3244
  315TIP3   OH222503   4.396   4.653   1.549 -0.2659  0.5246  0.5410
  315TIP3    H122504   4.360   4.576   1.594  1.5338 -0.4478  0.3884
  315TIP3    H222505   4.486   4.629   1.529  0.1010  2.4018 -0.2138
  316TIP3   OH222506   2.634   2.581   1.510  0.0679 -0.5790  0.2697
  316TIP3    H122507   2.620   2.572   1.416  1.4964  1.2656 -0.1924
  316TIP3    H222508   2.546   2.591   1.547 -0.4498  0.0815 -1.0646
  317TIP3   OH222509   0.747   6.662   7.822  0.2054  0.9508  0.3006
  317TIP3    H122510   0.748   6.758   7.812 -2.3783  1.2107  1.7115
  317TIP3    H222511   0.662   6.643   7.861  0.4114 -2.0248 -0.5047
  318TIP3   OH222512   0.854   5.968   8.718 -0.4759  0.1954  0.4181
  318TIP3    H122513   0.938   5.994   8.680 -0.5957 -0.4912 -0.3683
  318TIP3    H222514   0.871   5.959   8.812  0.3713 -0.0609  0.2502
  319TIP3   OH222515   2.406   6.297   0.416  0.0807  0.3082  0.5915
  319TIP3    H122516   2.390   6.203   0.407 -0.9919  0.6525 -2.0740
  319TIP3    H222517   2.492   6.311   0.377 -0.5669  0.6277 -0.7857
  320TIP3   OH222518   3.816   3.483   7.654  0.5711 -0.2417  0.1608
  320TIP3    H122519   3.726   3.458   7.674  0.1558  0.3177 -0.9058
  320TIP3    H222520   3.817   3.578   7.664  0.5788 -0.0443 -1.4328
  321TIP3   OH222521   0.159   1.192   7.752  0.3729  0.0570 -0.2199
  321TIP3    H122522   0.181   1.125   7.687 -0.2408  0.0334 -0.4018
  321TIP3    H222523   0.244   1.214   7.792  0.4662 -1.6955  0.6832
  322TIP3   OH222524   2.550   3.009   7.918  0.3475 -0.1543 -0.0366
  322TIP3    H122525   2.555   2.974   7.829 -0.6054 -0.5357  0.0493
  322TIP3    H222526   2.612   3.082   7.919  0.3629 -0.1481 -1.0102
  323TIP3   OH222527   5.076   3.953   6.932  0.6079 -0.2025 -0.4876
  323TIP3    H122528   5.077   3.909   6.846  1.8631  1.5839 -1.4610
  323TIP3    H222529   5.061   4.045   6.911 -1.1408  0.0035  1.4239
  324TIP3   OH222530   5.749   0.792   8.579 -0.0047  0.0843  0.1740
  324TIP3    H122531   5.810   0.735   8.532 -1.0509  0.6523 -2.0476
  324TIP3    H222532   5.676   0.734   8.602  0.2171 -0.0605  0.5187
  325TIP3   OH222533   1.387   4.162   8.804  0.1391 -0.2571 -0.1308
  325TIP3    H122534   1.347   4.225   8.744 -0.6479 -0.4270  0.2089
  325TIP3    H222535   1.361   4.077   8.771  1.4073 -0.4367 -0.7315
  326TIP3   OH222536   3.091   5.396   7.643 -0.4257 -0.0030 -0.1682
  326TIP3    H122537   3.177   5.420   7.609 -0.8218  0.1843 -1.0702
  326TIP3    H222538   3.098   5.407   7.738  0.3924  0.4756 -0.2807
  327TIP3   OH222539   5.462   3.361   7.807  0.2359 -0.6743 -0.2949
  327TIP3    H122540   5.478   3.455   7.807  1.6818 -0.8582 -2.1384
  327TIP3    H222541   5.406   3.346   7.883 -0.7483  1.7704 -0.4552
  328TIP3   OH222542   3.764   5.918   1.196  1.0049 -0.1341  0.4154
  328TIP3    H122543   3.724   5.968   1.125  0.5038 -0.6613  0.3245
  328TIP3    H222544   3.717   5.835   1.197  1.9853 -0.7062  0.4103
  329TIP3   OH222545   4.650   4.977   1.646 -0.4962 -0.2266  0.1944
  329TIP3    H122546   4.724   4.955   1.590  0.6613  0.8287  1.2597
  329TIP3    H222547   4.662   5.069   1.667 -1.7076 -0.2326  1.0078
  330TIP3   OH222548   6.154   0.780   8.073  0.7202 -0.3565  0.4115
  330TIP3    H122549   6.139   0.686   8.062  0.0830 -0.1508 -0.6671
  330TIP3    H222550   6.085   0.822   8.022  0.8560  0.7119  1.0596
  331TIP3   OH222551   1.475   3.080   0.293 -0.1445 -0.5046 -0.0087
  331TIP3    H122552   1.402   3.072   0.354  1.8411 -0.6149  2.5592
  331TIP3    H222553   1.477   3.173   0.270 -1.4820 -0.6303 -0.6552
  332TIP3   OH222554   2.518   6.199   8.639  0.1062  0.7679  0.4747
  332TIP3    H122555   2.511   6.108   8.669  1.0208  0.9431  1.2705
  332TIP3    H222556   2.435   6.239   8.665 -1.1595 -0.2962 -1.6421
  333TIP3   OH222557   1.194   0.525   7.237 -0.2391  0.6177  0.6869
  333TIP3    H122558   1.217   0.608   7.195 -1.5663  2.2216  2.8877
  333TIP3    H222559   1.243   0.459   7.189  1.0600  2.6937 -1.0171
  334TIP3   OH222560   0.918   3.342   7.965 -0.0998  0.7844  0.0748
  334TIP3    H122561   0.958   3.337   8.052 -0.4587  0.2079  0.2089
  334TIP3    H222562   0.982   3.301   7.907 -0.8396 -0.9309  0.4168
  335TIP3   OH222563   3.831   0.719   8.439 -0.5671 -0.4741 -0.8081
  335TIP3    H122564   3.812   0.765   8.521  1.8804 -1.0319  0.1549
  335TIP3    H222565   3.829   0.626   8.463  1.4636 -0.6107 -1.0132
  336TIP3   OH222566   1.775   6.634   2.078  0.0441  0.2006  1.0028
  336TIP3    H122567   1.828   6.705   2.114 -1.0922  0.5438  2.0833
  336TIP3    H222568   1.817   6.554   2.110  1.2878  0.3520 -0.1576
  337TIP3   OH222569   2.973   6.474   1.111 -0.4736  0.1361 -0.5053
  337TIP3    H122570   2.900   6.431   1.066 -0.4553  0.2150 -0.6122
  337TIP3    H222571   2.981   6.559   1.067 -0.1270  0.0100 -0.6915
  338TIP3   OH222572   5.679   0.638   8.029  0.1252  0.0850  0.4629
  338TIP3    H122573   5.649   0.600   8.112 -0.3067 -0.5589  0.0236
  338TIP3    H222574   5.610   0.616   7.967  0.9364 -0.3554 -0.2931
  339TIP3   OH222575   1.304   5.136   0.588  0.3557  0.8051  0.0459
  339TIP3    H122576   1.301   5.231   0.579  0.0805  0.7046 -1.1319
  339TIP3    H222577   1.239   5.117   0.656 -2.6004  1.2229 -2.4157
  340TIP3   OH222578   2.685   1.789   0.742 -0.7173 -0.0430 -0.2338
  340TIP3    H122579   2.689   1.850   0.816 -0.6229 -0.4708  0.1175
  340TIP3    H222580   2.770   1.800   0.698 -0.8098  0.2802 -0.3360
  341TIP3   OH222581   2.170   1.864   6.988 -0.0368 -0.1951 -0.3363
  341TIP3    H122582   2.252   1.840   7.031  0.2997 -1.8645 -1.7968
  341TIP3    H222583   2.143   1.945   7.032  0.6778 -1.3183  2.4185
  342TIP3   OH222584   6.139   3.446   1.427 -0.0264  0.0060 -0.1401
  342TIP3    H122585   6.134   3.469   1.520 -0.8162  0.0722 -0.1920
  342TIP3    H222586   6.208   3.381   1.422 -0.9198 -1.0424  0.7112
  343TIP3   OH222587   6.071   0.873   7.418 -0.2022  0.2157 -0.2390
  343TIP3    H122588   6.066   0.802   7.354 -1.1409  0.4314 -0.4074
  343TIP3    H222589   6.089   0.829   7.501  0.2145 -0.1287 -0.5074
  344TIP3   OH222590   0.774   6.190   7.094  0.2284  0.5319 -0.5688
  344TIP3    H122591   0.723   6.111   7.076 -1.6170  2.0488 -2.5058
  344TIP3    H222592   0.722   6.237   7.160 -0.4603  1.6141 -1.8229
  345TIP3   OH222593   5.679   3.110   1.499  0.5396  0.1161  0.3592
  345TIP3    H122594   5.665   3.063   1.417 -1.5887  2.9643 -1.1052
  345TIP3    H222595   5.623   3.187   1.492  1.5334  1.3459  3.8332
  346TIP3   OH222596   1.951   2.075   6.700 -0.3643  0.5103  0.4020
  346TIP3    H122597   2.028   2.111   6.657  0.8388  0.2396  2.1678
  346TIP3    H222598   1.885   2.144   6.695  0.7948  1.7005  0.8897
  347TIP3   OH222599   3.494   5.938   1.669  0.3612 -0.3535  0.4444
  347TIP3    H122600   3.551   5.961   1.595 -0.1085  1.4688  0.5917
  347TIP3    H222601   3.539   5.975   1.745 -0.1095 -0.5457  0.8174
  348TIP3   OH222602   5.590   1.955   1.542 -0.6347  0.1827 -0.1556
  348TIP3    H122603   5.582   1.955   1.637 -1.0534 -0.0928 -0.1878
  348TIP3    H222604   5.651   1.885   1.523 -0.5487  0.2393 -0.0913
  349TIP3   OH222605   5.521   1.518   2.142 -0.1539 -0.4290  0.6415
  349TIP3    H122606   5.508   1.461   2.217  0.9753 -2.8508 -0.8901
  349TIP3    H222607   5.613   1.505   2.117 -0.5189  0.2518 -1.2056
  350TIP3   OH222608   5.665   1.056   8.605 -0.6389 -0.5581 -0.2146
  350TIP3    H122609   5.740   1.116   8.610 -1.6194  1.0589 -2.9568
  350TIP3    H222610   5.705   0.970   8.588  0.6571  0.0709 -0.5179
  351TIP3   OH222611   3.716   0.270   6.970  0.2638  0.0141 -0.0114
  351TIP3    H122612   3.740   0.361   6.984  0.0866  0.0264  0.2279
  351TIP3    H222613   3.787   0.234   6.918 -1.0411  1.0154 -2.6743
  352TIP3   OH222614   6.243   4.207   7.076  0.0574 -0.3420 -0.2515
  352TIP3    H122615   6.296   4.264   7.021  0.4503 -1.1129 -0.6922
  352TIP3    H222616   6.171   4.178   7.019  0.0920 -0.6120 -0.1605
  353TIP3   OH222617   2.605   3.530   0.502 -0.0458 -0.7806  0.2854
  353TIP3    H122618   2.592   3.586   0.579  2.1055  0.1527  0.0540
  353TIP3    H222619   2.518   3.496   0.482 -1.0942  0.8884  1.6619
  354TIP3   OH222620   1.021   4.639   1.987 -0.4592 -0.0287 -0.3508
  354TIP3    H122621   1.026   4.544   1.973  0.6572 -0.0127 -0.1095
  354TIP3    H222622   1.088   4.675   1.929  1.3003  0.3584  1.7804
  355TIP3   OH222623   1.027   6.514   1.900 -0.1265 -0.4226 -0.3043
  355TIP3    H122624   1.028   6.540   1.992 -0.3354  1.4630 -0.8080
  355TIP3    H222625   0.960   6.445   1.895 -3.5269  2.5743  0.2022
  356TIP3   OH222626   4.207   0.678   1.588 -0.0670  0.3555 -0.4768
  356TIP3    H122627   4.197   0.587   1.614  0.7140  0.4009  0.0266
  356TIP3    H222628   4.117   0.711   1.580 -0.4230  0.3970  2.4968
  357TIP3   OH222629   6.448   6.687   2.098  0.1862  0.1776 -0.2746
  357TIP3    H122630   6.379   6.653   2.156  0.7943 -0.1458  0.2659
  357TIP3    H222631   6.499   6.610   2.073  0.5844  0.4702 -0.3677
  358TIP3   OH222632   0.947   3.910   7.647  0.1813 -0.3047 -0.0004
  358TIP3    H122633   0.972   3.952   7.729  2.0430 -0.8691 -0.2403
  358TIP3    H222634   1.015   3.936   7.585 -1.3536  0.3669 -1.4849
  359TIP3   OH222635   5.066   5.400   1.395  0.2275 -0.4879 -0.4316
  359TIP3    H122636   5.050   5.494   1.384 -1.8889 -0.6919  0.4512
  359TIP3    H222637   5.003   5.358   1.337 -1.2832 -1.3565  1.6979
  360TIP3   OH222638   3.358   5.049   7.393  0.6717  0.4080  0.2682
  360TIP3    H122639   3.400   4.977   7.440  2.1857  0.7853 -0.4489
  360TIP3    H222640   3.389   5.040   7.303 -1.5996  0.1155 -0.5620
  361TIP3   OH222641   1.644   2.493   2.145  0.1485 -0.2853 -0.4535
  361TIP3    H122642   1.662   2.583   2.173 -0.9334 -0.6292  1.5542
  361TIP3    H222643   1.665   2.440   2.222 -1.5703 -1.4869 -0.7643
  362TIP3   OH222644   6.215   5.321   7.607 -0.2790  0.2777 -0.7226
  362TIP3    H122645   6.120   5.308   7.617 -0.0428 -1.2886 -0.2429
  362TIP3    H222646   6.232   5.402   7.655 -1.1411 -0.3480  0.7329
  363TIP3   OH222647   1.347   3.864   8.500 -0.0342 -0.2619 -0.3056
  363TIP3    H122648   1.361   3.793   8.563 -1.5080  0.2906  0.7193
  363TIP3    H222649   1.401   3.841   8.425 -0.0913 -2.2199  0.1948
  364TIP3   OH222650   1.088   4.815   0.863 -0.2976  0.5073 -0.0803
  364TIP3    H122651   1.001   4.825   0.901 -0.3991 -1.6601  0.4127
  364TIP3    H222652   1.124   4.737   0.906  1.9102  1.3574 -0.2578
  365TIP3   OH222653   3.718   4.514   7.978 -0.5121  0.3635 -0.0237
  365TIP3    H122654   3.678   4.426   7.977 -0.6791  0.4057  1.2707
  365TIP3    H222655   3.803   4.501   8.019 -0.1954  0.6812 -0.5769
  366TIP3   OH222656   5.471   0.366   8.870 -0.0126 -0.2898 -0.1315
  366TIP3    H122657   5.470   0.353   8.965 -1.2500 -0.3152 -0.1432
  366TIP3    H222658   5.475   0.461   8.859  1.5958 -0.3176 -0.0739
  367TIP3   OH222659   1.086   2.935   0.351  0.3699 -0.3364 -0.4190
  367TIP3    H122660   1.177   2.934   0.378  0.4217 -0.8257 -0.6052
  367TIP3    H222661   1.054   2.847   0.371  0.2843 -0.5685 -1.5172
  368TIP3   OH222662   1.697   2.036   0.584  0.5890  0.2332  0.5476
  368TIP3    H122663   1.747   1.964   0.547 -0.1557  0.1486 -0.3439
  368TIP3    H222664   1.688   2.099   0.512  0.6718  0.9193  1.1184
  369TIP3   OH222665   1.500   1.099   1.091  0.0860  0.0170  0.2166
  369TIP3    H122666   1.482   1.044   1.015  0.0144 -1.2052  1.0866
  369TIP3    H222667   1.591   1.128   1.079  0.0083  0.0076 -0.4197
  370TIP3   OH222668   6.530   0.356   2.022  0.2144  0.2656  0.6893
  370TIP3    H122669   6.439   0.364   1.996 -0.9588 -1.8197  3.6133
  370TIP3    H222670   6.558   0.272   1.984  0.4228  0.1734  1.0433
  371TIP3   OH222671   0.237   2.070   1.311  0.3186  0.1154 -0.2395
  371TIP3    H122672   0.176   2.136   1.278  1.0070  0.6425 -0.5111
  371TIP3    H222673   0.240   2.083   1.405 -0.7609 -0.6054 -0.0892
  372TIP3   OH222674   3.139   5.171   8.190 -0.3171  0.5597  0.0998
  372TIP3    H122675   3.179   5.126   8.116 -1.3140 -0.5922  0.2379
  372TIP3    H222676   3.197   5.246   8.206  0.9004 -0.1737 -0.6822
  373TIP3   OH222677   2.272   6.615   6.565  0.3307 -0.4403  0.0291
  373TIP3    H122678   2.215   6.636   6.491  1.6226  0.0977 -0.8598
  373TIP3    H222679   2.347   6.571   6.525  1.4243  0.5534  0.9255
  374TIP3   OH222680   5.478   0.895   6.849  0.0783 -0.3035  0.5537
  374TIP3    H122681   5.503   0.910   6.941 -0.7230 -1.7341  1.0332
  374TIP3    H222682   5.491   0.801   6.836 -2.0397 -0.5606 -0.0861
  375TIP3   OH222683   0.072   2.217   7.383 -0.2285 -0.1135  0.5200
  375TIP3    H122684   0.085   2.259   7.468 -0.2980  0.2098  0.3687
  375TIP3    H222685  -0.023   2.214   7.372 -0.2405 -0.6484  0.6969
  376TIP3   OH222686   2.466   1.722   0.603  0.5348  0.4522 -0.3039
  376TIP3    H122687   2.541   1.751   0.656 -0.2050 -0.5961  1.4021
  376TIP3    H222688   2.421   1.658   0.658 -1.0735  0.3233 -1.6862
  377TIP3   OH222689   3.036   5.059   0.386 -0.0057 -0.0633 -0.1180
  377TIP3    H122690   2.969   4.994   0.364  0.0638  0.0015 -0.5322
  377TIP3    H222691   3.063   5.094   0.301 -1.7241  2.1986  0.1851
  378TIP3   OH222692   1.551   5.199   2.020 -0.1325 -0.3528  0.4013
  378TIP3    H122693   1.516   5.125   2.070  0.7627 -1.3283 -0.3762
  378TIP3    H222694   1.633   5.167   1.984  1.3152  1.6886  1.6962
  379TIP3   OH222695   6.233   4.203   0.160  0.4032  0.0949  0.2435
  379TIP3    H122696   6.210   4.292   0.187 -2.8754 -0.3648 -0.5144
  379TIP3    H222697   6.240   4.153   0.241 -1.6457  0.3070  0.6018
  380TIP3   OH222698   6.218   0.051   0.606 -0.3089 -0.7582  0.1643
  380TIP3    H122699   6.237   0.109   0.680  1.9320 -2.5717  1.1304
  380TIP3    H222700   6.268   0.088   0.534 -1.0459 -0.0106  0.0203
  381TIP3   OH222701   0.360   6.508   2.022 -0.1302  0.3206  0.1317
  381TIP3    H122702   0.311   6.566   2.080  0.4667  0.5772  0.3895
  381TIP3    H222703   0.404   6.566   1.961  1.1831  0.2349  0.9387
  382TIP3   OH222704   4.326   2.760   1.356  0.5271  0.6307  0.1336
  382TIP3    H122705   4.345   2.792   1.268  0.9152  1.4823  0.5196
  382TIP3    H222706   4.232   2.748   1.357  0.0848  3.4625  0.5044
  383TIP3   OH222707   3.183   3.853   0.280  0.1614 -0.1493 -0.7541
  383TIP3    H122708   3.235   3.915   0.228 -1.9233  1.0044 -1.5855
  383TIP3    H222709   3.156   3.786   0.218 -1.0327  0.3802 -0.8225
  384TIP3   OH222710   2.752   5.997   2.394  0.4444  0.4182  0.7397
  384TIP3    H122711   2.686   5.956   2.450 -2.6961  1.4590 -1.8879
  384TIP3    H222712   2.727   6.090   2.391 -0.8550  0.1913 -3.5948
  385TIP3   OH222713   5.212   2.505   0.959  0.1534 -0.5335 -0.0445
  385TIP3    H122714   5.281   2.446   0.991  0.3408  0.1276  0.7981
  385TIP3    H222715   5.222   2.502   0.863  0.1290 -1.8900 -0.0359
  386TIP3   OH222716   0.500   2.381   0.250  0.1028 -0.1183 -0.6319
  386TIP3    H122717   0.542   2.464   0.272 -2.7526  1.2900  0.0681
  386TIP3    H222718   0.472   2.345   0.335  0.1491 -1.1334 -1.0331
  387TIP3   OH222719   1.476   3.334   0.222  0.6147  0.1012  0.1997
  387TIP3    H122720   1.380   3.331   0.225  0.4629  1.3249 -1.6082
  387TIP3    H222721   1.499   3.408   0.277  0.4809  0.0630  0.3079
  388TIP3   OH222722   5.492   2.203   0.649  0.3975  0.4132 -0.3496
  388TIP3    H122723   5.455   2.279   0.694  2.2980  0.7584  0.7357
  388TIP3    H222724   5.444   2.198   0.566 -1.4906  1.2593  0.6313
  389TIP3   OH222725   6.214   0.207   0.850  0.0202 -0.5056  0.3880
  389TIP3    H122726   6.182   0.149   0.920  0.8538 -1.5416 -0.0592
  389TIP3    H222727   6.294   0.244   0.887 -0.5450  0.4318  0.6957
  390TIP3   OH222728   6.575   1.467   8.370 -0.2681  0.1424 -0.2529
  390TIP3    H122729   6.625   1.507   8.299  1.3483  0.7594  1.1498
  390TIP3    H222730   6.549   1.382   8.337  1.1158  0.1026 -1.3120
  391TIP3   OH222731   0.464   0.589   7.310 -0.2476 -0.8109  0.0564
  391TIP3    H122732   0.503   0.578   7.396 -2.0954 -0.8416  0.9316
  391TIP3    H222733   0.369   0.584   7.325 -0.6768  0.5931 -1.7498
  392TIP3   OH222734   3.126   1.118   6.884 -0.2047 -0.0813 -0.3389
  392TIP3    H122735   3.164   1.201   6.853  1.3739 -0.8588 -0.5725
  392TIP3    H222736   3.063   1.145   6.951  0.8967  1.2862  0.2215
  393TIP3   OH222737   1.742   2.977   0.895 -0.1006 -0.4525  0.4348
  393TIP3    H122738   1.777   2.913   0.833  1.2045 -0.6855  1.3718
  393TIP3    H222739   1.649   2.955   0.902 -1.0581  1.3290 -3.5222
  394TIP3   OH222740   5.194   4.373   0.315  0.0812 -0.4835 -0.0224
  394TIP3    H122741   5.287   4.361   0.330  0.6678  2.0496 -1.0590
  394TIP3    H222742   5.177   4.333   0.230  0.1728 -1.1362  0.2662
  395TIP3   OH222743   5.327   3.848   2.327  0.3519  0.2441 -0.1103
  395TIP3    H122744   5.411   3.862   2.371  0.6607  1.2513 -1.0006
  395TIP3    H222745   5.303   3.934   2.293 -1.1158  0.0029  0.2450
  396TIP3   OH222746   2.988   1.901   1.660 -0.3154  0.1523  0.2960
  396TIP3    H122747   3.017   1.853   1.738 -0.0278 -2.2013 -1.1936
  396TIP3    H222748   3.043   1.980   1.660  0.6951 -0.5009  1.6810
  397TIP3   OH222749   4.760   3.034   7.411  0.0918 -0.7086  1.2191
  397TIP3    H122750   4.765   2.966   7.344  1.0124  0.2195  0.2933
  397TIP3    H222751   4.851   3.056   7.430 -0.1701  0.8050  0.8911
  398TIP3   OH222752   0.475   3.015   0.541  0.3502  0.6696  0.3137
  398TIP3    H122753   0.394   2.965   0.527  1.4989 -0.5451 -3.1553
  398TIP3    H222754   0.448   3.089   0.595 -3.0313  0.1542 -0.3910
  399TIP3   OH222755   5.288   1.711   1.735 -0.1193  0.2328 -0.2167
  399TIP3    H122756   5.339   1.737   1.658  0.7763 -0.4623  0.1262
  399TIP3    H222757   5.348   1.659   1.788 -0.6595  0.8898  1.0817
  400TIP3   OH222758   2.287   1.652   8.769  0.0951  0.1343 -0.1635
  400TIP3    H122759   2.312   1.727   8.714  4.1168 -0.9462 -0.1619
  400TIP3    H222760   2.334   1.666   8.851 -1.4989 -0.9525  0.9754
  401TIP3   OH222761   3.520   0.384   0.432  0.3346  0.2497 -0.1448
  401TIP3    H122762   3.575   0.459   0.408  0.7341  0.0722  0.2019
  401TIP3    H222763   3.465   0.416   0.503  1.3718 -0.1264  0.8592
  402TIP3   OH222764   4.160   1.227   0.459 -0.0122  0.0293 -0.1341
  402TIP3    H122765   4.230   1.172   0.492  0.7496  1.8031  1.4274
  402TIP3    H222766   4.186   1.248   0.369  1.4553  0.5766  0.3852
  403TIP3   OH222767   2.695   4.853   1.688  0.6507 -0.4061 -0.7256
  403TIP3    H122768   2.720   4.769   1.727 -0.2676 -0.3496  0.0217
  403TIP3    H222769   2.765   4.913   1.714  1.8863 -1.1389 -2.1680
  404TIP3   OH222770   0.193   5.249   2.103  0.4806 -0.2750  0.8963
  404TIP3    H122771   0.210   5.171   2.156 -0.8352 -0.1196  1.5998
  404TIP3    H222772   0.132   5.301   2.156 -0.9213 -0.1307 -0.7855
  405TIP3   OH222773   5.013   5.825   0.469  0.2775  0.2129 -0.2293
  405TIP3    H122774   5.018   5.812   0.563  0.7249 -2.3684 -0.5388
  405TIP3    H222775   5.000   5.738   0.433  0.5943  1.0647 -2.6098
  406TIP3   OH222776   3.387   3.524   0.983  0.2071 -0.2668 -0.3548
  406TIP3    H122777   3.470   3.504   0.939 -0.1939 -0.5774 -0.9954
  406TIP3    H222778   3.334   3.445   0.970 -0.1067 -0.1627  0.2579
  407TIP3   OH222779   4.477   2.637   6.953  0.6050 -0.5148 -0.1192
  407TIP3    H122780   4.502   2.605   6.866  0.9413  0.9359 -0.5892
  407TIP3    H222781   4.383   2.651   6.948  0.4916 -1.1951  0.0213
  408TIP3   OH222782   0.402   0.350   6.920  0.1760 -0.1515 -0.2744
  408TIP3    H122783   0.390   0.279   6.982  1.2000  0.3186  0.4958
  408TIP3    H222784   0.353   0.323   6.842  0.3122 -1.5618  0.1050
  409TIP3   OH222785   3.837   2.920   0.668 -0.3548 -0.3553  0.1891
  409TIP3    H122786   3.921   2.929   0.712 -0.4031  0.1170  0.1920
  409TIP3    H222787   3.852   2.955   0.580 -0.3160 -1.0919 -0.1028
  410TIP3   OH222788   5.183   1.068   8.296 -0.4134  1.0115 -0.0048
  410TIP3    H122789   5.110   1.113   8.254  0.6709  1.1190 -1.9255
  410TIP3    H222790   5.198   1.116   8.377 -1.4148  2.0128 -0.3902
  411TIP3   OH222791   4.058   6.394   0.516 -0.0330 -0.1483  0.0174
  411TIP3    H122792   4.139   6.361   0.555  1.2562 -0.6301 -2.8073
  411TIP3    H222793   3.991   6.331   0.543  1.4910 -2.5929 -1.4479
  412TIP3   OH222794   1.021   5.019   7.998  0.2972 -0.3684 -0.1835
  412TIP3    H122795   1.075   5.080   7.948  1.2960 -0.7684  0.3967
  412TIP3    H222796   1.083   4.961   8.041 -0.5677 -0.4666  0.9737
  413TIP3   OH222797   5.485   1.313   8.704 -0.3480  0.0763  0.2162
  413TIP3    H122798   5.421   1.356   8.761  0.3744  0.3823  0.8172
  413TIP3    H222799   5.538   1.385   8.670  0.1402 -0.2435  0.3018
  414TIP3   OH222800   1.909   1.009   2.778  0.8582 -0.1776  0.5638
  414TIP3    H122801   1.861   1.067   2.837  0.9138 -0.9581  1.4016
  414TIP3    H222802   1.905   0.923   2.821  0.5134 -0.8623 -0.7996
  415TIP3   OH222803   6.675   5.958   7.601  0.3264  0.0672  0.4424
  415TIP3    H122804   6.712   5.917   7.523  0.4123 -1.1414  1.0780
  415TIP3    H222805   6.640   6.042   7.571  1.5238  0.2129 -0.6256
  416TIP3   OH222806   0.208   3.095   8.874  0.1859  0.1976  0.3786
  416TIP3    H122807   0.228   3.052   8.957 -0.7131 -0.3282  0.3333
  416TIP3    H222808   0.267   3.054   8.811  1.5401  1.2495  0.8968
  417TIP3   OH222809   0.397   5.581   1.780 -0.1215 -0.7839  0.4662
  417TIP3    H122810   0.412   5.489   1.756  0.0625 -1.0517  1.5706
  417TIP3    H222811   0.306   5.597   1.757 -0.0355 -1.1046 -0.1338
  418TIP3   OH222812   0.381   2.007   7.665 -0.1202  0.1676  0.9221
  418TIP3    H122813   0.407   2.073   7.600  0.2921 -1.2881 -0.4533
  418TIP3    H222814   0.463   1.978   7.704 -0.0351 -1.3011 -0.2867
  419TIP3   OH222815   2.327   0.260   8.604 -0.1363  0.1311 -0.1131
  419TIP3    H122816   2.315   0.270   8.509 -0.0079 -1.0667 -0.2665
  419TIP3    H222817   2.400   0.318   8.625 -0.2127  0.4593 -0.7373
  420TIP3   OH222818   6.239   2.065   0.619 -0.2651  0.1630  0.3946
  420TIP3    H122819   6.188   2.086   0.697 -2.1033 -1.7768 -0.2090
  420TIP3    H222820   6.283   1.983   0.640  0.3723  0.3655 -0.1188
  421TIP3   OH222821   1.594   6.774   0.022  0.1654  0.1858  0.4644
  421TIP3    H122822   1.583   6.836  -0.050  1.5676  1.3841  1.2218
  421TIP3    H222823   1.601   6.688  -0.021  1.8544  0.9579 -0.9361
  422TIP3   OH222824   0.451   0.343   0.855 -0.2282 -0.5786 -0.1193
  422TIP3    H122825   0.533   0.383   0.884  0.6046 -1.6261 -0.9743
  422TIP3    H222826   0.438   0.269   0.914 -0.4692 -0.5165 -0.0950
  423TIP3   OH222827   3.406   1.013   7.781 -0.0757  0.3603  0.0868
  423TIP3    H122828   3.465   1.004   7.706 -0.2372  0.1468 -0.0173
  423TIP3    H222829   3.435   1.093   7.825  0.2924  0.2532  0.0407
  424TIP3   OH222830   1.654   2.414   1.168  0.5659  0.3607 -0.3175
  424TIP3    H122831   1.616   2.468   1.098  2.5418  1.9351 -0.2477
  424TIP3    H222832   1.606   2.331   1.163 -1.2348  1.4153 -1.7105
  425TIP3   OH222833   5.234   4.906   0.303  0.1972 -0.6949  0.0606
  425TIP3    H122834   5.154   4.899   0.252  0.5935  2.0528 -1.0773
  425TIP3    H222835   5.278   4.821   0.291 -1.2434 -1.2620 -1.5118
  426TIP3   OH222836   3.366   0.874   7.531  0.2701 -0.5188  0.5233
  426TIP3    H122837   3.285   0.904   7.572 -1.0824 -1.5894 -1.2672
  426TIP3    H222838   3.340   0.801   7.476  2.0641  0.5445 -1.8970
  427TIP3   OH222839   5.720   3.597   0.128  0.2847  0.0409 -0.2942
  427TIP3    H122840   5.702   3.688   0.105 -3.6913 -0.9541 -1.9805
  427TIP3    H222841   5.813   3.586   0.111  0.7899  3.5880 -0.6072
  428TIP3   OH222842   0.694   4.557   8.321 -0.5441 -0.4544  0.5745
  428TIP3    H122843   0.627   4.623   8.305  2.0204  2.2036 -0.0748
  428TIP3    H222844   0.717   4.524   8.234  1.2822  1.1893  0.3748
  429TIP3   OH222845   5.127   5.440   8.209  0.1267  0.0257  0.5668
  429TIP3    H122846   5.045   5.479   8.241 -0.5260 -1.3280  0.6083
  429TIP3    H222847   5.163   5.395   8.285  0.7910  0.3978  0.4770
  430TIP3   OH222848   0.284   6.023   7.536 -0.0243  0.1309 -0.9336
  430TIP3    H122849   0.313   6.026   7.627  0.8101 -1.7966 -1.0930
  430TIP3    H222850   0.225   6.098   7.527 -1.4771 -0.5865  1.6272
  431TIP3   OH222851   4.165   4.509   7.971  0.4320 -1.0083  0.1832
  431TIP3    H122852   4.157   4.546   7.884 -1.5884 -0.5318  0.5083
  431TIP3    H222853   4.248   4.463   7.971  2.0671  1.7348 -0.9129
  432TIP3   OH222854   6.370   6.637   1.745  0.3055  0.0928 -0.3886
  432TIP3    H122855   6.416   6.553   1.737 -0.8124 -0.5883 -0.0148
  432TIP3    H222856   6.433   6.695   1.787  0.0483 -1.5051  2.4462
  433TIP3   OH222857   3.086   3.528   1.580  0.2823  0.0321  0.2308
  433TIP3    H122858   3.005   3.523   1.530  1.5950 -1.3440 -1.9604
  433TIP3    H222859   3.148   3.474   1.531  2.9835  2.2160  0.9449
  434TIP3   OH222860   0.602   0.099   0.618 -0.2467 -0.0037 -0.4423
  434TIP3    H122861   0.599   0.165   0.549  0.4722 -0.2295 -0.7041
  434TIP3    H222862   0.674   0.127   0.675  1.5652 -1.6958 -1.7758
  435TIP3   OH222863   4.020   5.230   6.544  0.2767 -0.1112  0.4108
  435TIP3    H122864   4.069   5.269   6.616  1.9711  1.3692 -1.4227
  435TIP3    H222865   4.073   5.247   6.466 -0.8467 -2.7243 -1.0796
  436TIP3   OH222866   1.583   5.636   3.275  0.3430 -0.0720  0.0688
  436TIP3    H122867   1.676   5.650   3.291  0.5230 -0.4802 -0.5899
  436TIP3    H222868   1.565   5.682   3.193  0.3377 -1.3462 -0.6682
  437TIP3   OH222869   0.071   5.652   2.184  0.1297  0.1057  0.6530
  437TIP3    H122870   0.149   5.653   2.128 -0.8987  0.0657 -0.8258
  437TIP3    H222871   0.051   5.559   2.196  0.3862  0.1133  1.1450
  438TIP3   OH222872   2.661   1.036   1.229  0.5658 -0.4849  0.5230
  438TIP3    H122873   2.642   0.943   1.222  0.7590 -0.4228 -1.0751
  438TIP3    H222874   2.755   1.043   1.218  0.6176 -0.1349  1.1368
  439TIP3   OH222875   2.615   1.427   0.252 -0.3072  0.1604  0.1183
  439TIP3    H122876   2.648   1.357   0.195  2.3178  1.4853 -0.1578
  439TIP3    H222877   2.627   1.507   0.201 -1.6674  1.0064  1.0589
  440TIP3   OH222878   3.632   1.413   1.689 -0.2190 -0.1079  0.5753
  440TIP3    H122879   3.684   1.474   1.636 -1.2581  1.3385  1.1545
  440TIP3    H222880   3.609   1.463   1.767 -0.1361 -1.6524  1.6117
  441TIP3   OH222881   3.778   4.185   8.757  0.1862  0.0788  0.4024
  441TIP3    H122882   3.825   4.156   8.679  0.2178 -0.8684  0.7610
  441TIP3    H222883   3.843   4.232   8.809  0.0829  1.0103 -0.2825
  442TIP3   OH222884   1.868   1.446   2.381  0.1532 -0.4582  0.1859
  442TIP3    H122885   1.804   1.515   2.365  1.3084  0.6267  0.1282
  442TIP3    H222886   1.867   1.433   2.476 -1.1975 -1.5113  0.0634
  443TIP3   OH222887   3.733   0.048   0.422 -0.2460 -0.4332  0.2084
  443TIP3    H122888   3.772   0.135   0.413 -1.1737 -0.0249  0.0996
  443TIP3    H222889   3.789   0.004   0.486 -0.7260  0.8067  1.5227
  444TIP3   OH222890   1.894   2.737   7.432 -0.3218 -0.3170  0.2121
  444TIP3    H122891   1.841   2.812   7.406  1.6109 -0.0234 -3.4638
  444TIP3    H222892   1.860   2.664   7.381  2.4669 -0.1595 -2.1070
  445TIP3   OH222893   0.975   2.898   7.874  0.1591 -0.7381 -0.8163
  445TIP3    H122894   1.014   2.895   7.787  0.3185 -0.4998 -0.7549
  445TIP3    H222895   1.044   2.935   7.930 -0.5083  0.7395 -0.9099
  446TIP3   OH222896   2.680   5.289   8.414  0.0856 -0.4979 -0.0789
  446TIP3    H122897   2.756   5.245   8.452 -0.2022 -0.0715  1.0483
  446TIP3    H222898   2.630   5.320   8.490 -1.2325 -0.7902 -0.7988
  447TIP3   OH222899   4.668   6.223   6.505  0.3711 -0.1884 -0.2831
  447TIP3    H122900   4.650   6.311   6.538 -0.9918  0.1109 -1.7112
  447TIP3    H222901   4.593   6.171   6.533  1.0545 -0.8556  0.3509
  448TIP3   OH222902   2.261   5.348   1.452 -0.2315 -0.0560 -0.2005
  448TIP3    H122903   2.208   5.427   1.451 -0.4721 -0.2152 -0.1275
  448TIP3    H222904   2.223   5.295   1.522  0.5172  0.1708  0.3920
  449TIP3   OH222905   5.732   2.467   8.822  0.2721 -0.7938 -0.6320
  449TIP3    H122906   5.795   2.518   8.772  0.4002 -0.1405  0.1606
  449TIP3    H222907   5.647   2.507   8.803  0.3262 -0.5166 -0.3074
  450TIP3   OH222908   1.691   1.312   1.626  0.3708  0.5550  0.0855
  450TIP3    H122909   1.705   1.218   1.634  0.4931  0.5099 -0.6032
  450TIP3    H222910   1.749   1.351   1.692  2.0724  0.2669 -1.1859
  451TIP3   OH222911   2.259   1.051   8.166  0.3555  0.3188 -0.3106
  451TIP3    H122912   2.267   0.959   8.141  0.8392  0.8504 -2.3352
  451TIP3    H222913   2.187   1.084   8.113 -0.1081  1.0253  0.7260
  452TIP3   OH222914   4.075   3.378   0.529  0.3419 -0.4016  0.0711
  452TIP3    H122915   4.046   3.386   0.620 -1.4814  0.7562 -0.5350
  452TIP3    H222916   4.152   3.435   0.523 -0.1345  0.3404  0.6779
  453TIP3   OH222917   6.539   6.220   7.586  0.1408  0.0834 -0.3968
  453TIP3    H122918   6.460   6.223   7.533  2.1973 -0.3272 -3.7637
  453TIP3    H222919   6.584   6.302   7.568  0.2584  0.6342  2.0188
  454TIP3   OH222920   3.086   2.955   0.787 -0.6300 -0.1734 -0.4375
  454TIP3    H122921   3.127   3.029   0.741 -1.2005  0.6198  0.2891
  454TIP3    H222922   3.132   2.951   0.871 -2.6807  1.4300  0.8476
  455TIP3   OH222923   1.526   3.748   8.282  0.1642 -0.1540  0.1544
  455TIP3    H122924   1.568   3.698   8.352  0.3742 -0.1182  0.0551
  455TIP3    H222925   1.464   3.687   8.242 -0.5238  0.0477  0.8694
  456TIP3   OH222926   4.041   5.199   1.719 -0.2530 -0.6069 -0.2968
  456TIP3    H122927   4.037   5.264   1.648 -2.0064  2.1389  2.0981
  456TIP3    H222928   4.106   5.235   1.780 -1.9504 -0.5014  1.5410
  457TIP3   OH222929   2.804   0.659   7.011  0.0250  0.1909 -0.4306
  457TIP3    H122930   2.749   0.734   6.989  1.4730  1.7345  0.8531
  457TIP3    H222931   2.865   0.651   6.938 -0.5712 -0.1833 -0.8894
  458TIP3   OH222932   5.257   0.747   1.308  0.1375 -0.0473  0.3120
  458TIP3    H122933   5.272   0.829   1.261  1.6368 -1.9900 -3.0074
  458TIP3    H222934   5.340   0.728   1.351  0.3465 -0.5374 -0.2818
  459TIP3   OH222935   3.954   1.229   7.775 -0.0616 -0.0543  0.0165
  459TIP3    H122936   3.884   1.230   7.710 -1.6480  0.3285  1.6441
  459TIP3    H222937   3.986   1.139   7.774  0.5470  0.1387 -1.8429
  460TIP3   OH222938   4.251   0.002   7.780  0.4241 -0.2445 -0.1509
  460TIP3    H122939   4.331   0.034   7.823 -1.3117  1.5040  1.9667
  460TIP3    H222940   4.244   0.055   7.701  0.5473  0.7248  0.4695
  461TIP3   OH222941   1.416   1.078   0.492  0.2959 -0.5188 -0.0632
  461TIP3    H122942   1.497   1.102   0.447  1.2481  0.2265  1.9307
  461TIP3    H222943   1.438   0.999   0.541  0.5663  0.8674  2.2221
  462TIP3   OH222944   0.201   2.937   0.217  0.1429  0.3481 -0.6473
  462TIP3    H122945   0.158   2.982   0.290 -1.2664  1.1238 -1.9099
  462TIP3    H222946   0.268   2.883   0.259 -1.4259 -0.1910  1.3312
  463TIP3   OH222947   0.241   2.860   2.048  0.2252  0.4851 -0.3033
  463TIP3    H122948   0.168   2.913   2.017 -0.4182  0.6935  1.4816
  463TIP3    H222949   0.214   2.828   2.134  1.7712 -0.3845 -0.0927
  464TIP3   OH222950   5.675   4.788   1.922  0.7340  0.1496 -0.7297
  464TIP3    H122951   5.689   4.776   2.016  2.7628 -0.4465 -1.0759
  464TIP3    H222952   5.650   4.701   1.890  0.0314  0.3556 -0.7532
  465TIP3   OH222953   1.778   1.225   8.676  0.0283 -0.1801  0.0854
  465TIP3    H122954   1.862   1.228   8.721  0.2233 -0.3960 -0.2609
  465TIP3    H222955   1.750   1.134   8.685  0.5604 -0.4772 -1.1194
  466TIP3   OH222956   5.141   2.763   0.691  0.7510  0.4102 -0.1846
  466TIP3    H122957   5.083   2.779   0.764 -2.5257  2.5860 -2.9745
  466TIP3    H222958   5.089   2.712   0.629  3.1227 -0.7491 -1.3914
  467TIP3   OH222959   1.539   0.891   6.983 -0.2027  0.0860  0.1888
  467TIP3    H122960   1.516   0.809   6.941  3.2201 -1.2970  0.7248
  467TIP3    H222961   1.525   0.875   7.076 -1.9176  1.0416  0.1318
  468TIP3   OH222962   4.165   3.658   8.497 -0.1489  0.1841 -0.0300
  468TIP3    H122963   4.153   3.698   8.583  1.1808 -0.9396  0.7055
  468TIP3    H222964   4.259   3.643   8.490 -0.1763  0.6166 -1.8659
  469TIP3   OH222965   1.109   1.755   0.153  0.0766  0.5489 -0.3081
  469TIP3    H122966   1.038   1.818   0.162  0.0300  0.4179  0.2917
  469TIP3    H222967   1.070   1.680   0.108  0.3620  1.3074 -1.8776
  470TIP3   OH222968   2.091   5.660   1.767 -0.6678  0.3224  0.2181
  470TIP3    H122969   2.068   5.569   1.748  1.5749 -0.5486  1.3185
  470TIP3    H222970   2.153   5.684   1.698  1.3196 -0.1678  1.7566
  471TIP3   OH222971   2.152   4.790   0.856  0.0250 -0.1777  1.0004
  471TIP3    H122972   2.088   4.852   0.889 -0.5472  0.2888 -0.8499
  471TIP3    H222973   2.227   4.844   0.830 -0.3366 -0.2702 -0.2899
  472TIP3   OH222974   3.983   4.571   2.073 -0.0192  0.5086 -0.2265
  472TIP3    H122975   4.017   4.572   2.163 -0.4573  1.5754 -0.0652
  472TIP3    H222976   4.028   4.497   2.032  1.9372  1.4256  0.1840
  473TIP3   OH222977   3.967   5.945   0.519  0.1502 -0.4999  0.0949
  473TIP3    H122978   3.965   6.023   0.575 -1.5118  1.0498 -1.9819
  473TIP3    H222979   4.043   5.958   0.463  1.7323 -1.9882  1.7539
  474TIP3   OH222980   2.611   0.381   8.579 -0.5478 -0.9698  0.0330
  474TIP3    H122981   2.600   0.349   8.489 -0.0767 -0.2594 -0.2959
  474TIP3    H222982   2.582   0.473   8.574 -0.7071 -0.9876  0.6526
  475TIP3   OH222983   5.994   2.364   7.564  0.6880  0.0478  0.0852
  475TIP3    H122984   6.007   2.458   7.578 -0.0764  0.2459 -0.4938
  475TIP3    H222985   5.909   2.357   7.521  1.2184 -0.8392 -0.8770
  476TIP3   OH222986   2.448   3.127   1.069 -0.1034  0.3537 -0.1282
  476TIP3    H122987   2.381   3.187   1.102  1.6711  1.4823  1.6467
  476TIP3    H222988   2.470   3.071   1.143 -0.3735 -1.2807 -1.2262
  477TIP3   OH222989   2.079   0.715   6.999  0.1921  0.5078  0.2892
  477TIP3    H122990   2.125   0.643   7.042 -0.0298 -0.2955 -0.7791
  477TIP3    H222991   2.129   0.731   6.918 -0.0028  1.2808  0.3103
  478TIP3   OH222992   1.319   5.412   0.708  0.5136 -0.1249  0.4686
  478TIP3    H122993   1.245   5.430   0.765  0.2691  1.7487 -0.3671
  478TIP3    H222994   1.396   5.426   0.763  0.2631 -0.0931  0.8141
  479TIP3   OH222995   2.769   3.205   1.663 -0.1011 -0.5924 -0.2398
  479TIP3    H122996   2.739   3.240   1.747 -0.8722 -0.4232 -0.5758
  479TIP3    H222997   2.713   3.247   1.598  1.7599  0.8191 -1.0388
  480TIP3   OH222998   1.926   1.334   0.696  0.0812  0.5277 -0.6100
  480TIP3    H122999   1.842   1.362   0.659 -0.0909 -0.1069 -0.7112
  480TIP3    H223000   1.937   1.244   0.666 -0.6393 -0.4493  1.7804
  481TIP3   OH223001   3.284   1.954   7.863  0.4380  0.8959 -0.3277
  481TIP3    H123002   3.225   1.937   7.937 -2.2352  1.6820 -2.1462
  481TIP3    H223003   3.287   2.049   7.856 -0.6470  0.8311 -2.1596
  482TIP3   OH223004   1.405   5.835   6.969 -0.2775 -0.3573  0.0471
  482TIP3    H123005   1.359   5.756   6.995 -0.1469 -0.9819 -1.4979
  482TIP3    H223006   1.336   5.894   6.938 -0.2510 -0.3959 -0.0864
  483TIP3   OH223007   0.044   3.804   8.194  0.1503 -0.6858 -0.2014
  483TIP3    H123008   0.091   3.722   8.208  0.6738 -0.1939  1.0590
  483TIP3    H223009   0.067   3.858   8.269  0.1295  0.7794 -1.2153
  484TIP3   OH223010   3.893   6.456   7.582 -0.2058 -0.0431 -0.3028
  484TIP3    H123011   3.916   6.514   7.654  2.3976  0.7811 -1.6405
  484TIP3    H223012   3.867   6.514   7.510  2.8948 -0.3077 -1.8161
  485TIP3   OH223013   6.151   3.913   6.952 -0.6923  0.0164 -0.6548
  485TIP3    H123014   6.066   3.904   6.909 -0.7068  0.4874 -0.7316
  485TIP3    H223015   6.212   3.934   6.881 -0.5437 -0.1397 -0.5755
  486TIP3   OH223016   3.912   3.623   0.971 -0.1096  0.5823  0.1095
  486TIP3    H123017   3.968   3.668   0.909  0.5197 -0.1149  0.1545
  486TIP3    H223018   3.919   3.673   1.052  0.6018  0.3941  0.1673
  487TIP3   OH223019   3.488   4.898   8.674 -0.1604 -0.0257 -0.1019
  487TIP3    H123020   3.492   4.894   8.578 -0.2609 -1.7535 -0.0585
  487TIP3    H223021   3.395   4.884   8.694 -0.1445  0.3624  0.2661
  488TIP3   OH223022   0.961   2.877   8.265 -0.3565 -0.3626  0.3524
  488TIP3    H123023   0.866   2.869   8.266 -0.5711 -1.6212 -4.5055
  488TIP3    H223024   0.993   2.790   8.289 -0.6843 -0.9533 -1.1843
  489TIP3   OH223025   2.968   6.016   8.755 -0.2411 -0.6537 -0.0598
  489TIP3    H123026   2.979   6.028   8.850  0.7234 -1.1076 -0.1091
  489TIP3    H223027   2.917   5.935   8.747 -1.7639  0.2348  0.0962
  490TIP3   OH223028   6.156   5.067   8.530  0.4040  0.5534  0.4476
  490TIP3    H123029   6.063   5.044   8.533  0.2053  0.8769 -1.8452
  490TIP3    H223030   6.201   4.993   8.572 -0.6138 -1.6280 -2.0805
  491TIP3   OH223031   0.732   5.499   0.745 -0.2529  0.1648  0.0089
  491TIP3    H123032   0.712   5.484   0.653  1.7427  0.0771 -0.4575
  491TIP3    H223033   0.715   5.415   0.788 -0.4257 -0.0178 -0.4151
  492TIP3   OH223034   3.497   3.105   7.968  0.1841  0.2025  0.2729
  492TIP3    H123035   3.587   3.126   7.995 -0.1312 -0.8951  2.4408
  492TIP3    H223036   3.472   3.177   7.911  1.9871  1.2252  0.6790
  493TIP3   OH223037   3.321   4.222   8.357  0.1389 -0.3429  0.2610
  493TIP3    H123038   3.346   4.314   8.364 -1.5706  0.0240  3.7825
  493TIP3    H223039   3.395   4.173   8.393  0.1194 -0.1586  0.5512
  494TIP3   OH223040   0.262   5.600   8.783 -0.1232 -0.1373 -0.1144
  494TIP3    H123041   0.196   5.539   8.748 -1.1162  0.1975  1.0716
  494TIP3    H223042   0.328   5.544   8.823  1.6908 -0.5947 -3.3944
  495TIP3   OH223043   5.119   0.666   1.071 -0.4120  0.1185 -0.3798
  495TIP3    H123044   5.184   0.707   1.128  0.4637 -1.9104  0.1737
  495TIP3    H223045   5.053   0.632   1.132 -0.5400 -0.2673 -0.7284
  496TIP3   OH223046   4.217   1.509   0.329 -0.3495 -0.0502  0.1697
  496TIP3    H123047   4.194   1.591   0.285  0.0956 -0.6020 -1.1261
  496TIP3    H223048   4.203   1.441   0.263  0.9128 -0.8422  0.6792
  497TIP3   OH223049   5.672   6.533   8.503 -0.1318 -0.2298 -0.1153
  497TIP3    H123050   5.730   6.549   8.577 -0.2403 -1.8554  0.3440
  497TIP3    H223051   5.678   6.439   8.486  0.5458  0.1939 -2.7219
  498TIP3   OH223052   1.153   6.716   1.072  0.2220 -0.8904  0.4158
  498TIP3    H123053   1.188   6.655   1.007  0.5537 -1.6348  1.2581
  498TIP3    H223054   1.139   6.661   1.150 -1.8257 -0.3965  0.4388
  499TIP3   OH223055   5.750   6.664   0.539 -0.5958 -0.3083  0.9918
  499TIP3    H123056   5.745   6.569   0.551 -0.3940 -0.4596 -0.0233
  499TIP3    H223057   5.816   6.693   0.602  0.2612 -1.0200  0.4469
  500TIP3   OH223058   5.095   2.407   0.128  0.1365 -0.0053  1.0265
  500TIP3    H123059   5.054   2.494   0.134  1.2282  0.5129  1.2222
  500TIP3    H223060   5.176   2.416   0.177  0.1203 -1.2383  1.3029
  501TIP3   OH223061   1.827   4.728   2.668 -0.1531 -0.1377  0.5404
  501TIP3    H123062   1.923   4.725   2.664 -0.0871  1.8047 -0.1367
  501TIP3    H223063   1.807   4.813   2.707 -1.6303  0.5195 -1.5026
  502TIP3   OH223064   3.315   2.415   6.931  0.1609 -0.0581 -0.5540
  502TIP3    H123065   3.381   2.447   6.992 -0.9997 -1.4150  1.5308
  502TIP3    H223066   3.331   2.464   6.850  3.7879 -0.4678 -0.2293
  503TIP3   OH223067   4.643   4.909   2.587 -0.3021  0.2893  0.1676
  503TIP3    H123068   4.693   4.841   2.541 -0.0159  0.0683  0.7817
  503TIP3    H223069   4.583   4.943   2.522  0.0610 -0.0476 -0.3550
  504TIP3   OH223070   6.680   3.398   0.570  0.0137 -0.3054  0.5481
  504TIP3    H123071   6.774   3.383   0.580  0.0009 -0.7262  0.0714
  504TIP3    H223072   6.651   3.329   0.512 -0.6204 -0.2512  0.7949
  505TIP3   OH223073   3.717   4.438   8.463  0.2461 -0.6295 -0.2678
  505TIP3    H123074   3.737   4.531   8.463  1.7074 -0.8748  1.5975
  505TIP3    H223075   3.778   4.401   8.527 -0.8655 -2.7424 -0.3559
  506TIP3   OH223076   2.342   2.085   6.317  0.3846 -0.2350  0.7512
  506TIP3    H123077   2.378   2.107   6.403  0.7412 -1.5309  0.9447
  506TIP3    H223078   2.327   2.170   6.276 -2.2656  0.5486  3.0623
  507TIP3   OH223079   3.312   5.863   1.001  0.4384  0.1802  0.2613
  507TIP3    H123080   3.319   5.865   1.097 -1.5215 -0.4574  0.4483
  507TIP3    H223081   3.223   5.892   0.983 -0.0216 -1.9395 -1.2328
  508TIP3   OH223082   5.172   4.044   2.242 -0.2721 -0.1834 -0.4343
  508TIP3    H123083   5.185   4.119   2.184  1.3079 -0.4707 -0.4949
  508TIP3    H223084   5.089   4.062   2.286 -0.0291  1.5004 -0.6004
  509TIP3   OH223085   5.335   3.365   8.086  0.0864  0.1441  0.3242
  509TIP3    H123086   5.283   3.429   8.037 -0.8070  1.5386  2.9003
  509TIP3    H223087   5.293   3.281   8.068  1.0214  0.2248 -2.7867
  510TIP3   OH223088   5.865   2.512   1.036 -0.2669 -0.0905  0.1646
  510TIP3    H123089   5.818   2.573   1.093  0.0115 -0.4138  0.7453
  510TIP3    H223090   5.908   2.567   0.971 -0.5103  0.2835  0.3202
  511TIP3   OH223091   3.511   0.645   7.003  0.0660  0.8538 -0.0049
  511TIP3    H123092   3.449   0.575   6.984  2.3105 -0.9052 -1.2863
  511TIP3    H223093   3.511   0.699   6.924 -0.9284  1.7800  0.6001
  512TIP3   OH223094   6.117   4.629   2.523 -0.6040  0.4259 -0.2961
  512TIP3    H123095   6.097   4.606   2.614  2.1699  0.4284  0.3870
  512TIP3    H223096   6.133   4.544   2.481  2.3862  0.5575  0.3852
  513TIP3   OH223097   2.974   3.715   6.637 -0.1388  0.0890  0.0524
  513TIP3    H123098   3.002   3.715   6.545 -1.7992 -0.0051 -0.4774
  513TIP3    H223099   2.953   3.807   6.655 -0.4190  0.0061  0.1472
  514TIP3   OH223100   2.557   3.355   1.414 -0.2520  0.4692  0.5071
  514TIP3    H123101   2.611   3.383   1.340  0.3883  1.6637  1.3748
  514TIP3    H223102   2.506   3.281   1.381  1.9834 -0.7839 -0.3401
  515TIP3   OH223103   4.850   3.805   7.689  0.2928  0.0340  0.1693
  515TIP3    H123104   4.840   3.726   7.636  0.3111  0.7706 -0.9459
  515TIP3    H223105   4.811   3.782   7.774  0.5329 -1.2524 -0.0518
  516TIP3   OH223106   6.110   2.362   0.905  0.3488  0.6686 -0.0769
  516TIP3    H123107   6.018   2.380   0.921  0.4614  1.4017 -0.2137
  516TIP3    H223108   6.114   2.268   0.885 -0.1334  0.2505  1.6359
  517TIP3   OH223109   5.803   4.259   6.575 -0.3092  0.5317 -0.2383
  517TIP3    H123110   5.787   4.325   6.507  0.0283  1.3312  0.4399
  517TIP3    H223111   5.827   4.310   6.652 -0.2072 -0.3891  0.3475
  518TIP3   OH223112   6.285   3.277   0.654  0.4245  0.5431 -0.2291
  518TIP3    H123113   6.307   3.243   0.567 -0.0180  0.4029 -0.2887
  518TIP3    H223114   6.253   3.201   0.702  0.7653  0.6013  0.0916
  519TIP3   OH223115   2.568   2.488   7.990  0.4833 -0.2927  0.2866
  519TIP3    H123116   2.517   2.445   7.921  0.8664  0.4210 -0.4641
  519TIP3    H223117   2.531   2.576   7.995 -1.1168 -1.0071  2.6594
  520TIP3   OH223118   5.273   2.968   1.540 -0.0913 -0.4177  0.0952
  520TIP3    H123119   5.323   2.888   1.527 -0.2237 -0.5371  0.3036
  520TIP3    H223120   5.181   2.940   1.534 -0.1342 -0.1794 -0.4125
  521TIP3   OH223121   0.529   3.065   7.947  0.0364  0.9364  0.1302
  521TIP3    H123122   0.492   3.035   7.864 -1.8479 -0.7079  1.4760
  521TIP3    H223123   0.515   3.160   7.946  0.4324  1.0058 -1.5803
  522TIP3   OH223124   6.498   5.372   0.961  0.3615  0.1540  0.5739
  522TIP3    H123125   6.589   5.342   0.962  0.1273 -0.5797  1.7328
  522TIP3    H223126   6.498   5.449   1.018  0.1327 -0.2612  1.1422
  523TIP3   OH223127   0.671   5.053   7.393 -0.2848 -0.3209  0.3880
  523TIP3    H123128   0.695   5.058   7.300 -0.0976 -4.1397  0.0758
  523TIP3    H223129   0.749   5.018   7.435 -0.7637  0.2930  1.8200
  524TIP3   OH223130   0.433   0.195   6.424  0.0338 -0.2552 -0.0127
  524TIP3    H123131   0.527   0.183   6.415  0.0151 -0.0038 -0.5927
  524TIP3    H223132   0.405   0.126   6.484  0.5364 -0.5437 -0.1100
  525TIP3   OH223133   5.532   6.215   1.716  0.3669  0.5387 -0.0061
  525TIP3    H123134   5.569   6.143   1.665 -1.7925 -0.4112 -0.3743
  525TIP3    H223135   5.530   6.183   1.806 -2.3648 -0.7979 -0.4202
  526TIP3   OH223136   2.000   1.806   7.998  0.0077  0.0462  0.6936
  526TIP3    H123137   1.929   1.759   7.953  0.1321  0.0140  0.5315
  526TIP3    H223138   2.078   1.753   7.983  0.1363  0.2677  0.5685
  527TIP3   OH223139   6.521   4.705   1.400 -0.4452 -0.2902 -0.5646
  527TIP3    H123140   6.587   4.694   1.332 -0.9005  1.0779 -1.2746
  527TIP3    H223141   6.565   4.756   1.468 -0.1737 -1.1398 -0.0874
  528TIP3   OH223142   6.776   2.713   1.520 -0.4411  0.0643  0.0688
  528TIP3    H123143   6.856   2.690   1.472 -0.2368 -1.2295  0.9943
  528TIP3    H223144   6.706   2.706   1.454  0.2934  2.4729 -1.0902
  529TIP3   OH223145   0.271   1.654   0.945  0.1792 -0.2864 -0.2983
  529TIP3    H123146   0.343   1.608   0.988  1.3459  0.6069 -1.2260
  529TIP3    H223147   0.314   1.709   0.879 -1.4776 -1.1899 -2.2430
  530TIP3   OH223148   5.545   2.467   1.544  0.5272  0.0680  0.9372
  530TIP3    H123149   5.523   2.377   1.568 -0.0750  0.6101  2.5342
  530TIP3    H223150   5.638   2.464   1.523  0.8653 -0.6738  2.4021
  531TIP3   OH223151   3.247   2.582   0.483  0.1095  0.0750 -0.2070
  531TIP3    H123152   3.159   2.599   0.515  0.7288  0.1407  1.5608
  531TIP3    H223153   3.301   2.576   0.562  1.3452 -1.9835 -1.1185
  532TIP3   OH223154   2.256   0.634   7.597  0.1817 -0.1172 -0.7895
  532TIP3    H123155   2.323   0.700   7.612  1.5500 -1.7652  0.9587
  532TIP3    H223156   2.300   0.551   7.617 -1.8833 -1.4242 -1.3793
  533TIP3   OH223157   4.589   3.473   0.509 -0.6144  0.3479 -0.1617
  533TIP3    H123158   4.579   3.559   0.550 -0.3339  0.5140 -0.4327
  533TIP3    H223159   4.544   3.413   0.567  1.0039  0.3529  1.1795
  534TIP3   OH223160   0.008   4.300   0.987 -0.2106 -0.3085 -0.7906
  534TIP3    H123161  -0.060   4.366   0.998 -0.8594 -1.3632  3.6090
  534TIP3    H223162  -0.040   4.219   0.968  0.3481 -0.1439 -3.1513
  535TIP3   OH223163   4.399   6.013   0.101  0.1634  0.6367 -0.7163
  535TIP3    H123164   4.379   6.073   0.173  0.1586 -1.5396  1.2027
  535TIP3    H223165   4.487   5.981   0.121 -0.8287 -1.9586 -0.1773
  536TIP3   OH223166   0.803   1.258   2.179  0.1484 -0.0723  0.0160
  536TIP3    H123167   0.813   1.353   2.186 -0.2853  0.1274 -1.6299
  536TIP3    H223168   0.887   1.223   2.207  0.5217  0.8275  0.0754
  537TIP3   OH223169   0.800   1.564   2.177  0.6180  0.1475  0.1287
  537TIP3    H123170   0.722   1.550   2.230  1.1092 -0.8135  0.6297
  537TIP3    H223171   0.854   1.624   2.230  0.6777 -0.0294  0.2694
  538TIP3   OH223172   1.574   6.749   2.300 -0.2061 -0.0304  0.9198
  538TIP3    H123173   1.587   6.831   2.252 -1.1742  0.8604  2.1042
  538TIP3    H223174   1.662   6.723   2.327  0.2456 -0.0335 -0.4714
  539TIP3   OH223175   2.628   2.112   2.235 -0.2246 -0.2815  0.2519
  539TIP3    H123176   2.541   2.073   2.228  0.3394 -1.5261 -0.0087
  539TIP3    H223177   2.677   2.052   2.291  0.0498  1.1805  1.6602
  540TIP3   OH223178   1.396   4.293   7.128  0.3214  0.1459 -0.3565
  540TIP3    H123179   1.380   4.280   7.034  1.0575 -0.1363 -0.4488
  540TIP3    H223180   1.419   4.386   7.136  1.2538 -0.0547 -0.6082
  541TIP3   OH223181   0.945   6.770   8.654  0.3548  0.1351  0.0969
  541TIP3    H123182   0.911   6.719   8.727 -0.4742  0.9289  0.2868
  541TIP3    H223183   0.877   6.836   8.638 -1.0361 -1.8688 -3.4134
  542TIP3   OH223184   3.187   1.302   1.439 -0.0341 -0.2508 -0.2080
  542TIP3    H123185   3.218   1.363   1.372  0.1300 -0.3186 -0.1942
  542TIP3    H223186   3.150   1.358   1.508 -0.1110 -0.1774 -0.3091
  543TIP3   OH223187   2.423   6.405   2.518 -0.5198  0.3419  0.2495
  543TIP3    H123188   2.442   6.499   2.515 -2.0285  0.6824 -3.6427
  543TIP3    H223189   2.330   6.400   2.540 -0.3189 -0.3220  0.9924
  544TIP3   OH223190   3.097   4.572   0.720  0.2633 -0.5251  0.3833
  544TIP3    H123191   3.071   4.644   0.662 -1.7336  1.7597  3.7283
  544TIP3    H223192   3.020   4.516   0.725  0.6354 -1.0477  0.4344
  545TIP3   OH223193   0.552   0.495   0.047  0.0652 -0.1168  0.0711
  545TIP3    H123194   0.601   0.446   0.114 -1.9262  0.4075  2.0410
  545TIP3    H223195   0.487   0.432   0.015 -2.3187  0.9770  2.4088
  546TIP3   OH223196   2.020   3.299   1.622 -0.3649  0.3769  0.5491
  546TIP3    H123197   2.106   3.265   1.649 -0.0994  0.6440  0.0560
  546TIP3    H223198   1.973   3.313   1.704 -0.8892 -2.1809  0.7732
  547TIP3   OH223199   3.783   3.075   2.221 -0.4658  0.4629 -0.3835
  547TIP3    H123200   3.758   3.029   2.140 -0.3974  0.8754 -0.6423
  547TIP3    H223201   3.833   3.010   2.270  0.0751  0.4174 -0.9771
  548TIP3   OH223202   6.605   2.086   1.629  0.4383 -0.0535  0.2210
  548TIP3    H123203   6.647   2.161   1.671 -0.6324  1.0914 -0.6764
  548TIP3    H223204   6.607   2.017   1.695  0.1194  1.2222  1.6040
  549TIP3   OH223205   0.990   2.676   0.307 -0.1525  0.6204  0.3064
  549TIP3    H123206   1.068   2.623   0.290 -0.6166  0.1122 -0.2767
  549TIP3    H223207   0.922   2.639   0.250 -1.4573 -0.3699  2.3774
  550TIP3   OH223208   1.910   4.041   2.075 -0.0811  0.2488 -0.2472
  550TIP3    H123209   1.921   4.129   2.112 -3.0322  0.8807 -0.5923
  550TIP3    H223210   1.815   4.032   2.064  0.0330 -3.2823  0.4598
  551TIP3   OH223211   4.413   5.364   1.016 -0.0489 -0.2025 -0.6516
  551TIP3    H123212   4.465   5.398   0.943 -0.3097 -0.6025 -1.0263
  551TIP3    H223213   4.356   5.436   1.041  0.8767  0.3459 -0.0418
  552TIP3   OH223214   3.011   3.339   7.255 -0.6619  0.2022 -0.3615
  552TIP3    H123215   3.064   3.274   7.209 -0.2307 -1.1419  1.8860
  552TIP3    H223216   2.922   3.325   7.223 -0.6729 -1.9447  0.4891
  553TIP3   OH223217   4.270   5.101   2.252  0.3290 -0.5227 -0.1768
  553TIP3    H123218   4.232   5.137   2.332 -0.6266  1.3433 -1.3997
  553TIP3    H223219   4.207   5.035   2.224  0.2360 -0.5807  0.1631
  554TIP3   OH223220   5.081   5.110   8.683 -0.0451  0.6920  0.0239
  554TIP3    H123221   5.130   5.035   8.650 -0.8240  1.2221 -2.6098
  554TIP3    H223222   5.017   5.072   8.744  0.8734 -0.5160  0.2715
  555TIP3   OH223223   0.963   3.639   7.728  0.1641 -0.0622  0.0977
  555TIP3    H123224   0.883   3.631   7.780  0.1492  0.9927  0.2602
  555TIP3    H223225   0.965   3.731   7.701  0.3613 -0.5158 -1.4887
  556TIP3   OH223226   2.693   1.322   0.501  0.3137 -0.0590  0.0894
  556TIP3    H123227   2.634   1.368   0.442  0.4109  1.1627  0.9030
  556TIP3    H223228   2.744   1.264   0.444 -1.3336 -0.8224 -0.6853
  557TIP3   OH223229   6.353   5.191   1.950 -0.3665 -0.3361  0.4420
  557TIP3    H123230   6.333   5.113   2.002  0.4878 -0.0706  1.1875
  557TIP3    H223231   6.424   5.234   1.997 -0.4262  0.5852 -0.2807
  558TIP3   OH223232   0.225   3.659   2.299  0.0906  0.6332 -0.0640
  558TIP3    H123233   0.221   3.585   2.360 -0.9179  0.5663 -0.2005
  558TIP3    H223234   0.134   3.687   2.290  0.3785  1.3952 -0.6246
  559TIP3   OH223235   1.851   3.440   8.034  0.0965 -0.0912  0.8483
  559TIP3    H123236   1.869   3.516   7.977 -0.5455  0.5322  1.4572
  559TIP3    H223237   1.904   3.370   7.997 -0.5141  0.2133 -0.7123
  560TIP3   OH223238   6.398   3.478   2.483 -0.7542 -0.1106 -0.3874
  560TIP3    H123239   6.407   3.384   2.496 -3.8913 -0.2229  2.7193
  560TIP3    H223240   6.441   3.517   2.559  0.2510  0.9951 -1.4862
  561TIP3   OH223241   1.465   1.307   7.706 -0.2873 -0.1935 -0.0966
  561TIP3    H123242   1.401   1.327   7.637 -0.6441 -1.7445 -0.2415
  561TIP3    H223243   1.477   1.212   7.701  1.9098  0.0408  0.0657
  562TIP3   OH223244   0.447   5.239   2.639 -0.3177 -0.3608 -0.0707
  562TIP3    H123245   0.407   5.252   2.553  2.0545  0.1772 -1.1572
  562TIP3    H223246   0.484   5.151   2.636 -1.1188 -0.7554  0.8301
  563TIP3   OH223247   0.129   5.810   2.868 -0.7029 -0.0830  0.2795
  563TIP3    H123248   0.191   5.814   2.795  0.9651 -2.0528  1.4444
  563TIP3    H223249   0.056   5.758   2.835 -0.0374 -0.8263 -0.0587
  564TIP3   OH223250   3.326   5.719   0.180  0.0639  0.2076 -0.5785
  564TIP3    H123251   3.359   5.630   0.167  0.7753 -0.0763  2.4514
  564TIP3    H223252   3.244   5.708   0.228  0.4571  1.1720  0.3577
  565TIP3   OH223253   3.601   2.236   6.937 -0.8469 -0.4211 -0.3973
  565TIP3    H123254   3.545   2.291   6.991 -1.0688  0.4918 -1.5100
  565TIP3    H223255   3.541   2.192   6.877 -0.3630  1.1814 -2.1454
  566TIP3   OH223256   0.879   4.365   1.608 -0.1946 -0.3541 -0.1325
  566TIP3    H123257   0.913   4.290   1.657  2.5486  0.0612 -1.2381
  566TIP3    H223258   0.957   4.413   1.579 -1.8081  1.8101 -1.2055
  567TIP3   OH223259   3.275   5.583   7.049  0.2780 -0.8373 -0.3166
  567TIP3    H123260   3.188   5.561   7.084 -0.8179  0.2875 -2.1294
  567TIP3    H223261   3.303   5.504   7.004  0.5393 -1.4468  0.8934
  568TIP3   OH223262   4.161   3.659   0.840 -0.2724  0.1790  0.1465
  568TIP3    H123263   4.140   3.751   0.855 -0.0511  0.4010 -0.8279
  568TIP3    H223264   4.104   3.633   0.768  1.3790  0.2697 -1.2730
  569TIP3   OH223265   4.343   1.511   0.571 -0.3810  0.5992  0.3378
  569TIP3    H123266   4.280   1.482   0.636 -0.9847  1.2020  0.0373
  569TIP3    H223267   4.297   1.503   0.487  0.5718 -0.6966 -0.0970
  570TIP3   OH223268   0.825   3.531   1.302 -0.4014 -0.3541  0.2496
  570TIP3    H123269   0.914   3.550   1.333 -0.2704 -1.1085  0.3601
  570TIP3    H223270   0.791   3.615   1.274  0.1602  0.0362  0.7072
  571TIP3   OH223271   0.339   6.571   8.606 -0.3444  0.2105  0.5214
  571TIP3    H123272   0.326   6.477   8.593  1.6605 -0.0496  0.1820
  571TIP3    H223273   0.252   6.609   8.589 -1.4890 -1.6534  1.8117
  572TIP3   OH223274   3.181   0.097   7.889 -0.1357 -0.0127  0.6600
  572TIP3    H123275   3.085   0.104   7.888 -0.1199  0.2984 -0.4698
  572TIP3    H223276   3.210   0.177   7.932 -0.3999 -0.6573  2.0926
  573TIP3   OH223277   4.437   0.957   1.185  0.3640  0.0241 -0.5157
  573TIP3    H123278   4.356   0.947   1.235  0.7942 -0.1674  0.1519
  573TIP3    H223279   4.502   0.985   1.249  0.5095  1.5947 -1.2943
  574TIP3   OH223280   0.709   5.295   8.496  0.3235  0.5070  0.1583
  574TIP3    H123281   0.759   5.256   8.567  1.4216  0.8485 -0.4096
  574TIP3    H223282   0.751   5.379   8.479 -0.4168  0.7881 -0.3584
  575TIP3   OH223283   2.072   3.889   7.193  0.1480  0.0303 -0.5586
  575TIP3    H123284   2.052   3.856   7.280 -1.2178 -0.3684 -1.0017
  575TIP3    H223285   2.053   3.983   7.198  0.0034 -0.0050 -0.4554
  576TIP3   OH223286   1.837   0.851   1.410 -0.3063  0.5070  0.0758
  576TIP3    H123287   1.867   0.912   1.478 -0.0711 -0.0478  0.4822
  576TIP3    H223288   1.906   0.785   1.405  0.1869  1.1089 -1.4652
  577TIP3   OH223289   5.108   5.572   1.737 -0.0167  0.8979  0.3992
  577TIP3    H123290   5.050   5.591   1.663 -1.6689  0.8590  1.6143
  577TIP3    H223291   5.194   5.558   1.698 -0.9251  0.4712 -1.5413
  578TIP3   OH223292   2.641   3.474   0.057  0.2859 -0.3502  0.5080
  578TIP3    H123293   2.672   3.540   0.119 -0.0429  0.5168 -0.2252
  578TIP3    H223294   2.547   3.471   0.070  0.3808 -1.2668  1.0850
  579TIP3   OH223295   0.169   1.061   1.702 -0.1941 -0.1174 -0.1450
  579TIP3    H123296   0.139   1.143   1.741  0.0814 -0.8279  1.6847
  579TIP3    H223297   0.265   1.070   1.698 -0.2012 -0.1537 -0.4227
  580TIP3   OH223298   1.129   0.032   2.640  0.0080  0.1438  0.2975
  580TIP3    H123299   1.095  -0.057   2.655  0.3062  0.3078  2.1511
  580TIP3    H223300   1.100   0.082   2.716 -0.6790  1.8246 -1.0153
  581TIP3   OH223301   3.466   5.188   2.119 -0.2564 -0.0744 -0.3550
  581TIP3    H123302   3.482   5.109   2.172  1.6542  0.3955 -0.1480
  581TIP3    H223303   3.523   5.255   2.158 -0.4435  0.8909 -1.6636
  582TIP3   OH223304   5.979   4.408   2.360 -0.4343 -0.4097  0.4652
  582TIP3    H123305   5.964   4.496   2.324  0.0302 -0.9661 -1.1559
  582TIP3    H223306   6.039   4.366   2.298 -0.6773 -1.8884  1.1850
  583TIP3   OH223307   6.252   3.814   6.225 -0.9185 -0.0937 -0.5322
  583TIP3    H123308   6.286   3.852   6.307  0.2562 -0.2038 -0.9524
  583TIP3    H223309   6.202   3.737   6.254 -0.9367  0.1530  0.1205
  584TIP3   OH223310   2.394   5.580   7.892 -0.2082 -0.2384 -0.0547
  584TIP3    H123311   2.334   5.508   7.915 -0.7126 -0.2274 -1.2721
  584TIP3    H223312   2.364   5.654   7.944 -1.0873 -0.3125 -0.4404
  585TIP3   OH223313   0.145   1.672   7.321  0.1624  0.5697  0.0270
  585TIP3    H123314   0.073   1.680   7.259  2.0514  0.9443 -2.2300
  585TIP3    H223315   0.149   1.758   7.365  1.1541  1.7093 -2.1378
  586TIP3   OH223316   2.808   5.396   0.827  0.3501  0.6652  0.7138
  586TIP3    H123317   2.816   5.359   0.916  1.4877 -0.0502  0.3348
  586TIP3    H223318   2.788   5.320   0.772  4.2512  0.1810 -0.3179
  587TIP3   OH223319   4.944   2.315   8.764 -0.4035 -0.3743  0.1280
  587TIP3    H123320   5.001   2.328   8.839 -1.2618 -0.0011  0.7385
  587TIP3    H223321   4.947   2.399   8.717 -1.0295 -0.0878  0.5839
  588TIP3   OH223322   0.366   4.806   1.876  0.4907 -0.4209 -0.0753
  588TIP3    H123323   0.322   4.791   1.960 -1.9525 -1.2893 -1.4339
  588TIP3    H223324   0.362   4.901   1.863 -1.0264 -0.4857 -0.1680
  589TIP3   OH223325   2.357   3.217   8.743 -0.1945 -0.1343  0.2127
  589TIP3    H123326   2.395   3.218   8.831 -0.9541  1.2859  0.5530
  589TIP3    H223327   2.398   3.292   8.699  0.1923 -0.8470 -0.6542
  590TIP3   OH223328   0.225   0.671   8.559 -0.1668  0.0567  0.0306
  590TIP3    H123329   0.307   0.672   8.510 -0.3463 -0.5540 -0.2987
  590TIP3    H223330   0.233   0.596   8.618 -1.3175 -1.3328 -1.4944
  591TIP3   OH223331   6.719   5.487   1.556 -0.0677 -0.6462  0.2503
  591TIP3    H123332   6.635   5.507   1.513  0.6701 -0.0172 -0.9389
  591TIP3    H223333   6.759   5.421   1.500  1.2217  0.6943 -0.4688
  592TIP3   OH223334   2.065   2.139   6.985  0.1403  0.6795 -0.3664
  592TIP3    H123335   2.061   2.226   7.024 -0.7754  1.0916 -1.3164
  592TIP3    H223336   2.085   2.155   6.892 -0.4590 -0.0880 -0.6431
  593TIP3   OH223337   0.310   3.884   1.368  0.7779 -0.7702 -0.0211
  593TIP3    H123338   0.214   3.879   1.367  0.7202 -0.0014  0.4247
  593TIP3    H223339   0.330   3.973   1.338  1.3280 -0.7855  0.2832
  594TIP3   OH223340   3.821   1.059   7.366 -0.1041  0.0040  0.2860
  594TIP3    H123341   3.874   1.020   7.297 -1.6667 -2.6503  0.4624
  594TIP3    H223342   3.759   0.990   7.391 -0.1254  1.0941  3.7844
  595TIP3   OH223343   4.095   5.022   1.476  0.2485 -0.4283  0.0445
  595TIP3    H123344   4.117   5.030   1.568 -1.7351  1.3522  0.4458
  595TIP3    H223345   4.055   5.106   1.453  0.2822 -0.9728 -2.3334
  596TIP3   OH223346   6.216   1.134   2.112 -0.1702 -0.9077 -0.3308
  596TIP3    H123347   6.261   1.178   2.185  0.6305 -0.6550 -0.9574
  596TIP3    H223348   6.125   1.131   2.139 -0.0525  0.0934  0.2472
  597TIP3   OH223349   6.673   6.010   8.841  0.1214 -0.0092  0.3640
  597TIP3    H123350   6.609   5.941   8.857  1.5635 -1.0137  2.2655
  597TIP3    H223351   6.623   6.091   8.842 -1.1372 -0.7708  1.6904
  598TIP3   OH223352   4.176   2.171   7.510  0.5380 -0.6040 -0.1435
  598TIP3    H123353   4.243   2.129   7.564  2.8035  0.0904 -2.2506
  598TIP3    H223354   4.218   2.249   7.474 -2.2262  1.2721  0.3342
  599TIP3   OH223355   6.337   3.252   8.717 -0.0668 -0.0655 -0.8611
  599TIP3    H123356   6.336   3.344   8.689  1.0192 -0.3284 -1.8252
  599TIP3    H223357   6.408   3.212   8.668 -0.2186 -1.3343 -0.1082
  600TIP3   OH223358   6.408   0.332   7.467 -0.4632 -0.9022  0.2748
  600TIP3    H123359   6.412   0.239   7.447 -1.1780 -0.5556 -1.7066
  600TIP3    H223360   6.431   0.376   7.385  1.6624  0.7032  1.6161
  601TIP3   OH223361   2.396   4.455   8.129  0.2602 -0.7333  0.3956
  601TIP3    H123362   2.381   4.549   8.127  2.5843 -0.1781  3.0388
  601TIP3    H223363   2.355   4.425   8.210  0.4412 -1.8222  0.1146
  602TIP3   OH223364   1.823   3.216   6.675 -0.0357  0.5579 -0.4447
  602TIP3    H123365   1.789   3.218   6.764  1.5894  1.0433  0.1975
  602TIP3    H223366   1.817   3.307   6.645 -1.3689  0.2588 -1.1787
  603TIP3   OH223367   4.907   1.047   1.508  0.3551  0.9938  0.3298
  603TIP3    H123368   4.881   0.991   1.582 -1.6093  3.3611  1.5840
  603TIP3    H223369   4.993   1.081   1.534  0.8652 -0.1733  0.2611
  604TIP3   OH223370   2.771   2.294   7.594 -0.6956 -0.8610 -0.0558
  604TIP3    H123371   2.810   2.224   7.541 -1.4576 -1.4178  0.1065
  604TIP3    H223372   2.706   2.334   7.536  1.1742  1.1740 -0.9338
  605TIP3   OH223373   6.158   5.949   1.070 -0.1977 -0.1104  0.4826
  605TIP3    H123374   6.222   5.998   1.122 -0.3012 -1.1493  1.6555
  605TIP3    H223375   6.148   6.000   0.990  1.0918  0.7741  0.8455
  606TIP3   OH223376   0.317   6.307   8.591 -0.3940 -0.5357  0.1986
  606TIP3    H123377   0.339   6.264   8.673  0.7905 -0.3761 -0.0189
  606TIP3    H223378   0.312   6.236   8.527 -1.3430 -0.6632  0.4017
  607TIP3   OH223379   6.248   5.127   7.830 -0.4465 -0.3804  0.2568
  607TIP3    H123380   6.265   5.185   7.755  1.0359  1.1991  1.7053
  607TIP3    H223381   6.308   5.054   7.817  0.7005  0.4877  0.4741
  608TIP3   OH223382   2.158   3.952   0.657  0.6114  0.2147  0.4267
  608TIP3    H123383   2.128   3.934   0.746  0.1826  0.4452  0.3305
  608TIP3    H223384   2.079   3.978   0.610  0.8783  0.3287  0.0396
  609TIP3   OH223385   1.157   5.568   7.830 -0.3180 -0.0060 -0.1667
  609TIP3    H123386   1.188   5.658   7.832 -1.2149  0.3484 -1.2633
  609TIP3    H223387   1.113   5.556   7.914  1.3015 -0.0138  0.7347
  610TIP3   OH223388   1.370   5.061   7.504 -0.6263 -0.4868 -0.7915
  610TIP3    H123389   1.317   5.078   7.426 -0.4577  2.8692 -0.3283
  610TIP3    H223390   1.321   5.101   7.575  1.2166  0.3155  0.0947
  611TIP3   OH223391   1.006   6.105   7.336 -0.6663  0.4596 -0.1707
  611TIP3    H123392   1.076   6.122   7.398 -1.3074  0.9678  0.4232
  611TIP3    H223393   0.927   6.142   7.376 -0.5795  3.8189 -2.6805
  612TIP3   OH223394   1.497   1.058   8.355 -0.5934  0.2861 -0.3822
  612TIP3    H123395   1.416   1.071   8.404 -0.7271  0.1690 -0.5704
  612TIP3    H223396   1.468   1.043   8.265 -0.3624  0.2188 -0.4443
  613TIP3   OH223397   1.182   4.852   1.265  0.5334  0.4901 -0.1542
  613TIP3    H123398   1.152   4.916   1.330 -0.5109 -0.2062  0.0628
  613TIP3    H223399   1.227   4.905   1.199  0.1404  1.4015  0.2901
  614TIP3   OH223400   6.180   6.239   8.479  0.5890  0.0216 -0.3437
  614TIP3    H123401   6.124   6.225   8.556 -2.2528 -1.3261 -2.4590
  614TIP3    H223402   6.257   6.186   8.495  0.0035 -0.3446  1.4992
  615TIP3   OH223403   5.039   5.763   7.937 -0.0366  0.1587 -0.0791
  615TIP3    H123404   4.950   5.793   7.953 -0.5239 -0.4783 -1.4785
  615TIP3    H223405   5.040   5.737   7.845  0.9099 -2.1015  0.4927
  616TIP3   OH223406   3.963   2.829   0.393  0.1087  0.5213  0.1528
  616TIP3    H123407   4.026   2.783   0.449  1.0445  0.3678 -0.9910
  616TIP3    H223408   3.886   2.772   0.392  0.4200  0.0830  0.5426
  617TIP3   OH223409   4.059   0.799   8.127  0.0859 -0.3493 -0.7470
  617TIP3    H123410   4.129   0.788   8.063 -0.3666 -0.1693 -1.2713
  617TIP3    H223411   4.037   0.709   8.154 -0.4310 -0.4949 -1.6120
  618TIP3   OH223412   4.922   1.351   2.449 -0.1725  0.2286  0.2169
  618TIP3    H123413   4.903   1.299   2.527  0.3912  1.2145  1.0370
  618TIP3    H223414   4.962   1.431   2.482  0.0781  0.6783 -1.0902
  619TIP3   OH223415   1.602   2.621   8.177 -0.3165  0.0159 -0.1553
  619TIP3    H123416   1.595   2.534   8.138  0.4492 -0.2004  0.1619
  619TIP3    H223417   1.656   2.670   8.116 -0.2189  0.0716 -0.0259
  620TIP3   OH223418   3.109   3.670   8.081 -0.1145 -0.3036 -0.2061
  620TIP3    H123419   3.118   3.600   8.145 -0.1882 -1.5986 -1.5655
  620TIP3    H223420   3.194   3.673   8.036 -0.0568  0.5982 -0.0605
  621TIP3   OH223421   2.758   2.045   1.753  0.2622 -0.6065  0.3934
  621TIP3    H123422   2.825   1.978   1.762  1.3008  0.2228 -0.8032
  621TIP3    H223423   2.798   2.124   1.789 -0.9762 -0.6027  1.8661
  622TIP3   OH223424   0.899   1.001   0.800 -0.5307 -0.3304 -0.0510
  622TIP3    H123425   0.891   1.092   0.827 -2.3138 -0.6540  0.6780
  622TIP3    H223426   0.899   1.003   0.705  1.5597  0.5449 -0.0774
  623TIP3   OH223427   3.217   6.329   8.075  0.0946  0.4165  0.3268
  623TIP3    H123428   3.240   6.238   8.093  0.1903  0.7270  1.8750
  623TIP3    H223429   3.278   6.356   8.006 -0.0637 -0.7324 -0.2941
  624TIP3   OH223430   5.219   3.121   8.180  0.0899  0.3265  0.5785
  624TIP3    H123431   5.131   3.159   8.175  0.4409  1.0916 -0.0078
  624TIP3    H223432   5.242   3.126   8.273 -0.0399  1.1881  0.5716
  625TIP3   OH223433   2.755   6.310   0.053  0.3726 -0.2017 -0.7977
  625TIP3    H123434   2.725   6.219   0.051 -1.9152  0.4718 -0.4695
  625TIP3    H223435   2.768   6.333  -0.039 -0.1285 -0.5489 -0.9625
  626TIP3   OH223436   2.220   2.072   8.257  0.5331 -0.8597  0.1539
  626TIP3    H123437   2.194   2.078   8.165  1.1608  1.4291  0.0686
  626TIP3    H223438   2.185   2.151   8.297 -2.0652 -3.0328  2.5971
  627TIP3   OH223439   1.858   6.268   1.495  0.3422 -0.3347  0.1486
  627TIP3    H123440   1.926   6.221   1.543  0.0125  0.1893  1.1399
  627TIP3    H223441   1.810   6.316   1.561 -1.1373 -0.8427 -0.5139
  628TIP3   OH223442   6.173   5.772   8.379 -0.0573  0.0726  0.1859
  628TIP3    H123443   6.201   5.847   8.431  0.6297 -0.0878  0.0619
  628TIP3    H223444   6.101   5.805   8.325  0.9248  0.9390 -0.6354
  629TIP3   OH223445   6.362   2.765   8.381 -0.3726  0.2037  0.6651
  629TIP3    H123446   6.280   2.742   8.338  0.0905  1.6150 -1.1158
  629TIP3    H223447   6.429   2.719   8.331  0.1327  1.3153  0.3020
  630TIP3   OH223448   5.082   1.650   0.851  0.1080  0.4195  0.4088
  630TIP3    H123449   4.999   1.687   0.821 -0.7416  0.2577  2.3989
  630TIP3    H223450   5.114   1.714   0.915 -1.5852 -2.1518  4.2635
  631TIP3   OH223451   5.779   2.532   7.434  0.3569 -0.2005 -0.4625
  631TIP3    H123452   5.741   2.502   7.351 -0.2466  1.6380 -0.8951
  631TIP3    H223453   5.705   2.567   7.483  0.8225 -0.6477  0.5745
  632TIP3   OH223454   0.731   6.461   7.059  0.0684 -0.2073  0.5608
  632TIP3    H123455   0.811   6.449   7.009  0.1387 -0.3461  0.7074
  632TIP3    H223456   0.759   6.465   7.150  0.0182  0.7572  0.5437
  633TIP3   OH223457   2.058   3.763   7.463 -0.4257 -0.3470  0.0649
  633TIP3    H123458   2.070   3.676   7.501  0.3008  0.3115  1.3728
  633TIP3    H223459   2.134   3.814   7.493 -0.8436  0.7498 -0.6709
  634TIP3   OH223460   5.163   5.918   0.261  0.5061  0.2726 -0.4657
  634TIP3    H123461   5.229   5.849   0.257  0.9056  0.6840 -2.7325
  634TIP3    H223462   5.095   5.883   0.318  2.0320 -0.7295  0.8380
  635TIP3   OH223463   0.857   1.313   0.156 -0.2858 -0.0367 -0.4469
  635TIP3    H123464   0.936   1.340   0.203  0.1790  0.0648 -1.2804
  635TIP3    H223465   0.869   1.219   0.142  0.0169  0.1092 -1.1901
  636TIP3   OH223466   0.401   5.703   2.255  0.0746  0.3112 -0.3777
  636TIP3    H123467   0.379   5.639   2.188  0.3224  0.4183 -0.5650
  636TIP3    H223468   0.384   5.788   2.214  0.5601  0.3868 -0.4278
  637TIP3   OH223469   4.632   1.878   0.520 -0.4984 -0.1746  0.2484
  637TIP3    H123470   4.570   1.830   0.575 -1.2252  0.0903 -0.3394
  637TIP3    H223471   4.606   1.969   0.528  0.6082  0.1000  0.9981
  638TIP3   OH223472   0.052   4.037   0.775  0.3956 -0.1564 -0.1988
  638TIP3    H123473  -0.035   4.061   0.742  0.3823  0.5742  0.3610
  638TIP3    H223474   0.113   4.071   0.709  0.2368 -1.7161 -1.2204
  639TIP3   OH223475   2.436   0.899   8.777  0.2045 -0.4068  0.2281
  639TIP3    H123476   2.485   0.951   8.841  0.1372 -0.8553  0.6577
  639TIP3    H223477   2.382   0.963   8.730  1.8336  0.2162 -0.8748
  640TIP3   OH223478   6.081   5.949   8.697 -0.4921  0.4603  0.0439
  640TIP3    H123479   6.035   5.869   8.672 -0.0686  0.4090 -0.5812
  640TIP3    H223480   6.173   5.931   8.676 -0.4022  1.1225 -0.1367
  641TIP3   OH223481   2.367   4.030   1.486  0.2248 -0.0922  0.1381
  641TIP3    H123482   2.360   4.096   1.554  0.5134 -0.4078  0.4802
  641TIP3    H223483   2.326   4.070   1.409  1.4454  0.9509 -0.0059
  642TIP3   OH223484   3.566   3.399   0.034 -0.1488 -0.1495 -0.4379
  642TIP3    H123485   3.588   3.306   0.045  1.2234  0.2019 -0.0748
  642TIP3    H223486   3.545   3.429   0.122  1.3143  0.3352 -0.2339
  643TIP3   OH223487   5.458   4.430   7.285 -0.1082  0.0657 -0.5350
  643TIP3    H123488   5.504   4.361   7.238  0.4294 -0.4461  0.6844
  643TIP3    H223489   5.518   4.505   7.282 -0.3613  0.2480 -1.2053
  644TIP3   OH223490   6.550   1.056   7.205  1.2201 -0.5149 -0.1290
  644TIP3    H123491   6.604   0.983   7.173  0.7479 -1.0858  0.3567
  644TIP3    H223492   6.613   1.124   7.227  1.8914 -1.5967  1.5593
  645TIP3   OH223493   1.579   1.440   8.742  0.0504  0.0981 -0.8075
  645TIP3    H123494   1.576   1.441   8.837  0.4551  1.0052 -0.7959
  645TIP3    H223495   1.644   1.373   8.720  1.0782  0.9528 -0.4063
  646TIP3   OH223496   4.620   2.938   0.504  0.3912  0.3445 -0.0175
  646TIP3    H123497   4.617   2.973   0.593 -2.3294 -1.4275  0.6911
  646TIP3    H223498   4.695   2.878   0.505  1.4432  1.6143  0.4988
  647TIP3   OH223499   6.149   0.477   1.030  0.4720 -0.3222  0.0426
  647TIP3    H123500   6.065   0.517   1.009  0.8668  1.2122  1.1908
  647TIP3    H223501   6.139   0.445   1.119  1.0244 -0.3470  0.1014
  648TIP3   OH223502   1.178   3.110   0.161 -0.3478  0.3171 -0.1232
  648TIP3    H123503   1.148   3.193   0.199  2.5202  0.3854  2.2577
  648TIP3    H223504   1.139   3.043   0.216 -1.0372  0.1185 -0.8286
  649TIP3   OH223505   1.770   3.285   7.755  0.0047 -0.1109  0.1446
  649TIP3    H123506   1.784   3.204   7.705 -1.8429 -0.7124  0.5329
  649TIP3    H223507   1.721   3.258   7.832  1.8361  0.9862  1.7980
  650TIP3   OH223508   3.209   3.555   0.444  0.4050 -0.8234 -0.2455
  650TIP3    H123509   3.212   3.460   0.450  1.4892 -0.7739  0.2207
  650TIP3    H223510   3.262   3.576   0.367  0.9334 -0.5555  0.1881
  651TIP3   OH223511   3.168   3.191   7.090 -0.0947  0.5375 -0.7462
  651TIP3    H123512   3.133   3.155   7.008 -1.7736  1.6339 -0.5459
  651TIP3    H223513   3.230   3.124   7.120 -1.6783 -1.2999 -1.3497
  652TIP3   OH223514   6.313   6.454   1.416  0.2493  0.5725 -0.5000
  652TIP3    H123515   6.242   6.394   1.395 -0.3139  0.4603  1.4885
  652TIP3    H223516   6.331   6.500   1.334  0.6376 -2.1799 -2.0922
  653TIP3   OH223517   0.093   0.918   7.657 -0.0037  0.3460 -0.1986
  653TIP3    H123518   0.032   0.985   7.686  0.3147  0.9921 -0.9798
  653TIP3    H223519   0.041   0.864   7.597  0.3042  1.1883 -1.2472
  654TIP3   OH223520   6.770   3.549   2.493 -0.3016 -0.1726 -0.5062
  654TIP3    H123521   6.743   3.589   2.410  1.1486  1.7007 -0.1285
  654TIP3    H223522   6.864   3.535   2.484  0.2549  1.7556  1.4336
  655TIP3   OH223523   5.433   2.824   0.674  0.5621 -0.4760 -0.2498
  655TIP3    H123524   5.338   2.828   0.688  0.6160 -0.2157  0.0704
  655TIP3    H223525   5.458   2.738   0.707  0.3253 -0.8822 -1.0914
  656TIP3   OH223526   1.345   0.995   8.753  0.0740 -0.1870  0.0899
  656TIP3    H123527   1.262   0.949   8.736  0.3584 -0.3986 -0.7835
  656TIP3    H223528   1.324   1.087   8.740 -0.3264 -0.1167  1.1399
  657TIP3   OH223529   5.651   4.106   0.853  0.1216  0.1632  0.1876
  657TIP3    H123530   5.716   4.165   0.817 -0.1174  0.2687 -0.0772
  657TIP3    H223531   5.577   4.111   0.792 -0.9273  1.5515  1.4776
  658TIP3   OH223532   3.395   6.421   7.903 -0.0893 -0.7385 -0.5327
  658TIP3    H123533   3.463   6.359   7.933  1.0590  0.4723 -0.5289
  658TIP3    H223534   3.445   6.494   7.867 -1.3889  0.7275  0.5537
  659TIP3   OH223535   0.747   1.421   8.701  0.4890 -0.6141  0.3627
  659TIP3    H123536   0.735   1.336   8.660 -2.1086 -0.4201  0.5645
  659TIP3    H223537   0.782   1.477   8.631  1.4579 -1.6068  0.0250
  660TIP3   OH223538   4.469   1.971   6.985  0.2099  0.0282  0.6400
  660TIP3    H123539   4.530   2.028   7.032 -0.5713  0.2802  1.3852
  660TIP3    H223540   4.492   1.982   6.893  3.0832 -1.9964  0.9829
  661TIP3   OH223541   0.622   1.130   7.419 -0.1520 -0.1527  0.3390
  661TIP3    H123542   0.574   1.047   7.429  2.0764 -1.6956 -0.8744
  661TIP3    H223543   0.683   1.132   7.492 -0.0357  0.3237  0.2305
  662TIP3   OH223544   2.420   5.673   2.639 -0.2674  0.9611  0.0900
  662TIP3    H123545   2.460   5.605   2.693  1.0279 -0.3022 -2.2779
  662TIP3    H223546   2.328   5.674   2.666  0.7260  2.3459  4.0956
  663TIP3   OH223547   0.264   0.535   1.123  0.4320  0.0209  0.3990
  663TIP3    H123548   0.272   0.520   1.029 -3.1189 -1.4444  0.2007
  663TIP3    H223549   0.320   0.468   1.163  0.9142 -0.2120 -0.6412
  664TIP3   OH223550   1.827   5.602   7.873 -0.2778  0.4199  0.2351
  664TIP3    H123551   1.856   5.690   7.898  0.4850  0.1731  0.2480
  664TIP3    H223552   1.740   5.594   7.910  0.2197  0.6364  1.4886
  665TIP3   OH223553   0.366   3.340   7.541 -0.2248 -0.0102  0.7296
  665TIP3    H123554   0.333   3.417   7.496  0.5040  0.9412  1.7823
  665TIP3    H223555   0.376   3.367   7.632  1.5912 -0.8453  0.8202
  666TIP3   OH223556   3.111   5.239   1.735 -0.4808 -0.4274  0.7238
  666TIP3    H123557   3.083   5.171   1.673 -0.7441  0.2368  0.1005
  666TIP3    H223558   3.156   5.190   1.805 -0.5624 -1.2292  0.2348
  667TIP3   OH223559   4.720   6.529   0.411 -0.3463 -0.2406  0.2912
  667TIP3    H123560   4.798   6.568   0.450 -1.0945  0.1258  1.4977
  667TIP3    H223561   4.732   6.540   0.317  0.2212  1.4599  0.5193
  668TIP3   OH223562   6.005   2.152   0.397 -0.1091 -0.0387  0.1513
  668TIP3    H123563   6.007   2.240   0.359 -0.4832  1.0484  2.4783
  668TIP3    H223564   6.086   2.146   0.448  1.2176 -2.0969 -2.0144
  669TIP3   OH223565   0.303   5.854   8.807 -0.6309 -0.5305  0.2772
  669TIP3    H123566   0.277   5.762   8.810  1.2434 -1.0630  1.5151
  669TIP3    H223567   0.348   5.863   8.723  0.7823 -1.2566  0.9153
  670TIP3   OH223568   4.639   4.463   7.852  0.1877 -0.0526  0.2467
  670TIP3    H123569   4.559   4.418   7.824  0.4307  0.1716 -0.8923
  670TIP3    H223570   4.708   4.398   7.842  0.3251  0.1256  0.0300
  671TIP3   OH223571   1.566   3.865   7.434 -0.0086 -0.4569 -0.1445
  671TIP3    H123572   1.639   3.839   7.489 -0.0258  0.7181  0.4619
  671TIP3    H223573   1.596   3.945   7.391 -1.3632  0.7425  1.0595
  672TIP3   OH223574   4.785   1.859   7.070 -0.0051 -0.1245  0.3743
  672TIP3    H123575   4.748   1.852   7.157  0.8336  1.4796  0.9015
  672TIP3    H223576   4.818   1.949   7.064 -1.3140  0.2900 -2.1219
  673TIP3   OH223577   2.487   0.054   1.181 -1.0180 -0.7448 -0.3493
  673TIP3    H123578   2.403   0.033   1.139 -1.4562 -2.9359  1.3784
  673TIP3    H223579   2.550   0.056   1.110 -1.9367 -3.0032 -1.3404
  674TIP3   OH223580   5.476   2.792   8.428 -0.3018 -0.2744 -0.0079
  674TIP3    H123581   5.473   2.805   8.333 -2.5753  1.4255  0.1902
  674TIP3    H223582   5.566   2.813   8.453 -0.1126  1.0039 -1.6190
  675TIP3   OH223583   3.432   5.737   2.251 -0.5691 -0.1419 -0.0829
  675TIP3    H123584   3.417   5.787   2.331 -2.1936  0.0734 -0.4938
  675TIP3    H223585   3.463   5.802   2.188 -0.4205 -0.0903  0.0444
  676TIP3   OH223586   2.587   4.388   1.103 -0.4062 -0.7099 -0.2479
  676TIP3    H123587   2.676   4.368   1.133 -0.4459 -0.3034  0.1445
  676TIP3    H223588   2.530   4.350   1.170 -0.4916  0.3074  0.2668
  677TIP3   OH223589   2.721   2.290   6.740 -0.0729 -0.2213  0.3579
  677TIP3    H123590   2.757   2.223   6.799  2.1688  1.8086  1.4479
  677TIP3    H223591   2.679   2.353   6.799  0.3917  0.8094 -0.3939
  678TIP3   OH223592   1.366   2.868   8.831 -0.6662  0.1462  0.3432
  678TIP3    H123593   1.372   2.837   8.921 -1.8462  0.0563  0.4084
  678TIP3    H223594   1.427   2.942   8.827 -1.3716  0.8290  1.5158
  679TIP3   OH223595   4.210   3.726   1.923  0.0310 -0.0864  0.0036
  679TIP3    H123596   4.117   3.714   1.944 -0.2594  1.8645  0.0492
  679TIP3    H223597   4.220   3.688   1.836 -1.3546  1.5230 -0.9355
  680TIP3   OH223598   3.465   1.052   7.098 -0.0868 -0.5172  0.0531
  680TIP3    H123599   3.513   1.131   7.123  0.3656 -1.0149  0.7757
  680TIP3    H223600   3.472   1.050   7.003 -0.8528  0.7836 -0.0595
  681TIP3   OH223601   5.678   3.349   8.477 -0.9713  0.1094  0.2042
  681TIP3    H123602   5.678   3.437   8.437 -0.5846  0.1546  0.2989
  681TIP3    H223603   5.722   3.361   8.561  0.2591 -0.4139 -0.3384
  682TIP3   OH223604   1.778   2.512   6.736 -0.2882  0.1514  0.5116
  682TIP3    H123605   1.870   2.532   6.752 -0.5556  1.6797  0.3003
  682TIP3    H223606   1.778   2.421   6.706  1.1618  0.1679  0.4021
  683TIP3   OH223607   6.340   0.924   2.396  0.4750 -0.2578  0.0967
  683TIP3    H123608   6.360   0.864   2.468 -1.7599  0.8354  1.7434
  683TIP3    H223609   6.278   0.876   2.341  0.6767 -0.3908 -0.0144
  684TIP3   OH223610   4.702   4.748   8.695  0.2587  0.0494  0.0113
  684TIP3    H123611   4.720   4.736   8.788  0.0968  1.5101  0.2588
  684TIP3    H223612   4.772   4.701   8.651 -0.8821 -2.5694  0.7934
  685TIP3   OH223613   1.429   6.188   7.263 -0.3299  0.1418  0.0265
  685TIP3    H123614   1.383   6.188   7.348 -0.0774  0.9913  0.1668
  685TIP3    H223615   1.519   6.164   7.285  0.0979  1.7923  0.2204
  686TIP3   OH223616   5.959   1.579   7.287  0.1364 -0.0098 -0.1101
  686TIP3    H123617   6.042   1.539   7.311 -0.1234  0.4530  1.7116
  686TIP3    H223618   5.972   1.673   7.301 -0.2996  0.2153 -1.0803
  687TIP3   OH223619   5.428   4.399   0.447 -0.6427  0.7789  0.3847
  687TIP3    H123620   5.500   4.422   0.506  2.2524 -0.2006 -2.4614
  687TIP3    H223621   5.417   4.305   0.459 -0.8912  0.7912  0.2598
  688TIP3   OH223622   2.812   0.642   1.788 -0.2233  0.8039  0.0236
  688TIP3    H123623   2.861   0.664   1.867 -0.6339  0.4136  0.3927
  688TIP3    H223624   2.874   0.655   1.717 -0.2395  2.4911  0.2733
  689TIP3   OH223625   4.687   0.394   2.453  0.1387  0.0401 -0.2631
  689TIP3    H123626   4.772   0.383   2.411 -0.5265 -2.6455 -1.1149
  689TIP3    H223627   4.708   0.425   2.541  1.8967  0.6338 -0.8423
  690TIP3   OH223628   6.338   4.795   7.863 -0.3246 -0.1100 -0.1807
  690TIP3    H123629   6.327   4.743   7.783  0.0629  0.8348 -0.8669
  690TIP3    H223630   6.409   4.855   7.843  0.0741 -0.1326  1.0384
  691TIP3   OH223631   6.592   6.178   7.852  0.0896 -1.2440 -0.0064
  691TIP3    H123632   6.573   6.178   7.758  1.8279 -2.8604 -0.4439
  691TIP3    H223633   6.683   6.208   7.858 -0.8251  1.5392  1.4752
  692TIP3   OH223634   3.679   3.365   0.714  0.1428 -0.4749 -0.2512
  692TIP3    H123635   3.600   3.400   0.672 -0.1025  1.6313  1.7231
  692TIP3    H223636   3.709   3.295   0.656 -1.4405  0.6860 -2.6292
  693TIP3   OH223637   4.846   4.659   8.288  0.5405  0.0913 -0.0559
  693TIP3    H123638   4.772   4.602   8.268 -0.2293  1.2120 -0.4806
  693TIP3    H223639   4.917   4.599   8.312 -0.2337 -1.0343 -0.5167
  694TIP3   OH223640   0.612   2.786   1.871  0.0513  0.1010  0.2993
  694TIP3    H123641   0.576   2.733   1.943  3.0080  0.5007  2.2463
  694TIP3    H223642   0.672   2.727   1.826  0.9664  0.8828  0.4772
  695TIP3   OH223643   3.375   4.766   1.085 -0.1952  0.2125  0.7176
  695TIP3    H123644   3.376   4.715   1.166  0.8969  0.8029  1.1005
  695TIP3    H223645   3.351   4.854   1.112 -1.7281  0.0050  0.1060
  696TIP3   OH223646   0.093   5.698   1.362 -0.3212  0.0475 -0.1427
  696TIP3    H123647   0.027   5.647   1.317 -0.5450  0.3899 -0.2080
  696TIP3    H223648   0.066   5.696   1.454  0.5083 -1.2186  0.0921
  697TIP3   OH223649   1.084   4.544   1.517  0.0266 -0.7589  0.3507
  697TIP3    H123650   1.159   4.594   1.550  0.4133 -1.2688  0.2455
  697TIP3    H223651   1.021   4.611   1.491  1.3771 -0.2135 -1.8082
  698TIP3   OH223652   3.722   4.966   2.076 -0.1446  0.1587 -0.3311
  698TIP3    H123653   3.727   5.026   2.002 -1.5866  0.1949 -0.4197
  698TIP3    H223654   3.789   4.997   2.137 -0.8308  1.8523 -0.3798
  699TIP3   OH223655   3.592   4.602   7.632 -0.3265 -0.0545 -0.1216
  699TIP3    H123656   3.632   4.634   7.712 -0.8861  1.4065 -0.4053
  699TIP3    H223657   3.663   4.598   7.569 -0.4644  1.9255 -0.4453
  700TIP3   OH223658   2.528   0.525   7.972 -0.0013  0.0610 -0.5468
  700TIP3    H123659   2.579   0.602   7.996  0.7281 -0.4253 -0.4866
  700TIP3    H223660   2.580   0.483   7.903 -0.2553 -0.5102 -0.3965
  701TIP3   OH223661   3.205   5.625   8.269  0.8344  0.3836  0.0788
  701TIP3    H123662   3.271   5.661   8.329  1.8317 -0.9388 -0.1498
  701TIP3    H223663   3.219   5.672   8.187  1.3539  0.2816  0.1017
  702TIP3   OH223664   6.667   3.495   7.322  0.3110 -0.4079 -0.1273
  702TIP3    H123665   6.579   3.462   7.339  0.5509 -1.5789 -1.0101
  702TIP3    H223666   6.697   3.445   7.246  1.0141  1.3324 -1.0567
  703TIP3   OH223667   4.463   6.058   1.255  0.3954  0.0426 -0.0187
  703TIP3    H123668   4.468   6.012   1.339 -0.1703  0.2789  0.1505
  703TIP3    H223669   4.554   6.067   1.227  0.5512 -0.5982  0.2626
  704TIP3   OH223670   5.252   3.243   7.616 -0.7092 -0.2601 -0.0707
  704TIP3    H123671   5.263   3.310   7.548 -2.6679  1.3166  1.0748
  704TIP3    H223672   5.296   3.279   7.693 -1.4162 -0.4650  0.4376
  705TIP3   OH223673   0.185   1.135   0.469  0.0612 -0.1278 -0.6815
  705TIP3    H123674   0.262   1.149   0.525  0.9293 -0.2149 -1.8071
  705TIP3    H223675   0.121   1.198   0.500  0.9129  0.5637 -0.2857
  706TIP3   OH223676   1.225   0.167   0.569  0.7026  0.2366  0.1104
  706TIP3    H123677   1.263   0.079   0.567 -1.6669 -0.8440 -0.2389
  706TIP3    H223678   1.232   0.194   0.660 -0.0303 -1.0495  0.5825
  707TIP3   OH223679   4.874   1.348   7.064  0.1701 -0.0265 -0.5895
  707TIP3    H123680   4.865   1.383   6.976 -0.5727  3.2095  0.6158
  707TIP3    H223681   4.952   1.390   7.099 -0.6556  0.3427  0.9089
  708TIP3   OH223682   1.289   1.779   2.085 -0.2160  0.2163  0.0510
  708TIP3    H123683   1.313   1.804   2.174  1.5586 -2.0413  0.3104
  708TIP3    H223684   1.332   1.844   2.030  0.4577  0.4178  0.7940
  709TIP3   OH223685   0.117   1.609   1.211 -0.3991  0.1050 -0.4868
  709TIP3    H123686   0.179   1.675   1.242 -0.1345 -0.4512  0.2151
  709TIP3    H223687   0.171   1.547   1.161 -0.5248  0.0528 -0.5582
  710TIP3   OH223688   4.637   2.732   7.578  0.2486  0.3125 -0.1706
  710TIP3    H123689   4.651   2.706   7.487  0.6112  1.3848 -0.4434
  710TIP3    H223690   4.542   2.738   7.587  0.2204  0.5638 -0.6026
  711TIP3   OH223691   1.946   1.113   1.840  0.2642  0.7434 -0.1864
  711TIP3    H123692   2.024   1.065   1.869  0.6011  0.8147 -0.9443
  711TIP3    H223693   1.958   1.202   1.875 -0.6012  0.1920  1.6482
  712TIP3   OH223694   5.395   1.088   8.143  0.0915 -0.0052  0.1274
  712TIP3    H123695   5.308   1.063   8.176  0.0726  2.0962  1.8349
  712TIP3    H223696   5.456   1.053   8.207  0.5912 -1.6509 -1.1763
  713TIP3   OH223697   5.757   5.149   6.770  0.4937  0.6675 -0.8725
  713TIP3    H123698   5.798   5.198   6.841  1.1183  0.3427 -1.0050
  713TIP3    H223699   5.810   5.070   6.761 -1.0524 -0.5255 -0.0158
  714TIP3   OH223700   5.662   2.804   1.581  0.4785  0.6665  0.3591
  714TIP3    H123701   5.669   2.896   1.604  0.8947  0.8399 -0.4308
  714TIP3    H223702   5.577   2.777   1.615 -0.2787  1.7163 -0.6305
  715TIP3   OH223703   5.496   0.657   8.865  0.0964  0.5739 -0.3582
  715TIP3    H123704   5.590   0.637   8.868  0.5774  2.3370 -1.7246
  715TIP3    H223705   5.481   0.714   8.940  0.1828  0.4828 -0.2724
  716TIP3   OH223706   4.224   4.363   1.207 -0.1903 -0.1747 -0.5746
  716TIP3    H123707   4.320   4.364   1.211 -0.1647 -1.5552 -0.3831
  716TIP3    H223708   4.198   4.304   1.278 -1.2172  0.7082 -0.2049
  717TIP3   OH223709   6.401   0.885   8.165 -0.3341 -0.0675 -0.4096
  717TIP3    H123710   6.426   0.969   8.126  1.2810  0.0459  0.7641
  717TIP3    H223711   6.313   0.869   8.132 -1.0838  2.5348  0.0330
  718TIP3   OH223712   3.369   3.236   8.729  0.2266  0.1232  0.0189
  718TIP3    H123713   3.296   3.215   8.786 -0.1551 -0.7320 -0.7627
  718TIP3    H223714   3.381   3.331   8.739 -0.6380  0.1837  0.5587
  719TIP3   OH223715   3.600   0.830   8.329  0.1187  0.6292 -0.5964
  719TIP3    H123716   3.576   0.885   8.403 -0.0321  3.6313 -2.7089
  719TIP3    H223717   3.674   0.777   8.362 -0.5651  1.0947  1.9209
  720TIP3   OH223718   4.061   4.609   1.685 -0.0806  0.1131  0.4375
  720TIP3    H123719   4.087   4.654   1.604  1.2749 -0.1025  0.7296
  720TIP3    H223720   4.023   4.678   1.740  0.3056  0.5475  0.1671
  721TIP3   OH223721   1.447   1.977   6.170  0.1405  0.5902 -0.3056
  721TIP3    H123722   1.461   2.056   6.222  2.0800 -1.0461  1.8818
  721TIP3    H223723   1.356   1.953   6.188  0.4029  0.7332  1.4695
  722TIP3   OH223724   1.971   5.235   6.795  0.5729  0.0062  0.1412
  722TIP3    H123725   2.045   5.174   6.803  0.9830  0.0346 -2.4972
  722TIP3    H223726   2.009   5.322   6.809  0.5347 -0.1255  1.1402
  723TIP3   OH223727   5.108   4.588   0.476 -0.1557  0.2000 -0.6930
  723TIP3    H123728   5.040   4.542   0.526 -1.2980  1.4322 -1.0572
  723TIP3    H223729   5.141   4.522   0.415 -1.5158 -0.2430 -0.9856
  724TIP3   OH223730   0.913   6.744   2.413  0.9012 -0.9364  0.7863
  724TIP3    H123731   0.841   6.767   2.471  1.5644  0.7033  1.0359
  724TIP3    H223732   0.981   6.709   2.471  0.6182 -1.6806  0.6657
  725TIP3   OH223733   0.287   0.574   7.046  0.3033  0.0884 -0.0479
  725TIP3    H123734   0.289   0.553   7.139 -0.2676  1.2744  0.2467
  725TIP3    H223735   0.313   0.493   7.003 -2.9329 -1.6488  0.9395
  726TIP3   OH223736   0.423   0.616   1.788 -0.2232 -0.8421 -0.5126
  726TIP3    H123737   0.424   0.681   1.859  0.6167 -1.0920 -0.2915
  726TIP3    H223738   0.358   0.552   1.815  0.8884 -1.5446  0.6006
  727TIP3   OH223739   2.526   5.315   1.418 -0.7798  0.0733  0.6826
  727TIP3    H123740   2.431   5.324   1.422 -0.8451 -0.2324 -0.0373
  727TIP3    H223741   2.548   5.250   1.485 -1.3991 -2.0756 -1.0895
  728TIP3   OH223742   3.780   6.327   8.348  0.4110 -0.7124  0.1659
  728TIP3    H123743   3.790   6.354   8.439  0.1703  0.0705 -0.0269
  728TIP3    H223744   3.686   6.308   8.338  0.2845  0.0196 -0.1208
  729TIP3   OH223745   0.905   2.167   7.648 -0.0731  0.0745 -0.3351
  729TIP3    H123746   0.860   2.087   7.624 -0.2592  0.0130  0.2084
  729TIP3    H223747   0.995   2.140   7.670 -0.0337  0.0670 -0.5061
  730TIP3   OH223748   2.233   3.660   8.381  1.1667  0.7602  0.7509
  730TIP3    H123749   2.196   3.729   8.326  1.5311 -1.2928 -2.2668
  730TIP3    H223750   2.327   3.672   8.374  1.2202  0.6545  1.2369
  731TIP3   OH223751   0.008   4.717   7.814 -0.4369 -0.2119 -0.1191
  731TIP3    H123752  -0.051   4.642   7.818 -0.6556 -0.0320  0.0269
  731TIP3    H223753  -0.017   4.764   7.735 -0.8497  0.1611  0.2295
  732TIP3   OH223754   0.445   1.056   3.052 -0.3391  0.4246 -0.3674
  732TIP3    H123755   0.509   1.012   3.108  0.4743  1.3180 -0.5642
  732TIP3    H223756   0.428   0.993   2.982 -0.5432 -0.2707  0.2903
  733TIP3   OH223757   0.531   2.427   0.972  0.2262 -0.4517  0.4146
  733TIP3    H123758   0.447   2.448   0.933  1.3121  1.1301 -1.2287
  733TIP3    H223759   0.512   2.418   1.065 -1.4955  1.5593  0.3422
  734TIP3   OH223760   2.605   1.825   8.283  0.0025 -0.0645  0.0680
  734TIP3    H123761   2.564   1.873   8.355 -0.1979 -1.6629  1.0761
  734TIP3    H223762   2.536   1.817   8.217 -0.6644 -0.8694  0.8416
  735TIP3   OH223763   0.498   3.578   7.320  0.0078  0.4515  0.2330
  735TIP3    H123764   0.450   3.620   7.392 -0.3955 -1.5084  1.1960
  735TIP3    H223765   0.577   3.631   7.310 -1.0567  2.1665  0.4718
  736TIP3   OH223766   3.026   0.939   0.656  0.1414 -0.0467 -0.4089
  736TIP3    H123767   3.020   1.033   0.670  1.7178 -0.0421  0.4968
  736TIP3    H223768   2.938   0.906   0.675 -0.5938  1.2878 -1.3442
  737TIP3   OH223769   6.721   1.536   8.137  0.0729  0.2275 -0.0239
  737TIP3    H123770   6.775   1.507   8.064  0.2596 -0.0436  0.2186
  737TIP3    H223771   6.763   1.616   8.169 -0.7222  1.0751 -1.0126
  738TIP3   OH223772   4.908   6.144   6.605 -0.4400 -0.4040 -0.1427
  738TIP3    H123773   4.820   6.155   6.569  0.0756  0.2359 -1.2608
  738TIP3    H223774   4.945   6.071   6.554 -0.6815 -1.4114  1.0733
  739TIP3   OH223775   1.013   3.692   0.550  0.1053 -0.3560  0.7131
  739TIP3    H123776   1.087   3.731   0.596 -0.2482  0.2904  0.7531
  739TIP3    H223777   0.936   3.722   0.600 -0.3377  0.8931 -0.6458
  740TIP3   OH223778   4.516   3.858   7.554  0.4290 -0.1321  0.3808
  740TIP3    H123779   4.502   3.899   7.469 -2.3228  0.6337  1.0682
  740TIP3    H223780   4.485   3.768   7.543 -0.1630  0.0361  0.5801
  741TIP3   OH223781   3.853   4.747   2.301 -0.1657  0.0665 -0.4413
  741TIP3    H123782   3.846   4.843   2.303  0.6877  0.1273  0.9197
  741TIP3    H223783   3.948   4.731   2.306 -0.3707 -0.8511  3.5814
  742TIP3   OH223784   2.416   0.822   0.405 -0.1993  0.1551 -0.7431
  742TIP3    H123785   2.479   0.876   0.358  0.2245  0.3793  0.0650
  742TIP3    H223786   2.449   0.733   0.396 -0.1099  0.2003 -0.8586
  743TIP3   OH223787   6.250   4.508   0.561 -0.1807 -0.3799 -0.0463
  743TIP3    H123788   6.156   4.524   0.567 -0.3544 -0.4717 -1.9183
  743TIP3    H223789   6.268   4.444   0.630 -0.7550  2.3066  2.8317
  744TIP3   OH223790   5.284   0.359   7.889  0.3801  0.2653  0.1401
  744TIP3    H123791   5.250   0.423   7.951  1.0723  0.8555 -0.0768
  744TIP3    H223792   5.372   0.338   7.922  1.7507  2.3593 -1.8660
  745TIP3   OH223793   3.838   0.824   7.888 -0.0287 -0.6112  0.5722
  745TIP3    H123794   3.824   0.870   7.971 -1.6074 -0.0726  0.0466
  745TIP3    H223795   3.771   0.860   7.829  0.0288 -2.1177 -0.4621
  746TIP3   OH223796   4.696   2.724   0.088 -0.2066  0.5680  0.3448
  746TIP3    H123797   4.656   2.785   0.151 -0.2487  2.2212 -1.2195
  746TIP3    H223798   4.622   2.690   0.038 -0.0964 -0.1271  0.6462
  747TIP3   OH223799   2.763   3.178   8.721  0.1782 -0.4608 -0.1897
  747TIP3    H123800   2.688   3.132   8.681 -0.1400  1.1865 -1.6171
  747TIP3    H223801   2.828   3.183   8.651  0.1043  1.4276 -0.1701
  748TIP3   OH223802   3.236   0.016   1.394  0.0853 -0.0620  0.1581
  748TIP3    H123803   3.217  -0.073   1.425  3.0171  0.1776  3.2628
  748TIP3    H223804   3.165   0.069   1.430 -0.1366 -0.7732  0.8104
  749TIP3   OH223805   4.092   3.440   7.504 -0.3414  0.5615  0.1285
  749TIP3    H123806   4.073   3.528   7.539 -0.0494  0.7494 -0.1853
  749TIP3    H223807   4.183   3.424   7.528 -0.7540 -0.1841  1.2871
  750TIP3   OH223808   4.855   6.250   0.958  0.4503 -0.5653 -0.1395
  750TIP3    H123809   4.808   6.229   0.877 -1.8563 -1.1988  1.2578
  750TIP3    H223810   4.812   6.329   0.991 -0.3796 -1.6969  1.6621
  751TIP3   OH223811   3.422   0.190   7.303  0.2179  0.1932 -0.1362
  751TIP3    H123812   3.470   0.107   7.305 -1.6585 -0.9346  0.1696
  751TIP3    H223813   3.360   0.184   7.375  0.1291  1.9528 -0.0154
  752TIP3   OH223814   5.263   5.420   1.191  0.1227  0.1024 -0.6606
  752TIP3    H123815   5.251   5.376   1.275  1.4673 -0.5709 -0.7984
  752TIP3    H223816   5.276   5.512   1.214  1.4088 -0.2100 -0.0321
  753TIP3   OH223817   6.452   2.331   1.998  0.3347 -0.5841  0.5370
  753TIP3    H123818   6.443   2.400   2.065  1.5448  0.1053  0.0185
  753TIP3    H223819   6.495   2.259   2.044 -0.0349 -0.6194  0.8340
  754TIP3   OH223820   1.961   2.595   1.979  0.2229 -0.1600  0.4784
  754TIP3    H123821   1.966   2.504   2.008  1.2396 -0.0805  0.5712
  754TIP3    H223822   2.049   2.630   1.991  0.3348  0.2935 -1.3293
  755TIP3   OH223823   2.899   0.974   0.144  0.2902 -0.4844  0.0102
  755TIP3    H123824   2.813   1.012   0.124  0.3794 -0.2622  0.0515
  755TIP3    H223825   2.914   0.993   0.236  0.0653 -1.1523  0.1943
  756TIP3   OH223826   0.194   0.153   0.644 -0.1567  0.2145  0.4545
  756TIP3    H123827   0.118   0.102   0.673  1.2131 -1.4178  1.4107
  756TIP3    H223828   0.158   0.222   0.589 -2.3820 -0.0595  1.4704
  757TIP3   OH223829   4.105   4.981   1.059  0.2422  0.2743 -0.1369
  757TIP3    H123830   4.170   4.931   1.011 -0.6866 -2.5807  1.3594
  757TIP3    H223831   4.155   5.027   1.127  0.8421 -0.9135  0.2441
  758TIP3   OH223832   0.509   6.658   1.835  0.1448  0.1047  0.0074
  758TIP3    H123833   0.604   6.661   1.849  0.2459 -1.0802 -0.2792
  758TIP3    H223834   0.494   6.722   1.765  1.3101 -2.1605 -2.5571
  759TIP3   OH223835   1.332   0.970   7.334 -0.2101  0.2928  0.3656
  759TIP3    H123836   1.276   0.940   7.262 -0.1822 -0.3036  0.5884
  759TIP3    H223837   1.391   1.033   7.293  0.8738 -1.2131 -0.5029
  760TIP3   OH223838   1.089   1.727   1.467  0.7022 -0.0445  0.4131
  760TIP3    H123839   1.139   1.656   1.507  0.0779 -0.9923 -0.4327
  760TIP3    H223840   1.145   1.759   1.396  1.7527  1.5474  1.9141
  761TIP3   OH223841   6.364   4.271   7.604  0.0583 -0.1277 -0.0338
  761TIP3    H123842   6.368   4.367   7.610 -1.2273 -0.0917  0.5635
  761TIP3    H223843   6.444   4.247   7.559 -0.0413  1.3180 -1.0761
  762TIP3   OH223844   3.948   4.453   8.143 -0.0018  0.1605  0.1950
  762TIP3    H123845   4.012   4.486   8.080  0.3127 -1.3693 -0.3531
  762TIP3    H223846   3.988   4.372   8.177 -2.6788 -2.4279 -2.1936
  763TIP3   OH223847   1.445   0.618   8.802  0.0202 -0.2365  0.6592
  763TIP3    H123848   1.469   0.690   8.743 -1.0245 -0.8036 -0.4976
  763TIP3    H223849   1.521   0.560   8.799 -0.1223 -0.3901 -0.3512
  764TIP3   OH223850   4.562   6.587   1.082 -0.1960  0.0946  0.1131
  764TIP3    H123851   4.522   6.581   1.168  0.2992  0.6167  0.3860
  764TIP3    H223852   4.574   6.681   1.067  0.6355 -0.0302 -0.0847
  765TIP3   OH223853   1.029   2.567   0.685  0.0482  0.3274 -0.2187
  765TIP3    H123854   1.046   2.624   0.760  0.0464  0.2972 -0.1952
  765TIP3    H223855   0.942   2.531   0.701  0.8992 -1.3377  0.8379
  766TIP3   OH223856   5.832   6.050   0.263 -0.2610 -0.0170  0.0468
  766TIP3    H123857   5.918   6.008   0.264 -0.3713 -0.2591  1.1299
  766TIP3    H223858   5.785   6.009   0.335 -1.3578 -0.0177 -0.6497
  767TIP3   OH223859   0.810   1.781   7.876  0.3420 -0.3655  0.3199
  767TIP3    H123860   0.769   1.712   7.928  1.5092 -1.1734  0.2192
  767TIP3    H223861   0.885   1.809   7.929  1.1704 -0.7510 -0.6122
  768TIP3   OH223862   0.593   5.922   0.445 -0.2462 -0.6974  0.0585
  768TIP3    H123863   0.522   5.986   0.451 -0.5320 -1.0919  1.4881
  768TIP3    H223864   0.662   5.966   0.396 -0.1682  1.0086  1.5725
  769TIP3   OH223865   4.300   6.279   1.167 -0.1202 -0.1194  0.0769
  769TIP3    H123866   4.331   6.192   1.190  0.2340 -0.0762 -0.2240
  769TIP3    H223867   4.366   6.313   1.106 -0.3637  0.2742  0.0261
  770TIP3   OH223868   1.013   6.237   8.716 -0.2608  0.0890  0.1117
  770TIP3    H123869   0.939   6.298   8.717 -0.7390 -0.3825 -2.0645
  770TIP3    H223870   1.066   6.264   8.642 -1.4451 -3.1249 -2.1230
  771TIP3   OH223871   1.437   3.122   8.648 -0.1819  0.5800 -0.1385
  771TIP3    H123872   1.468   3.130   8.739  0.3101  0.9185 -0.3303
  771TIP3    H223873   1.343   3.104   8.657 -0.0612  0.1917  0.4444
  772TIP3   OH223874   2.455   5.931   8.636  0.0241 -0.3426 -0.2253
  772TIP3    H123875   2.448   5.879   8.717 -0.1635  0.8159  0.5342
  772TIP3    H223876   2.480   5.868   8.569  0.5537 -1.2807  0.8125
  773TIP3   OH223877   3.910   1.460   1.056  0.2880 -0.7234 -0.0862
  773TIP3    H123878   3.922   1.488   0.966 -0.1887 -1.4983 -0.4102
  773TIP3    H223879   3.966   1.517   1.108 -1.4339  1.5258 -0.5711
  774TIP3   OH223880   2.075   4.715   7.558  0.1871 -0.5371  0.6776
  774TIP3    H123881   2.026   4.635   7.575  1.0260 -1.3805 -0.6416
  774TIP3    H223882   2.024   4.761   7.491  0.2905 -0.5468  0.5915
  775TIP3   OH223883   4.741   0.774   0.887 -0.5528 -1.0927  0.2518
  775TIP3    H123884   4.731   0.762   0.981  0.4178 -0.7673  0.4053
  775TIP3    H223885   4.728   0.687   0.849  0.8099 -1.5796  0.8450
  776TIP3   OH223886   1.615   5.867   2.119  0.1941 -0.3282  0.4283
  776TIP3    H123887   1.545   5.874   2.184  0.2775 -1.7270  0.7123
  776TIP3    H223888   1.642   5.957   2.102 -0.3749  0.1152  1.7528
  777TIP3   OH223889   6.517   5.382   7.926  0.7549 -0.4496  0.2045
  777TIP3    H123890   6.573   5.460   7.931  1.7340 -1.1815  1.1961
  777TIP3    H223891   6.482   5.371   8.014 -1.4626  0.3015 -0.5150
  778TIP3   OH223892   0.732   0.166   0.118  0.3724  0.9400 -0.5110
  778TIP3    H123893   0.685   0.082   0.112  0.8930  0.5201  0.8623
  778TIP3    H223894   0.820   0.147   0.086  0.8965  0.5963  1.0714
  779TIP3   OH223895   0.809   1.032   8.445 -0.5335  0.0353  0.2297
  779TIP3    H123896   0.770   0.945   8.441  1.3455 -0.8443 -0.0842
  779TIP3    H223897   0.806   1.064   8.355  1.7890 -1.1926 -0.3907
  780TIP3   OH223898   5.217   4.530   8.633 -0.0280 -0.3220 -0.0962
  780TIP3    H123899   5.274   4.598   8.670 -0.0429  0.1690 -0.9461
  780TIP3    H223900   5.155   4.578   8.578 -0.5026 -0.9612 -0.1319
  781TIP3   OH223901   4.474   3.811   2.245 -0.0063  0.0398  0.1374
  781TIP3    H123902   4.484   3.850   2.332 -0.6608 -1.0765  0.7359
  781TIP3    H223903   4.400   3.750   2.254 -2.4852  2.4132 -2.0908
  782TIP3   OH223904   3.575   1.339   7.447 -0.0074 -0.0386  0.4764
  782TIP3    H123905   3.544   1.396   7.518  0.1855  1.6451 -0.7220
  782TIP3    H223906   3.499   1.327   7.391  0.9317  2.8750 -1.6735
  783TIP3   OH223907   4.347   6.717   1.473 -0.0990  0.1784  0.1310
  783TIP3    H123908   4.307   6.728   1.559 -0.4783 -2.0819  0.3091
  783TIP3    H223909   4.284   6.755   1.412 -1.0526 -0.5224  0.6618
  784TIP3   OH223910   0.183   5.775   2.423 -0.3433 -0.3273 -0.3699
  784TIP3    H123911   0.263   5.745   2.381 -0.4446 -0.0323 -0.7773
  784TIP3    H223912   0.113   5.733   2.375 -0.4082 -1.5877  0.7833
  785TIP3   OH223913   1.019   0.343   1.660 -0.2214  0.3705  0.0536
  785TIP3    H123914   1.036   0.415   1.720  1.9015  0.0398 -0.0859
  785TIP3    H223915   1.029   0.382   1.573 -1.7574  0.4939 -0.0896
  786TIP3   OH223916   0.596   1.082   2.793 -0.1941 -0.5320 -0.4870
  786TIP3    H123917   0.525   1.145   2.803 -0.8161 -1.0309 -1.6673
  786TIP3    H223918   0.554   0.996   2.797  0.1941 -0.8259 -2.0707
  787TIP3   OH223919   2.447   6.032   0.074 -0.1044  0.4189 -0.1250
  787TIP3    H123920   2.372   6.027   0.016  0.1426  0.5601 -0.4557
  787TIP3    H223921   2.412   6.068   0.156 -0.7431 -1.1194  0.3147
  788TIP3   OH223922   3.716   1.157   0.670  0.9325  0.2310  0.0167
  788TIP3    H123923   3.631   1.136   0.633  0.7928 -1.3515  1.1219
  788TIP3    H223924   3.776   1.156   0.596  0.2879 -0.5259 -0.5036
  789TIP3   OH223925   3.761   6.426   1.024  0.0150  0.3788  0.0512
  789TIP3    H123926   3.822   6.397   0.955  0.0313  0.1214  0.1721
  789TIP3    H223927   3.715   6.500   0.986  1.1664  1.2714  0.3356
  790TIP3   OH223928   2.955   0.900   0.963 -0.2796  0.2158  0.3964
  790TIP3    H123929   2.910   0.983   0.952  0.1331  0.3499 -0.3628
  790TIP3    H223930   3.032   0.921   1.016 -0.4095  0.2307  0.5810
  791TIP3   OH223931   5.143   5.968   8.087 -0.1804  0.2914 -0.1337
  791TIP3    H123932   5.094   5.992   8.166  1.4357 -1.2496  1.4339
  791TIP3    H223933   5.092   5.895   8.050 -0.3531  0.2712  0.1360
  792TIP3   OH223934   1.778   1.664   7.866  0.4710  0.0880  0.2217
  792TIP3    H123935   1.703   1.625   7.820 -1.5365  0.8059  2.6212
  792TIP3    H223936   1.753   1.756   7.878  0.7682 -0.1080  2.8339
  793TIP3   OH223937   2.093   3.247   6.784 -0.6179 -0.3595  0.2012
  793TIP3    H123938   2.133   3.305   6.719 -0.4745 -0.7935 -0.1048
  793TIP3    H223939   2.004   3.233   6.752 -0.6087 -0.4182  0.2015
  794TIP3   OH223940   5.816   5.697   7.415 -0.2044  0.1679  0.2778
  794TIP3    H123941   5.766   5.633   7.465 -0.7112  1.0051  0.8622
  794TIP3    H223942   5.878   5.644   7.364 -0.1195 -0.7442  1.2884
  795TIP3   OH223943   0.139   2.471   0.137 -0.2121  0.3745  0.5573
  795TIP3    H123944   0.220   2.429   0.106 -0.5390  0.4446 -0.4246
  795TIP3    H223945   0.145   2.561   0.104 -1.6390 -0.1645 -1.4161
  796TIP3   OH223946   1.289   6.691   2.388  0.0281 -0.5999 -0.1775
  796TIP3    H123947   1.233   6.767   2.402 -1.3539 -1.4705 -0.8246
  796TIP3    H223948   1.373   6.729   2.361 -0.3249  0.7176  0.4908
  797TIP3   OH223949   0.256   1.609   2.245 -0.2563  0.4814  0.1415
  797TIP3    H123950   0.173   1.596   2.198 -0.5482  1.5628  0.3160
  797TIP3    H223951   0.268   1.529   2.295 -0.4266 -0.3080 -1.0299
  798TIP3   OH223952   4.415   4.397   7.690 -0.4123 -0.4432 -0.2423
  798TIP3    H123953   4.444   4.412   7.600 -0.7037 -0.3686 -0.3242
  798TIP3    H223954   4.322   4.374   7.683 -1.4634  3.1018  0.2909
  799TIP3   OH223955   3.851   5.334   7.247 -0.3077  0.1239 -0.1504
  799TIP3    H123956   3.933   5.378   7.226  0.8779 -1.9200  0.0158
  799TIP3    H223957   3.809   5.320   7.162 -0.1188  0.4667 -0.3028
  800TIP3   OH223958   0.096   4.921   0.221 -0.6350  0.5266  0.4110
  800TIP3    H123959   0.009   4.882   0.220  0.1523 -1.3442 -1.2933
  800TIP3    H223960   0.154   4.852   0.191  1.6148  1.4336  2.3493
  801TIP3   OH223961   0.489   2.589   8.270  0.2237 -0.1848 -1.0383
  801TIP3    H123962   0.575   2.549   8.280  0.1792 -0.4357 -1.6198
  801TIP3    H223963   0.485   2.616   8.178  1.1023  3.1880 -0.2326
  802TIP3   OH223964   4.890   0.338   2.271  0.1033 -0.2277 -0.2981
  802TIP3    H123965   4.909   0.245   2.257 -0.8462 -0.7931  1.8486
  802TIP3    H223966   4.974   0.382   2.258  0.4698 -1.2762 -1.8401
  803TIP3   OH223967   5.146   3.249   0.228  0.4128  0.2722  0.3484
  803TIP3    H123968   5.062   3.212   0.255 -0.2907  1.4712 -0.1090
  803TIP3    H223969   5.183   3.286   0.308 -1.1946  2.9114 -0.0010
  804TIP3   OH223970   0.288   1.952   8.321  0.1836  0.0406  0.8501
  804TIP3    H123971   0.255   2.035   8.355  1.8804  1.0658  0.1384
  804TIP3    H223972   0.294   1.965   8.226 -1.4157 -1.6270  0.4659
  805TIP3   OH223973   5.200   4.298   2.139 -0.1250 -0.1645  0.3595
  805TIP3    H123974   5.205   4.343   2.224  2.1492 -1.3600  0.9576
  805TIP3    H223975   5.276   4.330   2.091 -1.8075  1.0684 -1.6091
  806TIP3   OH223976   6.383   5.618   8.327 -0.2100 -0.5657  0.3147
  806TIP3    H123977   6.462   5.638   8.376 -0.6085  0.3528  0.6233
  806TIP3    H223978   6.333   5.700   8.328 -1.2389 -1.1654  0.2767
  807TIP3   OH223979   1.305   1.856   1.296 -0.0290 -0.1599  0.7068
  807TIP3    H123980   1.321   1.886   1.207 -0.6524 -0.7002  0.4092
  807TIP3    H223981   1.374   1.792   1.313  0.2211  0.1025  0.7030
  808TIP3   OH223982   5.176   0.456   0.367  0.1275  0.0004 -0.1246
  808TIP3    H123983   5.095   0.500   0.391  2.5438  2.9313  3.9508
  808TIP3    H223984   5.173   0.372   0.414 -0.0130  0.7793  1.3246
  809TIP3   OH223985   1.873   2.902   1.539 -0.0650  0.1782 -0.3311
  809TIP3    H123986   1.869   2.989   1.577 -0.1479  0.8137 -1.7365
  809TIP3    H223987   1.966   2.883   1.532  0.0216 -1.0539  2.4899
  810TIP3   OH223988   0.785   4.033   8.105  0.2136  0.3449  0.1065
  810TIP3    H123989   0.702   4.043   8.058 -0.8403  1.8090  2.0950
  810TIP3    H223990   0.760   3.996   8.189  1.7895 -0.4807  0.2385
  811TIP3   OH223991   6.142   0.040   8.867 -0.3087  0.1097  0.3045
  811TIP3    H123992   6.128   0.125   8.825  0.2997 -0.0490 -0.2367
  811TIP3    H223993   6.228   0.048   8.909  0.9656 -1.0748 -1.9314
  812TIP3   OH223994   0.718   0.193   1.783 -0.9150  0.4055 -0.8706
  812TIP3    H123995   0.732   0.204   1.689 -1.3619 -1.2753 -1.1716
  812TIP3    H223996   0.711   0.282   1.818  0.4517  1.0823 -2.2321
  813TIP3   OH223997   6.167   2.974   0.478  0.1679  0.0657 -0.1035
  813TIP3    H123998   6.230   3.045   0.467 -0.7915  0.6942 -2.0270
  813TIP3    H223999   6.086   3.008   0.441 -0.8584 -1.3217  0.7865
  814TIP3   OH224000   2.699   0.828   1.574  0.5902  0.3571 -0.8478
  814TIP3    H124001   2.769   0.889   1.549  1.1317 -0.5125 -1.5289
  814TIP3    H224002   2.741   0.742   1.574 -0.3230 -0.0999 -0.6004
  815TIP3   OH224003   0.751   2.532   0.733  0.3962 -0.6947 -0.0582
  815TIP3    H124004   0.736   2.533   0.828 -1.3462 -0.6433 -0.2866
  815TIP3    H224005   0.682   2.475   0.699  0.9190 -0.6047 -1.3142
  816TIP3   OH224006   1.317   6.663   0.219 -0.1084  0.3493 -0.4033
  816TIP3    H124007   1.277   6.738   0.175  1.4001  1.8034  0.5921
  816TIP3    H224008   1.262   6.589   0.194 -3.8225  2.2275  1.3224
  817TIP3   OH224009   4.617   6.643   1.617 -0.4741 -0.4573  0.2421
  817TIP3    H124010   4.558   6.685   1.679 -0.8351 -0.2557 -0.2279
  817TIP3    H224011   4.566   6.637   1.536 -0.3689 -1.6491  0.2512
  818TIP3   OH224012   1.126   6.496   0.112 -0.5556 -0.2578  0.0969
  818TIP3    H124013   1.140   6.504   0.017  0.8262 -1.7318  0.1359
  818TIP3    H224014   1.036   6.465   0.120 -0.6332 -0.2911 -0.7295
  819TIP3   OH224015   1.979   3.845   8.815 -0.4959  0.4370  0.2903
  819TIP3    H124016   1.913   3.805   8.759 -0.4106  0.5900  0.0784
  819TIP3    H224017   1.994   3.931   8.776  2.0234 -0.6850 -1.4687
  820TIP3   OH224018   2.320   2.329   8.524  0.3948 -0.5371 -0.3828
  820TIP3    H124019   2.415   2.334   8.507  0.3577 -0.2407 -0.5123
  820TIP3    H224020   2.304   2.400   8.586  0.4177 -1.2018  0.4098
  821TIP3   OH224021   3.914   1.251   8.747 -0.2511  0.1054 -0.3615
  821TIP3    H124022   3.971   1.211   8.813 -0.5674  0.9636  0.4471
  821TIP3    H224023   3.892   1.336   8.783 -2.2708 -0.3019 -0.5449
  822TIP3   OH224024   4.185   6.591   0.867 -1.1869 -0.3408  0.2931
  822TIP3    H124025   4.227   6.662   0.819  0.1472 -0.3452  1.3765
  822TIP3    H224026   4.141   6.635   0.941 -3.0129 -0.3552 -0.7309
  823TIP3   OH224027   0.376   2.025   7.308 -0.0892  0.2130  0.2070
  823TIP3    H124028   0.470   2.005   7.309  0.0735  0.9386  0.7404
  823TIP3    H224029   0.367   2.096   7.244 -0.2632  0.1703  0.1845
  824TIP3   OH224030   3.083   0.650   0.839  0.2622 -0.5794  0.0840
  824TIP3    H124031   3.105   0.668   0.748  0.6628 -0.4831  0.1938
  824TIP3    H224032   3.021   0.719   0.863  2.3168  1.1840  0.7087
  825TIP3   OH224033   2.086   3.809   8.191  0.9832  0.4376 -0.6541
  825TIP3    H124034   2.034   3.872   8.242 -0.3146 -1.2892  0.3009
  825TIP3    H224035   2.025   3.738   8.172  3.2592 -2.4909  1.8796
  826TIP3   OH224036   0.765   2.820   0.894 -0.8740 -0.2935 -0.3702
  826TIP3    H124037   0.724   2.898   0.931  0.0678 -0.6144  1.4950
  826TIP3    H224038   0.733   2.816   0.804 -1.9908  1.4815 -0.1017
  827TIP3   OH224039   1.623   2.690   0.443  0.4560  0.0332 -0.0625
  827TIP3    H124040   1.677   2.769   0.438  0.4925  0.0583  0.6809
  827TIP3    H224041   1.569   2.702   0.521  0.4203 -0.6534  0.0246
  828TIP3   OH224042   3.360   3.447   1.742 -0.0575 -0.1782 -0.1383
  828TIP3    H124043   3.302   3.455   1.818 -0.0838 -0.5608 -0.1192
  828TIP3    H224044   3.394   3.536   1.729  0.3611 -0.2139  0.6456
  829TIP3   OH224045   3.107   2.482   8.511  0.4447  0.4726 -0.6613
  829TIP3    H124046   3.162   2.484   8.589 -1.5113 -1.0317  0.8746
  829TIP3    H224047   3.079   2.573   8.499 -1.4106  0.3868  2.1449
  830TIP3   OH224048   1.009   4.396   2.203  0.1567 -0.4077 -0.1138
  830TIP3    H124049   1.073   4.375   2.272 -1.4485  0.2356  1.6537
  830TIP3    H224050   0.927   4.359   2.235 -0.7783  0.5085 -1.3800
  831TIP3   OH224051   1.325   0.676   1.501 -0.0616 -0.7992  0.5427
  831TIP3    H124052   1.359   0.702   1.416 -1.0529 -0.0980  0.3476
  831TIP3    H224053   1.238   0.641   1.483 -0.1364 -0.9885  1.2211
  832TIP3   OH224054   4.066   3.376   8.044  0.0054 -0.8424 -0.5149
  832TIP3    H124055   4.017   3.326   8.108 -0.1729  1.3382  1.1775
  832TIP3    H224056   4.044   3.337   7.960 -0.6810 -3.0519  0.6283
  833TIP3   OH224057   1.254   6.424   6.757  0.0828 -0.3255  0.0747
  833TIP3    H124058   1.231   6.365   6.685  0.2121 -0.0392 -0.2048
  833TIP3    H224059   1.292   6.367   6.823 -1.0028 -0.7432  0.3596
  834TIP3   OH224060   5.600   5.329   1.241  0.1477 -0.3481 -0.0640
  834TIP3    H124061   5.618   5.276   1.163 -0.2868 -1.2510  0.4254
  834TIP3    H224062   5.675   5.313   1.298 -0.8753 -2.0387  0.8949
  835TIP3   OH224063   3.014   3.301   6.787  0.5046  0.1265  0.3353
  835TIP3    H124064   3.071   3.275   6.715 -1.2786  0.1621 -1.1509
  835TIP3    H224065   3.008   3.223   6.843  1.6864  0.0139  0.3196
  836TIP3   OH224066   1.536   3.453   1.148 -0.2024 -0.3906  0.3294
  836TIP3    H124067   1.612   3.397   1.130 -0.0952  0.3771 -2.0315
  836TIP3    H224068   1.575   3.538   1.171 -0.3691 -0.4759  0.9476
  837TIP3   OH224069   6.493   4.089   6.861  0.8259 -0.0530  0.5867
  837TIP3    H124070   6.573   4.048   6.827  0.7264  0.3889 -0.2063
  837TIP3    H224071   6.501   4.081   6.956  0.3322 -2.8614  0.4859
  838TIP3   OH224072   0.344   0.781   1.999 -0.3994  0.2449 -0.1166
  838TIP3    H124073   0.269   0.787   1.940 -0.6193 -1.5976 -0.1041
  838TIP3    H224074   0.305   0.773   2.086 -0.0972  1.8665  0.2033
  839TIP3   OH224075   6.092   0.403   0.468 -0.3697 -0.3793 -0.4741
  839TIP3    H124076   6.067   0.478   0.414  5.2917  1.2585 -1.5520
  839TIP3    H224077   6.084   0.435   0.558 -1.9091 -0.0533 -0.6958
  840TIP3   OH224078   2.406   3.363   8.277  0.1640 -0.4273  0.3894
  840TIP3    H124079   2.394   3.353   8.183 -1.3870 -1.1598  0.6316
  840TIP3    H224080   2.472   3.297   8.300 -0.8088 -1.5612  0.0657
  841TIP3   OH224081   0.047   3.852   1.277  0.6687  0.3633 -0.0954
  841TIP3    H124082   0.005   3.767   1.285 -0.1183  0.8187  0.9566
  841TIP3    H224083   0.036   3.877   1.186 -0.5473  0.0614 -0.0364
  842TIP3   OH224084   1.619   4.143   7.384  0.0819 -0.2149  0.4257
  842TIP3    H124085   1.583   4.101   7.462 -0.8958 -1.4842 -0.6508
  842TIP3    H224086   1.581   4.231   7.384  0.5864  0.0203  1.6792
  843TIP3   OH224087   1.507   3.859   0.963 -0.4894  0.5169  0.3824
  843TIP3    H124088   1.536   3.789   1.021 -1.5196 -1.9734 -1.8903
  843TIP3    H224089   1.413   3.843   0.952 -0.3766  0.9992 -1.7223
  844TIP3   OH224090   3.018   5.048   0.105 -0.0328 -0.7978  0.6364
  844TIP3    H124091   2.953   5.073   0.039  1.1178 -0.6252 -0.4903
  844TIP3    H224092   2.996   4.958   0.127 -1.6089 -0.2359  1.5012
  845TIP3   OH224093   1.247   5.659   1.143  0.0380 -0.4409 -0.3800
  845TIP3    H124094   1.307   5.585   1.152  0.4658 -0.3818 -2.2809
  845TIP3    H224095   1.270   5.699   1.058 -1.1952  0.9454 -0.1133
  846TIP3   OH224096   0.006   2.564   8.509  0.7997 -0.7713 -0.0119
  846TIP3    H124097   0.028   2.531   8.421 -1.6440 -0.4916 -0.7927
  846TIP3    H224098  -0.056   2.499   8.543  1.1950 -0.5046  1.2423
  847TIP3   OH224099   5.176   1.173   0.379  0.6092 -0.0695  0.0043
  847TIP3    H124100   5.189   1.129   0.295  2.2026  0.5009 -0.0750
  847TIP3    H224101   5.128   1.110   0.432 -0.4648 -0.4254 -1.3364
  848TIP3   OH224102   2.716   4.605   0.507  0.0728  0.3089  0.3239
  848TIP3    H124103   2.731   4.535   0.570 -1.0059  1.0175  1.4059
  848TIP3    H224104   2.768   4.581   0.431 -0.2873 -1.6766  0.6627
  849TIP3   OH224105   0.353   6.464   1.092 -0.1743  0.3571  0.1403
  849TIP3    H124106   0.355   6.525   1.166 -1.3551  1.1482 -0.4520
  849TIP3    H224107   0.438   6.475   1.050 -0.7595  2.4368 -0.5929
  850TIP3   OH224108   6.208   2.185   2.320  0.0077  0.1493  0.8735
  850TIP3    H124109   6.205   2.098   2.282  0.8470  0.1959  0.6739
  850TIP3    H224110   6.149   2.237   2.266  0.2160 -0.0848  0.4142
  851TIP3   OH224111   3.133   3.102   8.045 -0.7170  0.2538  0.2170
  851TIP3    H124112   3.171   3.039   8.107 -0.5484  0.9032  0.7788
  851TIP3    H224113   3.066   3.052   7.999  0.1005 -0.6291 -0.0655
  852TIP3   OH224114   3.447   3.518   8.647  0.3167  0.0324 -0.5542
  852TIP3    H124115   3.359   3.549   8.626 -0.2569 -0.1534  1.3281
  852TIP3    H224116   3.502   3.596   8.639 -0.5480  0.8599  0.9820
  853TIP3   OH224117   0.899   3.282   8.842 -0.1258  0.4506  0.8242
  853TIP3    H124118   0.884   3.322   8.928 -2.5084  0.9315  0.2685
  853TIP3    H224119   0.916   3.190   8.861 -1.6755  0.3291  1.7927
  854TIP3   OH224120   6.233   4.457   0.294 -0.5842  0.3864 -0.4442
  854TIP3    H124121   6.139   4.438   0.301 -0.3393 -0.6667  0.1569
  854TIP3    H224122   6.257   4.489   0.381 -0.2302 -0.1115 -0.3556
  855TIP3   OH224123   5.273   1.004   7.763  0.3507 -0.2226  0.6003
  855TIP3    H124124   5.257   0.910   7.749  2.1554 -0.4750 -0.1514
  855TIP3    H224125   5.213   1.029   7.832  1.0673 -2.3846  2.1220
  856TIP3   OH224126   6.189   4.418   1.724  0.2252 -0.1617  0.1648
  856TIP3    H124127   6.139   4.358   1.668  0.6166  0.5191 -0.9370
  856TIP3    H224128   6.211   4.491   1.667  1.0494  0.3296  1.0915
  857TIP3   OH224129   4.503   4.426   7.418  0.2023 -0.6210  0.0584
  857TIP3    H124130   4.552   4.359   7.371  0.9055  0.1934 -0.3922
  857TIP3    H224131   4.556   4.505   7.410 -0.3510 -0.1317  1.0368
  858TIP3   OH224132   6.579   6.042   0.850 -0.3841 -0.5025 -0.4004
  858TIP3    H124133   6.553   5.966   0.798  0.8009  0.3017 -2.3030
  858TIP3    H224134   6.510   6.106   0.835 -0.9775 -0.9066  0.5523
  859TIP3   OH224135   3.173   4.986   8.422  0.2471  0.2331  0.5384
  859TIP3    H124136   3.122   4.908   8.442  1.0988 -0.4256  0.2443
  859TIP3    H224137   3.132   5.023   8.344  0.4157 -0.4870  0.0972
  860TIP3   OH224138   0.210   3.397   0.035  0.2091  0.0804 -0.0805
  860TIP3    H124139   0.130   3.390   0.087 -1.2500  0.9594 -2.0597
  860TIP3    H224140   0.244   3.308   0.030 -0.9244 -0.3967  0.3989
  861TIP3   OH224141   3.112   6.597   7.836 -0.1081  0.1386 -0.4147
  861TIP3    H124142   3.179   6.659   7.865 -0.4058  0.2059  0.1397
  861TIP3    H224143   3.044   6.601   7.904  0.4426 -1.7152  0.3072
  862TIP3   OH224144   6.132   3.886   1.626  0.0224 -0.1837 -0.3205
  862TIP3    H124145   6.046   3.854   1.599  0.4813 -0.8409 -1.0590
  862TIP3    H224146   6.182   3.893   1.544  0.7700 -0.1236  0.1313
  863TIP3   OH224147   2.636   4.316   0.350 -0.2156  0.0030 -0.0149
  863TIP3    H124148   2.555   4.320   0.400  0.1025  2.8051  0.4480
  863TIP3    H224149   2.643   4.225   0.322 -3.5157 -0.3201 -0.1086
  864TIP3   OH224150   4.785   1.204   0.088  0.3799 -0.1599  0.1107
  864TIP3    H124151   4.709   1.223   0.143 -0.7017 -1.3273 -0.9148
  864TIP3    H224152   4.804   1.112   0.105  2.0237  0.2786  0.8485
  865TIP3   OH224153   1.622   0.676   1.332  0.5833  0.1890  0.6615
  865TIP3    H124154   1.561   0.748   1.343  0.3072  0.1896 -0.7530
  865TIP3    H224155   1.707   0.712   1.357  0.1492  0.3990  1.9079
  866TIP3   OH224156   1.820   5.883   8.020  0.4100  0.2065 -0.2623
  866TIP3    H124157   1.772   5.941   7.962  0.6023  0.4987 -0.1357
  866TIP3    H224158   1.763   5.871   8.096  0.4633  0.4215 -0.1853
  867TIP3   OH224159   1.264   5.619   7.061 -0.2696  0.0797 -0.0374
  867TIP3    H124160   1.269   5.525   7.077  1.4908  0.2172  0.4102
  867TIP3    H224161   1.178   5.644   7.095 -1.5127 -1.6100 -1.7044
  868TIP3   OH224162   4.983   1.572   0.417  0.1232  0.0912 -0.4791
  868TIP3    H124163   4.962   1.533   0.333  0.7336 -0.9848 -0.1524
  868TIP3    H224164   5.077   1.555   0.429  0.7433  2.8241 -0.9142
  869TIP3   OH224165   5.580   2.466   0.184 -0.3659  0.4702 -0.4262
  869TIP3    H124166   5.647   2.528   0.214  0.5689 -0.3143 -0.8635
  869TIP3    H224167   5.625   2.411   0.120 -0.7756 -1.5561  0.9403
  870TIP3   OH224168   5.866   6.463   0.963  0.3222  0.2938 -0.0547
  870TIP3    H124169   5.838   6.553   0.977 -0.6341  0.0194 -0.0748
  870TIP3    H224170   5.841   6.418   1.044  1.6292  0.2201  0.3333
  871TIP3   OH224171   1.649   4.478   8.004 -0.0559  0.6541 -0.1793
  871TIP3    H124172   1.737   4.447   8.028 -0.3738 -0.7896 -0.7541
  871TIP3    H224173   1.592   4.404   8.023 -0.6053  0.1320 -3.3434
  872TIP3   OH224174   6.709   2.975   1.561 -0.1653  0.3095 -0.2586
  872TIP3    H124175   6.736   2.886   1.584  0.4296  0.3501 -0.7863
  872TIP3    H224176   6.791   3.025   1.560 -0.3598  0.6269 -1.0144
  873TIP3   OH224177   4.314   0.274   1.438 -0.1770  0.1740  0.3107
  873TIP3    H124178   4.243   0.243   1.381  0.9003  0.2939 -1.1661
  873TIP3    H224179   4.343   0.356   1.398  1.6723 -0.5503  0.0568
  874TIP3   OH224180   1.466   3.384   8.528  0.0145 -0.2247 -0.4486
  874TIP3    H124181   1.487   3.290   8.526  2.1926  0.1785  0.3509
  874TIP3    H224182   1.403   3.392   8.601 -0.0576 -1.0305 -0.4082
  875TIP3   OH224183   2.330   5.770   1.172  0.3686  0.7775 -0.6110
  875TIP3    H124184   2.240   5.800   1.186  0.8408  1.0297  2.6594
  875TIP3    H224185   2.321   5.686   1.128 -1.4408  1.0198 -0.7753
  876TIP3   OH224186   1.373   0.308   0.749  0.4841 -0.2529  0.3774
  876TIP3    H124187   1.413   0.394   0.762  2.1896 -1.0855  1.0534
  876TIP3    H224188   1.438   0.260   0.698  0.0241 -1.4387  0.8780
  877TIP3   OH224189   3.023   6.421   0.105  0.1836 -0.0087 -0.1601
  877TIP3    H124190   2.932   6.396   0.126 -0.2565  3.0079  2.1283
  877TIP3    H224191   3.015   6.483   0.033  0.6692 -1.1304 -1.2196
  878TIP3   OH224192   6.770   6.690   1.612 -0.0182  0.0575  0.3402
  878TIP3    H124193   6.717   6.766   1.638 -0.4484 -1.3534  4.2529
  878TIP3    H224194   6.707   6.630   1.571 -0.9219 -0.3166  2.1502
  879TIP3   OH224195   4.630   4.890   0.609  0.6707  0.3808  0.3235
  879TIP3    H124196   4.642   4.923   0.698  1.9843  2.5362 -0.5672
  879TIP3    H224197   4.712   4.913   0.564 -0.2845  0.1202 -1.6496
  880TIP3   OH224198   4.264   4.382   0.010  0.3184  0.3078  0.0326
  880TIP3    H124199   4.272   4.394   0.105  0.8217 -1.8761  0.3385
  880TIP3    H224200   4.339   4.429  -0.026  2.0471 -1.4787  1.0493
  881TIP3   OH224201   6.311   5.038   1.727  0.3494  0.4022  0.0404
  881TIP3    H124202   6.227   5.036   1.681  0.8805  0.9880 -0.9677
  881TIP3    H224203   6.296   5.097   1.801  0.4700  2.2302 -1.3528
  882TIP3   OH224204   6.418   2.490   6.879 -0.5955 -0.1149 -0.5392
  882TIP3    H124205   6.461   2.453   6.802  0.6361  0.2519 -0.0551
  882TIP3    H224206   6.347   2.544   6.843 -0.9317 -1.0682 -1.3428
  883TIP3   OH224207   1.007   0.332   0.549  0.4144 -0.2499  0.7306
  883TIP3    H124208   1.075   0.265   0.540 -0.0107 -0.7873  1.4592
  883TIP3    H224209   1.008   0.378   0.465  1.8118 -0.1191  0.7952
  884TIP3   OH224210   6.250   0.461   7.943  0.2857 -0.3417  0.7240
  884TIP3    H124211   6.315   0.412   7.993  0.2047 -2.5933 -1.2038
  884TIP3    H224212   6.302   0.522   7.891  0.6298 -0.3021  1.1052
  885TIP3   OH224213   0.373   2.811   1.272 -0.4349  0.4306  0.3145
  885TIP3    H124214   0.336   2.843   1.354 -1.2291 -0.3263  0.2692
  885TIP3    H224215   0.315   2.739   1.247  0.1016  0.3241 -0.6435
  886TIP3   OH224216   5.024   0.507   7.802 -0.2887 -0.0875 -0.3512
  886TIP3    H124217   5.111   0.465   7.801 -0.1348  0.1843  0.4745
  886TIP3    H224218   5.040   0.593   7.841 -0.7746  0.3435 -1.0922
  887TIP3   OH224219   4.961   3.237   8.128  0.6496 -0.1466  0.4424
  887TIP3    H124220   4.906   3.314   8.112  1.6461  0.4258 -0.3313
  887TIP3    H224221   4.937   3.208   8.216 -0.6745  0.2630  0.2405
  888TIP3   OH224222   3.515   6.158   1.449 -0.7638 -0.5936 -0.0635
  888TIP3    H124223   3.568   6.194   1.377 -1.7575 -1.4628 -1.2881
  888TIP3    H224224   3.426   6.161   1.415 -1.2499 -1.0367  1.1616
  889TIP3   OH224225   5.870   1.620   8.659 -0.1913  0.2959  0.0874
  889TIP3    H124226   5.807   1.686   8.688  1.1845  2.1136 -0.8162
  889TIP3    H224227   5.855   1.611   8.565 -1.5613 -2.1175  0.4551
  890TIP3   OH224228   3.968   5.557   8.261  0.4645 -1.0490 -0.0683
  890TIP3    H124229   3.971   5.632   8.320  0.9896 -0.4781 -0.8023
  890TIP3    H224230   3.934   5.592   8.178 -0.3357 -1.8495 -0.1025
  891TIP3   OH224231   5.804   3.720   0.756  0.2575 -0.3824  0.6006
  891TIP3    H124232   5.716   3.756   0.753  0.1011 -0.4258  2.7756
  891TIP3    H224233   5.799   3.652   0.824  1.1772 -2.7380 -1.5092
  892TIP3   OH224234   2.439   2.370   7.797 -0.2275  0.2750 -0.7532
  892TIP3    H124235   2.441   2.417   7.714  0.5010  2.1046  0.2299
  892TIP3    H224236   2.354   2.393   7.835  0.5100  1.6948  0.1552
  893TIP3   OH224237   6.735   4.777   7.560  0.0524  0.4754 -0.6863
  893TIP3    H124238   6.641   4.797   7.559 -0.2041 -0.6644 -2.6916
  893TIP3    H224239   6.774   4.846   7.506  0.0589 -0.3065 -1.7056
  894TIP3   OH224240   5.715   4.934   1.200  0.2063  0.2025 -0.1013
  894TIP3    H124241   5.687   5.001   1.138  0.4581  0.3130 -0.0924
  894TIP3    H224242   5.670   4.854   1.169  1.3504 -0.0457 -1.2174
  895TIP3   OH224243   5.146   4.780   1.924  0.1629  0.0716 -0.4014
  895TIP3    H124244   5.103   4.855   1.964 -0.6965 -0.5457 -0.1444
  895TIP3    H224245   5.231   4.776   1.968 -0.8663 -0.7898  1.6904
  896TIP3   OH224246   1.980   6.619   7.881 -0.0043  1.4378 -0.4067
  896TIP3    H124247   1.952   6.703   7.845 -1.7293  0.9171 -0.3885
  896TIP3    H224248   2.007   6.638   7.971 -0.3575  1.9789 -0.4159
  897TIP3   OH224249   4.400   0.509   1.308  0.4748  0.2762 -0.6977
  897TIP3    H124250   4.381   0.601   1.329 -1.5888  0.1743 -1.8295
  897TIP3    H224251   4.370   0.499   1.218  1.6675 -1.2684 -0.9519
  898TIP3   OH224252   6.393   3.468   6.571  0.5948  0.3258  0.3979
  898TIP3    H124253   6.416   3.381   6.604 -0.9949 -0.7404 -1.1502
  898TIP3    H224254   6.470   3.496   6.521  0.7083 -0.7103 -0.0317
  899TIP3   OH224255   6.194   1.711   7.544  0.5002 -0.4040 -0.1342
  899TIP3    H124256   6.165   1.746   7.628  1.6769 -0.3780  0.2912
  899TIP3    H224257   6.161   1.774   7.480 -1.2379 -0.9325  0.1918
  900TIP3   OH224258   6.645   4.367   8.797 -0.6739 -0.0667  0.3393
  900TIP3    H124259   6.609   4.282   8.772  0.3954  0.0436 -1.8577
  900TIP3    H224260   6.690   4.352   8.880  2.2216 -2.5040 -1.4788
  901TIP3   OH224261   3.668   3.911   2.177  0.2014  0.2379  0.6193
  901TIP3    H124262   3.727   3.985   2.170  0.0238  0.2135 -1.7323
  901TIP3    H224263   3.593   3.933   2.121  0.4259 -1.9242 -0.6690
  902TIP3   OH224264   2.735   0.448   1.005 -0.3450  0.0989 -0.2069
  902TIP3    H124265   2.683   0.467   1.083 -1.5610 -0.4146 -0.8720
  902TIP3    H224266   2.813   0.503   1.014 -0.2000 -0.3535  1.6255
  903TIP3   OH224267   2.748   3.391   7.736  0.5225 -0.1211 -0.1724
  903TIP3    H124268   2.714   3.395   7.647  1.6293 -1.2657 -0.6903
  903TIP3    H224269   2.812   3.462   7.741  2.1428 -1.4408 -1.0991
  904TIP3   OH224270   5.278   4.622   2.545 -0.0813  0.1385  0.1789
  904TIP3    H124271   5.259   4.680   2.472 -0.9518  0.5703  0.7333
  904TIP3    H224272   5.321   4.679   2.610 -1.9528  0.4583  1.1906
  905TIP3   OH224273   3.584   1.147   8.867 -0.3997  0.3541  0.2067
  905TIP3    H124274   3.581   1.169   8.774  2.0910  0.0621  0.0096
  905TIP3    H224275   3.658   1.197   8.901 -1.3497  0.5598  2.1046
  906TIP3   OH224276   5.671   1.530   7.312 -0.1587 -0.3438 -0.0373
  906TIP3    H124277   5.654   1.558   7.402  2.5232 -0.7970  0.7021
  906TIP3    H224278   5.744   1.584   7.283 -0.1850 -1.0441 -1.5029
  907TIP3   OH224279   6.272   4.556   7.713  0.5860  0.4970  0.5767
  907TIP3    H124280   6.191   4.506   7.709 -0.8317  2.4198  2.8803
  907TIP3    H224281   6.275   4.605   7.631  0.2961 -0.7914 -0.2254
  908TIP3   OH224282   1.263   2.262   8.596 -0.1905 -0.3797 -0.2633
  908TIP3    H124283   1.260   2.166   8.596  0.3432 -0.4010  0.2543
  908TIP3    H224284   1.350   2.283   8.564  0.0896 -0.0860  0.6833
  909TIP3   OH224285   3.254   5.380   8.498 -0.5409 -0.6467 -0.4520
  909TIP3    H124286   3.233   5.417   8.584 -1.3220 -0.5620 -0.6724
  909TIP3    H224287   3.337   5.334   8.511  0.6562  1.4571 -0.2354
  910TIP3   OH224288   5.380   2.692   1.569  0.2413 -0.2585 -0.4767
  910TIP3    H124289   5.455   2.633   1.566  0.7705  0.3807 -0.3012
  910TIP3    H224290   5.314   2.646   1.620 -0.0417 -1.4359 -1.8541
  911TIP3   OH224291   5.219   0.345   2.450  0.2158 -0.6106  0.3741
  911TIP3    H124292   5.181   0.418   2.402 -0.3827 -1.3948 -0.3787
  911TIP3    H224293   5.253   0.287   2.383  1.2769 -0.7305  0.9862
  912TIP3   OH224294   2.258   5.265   7.375  0.5625 -0.0470 -0.2357
  912TIP3    H124295   2.302   5.255   7.290 -0.5022  0.5183 -0.8738
  912TIP3    H224296   2.195   5.336   7.361 -0.3676 -0.6598  0.7215
  913TIP3   OH224297   0.028   6.389   1.979  0.2570  0.2273 -0.4022
  913TIP3    H124298   0.049   6.378   1.886 -0.8740 -0.9631 -0.5506
  913TIP3    H224299  -0.032   6.316   1.999  1.4022 -0.2512  1.5576
  914TIP3   OH224300   5.954   3.141   1.520  0.2454 -0.1235 -0.2629
  914TIP3    H124301   5.981   3.195   1.594  2.1118  0.2861 -1.1498
  914TIP3    H224302   5.861   3.125   1.533  0.1911  1.2498  1.3252
  915TIP3   OH224303   5.662   4.649   0.223  0.1515  0.5611 -0.3704
  915TIP3    H124304   5.751   4.626   0.250 -0.5554 -1.3975  0.4871
  915TIP3    H224305   5.666   4.743   0.202  2.3350  0.5651 -0.1023
  916TIP3   OH224306   4.263   5.214   8.255 -0.0001 -0.3086  0.0815
  916TIP3    H124307   4.169   5.227   8.272 -0.1725 -0.7320 -0.5281
  916TIP3    H224308   4.278   5.259   8.172  0.1573 -0.9509 -0.2408
  917TIP3   OH224309   2.436   1.939   1.781  1.2166 -0.2945 -0.0860
  917TIP3    H124310   2.380   2.015   1.798  1.6984  0.5499 -2.0778
  917TIP3    H224311   2.375   1.867   1.765  0.7018  0.2929 -0.8216
  918TIP3   OH224312   0.474   6.337   1.359 -0.5604 -0.1629 -0.6006
  918TIP3    H124313   0.532   6.298   1.294  0.8595  1.8363 -0.6086
  918TIP3    H224314   0.388   6.300   1.338  0.0198 -0.3634 -2.9700
  919TIP3   OH224315   3.154   0.632   6.911 -0.3162 -0.4400  0.2052
  919TIP3    H124316   3.176   0.620   6.819  1.4720 -1.6394  0.7172
  919TIP3    H224317   3.128   0.723   6.919 -0.0213 -0.1973 -1.4042
  920TIP3   OH224318   5.928   5.851   8.307 -0.1301  0.2341 -0.3257
  920TIP3    H124319   5.852   5.861   8.249 -1.0738  2.0395  1.0846
  920TIP3    H224320   5.933   5.935   8.354  1.2683 -0.7172  1.3524
  921TIP3   OH224321   0.312   0.078   8.687 -0.7745  0.3093 -0.2103
  921TIP3    H124322   0.357  -0.003   8.663  0.3931  0.6799  0.6364
  921TIP3    H224323   0.247   0.051   8.752 -0.7665 -0.0252 -0.3388
  922TIP3   OH224324   3.990   3.166   0.870 -0.0922 -0.6044 -0.1798
  922TIP3    H124325   3.991   3.095   0.934  0.1384 -1.2137 -0.8536
  922TIP3    H224326   4.052   3.230   0.905 -3.2041  1.2296  2.5687
  923TIP3   OH224327   4.073   5.852   1.541 -0.0181 -0.4885  0.0048
  923TIP3    H124328   4.137   5.781   1.542  0.0836 -0.3955  0.3650
  923TIP3    H224329   4.076   5.886   1.452 -0.0115 -0.8860 -0.1481
  924TIP3   OH224330   4.683   2.083   8.101  0.0963 -0.0033  0.1622
  924TIP3    H124331   4.720   2.005   8.059  1.1921  0.8658 -0.5772
  924TIP3    H224332   4.713   2.079   8.191 -1.1650 -1.2150  0.5593
  925TIP3   OH224333   2.004   4.294   7.879 -0.1236 -0.1141 -0.0171
  925TIP3    H124334   2.049   4.366   7.923 -0.6413  0.5158 -0.4865
  925TIP3    H224335   1.965   4.243   7.950 -1.8657  1.4928  0.2834
  926TIP3   OH224336   6.096   6.620   1.548  0.3782  0.1959 -0.1265
  926TIP3    H124337   6.064   6.532   1.531  1.7362 -0.0870 -1.3767
  926TIP3    H224338   6.192   6.613   1.542  0.6290  1.4087  1.4965
  927TIP3   OH224339   0.382   3.020   8.175  0.0625  0.5675  0.2846
  927TIP3    H124340   0.412   3.022   8.085  1.2075  0.8934  0.6535
  927TIP3    H224341   0.303   2.966   8.173  0.4654 -0.0132 -0.7926
  928TIP3   OH224342   2.244   0.892   1.443  0.4502  0.2658  0.2628
  928TIP3    H124343   2.288   0.854   1.518 -0.5252 -1.4303  0.0176
  928TIP3    H224344   2.204   0.973   1.477  2.1833  0.9046  0.8937
  929TIP3   OH224345   2.996   0.911   1.676  0.0630 -0.6979  0.0180
  929TIP3    H124346   3.073   0.881   1.725 -0.9812 -1.3751  1.2955
  929TIP3    H224347   2.955   0.976   1.733  0.0234  0.1335 -0.9323
  930TIP3   OH224348   2.320   0.200   0.181  0.0596 -0.7069  0.4066
  930TIP3    H124349   2.332   0.155   0.264 -2.1599 -2.4449 -0.1270
  930TIP3    H224350   2.225   0.206   0.170  0.2963 -0.2049 -1.8200
  931TIP3   OH224351   1.748   1.698   6.884 -0.6354  0.0827  0.1180
  931TIP3    H124352   1.831   1.745   6.881 -1.4921  1.6650  0.0081
  931TIP3    H224353   1.773   1.605   6.885  1.1041  0.5071 -0.1451
  932TIP3   OH224354   5.899   6.688   7.691 -0.3163  0.3678  0.4493
  932TIP3    H124355   5.813   6.728   7.701 -1.6119 -1.8770 -1.0101
  932TIP3    H224356   5.915   6.687   7.597 -0.4129 -2.5545  0.3841
  933TIP3   OH224357   5.979   0.683   1.279  0.4760 -0.1047  0.0666
  933TIP3    H124358   5.938   0.725   1.204 -0.7025  3.1016  2.2544
  933TIP3    H224359   6.054   0.738   1.300  0.7546 -0.8808  1.2579
  934TIP3   OH224360   6.602   6.473   1.528 -0.4317  0.1655 -0.5722
  934TIP3    H124361   6.551   6.475   1.609 -0.2288  0.1192 -0.4434
  934TIP3    H224362   6.537   6.478   1.459 -0.5285  3.1946 -0.4198
  935TIP3   OH224363   1.657   4.143   0.271  0.2704 -0.1944 -0.5337
  935TIP3    H124364   1.724   4.076   0.257  0.3952 -0.5086  1.3338
  935TIP3    H224365   1.683   4.186   0.352 -0.3014  1.5441 -1.2350
  936TIP3   OH224366   5.736   0.368   0.019 -0.0350 -0.1299  0.7850
  936TIP3    H124367   5.768   0.279   0.036 -1.0819 -0.2722  2.1309
  936TIP3    H224368   5.641   0.359   0.018 -0.1394  0.9234  0.5828
  937TIP3   OH224369   4.694   3.947   7.320 -0.3539 -0.2599 -0.4120
  937TIP3    H124370   4.617   3.891   7.306 -0.1935 -0.4550 -0.5125
  937TIP3    H224371   4.758   3.916   7.256  0.3101 -1.0181  0.5961
  938TIP3   OH224372   5.985   6.130   7.450  0.3869 -0.3859  0.3717
  938TIP3    H124373   6.031   6.077   7.385 -1.5096  0.6512 -1.9627
  938TIP3    H224374   6.004   6.220   7.425 -1.7962  0.0567  0.1038
  939TIP3   OH224375   3.280   4.866   0.740  0.0182  0.1666  0.6952
  939TIP3    H124376   3.222   4.917   0.683  0.5754  1.0002  0.8568
  939TIP3    H224377   3.253   4.890   0.829 -0.8349 -1.1141  0.8258
  940TIP3   OH224378   2.422   2.426   8.792  0.3864  0.1041 -0.1832
  940TIP3    H124379   2.496   2.482   8.811 -0.4259  0.9671  0.5401
  940TIP3    H224380   2.352   2.459   8.848 -0.2720 -1.2875 -0.1404
  941TIP3   OH224381   5.963   0.903   8.317  0.4213  0.4902  0.3216
  941TIP3    H124382   5.990   0.972   8.256 -0.0239  0.4707  0.0992
  941TIP3    H224383   6.019   0.829   8.296 -0.7593 -0.0358 -1.1215
  942TIP3   OH224384   3.452   3.459   0.619 -0.0151  0.3887 -0.3494
  942TIP3    H124385   3.405   3.416   0.546 -0.9637  0.6665  0.0856
  942TIP3    H224386   3.395   3.532   0.644 -0.6157 -0.7662  1.8572
  943TIP3   OH224387   3.057   0.364   0.321  0.2159 -0.0372 -0.0805
  943TIP3    H124388   3.012   0.441   0.354 -0.7356 -0.9753  0.8982
  943TIP3    H224389   3.041   0.365   0.227  0.2953  0.9889 -0.0918
  944TIP3   OH224390   2.505   4.020   8.256  0.1553 -0.7665 -0.1902
  944TIP3    H124391   2.411   4.039   8.259  0.3432  0.2622 -0.6260
  944TIP3    H224392   2.524   4.007   8.163  0.4827 -0.8170 -0.1194
  945TIP3   OH224393   4.815   5.647   8.433  0.3114 -0.1272  0.2957
  945TIP3    H124394   4.854   5.582   8.375  0.1514 -0.8527  0.9883
  945TIP3    H224395   4.723   5.622   8.439  0.1283  0.4945  0.1263
  946TIP3   OH224396   1.318   3.486   1.301 -0.2973  0.1983 -0.1644
  946TIP3    H124397   1.340   3.447   1.386  0.7268 -0.6337 -0.8011
  946TIP3    H224398   1.391   3.464   1.244 -0.6907  1.2704 -1.1177
  947TIP3   OH224399   1.826   1.882   7.404  0.5467 -0.2273  0.8649
  947TIP3    H124400   1.876   1.831   7.468  1.7328  1.5607  1.4399
  947TIP3    H224401   1.892   1.918   7.345 -0.4260 -0.7826 -0.6248
  948TIP3   OH224402   5.242   5.889   0.840 -0.2113 -0.2008  0.1368
  948TIP3    H124403   5.336   5.876   0.850 -0.3100 -1.1779 -0.0997
  948TIP3    H224404   5.202   5.818   0.890 -0.7939 -0.7575 -1.0819
  949TIP3   OH224405   0.361   0.973   7.566  0.0607 -0.1890  0.0258
  949TIP3    H124406   0.288   0.931   7.612 -0.0870 -0.6964 -0.6573
  949TIP3    H224407   0.422   0.997   7.635  0.2261 -1.6780  0.4390
  950TIP3   OH224408   0.577   4.355   0.779  0.1410  0.3692  0.5046
  950TIP3    H124409   0.550   4.263   0.766  0.9398 -0.0799  1.9164
  950TIP3    H224410   0.579   4.367   0.874  1.3920  1.4495  0.3719
  951TIP3   OH224411   2.780   6.175   6.388  0.1790 -0.0246 -0.2429
  951TIP3    H124412   2.819   6.200   6.472 -0.2700  2.0701 -0.5938
  951TIP3    H224413   2.827   6.096   6.362  0.4438 -0.6207  1.8775
  952TIP3   OH224414   1.536   2.206   1.059  0.3825  0.4101 -0.1649
  952TIP3    H124415   1.569   2.132   1.111 -2.8843 -0.9768  0.1679
  952TIP3    H224416   1.564   2.187   0.970  0.9218 -0.4269  0.1674
  953TIP3   OH224417   4.023   5.654   1.728 -0.5050 -0.6979  0.3336
  953TIP3    H124418   4.110   5.646   1.767  0.1051 -1.1334 -1.0432
  953TIP3    H224419   4.022   5.742   1.690 -0.6586 -0.7017  0.3267
  954TIP3   OH224420   4.456   4.527   8.765 -0.0277  0.3742  0.5739
  954TIP3    H124421   4.540   4.486   8.787  0.9299  1.5259 -0.7111
  954TIP3    H224422   4.420   4.472   8.696 -1.1483 -1.0262  2.2037
  955TIP3   OH224423   2.075   5.262   2.266  0.2160  0.0994  0.0038
  955TIP3    H124424   2.140   5.205   2.307 -0.3212  0.0796  0.8371
  955TIP3    H224425   2.098   5.350   2.296 -1.0963 -0.0765  1.6286
  956TIP3   OH224426   3.643   6.274   1.236 -0.1592  0.0247  0.4144
  956TIP3    H124427   3.674   6.315   1.155 -1.6346  0.6740  0.1579
  956TIP3    H224428   3.693   6.317   1.305 -1.8971  2.6262  0.2033
  957TIP3   OH224429   0.372   6.154   8.812  0.1895 -0.2140  0.6155
  957TIP3    H124430   0.463   6.176   8.836  1.3018 -3.4019 -0.1350
  957TIP3    H224431   0.365   6.060   8.831 -1.7003 -0.9691 -3.0085
  958TIP3   OH224432   2.202   0.040   8.014 -0.0812 -0.5643 -0.3114
  958TIP3    H124433   2.257  -0.014   7.957  0.7012 -1.2386  1.0273
  958TIP3    H224434   2.239   0.127   8.008  0.2047 -0.7023 -0.5639
  959TIP3   OH224435   3.716   1.819   6.905  0.4803 -0.3735  0.2968
  959TIP3    H124436   3.682   1.835   6.994 -0.3047  0.7343 -0.1791
  959TIP3    H224437   3.715   1.723   6.897 -0.3222 -0.4635  1.1641
  960TIP3   OH224438   0.357   5.215   2.363 -0.1616 -0.5822 -0.4868
  960TIP3    H124439   0.296   5.287   2.376  2.0813  1.7094 -1.6779
  960TIP3    H224440   0.302   5.137   2.355 -2.9254  1.3836 -2.0340
  961TIP3   OH224441   0.019   3.362   2.027  0.1546 -0.2769  0.3814
  961TIP3    H124442   0.099   3.369   2.079  0.2044  0.1750  0.2491
  961TIP3    H224443  -0.050   3.393   2.085  0.0884 -0.5683  0.4604
  962TIP3   OH224444   1.768   4.787   8.274  0.3432 -0.1348  0.2087
  962TIP3    H124445   1.787   4.824   8.188  0.9552 -2.8516 -0.9231
  962TIP3    H224446   1.843   4.813   8.328  0.7229  0.2978 -0.5124
  963TIP3   OH224447   3.998   3.599   0.097  0.2073 -0.1537 -0.6681
  963TIP3    H124448   4.093   3.588   0.086 -0.1169 -2.1581 -2.0364
  963TIP3    H224449   3.962   3.582   0.009 -1.4752 -0.3937  0.0302
  964TIP3   OH224450   1.173   4.058   7.563 -0.7283  0.1749  0.2563
  964TIP3    H124451   1.181   4.044   7.468 -1.0092 -1.5750  0.4565
  964TIP3    H224452   1.235   3.996   7.601  0.2490  1.6892  1.2204
  965TIP3   OH224453   6.409   3.603   7.523 -0.3795  0.4350  0.4285
  965TIP3    H124454   6.478   3.557   7.571 -0.4255  0.4539  0.5151
  965TIP3    H224455   6.401   3.557   7.440 -0.4178  0.2945  0.5106
  966TIP3   OH224456   5.275   6.587   7.022 -0.2248  0.5134 -0.1510
  966TIP3    H124457   5.333   6.644   6.971  0.1141 -0.2360 -0.6158
  966TIP3    H224458   5.331   6.546   7.087 -0.2841  0.0118 -0.4100
  967TIP3   OH224459   1.112   4.351   8.826 -0.1591 -0.3014  0.2338
  967TIP3    H124460   1.156   4.338   8.742 -0.8121 -1.4644  0.0454
  967TIP3    H224461   1.019   4.356   8.804 -0.3097 -0.2764  0.8554
  968TIP3   OH224462   0.361   1.368   8.239  0.2232 -0.0346 -0.6015
  968TIP3    H124463   0.394   1.280   8.218 -1.8116 -1.2387  0.9207
  968TIP3    H224464   0.270   1.367   8.210  0.0190  1.3819 -0.0725
  969TIP3   OH224465   1.308   4.684   2.038 -0.3275  0.1176  0.1152
  969TIP3    H124466   1.241   4.718   2.098  0.8425 -0.2610  1.6857
  969TIP3    H224467   1.382   4.744   2.050 -0.2637  0.3809 -1.4177
  970TIP3   OH224468   4.760   3.800   1.710  0.0827 -0.0741  0.3626
  970TIP3    H124469   4.698   3.872   1.697  1.4071  0.9247 -0.7845
  970TIP3    H224470   4.741   3.739   1.638  1.0067  0.6983 -0.5722
  971TIP3   OH224471   0.294   1.313   8.650 -0.7357 -0.3372 -0.0999
  971TIP3    H124472   0.359   1.312   8.720 -0.5764  0.7480 -0.2125
  971TIP3    H224473   0.340   1.350   8.575 -0.5744 -2.5278 -1.1454
  972TIP3   OH224474   4.132   1.274   7.167  0.4096  0.2404 -0.5021
  972TIP3    H124475   4.050   1.265   7.120 -0.4364  1.2118  0.7284
  972TIP3    H224476   4.182   1.195   7.144 -0.1166  0.4753 -2.6331
  973TIP3   OH224477   1.134   5.607   0.000 -0.2957  0.4270  0.8460
  973TIP3    H124478   1.076   5.674   0.038  0.8157  1.1254  1.3637
  973TIP3    H224479   1.214   5.655  -0.023 -0.5033 -0.1965 -1.3882
  974TIP3   OH224480   6.260   2.344   7.474 -0.3058  0.0413  0.1045
  974TIP3    H124481   6.293   2.279   7.411  0.1483  0.2423  0.1324
  974TIP3    H224482   6.174   2.369   7.439  0.2771  0.7438 -0.8771
  975TIP3   OH224483   3.768   5.560   8.593  0.2510 -0.0535 -0.6288
  975TIP3    H124484   3.703   5.551   8.663 -0.1893  0.4447 -0.9610
  975TIP3    H224485   3.797   5.651   8.599  2.5084 -0.8152  0.8702
  976TIP3   OH224486   5.556   6.643   6.922  0.1007  0.2480  0.0740
  976TIP3    H124487   5.640   6.683   6.940  0.9524 -0.5757 -1.7932
  976TIP3    H224488   5.566   6.552   6.950 -0.0190  0.0422 -0.5390
  977TIP3   OH224489   6.207   0.843   1.302  0.1677 -0.3469 -0.2646
  977TIP3    H124490   6.264   0.819   1.375  0.5229  0.8056 -0.1560
  977TIP3    H224491   6.267   0.863   1.230 -0.1591 -0.6333 -0.6252
  978TIP3   OH224492   1.340   1.314   0.115  0.3098  0.8479 -0.2111
  978TIP3    H124493   1.266   1.345   0.167 -1.8717 -0.0260 -2.5590
  978TIP3    H224494   1.391   1.393   0.097  0.5558  1.3201  2.2372
  979TIP3   OH224495   4.295   6.064   8.060 -0.2949 -0.0903 -0.3407
  979TIP3    H124496   4.242   6.084   7.983 -1.0649  0.3491  0.2775
  979TIP3    H224497   4.231   6.040   8.127  0.0265  2.8636  1.1758
  980TIP3   OH224498   4.859   0.775   8.225 -0.3763 -0.5999  0.1980
  980TIP3    H124499   4.946   0.774   8.265 -0.5643  0.1310  0.6427
  980TIP3    H224500   4.799   0.794   8.297 -0.7498  0.4352 -0.3570
  981TIP3   OH224501   6.574   2.076   0.307 -0.3718 -0.1099 -0.3980
  981TIP3    H124502   6.620   2.068   0.223  0.4735  0.1342  0.0341
  981TIP3    H224503   6.611   2.006   0.360  0.8663  1.2182  0.5682
  982TIP3   OH224504   4.187   6.708   0.053  0.0413 -0.0857 -0.3174
  982TIP3    H124505   4.214   6.727   0.143 -0.4266 -0.0135 -0.1903
  982TIP3    H224506   4.099   6.745   0.046  0.5778  1.0913 -1.2036
  983TIP3   OH224507   4.940   2.202   0.240  0.0325  0.3403 -0.2980
  983TIP3    H124508   4.937   2.265   0.311 -4.6617  0.3767 -0.2619
  983TIP3    H224509   4.977   2.251   0.166  1.8427  1.2791  1.1586
  984TIP3   OH224510   0.431   1.331   7.389  0.0462 -0.5164  0.3135
  984TIP3    H124511   0.483   1.251   7.392  0.8495  0.0257  1.5464
  984TIP3    H224512   0.341   1.302   7.404  0.3110 -1.1988  0.6131
  985TIP3   OH224513   1.068   0.639   0.333 -0.1518 -0.2363  0.7005
  985TIP3    H124514   1.103   0.648   0.245  0.9373 -0.5471  1.0882
  985TIP3    H224515   1.053   0.545   0.343 -2.7795 -0.0057 -0.0541
  986TIP3   OH224516   4.746   2.459   7.718 -0.0067 -0.4799  0.1237
  986TIP3    H124517   4.696   2.387   7.679  0.4697  0.0313 -1.5232
  986TIP3    H224518   4.746   2.527   7.651  0.7675  0.5033  1.0854
  987TIP3   OH224519   2.772   0.523   0.461 -0.6615  0.3502  0.1638
  987TIP3    H124520   2.731   0.484   0.384  0.1798  0.8863 -0.5764
  987TIP3    H224521   2.786   0.614   0.437 -2.1124  1.0297  1.6705
  988TIP3   OH224522   5.411   5.120   8.455  0.0312  0.3049 -0.1307
  988TIP3    H124523   5.327   5.085   8.423 -0.8373  0.9100  1.3621
  988TIP3    H224524   5.454   5.154   8.377  0.0252 -2.2173 -1.3365
  989TIP3   OH224525   5.967   6.136   8.245  0.2701 -0.0565  0.0533
  989TIP3    H124526   6.055   6.121   8.210  0.2300  0.5119 -0.3021
  989TIP3    H224527   5.927   6.197   8.183 -0.4002 -0.3601  0.1773
  990TIP3   OH224528   6.561   3.102   8.625  0.6006  0.3146  0.0374
  990TIP3    H124529   6.607   3.095   8.542  2.0237 -1.9155  0.9207
  990TIP3    H224530   6.630   3.109   8.690 -0.3812 -0.7400  1.2386
  991TIP3   OH224531   3.614   3.289   8.275 -0.1405  0.0921 -0.5894
  991TIP3    H124532   3.560   3.303   8.353  0.4012 -0.6212 -0.0671
  991TIP3    H224533   3.671   3.365   8.271  0.4520 -0.2883  0.2531
  992TIP3   OH224534   6.167   5.574   1.618 -0.1706  0.2265 -0.3147
  992TIP3    H124535   6.102   5.540   1.679 -0.4749  0.0270 -0.7468
  992TIP3    H224536   6.136   5.661   1.594  0.2002  0.5030  0.1804
  993TIP3   OH224537   0.941   6.417   7.548  0.0534 -0.5885 -0.0011
  993TIP3    H124538   1.007   6.445   7.612  1.0517 -2.0911 -0.3396
  993TIP3    H224539   0.991   6.396   7.470 -1.2491  2.7675 -1.9665
  994TIP3   OH224540   3.217   5.108   7.927  0.5933  0.2501 -0.1110
  994TIP3    H124541   3.310   5.093   7.944  0.8181  0.6702 -0.9357
  994TIP3    H224542   3.205   5.090   7.834 -0.2184 -0.0964  0.0453
  995TIP3   OH224543   6.660   2.131   8.496  0.5709 -0.2746  0.4799
  995TIP3    H124544   6.612   2.050   8.477  0.9552 -0.4478  0.2431
  995TIP3    H224545   6.746   2.118   8.456  0.4598  0.4611 -0.0027
  996TIP3   OH224546   6.164   1.020   8.547  0.7857  0.8672  0.1255
  996TIP3    H124547   6.170   0.949   8.610  1.9562  0.9647  0.1453
  996TIP3    H224548   6.087   0.999   8.494 -0.3404  0.8953  1.6963
  997TIP3   OH224549   1.847   1.519   7.273 -0.1891  0.0812  0.8031
  997TIP3    H124550   1.891   1.584   7.219  1.5106  0.2188  2.2635
  997TIP3    H224551   1.765   1.501   7.227  1.2960 -0.1050 -1.9791
  998TIP3   OH224552   1.954   2.282   0.751  0.3317  0.0110 -0.3348
  998TIP3    H124553   1.928   2.288   0.659 -0.7533  1.1788  0.0058
  998TIP3    H224554   1.920   2.363   0.790  0.3241 -0.6957  1.1918
  999TIP3   OH224555   0.535   5.280   8.881  0.2209  0.8295 -0.1363
  999TIP3    H124556   0.481   5.270   8.803 -0.1426 -1.7909  0.3763
  999TIP3    H224557   0.489   5.345   8.934 -0.3442  1.4752 -1.3885
 1000TIP3   OH224558   2.661   1.305   1.208 -0.3455  0.5838 -0.4477
 1000TIP3    H124559   2.566   1.310   1.194 -0.5828 -2.3886 -0.4685
 1000TIP3    H224560   2.676   1.217   1.243  2.3384  1.2771  0.3798
 1001TIP3   OH224561   3.916   3.484   1.671  0.1371  0.7815 -0.3807
 1001TIP3    H124562   3.875   3.538   1.604 -0.2575  1.6308  0.5219
 1001TIP3    H224563   3.853   3.483   1.743  0.1933 -0.7830 -0.3167
 1002TIP3   OH224564   4.097   2.251   0.284  0.8195 -0.0559 -0.1981
 1002TIP3    H124565   4.126   2.263   0.375  0.6382  0.4485 -0.2030
 1002TIP3    H224566   4.170   2.206   0.241  0.1698 -1.9983  0.6479
 1003TIP3   OH224567   5.297   0.968   1.148 -0.3870  0.2179  0.5577
 1003TIP3    H124568   5.243   1.042   1.121 -1.2200 -0.6905 -0.3562
 1003TIP3    H224569   5.293   0.907   1.074  0.5505 -0.5934  1.1517
 1004TIP3   OH224570   5.016   3.832   7.342 -0.5521 -0.0241 -0.2882
 1004TIP3    H124571   4.976   3.907   7.298 -1.1629 -0.5766 -0.6809
 1004TIP3    H224572   4.989   3.756   7.290  3.5461 -0.2233 -2.5831
 1005TIP3   OH224573   6.576   6.692   2.567  0.5969  0.0107  0.4956
 1005TIP3    H124574   6.593   6.613   2.515 -1.1810 -1.1408  1.5984
 1005TIP3    H224575   6.481   6.699   2.571  0.7119  1.6899  1.2349
 1006TIP3   OH224576   3.662   1.234   8.633  0.0125 -0.0934  0.4873
 1006TIP3    H124577   3.752   1.232   8.666  0.2978  1.3856 -0.1165
 1006TIP3    H224578   3.657   1.315   8.582 -1.6668 -0.1381  0.5229
 1007TIP3   OH224579   4.277   3.927   7.897 -0.8979  0.0229  0.4795
 1007TIP3    H124580   4.187   3.897   7.903 -1.0738  0.1911 -1.0152
 1007TIP3    H224581   4.277   3.991   7.826  0.3571  0.1718  0.5900
 1008TIP3   OH224582   1.492   3.212   6.746 -0.4084  0.5212  0.1057
 1008TIP3    H124583   1.530   3.125   6.741  1.0178  1.0703  0.8041
 1008TIP3    H224584   1.441   3.221   6.666 -1.4093 -1.3063  0.4714
 1009TIP3   OH224585   3.540   6.620   7.485 -0.1231 -0.0940  0.1521
 1009TIP3    H124586   3.581   6.537   7.459  0.3626  0.5431 -1.2155
 1009TIP3    H224587   3.553   6.677   7.409 -0.0164  1.3996  1.2654
 1010TIP3   OH224588   0.327   3.573   8.732  1.0121 -0.4614  0.0477
 1010TIP3    H124589   0.270   3.535   8.798  0.8054 -0.9146 -0.3810
 1010TIP3    H224590   0.362   3.497   8.684 -2.0124 -0.1662 -3.0415
 1011TIP3   OH224591   3.726   2.205   8.019  0.1679  0.2341  0.4099
 1011TIP3    H124592   3.636   2.233   8.038 -0.5971  0.1669 -2.6007
 1011TIP3    H224593   3.715   2.123   7.970  1.8594  0.4011 -0.2936
 1012TIP3   OH224594   3.579   5.210   7.461  0.1482 -0.5356  0.2307
 1012TIP3    H124595   3.593   5.276   7.393 -0.1864 -1.2898 -0.5980
 1012TIP3    H224596   3.484   5.197   7.463  0.0501  0.2644  1.6244
 1013TIP3   OH224597   4.836   5.712   0.134  0.1598 -0.1086 -0.3303
 1013TIP3    H124598   4.894   5.706   0.059 -0.9358  0.5601 -1.2631
 1013TIP3    H224599   4.824   5.622   0.163 -1.3276 -0.6929 -2.5113
 1014TIP3   OH224600   3.025   1.405   2.449  0.0935  0.5830 -0.2985
 1014TIP3    H124601   3.059   1.485   2.409  0.0692  0.5749 -0.3349
 1014TIP3    H224602   2.931   1.420   2.458  0.1349  0.6799 -0.0241
 1015TIP3   OH224603   3.894   6.598   0.793  0.8158 -0.5438  0.0194
 1015TIP3    H124604   3.904   6.661   0.865  0.6520  0.1771 -0.5735
 1015TIP3    H224605   3.975   6.547   0.795  1.2070  0.0650  0.1563
 1016TIP3   OH224606   1.160   3.267   1.223  0.2147 -0.3848 -0.1160
 1016TIP3    H124607   1.180   3.345   1.275 -2.0863 -0.2889  0.7154
 1016TIP3    H224608   1.145   3.300   1.135  0.3184 -0.0297 -0.0020
 1017TIP3   OH224609   3.414   1.445   7.622  0.1103  0.1236 -0.4772
 1017TIP3    H124610   3.330   1.468   7.582  1.3949  1.7219 -2.4954
 1017TIP3    H224611   3.416   1.495   7.704 -1.4622 -1.0912  0.3550
 1018TIP3   OH224612   4.856   0.575   6.418 -0.0983  0.3045  0.1678
 1018TIP3    H124613   4.808   0.504   6.461 -0.7781  0.2771 -0.6003
 1018TIP3    H224614   4.918   0.530   6.361 -0.4858  0.3123 -0.2713
 1019TIP3   OH224615   2.778   2.447   0.954 -0.2735  0.1865  0.3284
 1019TIP3    H124616   2.828   2.526   0.934 -0.3059 -0.4433 -2.7699
 1019TIP3    H224617   2.810   2.419   1.040  2.3653  1.5791 -0.0925
 1020TIP3   OH224618   0.871   1.008   2.842  0.3026  0.7928 -0.1059
 1020TIP3    H124619   0.849   0.917   2.820  1.8429  0.7054 -1.5024
 1020TIP3    H224620   0.791   1.057   2.826 -0.1943 -0.1448 -0.5635
 1021TIP3   OH224621   1.075   0.580   6.322 -0.2784 -0.7315  0.5882
 1021TIP3    H124622   1.019   0.623   6.387 -0.7596 -2.0049  1.0366
 1021TIP3    H224623   1.164   0.607   6.346 -0.6415  1.2760 -0.1097
 1022TIP3   OH224624   5.656   3.019   1.234 -0.3591 -0.7701 -0.4270
 1022TIP3    H124625   5.567   2.992   1.210 -0.7636  0.2727 -0.1706
 1022TIP3    H224626   5.677   3.090   1.173 -0.0205 -0.4761  0.0212
 1023TIP3   OH224627   6.204   6.474   6.700  0.7322 -0.0433 -0.1087
 1023TIP3    H124628   6.246   6.536   6.640  1.1358 -0.2738 -0.0677
 1023TIP3    H224629   6.243   6.493   6.785 -1.6755  2.0314  0.6417
 1024TIP3   OH224630   1.437   4.915   0.511  0.2007  0.1709 -0.1098
 1024TIP3    H124631   1.395   4.990   0.552 -0.9826 -0.9070  0.7032
 1024TIP3    H224632   1.408   4.918   0.419  1.2766  1.4568 -0.4440
 1025TIP3   OH224633   4.235   3.002   6.608 -0.0868  0.7646 -0.3386
 1025TIP3    H124634   4.184   2.971   6.682  0.3930 -0.2919 -0.4328
 1025TIP3    H224635   4.184   3.074   6.572 -1.9344 -0.7303 -0.8980
 1026TIP3   OH224636   6.296   3.856   8.241  0.3988 -0.0580 -0.2892
 1026TIP3    H124637   6.389   3.874   8.254  0.1506  0.0360  1.6944
 1026TIP3    H224638   6.265   3.930   8.188  1.1050  0.8915  0.5661
 1027TIP3   OH224639   3.073   2.240   0.825 -0.5128 -0.1296  0.5912
 1027TIP3    H124640   3.119   2.323   0.809 -3.9673  2.2881  2.1337
 1027TIP3    H224641   3.030   2.220   0.742 -0.5989  0.2373  0.5469
 1028TIP3   OH224642   6.311   0.576   8.632  0.0034 -0.4004  0.1156
 1028TIP3    H124643   6.317   0.530   8.548  0.0605 -1.9147  0.9118
 1028TIP3    H224644   6.335   0.510   8.697  1.0207  1.0270  1.2617
 1029TIP3   OH224645   4.123   2.730   0.603 -0.1106 -0.1865 -0.1568
 1029TIP3    H124646   4.144   2.820   0.628  1.5275 -0.7900  0.7867
 1029TIP3    H224647   4.162   2.676   0.672 -0.3354 -1.6636 -1.1313
 1030TIP3   OH224648   3.909   2.570   7.938 -0.5733  0.7676 -0.0425
 1030TIP3    H124649   3.982   2.521   7.899 -1.5934  0.3647 -1.5544
 1030TIP3    H224650   3.941   2.597   8.024  1.2667  0.4203 -0.5770
 1031TIP3   OH224651   5.731   6.375   0.569 -0.2706 -0.2268 -0.4206
 1031TIP3    H124652   5.802   6.332   0.617  0.7185  0.8960 -0.8132
 1031TIP3    H224653   5.661   6.384   0.633  0.3364 -0.4005  0.2880
 1032TIP3   OH224654   0.665   0.247   1.513  0.4221 -0.4437 -0.6585
 1032TIP3    H124655   0.696   0.192   1.441 -2.9445 -0.1425 -2.5635
 1032TIP3    H224656   0.640   0.330   1.470  1.7368  1.1763  1.5110
 1033TIP3   OH224657   1.650   5.765   8.469 -0.5004 -0.3187 -0.6020
 1033TIP3    H124658   1.718   5.830   8.490  0.6910 -1.9564  0.8265
 1033TIP3    H224659   1.575   5.791   8.523  0.5502 -1.0555  1.3029
 1034TIP3   OH224660   5.397   2.274   0.999 -0.4733 -0.4296  0.7080
 1034TIP3    H124661   5.411   2.279   1.094 -1.1776 -2.3830  0.9643
 1034TIP3    H224662   5.466   2.216   0.967 -0.1596  0.3201 -0.0127
 1035TIP3   OH224663   6.192   5.505   8.534 -0.3644 -0.8209 -0.2534
 1035TIP3    H124664   6.273   5.490   8.485  0.3263  1.7125 -0.0292
 1035TIP3    H224665   6.157   5.587   8.498 -0.9197  0.0322  2.0720
 1036TIP3   OH224666   2.545   4.308   1.525 -0.0874  0.3822 -0.6477
 1036TIP3    H124667   2.565   4.230   1.577  0.4113  2.0224  1.7630
 1036TIP3    H224668   2.473   4.350   1.571 -0.0477  1.6049 -1.6445
 1037TIP3   OH224669   1.820   0.576   1.696  0.0889  0.1345 -0.7194
 1037TIP3    H124670   1.911   0.546   1.697  0.1196  0.1955 -1.2280
 1037TIP3    H224671   1.789   0.557   1.607 -0.0580  1.1162 -0.8940
 1038TIP3   OH224672   5.695   3.282   8.163  0.1716  0.0163 -0.1501
 1038TIP3    H124673   5.675   3.214   8.228  0.9952  0.3790  0.5094
 1038TIP3    H224674   5.647   3.359   8.194  0.0708  0.0241 -0.3230
 1039TIP3   OH224675   6.626   3.242   7.787 -0.0731  0.3813  0.1519
 1039TIP3    H124676   6.536   3.218   7.808  0.2291 -1.4604 -0.4989
 1039TIP3    H224677   6.679   3.171   7.822  1.0346  0.8687 -0.4734
 1040TIP3   OH224678   0.393   6.664   0.598 -0.3296 -0.0100  0.0976
 1040TIP3    H124679   0.453   6.730   0.632 -1.7874  1.3322  0.1982
 1040TIP3    H224680   0.307   6.706   0.600 -1.1748 -1.5778 -0.7788
 1041TIP3   OH224681   2.098   0.992   1.210 -0.2007  0.3466 -0.1769
 1041TIP3    H124682   2.101   1.086   1.223  0.6759  0.3362 -0.2505
 1041TIP3    H224683   2.156   0.956   1.277 -0.2917 -0.1205 -0.3386
 1042TIP3   OH224684   3.468   0.517   1.083 -0.3640  0.0311  0.1218
 1042TIP3    H124685   3.405   0.472   1.139 -1.0785 -0.7963 -1.2813
 1042TIP3    H224686   3.417   0.587   1.041  0.4036  1.3060  1.2168
 1043TIP3   OH224687   2.412   2.427   8.238 -0.0837 -0.1045 -0.1263
 1043TIP3    H124688   2.424   2.366   8.311  0.3568 -2.3609 -1.9362
 1043TIP3    H224689   2.500   2.436   8.200 -0.5381 -0.1425 -1.2175
 1044TIP3   OH224690   3.200   6.061   8.624  0.5328 -0.6897 -0.2148
 1044TIP3    H124691   3.190   6.142   8.573  0.4794 -0.3785  0.2869
 1044TIP3    H224692   3.119   6.053   8.673  1.4348  0.1971  1.5060
 1045TIP3   OH224693   3.087   4.208   1.433 -0.0327  0.4421 -1.2339
 1045TIP3    H124694   3.108   4.119   1.406 -0.4162  0.1672 -0.6292
 1045TIP3    H224695   3.012   4.232   1.378  1.2758  1.1378 -2.8244
 1046TIP3   OH224696   1.560   0.708   7.487 -0.1292  0.1263 -0.8953
 1046TIP3    H124697   1.499   0.755   7.545  0.4874  0.3682 -0.4345
 1046TIP3    H224698   1.517   0.623   7.472  1.7614 -2.0737  3.9382
 1047TIP3   OH224699   5.244   0.577   1.881  0.2399 -0.0030 -0.5033
 1047TIP3    H124700   5.310   0.544   1.820  0.9588 -0.0945  0.3044
 1047TIP3    H224701   5.252   0.521   1.958 -1.7308 -0.8888 -0.8827
 1048TIP3   OH224702   3.524   4.460   7.173 -0.0186 -0.6091  0.3293
 1048TIP3    H124703   3.527   4.383   7.117 -1.3462 -0.5047  0.0808
 1048TIP3    H224704   3.608   4.460   7.219  1.3301 -0.4439 -1.9702
 1049TIP3   OH224705   4.984   6.156   2.205 -0.2949 -0.9294 -0.0030
 1049TIP3    H124706   5.058   6.105   2.237 -0.3154 -1.6989 -1.1589
 1049TIP3    H224707   4.917   6.092   2.184 -0.3871 -0.4320 -1.3105
 1050TIP3   OH224708   5.007   0.767   7.490  0.0312 -0.4804 -0.7126
 1050TIP3    H124709   4.991   0.859   7.469  1.2630  0.1803  0.9740
 1050TIP3    H224710   4.993   0.762   7.585 -0.6989 -2.2119 -0.8732
 1051TIP3   OH224711   3.859   1.487   8.873 -0.6118  0.0672  0.3099
 1051TIP3    H124712   3.949   1.521   8.871 -0.4089 -0.3703  1.2609
 1051TIP3    H224713   3.811   1.541   8.810  0.6559 -0.6831 -1.3869
 1052TIP3   OH224714   4.009   3.319   7.753 -0.0070  0.0642  0.7550
 1052TIP3    H124715   4.089   3.368   7.732  0.0761 -0.3554  0.0818
 1052TIP3    H224716   3.938   3.373   7.719 -0.0198  0.4285  1.3365
 1053TIP3   OH224717   1.541   1.503   6.222 -0.0794 -0.4415 -0.4047
 1053TIP3    H124718   1.634   1.513   6.201 -0.0895 -0.7104 -0.5780
 1053TIP3    H224719   1.496   1.558   6.158 -0.0157  0.0391 -0.0405
 1054TIP3   OH224720   6.650   2.722   7.697  0.0184  0.1297 -0.5913
 1054TIP3    H124721   6.670   2.689   7.609  0.5302 -0.8013 -0.1478
 1054TIP3    H224722   6.555   2.731   7.698 -0.0185 -0.1351 -1.1517
 1055TIP3   OH224723   1.306   1.814   8.566  0.3001  0.2314 -0.7574
 1055TIP3    H124724   1.251   1.891   8.554 -0.0066  0.0676 -0.4118
 1055TIP3    H224725   1.246   1.747   8.599  0.8908  0.3135  0.5177
 1056TIP3   OH224726   6.061   1.789   0.147  0.3901 -0.2851 -0.3111
 1056TIP3    H124727   6.099   1.773   0.234  0.4782 -0.4242 -0.3753
 1056TIP3    H224728   6.074   1.883   0.133 -0.7384 -0.0006  0.3574
 1057TIP3   OH224729   5.813   6.676   7.046  0.1563  0.2523 -0.7709
 1057TIP3    H124730   5.899   6.639   7.029  1.0626  1.8253  0.1709
 1057TIP3    H224731   5.787   6.639   7.130  1.2556  1.9482  0.3871
 1058TIP3   OH224732   6.313   0.683   0.257 -0.7351 -0.0073 -0.2456
 1058TIP3    H124733   6.336   0.688   0.350  2.2820 -0.5542 -0.8647
 1058TIP3    H224734   6.245   0.750   0.246  1.6717  3.0011  1.5806
 1059TIP3   OH224735   0.670   1.183   8.613 -0.2394  0.0582  0.5602
 1059TIP3    H124736   0.591   1.129   8.618  0.3064 -0.7421  0.8762
 1059TIP3    H224737   0.725   1.138   8.549 -0.7685  1.6225 -1.0740
 1060TIP3   OH224738   4.523   5.475   0.795  0.0274  0.4156 -0.1790
 1060TIP3    H124739   4.503   5.552   0.742  0.2131  0.0960 -0.7212
 1060TIP3    H224740   4.542   5.406   0.732  0.1425 -0.0060  0.3023
 1061TIP3   OH224741   5.804   5.888   1.025 -0.6282  0.7509 -0.4310
 1061TIP3    H124742   5.812   5.808   0.973 -2.1554  0.8936 -0.9441
 1061TIP3    H224743   5.823   5.959   0.964 -0.4407  0.8289 -0.2816
 1062TIP3   OH224744   0.639   6.237   0.506  0.1133 -0.1159 -0.7914
 1062TIP3    H124745   0.679   6.180   0.440  0.0281 -0.6142 -0.4199
 1062TIP3    H224746   0.565   6.187   0.540  0.2058  0.0964 -0.2626
 1063TIP3   OH224747   0.103   5.100   7.146  0.2966  0.0443 -0.1877
 1063TIP3    H124748   0.150   5.170   7.191 -0.0169 -1.5116  2.8266
 1063TIP3    H224749   0.115   5.119   7.052  2.3298  2.6505  0.4825
 1064TIP3   OH224750   2.946   2.191   7.815 -0.0271 -0.1801 -0.2556
 1064TIP3    H124751   2.902   2.256   7.869  1.6810  0.1990  0.7408
 1064TIP3    H224752   2.966   2.237   7.733  1.2786  0.6387  0.4898
 1065TIP3   OH224753   3.801   0.956   1.384 -0.6004  0.1858 -0.0319
 1065TIP3    H124754   3.760   0.886   1.333 -0.3556  0.7541 -1.0495
 1065TIP3    H224755   3.799   1.032   1.325  1.5633  0.3418  0.0161
 1066TIP3   OH224756   6.651   0.885   0.128  0.3149 -0.2126 -0.6319
 1066TIP3    H124757   6.721   0.950   0.120 -1.4735  1.6804 -2.0226
 1066TIP3    H224758   6.622   0.891   0.220  0.3910  0.7575 -0.6631
 1067TIP3   OH224759   0.872   4.955   1.604  0.2588 -0.2234 -0.4404
 1067TIP3    H124760   0.845   4.950   1.696  1.9594  0.5388  0.1254
 1067TIP3    H224761   0.817   5.024   1.567  0.7075  0.6305  0.4369
 1068TIP3   OH224762   4.722   3.552   1.087 -0.3393 -0.3924  0.4198
 1068TIP3    H124763   4.648   3.595   1.130  1.1067  2.2264  0.4872
 1068TIP3    H224764   4.790   3.548   1.154  0.2135 -1.0579 -0.1646
 1069TIP3   OH224765   5.074   1.556   1.440 -0.7072  0.4827  0.0256
 1069TIP3    H124766   5.096   1.628   1.499  2.3091  0.9864 -1.4985
 1069TIP3    H224767   5.056   1.598   1.356 -0.6355 -0.4421 -0.4635
 1070TIP3   OH224768   4.181   3.983   0.034 -0.7402  0.1489 -0.3379
 1070TIP3    H124769   4.216   4.035   0.106  0.2276 -1.2721  0.2629
 1070TIP3    H224770   4.207   3.893   0.054 -2.5031 -0.6163 -1.2457
 1071TIP3   OH224771   3.605   1.163   7.924  0.1251 -0.2837  0.6089
 1071TIP3    H124772   3.556   1.151   8.005  0.7198  1.0745  1.2029
 1071TIP3    H224773   3.634   1.075   7.900 -1.2447 -0.8910  1.0967
 1072TIP3   OH224774   2.464   3.013   1.955  0.0359  0.1043 -0.4744
 1072TIP3    H124775   2.442   2.933   2.003 -1.6100 -0.4669 -2.0552
 1072TIP3    H224776   2.546   3.042   1.994  0.1611 -1.7865  0.8371
 1073TIP3   OH224777   3.520   3.595   7.914  0.0095  0.5243 -0.2001
 1073TIP3    H124778   3.574   3.671   7.935  0.6180 -0.1895  0.9282
 1073TIP3    H224779   3.532   3.583   7.820  2.1337  0.1859  0.0581
 1074TIP3   OH224780   4.965   5.318   2.061 -0.1953 -0.2109  0.2142
 1074TIP3    H124781   5.013   5.312   2.144  1.0847  0.6662 -0.4301
 1074TIP3    H224782   5.028   5.290   1.995 -1.2078 -0.9053 -0.4814
 1075TIP3   OH224783   5.766   5.650   0.860  0.1768  0.3674  0.5374
 1075TIP3    H124784   5.746   5.606   0.777  0.3712 -0.8156  1.0918
 1075TIP3    H224785   5.857   5.627   0.878  0.0296  0.3204  1.2549
 1076TIP3   OH224786   5.099   3.561   8.307  0.1982  0.3243 -0.1575
 1076TIP3    H124787   5.048   3.548   8.227 -1.5862  0.4627  0.9223
 1076TIP3    H224788   5.075   3.488   8.364  1.1726  0.4273  0.4151
 1077TIP3   OH224789   2.090   5.010   1.002  0.4636  0.2592  0.0859
 1077TIP3    H124790   2.148   5.008   1.078  1.2558 -1.6875 -0.5337
 1077TIP3    H224791   2.133   5.070   0.941  1.2710 -0.3090  0.0793
 1078TIP3   OH224792   2.830   3.728   0.877  0.9467  0.5027 -0.1295
 1078TIP3    H124793   2.765   3.675   0.924  1.3769  0.1223  0.0443
 1078TIP3    H224794   2.779   3.776   0.811  0.3466  0.9439  0.6290
 1079TIP3   OH224795   3.495   3.647   0.340  0.2552 -0.3830  0.3969
 1079TIP3    H124796   3.488   3.705   0.416 -0.1372  0.3594 -0.1884
 1079TIP3    H224797   3.525   3.703   0.270 -1.0413 -0.6637 -0.4240
 1080TIP3   OH224798   3.074   5.971   0.970  0.0460 -0.2654 -0.3569
 1080TIP3    H124799   3.043   5.979   1.060  0.4157 -0.6254 -0.1954
 1080TIP3    H224800   2.998   5.942   0.921 -0.0852 -0.3393 -0.1110
 1081TIP3   OH224801   6.307   3.052   1.649  0.1106 -0.0053 -0.1407
 1081TIP3    H124802   6.361   2.976   1.628  0.0550  0.2713 -1.3861
 1081TIP3    H224803   6.233   3.046   1.589  0.2418  1.1725 -0.4568
 1082TIP3   OH224804   4.760   1.537   7.221 -0.6004  0.1817  0.9634
 1082TIP3    H124805   4.779   1.518   7.130  0.8941  1.0054  1.0676
 1082TIP3    H224806   4.833   1.500   7.269 -0.6194  1.0343  1.6830
 1083TIP3   OH224807   2.286   1.135   6.520 -0.5830 -0.5887  0.0082
 1083TIP3    H124808   2.267   1.145   6.426  1.6987 -1.3395 -0.5997
 1083TIP3    H224809   2.213   1.177   6.564 -0.9762  1.1409 -2.1372
 1084TIP3   OH224810   6.745   2.594   7.469  0.1165  0.8363  0.4268
 1084TIP3    H124811   6.660   2.580   7.429  0.8387  0.9556 -1.2508
 1084TIP3    H224812   6.786   2.507   7.470  0.7919  1.1049 -0.8413
 1085TIP3   OH224813   4.085   6.315   1.403 -0.2160  0.1570  1.4124
 1085TIP3    H124814   4.066   6.325   1.309  0.2053  3.8355  1.5711
 1085TIP3    H224815   4.175   6.283   1.406  0.5597  2.1199  0.4783
 1086TIP3   OH224816   5.301   6.461   1.125 -0.5113 -0.0906  0.3194
 1086TIP3    H124817   5.387   6.462   1.084 -0.6847 -0.7154 -0.0629
 1086TIP3    H224818   5.304   6.533   1.189 -0.5571  1.5220 -1.4072
 1087TIP3   OH224819   4.847   4.507   8.567 -0.4290  0.3478  0.2382
 1087TIP3    H124820   4.925   4.499   8.512  0.5702  1.1970  1.4521
 1087TIP3    H224821   4.774   4.486   8.509  0.4987  1.9005 -1.6262
 1088TIP3   OH224822   0.789   0.066   7.380 -0.0494 -0.2195 -0.1367
 1088TIP3    H124823   0.711   0.083   7.327  0.4656  2.0048 -0.2851
 1088TIP3    H224824   0.756   0.018   7.456 -1.4014 -0.2356 -0.7044
 1089TIP3   OH224825   4.156   4.666   7.719  0.1635 -0.5407 -0.0957
 1089TIP3    H124826   4.069   4.690   7.685  0.5628 -1.4671 -1.9243
 1089TIP3    H224827   4.214   4.677   7.643  1.8056  0.7553  1.2687
 1090TIP3   OH224828   4.871   2.542   8.612 -0.5298 -0.3545  0.5191
 1090TIP3    H124829   4.957   2.582   8.624 -0.8911  0.6639 -0.1696
 1090TIP3    H224830   4.880   2.491   8.531 -0.9620  0.9150 -0.3585
 1091TIP3   OH224831   2.927   3.051   7.153  0.7625  0.1272  0.3037
 1091TIP3    H124832   2.833   3.039   7.138  0.6718  1.8355 -0.7442
 1091TIP3    H224833   2.967   3.031   7.068  1.2630  0.1509  0.5338
 1092TIP3   OH224834   3.815   2.594   1.288 -0.3863 -0.4628 -0.0740
 1092TIP3    H124835   3.791   2.592   1.380 -0.4950  1.5986 -0.0069
 1092TIP3    H224836   3.878   2.666   1.281  0.4850 -1.2988 -1.4287
 1093TIP3   OH224837   3.008   2.963   1.789 -0.1378 -0.3565 -0.2141
 1093TIP3    H124838   2.947   2.994   1.856  0.9283  1.4977 -0.0456
 1093TIP3    H224839   3.071   2.908   1.837  1.0611  1.5601  0.5230
 1094TIP3   OH224840   0.165   5.253   1.756  0.0189 -0.1590 -0.1518
 1094TIP3    H124841   0.122   5.338   1.769 -1.2773 -0.6888 -0.9076
 1094TIP3    H224842   0.259   5.274   1.762 -0.1609  1.6898 -2.2359
 1095TIP3   OH224843   3.058   5.833   2.388  0.1464 -0.2660  0.0084
 1095TIP3    H124844   3.092   5.753   2.428  1.6670 -0.1354 -0.9150
 1095TIP3    H224845   3.031   5.888   2.461  0.3214 -1.0987  0.7106
 1096TIP3   OH224846   1.268   5.660   0.569  0.4153  0.1661  0.0822
 1096TIP3    H124847   1.301   5.578   0.604  0.5524  0.8243  1.5673
 1096TIP3    H224848   1.337   5.724   0.588  0.3179  0.6383 -1.0538
 1097TIP3   OH224849   5.815   3.669   7.814  0.1572 -0.5761  0.2223
 1097TIP3    H124850   5.824   3.578   7.785 -0.4155 -0.2694 -1.0051
 1097TIP3    H224851   5.866   3.674   7.894  0.4829 -1.8968  0.1205
 1098TIP3   OH224852   3.873   3.447   6.527 -0.2316  0.1014 -0.1509
 1098TIP3    H124853   3.811   3.437   6.600 -1.4122  1.5277 -0.9038
 1098TIP3    H224854   3.908   3.536   6.539  1.3312 -0.5156 -0.0170
 1099TIP3   OH224855   1.950   1.266   8.272  0.3381 -0.5502 -0.6059
 1099TIP3    H124856   1.894   1.237   8.200 -0.1448 -1.6700  0.1898
 1099TIP3    H224857   1.889   1.303   8.336  0.8132  0.9368 -0.9708
 1100TIP3   OH224858   1.470   4.062   8.340  0.2470 -0.1714  0.2042
 1100TIP3    H124859   1.513   3.979   8.319  1.9362  0.2288  1.8178
 1100TIP3    H224860   1.434   4.048   8.428 -1.7184 -0.0059 -0.5410
 1101TIP3   OH224861   3.735   5.431   8.326 -0.4025  0.4338  0.0703
 1101TIP3    H124862   3.821   5.447   8.286 -1.4675  1.4548 -1.9755
 1101TIP3    H224863   3.750   5.442   8.420  1.6574  0.7394 -0.2398
 1102TIP3   OH224864   2.125   6.300   0.359  0.2491 -0.3987  0.0032
 1102TIP3    H124865   2.108   6.324   0.268  1.1972  0.1868 -0.0313
 1102TIP3    H224866   2.220   6.311   0.370  0.6372 -3.2142  0.2605
 1103TIP3   OH224867   5.267   6.001   0.599  0.2160  0.2372 -0.4227
 1103TIP3    H124868   5.241   5.989   0.691 -1.1221 -1.1464 -0.9365
 1103TIP3    H224869   5.205   5.947   0.550 -0.3188  2.4085 -2.3058
 1104TIP3   OH224870   3.849   3.427   0.383 -0.3085  0.1762 -0.0362
 1104TIP3    H124871   3.929   3.407   0.433  0.5816 -1.5605 -2.0039
 1104TIP3    H224872   3.872   3.506   0.334 -0.4577  0.6915  0.6974
 1105TIP3   OH224873   1.648   3.277   0.879  0.0715 -0.3876 -0.1386
 1105TIP3    H124874   1.697   3.274   0.961  0.4963 -1.0607 -0.4055
 1105TIP3    H224875   1.714   3.269   0.810 -0.3451 -0.6242 -0.5257
 1106TIP3   OH224876   3.869   6.712   6.963  0.5309 -0.3059  0.0974
 1106TIP3    H124877   3.787   6.667   6.983  1.0299 -0.2993  2.4630
 1106TIP3    H224878   3.933   6.641   6.954  0.7255 -0.2079  0.6999
 1107TIP3   OH224879   4.241   2.573   0.802 -0.8482 -0.2328 -0.1097
 1107TIP3    H124880   4.220   2.480   0.805  0.1781 -0.4646  0.2248
 1107TIP3    H224881   4.320   2.578   0.749 -0.3273  0.3403  0.7081
 1108TIP3   OH224882   5.322   0.218   7.346  0.3311  0.3228  0.0757
 1108TIP3    H124883   5.288   0.300   7.381  0.3506  0.3515  0.0286
 1108TIP3    H224884   5.416   0.232   7.340  0.2434  0.6201 -0.7633
 1109TIP3   OH224885   5.572   5.833   6.508  0.3158 -0.0510 -0.9000
 1109TIP3    H124886   5.643   5.770   6.519 -0.6139 -1.1448 -0.9414
 1109TIP3    H224887   5.501   5.782   6.469 -0.1216  1.2696 -1.8735
 1110TIP3   OH224888   0.741   5.235   2.762 -0.2763  0.1051  0.8268
 1110TIP3    H124889   0.779   5.323   2.770 -1.0824  0.7396 -1.5796
 1110TIP3    H224890   0.647   5.250   2.763 -0.4221 -0.6115 -0.4146
 1111TIP3   OH224891   3.741   0.955   0.875  0.2610  0.0502  0.6221
 1111TIP3    H124892   3.718   1.015   0.805 -0.6845  0.3015  1.1311
 1111TIP3    H224893   3.675   0.885   0.870 -0.2500  0.4390  1.6941
 1112TIP3   OH224894   4.132   0.184   8.385  0.6991 -0.3472 -0.0275
 1112TIP3    H124895   4.045   0.163   8.420  0.5272 -1.9247 -1.3119
 1112TIP3    H224896   4.165   0.101   8.352  1.0544  0.9059 -3.1326
 1113TIP3   OH224897   3.898   4.562   0.176 -0.3366  0.3471 -0.4442
 1113TIP3    H124898   3.896   4.499   0.104 -0.3362 -0.5382  0.3097
 1113TIP3    H224899   3.956   4.631   0.145 -0.9796  0.3941 -1.6153
 1114TIP3   OH224900   4.933   3.824   0.076  0.3642  0.2238  0.2409
 1114TIP3    H124901   4.864   3.760   0.059  0.0390  0.5793  0.1946
 1114TIP3    H224902   5.010   3.790   0.031  0.2994 -0.3259  0.5441
 1115TIP3   OH224903   0.490   6.043   7.136  0.2905  0.4435 -0.5205
 1115TIP3    H124904   0.497   5.952   7.110  0.0253  0.5798 -1.0708
 1115TIP3    H224905   0.472   6.040   7.230 -0.9669 -0.1017 -0.7704
 1116TIP3   OH224906   2.709   1.303   7.364 -0.6126 -0.1290  0.5202
 1116TIP3    H124907   2.716   1.208   7.361 -0.3614 -0.1267  0.9505
 1116TIP3    H224908   2.799   1.334   7.372 -0.5691  0.2097 -0.9739
 1117TIP3   OH224909   2.937   3.562   1.074  0.0376 -0.7967  0.4839
 1117TIP3    H124910   2.869   3.613   1.031  1.4279  0.8870  0.1928
 1117TIP3    H224911   2.955   3.491   1.013 -1.4335 -1.2918  0.5716
 1118TIP3   OH224912   4.206   5.381   1.327 -0.1108 -0.5570 -0.2989
 1118TIP3    H124913   4.242   5.467   1.306  1.3394 -1.5139 -2.0645
 1118TIP3    H224914   4.132   5.399   1.385  1.0150  1.7588  0.5408
 1119TIP3   OH224915   1.725   2.959   0.379 -0.0798 -0.3311 -0.2945
 1119TIP3    H124916   1.778   2.968   0.300  0.3287  0.8955  0.0981
 1119TIP3    H224917   1.643   3.002   0.358  0.1224  0.2181  0.0215
 1120TIP3   OH224918   4.153   5.519   6.648  1.3563  0.3877  0.1999
 1120TIP3    H124919   4.067   5.487   6.621  2.5572 -1.2692 -1.9514
 1120TIP3    H224920   4.144   5.614   6.648 -0.4128  0.2496 -0.2766
 1121TIP3   OH224921   0.442   1.649   1.172 -0.0680  0.0870  0.5735
 1121TIP3    H124922   0.463   1.569   1.220 -0.9930 -0.2642  0.4194
 1121TIP3    H224923   0.459   1.720   1.235  2.2825 -0.0844  0.2080
 1122TIP3   OH224924   4.617   5.834   8.241  0.0995 -0.1733  0.2536
 1122TIP3    H124925   4.572   5.841   8.326 -0.4291 -4.8538  0.5841
 1122TIP3    H224926   4.703   5.799   8.262  0.6338  0.3055 -1.0523
 1123TIP3   OH224927   2.803   2.922   8.390 -0.3131 -0.0832  0.2260
 1123TIP3    H124928   2.844   2.838   8.408  0.1015 -0.2134 -1.1921
 1123TIP3    H224929   2.770   2.914   8.301 -3.2349  0.1130  1.1684
 1124TIP3   OH224930   3.438   6.449   1.215 -0.7968 -0.0317  1.1552
 1124TIP3    H124931   3.385   6.442   1.294  0.2863  1.5348  2.0862
 1124TIP3    H224932   3.506   6.382   1.225 -0.0330  0.8449  2.1202
 1125TIP3   OH224933   6.609   4.151   7.477 -0.3814  0.0126 -0.0993
 1125TIP3    H124934   6.684   4.203   7.451 -0.6001 -0.9794 -3.0248
 1125TIP3    H224935   6.646   4.075   7.522  0.3309 -0.1615 -0.9738
 1126TIP3   OH224936   0.441   5.184   7.487  0.3433 -0.2531  0.0011
 1126TIP3    H124937   0.448   5.251   7.555 -1.2523 -1.3154  1.2926
 1126TIP3    H224938   0.525   5.137   7.491  0.5244  0.1198  0.7830
 1127TIP3   OH224939   6.063   4.470   8.564 -0.3644  0.0340  0.4665
 1127TIP3    H124940   6.027   4.488   8.650 -0.1500  0.4182  0.4784
 1127TIP3    H224941   6.136   4.410   8.581 -0.4769 -0.0863  0.5259
 1128TIP3   OH224942   2.228   5.788   7.187 -0.2615  0.4082 -0.0522
 1128TIP3    H124943   2.170   5.713   7.195 -0.5388  0.4993 -1.0276
 1128TIP3    H224944   2.186   5.857   7.238  1.0079 -0.6291  2.5596
 1129TIP3   OH224945   6.451   6.147   8.519  0.5539  0.2480 -0.6600
 1129TIP3    H124946   6.457   6.174   8.427  0.5095 -0.5980 -0.9231
 1129TIP3    H224947   6.464   6.228   8.569 -1.9579  1.2148 -1.4182
 1130TIP3   OH224948   5.835   1.219   1.492 -0.5589 -0.3252  0.4567
 1130TIP3    H124949   5.752   1.258   1.520 -1.2811 -1.0888 -0.5141
 1130TIP3    H224950   5.902   1.270   1.535 -1.4927  1.5302 -0.1866
 1131TIP3   OH224951   1.637   4.074   0.903  0.6620 -0.2006 -0.6337
 1131TIP3    H124952   1.587   4.002   0.941  1.5506 -0.8781 -0.7249
 1131TIP3    H224953   1.671   4.039   0.821  0.0883  0.7334 -1.2979
 1132TIP3   OH224954   3.304   0.106   1.851 -0.1746  0.2716  0.1732
 1132TIP3    H124955   3.265   0.035   1.799 -1.8878  1.7722 -0.6772
 1132TIP3    H224956   3.323   0.066   1.936 -0.9999 -1.2293 -0.3152
 1133TIP3   OH224957   2.958   6.103   6.591 -0.3882  0.4578 -0.1202
 1133TIP3    H124958   3.038   6.051   6.594  0.0113  1.0883  0.4217
 1133TIP3    H224959   2.923   6.099   6.680  0.6486  2.6139  0.4507
 1134TIP3   OH224960   3.657   0.715   1.111  1.1139 -0.4641 -0.5760
 1134TIP3    H124961   3.744   0.678   1.102  1.2482 -0.0609 -1.0007
 1134TIP3    H224962   3.598   0.640   1.114  1.5849 -0.8170  1.3839
 1135TIP3   OH224963   1.281   0.004   2.053 -0.2607  0.6658 -0.4040
 1135TIP3    H124964   1.373  -0.021   2.059 -0.6175 -0.6323 -0.1176
 1135TIP3    H224965   1.261   0.001   1.959  0.4602  2.8252 -0.6784
 1136TIP3   OH224966   3.783   0.452   8.520 -0.1372  0.3652 -0.0831
 1136TIP3    H124967   3.859   0.473   8.575  0.1216 -0.0483 -0.2853
 1136TIP3    H224968   3.774   0.357   8.527 -1.8809  0.5929  1.5874
 1137TIP3   OH224969   5.152   2.144   0.773 -0.0650 -0.1255 -0.4691
 1137TIP3    H124970   5.069   2.185   0.797 -1.1808 -1.0725 -2.4004
 1137TIP3    H224971   5.214   2.217   0.765 -1.2873  0.8805 -1.1590
 1138TIP3   OH224972   2.495   5.117   8.536 -0.2738  0.0950  0.4092
 1138TIP3    H124973   2.512   5.093   8.445 -2.8604  0.8634 -0.3648
 1138TIP3    H224974   2.554   5.062   8.587 -0.3555 -2.0377 -1.6277
 1139TIP3   OH224975   0.511   2.886   2.578 -0.2035  0.1965 -0.1880
 1139TIP3    H124976   0.592   2.909   2.624 -1.0115 -0.1636  1.4852
 1139TIP3    H224977   0.499   2.957   2.515  0.2420  1.4972  1.1123
 1140TIP3   OH224978   0.402   4.413   1.788  0.4456  0.1291 -0.2229
 1140TIP3    H124979   0.443   4.342   1.838  1.5470 -0.4826 -1.8882
 1140TIP3    H224980   0.472   4.444   1.729  0.0911  2.7975  0.6108
 1141TIP3   OH224981   3.152   6.371   1.289  0.0927 -0.1283  0.6366
 1141TIP3    H124982   3.098   6.430   1.237  0.6969 -0.8496 -0.8592
 1141TIP3    H224983   3.103   6.359   1.370 -0.3703  1.8494  0.6896
 1142TIP3   OH224984   4.573   1.162   6.966  0.3808  0.4550 -0.4089
 1142TIP3    H124985   4.538   1.086   7.013  0.5569 -0.4267 -1.6510
 1142TIP3    H224986   4.495   1.211   6.940  0.2745  0.8624  0.6119
 1143TIP3   OH224987   5.658   5.742   2.116 -0.5953 -0.1716 -0.0258
 1143TIP3    H124988   5.672   5.810   2.182 -1.5814 -0.0728  0.1098
 1143TIP3    H224989   5.714   5.670   2.143 -0.0965  0.3126  0.2472
 1144TIP3   OH224990   0.252   2.357   1.699 -0.3372  0.1661 -0.0807
 1144TIP3    H124991   0.245   2.265   1.725 -2.2666  0.3277  0.0853
 1144TIP3    H224992   0.243   2.406   1.781  0.0703  0.5396 -0.2518
 1145TIP3   OH224993   6.232   4.347   1.312 -0.3593 -0.1864  0.3774
 1145TIP3    H124994   6.193   4.307   1.235 -0.5024  1.0372 -0.2022
 1145TIP3    H224995   6.320   4.373   1.285 -0.6229  0.7990  0.4185
 1146TIP3   OH224996   4.652   4.193   8.242  0.0480 -0.7069 -0.1738
 1146TIP3    H124997   4.652   4.284   8.274 -0.1838 -1.1779  1.2458
 1146TIP3    H224998   4.630   4.141   8.319 -1.5388 -1.8553 -1.3466
 1147TIP3   OH224999   2.866   4.861   0.284  0.1410  0.4397  0.2567
 1147TIP3    H125000   2.786   4.890   0.329 -0.5223  1.3185 -1.3953
 1147TIP3    H225001   2.835   4.826   0.201  1.3397 -1.0373  0.3908
 1148TIP3   OH225002   0.650   2.301   7.575  0.3673 -0.6972  0.2859
 1148TIP3    H125003   0.684   2.349   7.499  0.3757  0.2424  0.8719
 1148TIP3    H225004   0.725   2.251   7.607  0.2948 -1.3076 -0.4759
 1149TIP3   OH225005   5.747   1.818   0.376  0.2597 -0.2150  0.2086
 1149TIP3    H125006   5.828   1.796   0.423  1.7051  0.8362 -1.6615
 1149TIP3    H225007   5.748   1.761   0.299 -0.5079  0.2147 -0.1237
 1150TIP3   OH225008   2.246   0.290   7.344  0.7703  0.5360  0.3604
 1150TIP3    H125009   2.336   0.303   7.315  0.7335  0.0221  0.0194
 1150TIP3    H225010   2.193   0.304   7.266  0.6947 -1.1857  0.0702
 1151TIP3   OH225011   3.986   1.448   8.441  0.3559 -0.9006 -0.4421
 1151TIP3    H125012   3.953   1.381   8.381  0.7873 -0.9777 -0.5907
 1151TIP3    H225013   4.078   1.428   8.453  0.6340  0.0148 -0.9563
 1152TIP3   OH225014   5.233   1.194   8.533  0.2917 -0.1391 -0.1342
 1152TIP3    H125015   5.163   1.148   8.581  1.1128 -1.5306 -0.2171
 1152TIP3    H225016   5.201   1.283   8.524 -1.4225 -0.7081 -0.0393
 1153TIP3   OH225017   5.320   3.099   1.284  0.0775 -0.1171  0.0521
 1153TIP3    H125018   5.273   3.181   1.269 -0.2226 -0.4198 -0.6701
 1153TIP3    H225019   5.294   3.072   1.372  1.1043  1.1740  0.7951
 1154TIP3   OH225020   0.898   2.246   1.693 -0.2121  0.3281  0.1389
 1154TIP3    H125021   0.877   2.170   1.638  0.6321 -0.5275  0.9478
 1154TIP3    H225022   0.863   2.321   1.646 -1.9592 -0.6589 -0.2163
 1155TIP3   OH225023   3.327   0.764   0.978  0.4795 -0.4030 -0.3099
 1155TIP3    H125024   3.241   0.729   0.957  0.4038 -1.6748  1.8632
 1155TIP3    H225025   3.310   0.845   1.024  0.2014 -2.1685  2.9439
 1156TIP3   OH225026   4.163   2.826   8.494 -0.6078  0.0456 -0.6220
 1156TIP3    H125027   4.168   2.875   8.412  1.0147  0.5345 -0.2608
 1156TIP3    H225028   4.176   2.735   8.468 -1.5581  0.0259 -1.0601
 1157TIP3   OH225029   1.449   1.014   2.067 -0.1668 -0.7317 -0.2921
 1157TIP3    H125030   1.526   1.060   2.034 -1.0213 -1.3700 -3.5574
 1157TIP3    H225031   1.392   1.083   2.100  0.9203 -0.0670  0.2542
 1158TIP3   OH225032   0.254   6.500   8.037  0.2095  0.3730 -0.0639
 1158TIP3    H125033   0.193   6.465   8.101  0.3804 -0.3988 -0.3161
 1158TIP3    H225034   0.199   6.540   7.970  0.0342  1.5560  0.7483
 1159TIP3   OH225035   0.750   3.072   7.268 -0.0390  0.0629 -0.4192
 1159TIP3    H125036   0.839   3.060   7.303 -0.1916  1.0077  0.3401
 1159TIP3    H225037   0.706   2.988   7.284  0.7187 -0.4209 -0.8203
 1160TIP3   OH225038   3.084   5.399   6.761 -0.2373 -0.0784  0.2539
 1160TIP3    H125039   3.108   5.384   6.852  0.5730 -1.1719 -0.1092
 1160TIP3    H225040   3.142   5.341   6.711 -1.6881 -0.6623 -0.8569
 1161TIP3   OH225041   4.455   4.335   2.962  0.2843  0.2153  0.1807
 1161TIP3    H125042   4.533   4.383   2.935  0.1436  0.6373  0.5111
 1161TIP3    H225043   4.488   4.250   2.991  0.7641  0.7648  1.3453
 1162TIP3   OH225044   3.189   0.328   8.140 -0.0607  0.3887  0.1231
 1162TIP3    H125045   3.215   0.341   8.231  0.1118 -0.4790  0.2067
 1162TIP3    H225046   3.258   0.371   8.089  1.0180 -1.0017  0.3678
 1163TIP3   OH225047   1.011   6.562   2.688  0.6964 -0.4112  0.2970
 1163TIP3    H125048   1.082   6.515   2.732 -0.4898 -2.1874  0.4159
 1163TIP3    H225049   0.966   6.495   2.637  0.5931  1.1472 -1.8256
 1164TIP3   OH225050   5.019   6.359   8.592  0.5616  0.2534 -0.1662
 1164TIP3    H125051   4.989   6.443   8.557 -0.7950 -0.6124 -1.1568
 1164TIP3    H225052   4.954   6.295   8.562 -0.0633 -0.7659  2.9547
 1165TIP3   OH225053   0.707   5.970   6.713 -0.1230 -0.2408 -0.1540
 1165TIP3    H125054   0.758   6.051   6.720  1.2400 -0.9208 -1.4042
 1165TIP3    H225055   0.750   5.909   6.774  1.8243 -1.3571 -2.4443
 1166TIP3   OH225056   2.017   3.071   8.591  0.1740  0.3150  0.2949
 1166TIP3    H125057   1.971   3.048   8.509  0.9016  0.5572 -0.1875
 1166TIP3    H225058   2.040   3.163   8.581 -1.5188  0.9344  1.6493
 1167TIP3   OH225059   3.153   5.523   0.286 -0.0192 -0.4337  0.3957
 1167TIP3    H125060   3.090   5.450   0.284 -0.5989  0.0612 -0.5211
 1167TIP3    H225061   3.229   5.490   0.238  0.2804 -0.9103  1.1888
 1168TIP3   OH225062   1.305   5.874   7.558  0.2111  0.1912  0.4845
 1168TIP3    H125063   1.264   5.874   7.645 -1.0423 -1.0120 -0.0826
 1168TIP3    H225064   1.314   5.782   7.536  0.3848  0.4866 -0.7282
 1169TIP3   OH225065   1.982   3.858   0.858  0.4160 -0.2074  0.1685
 1169TIP3    H125066   1.961   3.827   0.946  2.2782 -0.5147  0.5448
 1169TIP3    H225067   1.980   3.954   0.865 -0.4759 -0.2227  0.2555
 1170TIP3   OH225068   6.057   4.797   7.182  0.2086 -0.0402 -0.4447
 1170TIP3    H125069   6.088   4.757   7.101 -0.3601 -0.2173 -0.5789
 1170TIP3    H225070   6.092   4.740   7.251  0.8966  0.2479 -0.5472
 1171TIP3   OH225071   4.306   0.068   6.176 -0.1507 -0.0828 -0.3604
 1171TIP3    H125072   4.314  -0.004   6.238 -0.8428  1.5753  1.7731
 1171TIP3    H225073   4.213   0.090   6.177 -0.0241  0.5602 -1.3516
 1172TIP3   OH225074   0.669   3.704   0.621 -0.1209  0.1264 -0.3992
 1172TIP3    H125075   0.701   3.791   0.644 -1.1580  0.5126 -0.3660
 1172TIP3    H225076   0.638   3.668   0.704  0.4511 -0.3529 -0.3838
 1173TIP3   OH225077   1.633   5.188   1.586  0.0517  0.2956 -0.3603
 1173TIP3    H125078   1.666   5.217   1.501 -3.1135 -0.7106 -2.0631
 1173TIP3    H225079   1.567   5.253   1.610 -0.1014 -0.2053  0.6362
 1174TIP3   OH225080   6.110   3.132   2.570  0.2758 -0.6598  0.1454
 1174TIP3    H125081   6.064   3.215   2.577 -0.4065 -0.9290 -0.9369
 1174TIP3    H225082   6.146   3.132   2.481 -0.4115 -1.8492 -0.1504
 1175TIP3   OH225083   0.339   4.967   7.310 -0.3665  0.1330 -0.1593
 1175TIP3    H125084   0.394   4.931   7.241  2.0680 -0.0730  1.7731
 1175TIP3    H225085   0.394   5.032   7.354 -2.5120  1.7073  0.3792
 1176TIP3   OH225086   5.426   2.303   7.991 -0.1526 -0.5539  0.5558
 1176TIP3    H125087   5.430   2.304   8.087 -1.1567  0.2881  0.6011
 1176TIP3    H225088   5.501   2.357   7.964  0.5289 -1.3446  0.8385
 1177TIP3   OH225089   3.691   2.602   0.044 -0.6466  0.9336  0.4016
 1177TIP3    H125090   3.602   2.569   0.033 -0.4836  1.0311 -1.4588
 1177TIP3    H225091   3.739   2.529   0.083 -1.2950  0.5164  0.4330
 1178TIP3   OH225092   6.205   3.829   8.664 -0.3516  0.1295 -0.5497
 1178TIP3    H125093   6.133   3.856   8.607 -1.1148  0.9845  0.7523
 1178TIP3    H225094   6.201   3.889   8.738 -1.9786 -3.2674  2.4436
 1179TIP3   OH225095   1.303   2.506   8.285  0.3759 -0.3523  0.2093
 1179TIP3    H125096   1.355   2.426   8.279 -0.7315 -1.1540  0.9104
 1179TIP3    H225097   1.349   2.560   8.350  1.0734 -0.4460 -0.1954
 1180TIP3   OH225098   5.278   5.616   7.310  0.1096 -0.3431 -0.0534
 1180TIP3    H125099   5.301   5.631   7.218  1.5857 -1.7344  0.0409
 1180TIP3    H225100   5.362   5.607   7.354 -0.5935 -1.4572  1.1217
 1181TIP3   OH225101   0.450   2.141   1.104 -0.4725 -0.0416  0.2267
 1181TIP3    H125102   0.413   2.075   1.162  2.1326  0.0677  2.1991
 1181TIP3    H225103   0.433   2.224   1.148  2.1965 -0.0136  1.3949
 1182TIP3   OH225104   3.395   2.687   0.703 -0.3839  0.0840 -0.1986
 1182TIP3    H125105   3.483   2.718   0.726  0.4228 -1.8876 -0.4606
 1182TIP3    H225106   3.337   2.729   0.768  1.0898 -0.6839  1.7139
 1183TIP3   OH225107   2.250   2.957   8.777  0.8883  0.5544  0.4589
 1183TIP3    H125108   2.160   2.988   8.784 -0.0382 -1.2801 -1.9132
 1183TIP3    H225109   2.299   3.033   8.744 -0.5566  0.6370 -1.6771
 1184TIP3   OH225110   3.326   2.179   0.162  0.2741 -0.1269  0.1416
 1184TIP3    H125111   3.238   2.147   0.180  0.2250  0.1337  0.3720
 1184TIP3    H225112   3.345   2.239   0.233  1.3511 -1.5491  1.1290
 1185TIP3   OH225113   6.129   0.415   6.327  0.4746 -0.1525 -0.1446
 1185TIP3    H125114   6.119   0.334   6.376  0.4570 -0.5430 -0.7787
 1185TIP3    H225115   6.056   0.470   6.355 -0.5773 -1.0415 -1.0148
 1186TIP3   OH225116   0.537   3.537   0.384 -0.5487 -0.1754  0.0572
 1186TIP3    H125117   0.610   3.587   0.347 -0.4941 -0.8832 -0.8432
 1186TIP3    H225118   0.546   3.547   0.479  1.9194 -1.8642  0.0897
 1187TIP3   OH225119   5.867   6.041   8.874 -0.0739  0.3991 -0.4185
 1187TIP3    H125120   5.917   5.962   8.852  0.5139  0.3208  1.0581
 1187TIP3    H225121   5.851   6.033   8.968 -0.6902  1.6701 -0.3950
 1188TIP3   OH225122   2.456   3.607   7.586  0.4980  0.4054  0.0082
 1188TIP3    H125123   2.528   3.631   7.527  1.2368 -2.3800 -0.3444
 1188TIP3    H225124   2.411   3.536   7.540 -0.6865  0.1216  1.5489
 1189TIP3   OH225125   1.416   5.597   7.568  0.3569  0.0079  0.0091
 1189TIP3    H125126   1.462   5.556   7.495 -0.6882  0.8685 -1.1845
 1189TIP3    H225127   1.462   5.567   7.646  1.1333 -1.4249 -0.9610
 1190TIP3   OH225128   3.769   6.386   6.916  0.9713 -0.0325 -0.5640
 1190TIP3    H125129   3.819   6.320   6.965  0.2760  1.2264  2.0059
 1190TIP3    H225130   3.682   6.385   6.957  0.0842  0.5386 -2.3668
 1191TIP3   OH225131   4.334   1.746   7.743 -0.5495 -0.0580 -0.2926
 1191TIP3    H125132   4.343   1.714   7.654  1.1749 -1.3827  0.3003
 1191TIP3    H225133   4.287   1.675   7.789  1.6350 -1.0258  0.5980
 1192TIP3   OH225134   3.841   4.827   1.414 -0.6657 -0.5341  0.1348
 1192TIP3    H125135   3.923   4.876   1.420 -0.8778 -0.1021 -0.4504
 1192TIP3    H225136   3.834   4.782   1.498 -0.2941  0.1656  0.5461
 1193TIP3   OH225137   2.820   5.282   7.618 -0.1459 -0.5423  1.2687
 1193TIP3    H125138   2.815   5.245   7.530  0.2784 -0.6253  1.2796
 1193TIP3    H225139   2.902   5.330   7.620 -0.1387 -0.5676  1.6297
 1194TIP3   OH225140   5.517   5.646   2.541  0.0033  0.1560 -0.0597
 1194TIP3    H125141   5.482   5.561   2.568  0.3747  0.1794  0.5222
 1194TIP3    H225142   5.441   5.704   2.540 -0.3874 -0.3500 -1.2165
 1195TIP3   OH225143   3.010   1.191   8.517  0.0593  0.4443  0.2440
 1195TIP3    H125144   2.943   1.150   8.463  0.4333 -1.3871  1.1057
 1195TIP3    H225145   2.961   1.246   8.578 -0.4948  0.7539 -0.4598
 1196TIP3   OH225146   6.665   0.475   8.358 -0.2799 -0.4833  0.4822
 1196TIP3    H125147   6.758   0.467   8.336  0.6242 -1.9572  4.0816
 1196TIP3    H225148   6.643   0.566   8.338  2.7794  0.7269  1.9933
 1197TIP3   OH225149   1.153   0.920   1.562  0.6906 -0.1509  0.3496
 1197TIP3    H125150   1.226   0.860   1.579  0.2432 -1.6933 -2.4783
 1197TIP3    H225151   1.166   0.948   1.472 -1.3185  0.8584  0.3231
 1198TIP3   OH225152   1.592   6.738   7.142 -0.0295 -0.3146  0.3732
 1198TIP3    H125153   1.588   6.762   7.050 -1.4875 -0.8257  0.2733
 1198TIP3    H225154   1.511   6.690   7.158 -1.7786  3.0024  2.8152
 1199TIP3   OH225155   6.238   6.164   7.738 -0.7367 -0.9343  0.3055
 1199TIP3    H125156   6.259   6.173   7.645  1.1793 -1.8037  0.6079
 1199TIP3    H225157   6.271   6.244   7.778  0.8958 -1.7242  0.5927
 1200TIP3   OH225158   2.768   4.076   8.655 -0.1696  0.6130 -0.0156
 1200TIP3    H125159   2.809   4.079   8.569  1.1142  0.1049  0.5534
 1200TIP3    H225160   2.810   4.002   8.699 -2.1745 -0.3590  0.3865
 1201TIP3   OH225161   0.204   6.162   2.025  0.2700 -0.1117 -0.1054
 1201TIP3    H125162   0.111   6.162   2.048  0.5501  1.8275  1.3617
 1201TIP3    H225163   0.206   6.193   1.935 -0.5717 -1.9011 -0.7725
 1202TIP3   OH225164   4.807   4.490   1.252 -0.1582  0.2899  0.0382
 1202TIP3    H125165   4.796   4.394   1.253  0.5127  0.1948  1.6871
 1202TIP3    H225166   4.761   4.518   1.173 -1.8438 -1.2293  0.3953
 1203TIP3   OH225167   2.640   2.888   7.267 -0.2124 -0.1345  0.9275
 1203TIP3    H125168   2.550   2.883   7.300 -0.1813  1.5443  1.3753
 1203TIP3    H225169   2.639   2.961   7.205  0.4594 -1.2476 -0.4194
 1204TIP3   OH225170   2.673   4.335   1.815  0.0843  0.0242 -0.3385
 1204TIP3    H125171   2.660   4.281   1.738  1.1224  0.9636 -1.2091
 1204TIP3    H225172   2.686   4.273   1.887 -0.0696 -0.8552 -1.0546
 1205TIP3   OH225173   1.579   1.056   1.688 -0.1702 -0.3669 -0.2874
 1205TIP3    H125174   1.575   0.972   1.734  0.8846  0.9279  2.3355
 1205TIP3    H225175   1.492   1.094   1.702 -0.2020 -0.4310 -0.3076
 1206TIP3   OH225176   2.181   1.198   6.272 -0.3042  0.0804  0.9069
 1206TIP3    H125177   2.151   1.283   6.305 -1.1967 -0.3823  1.3083
 1206TIP3    H225178   2.104   1.160   6.229  0.5028  0.1272 -0.6433
 1207TIP3   OH225179   2.613   6.540   7.927  0.1296  0.1097 -0.1677
 1207TIP3    H125180   2.618   6.453   7.889  0.4865  0.1220 -0.1519
 1207TIP3    H225181   2.586   6.525   8.018  0.2598  0.0123 -0.1461
 1208TIP3   OH225182   4.328   0.189   1.084 -0.2282 -0.1269 -0.0449
 1208TIP3    H125183   4.296   0.133   1.155  0.5347  0.2403  0.6113
 1208TIP3    H225184   4.251   0.211   1.033 -0.5479 -1.8265 -0.3600
 1209TIP3   OH225185   6.179   5.096   0.626  0.6635  0.4452  0.0802
 1209TIP3    H125186   6.186   5.001   0.618  2.0857  0.5548 -0.3805
 1209TIP3    H225187   6.207   5.129   0.540 -1.1059  1.2544 -0.2198
 1210TIP3   OH225188   1.384   5.873   2.310  0.1334 -0.2776  0.4207
 1210TIP3    H125189   1.337   5.790   2.315  0.3089 -0.3248  1.5894
 1210TIP3    H225190   1.351   5.924   2.384  1.2752  0.0312  0.7323
 1211TIP3   OH225191   1.773   3.616   1.451  0.0174  0.4093  0.0881
 1211TIP3    H125192   1.747   3.691   1.505  1.5161  1.4677 -0.6196
 1211TIP3    H225193   1.866   3.604   1.470 -0.0092 -0.7271 -0.4669
 1212TIP3   OH225194   6.598   3.134   0.138  0.3603 -0.0164  0.3470
 1212TIP3    H125195   6.505   3.117   0.121  0.3404  0.6951 -0.2883
 1212TIP3    H225196   6.640   3.049   0.124  0.0208  0.0151 -1.0563
 1213TIP3   OH225197   1.179   1.453   1.592  0.1640  0.2821  0.0329
 1213TIP3    H125198   1.261   1.413   1.561  0.3078 -0.0007  0.7649
 1213TIP3    H225199   1.112   1.420   1.531  0.5936  0.5242 -0.5763
 1214TIP3   OH225200   3.456   2.416   0.794  0.4004 -0.1820  0.0285
 1214TIP3    H125201   3.363   2.417   0.772 -0.4598  1.2653  3.0699
 1214TIP3    H225202   3.495   2.485   0.739 -0.7776  0.6430  0.1867
 1215TIP3   OH225203   1.513   2.319   8.515  0.0038 -1.0523  0.2102
 1215TIP3    H125204   1.559   2.328   8.599  1.1685  2.0380 -0.6318
 1215TIP3    H225205   1.583   2.302   8.451 -0.2113  1.1898 -0.7194
 1216TIP3   OH225206   1.676   1.329   8.405 -0.0361  0.8657  0.5834
 1216TIP3    H125207   1.613   1.264   8.373 -0.1233  1.8844 -1.4765
 1216TIP3    H225208   1.710   1.291   8.486 -1.6518 -0.7411  0.5863
 1217TIP3   OH225209   4.809   0.247   7.514 -0.0699  0.3613 -0.3795
 1217TIP3    H125210   4.791   0.158   7.484  0.8995 -0.0652  0.2576
 1217TIP3    H225211   4.905   0.252   7.520 -0.1683  0.8135  1.4297
 1218TIP3   OH225212   5.437   0.713   2.166  0.4880 -0.8390  0.1920
 1218TIP3    H125213   5.451   0.625   2.130 -1.2471 -0.5353 -1.3745
 1218TIP3    H225214   5.348   0.712   2.199  0.4680  0.3217  0.2062
 1219TIP3   OH225215   0.158   1.276   7.453 -0.6542 -0.5515 -0.1014
 1219TIP3    H125216   0.123   1.365   7.444 -1.6050 -0.8069  0.8207
 1219TIP3    H225217   0.082   1.224   7.481 -0.0563 -1.6106 -0.3997
 1220TIP3   OH225218   0.410   5.340   8.513 -0.7058  0.2880 -0.6129
 1220TIP3    H125219   0.506   5.346   8.514 -0.6994  0.7281 -1.8073
 1220TIP3    H225220   0.382   5.416   8.462 -1.6557 -0.1732 -0.7986
 1221TIP3   OH225221   5.489   4.886   8.880  0.0534  0.4090  0.2862
 1221TIP3    H125222   5.444   4.960   8.839  0.7469  0.1336 -1.0144
 1221TIP3    H225223   5.503   4.914   8.971 -0.8058  1.3525  0.1544
 1222TIP3   OH225224   1.693   4.619   1.244 -0.3741 -0.2918  0.3815
 1222TIP3    H125225   1.746   4.689   1.205 -0.4566  0.1060  0.9641
 1222TIP3    H225226   1.607   4.629   1.202  0.3859 -1.9260 -1.7401
 1223TIP3   OH225227   0.130   3.758   0.300  0.2385 -0.2293  0.0365
 1223TIP3    H125228   0.180   3.681   0.272  1.0858  0.3021  0.0515
 1223TIP3    H225229   0.190   3.831   0.286 -1.3400  0.7602 -2.2386
 1224TIP3   OH225230   3.844   5.548   6.576 -0.5507  0.0041 -0.6547
 1224TIP3    H125231   3.843   5.560   6.671 -1.6130  0.5240 -0.7152
 1224TIP3    H225232   3.840   5.637   6.541 -2.3295 -0.2325 -1.1569
 1225TIP3   OH225233   2.434   4.253   8.543 -0.0013 -0.1559 -0.8653
 1225TIP3    H125234   2.453   4.178   8.600  0.2282  0.2455 -0.4040
 1225TIP3    H225235   2.514   4.266   8.492  0.3022  0.3584 -0.2696
 1226TIP3   OH225236   1.760   1.434   1.368 -0.6574 -0.5315 -0.7541
 1226TIP3    H125237   1.701   1.426   1.292 -0.1141 -1.0372 -1.1346
 1226TIP3    H225238   1.716   1.386   1.438 -1.7169  0.8977 -0.3868
 1227TIP3   OH225239   2.329   0.811   2.023 -0.0349 -0.1030  0.2061
 1227TIP3    H125240   2.268   0.833   2.093  0.5447 -1.3386  1.1284
 1227TIP3    H225241   2.415   0.839   2.056  0.3370 -1.2958  0.2920
 1228TIP3   OH225242   6.542   0.558   2.246  0.0736 -0.3192 -0.2473
 1228TIP3    H125243   6.563   0.501   2.171 -1.7980  1.2649 -2.1134
 1228TIP3    H225244   6.451   0.584   2.231 -0.3657  0.0884  2.6420
 1229TIP3   OH225245   0.597   1.855   8.067 -0.7465  0.6920 -0.7177
 1229TIP3    H125246   0.580   1.790   7.998  0.7267 -0.7944  0.2522
 1229TIP3    H225247   0.514   1.903   8.075 -1.6553 -0.5631 -1.9837
 1230TIP3   OH225248   2.252   6.403   1.441 -0.5220  0.1071 -0.2529
 1230TIP3    H125249   2.256   6.362   1.528 -0.3242 -1.2697 -0.8784
 1230TIP3    H225250   2.189   6.350   1.393 -0.6120  0.8448 -0.9581
 1231TIP3   OH225251   4.566   1.341   7.188 -0.1011  0.0740 -0.3452
 1231TIP3    H125252   4.643   1.389   7.219  0.1752 -0.7534  0.2897
 1231TIP3    H225253   4.600   1.282   7.120 -0.3737  0.4973 -0.8563
 1232TIP3   OH225254   0.221   0.828   1.159 -0.3090 -0.1598 -0.4375
 1232TIP3    H125255   0.301   0.854   1.205 -0.1639  0.1391 -0.8542
 1232TIP3    H225256   0.230   0.734   1.147 -0.4652 -0.2838  0.3681
 1233TIP3   OH225257   4.084   6.359   7.867 -0.0553 -0.8855 -0.0178
 1233TIP3    H125258   4.040   6.308   7.935 -0.0833 -0.7574  0.0597
 1233TIP3    H225259   4.117   6.293   7.806  0.9437 -1.0570  0.6948
 1234TIP3   OH225260   0.868   4.851   7.474  0.8312  0.4707  0.6132
 1234TIP3    H125261   0.822   4.772   7.444  1.0200  0.5947 -0.0321
 1234TIP3    H225262   0.960   4.836   7.452  1.0899  0.2683  1.8108
 1235TIP3   OH225263   3.542   1.813   7.898 -0.3519 -0.1278  0.0334
 1235TIP3    H125264   3.625   1.812   7.850 -0.0664 -1.7646  0.4895
 1235TIP3    H225265   3.487   1.875   7.850  1.0313  0.7854 -0.4361
 1236TIP3   OH225266   5.823   1.360   0.217 -0.2434 -0.0553  0.7360
 1236TIP3    H125267   5.896   1.367   0.279  0.8078 -0.9377 -0.3448
 1236TIP3    H225268   5.838   1.430   0.153  0.1917 -0.8008  0.0012
 1237TIP3   OH225269   1.501   0.937   7.861 -0.1462 -0.8510 -0.2771
 1237TIP3    H125270   1.475   0.932   7.769  1.0684  0.5212 -0.7390
 1237TIP3    H225271   1.576   0.877   7.867  0.5913  0.0280 -0.5156
 1238TIP3   OH225272   0.798   1.489   8.083  0.1534 -0.0743 -0.9148
 1238TIP3    H125273   0.878   1.524   8.042 -0.6415  0.7637 -1.7877
 1238TIP3    H225274   0.827   1.458   8.169  1.9382 -2.1158 -2.1607
 1239TIP3   OH225275   2.147   5.502   7.294  0.4286  0.0755 -0.4253
 1239TIP3    H125276   2.175   5.461   7.212 -0.7750  1.3228 -1.4985
 1239TIP3    H225277   2.052   5.490   7.297  0.3367  0.8528  0.3152
 1240TIP3   OH225278   6.408   2.807   1.114 -0.5725 -0.0553  0.3893
 1240TIP3    H125279   6.369   2.803   1.027  0.7912 -1.5398 -0.2123
 1240TIP3    H225280   6.362   2.879   1.158 -0.2800  1.7650 -2.0453
 1241TIP3   OH225281   2.531   5.258   7.501 -0.0937  0.2993  0.3406
 1241TIP3    H125282   2.445   5.251   7.459 -1.0452 -0.2739  2.2721
 1241TIP3    H225283   2.580   5.182   7.468 -1.8126 -1.8259  2.3251
 1242TIP3   OH225284   4.558   5.541   1.815  0.4988  0.4428  0.1608
 1242TIP3    H125285   4.580   5.535   1.722 -1.4234  0.8099 -0.3736
 1242TIP3    H225286   4.543   5.635   1.829  1.4811  0.4816  1.0375
 1243TIP3   OH225287   6.646   6.459   1.009 -0.2549  0.1898  0.3691
 1243TIP3    H125288   6.613   6.531   0.957 -2.3872 -0.6849  0.4051
 1243TIP3    H225289   6.712   6.499   1.066 -0.2284  1.7657 -0.7016
 1244TIP3   OH225290   4.459   5.306   0.322  0.1931 -0.0356  0.0320
 1244TIP3    H125291   4.551   5.285   0.304  0.2957  0.1643  0.3265
 1244TIP3    H225292   4.462   5.387   0.372 -0.2639  1.7670 -2.6590
 1245TIP3   OH225293   4.414   0.219   0.610  0.1167  0.3138  0.3271
 1245TIP3    H125294   4.465   0.139   0.596 -0.2010  0.1471  0.1137
 1245TIP3    H225295   4.436   0.275   0.536 -0.2384  0.1209  0.0723
 1246TIP3   OH225296   6.600   3.999   0.493 -0.1523  0.6918 -0.5657
 1246TIP3    H125297   6.553   4.082   0.506 -0.2573  0.5464 -0.0092
 1246TIP3    H225298   6.554   3.957   0.421 -0.8240  0.5893 -0.0803
 1247TIP3   OH225299   3.067   1.599   8.684  0.6048  0.2311 -0.8161
 1247TIP3    H125300   3.073   1.543   8.607  0.2929 -0.4343 -0.3619
 1247TIP3    H225301   2.976   1.591   8.713  0.2481  1.8387 -1.3905
 1248TIP3   OH225302   0.481   0.804   8.757  0.1997 -0.3082  0.0789
 1248TIP3    H125303   0.421   0.809   8.831 -0.7840 -2.3093 -0.5303
 1248TIP3    H225304   0.535   0.727   8.774  0.4955 -0.3378 -0.9067
 1249TIP3   OH225305   1.444   6.218   0.382 -0.5004 -0.4871  0.0504
 1249TIP3    H125306   1.369   6.227   0.441  1.1356  0.5269  2.1047
 1249TIP3    H225307   1.456   6.305   0.344 -0.5199 -0.7195 -0.5092
 1250TIP3   OH225308   1.532   1.428   2.488 -0.2774  0.4856  0.1791
 1250TIP3    H125309   1.610   1.481   2.472  0.3268 -0.4225  0.0623
 1250TIP3    H225310   1.460   1.491   2.485  0.1881  1.0040 -2.0957
 1251TIP3   OH225311   1.100   0.854   8.793  0.0386  0.2665 -0.0275
 1251TIP3    H125312   1.021   0.802   8.807  0.2763  0.0696  0.6066
 1251TIP3    H225313   1.069   0.933   8.750 -0.6559  0.6156  1.0634
 1252TIP3   OH225314   2.847   0.355   7.397 -0.3431 -0.0506 -0.2658
 1252TIP3    H125315   2.801   0.397   7.324 -0.3266 -0.6548 -0.6207
 1252TIP3    H225316   2.787   0.366   7.471 -0.0239  1.2471 -0.1712
 1253TIP3   OH225317   6.261   5.440   0.224  0.8109  0.6056  0.5713
 1253TIP3    H125318   6.256   5.460   0.131  0.6501  2.0096  0.8673
 1253TIP3    H225319   6.352   5.412   0.237  0.5512 -0.6991 -0.1863
 1254TIP3   OH225320   0.227   3.765   8.604 -0.0150 -0.3115 -0.2321
 1254TIP3    H125321   0.150   3.732   8.650  0.5627  0.6448  1.5234
 1254TIP3    H225322   0.300   3.716   8.641  0.3860 -0.1593 -0.7972
 1255TIP3   OH225323   2.523   0.385   7.484  0.0502 -0.3753  0.1087
 1255TIP3    H125324   2.534   0.290   7.480 -0.1151 -0.3722 -0.5111
 1255TIP3    H225325   2.587   0.414   7.549  1.4180 -0.7036 -1.0546
 1256TIP3   OH225326   3.914   2.264   1.779  0.2463  0.0591 -0.4881
 1256TIP3    H125327   3.970   2.300   1.710  0.8908  0.1684  0.0795
 1256TIP3    H225328   3.840   2.226   1.732 -0.1980  1.6441 -1.1449
 1257TIP3   OH225329   4.771   6.663   7.719 -0.5394 -0.2166 -0.3980
 1257TIP3    H125330   4.769   6.720   7.796 -1.9784  1.0399 -1.3316
 1257TIP3    H225331   4.776   6.574   7.756 -0.2234  0.3885  1.1089
 1258TIP3   OH225332   4.376   2.841   0.016  0.0788 -0.5209 -0.0935
 1258TIP3    H125333   4.335   2.882   0.092 -1.6261 -0.1671 -1.1270
 1258TIP3    H225334   4.395   2.752   0.044 -1.8611 -0.8427  0.3474
 1259TIP3   OH225335   5.075   0.272   7.550 -0.8218 -0.4303 -0.2170
 1259TIP3    H125336   5.136   0.345   7.544 -1.6853  0.6006  2.2797
 1259TIP3    H225337   5.123   0.205   7.598 -0.2360 -1.3624 -2.0007
 1260TIP3   OH225338   3.161   0.291   1.452  0.1920 -0.1179 -0.3049
 1260TIP3    H125339   3.091   0.337   1.499  0.2867 -1.3367  1.1121
 1260TIP3    H225340   3.242   0.335   1.479  0.4027 -1.7218  1.9811
 1261TIP3   OH225341   1.554   0.842   7.249  0.0502  0.5786  0.5041
 1261TIP3    H125342   1.587   0.799   7.327  2.6355  4.0071  1.5525
 1261TIP3    H225343   1.471   0.882   7.277 -0.8595 -1.1015  0.3504
 1262TIP3   OH225344   3.473   3.132   1.493  0.5235 -0.1923  0.3745
 1262TIP3    H125345   3.465   3.164   1.582  0.0123 -0.0227  0.2714
 1262TIP3    H225346   3.486   3.037   1.503  2.1500  0.0387  0.6811
 1263TIP3   OH225347   1.155   4.387   8.157 -0.2638 -0.3891  0.3614
 1263TIP3    H125348   1.138   4.358   8.246  1.5393  0.5951  1.1025
 1263TIP3    H225349   1.212   4.463   8.168  0.3596 -0.5080 -1.6486
 1264TIP3   OH225350   3.074   1.950   6.294 -0.1858  0.5636 -0.4916
 1264TIP3    H125351   3.030   1.866   6.278  0.6000 -0.1251  0.7306
 1264TIP3    H225352   3.166   1.926   6.306  0.0116  1.5717  0.1218
 1265TIP3   OH225353   1.749   1.753   8.773  0.5928 -0.1623 -0.3962
 1265TIP3    H125354   1.838   1.769   8.742  0.1497  0.5613 -1.3393
 1265TIP3    H225355   1.696   1.747   8.694 -0.3218  0.1437  0.1702
 1266TIP3   OH225356   4.612   0.934   8.826  0.0165 -0.5095  0.3507
 1266TIP3    H125357   4.560   0.956   8.748 -1.0058 -1.1439  0.8297
 1266TIP3    H225358   4.587   0.844   8.846 -0.7854  0.0817  2.2164
 1267TIP3   OH225359   1.445   5.113   8.462  0.3397  0.2213  0.0597
 1267TIP3    H125360   1.453   5.187   8.402 -2.2990  0.1529 -0.4712
 1267TIP3    H225361   1.402   5.149   8.540 -2.5476 -0.9706 -0.8601
 1268TIP3   OH225362   1.936   0.798   8.594 -0.0963  0.0426  0.6531
 1268TIP3    H125363   1.895   0.790   8.507 -1.0384  0.4385  1.0449
 1268TIP3    H225364   1.869   0.840   8.648  0.7599  0.5015  1.3825
 1269TIP3   OH225365   5.376   1.978   7.639  0.1268  0.1528 -0.1839
 1269TIP3    H125366   5.303   1.923   7.610 -0.6948  0.8383  0.5477
 1269TIP3    H225367   5.396   2.033   7.563  0.1883 -0.3535 -0.5359
 1270TIP3   OH225368   1.997   2.760   0.207 -0.7234  0.3022 -0.5625
 1270TIP3    H125369   1.971   2.849   0.181 -0.9355  0.0697 -1.1745
 1270TIP3    H225370   1.944   2.703   0.151  0.0104 -0.1996 -0.7563
 1271TIP3   OH225371   0.579   3.994   2.109  0.0677  0.1441  0.0084
 1271TIP3    H125372   0.550   3.916   2.155 -3.5476  0.2894 -1.6534
 1271TIP3    H225373   0.634   3.962   2.037  1.1277 -0.5416  1.1042
 1272TIP3   OH225374   4.941   1.232   8.360  0.0092  0.3556 -0.0873
 1272TIP3    H125375   4.863   1.288   8.361 -1.0198 -1.0122  0.9752
 1272TIP3    H225376   4.998   1.272   8.295 -1.1581  1.9693 -0.1910
 1273TIP3   OH225377   0.282   1.174   0.064 -0.3727  0.5846  0.0786
 1273TIP3    H125378   0.344   1.143   0.129  3.1838  2.0230 -2.3388
 1273TIP3    H225379   0.289   1.111  -0.008 -3.0516 -0.1238  0.3301
 1274TIP3   OH225380   0.689   3.552   6.626  0.7166 -0.6981  0.2800
 1274TIP3    H125381   0.746   3.513   6.559 -0.3673  0.2265 -1.2129
 1274TIP3    H225382   0.717   3.643   6.631  1.1158 -0.8619  1.4885
 1275TIP3   OH225383   2.850   3.570   6.890 -0.4153 -0.1265  0.2678
 1275TIP3    H125384   2.757   3.584   6.872 -0.7042 -0.8302  1.1128
 1275TIP3    H225385   2.865   3.615   6.974  1.0063  3.5157 -1.7042
 1276TIP3   OH225386   0.416   4.261   7.666 -0.4787  0.7038 -0.0436
 1276TIP3    H125387   0.481   4.193   7.647  1.5103  2.1892  1.0509
 1276TIP3    H225388   0.461   4.344   7.649 -1.3309  1.8817  2.7383
 1277TIP3   OH225389   6.448   6.667   8.749 -0.5940  0.4341 -0.0957
 1277TIP3    H125390   6.417   6.714   8.672  1.2440  1.3056 -0.3494
 1277TIP3    H225391   6.510   6.726   8.791  0.7262 -1.1828  0.3669
 1278TIP3   OH225392   0.624   2.636   7.154  0.3709  0.7337  0.0837
 1278TIP3    H125393   0.536   2.629   7.117  0.5766  1.7803 -0.6598
 1278TIP3    H225394   0.681   2.649   7.078  1.1745  0.1180  0.5565
 1279TIP3   OH225395   2.111   2.626   7.680 -0.6162 -0.1357 -0.1045
 1279TIP3    H125396   2.148   2.563   7.742  0.8473  1.3048  0.5493
 1279TIP3    H225397   2.064   2.689   7.734  0.0719  0.7361 -0.4860
 1280TIP3   OH225398   5.503   3.298   1.744 -0.4158 -0.2401  0.2318
 1280TIP3    H125399   5.441   3.284   1.815 -1.0803  2.5088  0.2755
 1280TIP3    H225400   5.451   3.291   1.664 -0.5960  1.0328  0.2251
 1281TIP3   OH225401   3.382   1.026   6.811 -0.4469 -0.1405 -0.2869
 1281TIP3    H125402   3.304   1.048   6.862  0.7238 -1.6150  2.3626
 1281TIP3    H225403   3.356   0.950   6.759 -0.7514 -0.7426  0.7270
 1282TIP3   OH225404   6.191   3.882   7.239 -0.4783  0.3582 -0.4134
 1282TIP3    H125405   6.232   3.960   7.276  1.4410 -0.2715 -1.0589
 1282TIP3    H225406   6.196   3.895   7.145 -0.3360 -0.4403 -0.5203
 1283TIP3   OH225407   3.301   5.760   1.703  0.2906 -0.0916  0.3129
 1283TIP3    H125408   3.279   5.787   1.792 -1.1352  0.3324 -0.1245
 1283TIP3    H225409   3.356   5.831   1.669  0.8379 -0.2568  0.8551
 1284TIP3   OH225410   1.977   1.728   0.595  0.2440  0.1556  0.4889
 1284TIP3    H125411   2.011   1.778   0.670  2.0144 -0.4676  0.1557
 1284TIP3    H225412   2.051   1.673   0.568 -0.5725 -0.1208 -1.3009
 1285TIP3   OH225413   1.779   2.587   7.648 -0.0727  0.1140  0.1438
 1285TIP3    H125414   1.700   2.591   7.594 -0.3473  0.5447  0.5661
 1285TIP3    H225415   1.841   2.644   7.604  0.3716 -1.0179 -0.7523
 1286TIP3   OH225416   5.631   2.472   8.003  0.1838  0.4180 -0.5195
 1286TIP3    H125417   5.583   2.552   7.983  0.9635  1.1830  0.4867
 1286TIP3    H225418   5.723   2.495   7.986  0.6450  0.4446  1.6997
 1287TIP3   OH225419   1.108   5.716   1.566  0.1639  0.4576 -0.4869
 1287TIP3    H125420   1.129   5.790   1.622 -1.0612 -0.6939  1.6207
 1287TIP3    H225421   1.179   5.653   1.581 -1.1327 -0.6561  1.4090
 1288TIP3   OH225422   3.888   5.632   1.354  0.0501 -0.1524  0.1264
 1288TIP3    H125423   3.899   5.672   1.440  1.1674 -1.9915  0.8984
 1288TIP3    H225424   3.976   5.630   1.317  0.2812 -2.6864  0.5744
 1289TIP3   OH225425   1.108   0.123   0.827 -0.1927  0.7214  0.1340
 1289TIP3    H125426   1.142   0.134   0.916  1.1017 -0.0621 -0.2422
 1289TIP3    H225427   1.125   0.032   0.806 -0.2856  0.9533 -1.0079
 1290TIP3   OH225428   5.543   6.149   0.972  0.2047 -0.2150 -0.0235
 1290TIP3    H125429   5.606   6.119   0.906  1.5707  1.2324  0.5538
 1290TIP3    H225430   5.583   6.125   1.056  0.9609  2.3306  0.4265
 1291TIP3   OH225431   6.066   1.212   7.446 -0.3489 -0.6666 -0.1468
 1291TIP3    H125432   6.068   1.119   7.426 -1.0291 -0.9689  1.0375
 1291TIP3    H225433   6.088   1.256   7.364 -0.6342 -1.8513 -0.8751
 1292TIP3   OH225434   0.192   0.881   0.024  0.7807  0.3161  0.3863
 1292TIP3    H125435   0.134   0.806   0.009  1.6652 -0.8564  2.4674
 1292TIP3    H225436   0.236   0.894  -0.060  0.0106 -0.9762 -0.2442
 1293TIP3   OH225437   3.096   1.519   1.595 -0.0834  0.1891  0.4247
 1293TIP3    H125438   3.068   1.597   1.547  1.0632  0.2049 -0.2612
 1293TIP3    H225439   3.185   1.540   1.624  0.8770 -1.4350 -1.1463
 1294TIP3   OH225440   3.756   5.290   1.591 -0.3982 -0.6225  0.1719
 1294TIP3    H125441   3.697   5.339   1.535  0.4590 -0.1975 -0.3853
 1294TIP3    H225442   3.748   5.199   1.562 -2.1032 -0.8753  1.3059
 1295TIP3   OH225443   3.857   5.720   0.375  0.4673  0.1160 -0.1037
 1295TIP3    H125444   3.868   5.793   0.436 -2.8953  0.9534 -0.3211
 1295TIP3    H225445   3.810   5.653   0.425 -0.3383 -0.0978 -1.1031
 1296TIP3   OH225446   5.260   1.673   7.530 -0.9447  0.1037  0.0611
 1296TIP3    H125447   5.202   1.749   7.525 -0.4079  0.4469 -1.3704
 1296TIP3    H225448   5.202   1.597   7.525 -1.2774  0.4377 -1.9597
 1297TIP3   OH225449   0.726   0.563   7.808  0.1234  0.1084  0.0455
 1297TIP3    H125450   0.708   0.644   7.856 -3.1592 -0.3619 -0.1812
 1297TIP3    H225451   0.762   0.504   7.874  0.7049  1.1185  0.6583
 1298TIP3   OH225452   1.124   0.164   1.464  0.2788 -0.1245  0.1343
 1298TIP3    H125453   1.069   0.198   1.535 -0.0967  0.6513 -0.5075
 1298TIP3    H225454   1.211   0.156   1.502  0.1179  0.4615  0.6315
 1299TIP3   OH225455   3.006   2.109   8.204  0.5111 -0.6018 -0.2954
 1299TIP3    H125456   3.073   2.146   8.261 -0.0817  2.8145 -1.6040
 1299TIP3    H225457   2.936   2.083   8.264  1.1280  0.0686  0.7416
 1300TIP3   OH225458   5.725   2.358   0.833  0.0946 -0.0210  0.3585
 1300TIP3    H125459   5.763   2.427   0.888  1.3973 -0.2813 -0.1882
 1300TIP3    H225460   5.732   2.279   0.886  0.9257 -0.1857  0.0189
 1301TIP3   OH225461   0.003   3.360   0.233 -0.4429 -0.0926  0.5822
 1301TIP3    H125462   0.077   3.331   0.286  0.4044 -0.8635 -0.9584
 1301TIP3    H225463  -0.047   3.280   0.217 -0.7527  0.1539  0.3175
 1302TIP3   OH225464   2.262   5.565   0.999 -0.5299 -1.0461 -0.0541
 1302TIP3    H125465   2.328   5.498   1.016  0.0890 -0.0682  1.5444
 1302TIP3    H225466   2.298   5.616   0.927  1.6166  0.8387  2.1830
 1303TIP3   OH225467   1.036   1.966   7.405 -0.8737  0.1830  0.1531
 1303TIP3    H125468   1.071   1.881   7.379 -0.8236  0.3291 -0.2545
 1303TIP3    H225469   1.097   1.997   7.472 -0.5630  0.1602 -0.1175
 1304TIP3   OH225470   0.814   0.094   1.355 -0.3029  0.0832 -0.4438
 1304TIP3    H125471   0.887   0.137   1.311  1.3238 -1.5497  0.5293
 1304TIP3    H225472   0.777   0.035   1.289 -0.1020  0.1897 -0.6511
 1305TIP3   OH225473   1.839   2.566   2.447 -0.2815 -0.3719 -0.0570
 1305TIP3    H125474   1.867   2.477   2.467 -4.1043 -1.2687  2.3416
 1305TIP3    H225475   1.748   2.557   2.421 -0.6162  2.8321 -0.3762
 1306TIP3   OH225476   5.045   2.434   8.382  0.3456 -0.3048  0.6714
 1306TIP3    H125477   5.042   2.382   8.302 -0.6780  0.6370  0.0653
 1306TIP3    H225478   5.117   2.396   8.433 -1.4225 -3.4555  1.0862
 1307TIP3   OH225479   4.062   2.072   6.244 -0.2947  0.2891 -0.1882
 1307TIP3    H125480   4.125   2.004   6.269 -0.7874  0.6335  2.1871
 1307TIP3    H225481   4.113   2.136   6.195  1.0114  0.0455  0.8107
 1308TIP3   OH225482   1.625   1.430   7.131  0.3348 -0.0052  0.3513
 1308TIP3    H125483   1.563   1.460   7.064  0.3467  0.2476  0.4542
 1308TIP3    H225484   1.581   1.355   7.172  1.0181 -1.2633 -1.0734
 1309TIP3   OH225485   3.312   4.542   8.041  0.0573 -0.3294 -0.0131
 1309TIP3    H125486   3.288   4.627   8.078 -1.7187  0.8673 -3.4276
 1309TIP3    H225487   3.390   4.560   7.988  0.0310 -0.9522 -0.2667
 1310TIP3   OH225488   3.629   5.864   0.097 -0.3671 -0.0885  0.0961
 1310TIP3    H125489   3.688   5.937   0.079  0.7095  0.0739  3.4985
 1310TIP3    H225490   3.542   5.899   0.079  0.0800  2.3183  2.0297
 1311TIP3   OH225491   6.569   6.445   1.812  0.0400  0.1470 -0.2125
 1311TIP3    H125492   6.521   6.419   1.891  0.3553  1.3473  0.4023
 1311TIP3    H225493   6.633   6.375   1.798 -0.6334 -0.5313  0.0492
 1312TIP3   OH225494   0.951   5.367   8.579  0.4678  0.2654  0.1774
 1312TIP3    H125495   0.921   5.450   8.615 -1.4262 -0.1699 -0.3033
 1312TIP3    H225496   0.924   5.301   8.643 -2.0133 -0.4028 -1.4361
 1313TIP3   OH225497   2.041   4.880   7.780  0.1800  0.5185  0.1252
 1313TIP3    H125498   2.058   4.830   7.700 -1.4794  0.2643 -0.1091
 1313TIP3    H225499   1.995   4.959   7.750  1.6432  1.5900  0.6171
 1314TIP3   OH225500   4.571   3.672   0.069 -0.0210  0.0895 -0.0471
 1314TIP3    H125501   4.563   3.593   0.121  2.7475  0.9292  1.8848
 1314TIP3    H225502   4.638   3.651   0.004  0.9610  0.8757  0.6788
 1315TIP3   OH225503   6.299   6.282   1.932 -0.3285 -0.7643 -0.2451
 1315TIP3    H125504   6.216   6.302   1.889 -0.5641  0.3091  0.6668
 1315TIP3    H225505   6.306   6.187   1.927 -0.2750 -0.6811 -2.7378
 1316TIP3   OH225506   0.367   6.151   7.819 -0.5440  0.4437 -0.2665
 1316TIP3    H125507   0.377   6.196   7.903  0.0914  0.2841 -0.2514
 1316TIP3    H225508   0.426   6.198   7.760 -1.4087  0.9223 -0.7828
 1317TIP3   OH225509   0.461   1.982   0.632 -0.1199 -0.1813  0.1574
 1317TIP3    H125510   0.440   1.970   0.724 -0.5822  1.0113  0.2229
 1317TIP3    H225511   0.479   1.893   0.600  3.0606 -0.3397  2.0582
 1318TIP3   OH225512   2.851   2.963   0.021 -0.1883  0.3668  0.5913
 1318TIP3    H125513   2.852   3.051   0.057 -1.9062 -0.1517  2.0539
 1318TIP3    H225514   2.767   2.956  -0.024 -0.6364 -0.8822  1.5426
 1319TIP3   OH225515   0.016   0.184   0.404  0.5221 -0.1619  0.0351
 1319TIP3    H125516   0.081   0.116   0.389 -0.1303 -0.6910 -0.4891
 1319TIP3    H225517  -0.049   0.142   0.460  1.0439  0.6276  1.2597
 1320TIP3   OH225518   6.400   2.402   0.952 -1.1222 -0.3023 -0.2992
 1320TIP3    H125519   6.305   2.393   0.946 -1.2441  0.4867  0.3499
 1320TIP3    H225520   6.421   2.475   0.894 -1.1821  0.9583  1.2055
 1321TIP3   OH225521   5.767   1.462   6.306 -0.3150 -0.0819 -0.2789
 1321TIP3    H125522   5.760   1.543   6.255 -1.2366 -0.8022 -1.3208
 1321TIP3    H225523   5.687   1.461   6.359  0.4247  0.4373  0.8988
 1322TIP3   OH225524   0.911   0.746   8.089  0.1382  0.3788  0.5611
 1322TIP3    H125525   0.979   0.811   8.072  1.1579 -0.8495 -0.2522
 1322TIP3    H225526   0.834   0.780   8.043  0.8664  0.6577 -0.4982
 1323TIP3   OH225527   0.208   4.494   1.071  0.0368 -0.3484  0.4198
 1323TIP3    H125528   0.160   4.422   1.031 -0.3050 -0.8790  1.7458
 1323TIP3    H225529   0.199   4.480   1.165  0.6233  0.9904  0.7003
 1324TIP3   OH225530   1.261   1.946   1.851 -0.0744  0.5785  0.5132
 1324TIP3    H125531   1.261   2.026   1.905 -0.4054  0.4547  0.6952
 1324TIP3    H225532   1.226   1.974   1.767 -1.2892  0.3882  0.9334
 1325TIP3   OH225533   6.587   6.431   6.978  0.3138 -0.4877 -0.2008
 1325TIP3    H125534   6.619   6.352   7.021  0.7217 -0.0810  0.2537
 1325TIP3    H225535   6.592   6.411   6.885  0.2005 -1.0781 -0.0846
 1326TIP3   OH225536   5.362   5.253   0.696 -0.0604  0.0495  0.5230
 1326TIP3    H125537   5.301   5.244   0.770  0.7981 -1.6134  1.0724
 1326TIP3    H225538   5.326   5.195   0.629 -0.4333  0.9934 -0.1045
 1327TIP3   OH225539   5.197   0.751   6.752 -0.0866  0.2023  0.9017
 1327TIP3    H125540   5.220   0.658   6.751  1.0982  0.3698 -2.9239
 1327TIP3    H225541   5.277   0.796   6.779  0.6763  0.2454 -1.3082
 1328TIP3   OH225542   5.822   6.271   8.033  0.0327  0.6759  0.3707
 1328TIP3    H125543   5.826   6.262   7.937 -1.8156  0.0123  0.3179
 1328TIP3    H225544   5.783   6.357   8.047 -0.4755  0.4275  0.5021
 1329TIP3   OH225545   5.048   3.638   8.650 -0.6637  0.5148 -0.0379
 1329TIP3    H125546   5.030   3.588   8.570 -1.5708  1.2059 -0.2788
 1329TIP3    H225547   5.071   3.726   8.620 -0.8569  0.7398  0.4491
 1330TIP3   OH225548   5.434   1.265   0.463  0.0691  0.4753  0.1797
 1330TIP3    H125549   5.343   1.239   0.447 -0.1140  1.3659 -0.2968
 1330TIP3    H225550   5.444   1.348   0.417  0.6886  1.1660  1.4874
 1331TIP3   OH225551   4.371   4.374   8.551  0.1158 -0.0630 -0.4744
 1331TIP3    H125552   4.283   4.339   8.564  1.0415 -3.0386 -1.4364
 1331TIP3    H225553   4.368   4.413   8.463  0.2752 -2.1877 -1.4724
 1332TIP3   OH225554   0.335   0.015   7.764 -0.0943 -0.0368 -0.6682
 1332TIP3    H125555   0.253  -0.029   7.787 -0.6712  1.3950  0.1063
 1332TIP3    H225556   0.344  -0.000   7.670 -0.3279 -1.6838 -0.4537
 1333TIP3   OH225557   0.759   5.428   0.097  0.3212 -0.3178 -0.5739
 1333TIP3    H125558   0.691   5.362   0.084  0.8307 -0.6444 -1.7841
 1333TIP3    H225559   0.805   5.400   0.176 -0.8918 -0.1296  0.2104
 1334TIP3   OH225560   4.153   3.030   1.422  0.0866 -0.3027  0.3489
 1334TIP3    H125561   4.170   3.014   1.515  1.3433  1.0837  0.3968
 1334TIP3    H225562   4.231   3.076   1.391 -0.0006 -1.3503 -1.5745
 1335TIP3   OH225563   1.445   0.502   7.694 -0.3799  0.4913 -0.0594
 1335TIP3    H125564   1.400   0.450   7.760 -0.3075  0.0614 -0.3468
 1335TIP3    H225565   1.382   0.570   7.669 -0.9277 -0.1874 -0.5617
 1336TIP3   OH225566   4.621   3.255   1.064 -0.6406  0.9460 -0.4815
 1336TIP3    H125567   4.640   3.347   1.086  0.3418  1.0913 -1.8083
 1336TIP3    H225568   4.591   3.217   1.146  1.1353  1.8892  0.6789
 1337TIP3   OH225569   0.383   5.209   1.084  0.0180 -0.2243  0.9934
 1337TIP3    H125570   0.313   5.267   1.115 -1.2905 -1.7574  1.0406
 1337TIP3    H225571   0.371   5.208   0.989 -0.4617 -0.9959  1.0552
 1338TIP3   OH225572   5.987   1.253   8.475  0.1670 -0.3776  0.5449
 1338TIP3    H125573   5.961   1.300   8.554  1.1458 -1.2672  1.4387
 1338TIP3    H225574   6.070   1.211   8.499 -0.9743 -3.1109  0.0544
 1339TIP3   OH225575   2.458   2.922   0.497  0.0307  0.0033 -0.0161
 1339TIP3    H125576   2.415   2.904   0.581 -0.3078  0.9846  0.0356
 1339TIP3    H225577   2.512   2.844   0.480 -0.4640 -0.5183  0.7469
 1340TIP3   OH225578   4.890   4.014   1.966 -0.4253 -0.3444  0.1660
 1340TIP3    H125579   4.939   3.941   2.006 -0.6086 -1.5948 -1.7447
 1340TIP3    H225580   4.800   3.982   1.960 -0.6608  0.3370 -0.0359
 1341TIP3   OH225581   2.059   2.651   7.213  0.3904  0.2295  0.1795
 1341TIP3    H125582   2.043   2.697   7.296  0.2317  2.1712 -0.8750
 1341TIP3    H225583   1.987   2.678   7.157 -0.3853 -2.3294 -0.1375
 1342TIP3   OH225584   1.860   1.053   1.590  0.4409  0.1308 -0.2831
 1342TIP3    H125585   1.766   1.047   1.574  0.1686  3.4582 -0.7086
 1342TIP3    H225586   1.868   1.072   1.683  0.7806 -1.1946 -0.0353
 1343TIP3   OH225587   0.662   2.157   0.090 -0.0761  0.8836 -0.2013
 1343TIP3    H125588   0.751   2.188   0.108 -0.1977 -0.2758  3.0265
 1343TIP3    H225589   0.605   2.227   0.121 -0.3513  1.1736 -1.2984
 1344TIP3   OH225590   3.711   1.575   7.253 -0.1431 -0.0049  0.8152
 1344TIP3    H125591   3.755   1.547   7.333 -1.5020  0.5397  1.7925
 1344TIP3    H225592   3.699   1.495   7.202  2.9274 -0.0265 -0.0268
 1345TIP3   OH225593   4.437   3.292   8.559 -0.5290 -0.1714  0.8206
 1345TIP3    H125594   4.386   3.226   8.606  0.9871 -1.0971  1.2256
 1345TIP3    H225595   4.388   3.307   8.478 -0.6857 -2.1565  0.5016
 1346TIP3   OH225596   5.664   1.997   2.123 -0.7909  0.0653  0.6780
 1346TIP3    H125597   5.749   1.969   2.159 -0.3172  0.6253  0.0103
 1346TIP3    H225598   5.619   1.915   2.104  0.2835 -0.2725 -0.5571
 1347TIP3   OH225599   0.160   2.188   7.927 -0.4864 -0.8926 -0.2084
 1347TIP3    H125600   0.086   2.237   7.964 -0.3100  0.6840 -1.7900
 1347TIP3    H225601   0.227   2.255   7.912 -0.0610 -1.6759 -2.0046
 1348TIP3   OH225602   1.462   5.927   8.572  0.2429 -0.2232  0.3024
 1348TIP3    H125603   1.400   5.926   8.644 -0.0280  2.4347  0.1763
 1348TIP3    H225604   1.515   6.006   8.587  3.2399 -2.0202  0.0743
 1349TIP3   OH225605   5.659   5.488   0.119  0.2000  0.2964 -0.0266
 1349TIP3    H125606   5.667   5.422   0.050  0.5589  0.5929 -0.2749
 1349TIP3    H225607   5.591   5.455   0.177  0.0627 -0.0699 -0.3970
 1350TIP3   OH225608   5.360   3.850   7.688 -0.3013 -0.0284 -0.1368
 1350TIP3    H125609   5.267   3.855   7.665  0.0893  0.1667 -1.8444
 1350TIP3    H225610   5.390   3.941   7.688  0.1502 -0.1656 -0.8774
 1351TIP3   OH225611   1.553   6.775   2.002 -0.1064 -0.5924  0.6136
 1351TIP3    H125612   1.631   6.721   2.020  0.9812  0.1850 -1.4439
 1351TIP3    H225613   1.577   6.862   2.034  0.1086 -0.2388 -0.4615
 1352TIP3   OH225614   5.344   1.932   2.179 -0.3844 -0.1520  0.2636
 1352TIP3    H125615   5.265   1.983   2.162 -0.1126  0.3098  0.3795
 1352TIP3    H225616   5.373   1.902   2.093  1.0308  2.2314 -0.2007
 1353TIP3   OH225617   6.618   0.126   0.164  0.0502  0.2098 -0.1262
 1353TIP3    H125618   6.655   0.175   0.237  1.5441 -1.1923  0.1129
 1353TIP3    H225619   6.627   0.034   0.190 -0.4590 -0.2751 -1.5718
 1354TIP3   OH225620   4.543   1.409   1.386 -0.1786 -0.0704  0.2546
 1354TIP3    H125621   4.512   1.326   1.422  1.1868 -0.1547  1.2939
 1354TIP3    H225622   4.510   1.476   1.447 -1.2044  0.1838 -0.5333
 1355TIP3   OH225623   5.760   0.373   6.501 -0.2442  0.1051  0.1742
 1355TIP3    H125624   5.687   0.424   6.466  0.3427  0.4884 -0.5067
 1355TIP3    H225625   5.830   0.437   6.515 -0.1706 -0.1842  1.2326
 1356TIP3   OH225626   0.374   3.689   7.845  0.1122  0.5651  0.0820
 1356TIP3    H125627   0.306   3.743   7.887  0.1790 -0.0129  0.9700
 1356TIP3    H225628   0.456   3.733   7.867  0.0099  1.6350 -1.5526
 1357TIP3   OH225629   3.445   0.141   0.012  0.1086 -0.8576 -0.2744
 1357TIP3    H125630   3.481   0.220  -0.028 -1.4935 -0.3854 -0.8679
 1357TIP3    H225631   3.473   0.145   0.104  2.0096 -0.8390 -0.8200
 1358TIP3   OH225632   3.717   3.411   8.647  0.5572 -0.3533 -0.3692
 1358TIP3    H125633   3.682   3.409   8.736  1.8635  2.4523  0.3328
 1358TIP3    H225634   3.673   3.486   8.606  2.1011  0.2120 -1.0772
 1359TIP3   OH225635   1.121   1.686   8.718  0.3736 -0.4927 -0.0320
 1359TIP3    H125636   1.040   1.734   8.735  1.3863  1.4218 -0.2526
 1359TIP3    H225637   1.127   1.623   8.789 -0.8171  0.0057  0.5424
 1360TIP3   OH225638   6.076   2.564   0.028 -0.7282 -0.5258  0.5742
 1360TIP3    H125639   6.093   2.636  -0.033  0.2570 -1.4361 -0.2815
 1360TIP3    H225640   6.121   2.589   0.108  0.0428 -0.4136  0.1161
 1361TIP3   OH225641   2.153   5.608   1.415 -0.1800  0.6155  0.2347
 1361TIP3    H125642   2.222   5.650   1.466 -1.1203  0.4107  1.7305
 1361TIP3    H225643   2.125   5.675   1.353  0.7406  0.9878  0.1946
 1362TIP3   OH225644   4.049   6.482   7.187  0.3556  0.6427  0.3067
 1362TIP3    H125645   4.043   6.495   7.092 -0.5776 -0.7333  0.1418
 1362TIP3    H225646   4.018   6.392   7.200  0.2466  0.8987  1.9369
 1363TIP3   OH225647   6.094   5.724   2.331  0.4413 -0.6266  0.4679
 1363TIP3    H125648   6.174   5.674   2.318 -0.0082 -1.5438  1.1559
 1363TIP3    H225649   6.101   5.759   2.419  1.0199  1.0609 -0.2069
 1364TIP3   OH225650   2.422   6.148   7.947  0.0400 -0.5340  0.1241
 1364TIP3    H125651   2.479   6.071   7.953 -0.8287 -1.1806  0.3366
 1364TIP3    H225652   2.481   6.220   7.925  0.6107 -1.5984 -2.1566
 1365TIP3   OH225653   0.582   0.280   2.027  0.0513 -0.1913 -0.1696
 1365TIP3    H125654   0.508   0.234   1.986  0.0369 -0.6353  0.3562
 1365TIP3    H225655   0.617   0.335   1.957 -1.3011  0.6738 -0.2257
 1366TIP3   OH225656   1.327   3.210   8.005 -0.8860 -0.2148 -0.7099
 1366TIP3    H125657   1.417   3.235   8.026 -0.4649 -2.7788  0.9672
 1366TIP3    H225658   1.277   3.234   8.083 -1.8540  1.6782 -1.8277
 1367TIP3   OH225659   1.825   5.539   8.391  0.3784 -0.1347 -0.0578
 1367TIP3    H125660   1.851   5.468   8.449 -2.0837 -1.4655 -0.4730
 1367TIP3    H225661   1.777   5.600   8.447  0.4162 -0.0160 -0.1523
 1368TIP3   OH225662   0.566   3.908   7.210 -0.1764 -0.2224  0.2358
 1368TIP3    H125663   0.483   3.879   7.247 -1.0250  0.7995 -0.8109
 1368TIP3    H225664   0.622   3.830   7.214 -1.6555 -1.3781 -0.4372
 1369TIP3   OH225665   5.318   2.475   0.288  0.6430  0.0627  0.3609
 1369TIP3    H125666   5.303   2.564   0.319 -0.2910  1.1865 -2.8529
 1369TIP3    H225667   5.407   2.476   0.253  1.4242 -0.9573  2.2081
 1370TIP3   OH225668   0.471   6.257   8.049 -0.5191  0.4973  0.5807
 1370TIP3    H125669   0.553   6.212   8.067 -0.7277 -0.3246 -0.4058
 1370TIP3    H225670   0.483   6.345   8.084  1.0919  0.6456 -0.2684
 1371TIP3   OH225671   2.372   5.724   0.369  0.6999 -0.6777 -0.2622
 1371TIP3    H125672   2.349   5.648   0.422  1.5869 -0.1102  1.0007
 1371TIP3    H225673   2.293   5.745   0.319  0.5738 -2.6705 -0.9665
 1372TIP3   OH225674   2.810   5.576   0.640  0.2553  0.4538  0.3460
 1372TIP3    H125675   2.788   5.517   0.711 -1.6299  1.5148  0.7001
 1372TIP3    H225676   2.886   5.625   0.673  0.5220 -0.3117  0.8884
 1373TIP3   OH225677   4.019   6.017   0.897  0.0755 -0.0342 -0.0183
 1373TIP3    H125678   3.959   6.088   0.920  0.9449  0.9020 -0.5786
 1373TIP3    H225679   3.968   5.937   0.913 -0.8578  0.6970  0.7902
 1374TIP3   OH225680   6.423   5.268   0.722  0.3091 -0.3767 -0.1423
 1374TIP3    H125681   6.464   5.182   0.717  0.5145 -0.4097  1.6951
 1374TIP3    H225682   6.452   5.304   0.805  0.3655  1.5662 -0.9505
 1375TIP3   OH225683   3.311   2.659   2.149  0.3957 -0.3464 -0.4227
 1375TIP3    H125684   3.347   2.584   2.101  2.9167 -0.1675  0.9856
 1375TIP3    H225685   3.373   2.673   2.221 -1.7233  1.1085  1.2542
 1376TIP3   OH225686   4.892   0.651   8.521 -0.2925 -0.0671  0.7469
 1376TIP3    H125687   4.968   0.697   8.486 -0.2762 -0.0148  0.8519
 1376TIP3    H225688   4.838   0.720   8.560 -1.8882  0.4015 -1.9621
 1377TIP3   OH225689   1.003   1.466   8.853  0.1179  0.1062  0.0334
 1377TIP3    H125690   0.913   1.449   8.826 -0.3808  2.3115  0.1026
 1377TIP3    H225691   1.008   1.433   8.942 -1.5435  2.4126  1.0920
 1378TIP3   OH225692   1.212   6.693   6.667 -0.4614 -0.2844 -0.0476
 1378TIP3    H125693   1.219   6.608   6.711 -0.3820 -0.1914  0.1195
 1378TIP3    H225694   1.239   6.675   6.577 -1.1959 -0.6042 -0.2139
 1379TIP3   OH225695   5.967   4.884   8.203 -0.3220 -1.1846 -0.2094
 1379TIP3    H125696   5.873   4.886   8.217 -0.2061  3.4485  1.3561
 1379TIP3    H225697   5.998   4.813   8.260 -2.6521 -1.6552  0.5701
 1380TIP3   OH225698   2.159   4.333   1.438  0.1303 -0.2317  0.0085
 1380TIP3    H125699   2.210   4.338   1.519 -0.2466 -1.5152  0.3569
 1380TIP3    H225700   2.084   4.278   1.461  0.2576 -0.9932 -1.3301
 1381TIP3   OH225701   4.174   3.582   7.901 -0.2744  0.1095 -0.6028
 1381TIP3    H125702   4.167   3.669   7.940  1.5177 -0.8472  2.2864
 1381TIP3    H225703   4.126   3.525   7.961  0.1708 -1.1214 -1.3676
 1382TIP3   OH225704   2.713   6.022   0.053 -0.3179 -0.3819 -0.1461
 1382TIP3    H125705   2.617   6.027   0.057 -0.3530 -0.4824 -0.7120
 1382TIP3    H225706   2.732   5.928   0.049 -0.2199 -0.3533 -0.4064
 1383TIP3   OH225707   4.560   5.644   1.554 -0.1229  0.0039 -0.3643
 1383TIP3    H125708   4.588   5.730   1.525  1.0015 -0.1143  0.3277
 1383TIP3    H225709   4.624   5.584   1.516  0.4346 -0.2972  0.9872
 1384TIP3   OH225710   1.379   1.466   1.079  0.2142 -0.1845 -0.4184
 1384TIP3    H125711   1.472   1.478   1.099  0.4588 -0.8065 -1.1450
 1384TIP3    H225712   1.365   1.517   0.999 -0.2246  0.4233  0.0360
 1385TIP3   OH225713   1.203   3.948   0.346 -0.1493  0.2537  0.3839
 1385TIP3    H125714   1.289   3.986   0.360  0.3658 -0.2384 -1.2473
 1385TIP3    H225715   1.174   3.985   0.263  0.0894 -2.3218 -0.9392
 1386TIP3   OH225716   0.941   2.590   7.972 -0.1720  0.0635 -0.0753
 1386TIP3    H125717   0.873   2.654   7.949 -1.3786 -1.9081 -2.5639
 1386TIP3    H225718   0.892   2.510   7.991  1.3935 -0.7469  0.7328
 1387TIP3   OH225719   4.651   6.624   1.975 -0.0223  0.0318 -0.3281
 1387TIP3    H125720   4.611   6.679   1.907  0.6447  0.3098 -0.5037
 1387TIP3    H225721   4.721   6.678   2.012  0.3914 -0.5513 -0.2343
 1388TIP3   OH225722   4.207   1.143   1.051 -0.0722 -0.2329  0.1556
 1388TIP3    H125723   4.275   1.081   1.076 -0.5198 -1.3511 -1.2931
 1388TIP3    H225724   4.127   1.090   1.042 -0.4967  0.5627 -0.9637
 1389TIP3   OH225725   2.870   3.058   1.988  0.6637  0.2343  0.2802
 1389TIP3    H125726   2.851   3.069   2.082 -0.5400 -0.9707  0.2059
 1389TIP3    H225727   2.836   3.138   1.948 -2.0604 -0.6845  0.5043
 1390TIP3   OH225728   3.422   5.395   6.915  0.1601 -0.5932  0.4075
 1390TIP3    H125729   3.460   5.462   6.858 -0.7317 -0.0040  0.4827
 1390TIP3    H225730   3.381   5.332   6.855 -0.3316 -0.2447  0.3655
 1391TIP3   OH225731   1.952   3.175   0.965 -0.2007  0.0224  0.8573
 1391TIP3    H125732   1.999   3.181   0.882  0.7367 -0.2370  1.3513
 1391TIP3    H225733   1.901   3.095   0.958 -0.1412  0.0130  0.5210
 1392TIP3   OH225734   3.360   5.433   7.572  0.2304  0.2381 -0.1779
 1392TIP3    H125735   3.358   5.517   7.619 -1.5548 -0.4095  1.0519
 1392TIP3    H225736   3.440   5.436   7.520  1.4520  1.7161  1.6521
 1393TIP3   OH225737   3.982   5.095   0.496 -0.4429 -0.2071  0.2590
 1393TIP3    H125738   3.972   5.000   0.490 -1.8948 -0.2304  1.9713
 1393TIP3    H225739   4.064   5.108   0.542  0.7717 -0.5261 -1.7162
 1394TIP3   OH225740   3.845   2.664   2.158 -0.6467 -0.3579  0.4764
 1394TIP3    H125741   3.828   2.747   2.114 -0.0654 -0.0016  0.9087
 1394TIP3    H225742   3.844   2.599   2.088 -2.2583 -0.1710  0.2773
 1395TIP3   OH225743   2.593   3.155   7.390 -0.2942  0.3067  0.2711
 1395TIP3    H125744   2.660   3.087   7.393 -2.0449 -1.5113  0.9543
 1395TIP3    H225745   2.557   3.149   7.301  1.2385  2.1698 -0.5338
 1396TIP3   OH225746   5.316   2.769   0.404  0.2339  0.0633 -0.3589
 1396TIP3    H125747   5.379   2.712   0.448  0.7984  1.3563  0.5816
 1396TIP3    H225748   5.278   2.821   0.474 -2.9568 -1.5832 -0.7039
 1397TIP3   OH225749   6.068   0.736   7.690  0.4523  0.5787 -0.0515
 1397TIP3    H125750   6.051   0.755   7.783  0.2180 -0.5043  0.1427
 1397TIP3    H225751   6.153   0.691   7.691 -0.7238 -1.7991 -0.0292
 1398TIP3   OH225752   5.966   2.916   2.278 -0.1833  0.6049  0.7361
 1398TIP3    H125753   5.922   2.851   2.332 -1.3785  0.5759 -0.2380
 1398TIP3    H225754   5.969   2.994   2.332  1.7460 -0.3629  2.1253
 1399TIP3   OH225755   0.250   1.500   0.035 -0.1144  0.2682 -0.1470
 1399TIP3    H125756   0.265   1.413  -0.003  0.3376  0.0808  0.4550
 1399TIP3    H225757   0.327   1.551   0.009 -1.2515  1.1093 -2.1870
 1400TIP3   OH225758   1.673   3.698   1.126 -0.2698 -0.5900  0.2113
 1400TIP3    H125759   1.691   3.759   1.198 -0.4120 -1.7327  1.2569
 1400TIP3    H225760   1.755   3.649   1.116  0.5789  1.1092 -2.0525
 1401TIP3   OH225761   4.805   3.530   6.794 -0.5033 -0.0260 -0.2248
 1401TIP3    H125762   4.880   3.482   6.758 -0.8823  0.5945 -1.9381
 1401TIP3    H225763   4.788   3.598   6.730 -1.5086  0.8891  0.9731
 1402TIP3   OH225764   6.632   3.269   2.784  0.5000  0.9750 -0.4663
 1402TIP3    H125765   6.693   3.255   2.857  0.4850  1.1978 -0.4112
 1402TIP3    H225766   6.582   3.188   2.780  0.0598  1.2012  0.1902
 1403TIP3   OH225767   2.794   0.149   7.976 -0.3006 -0.2142  0.1863
 1403TIP3    H125768   2.858   0.093   8.020 -0.2803 -0.2089  0.1634
 1403TIP3    H225769   2.816   0.238   8.004 -0.0609 -0.1753 -0.1240
 1404TIP3   OH225770   4.901   5.659   2.392  0.0267 -0.3143 -0.0249
 1404TIP3    H125771   4.822   5.682   2.441 -0.7147 -1.3581 -0.6823
 1404TIP3    H225772   4.945   5.595   2.447 -0.1368 -0.5182 -0.1290
 1405TIP3   OH225773   6.519   1.311   0.436 -0.3293  0.0447 -0.6061
 1405TIP3    H125774   6.427   1.283   0.435 -0.2111 -0.6688  1.9603
 1405TIP3    H225775   6.551   1.289   0.348 -2.5669  0.2629 -1.5570
 1406TIP3   OH225776   6.516   5.439   8.624  0.1282 -0.6438 -0.0666
 1406TIP3    H125777   6.585   5.391   8.579  1.3897 -0.9580  2.1172
 1406TIP3    H225778   6.456   5.372   8.656  0.1291 -0.5262  0.1793
 1407TIP3   OH225779   1.140   3.821   0.955 -0.3847 -0.3715  0.4806
 1407TIP3    H125780   1.205   3.774   1.006  0.6045  0.0314 -0.3692
 1407TIP3    H225781   1.098   3.880   1.018  0.2438 -0.4598  0.9935
 1408TIP3   OH225782   6.317   3.265   1.407  0.3756 -0.6784  0.3102
 1408TIP3    H125783   6.377   3.236   1.476  0.5562 -3.1194 -0.7652
 1408TIP3    H225784   6.278   3.184   1.373 -0.1800  0.4638 -2.0158
 1409TIP3   OH225785   4.641   5.155   6.786 -0.5017 -0.2871  0.2788
 1409TIP3    H125786   4.682   5.242   6.785  0.6997 -0.7870  1.7190
 1409TIP3    H225787   4.548   5.172   6.801 -0.2177  0.7404  0.9699
 1410TIP3   OH225788   1.060   5.184   6.942 -0.4651 -0.3731  0.2561
 1410TIP3    H125789   1.088   5.141   7.023 -0.5826  1.7868  1.4913
 1410TIP3    H225790   0.973   5.218   6.961 -0.2339  0.7205 -0.5638
 1411TIP3   OH225791   2.231   5.247   8.596 -0.0771 -0.5763  0.3755
 1411TIP3    H125792   2.282   5.168   8.616 -0.4116 -0.4695  1.7694
 1411TIP3    H225793   2.175   5.221   8.523  1.1577 -1.0309 -0.4535
 1412TIP3   OH225794   2.575   3.974   1.041 -0.0383 -0.1405 -0.0140
 1412TIP3    H125795   2.543   3.893   1.080  0.7057 -0.8110 -0.7682
 1412TIP3    H225796   2.631   4.013   1.109 -2.6756  1.2887  1.5047
 1413TIP3   OH225797   1.579   3.383   8.009 -0.2396  0.4244  0.3398
 1413TIP3    H125798   1.539   3.460   7.967 -1.0932  0.4921  1.2561
 1413TIP3    H225799   1.665   3.413   8.037 -0.5612  1.0481  0.6725
 1414TIP3   OH225800   6.189   3.038   8.529 -0.0256 -0.0334 -0.7385
 1414TIP3    H125801   6.244   3.098   8.579 -0.5010  0.2326 -0.5362
 1414TIP3    H225802   6.163   3.087   8.452 -1.5795  0.5323  0.1100
 1415TIP3   OH225803   3.818   4.034   7.401  0.2264  0.2389 -0.6173
 1415TIP3    H125804   3.813   3.953   7.452  0.4247  0.2803 -0.5267
 1415TIP3    H225805   3.764   4.019   7.324 -1.4007  0.7519  0.3889
 1416TIP3   OH225806   5.380   2.287   7.616 -0.1276 -0.6964 -0.1666
 1416TIP3    H125807   5.447   2.311   7.681  1.5140  1.8497 -2.5895
 1416TIP3    H225808   5.428   2.243   7.547 -1.1383  0.0660 -1.3959
 1417TIP3   OH225809   0.209   0.569   0.030  0.3074  0.5160 -0.3322
 1417TIP3    H125810   0.113   0.566   0.023  0.2387  2.7992 -1.1483
 1417TIP3    H225811   0.239   0.535  -0.055  0.1801  0.9909 -0.5708
 1418TIP3   OH225812   6.494   4.281   2.035 -0.2302 -0.2907 -0.1200
 1418TIP3    H125813   6.569   4.306   2.089 -1.4957  0.5794  1.3152
 1418TIP3    H225814   6.490   4.186   2.044  1.3746 -0.5089 -1.2008
 1419TIP3   OH225815   6.249   4.015   0.334  0.0801  0.5037 -0.2809
 1419TIP3    H125816   6.225   3.987   0.423  3.5093  1.5857  1.1330
 1419TIP3    H225817   6.261   3.933   0.286 -0.8029 -0.1348  0.5340
 1420TIP3   OH225818   2.999   2.806   7.587  0.0296  0.1588 -0.1351
 1420TIP3    H125819   2.994   2.751   7.509  0.1111  0.5029 -0.3862
 1420TIP3    H225820   3.091   2.831   7.593  0.4083 -1.4130  1.1605
 1421TIP3   OH225821   6.126   6.224   1.335  0.7810 -0.4263  0.0060
 1421TIP3    H125822   6.173   6.225   1.251  2.0179  0.7210  0.6722
 1421TIP3    H225823   6.151   6.141   1.375  0.7962 -0.6323 -0.4195
 1422TIP3   OH225824   6.024   0.150   0.315  0.3206  0.1310  0.2505
 1422TIP3    H125825   6.071   0.209   0.374  2.2419 -0.5273 -0.5484
 1422TIP3    H225826   5.956   0.205   0.275  2.2056  1.9047 -0.6505
 1423TIP3   OH225827   4.999   1.893   1.968  1.0420  0.8239  0.0046
 1423TIP3    H125828   4.989   1.808   2.012 -1.3213  1.7551  1.4672
 1423TIP3    H225829   4.984   1.957   2.037  1.1158  2.4258 -1.4114
 1424TIP3   OH225830   3.464   1.118   6.567  0.1998  0.5974  0.8473
 1424TIP3    H125831   3.427   1.084   6.648  0.6821  1.1544  1.3186
 1424TIP3    H225832   3.547   1.071   6.557 -0.1794  0.0364  0.3063
 1425TIP3   OH225833   5.183   3.813   8.118 -0.1765  0.2975 -0.7990
 1425TIP3    H125834   5.254   3.877   8.118 -0.0434  0.1943  0.6273
 1425TIP3    H225835   5.104   3.866   8.121 -0.0518  0.4646  1.3402
 1426TIP3   OH225836   4.027   4.371   0.849 -0.3032 -0.7971  0.0799
 1426TIP3    H125837   4.038   4.422   0.930 -0.0584 -1.9255  0.7776
 1426TIP3    H225838   4.117   4.352   0.820 -0.3786 -1.7943  0.4625
 1427TIP3   OH225839   1.962   2.992   7.820 -0.1160  0.9414 -0.6293
 1427TIP3    H125840   1.973   2.970   7.727  0.4429 -0.3196 -0.2928
 1427TIP3    H225841   2.047   2.972   7.859 -0.1216  2.1723  0.0322
 1428TIP3   OH225842   5.584   0.403   7.456  0.5833  0.1686  0.0237
 1428TIP3    H125843   5.551   0.351   7.529 -0.9343  0.3903 -0.4602
 1428TIP3    H225844   5.513   0.465   7.436  0.8450 -0.0407 -1.7749
 1429TIP3   OH225845   4.359   0.374   7.530 -0.5969 -0.7077 -0.2263
 1429TIP3    H125846   4.452   0.388   7.510 -0.6644 -2.0152 -1.6434
 1429TIP3    H225847   4.357   0.365   7.625  0.5841  0.2685 -0.0761
 1430TIP3   OH225848   4.856   3.465   1.603 -0.1182  0.4745 -0.3060
 1430TIP3    H125849   4.865   3.473   1.698 -3.6959 -1.7436  0.4065
 1430TIP3    H225850   4.782   3.523   1.581 -0.6782 -0.5983 -1.3545
 1431TIP3   OH225851   3.618   1.680   6.518  0.0270 -0.3271  0.0174
 1431TIP3    H125852   3.711   1.674   6.498  0.0282  1.9092 -0.9460
 1431TIP3    H225853   3.589   1.589   6.524  1.8057 -1.1031 -1.9027
 1432TIP3   OH225854   0.801   6.388   8.422  0.0464 -0.2342 -0.5608
 1432TIP3    H125855   0.775   6.391   8.514  1.4457 -0.9765 -0.1222
 1432TIP3    H225856   0.723   6.418   8.375 -0.7310  0.0597  0.8454
 1433TIP3   OH225857   6.417   3.270   6.753  0.1347  0.4021 -0.2703
 1433TIP3    H125858   6.507   3.270   6.787 -0.7974 -0.4746  2.4532
 1433TIP3    H225859   6.379   3.189   6.786 -2.3012  1.7802  0.5304
 1434TIP3   OH225860   6.011   4.520   8.864  0.0335  0.3931  0.1293
 1434TIP3    H125861   6.105   4.535   8.855  0.2291 -0.5701  0.4357
 1434TIP3    H225862   5.994   4.526   8.958 -0.4089  1.5656 -0.0048
 1435TIP3   OH225863   2.215   0.573   7.966  0.1057 -0.3217  0.6049
 1435TIP3    H125864   2.304   0.543   7.949 -0.3341 -1.8257  0.7630
 1435TIP3    H225865   2.160   0.513   7.915 -0.9129 -0.9607  2.3732
 1436TIP3   OH225866   5.670   0.087   7.726  0.0535 -0.7690 -0.3805
 1436TIP3    H125867   5.690   0.089   7.820  2.2262 -1.7931 -0.7569
 1436TIP3    H225868   5.583   0.127   7.719  0.3366  0.4308  1.9245
 1437TIP3   OH225869   6.319   0.057   7.494  0.0979 -0.0876  0.2206
 1437TIP3    H125870   6.289   0.018   7.412 -0.3192 -0.4066  0.5195
 1437TIP3    H225871   6.239   0.069   7.545  0.4931 -1.2357  1.1655
 1438TIP3   OH225872   2.981   0.661   2.025 -0.0822 -0.4687 -0.3788
 1438TIP3    H125873   3.019   0.592   2.080 -0.8603 -0.7974 -0.2366
 1438TIP3    H225874   2.962   0.733   2.086 -3.8291 -1.9444  0.5162
 1439TIP3   OH225875   1.477   5.806   0.677 -0.5025 -0.1041 -0.2501
 1439TIP3    H125876   1.547   5.745   0.655 -0.9579 -0.4485 -0.7476
 1439TIP3    H225877   1.517   5.893   0.669  0.9150 -0.3337  3.0057
 1440TIP3   OH225878   2.921   5.609   7.529  0.3490 -0.2641  0.4832
 1440TIP3    H125879   2.997   5.553   7.511 -1.3416 -2.3118 -0.7257
 1440TIP3    H225880   2.895   5.586   7.618  0.0183 -1.0001  0.2046
 1441TIP3   OH225881   5.539   0.023   6.573 -0.7919  0.0995  0.4152
 1441TIP3    H125882   5.494  -0.052   6.613 -1.0819 -0.4864 -0.9517
 1441TIP3    H225883   5.512   0.098   6.626 -0.9427 -0.6766  1.4703
 1442TIP3   OH225884   4.379   0.936   8.438 -0.5536  0.5572 -0.1325
 1442TIP3    H125885   4.348   0.857   8.395 -0.9981  0.8300 -0.3311
 1442TIP3    H225886   4.334   0.937   8.523  1.0153 -0.4501  0.7542
 1443TIP3   OH225887   2.810   0.088   8.434  0.3438 -0.2409  0.2210
 1443TIP3    H125888   2.825   0.163   8.377  0.9970 -0.4148  0.1550
 1443TIP3    H225889   2.734   0.113   8.487  1.0149  0.7831  0.7393
 1444TIP3   OH225890   0.460   1.541   2.045  0.0572  0.0110  0.1969
 1444TIP3    H125891   0.427   1.598   2.114  1.1910  1.1410 -0.1591
 1444TIP3    H225892   0.382   1.498   2.010 -0.8620  1.4615  0.3723
 1445TIP3   OH225893   1.221   1.094   7.677 -0.2852 -0.2876 -0.2987
 1445TIP3    H125894   1.181   1.181   7.685 -1.9002 -0.9323 -0.9993
 1445TIP3    H225895   1.157   1.042   7.630  0.4958 -1.9841  0.4190
 1446TIP3   OH225896   0.980   2.377   2.523 -0.1860  0.0179 -0.4287
 1446TIP3    H125897   1.041   2.450   2.511 -1.0535  1.4464  2.6689
 1446TIP3    H225898   0.894   2.416   2.508 -0.5956 -0.6940  0.0536
 1447TIP3   OH225899   3.203   0.154   1.132 -0.6005 -0.1018  0.7840
 1447TIP3    H125900   3.115   0.191   1.138  0.3105  1.9834  3.2504
 1447TIP3    H225901   3.222   0.122   1.220  1.3950  0.2861  0.5628
 1448TIP3   OH225902   1.540   2.438   0.629 -0.7020  0.3146 -0.4046
 1448TIP3    H125903   1.569   2.517   0.674  0.9858  0.3113 -1.4083
 1448TIP3    H225904   1.515   2.378   0.699 -1.6525  1.5820  0.3836
 1449TIP3   OH225905   6.067   4.907   8.826  0.1072 -0.2468  0.7273
 1449TIP3    H125906   5.971   4.907   8.826  0.0947  0.0553 -0.4372
 1449TIP3    H225907   6.091   4.996   8.803  0.6297 -0.7761 -0.9407
 1450TIP3   OH225908   4.641   5.136   7.769 -0.1332  0.0239 -0.3604
 1450TIP3    H125909   4.631   5.130   7.864 -2.0543  3.0048 -0.2412
 1450TIP3    H225910   4.583   5.069   7.734 -0.5755 -0.0918  0.5698
 1451TIP3   OH225911   2.717   2.692   1.741  0.3153 -0.2915 -0.1236
 1451TIP3    H125912   2.690   2.783   1.727 -0.8315 -0.7927 -1.5171
 1451TIP3    H225913   2.705   2.651   1.655  0.9367 -1.7258  0.4536
 1452TIP3   OH225914   3.279   3.373   1.435 -0.5362  0.5347  0.0047
 1452TIP3    H125915   3.324   3.414   1.509  0.6338 -1.2623  0.3364
 1452TIP3    H225916   3.345   3.370   1.366 -0.1286 -1.9065  0.4118
 1453TIP3   OH225917   1.527   2.021   2.018 -0.2252 -0.8280  0.2277
 1453TIP3    H125918   1.558   1.934   2.042  1.2150  0.4011  3.2370
 1453TIP3    H225919   1.601   2.060   1.971  0.4389 -0.1130  1.8182
 1454TIP3   OH225920   4.735   4.246   6.981  0.9852  0.5255  0.4503
 1454TIP3    H125921   4.697   4.195   6.909  0.6059 -0.8265  1.5749
 1454TIP3    H225922   4.811   4.288   6.942  1.5137 -1.1780 -0.4599
 1455TIP3   OH225923   0.202   4.633   7.643 -0.2237 -0.3283  0.2695
 1455TIP3    H125924   0.107   4.645   7.647 -0.0191  1.1230  2.6867
 1455TIP3    H225925   0.236   4.682   7.718  2.7348  2.0774 -2.3607
 1456TIP3   OH225926   0.436   5.648   1.233  0.1112  0.2316  0.0556
 1456TIP3    H125927   0.382   5.602   1.169  0.8646 -1.0218  0.2809
 1456TIP3    H225928   0.523   5.651   1.193  0.1316  1.3125  0.1420
 1457TIP3   OH225929   3.566   6.140   7.662 -0.6500 -0.7908 -0.1515
 1457TIP3    H125930   3.624   6.186   7.723 -1.1205  1.6192 -1.3928
 1457TIP3    H225931   3.483   6.133   7.709 -0.5755 -0.3198  0.0550
 1458TIP3   OH225932   3.537   0.934   1.246 -0.6475 -0.0502 -0.5716
 1458TIP3    H125933   3.563   0.853   1.202 -0.5925  0.4258 -1.4368
 1458TIP3    H225934   3.600   0.999   1.216  1.9507 -0.4776  3.3195
 1459TIP3   OH225935   5.578   5.274   0.382  0.3636 -0.0779  0.0301
 1459TIP3    H125936   5.593   5.244   0.471 -0.4838  0.0585  0.2351
 1459TIP3    H225937   5.578   5.370   0.388  2.8024  0.0218 -0.5738
 1460TIP3   OH225938   0.326   4.295   7.408  0.1840  0.4719  0.2458
 1460TIP3    H125939   0.284   4.236   7.471  1.1524 -0.2722  0.2312
 1460TIP3    H225940   0.420   4.285   7.425  0.4088  1.1887 -0.4990
 1461TIP3   OH225941   3.035   2.538   7.496  0.0563 -0.5552  0.6854
 1461TIP3    H125942   3.043   2.444   7.483  0.7085 -0.4120 -0.0839
 1461TIP3    H225943   3.090   2.576   7.427 -0.2628  0.3862  0.9340
 1462TIP3   OH225944   4.233   1.032   8.209 -0.1364  0.2300 -0.1689
 1462TIP3    H125945   4.264   1.026   8.299  1.1036  0.1611 -0.5865
 1462TIP3    H225946   4.220   0.941   8.182 -1.0408  0.2658  0.0993
 1463TIP3   OH225947   2.247   3.803   1.610  0.2200 -0.6516 -0.0605
 1463TIP3    H125948   2.260   3.868   1.541  1.1638 -0.6176  0.1411
 1463TIP3    H225949   2.304   3.831   1.681  2.3131 -2.8137 -0.7480
 1464TIP3   OH225950   1.921   3.592   1.086 -0.4318  0.2112 -0.0092
 1464TIP3    H125951   1.971   3.657   1.135  1.0485  0.4744 -1.7991
 1464TIP3    H225952   1.960   3.508   1.111  0.0461  0.3092 -0.4272
 1465TIP3   OH225953   6.334   0.298   8.730  0.5314 -0.3550  0.6318
 1465TIP3    H125954   6.368   0.264   8.647  2.4557  1.4233  0.6131
 1465TIP3    H225955   6.370   0.240   8.797  0.6573 -0.5963  0.3578
 1466TIP3   OH225956   6.664   3.138   8.379  0.1934 -0.2283  0.0743
 1466TIP3    H125957   6.750   3.175   8.400 -0.3853  0.2832  1.6952
 1466TIP3    H225958   6.640   3.178   8.295  0.8154  0.9101  0.4237
 1467TIP3   OH225959   4.504   6.765   0.264 -0.7339 -0.2851  0.0576
 1467TIP3    H125960   4.540   6.850   0.291  0.4407 -0.1969 -1.6612
 1467TIP3    H225961   4.415   6.765   0.299 -0.7170  1.6049  0.2164
 1468TIP3   OH225962   2.780   4.696   7.486 -0.3100 -0.1029 -0.2282
 1468TIP3    H125963   2.780   4.789   7.508 -1.1740  0.0894 -0.9983
 1468TIP3    H225964   2.767   4.652   7.570 -1.5339  0.5415 -0.0642
 1469TIP3   OH225965   2.312   5.466   0.427 -0.3768  0.4654 -0.2521
 1469TIP3    H125966   2.387   5.409   0.445  0.8256  1.8686 -0.6324
 1469TIP3    H225967   2.253   5.411   0.374  1.1173 -0.1923 -1.3305
 1470TIP3   OH225968   4.349   0.874   0.097 -0.5294 -0.7593 -0.0530
 1470TIP3    H125969   4.338   0.965   0.070  1.1076 -0.6890 -0.6074
 1470TIP3    H225970   4.433   0.874   0.142 -0.4930 -2.0168 -0.1091
 1471TIP3   OH225971   1.205   1.085   1.320 -0.5185 -0.1291 -0.1569
 1471TIP3    H125972   1.232   0.999   1.289  0.0209 -0.9201  2.3090
 1471TIP3    H225973   1.283   1.140   1.311 -0.5502 -0.1736 -0.7320
 1472TIP3   OH225974   2.825   1.812   6.896 -0.3016 -0.0359  0.2554
 1472TIP3    H125975   2.908   1.786   6.856 -0.7609  0.6642 -1.1818
 1472TIP3    H225976   2.810   1.745   6.963  0.9190 -0.7355 -0.1313
 1473TIP3   OH225977   6.214   1.018   0.980  0.5312 -0.1911  0.1306
 1473TIP3    H125978   6.128   1.001   1.016 -0.2660  0.8658 -1.1784
 1473TIP3    H225979   6.238   1.104   1.014 -0.4994  1.1038 -2.1960
 1474TIP3   OH225980   5.472   0.976   1.449  0.4038  0.3894  0.6810
 1474TIP3    H125981   5.381   0.989   1.476  0.3480  0.3279  0.5240
 1474TIP3    H225982   5.480   0.882   1.435 -0.0571  0.6010 -1.2297
 1475TIP3   OH225983   4.195   1.866   0.932 -0.0655  0.0822  0.1940
 1475TIP3    H125984   4.192   1.770   0.929 -0.6271  0.0770  0.7899
 1475TIP3    H225985   4.133   1.893   0.863  0.6186  0.0281 -0.4562
 1476TIP3   OH225986   2.015   5.408   1.710  0.4560  0.1097  0.3491
 1476TIP3    H125987   1.980   5.361   1.786 -0.2586  1.2145  0.7317
 1476TIP3    H225988   2.000   5.348   1.636  0.9243 -0.8712  1.0232
 1477TIP3   OH225989   3.388   5.102   1.476  0.2139  0.0361 -0.1309
 1477TIP3    H125990   3.398   5.135   1.566 -1.3571 -0.7683  0.3861
 1477TIP3    H225991   3.346   5.016   1.488  1.9616 -1.0712 -1.5348
 1478TIP3   OH225992   4.103   1.619   7.910  0.2545  0.4937 -0.2497
 1478TIP3    H125993   4.085   1.687   7.975  0.2562  1.1728 -0.9408
 1478TIP3    H225994   4.019   1.602   7.868  0.1320 -0.3779  0.3241
 1479TIP3   OH225995   0.550   2.284   6.662 -0.3468 -0.1144  0.2129
 1479TIP3    H125996   0.459   2.258   6.673 -0.4210  0.1322  0.1901
 1479TIP3    H225997   0.581   2.233   6.586 -0.3895 -0.3854  0.3757
 1480TIP3   OH225998   1.001   0.182   0.057  0.3245 -0.1954 -0.0353
 1480TIP3    H125999   1.063   0.244   0.018 -0.8040  0.3906 -0.9869
 1480TIP3    H226000   1.055   0.120   0.106  1.5025  1.3882  0.7217
 1481TIP3   OH226001   6.173   6.381   8.145  0.1747 -0.5533  0.1739
 1481TIP3    H126002   6.197   6.295   8.179 -0.0528 -0.0250  1.7475
 1481TIP3    H226003   6.174   6.439   8.222 -1.4473  0.4778 -0.5191
 1482TIP3   OH226004   1.962   6.221   8.714  0.5050  0.0076 -0.3708
 1482TIP3    H126005   1.999   6.192   8.797  1.2188  0.3846 -0.5509
 1482TIP3    H226006   1.870   6.241   8.734  0.4801 -0.6144  0.1544
 1483TIP3   OH226007   3.681   1.017   6.774 -0.2158 -0.4123  0.4183
 1483TIP3    H126008   3.748   0.955   6.803  1.2322  0.6051 -0.6281
 1483TIP3    H226009   3.690   1.018   6.679  0.3730  2.0092  0.4528
 1484TIP3   OH226010   0.725   2.394   6.854 -0.2707 -0.7504  0.0229
 1484TIP3    H126011   0.719   2.485   6.882  1.0017 -0.5755 -0.1981
 1484TIP3    H226012   0.659   2.385   6.786 -0.3549  0.0300 -0.0043
 1485TIP3   OH226013   6.138   3.200   8.322  0.6070 -0.1881 -0.1659
 1485TIP3    H126014   6.156   3.183   8.229  0.1432 -3.4850  0.2210
 1485TIP3    H226015   6.224   3.205   8.363  0.7981  0.4015 -0.6248
 1486TIP3   OH226016   2.824   1.592   1.085 -0.4166 -0.7800  0.9013
 1486TIP3    H126017   2.917   1.579   1.068 -0.3610  1.5148 -1.1880
 1486TIP3    H226018   2.796   1.512   1.130  2.3586 -1.8882  0.8507
 1487TIP3   OH226019   1.168   6.045   0.524 -0.3767 -0.1406  0.0944
 1487TIP3    H126020   1.125   5.972   0.567 -0.8679  0.2598  0.2839
 1487TIP3    H226021   1.175   6.112   0.591  0.7365 -0.2695  0.1294
 1488TIP3   OH226022   1.968   2.143   1.488  0.1503 -0.2962  0.0895
 1488TIP3    H126023   1.955   2.207   1.418  0.6828  0.6768  0.8600
 1488TIP3    H226024   1.956   2.193   1.569 -1.2563 -1.5707  0.7176
 1489TIP3   OH226025   2.461   4.619   1.335 -0.1256 -0.2117 -0.2514
 1489TIP3    H126026   2.546   4.587   1.364 -0.1661 -0.9497 -0.9357
 1489TIP3    H226027   2.481   4.677   1.262 -0.1191  0.6880  0.4447
 1490TIP3   OH226028   3.538   5.900   6.881 -0.4582 -0.0443  0.8266
 1490TIP3    H126029   3.573   5.891   6.970 -0.0744 -0.1400  0.6659
 1490TIP3    H226030   3.614   5.892   6.824 -1.0129 -2.9254  0.3309
 1491TIP3   OH226031   0.079   4.582   1.509 -0.1480  0.0726 -0.2403
 1491TIP3    H126032  -0.001   4.575   1.562 -0.2941  0.5828 -0.3882
 1491TIP3    H226033   0.150   4.589   1.572 -0.4522  2.3146 -0.0673
 1492TIP3   OH226034   6.244   1.576   7.033  0.1813 -0.7422  0.0206
 1492TIP3    H126035   6.251   1.483   7.011 -1.6817 -0.5146 -1.7849
 1492TIP3    H226036   6.159   1.603   7.000 -0.6059  0.9840  3.0779
 1493TIP3   OH226037   5.118   1.260   1.479  0.1682  0.0580 -0.6676
 1493TIP3    H126038   5.198   1.253   1.530  0.1345  0.1202 -0.6070
 1493TIP3    H226039   5.107   1.354   1.464  0.4013  0.0125 -1.1414
 1494TIP3   OH226040   1.531   0.572   0.645 -0.1359  0.4326 -0.2480
 1494TIP3    H126041   1.609   0.555   0.592 -0.1140 -0.7245  0.1212
 1494TIP3    H226042   1.563   0.573   0.735 -0.4711  0.4722 -0.1287
 1495TIP3   OH226043   6.099   5.972   2.227 -0.1801  0.1171 -0.3709
 1495TIP3    H126044   6.183   5.999   2.264 -0.5906  1.5555 -0.4335
 1495TIP3    H226045   6.082   5.887   2.267  0.6412  0.4415  0.7348
 1496TIP3   OH226046   4.027   2.815   7.619 -0.1481 -0.4644 -0.0431
 1496TIP3    H126047   4.068   2.894   7.653 -0.0564 -1.8819  3.5264
 1496TIP3    H226048   4.097   2.750   7.617 -0.5277 -0.8702 -1.5842
 1497TIP3   OH226049   1.323   5.208   1.000 -0.4435  0.5507 -0.1702
 1497TIP3    H126050   1.338   5.118   1.028  2.9757  0.7028 -1.1546
 1497TIP3    H226051   1.305   5.256   1.082 -0.2292 -0.6361  0.5943
 1498TIP3   OH226052   4.296   4.273   0.939  0.3160 -0.1630  0.1647
 1498TIP3    H126053   4.252   4.288   1.023  0.0369 -1.0865  0.1910
 1498TIP3    H226054   4.336   4.187   0.948  1.0707  0.1264 -0.3213
 1499TIP3   OH226055   3.440   2.864   7.869 -0.8151 -0.1956  0.4668
 1499TIP3    H126056   3.466   2.952   7.895 -1.5515  0.2546 -0.2750
 1499TIP3    H226057   3.358   2.876   7.821 -0.2480 -1.1363 -0.8077
 1500TIP3   OH226058   6.300   1.089   6.501 -0.3355  0.2848 -0.7414
 1500TIP3    H126059   6.302   1.152   6.572  1.1633  0.3963 -0.8337
 1500TIP3    H226060   6.227   1.031   6.521  0.8496 -0.5006  1.6153
 1501TIP3   OH226061   3.803   5.814   8.059 -0.1863 -0.1213  0.4988
 1501TIP3    H126062   3.729   5.802   8.000 -0.7769  0.6639  1.0725
 1501TIP3    H226063   3.779   5.889   8.113  1.5833  1.0323 -0.2084
 1502TIP3   OH226064   4.754   0.247   1.424 -0.0608 -0.0796  0.2622
 1502TIP3    H126065   4.737   0.335   1.392  0.4740 -0.4448 -1.0914
 1502TIP3    H226066   4.668   0.205   1.425 -0.3148  0.4432  0.9103
 1503TIP3   OH226067   4.072   5.359   7.645 -0.4786  0.2822 -0.1491
 1503TIP3    H126068   4.093   5.285   7.702 -1.3742 -0.8311 -1.2052
 1503TIP3    H226069   4.041   5.427   7.705 -1.3732 -0.8372  0.7104
 1504TIP3   OH226070   4.104   2.322   8.273  0.0856  0.8038 -0.1609
 1504TIP3    H126071   4.144   2.388   8.216 -0.2203 -0.1711 -1.5748
 1504TIP3    H226072   4.092   2.246   8.216  1.4684 -0.8983  1.6802
 1505TIP3   OH226073   1.720   2.711   1.993  0.1994  0.7057 -0.1617
 1505TIP3    H126074   1.644   2.665   1.956 -0.1384  1.0365  0.1129
 1505TIP3    H226075   1.789   2.645   1.997 -0.2649  0.2350  0.1840
 1506TIP3   OH226076   4.149   2.547   8.512  0.2986  0.1180  0.0356
 1506TIP3    H126077   4.128   2.549   8.605  2.1806 -1.5027  0.5527
 1506TIP3    H226078   4.155   2.454   8.491 -0.8863  0.4329 -1.9323
 1507TIP3   OH226079   2.442   0.990   6.969 -0.6162  0.5513 -0.2043
 1507TIP3    H126080   2.385   0.961   7.041  0.6225  0.3311  0.7141
 1507TIP3    H226081   2.522   1.021   7.012 -0.1100  1.0602 -1.4567
 1508TIP3   OH226082   2.190   0.691   7.343 -0.3120  0.3145  0.0113
 1508TIP3    H126083   2.188   0.667   7.435 -2.9273  0.7858  0.1720
 1508TIP3    H226084   2.112   0.648   7.306  0.1312  0.9530 -1.7443
 1509TIP3   OH226085   1.266   0.404   1.254 -0.5241 -0.5361  0.2906
 1509TIP3    H126086   1.353   0.385   1.291 -0.0297  0.5619 -0.2557
 1509TIP3    H226087   1.247   0.330   1.197  0.4628 -0.3621 -0.2800
 1510TIP3   OH226088   4.093   5.427   7.198 -0.2647  0.1910  0.0231
 1510TIP3    H126089   4.188   5.424   7.209 -0.3293 -0.7382  0.4067
 1510TIP3    H226090   4.074   5.520   7.185  0.5355  0.5794  1.3736
 1511TIP3   OH226091   4.469   2.333   8.137  0.2315 -0.4705  0.3914
 1511TIP3    H126092   4.522   2.384   8.076  1.5294 -1.5991  0.5255
 1511TIP3    H226093   4.524   2.325   8.215 -0.6152 -0.6881  0.9765
 1512TIP3   OH226094   0.676   4.143   1.720 -0.0428  0.2996 -0.4153
 1512TIP3    H126095   0.650   4.058   1.754  0.2959  0.6645  0.8286
 1512TIP3    H226096   0.771   4.135   1.705 -0.1354  0.2412 -0.9822
 1513TIP3   OH226097   0.900   3.430   7.389  0.1761 -0.7332  0.6036
 1513TIP3    H126098   0.822   3.379   7.410 -0.1075  0.3242  2.2730
 1513TIP3    H226099   0.973   3.377   7.421  0.0590 -1.0833  0.3043
 1514TIP3   OH226100   6.390   1.727   2.591 -0.1562 -0.4829  0.3256
 1514TIP3    H126101   6.375   1.634   2.607  1.2104 -0.9183 -0.7555
 1514TIP3    H226102   6.383   1.737   2.496 -0.9673  0.6623  0.4819
 1515TIP3   OH226103   4.628   6.135   8.717 -0.0958  0.1967  0.0233
 1515TIP3    H126104   4.535   6.140   8.698  0.3854  2.9130 -2.2977
 1515TIP3    H226105   4.647   6.212   8.771  0.5792 -1.3489  2.1441
 1516TIP3   OH226106   6.445   2.871   7.857 -0.8941 -0.2449 -0.0571
 1516TIP3    H126107   6.362   2.852   7.901 -0.7111  0.6902  0.7477
 1516TIP3    H226108   6.426   2.949   7.804  0.0302  1.5252  2.0505
 1517TIP3   OH226109   4.983   3.147   7.522 -0.3072  0.1578 -0.3616
 1517TIP3    H126110   5.072   3.165   7.552  0.7595  0.4180 -3.3341
 1517TIP3    H226111   4.931   3.221   7.554  0.6414  0.3011  0.9134
 1518TIP3   OH226112   2.222   5.818   0.109  0.3111 -0.1641  0.3255
 1518TIP3    H126113   2.280   5.767   0.053 -0.8536 -2.6609  1.2725
 1518TIP3    H226114   2.181   5.881   0.050  0.6091 -1.3709 -1.2259
 1519TIP3   OH226115   1.370   2.785   1.763 -0.1752  0.2564  0.2010
 1519TIP3    H126116   1.464   2.791   1.745 -0.2523  1.1462  0.0379
 1519TIP3    H226117   1.361   2.713   1.826  0.4283 -0.9933 -1.0798
 1520TIP3   OH226118   3.080   5.789   6.798 -0.0397  0.0987 -0.0098
 1520TIP3    H126119   3.154   5.768   6.740 -0.2973 -0.6783 -0.0741
 1520TIP3    H226120   3.113   5.770   6.886 -0.6338 -1.8344 -0.1400
 1521TIP3   OH226121   0.862   5.402   1.916 -0.1742  0.1132 -0.0947
 1521TIP3    H126122   0.922   5.360   1.977 -0.9834 -0.9047  0.0229
 1521TIP3    H226123   0.882   5.495   1.922  0.7036 -0.1177  0.6738
 1522TIP3   OH226124   1.472   0.570   2.631 -0.2734  0.1277  0.0944
 1522TIP3    H126125   1.554   0.523   2.647  0.5506  1.3181 -0.5808
 1522TIP3    H226126   1.435   0.528   2.554 -0.6851 -0.8819  0.8108
 1523TIP3   OH226127   3.343   4.456   8.680 -0.4381 -0.0643  0.0917
 1523TIP3    H126128   3.363   4.465   8.774 -2.0739  2.1654  0.2962
 1523TIP3    H226129   3.320   4.364   8.670  1.9308 -0.9146  1.3675
 1524TIP3   OH226130   5.976   3.904   1.958 -0.5448  0.0569 -0.1180
 1524TIP3    H126131   5.882   3.891   1.943 -1.0758  3.1605 -0.0507
 1524TIP3    H226132   5.981   3.942   2.045  0.6266  1.2821 -0.6926
 1525TIP3   OH226133   3.945   5.378   8.733 -0.3879 -0.0792 -0.3628
 1525TIP3    H126134   3.883   5.446   8.705 -1.6465 -0.9943  0.0985
 1525TIP3    H226135   3.923   5.361   8.824 -0.0386 -1.0330 -0.4379
 1526TIP3   OH226136   3.805   2.508   0.744 -0.5051 -0.3874 -0.2373
 1526TIP3    H126137   3.811   2.599   0.717  0.1463 -0.5079 -0.5224
 1526TIP3    H226138   3.892   2.487   0.778 -1.3866 -0.0937  2.4836
 1527TIP3   OH226139   4.056   2.063   6.698  0.2428  0.3946 -0.5230
 1527TIP3    H126140   3.973   2.072   6.745  1.9050  0.3887  2.6795
 1527TIP3    H226141   4.050   1.977   6.656 -1.2776  0.3337 -0.2611
 1528TIP3   OH226142   2.291   3.852   7.531 -0.1088 -0.2301  0.1989
 1528TIP3    H126143   2.347   3.866   7.455 -0.1731 -0.1000  0.1752
 1528TIP3    H226144   2.336   3.785   7.582 -1.2938 -2.1730 -1.1942
 1529TIP3   OH226145   1.244   1.208   0.960  0.3542 -0.4851  0.4040
 1529TIP3    H126146   1.301   1.205   0.883  0.8080 -0.3661  0.7241
 1529TIP3    H226147   1.293   1.260   1.023 -0.8815  1.1212  0.0876
 1530TIP3   OH226148   6.524   6.021   0.421  0.3389 -0.1640 -0.2231
 1530TIP3    H126149   6.480   6.060   0.345 -0.4945 -1.7147 -0.5758
 1530TIP3    H226150   6.453   5.983   0.473  0.9768  0.1828  0.9533
 1531TIP3   OH226151   3.698   2.879   0.149  0.2612  0.7525  0.2691
 1531TIP3    H126152   3.764   2.913   0.088  2.2658 -2.1444  0.6116
 1531TIP3    H226153   3.685   2.788   0.123 -3.6620  1.1370  0.3068
 1532TIP3   OH226154   2.873   1.913   7.899 -0.3420 -0.0777  0.3903
 1532TIP3    H126155   2.778   1.925   7.899 -0.3738 -0.1040 -1.1700
 1532TIP3    H226156   2.907   1.995   7.863  0.3033  0.2690  1.7335
 1533TIP3   OH226157   6.127   5.266   1.176  0.3225  0.0772 -0.2171
 1533TIP3    H126158   6.158   5.299   1.260 -2.0668 -0.6166  1.0402
 1533TIP3    H226159   6.192   5.200   1.151  1.2145  0.4680  0.9717
 1534TIP3   OH226160   3.205   2.482   0.169 -0.0715  0.3112 -0.0650
 1534TIP3    H126161   3.182   2.535   0.093  0.1133  0.7853  0.2060
 1534TIP3    H226162   3.126   2.429   0.187 -0.1372  0.2478 -0.5385
 1535TIP3   OH226163   3.702   4.873   8.838 -0.2904 -0.3315  0.0677
 1535TIP3    H126164   3.778   4.922   8.806  1.2055 -1.7051  1.3251
 1535TIP3    H226165   3.633   4.890   8.773  0.9327  1.3363 -0.8668
 1536TIP3   OH226166   6.399   1.667   1.562  0.2605 -0.3232 -0.1418
 1536TIP3    H126167   6.401   1.654   1.467 -1.4455  3.4712 -0.8575
 1536TIP3    H226168   6.489   1.649   1.590  0.9169 -1.1656 -2.4760
 1537TIP3   OH226169   5.838   6.218   2.450 -0.2649  0.0623 -0.5042
 1537TIP3    H126170   5.747   6.195   2.468  0.1401 -2.2862 -1.0606
 1537TIP3    H226171   5.834   6.306   2.412 -2.1784  0.4235  0.4070
 1538TIP3   OH226172   2.355   2.668   7.876 -0.3524 -0.0325  0.0864
 1538TIP3    H126173   2.261   2.666   7.891 -0.5363  1.3104 -0.6593
 1538TIP3    H226174   2.371   2.755   7.839  1.3513  0.1994  1.2667
 1539TIP3   OH226175   6.314   2.213   6.899  0.5135  0.1433 -0.2493
 1539TIP3    H126176   6.361   2.140   6.940 -0.2511  0.3339  0.9867
 1539TIP3    H226177   6.373   2.287   6.907  0.3215  0.2076  0.6290
 1540TIP3   OH226178   3.253   1.159   6.399 -0.2091 -0.7050  0.4737
 1540TIP3    H126179   3.223   1.069   6.387  0.8791 -1.4235  2.6889
 1540TIP3    H226180   3.324   1.153   6.462  1.6246  1.4538 -1.2005
 1541TIP3   OH226181   1.592   0.024   6.894  0.1447  0.4291  0.4349
 1541TIP3    H126182   1.666   0.018   6.833  0.7626  0.4212  1.1807
 1541TIP3    H226183   1.519   0.055   6.839  0.9773  1.5278 -0.0916
 1542TIP3   OH226184   5.352   4.127   1.077  0.5570  0.0947 -0.3596
 1542TIP3    H126185   5.376   4.058   1.015  0.0561  1.2170 -1.8808
 1542TIP3    H226186   5.385   4.208   1.037  0.5963  0.8132  1.0675
 1543TIP3   OH226187   1.288   2.600   1.431  0.1437 -0.4225  0.8977
 1543TIP3    H126188   1.367   2.548   1.415  0.4909  0.1748  0.6723
 1543TIP3    H226189   1.277   2.599   1.526  0.9631  0.2887  1.0050
 1544TIP3   OH226190   0.369   2.361   0.008  0.1987 -0.5186  0.1638
 1544TIP3    H126191   0.429   2.297  -0.030  0.8121 -0.2517  0.6702
 1544TIP3    H226192   0.408   2.384   0.092 -0.2823  0.1414  0.2163
 1545TIP3   OH226193   2.986   5.447   8.332 -0.0160 -0.0115 -0.1436
 1545TIP3    H126194   3.063   5.494   8.300 -0.1134  0.0814 -0.2463
 1545TIP3    H226195   2.991   5.361   8.291 -0.9090  0.5809 -1.6087
 1546TIP3   OH226196   2.863   1.770   7.468 -0.1488 -0.2961  0.4405
 1546TIP3    H126197   2.881   1.735   7.556 -0.5526  1.8954  1.4616
 1546TIP3    H226198   2.770   1.792   7.470  0.2563  1.5943  0.1844
 1547TIP3   OH226199   2.166   0.374   6.890 -0.2059 -0.2381 -0.0471
 1547TIP3    H126200   2.115   0.366   6.810  0.3248  1.5210 -0.5845
 1547TIP3    H226201   2.254   0.345   6.866 -0.7761 -3.0362  0.8190
 1548TIP3   OH226202   2.728   1.154   6.728 -0.0697  0.0133 -0.5920
 1548TIP3    H126203   2.643   1.131   6.764 -0.7945  0.8885 -1.6696
 1548TIP3    H226204   2.780   1.180   6.804  0.4699 -3.8538  0.6008
 1549TIP3   OH226205   6.048   3.291   7.612  0.4154 -0.5000 -0.2824
 1549TIP3    H126206   6.092   3.316   7.531  0.1196  1.6310  0.1574
 1549TIP3    H226207   6.104   3.328   7.681 -1.8522  2.1937  0.3061
 1550TIP3   OH226208   6.570   1.257   0.182 -0.1495  0.3321  0.0066
 1550TIP3    H126209   6.532   1.260   0.094  0.0597 -0.3066 -0.1098
 1550TIP3    H226210   6.660   1.229   0.168 -0.8853 -2.6720  0.6427
 1551TIP3   OH226211   0.961   5.862   6.831 -0.1846 -0.0390 -0.8098
 1551TIP3    H126212   0.872   5.857   6.865  0.8368  0.5330  2.2533
 1551TIP3    H226213   0.982   5.772   6.805 -0.8232 -0.6843  0.8100
 1552TIP3   OH226214   6.311   5.136   0.177 -0.1513 -0.2208  0.0227
 1552TIP3    H126215   6.402   5.106   0.178 -0.4392 -1.1938  1.9203
 1552TIP3    H226216   6.305   5.197   0.250 -1.1407 -0.6095  0.2810
 1553TIP3   OH226217   0.432   2.125   1.794 -0.1389 -0.3217 -0.2574
 1553TIP3    H126218   0.454   2.053   1.854  0.8870 -0.2969 -0.5977
 1553TIP3    H226219   0.504   2.188   1.805 -0.0290 -0.2423 -1.3996
 1554TIP3   OH226220   6.613   0.960   2.460  0.4066  0.7827  0.4554
 1554TIP3    H126221   6.549   0.944   2.391  0.0490 -1.0116  1.1393
 1554TIP3    H226222   6.562   0.999   2.531  0.4231  0.9305  0.3881
 1555TIP3   OH226223   5.540   5.461   8.479 -0.5100 -0.2520 -0.4760
 1555TIP3    H126224   5.567   5.421   8.397  0.6262  1.2655 -0.8761
 1555TIP3    H226225   5.585   5.546   8.481 -3.5456  1.4870 -0.1347
 1556TIP3   OH226226   6.168   3.044   0.790  0.2595  0.2593 -0.3938
 1556TIP3    H126227   6.244   2.986   0.782 -1.1449 -1.8780  0.6973
 1556TIP3    H226228   6.099   2.998   0.743 -0.7252  1.4503 -0.1449
 1557TIP3   OH226229   3.808   3.082   7.959  0.0421 -0.2788  0.0748
 1557TIP3    H126230   3.871   3.144   7.922  0.6781  0.5925  2.4455
 1557TIP3    H226231   3.863   3.013   7.997 -0.4849 -0.2965  0.8154
 1558TIP3   OH226232   2.490   5.928   1.023  0.1841 -0.3854 -0.3545
 1558TIP3    H126233   2.413   5.885   1.058 -0.6538  0.9968 -0.4381
 1558TIP3    H226234   2.482   5.918   0.928  0.1593 -0.3123 -0.3599
 1559TIP3   OH226235   0.812   5.245   2.450  0.1371  0.0917 -0.5276
 1559TIP3    H126236   0.796   5.225   2.542 -2.3142  3.8173  0.0718
 1559TIP3    H226237   0.738   5.206   2.404 -0.2394  0.7315 -0.4754
 1560TIP3   OH226238   4.278   2.527   8.177 -0.0830  0.3579 -0.2497
 1560TIP3    H126239   4.325   2.571   8.249 -0.7766  1.6768 -0.5629
 1560TIP3    H226240   4.347   2.483   8.127  0.5043  0.0908  0.7549
 1561TIP3   OH226241   0.767   6.168   1.907  0.6963 -0.0964  0.2887
 1561TIP3    H126242   0.735   6.183   1.818 -1.7976 -2.0034  0.7505
 1561TIP3    H226243   0.707   6.219   1.963  0.7341 -0.8156  0.9994
 1562TIP3   OH226244   0.654   3.550   7.637 -0.0073 -0.5016 -0.2523
 1562TIP3    H126245   0.693   3.556   7.725 -0.5018  0.5476 -0.0999
 1562TIP3    H226246   0.729   3.553   7.578  0.2398  0.1610  0.0884
 1563TIP3   OH226247   4.415   5.003   0.369  0.0789  0.0348 -0.0449
 1563TIP3    H126248   4.491   5.004   0.311 -0.1214  1.6136 -0.3378
 1563TIP3    H226249   4.368   5.084   0.349 -0.5674  0.1089  1.5678
 1564TIP3   OH226250   2.026   0.820   0.854 -0.1546 -0.3262 -1.1260
 1564TIP3    H126251   2.100   0.789   0.906  0.8204  0.8920 -1.7362
 1564TIP3    H226252   2.055   0.904   0.818 -2.7417  1.5303  0.6945
 1565TIP3   OH226253   1.430   0.813   0.564  0.4033 -0.4762 -0.2817
 1565TIP3    H126254   1.449   0.795   0.472  0.0234 -0.1833 -0.4198
 1565TIP3    H226255   1.457   0.733   0.610  1.3590 -0.3151 -0.5433
 1566TIP3   OH226256   3.025   4.729   8.846 -0.1036 -0.2220  0.4035
 1566TIP3    H126257   2.997   4.639   8.860 -1.9457  0.3385  0.5259
 1566TIP3    H226258   2.950   4.771   8.804  0.7665  1.2288  0.2569
 1567TIP3   OH226259   3.465   4.938   2.234 -0.2437  0.5950  0.7414
 1567TIP3    H126260   3.431   4.851   2.256  1.3691 -0.3548 -0.3429
 1567TIP3    H226261   3.556   4.923   2.210  0.0795  2.6090  0.5479
 1568TIP3   OH226262   0.972   1.063   0.089 -0.3292  0.0741 -0.1298
 1568TIP3    H126263   1.058   1.024   0.099  0.3555  1.1934 -1.4077
 1568TIP3    H226264   0.920   0.996   0.044  0.2823 -0.0680 -0.6261
 1569TIP3   OH226265   0.467   0.675   1.511  0.3912  0.3113  0.1890
 1569TIP3    H126266   0.456   0.770   1.500 -2.0775 -0.0772 -1.3072
 1569TIP3    H226267   0.464   0.661   1.605  0.4883  1.6926  0.4159
 1570TIP3   OH226268   3.808   3.751   7.448  0.1409  0.3849  0.2483
 1570TIP3    H126269   3.731   3.699   7.426  0.4001  0.0922  0.0172
 1570TIP3    H226270   3.823   3.735   7.541  0.0007  0.3442  0.2640
 1571TIP3   OH226271   6.455   5.814   2.261  0.5341 -0.5368  0.5723
 1571TIP3    H126272   6.401   5.749   2.307 -0.5865  0.8183  1.2539
 1571TIP3    H226273   6.420   5.899   2.289  1.6358  0.3762 -0.6669
 1572TIP3   OH226274   4.033   0.672   1.017  0.1759  0.3417  0.4195
 1572TIP3    H126275   3.980   0.660   1.096  0.3363 -0.3671  0.4242
 1572TIP3    H226276   4.017   0.763   0.992 -1.9717 -0.1497 -0.2360
 1573TIP3   OH226277   3.925   5.675   2.115  0.0016  0.2415  0.0939
 1573TIP3    H126278   3.902   5.755   2.163 -1.0373 -0.2888  0.5094
 1573TIP3    H226279   3.893   5.604   2.170  1.8527 -0.5311  0.2436
 1574TIP3   OH226280   1.006   5.747   2.750  0.3796  0.1655  0.7435
 1574TIP3    H126281   1.042   5.740   2.839  1.6228 -1.3092  0.1663
 1574TIP3    H226282   1.077   5.719   2.693 -0.9706 -0.6629 -0.6107
 1575TIP3   OH226283   5.725   2.618   8.571 -0.0274 -0.1312 -0.0672
 1575TIP3    H126284   5.730   2.664   8.487 -0.7492  0.6249  0.2882
 1575TIP3    H226285   5.790   2.548   8.564  0.7830  0.6709 -0.7872
 1576TIP3   OH226286   5.813   2.592   0.264 -0.2845 -0.5879  0.1260
 1576TIP3    H126287   5.869   2.528   0.221 -0.2643 -1.8204  1.8741
 1576TIP3    H226288   5.874   2.643   0.319 -0.4698  0.1231 -0.3214
 1577TIP3   OH226289   1.492   2.954   0.809  0.1005 -0.5190  0.8158
 1577TIP3    H126290   1.416   2.988   0.856 -0.5651 -0.8868  0.0319
 1577TIP3    H226291   1.530   3.031   0.767 -2.5608 -0.8118 -2.6195
 1578TIP3   OH226292   0.172   0.522   7.333  0.9763 -0.5635  0.1813
 1578TIP3    H126293   0.086   0.485   7.314  0.3497  2.0624 -3.0080
 1578TIP3    H226294   0.155   0.585   7.403  0.4327 -0.6519  0.1383
 1579TIP3   OH226295   5.386   3.055   7.299 -0.3784  0.7111 -0.2699
 1579TIP3    H126296   5.307   3.065   7.351  1.5579  2.4864  2.6551
 1579TIP3    H226297   5.436   2.986   7.343  0.3661  0.7023 -1.0976
 1580TIP3   OH226298   2.306   2.842   0.742  0.1211  0.2421  0.6426
 1580TIP3    H126299   2.275   2.932   0.736 -1.0608 -0.2126 -0.5754
 1580TIP3    H226300   2.228   2.789   0.731  0.9016 -0.9433  0.6642
 1581TIP3   OH226301   4.014   6.487   8.531  0.0897  0.1856  0.5452
 1581TIP3    H126302   3.977   6.518   8.614 -0.7935 -0.2965  0.3426
 1581TIP3    H226303   3.983   6.396   8.524 -1.5012  0.7979 -1.2363
 1582TIP3   OH226304   1.094   5.345   7.595  0.5750  0.0206 -0.7756
 1582TIP3    H126305   1.117   5.272   7.653 -0.1030  0.0854 -0.4201
 1582TIP3    H226306   1.048   5.407   7.652 -2.1004 -0.8886 -1.7913
 1583TIP3   OH226307   3.586   0.070   1.166  0.1716  0.0984 -0.4197
 1583TIP3    H126308   3.534   0.038   1.092 -1.0958 -2.7943  1.5441
 1583TIP3    H226309   3.521   0.107   1.226  1.0818  1.5286 -0.2636
 1584TIP3   OH226310   6.217   0.421   7.638 -0.3920  0.6532 -0.0766
 1584TIP3    H126311   6.235   0.372   7.719 -0.7566  1.1399  0.3019
 1584TIP3    H226312   6.277   0.383   7.574 -0.5367 -0.1690  0.2590
 1585TIP3   OH226313   5.982   5.340   8.584 -0.0814  0.6022 -0.4182
 1585TIP3    H126314   5.951   5.292   8.508 -0.6674  1.8515 -0.9968
 1585TIP3    H226315   6.052   5.396   8.550  0.7466  0.0242  0.2841
 1586TIP3   OH226316   0.759   2.472   2.421  0.0813  0.2763  0.4973
 1586TIP3    H126317   0.706   2.501   2.495 -1.5641 -1.5229  0.1048
 1586TIP3    H226318   0.739   2.535   2.351 -1.8354 -0.5398  0.2651
 1587TIP3   OH226319   1.344   5.342   7.094 -0.0042  0.3885  0.0263
 1587TIP3    H126320   1.258   5.320   7.131 -1.5277  0.8214 -2.9221
 1587TIP3    H226321   1.361   5.273   7.031  1.9541  0.2320  0.6814
 1588TIP3   OH226322   2.470   1.533   1.917  0.0130 -0.0901 -0.2847
 1588TIP3    H126323   2.405   1.486   1.864 -0.7334  1.1936 -0.5371
 1588TIP3    H226324   2.432   1.535   2.005 -0.3952  0.8216 -0.4714
 1589TIP3   OH226325   0.085   1.726   8.280  0.1659  0.2389  0.0486
 1589TIP3    H126326   0.118   1.688   8.361 -1.2215 -0.2494  0.4183
 1589TIP3    H226327   0.156   1.781   8.249  1.8755 -1.8630  0.0079
 1590TIP3   OH226328   6.207   1.854   8.739  0.1128 -0.2470 -0.3584
 1590TIP3    H126329   6.206   1.764   8.707 -0.0455 -0.6524  0.7353
 1590TIP3    H226330   6.239   1.847   8.829 -0.8437  0.6699  0.0765
 1591TIP3   OH226331   1.690   6.031   0.825  0.1332 -0.3717 -0.3608
 1591TIP3    H126332   1.670   6.033   0.919  0.6474 -0.3552 -0.2513
 1591TIP3    H226333   1.733   5.946   0.812 -0.4593 -0.6263 -0.6904
 1592TIP3   OH226334   5.406   0.907   8.469  0.3178  0.0697 -0.0117
 1592TIP3    H126335   5.409   0.824   8.516  2.0018  0.4978  0.7464
 1592TIP3    H226336   5.473   0.899   8.401  0.9395  0.9991  0.4661
 1593TIP3   OH226337   3.467   1.054   8.138 -0.5014 -0.2827 -0.1644
 1593TIP3    H126338   3.535   0.995   8.171 -1.4730 -1.6143 -0.4438
 1593TIP3    H226339   3.398   1.051   8.204 -0.6902  0.3230 -0.3235
 1594TIP3   OH226340   0.656   0.784   7.977  0.5557  0.6661 -0.2229
 1594TIP3    H126341   0.582   0.769   8.037 -0.0367  0.2415 -1.0348
 1594TIP3    H226342   0.632   0.863   7.929  0.2816  0.1342 -0.9815
 1595TIP3   OH226343   6.462   5.588   1.478 -0.4977 -0.7117 -0.3489
 1595TIP3    H126344   6.471   5.673   1.522  1.0526  0.7995 -3.2470
 1595TIP3    H226345   6.372   5.561   1.497 -0.3739  0.4655  2.4352
 1596TIP3   OH226346   3.273   4.165   2.391  0.0723 -1.0555 -0.3590
 1596TIP3    H126347   3.304   4.094   2.446  0.0093  0.4880  1.8286
 1596TIP3    H226348   3.178   4.163   2.400  0.1469  0.6808  1.7386
 1597TIP3   OH226349   4.871   4.848   1.472 -0.0964 -0.0664 -0.1635
 1597TIP3    H126350   4.959   4.881   1.490  0.1000 -0.3521 -0.5802
 1597TIP3    H226351   4.874   4.757   1.501 -0.4937  0.1425  0.5464
 1598TIP3   OH226352   2.830   6.137   1.498  0.3087  0.1743  0.3227
 1598TIP3    H126353   2.823   6.209   1.435  1.3243 -0.6741 -0.8332
 1598TIP3    H226354   2.808   6.059   1.447  1.1942 -0.5430  1.0085
 1599TIP3   OH226355   2.963   2.557   0.617  0.0042  0.4297 -0.3437
 1599TIP3    H126356   2.883   2.599   0.646 -0.3704 -0.7099  0.3405
 1599TIP3    H226357   2.947   2.536   0.525 -1.0132 -0.9450  0.1152
 1600TIP3   OH226358   1.171   2.300   1.417  0.1186 -0.5140  0.3493
 1600TIP3    H126359   1.187   2.345   1.334 -0.2505  0.1334  0.6212
 1600TIP3    H226360   1.076   2.283   1.417  0.2453 -1.2554  0.2738
 1601TIP3   OH226361   1.375   3.215   7.082  0.8550 -0.4776 -0.2673
 1601TIP3    H126362   1.458   3.168   7.071  0.1040 -1.5766 -1.6585
 1601TIP3    H226363   1.327   3.196   7.001 -1.6007 -1.6539  1.3611
 1602TIP3   OH226364   2.051   0.349   2.033 -0.5059 -0.1097 -0.0742
 1602TIP3    H126365   2.090   0.295   1.965 -0.9547 -0.2984 -0.1827
 1602TIP3    H226366   2.125   0.398   2.070  0.3841 -2.6433  1.7693
 1603TIP3   OH226367   5.195   3.584   7.979 -0.4454  0.2125 -0.3091
 1603TIP3    H126368   5.198   3.671   8.018 -0.7234  0.0448  0.0956
 1603TIP3    H226369   5.103   3.572   7.954 -1.4577 -1.6276  3.5288
 1604TIP3   OH226370   1.283   5.247   1.546 -0.0890  0.3690  0.5194
 1604TIP3    H126371   1.303   5.188   1.619  0.2516  0.7588  0.7431
 1604TIP3    H226372   1.329   5.328   1.567 -0.9339  0.8831  0.4415
 1605TIP3   OH226373   4.928   0.008   8.674  0.4385  0.1471  0.7498
 1605TIP3    H126374   4.839   0.037   8.654  0.0304 -0.9265  0.9511
 1605TIP3    H226375   4.939   0.025   8.767  1.1473  2.0425  0.3664
 1606TIP3   OH226376   5.770   0.061   2.160 -0.0631 -0.1554 -0.0409
 1606TIP3    H126377   5.843   0.094   2.213  0.1551 -1.1783  0.3256
 1606TIP3    H226378   5.796  -0.028   2.137 -1.9688 -1.2396  1.6612
 1607TIP3   OH226379   5.696   4.896   8.219  0.0767 -0.3952 -0.3030
 1607TIP3    H126380   5.655   4.819   8.180  0.4051 -0.7473  0.0337
 1607TIP3    H226381   5.625   4.939   8.267  0.2826 -1.5359  1.1009
 1608TIP3   OH226382   4.025   6.199   7.266 -0.4501  0.2827  0.1834
 1608TIP3    H126383   3.968   6.166   7.336 -1.2883  0.4652 -0.3912
 1608TIP3    H226384   4.105   6.147   7.273 -1.1882 -0.9036  0.1945
 1609TIP3   OH226385   3.398   2.446   2.032  0.2711 -0.3987  0.0692
 1609TIP3    H126386   3.379   2.443   1.939 -1.5154 -0.7643  0.4061
 1609TIP3    H226387   3.365   2.362   2.066  2.5710 -1.0982  0.7671
 1610TIP3   OH226388   0.681   4.334   1.394 -0.0775  0.7900  0.2457
 1610TIP3    H126389   0.676   4.249   1.350 -3.4701  0.6082  0.6797
 1610TIP3    H226390   0.746   4.323   1.463  0.8740 -0.8399 -0.8661
 1611TIP3   OH226391   5.998   0.345   1.969 -0.2510 -0.2840  0.7662
 1611TIP3    H126392   5.974   0.396   1.892  1.7593 -0.1236  0.1750
 1611TIP3    H226393   6.002   0.255   1.939  0.8795 -0.1807  0.5537
 1612TIP3   OH226394   1.363   5.147   1.313 -0.3501  0.1440  0.2077
 1612TIP3    H126395   1.434   5.083   1.318 -0.1978  0.3681  1.3133
 1612TIP3    H226396   1.335   5.158   1.404 -0.5726  1.4109  0.0098
 1613TIP3   OH226397   5.814   0.184   8.554  0.2783  0.1836 -0.0088
 1613TIP3    H126398   5.738   0.136   8.588  0.5550 -1.3121 -1.3775
 1613TIP3    H226399   5.889   0.142   8.596  0.5497 -0.9173 -1.5274
 1614TIP3   OH226400   2.478   5.415   8.541  0.2242 -0.2126  0.0881
 1614TIP3    H126401   2.413   5.471   8.583 -0.2246  0.4450 -1.4183
 1614TIP3    H226402   2.432   5.332   8.528 -0.0746  0.0055 -0.2764
 1615TIP3   OH226403   3.355   5.735   6.759  0.0198  0.1206 -0.1304
 1615TIP3    H126404   3.420   5.774   6.817  0.7177  1.1082 -1.5127
 1615TIP3    H226405   3.399   5.657   6.724 -0.5930 -0.7750  1.0089
 1616TIP3   OH226406   2.756   4.426   0.737 -0.5702  0.1193  0.4438
 1616TIP3    H126407   2.695   4.353   0.750  1.1354 -1.4064  0.3026
 1616TIP3    H226408   2.811   4.426   0.815  0.3225  0.3584 -0.1654
 1617TIP3   OH226409   5.478   4.059   8.148 -0.2632 -0.4647 -0.1856
 1617TIP3    H126410   5.392   4.067   8.106 -0.0516 -0.1432 -0.5588
 1617TIP3    H226411   5.535   4.117   8.098 -0.0963  0.2660  0.8064
 1618TIP3   OH226412   6.306   3.211   0.367 -0.0030  0.3976 -0.0851
 1618TIP3    H126413   6.292   3.260   0.286 -0.5231 -0.2603 -0.4014
 1618TIP3    H226414   6.401   3.196   0.370  0.0333  0.5394 -0.5057
 1619TIP3   OH226415   0.560   2.089   1.478 -0.1064 -0.5355 -0.1888
 1619TIP3    H126416   0.579   2.054   1.566 -2.3206  1.3610  1.1736
 1619TIP3    H226417   0.531   2.179   1.494 -1.3005 -0.3644 -2.8099
 1620TIP3   OH226418   0.998   0.289   7.657  0.0285 -0.1679 -0.0747
 1620TIP3    H126419   1.051   0.299   7.736  0.8143 -2.3360 -0.2619
 1620TIP3    H226420   1.062   0.287   7.585 -0.4243 -1.1026 -0.4704
 1621TIP3   OH226421   4.412   3.609   7.570  0.3572 -0.6806  0.0266
 1621TIP3    H126422   4.326   3.652   7.578  0.7754  0.0588  0.7895
 1621TIP3    H226423   4.396   3.532   7.516 -1.0667 -1.3143  1.2781
 1622TIP3   OH226424   5.333   3.159   6.375 -0.5771 -0.1816  0.2747
 1622TIP3    H126425   5.414   3.196   6.411 -0.1319 -0.6722 -0.1820
 1622TIP3    H226426   5.278   3.235   6.355 -0.1071  0.1776  0.3226
 1623TIP3   OH226427   4.279   4.168   7.427 -0.3852  0.3478  0.2034
 1623TIP3    H126428   4.342   4.237   7.406 -0.4205 -0.0853 -1.4523
 1623TIP3    H226429   4.315   4.089   7.387 -0.6543 -0.4877  1.5454
 1624TIP3   OH226430   0.567   0.875   6.813 -0.1645 -0.3399 -0.3559
 1624TIP3    H126431   0.532   0.962   6.832  1.1178  0.0293  0.4580
 1624TIP3    H226432   0.547   0.824   6.891 -2.5243 -1.3504 -1.5348
 1625TIP3   OH226433   1.761   0.047   0.499 -0.2307 -0.3225 -0.2538
 1625TIP3    H126434   1.691   0.038   0.563 -0.2922  2.2993  0.1448
 1625TIP3    H226435   1.784  -0.043   0.476 -2.1491 -1.2810  1.2971
 1626TIP3   OH226436   0.266   6.126   8.238  0.0918 -0.6958 -0.4257
 1626TIP3    H126437   0.316   6.162   8.165 -0.0894  1.7828  0.5742
 1626TIP3    H226438   0.330   6.080   8.292  0.9063  0.5136 -0.3309
 1627TIP3   OH226439   0.120   5.015   0.930  0.1723  0.2969 -0.3521
 1627TIP3    H126440   0.206   5.051   0.910 -0.0547  0.1762 -1.6266
 1627TIP3    H226441   0.136   4.921   0.945 -0.0696 -0.4200 -3.7036
 1628TIP3   OH226442   3.764   1.156   0.220  0.5453 -0.0959  0.0496
 1628TIP3    H126443   3.693   1.094   0.236  0.1490  0.6210  1.1720
 1628TIP3    H226444   3.734   1.237   0.261  1.4955  0.5519 -0.5117
 1629TIP3   OH226445   0.532   5.320   8.194 -0.1455 -0.0667 -0.0518
 1629TIP3    H126446   0.572   5.237   8.221  2.2286  1.2092  0.6434
 1629TIP3    H226447   0.525   5.313   8.099  0.3793 -0.9303 -0.0424
 1630TIP3   OH226448   1.139   3.314   1.681  0.4778  0.0408  0.4821
 1630TIP3    H126449   1.113   3.226   1.655 -0.8065  0.4517  0.2839
 1630TIP3    H226450   1.210   3.337   1.622  0.9287 -0.9069  0.6345
 1631TIP3   OH226451   3.665   0.651   1.451 -0.0295 -0.6138 -0.3400
 1631TIP3    H126452   3.614   0.720   1.493  1.1522 -0.4480  0.9081
 1631TIP3    H226453   3.619   0.570   1.474 -0.5582 -0.3642 -0.5013
 1632TIP3   OH226454   5.212   4.039   0.144  0.2717 -0.3245 -0.0438
 1632TIP3    H126455   5.202   3.981   0.069 -2.3791 -1.6726  1.2070
 1632TIP3    H226456   5.261   3.987   0.208  0.6092 -0.0088 -0.0458
 1633TIP3   OH226457   5.889   4.491   1.979  0.5010  0.5661 -0.8916
 1633TIP3    H126458   5.833   4.505   1.903  0.8076 -0.9241 -1.4377
 1633TIP3    H226459   5.839   4.434   2.037  1.1465 -0.1851 -1.0497
 1634TIP3   OH226460   5.526   5.710   6.845 -0.1831 -0.2092  0.2295
 1634TIP3    H126461   5.434   5.711   6.818  0.4691  3.0105 -2.5636
 1634TIP3    H226462   5.575   5.724   6.764  2.5933  1.0155  1.9586
 1635TIP3   OH226463   6.624   6.495   2.379  0.6703  0.5525 -0.4890
 1635TIP3    H126464   6.713   6.467   2.356  0.2751  0.2206 -1.6526
 1635TIP3    H226465   6.567   6.447   2.318 -0.4320 -0.3582  1.1653
 1636TIP3   OH226466   5.507   2.244   0.349  0.1882 -0.1942 -0.2418
 1636TIP3    H126467   5.517   2.333   0.316 -0.6649  0.3006  0.7606
 1636TIP3    H226468   5.591   2.202   0.332  0.2563  0.4630 -1.6785
 1637TIP3   OH226469   5.943   5.307   0.985  0.1954 -0.2779  0.2412
 1637TIP3    H126470   6.018   5.297   1.044 -1.1274 -0.0509  2.0184
 1637TIP3    H226471   5.940   5.402   0.968 -0.0847 -0.1955  0.7279
 1638TIP3   OH226472   4.825   4.926   7.907  0.0007 -0.0271  0.1785
 1638TIP3    H126473   4.737   4.902   7.879  0.5925 -2.9508  0.4506
 1638TIP3    H226474   4.882   4.897   7.836  0.7722  2.2236 -0.1948
 1639TIP3   OH226475   0.701   3.337   1.986  0.1283  0.2616 -0.3096
 1639TIP3    H126476   0.764   3.380   1.928  2.8046 -0.7880  1.5845
 1639TIP3    H226477   0.711   3.244   1.966  0.6132 -0.0603  1.3225
 1640TIP3   OH226478   6.634   4.117   8.407  0.1299  0.0113 -0.2495
 1640TIP3    H126479   6.611   4.051   8.342  0.0814  0.6254 -0.8602
 1640TIP3    H226480   6.553   4.166   8.420 -0.1546 -0.7486  1.0524
 1641TIP3   OH226481   5.107   6.133   7.439 -0.0887  0.4789 -0.2842
 1641TIP3    H126482   5.170   6.064   7.462 -1.7560 -0.9155  0.3969
 1641TIP3    H226483   5.154   6.190   7.379  2.0200 -0.1026  0.7317
 1642TIP3   OH226484   3.260   5.352   1.512 -0.4360  0.2329  0.4322
 1642TIP3    H126485   3.309   5.277   1.478 -0.2848  0.8635 -0.8016
 1642TIP3    H226486   3.208   5.316   1.584  0.9378 -0.6973  1.0112
 1643TIP3   OH226487   2.498   4.348   7.893 -0.1522  0.7458 -0.0790
 1643TIP3    H126488   2.477   4.406   7.966 -1.2436  1.0736 -0.6346
 1643TIP3    H226489   2.588   4.319   7.910 -0.5256  0.4880  1.6076
 1644TIP3   OH226490   4.359   2.375   7.496  0.1942 -0.3741  0.5568
 1644TIP3    H126491   4.365   2.335   7.583 -0.7734 -0.8119  0.4389
 1644TIP3    H226492   4.448   2.403   7.476  0.9910 -2.7481  0.5133
 1645TIP3   OH226493   6.619   0.219   8.264  0.2327  0.0522 -0.3728
 1645TIP3    H126494   6.651   0.307   8.284  0.3044  0.3210 -1.6031
 1645TIP3    H226495   6.549   0.233   8.200  0.5752 -0.8093 -0.9424
 1646TIP3   OH226496   0.629   5.083   0.677 -0.0711  0.4996  0.8635
 1646TIP3    H126497   0.684   5.005   0.666  0.1095  0.6499  0.6903
 1646TIP3    H226498   0.666   5.147   0.616 -0.5560  0.5413  0.6099
 1647TIP3   OH226499   6.226   2.037   1.331 -0.1882  0.3772  0.0193
 1647TIP3    H126500   6.242   2.054   1.238  0.5327  1.4008  0.3183
 1647TIP3    H226501   6.281   2.100   1.377  1.5139 -1.8254  1.1839
 1648TIP3   OH226502   3.281   5.863   8.441 -0.1930  0.1787  0.3430
 1648TIP3    H126503   3.281   5.944   8.493 -1.2744 -0.4489  1.3770
 1648TIP3    H226504   3.188   5.844   8.426 -0.0881 -1.9726  1.9390
 1649TIP3   OH226505   3.308   5.506   1.273  0.0084 -0.4323 -0.0092
 1649TIP3    H126506   3.311   5.600   1.290  2.9706 -0.7003  1.5316
 1649TIP3    H226507   3.271   5.468   1.353 -0.2495 -0.6457 -0.2287
 1650TIP3   OH226508   0.986   4.025   0.493  0.6395 -0.6316  0.3747
 1650TIP3    H126509   0.954   4.079   0.421 -0.3941 -2.6524 -0.7630
 1650TIP3    H226510   1.067   3.987   0.461  1.0185 -0.2946  0.9168
 1651TIP3   OH226511   6.711   4.342   8.255 -0.3368 -0.0409 -0.2067
 1651TIP3    H126512   6.667   4.271   8.301  0.3405  0.2675  0.9549
 1651TIP3    H226513   6.678   4.422   8.297  1.0507  0.2101  0.4737
 1652TIP3   OH226514   6.034   6.224   8.720 -0.5513  0.6323  0.5360
 1652TIP3    H126515   6.048   6.131   8.703  0.6565  0.8818  0.0458
 1652TIP3    H226516   6.011   6.228   8.813  2.3435  0.0545  1.3954
 1653TIP3   OH226517   1.646   3.749   2.381  0.4795  0.3431 -0.4153
 1653TIP3    H126518   1.596   3.668   2.376  1.2117 -0.0609 -1.7002
 1653TIP3    H226519   1.596   3.810   2.326  0.7862  0.2750 -0.7724
 1654TIP3   OH226520   4.861   2.531   2.350  0.1739  0.5968  0.1323
 1654TIP3    H126521   4.792   2.483   2.395 -1.3848  1.2344 -1.4784
 1654TIP3    H226522   4.916   2.464   2.310 -0.2341  0.1057  0.3960
 1655TIP3   OH226523   4.755   2.963   8.134 -0.0408 -0.2423 -0.0713
 1655TIP3    H126524   4.701   2.909   8.192 -0.7056  1.3396  0.8322
 1655TIP3    H226525   4.768   3.045   8.182 -0.4964  1.0657 -2.0634
 1656TIP3   OH226526   3.511   5.440   7.307 -0.2446 -0.4050  0.3674
 1656TIP3    H126527   3.426   5.479   7.287  1.0278  2.6705  0.3130
 1656TIP3    H226528   3.544   5.409   7.223 -1.2575 -1.6393  0.3914
 1657TIP3   OH226529   0.987   6.447   6.957 -0.5070 -0.6883 -0.4282
 1657TIP3    H126530   1.035   6.480   6.881 -0.5979 -2.3755 -1.2567
 1657TIP3    H226531   1.019   6.358   6.970 -0.6273 -0.5124  1.4216
 1658TIP3   OH226532   5.405   1.695   7.807  0.2189  0.2403  0.0978
 1658TIP3    H126533   5.386   1.788   7.798  0.3954  0.2268 -0.4068
 1658TIP3    H226534   5.332   1.651   7.763  0.3588  0.1477 -0.0424
 1659TIP3   OH226535   3.720   0.189   1.518 -0.5426 -0.3822  0.3730
 1659TIP3    H126536   3.654   0.120   1.519 -1.1635  0.1359 -1.3483
 1659TIP3    H226537   3.689   0.253   1.582 -0.5123 -1.1849  1.2067
 1660TIP3   OH226538   1.876   0.684   1.966 -0.0633  0.1335  0.0648
 1660TIP3    H126539   1.871   0.648   1.877 -1.0534 -0.2545  0.2639
 1660TIP3    H226540   1.940   0.755   1.959  1.4883 -1.2345 -0.4767
 1661TIP3   OH226541   4.722   3.200   8.733  0.4162  0.1940 -0.0544
 1661TIP3    H126542   4.665   3.123   8.731  0.7014 -0.0046 -0.4591
 1661TIP3    H226543   4.799   3.172   8.783 -0.2146  0.7308  1.2900
 1662TIP3   OH226544   0.804   6.435   8.744 -0.1883 -0.7672  0.0270
 1662TIP3    H126545   0.727   6.482   8.709  0.5681  0.5094  0.0336
 1662TIP3    H226546   0.768   6.379   8.813 -0.9926  0.5199  0.6862
 1663TIP3   OH226547   5.593   3.071   8.339  0.2162  0.0109  0.7625
 1663TIP3    H126548   5.570   3.008   8.271  0.7765  0.1502  0.4410
 1663TIP3    H226549   5.683   3.047   8.364  0.4850  0.7640  0.5416
 1664TIP3   OH226550   6.382   5.371   8.159 -0.4604 -0.0565  0.5306
 1664TIP3    H126551   6.380   5.438   8.228  0.8826 -0.9638  1.5159
 1664TIP3    H226552   6.348   5.292   8.201  2.1647 -1.1315  0.8347
 1665TIP3   OH226553   6.277   1.798   0.351 -0.0576 -0.1050  0.1544
 1665TIP3    H126554   6.262   1.892   0.345  0.8885  0.2002  1.9437
 1665TIP3    H226555   6.368   1.789   0.380  0.2396 -1.6128 -1.1166
 1666TIP3   OH226556   6.721   1.305   6.868 -0.0046 -0.1272 -0.5552
 1666TIP3    H126557   6.666   1.256   6.807 -0.4683  0.6907 -0.8100
 1666TIP3    H226558   6.768   1.238   6.917 -1.8078 -0.8935  0.2294
 1667TIP3   OH226559   1.358   0.143   6.741  0.2100  0.0189 -0.3403
 1667TIP3    H126560   1.314   0.059   6.731  0.6262 -0.3673  0.8225
 1667TIP3    H226561   1.289   0.203   6.769 -0.5135  0.6041 -3.0958
 1668TIP3   OH226562   1.104   2.256   8.358 -0.1615 -0.3764 -0.0360
 1668TIP3    H126563   1.153   2.227   8.435 -3.1866 -0.1923  2.0921
 1668TIP3    H226564   1.136   2.344   8.341  0.5526 -0.4134  1.0224
 1669TIP3   OH226565   0.977   1.189   7.893  0.6625  0.6992 -0.6884
 1669TIP3    H126566   0.897   1.160   7.850 -0.0328  1.2549  0.1975
 1669TIP3    H226567   1.020   1.245   7.829  0.6863 -0.1133 -1.4118
 1670TIP3   OH226568   5.239   1.486   2.065  0.0980  0.1359 -0.7399
 1670TIP3    H126569   5.235   1.390   2.071 -0.8092  0.1651 -0.7402
 1670TIP3    H226570   5.332   1.506   2.073  0.3093 -0.7495 -0.7806
 1671TIP3   OH226571   2.250   6.303   0.893  0.3903  0.0685 -0.1161
 1671TIP3    H126572   2.269   6.396   0.882 -1.6095  0.7689  1.6309
 1671TIP3    H226573   2.287   6.281   0.978  2.0306 -1.1477 -1.0865
 1672TIP3   OH226574   2.286   5.086   2.283 -0.0498  0.2077  0.1585
 1672TIP3    H126575   2.351   5.145   2.244 -1.0390 -0.6035 -3.0433
 1672TIP3    H226576   2.246   5.042   2.208 -1.8943 -1.8706  2.2105
 1673TIP3   OH226577   5.170   3.583   0.180 -0.3731 -0.0463  0.0338
 1673TIP3    H126578   5.121   3.660   0.210  1.7420  0.9424  1.1641
 1673TIP3    H226579   5.151   3.516   0.245  1.1194  0.8976  1.5317
 1674TIP3   OH226580   5.487   1.476   0.299 -1.0703  0.1062  0.0547
 1674TIP3    H126581   5.543   1.539   0.254  2.7092 -1.5985  1.9312
 1674TIP3    H226582   5.423   1.530   0.346  0.8034  2.4494  0.1080
 1675TIP3   OH226583   6.249   5.601   7.785 -0.1474 -0.5635 -0.6641
 1675TIP3    H126584   6.341   5.619   7.803 -0.7928  1.4812  0.9981
 1675TIP3    H226585   6.217   5.559   7.865 -0.8974 -0.2474 -0.7901
 1676TIP3   OH226586   5.308   3.001   8.504  0.5244  0.0189 -0.4096
 1676TIP3    H126587   5.222   2.964   8.526 -0.2046 -0.1907 -3.2289
 1676TIP3    H226588   5.357   2.928   8.467  2.0152  0.1211  1.2500
 1677TIP3   OH226589   4.081   2.511   0.446  0.3490 -0.1154  0.2353
 1677TIP3    H126590   4.096   2.582   0.507  2.4420  0.7734 -1.2235
 1677TIP3    H226591   3.993   2.478   0.469 -0.0304  1.8843  1.9266
 1678TIP3   OH226592   6.589   1.530   0.599  1.0110  0.7950  0.1824
 1678TIP3    H126593   6.567   1.462   0.536 -1.9272  1.6472  0.1347
 1678TIP3    H226594   6.540   1.507   0.678  0.8220  2.2400  0.5228
 1679TIP3   OH226595   2.832   0.257   7.076 -0.4663 -0.1546 -0.0151
 1679TIP3    H126596   2.919   0.278   7.044 -0.3793  0.7476  0.7722
 1679TIP3    H226597   2.804   0.335   7.123 -1.3763 -0.7257  0.4282
 1680TIP3   OH226598   3.439   3.684   1.631 -0.2976 -0.8586  0.2459
 1680TIP3    H126599   3.514   3.741   1.614 -0.5743  0.6824  3.5165
 1680TIP3    H226600   3.363   3.735   1.603 -0.4081 -0.3613  1.3954
 1681TIP3   OH226601   6.573   3.500   8.378 -0.2984  0.2545  0.4631
 1681TIP3    H126602   6.655   3.517   8.424  0.8162  1.2762 -1.7314
 1681TIP3    H226603   6.522   3.581   8.389 -0.3874  0.1805  0.5951
 1682TIP3   OH226604   3.292   4.042   0.037  0.2348 -0.3607  0.3839
 1682TIP3    H126605   3.274   4.117   0.094  0.2560  0.5480 -0.7433
 1682TIP3    H226606   3.362   4.073  -0.020  0.3258 -1.2938 -0.0183
 1683TIP3   OH226607   2.396   6.762   0.332  0.0302 -0.3469  0.6493
 1683TIP3    H126608   2.392   6.699   0.404 -1.0770 -0.3111  0.6288
 1683TIP3    H226609   2.486   6.755   0.299 -0.1766 -2.1647  0.4068
 1684TIP3   OH226610   2.161   0.908   6.744 -0.0682  0.2947 -0.0682
 1684TIP3    H126611   2.068   0.928   6.746 -0.4824 -1.4472  1.4544
 1684TIP3    H226612   2.201   0.967   6.808 -0.7381 -1.2467  1.8813
 1685TIP3   OH226613   1.963   2.071   0.173  0.1921  0.0151 -0.0902
 1685TIP3    H126614   1.985   2.017   0.096  0.7986 -0.5845  0.4972
 1685TIP3    H226615   2.031   2.051   0.237  0.0750  1.0300  0.3649
 1686TIP3   OH226616   2.957   0.140   6.429 -0.2719  0.2044 -0.9098
 1686TIP3    H126617   3.049   0.149   6.455 -0.4536 -0.1558 -0.1291
 1686TIP3    H226618   2.922   0.071   6.486 -1.1864  0.7573 -0.7849
 1687TIP3   OH226619   4.784   4.647   0.034 -0.8987  0.2537  0.2797
 1687TIP3    H126620   4.774   4.659   0.129  1.7537 -0.1544  0.6754
 1687TIP3    H226621   4.844   4.574   0.025  1.3447  2.1565 -1.5848
 1688TIP3   OH226622   2.184   6.145   8.250  0.3385 -0.3755  0.0877
 1688TIP3    H126623   2.126   6.091   8.196  0.7299 -0.2958 -0.4164
 1688TIP3    H226624   2.159   6.124   8.340 -1.7456  1.0012 -0.0959
 1689TIP3   OH226625   3.689   4.239   6.747 -0.2551 -0.6541 -0.1008
 1689TIP3    H126626   3.680   4.272   6.658 -0.2265  2.5645  0.9508
 1689TIP3    H226627   3.782   4.252   6.768 -0.3286 -1.0443  0.5027
 1690TIP3   OH226628   5.901   3.753   1.506 -0.2679  0.1569 -0.2615
 1690TIP3    H126629   5.914   3.764   1.412  0.0255  0.1842 -0.2178
 1690TIP3    H226630   5.864   3.665   1.515 -0.3662  0.1831 -0.4079
 1691TIP3   OH226631   5.572   3.080   8.669 -0.3462 -0.1173 -0.4755
 1691TIP3    H126632   5.622   3.133   8.731 -0.0295 -0.7278 -0.2004
 1691TIP3    H226633   5.601   2.990   8.685  0.8586 -0.1588 -2.5010
 1692TIP3   OH226634   5.981   6.367   1.519 -0.4326 -0.1073 -0.2695
 1692TIP3    H126635   5.886   6.357   1.511 -0.5704  1.6901 -1.3972
 1692TIP3    H226636   6.017   6.310   1.452 -0.7995  0.3623 -0.8753
 1693TIP3   OH226637   3.515   0.278   2.134 -0.1110 -0.4844  0.2977
 1693TIP3    H126638   3.533   0.195   2.090 -0.7912 -0.1552 -0.6288
 1693TIP3    H226639   3.424   0.297   2.114 -0.2682 -0.0251  1.3814
 1694TIP3   OH226640   5.760   6.257   8.450  0.1167  0.4954  0.4469
 1694TIP3    H126641   5.826   6.227   8.388 -1.1056  0.0035 -0.6725
 1694TIP3    H226642   5.741   6.180   8.504 -0.5835  0.2082 -0.1981
 1695TIP3   OH226643   1.041   5.070   1.402 -0.4243 -0.6533 -0.3717
 1695TIP3    H126644   1.098   5.129   1.451 -1.4628  1.0032 -1.0628
 1695TIP3    H226645   1.001   5.015   1.469  0.2847 -0.3171  0.3454
 1696TIP3   OH226646   0.932   3.407   1.873 -0.2718 -0.1762 -0.2397
 1696TIP3    H126647   1.023   3.400   1.842 -0.7716 -1.3466 -1.5153
 1696TIP3    H226648   0.941   3.426   1.967  1.2767  1.5166 -0.6564
 1697TIP3   OH226649   2.037   1.871   1.567  0.4258  0.1462  0.3943
 1697TIP3    H126650   2.074   1.878   1.655  0.0654  1.1691  0.4845
 1697TIP3    H226651   1.999   1.958   1.550 -1.8967 -0.8041  0.2908
 1698TIP3   OH226652   4.097   3.230   7.090  0.5272  0.7993 -0.1186
 1698TIP3    H126653   4.115   3.164   7.157  0.5370  0.7610 -0.1585
 1698TIP3    H226654   4.166   3.296   7.103  2.2330 -0.5203 -1.8076
 1699TIP3   OH226655   3.849   5.454   7.493 -0.3657  0.0683 -0.1984
 1699TIP3    H126656   3.926   5.415   7.535  0.9387  2.3079 -0.3605
 1699TIP3    H226657   3.839   5.404   7.411  0.1453 -1.0298  0.3888
 1700TIP3   OH226658   6.224   3.773   0.977 -0.0714  0.0409 -0.1913
 1700TIP3    H126659   6.220   3.683   0.945  0.2771 -0.4284  1.0320
 1700TIP3    H226660   6.304   3.776   1.030 -0.3418  0.9359  0.1796
 1701TIP3   OH226661   2.115   6.274   6.552  0.6000  0.3203  0.5470
 1701TIP3    H126662   2.194   6.281   6.606  1.2766 -0.1414 -0.3383
 1701TIP3    H226663   2.110   6.357   6.505  0.6144  0.3196  0.5445
 1702TIP3   OH226664   4.902   5.244   2.621  0.8412  0.0835  0.2789
 1702TIP3    H126665   4.844   5.176   2.653 -0.3277  1.0045  0.2086
 1702TIP3    H226666   4.928   5.293   2.699 -1.4410  1.8899  0.0452
 1703TIP3   OH226667   4.469   2.683   7.350 -0.1954  0.2408 -0.4934
 1703TIP3    H126668   4.515   2.635   7.281  0.4543 -1.7313  1.2089
 1703TIP3    H226669   4.378   2.655   7.343  0.2986 -2.0685  0.9780
 1704TIP3   OH226670   2.440   1.860   8.072 -0.5343  0.2350  0.2875
 1704TIP3    H126671   2.512   1.851   8.010 -1.0034 -1.1154 -0.0982
 1704TIP3    H226672   2.377   1.917   8.029 -0.0518  0.7829  0.2991
 1705TIP3   OH226673   3.669   6.686   0.197  0.3756 -0.2267  0.2681
 1705TIP3    H126674   3.655   6.721   0.285  1.8183 -0.3466  0.5853
 1705TIP3    H226675   3.741   6.739   0.161  0.3389 -0.6945 -0.5301
 1706TIP3   OH226676   3.164   0.890   6.337  0.0200 -0.1590  0.4503
 1706TIP3    H126677   3.072   0.913   6.346  0.1161 -0.2511  2.1183
 1706TIP3    H226678   3.164   0.801   6.303 -0.4792  0.0676 -0.1636
 1707TIP3   OH226679   3.373   3.676   7.067  0.0728  0.3172 -0.3270
 1707TIP3    H126680   3.443   3.633   7.018 -0.3082  0.5939 -1.1416
 1707TIP3    H226681   3.298   3.676   7.007  0.4030  3.2187 -0.8730
 1708TIP3   OH226682   1.948   4.488   0.172  0.0924 -0.2231  0.0463
 1708TIP3    H126683   1.955   4.539   0.253  0.1139 -0.5032  0.2225
 1708TIP3    H226684   2.011   4.417   0.183  0.6094  0.1445 -0.5229
 1709TIP3   OH226685   2.049   1.994   8.812 -0.2637  0.9200  0.2411
 1709TIP3    H126686   2.101   2.041   8.747  2.7470  0.0591  1.8540
 1709TIP3    H226687   2.072   1.902   8.798  0.3110  0.7106  2.3260
 1710TIP3   OH226688   0.184   5.426   1.166 -0.4209  0.0199 -0.1802
 1710TIP3    H126689   0.173   5.507   1.216 -0.9905 -0.7438  0.9829
 1710TIP3    H226690   0.186   5.454   1.075  0.7200  1.4735  0.2478
 1711TIP3   OH226691   3.001   2.791   2.329  0.0356 -0.0124  0.0512
 1711TIP3    H126692   2.998   2.849   2.404 -0.4244 -0.5288  0.4428
 1711TIP3    H226693   3.056   2.717   2.357  0.8148  0.3346 -0.5226
 1712TIP3   OH226694   6.619   0.376   7.655  0.7020 -0.6369  0.0761
 1712TIP3    H126695   6.677   0.301   7.667  0.8888 -0.4775  0.1838
 1712TIP3    H226696   6.540   0.340   7.615  0.3039 -1.0880  1.2294
 1713TIP3   OH226697   3.148   0.984   7.652 -0.0211 -0.2467  0.7435
 1713TIP3    H126698   3.060   1.011   7.680 -0.4356 -0.4042 -0.3720
 1713TIP3    H226699   3.178   1.054   7.595 -0.3004 -1.1673 -0.5787
 1714TIP3   OH226700   4.306   5.219   7.304 -0.1384  0.2344 -0.2069
 1714TIP3    H126701   4.377   5.156   7.321  1.5286  1.7606 -1.2684
 1714TIP3    H226702   4.301   5.271   7.384  0.5689  0.6922 -0.4518
 1715TIP3   OH226703   0.349   3.292   8.057 -0.0785 -0.1106  0.2642
 1715TIP3    H126704   0.356   3.365   8.119  1.1896  0.5920 -0.6707
 1715TIP3    H226705   0.386   3.217   8.104  2.4075  0.7672 -0.1329
 1716TIP3   OH226706   3.868   3.156   1.520  0.0158  1.0434  0.0292
 1716TIP3    H126707   3.855   3.082   1.460  0.2446  0.8934  0.1612
 1716TIP3    H226708   3.904   3.225   1.465  0.8150  0.7037  0.1063
 1717TIP3   OH226709   6.273   5.928   0.762  0.2376 -0.2423 -0.4960
 1717TIP3    H126710   6.236   6.008   0.800  0.3733 -0.4452  0.0776
 1717TIP3    H226711   6.232   5.921   0.676 -0.5179 -0.0743 -0.1584
 1718TIP3   OH226712   3.196   0.990   1.098 -0.1969  0.2458  0.0132
 1718TIP3    H126713   3.205   1.012   1.191 -1.1251  1.2214 -0.1062
 1718TIP3    H226714   3.177   1.074   1.055  1.0658 -0.0447 -1.1891
 1719TIP3   OH226715   4.462   4.929   2.374  0.1544  0.0463 -0.0320
 1719TIP3    H126716   4.397   4.990   2.338  1.5712  0.9876 -1.1415
 1719TIP3    H226717   4.435   4.843   2.342 -0.1315  0.5278 -1.1523
 1720TIP3   OH226718   3.504   0.782   6.773 -0.0380  0.6702 -0.3502
 1720TIP3    H126719   3.552   0.860   6.803 -1.9731  1.4019  1.0174
 1720TIP3    H226720   3.512   0.785   6.677  3.3485  0.2215 -0.2196
 1721TIP3   OH226721   2.138   3.164   0.344 -0.1750  0.5942  0.2924
 1721TIP3    H126722   2.161   3.075   0.314 -3.8256  0.3555 -2.4750
 1721TIP3    H226723   2.113   3.152   0.436  0.7501 -0.9403  0.3882
 1722TIP3   OH226724   6.578   5.648   0.224  0.1591  0.1168  0.2752
 1722TIP3    H126725   6.529   5.722   0.188 -0.5742 -1.4932 -2.3584
 1722TIP3    H226726   6.656   5.687   0.263 -0.1814  2.2757 -1.0540
 1723TIP3   OH226727   5.696   0.278   6.752  0.0901 -0.1515 -0.3169
 1723TIP3    H126728   5.701   0.313   6.663 -0.1024  0.5194 -0.0725
 1723TIP3    H226729   5.604   0.253   6.763 -0.0123  0.3050 -0.1120
 1724TIP3   OH226730   5.793   0.199   1.460 -0.0864  0.1321  0.1525
 1724TIP3    H126731   5.857   0.241   1.517  0.4074  0.3693 -0.5729
 1724TIP3    H226732   5.827   0.111   1.446  0.3122  0.4019 -0.5926
 1725TIP3   OH226733   3.159   6.373   0.927  0.5000 -0.6496 -0.6583
 1725TIP3    H126734   3.070   6.361   0.894 -0.1360  1.1936  0.2604
 1725TIP3    H226735   3.147   6.411   1.013  2.1876  1.0645 -1.1288
 1726TIP3   OH226736   6.310   2.061   1.072  0.1627 -0.0845 -0.3518
 1726TIP3    H126737   6.329   1.970   1.091 -0.1003 -0.1394 -0.3553
 1726TIP3    H226738   6.392   2.095   1.035  0.5830 -0.0452  0.5936
 1727TIP3   OH226739   5.153   1.514   6.956  0.9974  0.7249 -0.3506
 1727TIP3    H126740   5.169   1.583   7.021  0.8838  0.8348 -0.4391
 1727TIP3    H226741   5.230   1.457   6.962  0.6978  0.3813  0.3310
 1728TIP3   OH226742   3.823   0.009   1.880  0.0927 -0.3026 -0.3678
 1728TIP3    H126743   3.857   0.098   1.878 -0.9770  0.1825  1.2140
 1728TIP3    H226744   3.842  -0.023   1.968  0.8148 -1.8216 -1.0221
 1729TIP3   OH226745   1.659   3.111   1.484 -0.5540 -0.1245  0.2350
 1729TIP3    H126746   1.743   3.157   1.485 -0.5521 -0.1186 -0.1445
 1729TIP3    H226747   1.659   3.059   1.565  0.5712 -1.4739 -0.5907
 1730TIP3   OH226748   2.266   1.729   1.701  0.3939  0.1836 -0.0518
 1730TIP3    H126749   2.284   1.640   1.730 -1.6529  0.0891  1.1492
 1730TIP3    H226750   2.240   1.720   1.609  0.1036 -0.4743  0.0929
 1731TIP3   OH226751   2.934   3.631   1.337  0.6721  0.2273 -0.1109
 1731TIP3    H126752   2.917   3.602   1.247  0.5777 -1.4037  0.4116
 1731TIP3    H226753   3.026   3.655   1.337  0.6690  0.2608 -0.6391
 1732TIP3   OH226754   4.659   1.501   1.955 -0.0445 -0.8120  0.0684
 1732TIP3    H126755   4.619   1.536   2.034  0.5100 -0.5163  0.2160
 1732TIP3    H226756   4.615   1.547   1.883 -1.5195 -2.0333  0.1192
 1733TIP3   OH226757   2.356   3.910   6.603  0.3311  0.3887  0.3944
 1733TIP3    H126758   2.283   3.891   6.544  0.3925 -1.8025  0.9506
 1733TIP3    H226759   2.433   3.875   6.557  0.8113  1.1720  0.5705
 1734TIP3   OH226760   2.886   6.102   7.792  0.4353  0.0111 -0.0064
 1734TIP3    H126761   2.955   6.079   7.854  0.3237  0.8068  0.4214
 1734TIP3    H226762   2.867   6.020   7.746  3.8787  0.3347 -2.4105
 1735TIP3   OH226763   1.862   0.791   6.508  0.4608 -0.0421 -0.3318
 1735TIP3    H126764   1.863   0.827   6.597  0.4396  2.8287 -1.3959
 1735TIP3    H226765   1.786   0.830   6.467  1.1624 -0.3332 -1.9844
 1736TIP3   OH226766   5.627   5.817   8.173  0.0170  0.4842 -0.0812
 1736TIP3    H126767   5.552   5.797   8.229  1.0618 -2.4785  0.4452
 1736TIP3    H226768   5.622   5.911   8.159 -3.1898  0.5548  0.7545
 1737TIP3   OH226769   1.565   0.166   8.703 -0.0062  0.1657  0.0853
 1737TIP3    H126770   1.473   0.189   8.694 -0.0419  0.4722  1.1167
 1737TIP3    H226771   1.581   0.102   8.633 -0.4793  1.5693 -1.3729
 1738TIP3   OH226772   5.690   3.733   7.135 -0.1032 -0.1243  0.1417
 1738TIP3    H126773   5.750   3.803   7.110  2.0732 -1.9406 -0.0930
 1738TIP3    H226774   5.647   3.707   7.053 -0.4046  0.4543  0.1124
 1739TIP3   OH226775   0.270   1.786   1.396 -0.2790 -0.4874 -0.4610
 1739TIP3    H126776   0.248   1.878   1.412 -0.9604 -0.6247 -0.6045
 1739TIP3    H226777   0.366   1.783   1.402 -0.3123  0.0505  0.5220
 1740TIP3   OH226778   4.643   0.646   8.642  0.0039 -0.0446 -0.1145
 1740TIP3    H126779   4.552   0.663   8.668  0.1399  1.0317 -0.3200
 1740TIP3    H226780   4.639   0.634   8.547  0.0142 -0.5362 -0.0599
 1741TIP3   OH226781   2.437   2.436   0.743 -0.3033  0.1300 -0.5874
 1741TIP3    H126782   2.401   2.368   0.685 -0.2315 -0.6107  0.2079
 1741TIP3    H226783   2.531   2.432   0.728 -0.1564 -0.9159  0.4362
 1742TIP3   OH226784   4.674   6.402   8.483  0.7158 -0.0578 -0.2335
 1742TIP3    H126785   4.704   6.485   8.447  0.6801 -0.5196 -1.3755
 1742TIP3    H226786   4.580   6.414   8.496  0.6197 -0.0908 -0.8902
 1743TIP3   OH226787   4.021   2.422   1.250 -0.0516  0.1935  0.4052
 1743TIP3    H126788   4.046   2.407   1.341 -1.7543 -0.6941  0.7715
 1743TIP3    H226789   3.951   2.488   1.254 -1.1299 -0.8747 -0.0867
 1744TIP3   OH226790   6.252   1.077   7.946  0.6800  0.3029 -0.8476
 1744TIP3    H126791   6.256   1.084   7.851  0.5764 -2.1123 -1.0919
 1744TIP3    H226792   6.342   1.090   7.975  0.6946  1.1448 -1.2550
 1745TIP3   OH226793   4.270   5.745   8.089  0.7114  0.9121  0.0855
 1745TIP3    H126794   4.341   5.793   8.046  0.3041  2.7052  1.3278
 1745TIP3    H226795   4.195   5.803   8.084 -0.1597 -0.1511  0.5150
 1746TIP3   OH226796   0.022   1.184   8.029 -0.2326  0.0924  0.3378
 1746TIP3    H126797   0.015   1.200   8.123 -3.5143  1.0221  0.0492
 1746TIP3    H226798   0.044   1.270   7.992 -1.2567  0.2773  0.1206
 1747TIP3   OH226799   6.768   6.070   8.316 -0.4599 -0.5115 -0.1869
 1747TIP3    H126800   6.724   6.005   8.262 -0.9956 -0.6659  0.4220
 1747TIP3    H226801   6.858   6.072   8.284 -0.8165 -0.4635 -1.1960
 1748TIP3   OH226802   2.580   6.562   0.738 -0.4603 -0.5660  0.5543
 1748TIP3    H126803   2.611   6.472   0.738  0.6321 -0.2113  1.2559
 1748TIP3    H226804   2.558   6.580   0.830  0.0831  0.1163  0.5613
 1749TIP3   OH226805   4.547   2.966   8.724  0.4575 -0.2398 -0.0743
 1749TIP3    H126806   4.604   2.889   8.720 -0.5813 -1.1091  1.0727
 1749TIP3    H226807   4.477   2.941   8.784 -0.1933  1.4285 -0.0829
 1750TIP3   OH226808   6.215   4.046   8.056 -0.0432  0.2020 -0.1610
 1750TIP3    H126809   6.151   4.111   8.084  0.1739  0.0813  0.6650
 1750TIP3    H226810   6.243   4.074   7.970 -0.1843  1.0294  0.0571
 1751TIP3   OH226811   0.997   5.298   0.664  0.1926 -0.3825 -0.1572
 1751TIP3    H126812   0.984   5.211   0.702 -0.6881  0.6317  2.0116
 1751TIP3    H226813   1.045   5.347   0.730  0.2468  0.9453 -1.1417
 1752TIP3   OH226814   1.290   4.659   8.142 -0.1150 -0.3199  0.3513
 1752TIP3    H126815   1.255   4.739   8.181 -1.3196  0.0146 -1.3025
 1752TIP3    H226816   1.375   4.686   8.106  0.1025 -0.1349  0.9951
 1753TIP3   OH226817   3.959   1.964   8.834  0.0287 -0.0753  0.2055
 1753TIP3    H126818   4.009   1.969   8.752 -1.0265 -2.9588 -0.7423
 1753TIP3    H226819   3.868   1.970   8.806 -0.3275  2.4033  1.6232
 1754TIP3   OH226820   5.644   4.484   0.615 -0.4036 -0.0441 -0.2745
 1754TIP3    H126821   5.688   4.567   0.601  3.2903 -1.8059 -0.2710
 1754TIP3    H226822   5.574   4.504   0.677  0.4089  3.0018 -0.1826
 1755TIP3   OH226823   2.463   6.614   1.574  0.2161  0.1923  0.5025
 1755TIP3    H126824   2.380   6.567   1.581  0.3541 -0.4297 -1.4751
 1755TIP3    H226825   2.488   6.632   1.664 -1.7811 -0.1029  1.1620
 1756TIP3   OH226826   4.118   3.970   8.223 -0.1164 -0.2452  0.0535
 1756TIP3    H126827   4.077   3.931   8.300  1.8238 -0.0628  1.2435
 1756TIP3    H226828   4.202   3.924   8.214  0.9607  1.6564 -0.2064
 1757TIP3   OH226829   2.312   5.751   1.604 -0.5120 -0.3276 -0.0883
 1757TIP3    H126830   2.286   5.824   1.660 -1.8472 -0.3844 -0.5864
 1757TIP3    H226831   2.373   5.790   1.540  1.2800 -0.3326  1.5375
 1758TIP3   OH226832   1.061   0.293   8.463  0.1100 -0.2502  0.7504
 1758TIP3    H126833   1.118   0.246   8.523 -1.4526 -0.9668  1.7555
 1758TIP3    H226834   1.119   0.353   8.417  1.4130  0.2668  2.8929
 1759TIP3   OH226835   1.669   6.138   8.152 -0.4564  0.1017 -0.0802
 1759TIP3    H126836   1.717   6.119   8.232 -0.8221 -0.1606  0.0809
 1759TIP3    H226837   1.718   6.209   8.110 -0.1866  0.1421  0.3036
 1760TIP3   OH226838   2.926   1.363   1.763 -0.1463 -0.3047  0.4205
 1760TIP3    H126839   2.999   1.389   1.707  0.4337 -1.3390  0.6746
 1760TIP3    H226840   2.855   1.423   1.738  0.4464  0.0126 -0.5954
 1761TIP3   OH226841   6.488   3.832   0.303 -0.2112  0.5460  0.5376
 1761TIP3    H126842   6.523   3.767   0.364  0.7167  1.0182  0.5168
 1761TIP3    H226843   6.401   3.799   0.281  0.7345 -1.4329 -0.5391
 1762TIP3   OH226844   4.735   0.400   8.736 -0.6972  0.3092 -0.1651
 1762TIP3    H126845   4.719   0.483   8.689 -2.3446 -0.0875 -0.3693
 1762TIP3    H226846   4.830   0.396   8.744 -0.4738  1.4227 -1.6258
 1763TIP3   OH226847   5.267   4.797   2.343  0.1126 -0.3037  0.6125
 1763TIP3    H126848   5.352   4.775   2.306 -0.0186  0.3707 -0.1256
 1763TIP3    H226849   5.258   4.891   2.327 -0.0228 -0.0174  2.2305
 1764TIP3   OH226850   4.685   4.375   8.802 -0.4334 -0.3584 -0.0204
 1764TIP3    H126851   4.714   4.359   8.892  1.1179  3.9114  0.4899
 1764TIP3    H226852   4.766   4.396   8.754 -1.5844  1.1948 -1.3865
 1765TIP3   OH226853   1.211   4.628   1.765  0.7240 -0.7066 -0.2292
 1765TIP3    H126854   1.221   4.703   1.706 -2.3724 -1.4335 -1.8705
 1765TIP3    H226855   1.260   4.653   1.843 -2.2713  4.3853  0.4761
 1766TIP3   OH226856   6.251   3.894   1.886 -0.6015 -0.9146  0.0819
 1766TIP3    H126857   6.195   3.868   1.813 -1.1620  1.6098 -0.4861
 1766TIP3    H226858   6.190   3.925   1.953  0.0214 -0.5450  0.4833
 1767TIP3   OH226859   1.738   6.438   2.374 -0.2030  0.5120  0.1348
 1767TIP3    H126860   1.694   6.520   2.350 -0.7857 -0.0857 -0.9094
 1767TIP3    H226861   1.831   6.459   2.370 -0.3227  0.9166 -0.9562
 1768TIP3   OH226862   2.183   6.455   7.779 -0.2357  0.5450 -0.9380
 1768TIP3    H126863   2.117   6.502   7.831  3.2945  0.8229  3.9044
 1768TIP3    H226864   2.223   6.522   7.725 -1.5711  1.0610 -1.3226
 1769TIP3   OH226865   0.973   1.220   0.977  0.1388 -0.5117 -0.5821
 1769TIP3    H126866   0.991   1.311   0.953  2.0082 -0.6399  0.1302
 1769TIP3    H226867   1.058   1.186   1.005 -0.7574 -2.1454  0.2770
 1770TIP3   OH226868   0.132   1.941   7.352  0.3230  1.0352  0.2073
 1770TIP3    H126869   0.227   1.954   7.360  0.3235  0.4630  1.3730
 1770TIP3    H226870   0.094   2.028   7.360  0.7239  1.2029  0.2883
 1771TIP3   OH226871   0.473   6.529   7.845 -0.3284  0.5783 -0.2740
 1771TIP3    H126872   0.436   6.600   7.793  1.1883  0.4926 -1.5555
 1771TIP3    H226873   0.412   6.518   7.918 -1.5567  1.9455 -1.0412
 1772TIP3   OH226874   5.887   4.560   8.266 -0.5372 -0.6727 -0.2935
 1772TIP3    H126875   5.981   4.574   8.267 -0.5959 -0.2927  0.0451
 1772TIP3    H226876   5.863   4.545   8.357 -1.1674  1.8255  0.0398
 1773TIP3   OH226877   0.655   3.974   2.513  0.0695  0.4192 -0.0985
 1773TIP3    H126878   0.588   4.023   2.464  0.4489  1.0225 -0.0333
 1773TIP3    H226879   0.696   4.040   2.568  0.1672 -0.1098  0.4663
 1774TIP3   OH226880   2.628   3.578   0.983  0.1095 -0.1252 -0.7750
 1774TIP3    H126881   2.641   3.487   1.006  0.2194 -0.3507 -1.6674
 1774TIP3    H226882   2.554   3.577   0.922  1.6423  0.0469 -2.7496
 1775TIP3   OH226883   1.095   0.856   2.896 -0.5959  0.3934 -0.0492
 1775TIP3    H126884   1.082   0.786   2.831  0.3061  0.0862  0.0948
 1775TIP3    H226885   1.018   0.911   2.886 -0.7549  0.0284 -0.9896
 1776TIP3   OH226886   3.879   5.793   0.881 -0.6534  0.8437  0.0092
 1776TIP3    H126887   3.791   5.782   0.844 -0.0062 -0.2556 -1.3097
 1776TIP3    H226888   3.911   5.703   0.892  0.6435  1.2294 -0.4399
 1777TIP3   OH226889   3.176   3.967   1.344  0.2953 -0.2835 -0.3754
 1777TIP3    H126890   3.263   3.949   1.380  0.8753  0.7947 -1.1856
 1777TIP3    H226891   3.118   3.907   1.391  1.2582 -0.0693  1.1519
 1778TIP3   OH226892   5.678   4.191   0.330  0.0660  0.0352  0.2824
 1778TIP3    H126893   5.751   4.169   0.272 -1.8421  1.9936 -3.1674
 1778TIP3    H226894   5.705   4.271   0.375 -0.0637  1.0660 -1.3954
 1779TIP3   OH226895   4.661   4.524   0.723 -0.3007 -0.4085 -0.2925
 1779TIP3    H126896   4.589   4.512   0.660 -0.5044 -0.2940 -0.0824
 1779TIP3    H226897   4.627   4.488   0.805 -0.0707 -0.4704 -0.2249
 1780TIP3   OH226898   1.692   6.258   8.841 -0.0015 -0.5627  0.2503
 1780TIP3    H126899   1.718   6.340   8.882  0.1140 -1.0604  1.2229
 1780TIP3    H226900   1.634   6.217   8.906  1.3066 -2.0241  0.5374
 1781TIP3   OH226901   4.901   1.268   7.759 -0.5899 -0.0395  0.5425
 1781TIP3    H126902   4.955   1.343   7.732  0.6623 -0.7564  0.9907
 1781TIP3    H226903   4.854   1.300   7.836 -0.5356  0.4827  0.3673
 1782TIP3   OH226904   4.173   3.605   1.652 -0.0591 -0.1036  0.3028
 1782TIP3    H126905   4.211   3.590   1.565 -0.2346 -0.9989  0.3722
 1782TIP3    H226906   4.085   3.568   1.646 -0.2864  0.3649  0.6889
 1783TIP3   OH226907   3.535   1.967   7.630  0.0225 -0.2601  0.1284
 1783TIP3    H126908   3.570   1.878   7.626 -0.6812 -0.5011 -2.7751
 1783TIP3    H226909   3.607   2.022   7.599 -0.8875 -0.3795 -2.4168
 1784TIP3   OH226910   5.209   4.593   0.076 -0.3554 -0.2811  0.0121
 1784TIP3    H126911   5.276   4.600   0.143  0.2545 -1.2209 -0.4776
 1784TIP3    H226912   5.168   4.508   0.092 -1.0804  0.0497 -0.0261
 1785TIP3   OH226913   0.707   0.651   8.740  0.1990  0.4006 -0.3005
 1785TIP3    H126914   0.790   0.604   8.747  0.1884  0.2876 -0.8965
 1785TIP3    H226915   0.644   0.596   8.787  0.4552  0.4831  0.1464
 1786TIP3   OH226916   1.034   0.013   7.673  0.1287  0.2609  0.0491
 1786TIP3    H126917   0.993   0.090   7.712  0.3450  0.3256  0.1523
 1786TIP3    H226918   1.080  -0.029   7.746 -2.3577 -1.6079  0.6814
 1787TIP3   OH226919   3.566   0.410   7.201 -0.0938 -0.7093  0.3066
 1787TIP3    H126920   3.515   0.347   7.251 -2.3472  0.8661  0.1736
 1787TIP3    H226921   3.500   0.463   7.155  1.7326  0.6849 -0.8556
 1788TIP3   OH226922   3.825   4.506   0.434  0.1157  0.0153  0.4614
 1788TIP3    H126923   3.893   4.438   0.430  1.4250  1.2826 -0.0939
 1788TIP3    H226924   3.832   4.551   0.349  0.3539  1.7907  1.3683
 1789TIP3   OH226925   2.049   5.710   8.633  0.6685 -0.6493  0.5474
 1789TIP3    H126926   1.956   5.703   8.655  0.9220  0.3008  2.0888
 1789TIP3    H226927   2.091   5.640   8.682  0.7640 -1.1679 -0.2616
 1790TIP3   OH226928   5.633   2.110   1.285 -0.3950 -0.5765 -0.1597
 1790TIP3    H126929   5.685   2.137   1.360  2.8801 -3.3310 -1.1637
 1790TIP3    H226930   5.574   2.043   1.320 -2.6435  1.7167  0.7547
 1791TIP3   OH226931   1.315   0.233   2.231 -0.1725  0.1143  0.5500
 1791TIP3    H126932   1.288   0.161   2.174  0.6248  1.0319 -1.0748
 1791TIP3    H226933   1.410   0.239   2.219 -0.3156  1.9012  0.0364
 1792TIP3   OH226934   4.261   1.406   1.121  0.1233 -0.2112 -0.5655
 1792TIP3    H126935   4.354   1.401   1.098 -0.2939 -0.4759 -2.3329
 1792TIP3    H226936   4.227   1.318   1.103 -0.8603  0.4052 -1.8979
 1793TIP3   OH226937   6.015   3.273   1.738 -0.3856  0.2421  0.1361
 1793TIP3    H126938   5.931   3.290   1.782  0.3282  3.1068  0.5925
 1793TIP3    H226939   6.067   3.226   1.804 -0.5666  1.2632  1.0271
 1794TIP3   OH226940   6.757   6.474   0.047 -0.0244  0.4409  0.5991
 1794TIP3    H126941   6.849   6.481   0.072 -0.0517  0.6524  0.6360
 1794TIP3    H226942   6.759   6.478  -0.049  0.1179 -0.7603  0.5253
 1795TIP3   OH226943   1.899   4.527   7.410 -0.1185  0.2057 -0.0287
 1795TIP3    H126944   1.882   4.435   7.388  2.4744 -0.1959 -0.7112
 1795TIP3    H226945   1.882   4.533   7.504 -0.8169 -0.8297 -0.0688
 1796TIP3   OH226946   0.750   0.196   1.060 -0.1712 -0.6178 -0.3163
 1796TIP3    H126947   0.688   0.123   1.052  1.7522 -2.3520 -0.0870
 1796TIP3    H226948   0.830   0.164   1.020  0.5150  1.7313 -0.9911
 1797TIP3   OH226949   1.194   4.575   7.471  0.3398 -0.1031 -0.1140
 1797TIP3    H126950   1.277   4.564   7.424  0.9115 -0.5482  0.9760
 1797TIP3    H226951   1.220   4.588   7.562 -0.7519  0.7502  0.0925
 1798TIP3   OH226952   1.983   5.671   0.197  0.4156 -0.4616  0.3663
 1798TIP3    H126953   1.907   5.694   0.144 -0.3219 -1.5195  0.9247
 1798TIP3    H226954   2.058   5.701   0.146 -0.3254 -0.3581 -0.6939
 1799TIP3   OH226955   2.288   1.471   1.725 -0.6120  0.3333  0.8314
 1799TIP3    H126956   2.316   1.392   1.680  0.0558  1.1148 -0.1402
 1799TIP3    H226957   2.193   1.472   1.714 -0.4639  0.5125 -0.5791
 1800TIP3   OH226958   2.357   0.300   0.580  0.4181  0.3708 -0.0205
 1800TIP3    H126959   2.421   0.232   0.562  0.7592  0.3579  1.1231
 1800TIP3    H226960   2.337   0.290   0.673  0.2545  1.6254  0.1062
 1801TIP3   OH226961   4.355   3.421   7.397 -0.1415  0.4112  0.5087
 1801TIP3    H126962   4.435   3.368   7.396 -0.1177  0.2786 -2.7588
 1801TIP3    H226963   4.315   3.405   7.311 -1.6621  3.4287  0.5322
 1802TIP3   OH226964   6.220   3.124   2.313  0.5936 -0.2506 -0.0561
 1802TIP3    H126965   6.264   3.055   2.264  1.1439  0.8194 -1.1018
 1802TIP3    H226966   6.169   3.173   2.248 -0.0672  0.1285  0.7169
 1803TIP3   OH226967   5.639   3.822   1.030 -0.2704  0.4657 -0.2443
 1803TIP3    H126968   5.629   3.900   1.085  2.2960  1.7584 -1.4381
 1803TIP3    H226969   5.583   3.837   0.955 -1.1688  0.2800  0.3758
 1804TIP3   OH226970   6.048   6.060   7.929 -0.3032 -0.0609  0.4954
 1804TIP3    H126971   6.073   6.102   7.847  1.0590 -1.0720  0.3448
 1804TIP3    H226972   5.993   6.124   7.974  0.5345  1.2852 -0.3309
 1805TIP3   OH226973   0.905   4.393   1.943 -0.0479  0.0397  0.1412
 1805TIP3    H126974   0.936   4.371   2.031 -0.3558  0.4899  0.3714
 1805TIP3    H226975   0.941   4.325   1.886  1.6807  0.7617  0.3217
 1806TIP3   OH226976   5.656   0.919   0.796  0.0155 -0.6397  0.0875
 1806TIP3    H126977   5.752   0.922   0.802 -0.0433 -0.6195  1.3151
 1806TIP3    H226978   5.639   0.866   0.719  1.0087  0.9761 -1.3196
 1807TIP3   OH226979   4.511   3.571   8.403  0.1400  0.4927 -0.6672
 1807TIP3    H126980   4.495   3.615   8.487 -1.5350  2.8558 -2.0961
 1807TIP3    H226981   4.455   3.493   8.406 -0.1578  0.7252  0.2713
 1808TIP3   OH226982   3.002   6.438   8.671  0.2246  0.3612  0.2491
 1808TIP3    H126983   2.954   6.401   8.596  0.1958 -2.4207  1.5304
 1808TIP3    H226984   2.951   6.515   8.696 -1.5922 -0.5012 -0.6170
 1809TIP3   OH226985   2.568   3.735   7.127  0.5267  0.5778  0.0246
 1809TIP3    H126986   2.658   3.759   7.149  1.4438 -0.4073 -2.3769
 1809TIP3    H226987   2.576   3.661   7.066 -1.9451 -0.1526  0.4630
 1810TIP3   OH226988   1.374   3.268   2.178 -0.4057  0.4194  0.2303
 1810TIP3    H126989   1.466   3.296   2.177  0.0144 -0.9127 -0.8823
 1810TIP3    H226990   1.325   3.349   2.192  0.8888  1.3010 -0.1237
 1811TIP3   OH226991   0.152   4.919   8.021  0.8215 -0.0164 -0.4312
 1811TIP3    H126992   0.239   4.882   8.011 -0.0330 -2.0556 -0.9929
 1811TIP3    H226993   0.103   4.886   7.945  0.0464  2.6804 -1.1951
 1812TIP3   OH226994   6.083   0.768   7.026 -0.3416 -0.1421 -0.0429
 1812TIP3    H126995   6.044   0.810   6.950  1.4258 -0.1272 -1.0019
 1812TIP3    H226996   6.015   0.708   7.059 -0.7493 -1.0487 -2.3619
 1813TIP3   OH226997   0.421   3.648   7.563 -0.9325 -0.3504 -0.0439
 1813TIP3    H126998   0.503   3.609   7.592 -0.8842 -0.5741 -0.4694
 1813TIP3    H226999   0.394   3.705   7.636 -0.8788 -0.9899  0.4902
 1814TIP3   OH227000   0.786   3.944   1.931  0.0630 -0.5143  0.7090
 1814TIP3    H127001   0.843   4.018   1.911 -0.2105 -0.7140 -0.9679
 1814TIP3    H227002   0.825   3.870   1.883 -2.0986 -0.4399 -1.3509
 1815TIP3   OH227003   3.906   6.093   7.491  0.2798 -0.1239 -0.0955
 1815TIP3    H127004   3.937   6.003   7.498 -0.3508 -0.4174 -0.9264
 1815TIP3    H227005   3.967   6.143   7.545  0.3718 -1.1030  0.7492
 1816TIP3   OH227006   0.718   0.236   7.617 -0.0442 -1.2877 -0.3167
 1816TIP3    H127007   0.813   0.245   7.622 -0.1542 -0.2055 -0.0657
 1816TIP3    H227008   0.690   0.224   7.708 -0.2170 -0.9074 -0.3197
 1817TIP3   OH227009   5.909   4.933   1.430  0.5011  0.2183  0.1524
 1817TIP3    H127010   5.933   4.840   1.432 -0.5071 -0.0676 -0.1842
 1817TIP3    H227011   5.827   4.935   1.382 -0.3279  1.0864  1.5240
 1818TIP3   OH227012   3.220   3.307   0.935 -0.4762  0.3953 -0.1479
 1818TIP3    H127013   3.231   3.240   1.002  0.9260 -0.6867 -1.3712
 1818TIP3    H227014   3.225   3.259   0.852  0.2348  1.9473 -1.0720
 1819TIP3   OH227015   5.505   4.394   8.736 -0.0977  0.2928  0.0455
 1819TIP3    H127016   5.486   4.427   8.823 -1.5090 -0.5410  0.0894
 1819TIP3    H227017   5.464   4.456   8.676 -2.0810 -0.8687  0.1079
 1820TIP3   OH227018   4.428   1.210   8.393 -0.4778 -0.4827  0.0527
 1820TIP3    H127019   4.509   1.235   8.438 -1.3645 -0.1366  1.5447
 1820TIP3    H227020   4.412   1.120   8.423 -2.0951  0.3952  2.1135
 1821TIP3   OH227021   1.393   4.337   7.421 -0.6387 -0.2768 -0.7429
 1821TIP3    H127022   1.357   4.289   7.346 -0.2214  0.5966 -1.5388
 1821TIP3    H227023   1.379   4.429   7.398 -0.1143  0.0103  0.0639
 1822TIP3   OH227024   2.524   2.029   1.186  0.3290 -0.4071 -0.3361
 1822TIP3    H127025   2.581   2.103   1.168 -0.6390  0.4849  0.1736
 1822TIP3    H227026   2.584   1.955   1.200  1.3017  0.2835 -0.7868
 1823TIP3   OH227027   2.241   0.102   8.306 -0.5537  0.3546 -0.2157
 1823TIP3    H127028   2.225   0.093   8.212 -0.8804  1.6760 -0.3036
 1823TIP3    H227029   2.156   0.126   8.342 -0.0491  1.6957  0.1412
 1824TIP3   OH227030   0.706   1.937   1.751  0.4408 -0.3197  0.5905
 1824TIP3    H127031   0.775   1.938   1.818  0.7759  0.5626  0.2593
 1824TIP3    H227032   0.741   1.881   1.682  0.3663 -0.7301  0.8856
 1825TIP3   OH227033   0.412   3.448   8.264  0.2651 -0.2284 -0.0165
 1825TIP3    H127034   0.430   3.397   8.343 -1.8299  0.5697  1.0438
 1825TIP3    H227035   0.499   3.466   8.227  1.2733 -0.9881  1.8554
 1826TIP3   OH227036   6.572   0.079   1.917  0.4554  0.1777  0.1328
 1826TIP3    H127037   6.640   0.013   1.928  0.6979  0.5350  0.8327
 1826TIP3    H227038   6.524   0.078   2.000  1.6369  2.1784  0.9205
 1827TIP3   OH227039   0.447   4.117   0.666 -0.6228  0.0491  0.2299
 1827TIP3    H127040   0.499   4.066   0.728  0.6155  1.4348  0.4030
 1827TIP3    H227041   0.387   4.054   0.627 -0.0491 -1.2550  1.3663
 1828TIP3   OH227042   0.879   3.405   0.222  0.1587 -0.0067 -0.7302
 1828TIP3    H127043   0.866   3.496   0.250  0.5049 -0.0724 -0.3445
 1828TIP3    H227044   0.878   3.355   0.304  4.9986  0.2013 -0.2321
 1829TIP3   OH227045   4.151   1.786   8.424 -0.3944  0.4565 -0.1364
 1829TIP3    H127046   4.213   1.851   8.392  0.7103 -0.3246  0.3048
 1829TIP3    H227047   4.113   1.748   8.345  0.6997  0.0394 -0.4968
 1830TIP3   OH227048   3.348   6.311   2.213  0.3366  0.0210 -0.3803
 1830TIP3    H127049   3.352   6.265   2.297 -0.9117  0.9152  0.2109
 1830TIP3    H227050   3.254   6.315   2.193  0.5853  0.3132 -1.5492
 1831TIP3   OH227051   3.024   0.337   1.691  0.1664 -0.3526 -0.1598
 1831TIP3    H127052   3.035   0.430   1.707  3.2563 -0.8261  1.2942
 1831TIP3    H227053   2.944   0.313   1.737 -1.0719  1.6405 -1.1585
 1832TIP3   OH227054   0.409   3.191   7.220  0.3599  0.3941 -0.0343
 1832TIP3    H127055   0.316   3.187   7.197  0.0031  0.1830  1.3516
 1832TIP3    H227056   0.417   3.137   7.299  2.0818 -1.4536 -1.3584
 1833TIP3   OH227057   3.534   0.425   8.396  0.1588 -0.1710 -0.2026
 1833TIP3    H127058   3.533   0.368   8.319 -1.5414 -0.6135  0.1011
 1833TIP3    H227059   3.627   0.432   8.420  0.4887 -2.0552 -0.7939
 1834TIP3   OH227060   2.011   0.829   0.205  0.1605 -0.3557 -0.0590
 1834TIP3    H127061   2.084   0.863   0.257 -0.3888  0.4096  0.2362
 1834TIP3    H227062   2.029   0.858   0.116 -0.5645  1.2314  0.2710
 1835TIP3   OH227063   6.770   3.426   8.603 -0.2399  0.4650  0.5427
 1835TIP3    H127064   6.799   3.494   8.664 -1.1972 -0.6889  2.3741
 1835TIP3    H227065   6.761   3.347   8.656 -1.2770 -0.5777 -1.0625
 1836TIP3   OH227066   4.603   4.436   2.142  0.4763 -0.2141  0.1525
 1836TIP3    H127067   4.594   4.458   2.235  0.5918 -0.1421  0.1467
 1836TIP3    H227068   4.662   4.502   2.107  0.1121  0.0031 -0.0630
 1837TIP3   OH227069   5.133   1.449   8.475  0.0569  0.1746  0.6487
 1837TIP3    H127070   5.079   1.510   8.524 -0.2381  0.0285  0.5079
 1837TIP3    H227071   5.138   1.487   8.387 -0.9355 -0.4869  0.2891
 1838TIP3   OH227072   2.383   0.769   1.649 -0.1549  0.3274 -0.4699
 1838TIP3    H127073   2.360   0.677   1.636 -0.5269  0.5006 -1.1081
 1838TIP3    H227074   2.391   0.779   1.744 -0.1030 -0.3623 -0.3989
 1839TIP3   OH227075   3.160   5.325   0.065  0.3795  0.0879  0.1942
 1839TIP3    H127076   3.239   5.274   0.046  1.5730  1.7652  0.3710
 1839TIP3    H227077   3.099   5.262   0.103  1.2512 -1.4640 -0.8751
 1840TIP3   OH227078   4.431   4.848   1.179 -0.2673 -0.6089  0.5932
 1840TIP3    H127079   4.402   4.865   1.268 -1.2635  3.2157 -0.2572
 1840TIP3    H227080   4.472   4.930   1.152 -0.1906 -1.5508 -2.5362
 1841TIP3   OH227081   2.074   5.382   1.049  0.0935 -0.3926 -0.3550
 1841TIP3    H127082   2.135   5.454   1.029  0.3705 -0.9373 -1.6123
 1841TIP3    H227083   2.040   5.357   0.963  0.1252 -1.8628  0.0462
 1842TIP3   OH227084   3.510   6.398   7.009  0.2262  0.1521  0.2064
 1842TIP3    H127085   3.449   6.433   6.944  1.6828  1.3762 -0.5357
 1842TIP3    H227086   3.453   6.369   7.081 -1.2776  0.5229 -0.7896
 1843TIP3   OH227087   4.596   4.850   7.818  0.2547  0.4514  0.2463
 1843TIP3    H127088   4.557   4.771   7.856  1.8849 -0.8038 -0.5283
 1843TIP3    H227089   4.522   4.903   7.790 -0.8995 -1.1485  0.1369
 1844TIP3   OH227090   0.131   6.642   7.480 -0.1940  0.0924 -0.1794
 1844TIP3    H127091   0.151   6.630   7.573 -0.1927  0.2319 -0.1623
 1844TIP3    H227092   0.071   6.717   7.478 -1.2003 -0.6828 -0.1633
 1845TIP3   OH227093   1.950   1.944   7.692  0.3346 -0.2635  0.0848
 1845TIP3    H127094   1.883   1.935   7.760  0.0023  1.0037 -0.0547
 1845TIP3    H227095   1.951   1.859   7.648  0.2012 -0.9483  1.3356
 1846TIP3   OH227096   1.355   6.319   1.361  0.3429 -0.1578  0.1033
 1846TIP3    H127097   1.292   6.305   1.432  0.1281  0.7402  0.0974
 1846TIP3    H227098   1.383   6.410   1.371 -0.3352  0.2591 -1.4711
 1847TIP3   OH227099   0.279   0.855   0.552  0.0115  0.7389 -0.2208
 1847TIP3    H127100   0.303   0.934   0.505  1.7520  1.8292  2.2658
 1847TIP3    H227101   0.362   0.818   0.582 -0.6317 -2.7691 -2.2085
 1848TIP3   OH227102   2.503   0.124   8.862  0.2216  0.1528 -0.2458
 1848TIP3    H127103   2.468   0.038   8.884  0.8723  0.0503  0.4612
 1848TIP3    H227104   2.438   0.186   8.894 -1.0011 -0.0784 -2.1537
 1849TIP3   OH227105   4.370   0.313   7.810 -0.3573 -0.0195 -0.1564
 1849TIP3    H127106   4.370   0.227   7.852 -0.0498  0.6980  1.3810
 1849TIP3    H227107   4.277   0.330   7.792 -0.4551 -0.5245 -0.1555
 1850TIP3   OH227108   2.354   3.870   6.893 -0.7705  0.0655  0.8770
 1850TIP3    H127109   2.393   3.783   6.895  2.5128  1.3825  0.3410
 1850TIP3    H227110   2.346   3.891   6.800 -2.7178 -0.0583  0.9694
 1851TIP3   OH227111   1.397   0.438   7.007 -0.1449  0.5498  0.2053
 1851TIP3    H127112   1.311   0.398   6.990  0.0702  0.4330 -0.6367
 1851TIP3    H227113   1.394   0.521   6.961  0.3838  0.3107 -0.2754
 1852TIP3   OH227114   4.715   6.045   1.153 -0.6699  0.1266  0.2641
 1852TIP3    H127115   4.783   6.087   1.205 -1.5557  1.6960  0.2000
 1852TIP3    H227116   4.749   6.047   1.063 -0.1032 -0.5883  0.4527
 1853TIP3   OH227117   4.121   4.241   2.627 -0.2338 -0.3066  0.2664
 1853TIP3    H127118   4.191   4.199   2.577  0.3065  0.2808  0.5125
 1853TIP3    H227119   4.052   4.175   2.632 -1.1170  0.2506 -2.8661
 1854TIP3   OH227120   3.718   1.150   6.184  0.1774 -0.0716  0.6579
 1854TIP3    H127121   3.635   1.132   6.139  0.7703  0.7575 -0.8276
 1854TIP3    H227122   3.785   1.130   6.119  1.0744  0.9657  1.2370
 1855TIP3   OH227123   0.019   0.652   0.323 -0.0660  0.5365 -0.1456
 1855TIP3    H127124   0.085   0.683   0.261 -0.7648  3.9102  0.5727
 1855TIP3    H227125  -0.004   0.730   0.374 -3.0807 -0.9783  1.0546
 1856TIP3   OH227126   2.791   2.588   8.596 -0.1844 -0.7201 -0.5106
 1856TIP3    H127127   2.775   2.628   8.511 -0.7260 -1.3088 -0.6985
 1856TIP3    H227128   2.886   2.585   8.604 -0.1284  0.7686 -0.4005
 1857TIP3   OH227129   0.478   3.350   6.990 -0.4962  0.4231  0.2176
 1857TIP3    H127130   0.477   3.293   7.067 -2.3413  0.3221  0.1624
 1857TIP3    H227131   0.405   3.411   7.005 -1.4815 -0.1719 -1.8404
 1858TIP3   OH227132   5.008   5.999   8.653  0.5971  1.2298 -0.1271
 1858TIP3    H127133   4.995   6.078   8.601 -0.0797  1.3289  0.1842
 1858TIP3    H227134   4.979   6.023   8.741 -0.6769  0.3254 -0.2685
 1859TIP3   OH227135   0.185   3.519   7.335  0.1201 -0.0795  0.2658
 1859TIP3    H127136   0.092   3.541   7.322  0.4912  1.8725  0.5524
 1859TIP3    H227137   0.218   3.503   7.247  0.3280  3.0943 -0.3727
 1860TIP3   OH227138   4.023   2.912   8.081 -0.1611 -0.4847  0.4577
 1860TIP3    H127139   4.073   2.957   8.149 -0.8140 -0.6624  1.0718
 1860TIP3    H227140   4.022   2.820   8.109  0.0670 -0.6637 -0.1065
 1861TIP3   OH227141   2.394   4.374   0.077 -0.2279  0.3723  0.4032
 1861TIP3    H127142   2.444   4.299   0.108  2.0449  2.2419  1.5142
 1861TIP3    H227143   2.440   4.403  -0.002 -1.3557  0.3636 -0.2861
 1862TIP3   OH227144   6.365   5.545   0.679 -0.5861 -0.0852  0.2184
 1862TIP3    H127145   6.325   5.537   0.593  1.6668  1.9196 -1.1553
 1862TIP3    H227146   6.426   5.471   0.684 -1.2437 -0.6256  0.4517
 1863TIP3   OH227147   4.380   1.282   6.627 -0.0546  0.1449 -0.1860
 1863TIP3    H127148   4.342   1.194   6.629 -1.9316  0.8940 -0.5194
 1863TIP3    H227149   4.348   1.324   6.707  0.4790  0.6575 -0.2382
 1864TIP3   OH227150   0.792   2.459   1.559  0.1202 -0.2562 -0.1085
 1864TIP3    H127151   0.717   2.517   1.544  1.0314  0.8035 -0.6592
 1864TIP3    H227152   0.837   2.455   1.475  0.8393 -0.6642  0.2867
 1865TIP3   OH227153   6.271   4.157   8.633  0.3695 -0.1589  0.4759
 1865TIP3    H127154   6.227   4.099   8.695  0.2330 -0.2932  0.2546
 1865TIP3    H227155   6.362   4.161   8.663  0.0770  0.6330  1.3177
 1866TIP3   OH227156   3.846   3.645   1.475  0.4419  0.5905 -0.4515
 1866TIP3    H127157   3.866   3.670   1.384  0.4466  1.1921 -0.2901
 1866TIP3    H227158   3.858   3.726   1.525 -1.0883  0.6716 -0.1524
 1867TIP3   OH227159   2.559   1.887   6.901  0.0404 -0.1790 -0.6858
 1867TIP3    H127160   2.549   1.934   6.818  0.4794 -0.5605 -0.9557
 1867TIP3    H227161   2.651   1.862   6.903  0.7599  2.2044  1.1989
 1868TIP3   OH227162   5.557   3.024   7.761  0.0022 -0.3840 -0.3702
 1868TIP3    H127163   5.465   3.037   7.781  0.2328  0.5139  0.2181
 1868TIP3    H227164   5.599   3.105   7.792  0.9330 -0.6420 -0.9275
 1869TIP3   OH227165   2.268   6.478   0.176  0.5241  0.6089 -0.2409
 1869TIP3    H127166   2.334   6.488   0.245  0.9737 -0.3730 -0.5174
 1869TIP3    H227167   2.291   6.544   0.111  2.1761 -0.7052 -1.0586
 1870TIP3   OH227168   1.513   1.577   1.916  0.0201  0.2011  0.1123
 1870TIP3    H127169   1.574   1.632   1.965 -0.9927  0.2502  1.3838
 1870TIP3    H227170   1.526   1.601   1.824  0.4940  1.6326  0.5371
 1871TIP3   OH227171   2.586   5.082   8.857  0.0236  0.1903 -0.1945
 1871TIP3    H127172   2.497   5.049   8.859  0.4949 -1.1140  0.6520
 1871TIP3    H227173   2.640   5.005   8.840  1.0981  0.6768  0.8520
 1872TIP3   OH227174   4.090   0.310   2.455  0.3949  0.2158  0.1110
 1872TIP3    H127175   4.140   0.345   2.380  0.0147 -0.1760 -0.3310
 1872TIP3    H227176   4.017   0.371   2.466 -1.1162 -1.1690 -1.6026
 1873TIP3   OH227177   4.751   0.940   0.260  0.3422  0.4904  0.1081
 1873TIP3    H127178   4.685   0.872   0.272 -0.5986  0.9982 -1.8634
 1873TIP3    H227179   4.732   1.004   0.329 -0.7581  0.2632  0.0355
 1874TIP3   OH227180   2.234   0.183   1.528  0.1362  0.9960 -0.3495
 1874TIP3    H127181   2.314   0.136   1.506 -0.8565  0.4604 -3.2924
 1874TIP3    H227182   2.164   0.119   1.514 -0.8831  1.3693  2.3983
 1875TIP3   OH227183   5.397   1.898   1.222  0.5854  0.4399 -0.2330
 1875TIP3    H127184   5.357   1.842   1.287  0.7037  1.0273  0.3598
 1875TIP3    H227185   5.491   1.886   1.235  0.6140 -0.3119 -1.0690
 1876TIP3   OH227186   0.479   0.186   7.505  0.6059 -0.2943  0.3650
 1876TIP3    H127187   0.504   0.158   7.417  0.1491 -1.7028  0.6529
 1876TIP3    H227188   0.560   0.215   7.546  0.8285  0.3248 -0.4979
 1877TIP3   OH227189   2.152   4.735   0.163 -0.5132 -0.1008  0.0408
 1877TIP3    H127190   2.224   4.689   0.207 -0.9382  0.3230  1.2253
 1877TIP3    H227191   2.126   4.803   0.225  0.2095  1.9181 -1.7103
 1878TIP3   OH227192   2.723   2.687   0.659  0.4829 -0.3563  0.4331
 1878TIP3    H127193   2.753   2.774   0.683  1.0479 -0.2214 -0.7169
 1878TIP3    H227194   2.632   2.684   0.689  0.2843  0.8177 -0.0111
 1879TIP3   OH227195   5.545   0.893   1.995  0.1361 -0.0618  0.1476
 1879TIP3    H127196   5.504   0.828   2.053 -0.3394 -0.6172 -0.7938
 1879TIP3    H227197   5.558   0.970   2.051 -1.5705 -0.1017  0.6572
 1880TIP3   OH227198   3.514   4.167   8.799  0.0172  0.0915  0.3644
 1880TIP3    H127199   3.457   4.175   8.723 -0.6625 -1.5375  0.6645
 1880TIP3    H227200   3.603   4.169   8.763 -0.1605  2.6929 -0.1049
 1881TIP3   OH227201   2.349   5.249   7.768 -0.3885  0.0282 -0.5321
 1881TIP3    H127202   2.275   5.247   7.707 -1.3405 -0.0075  0.5897
 1881TIP3    H227203   2.309   5.242   7.854  1.0166 -1.4099  0.0454
 1882TIP3   OH227204   2.307   1.038   1.721 -0.9050 -0.7314 -0.5572
 1882TIP3    H127205   2.231   1.062   1.667 -2.2285 -1.6393  0.8124
 1882TIP3    H227206   2.285   1.070   1.809  0.2958 -1.0613 -0.1178
 1883TIP3   OH227207   6.367   2.396   2.488  0.2291  0.0432  0.4858
 1883TIP3    H127208   6.316   2.321   2.518  1.0996 -1.1745 -0.9401
 1883TIP3    H227209   6.426   2.415   2.560 -0.8301  0.1746  1.3464
 1884TIP3   OH227210   5.190   4.794   8.753  0.3634 -0.4390  0.1037
 1884TIP3    H127211   5.170   4.869   8.808  0.9299  0.0483 -0.3446
 1884TIP3    H227212   5.210   4.724   8.815 -0.6072 -0.3568  0.5303
 1885TIP3   OH227213   1.351   0.810   2.642 -0.4228  0.5246 -0.3193
 1885TIP3    H127214   1.258   0.792   2.633 -0.5331  0.6450  0.5640
 1885TIP3    H227215   1.393   0.725   2.624 -0.7511  0.2424  0.2247
 1886TIP3   OH227216   2.596   6.277   6.934  0.0175  1.0701  0.2442
 1886TIP3    H127217   2.610   6.186   6.961  0.4361  1.2467  0.6609
 1886TIP3    H227218   2.667   6.295   6.872  0.4294  1.3525  0.7869
 1887TIP3   OH227219   5.540   1.046   7.762  0.7223  0.2707 -0.4992
 1887TIP3    H127220   5.541   0.991   7.840  2.5500 -2.9226 -2.5342
 1887TIP3    H227221   5.450   1.043   7.731  0.3893 -0.0324  0.4773
 1888TIP3   OH227222   1.740   1.082   7.150 -1.0141 -0.3672  0.0648
 1888TIP3    H127223   1.822   1.044   7.119 -0.8635  0.0203 -0.0186
 1888TIP3    H227224   1.677   1.011   7.144 -1.6083  0.2999 -3.5795
 1889TIP3   OH227225   4.875   5.010   1.837  0.1099  0.2531  0.4112
 1889TIP3    H127226   4.937   4.997   1.909 -1.7217 -1.0125  1.8672
 1889TIP3    H227227   4.874   4.925   1.791  0.8562  0.8818 -0.8328
 1890TIP3   OH227228   2.652   5.926   0.554 -0.0494 -0.1365 -0.1666
 1890TIP3    H127229   2.688   5.839   0.536  1.4327  0.3456  0.3919
 1890TIP3    H227230   2.646   5.968   0.468  1.0577 -0.1092 -0.2419
 1891TIP3   OH227231   5.806   5.334   7.487 -0.6452  0.6075 -0.2538
 1891TIP3    H127232   5.738   5.272   7.514  0.0180 -0.6411 -1.3045
 1891TIP3    H227233   5.863   5.343   7.563 -0.3009 -0.7435 -0.3251
 1892TIP3   OH227234   0.963   3.138   8.439 -0.3928  0.1576  0.3773
 1892TIP3    H127235   0.955   3.054   8.393  2.4263  1.2133 -2.3983
 1892TIP3    H227236   0.915   3.200   8.384 -2.9332  0.4259  2.6909
 1893TIP3   OH227237   2.852   4.090   8.397 -0.2851 -0.3255 -0.2647
 1893TIP3    H127238   2.916   4.151   8.360  0.2011 -0.2556  0.6561
 1893TIP3    H227239   2.769   4.114   8.355 -0.6907  2.8567  1.9851
 1894TIP3   OH227240   6.675   5.238   8.868 -0.1625  0.6062 -0.0210
 1894TIP3    H127241   6.756   5.209   8.826 -0.7283  1.1748 -1.5577
 1894TIP3    H227242   6.681   5.333   8.868 -1.4527  0.7162 -1.4772
 1895TIP3   OH227243   4.156   4.206   1.857 -0.1314 -0.6114  0.1271
 1895TIP3    H127244   4.191   4.274   1.915  0.6525  0.4808 -1.5522
 1895TIP3    H227245   4.100   4.252   1.796  1.6152 -1.1821 -2.0112
 1896TIP3   OH227246   6.733   0.427   0.085 -0.3717 -0.1025  0.3286
 1896TIP3    H127247   6.698   0.368   0.018  0.1049  1.0810 -1.0111
 1896TIP3    H227248   6.670   0.499   0.087 -0.4610 -0.2018  1.2875
 1897TIP3   OH227249   1.403   4.920   7.888 -0.0353  0.0494  0.0303
 1897TIP3    H127250   1.487   4.874   7.895 -0.1151 -0.0187  0.5230
 1897TIP3    H227251   1.414   4.999   7.941 -0.9838 -0.9777  1.8703
 1898TIP3   OH227252   1.133   2.340   0.559  0.3708 -0.2871 -0.2396
 1898TIP3    H127253   1.063   2.405   0.557  0.2513 -0.3301  1.4494
 1898TIP3    H227254   1.088   2.257   0.546  0.0904 -0.3089  0.7776
 1899TIP3   OH227255   4.268   3.408   7.709  0.2376  0.4904  0.1859
 1899TIP3    H127256   4.265   3.463   7.788 -0.1326  1.7446 -0.6809
 1899TIP3    H227257   4.337   3.345   7.727 -0.3164  0.2958  1.8116
 1900TIP3   OH227258   3.697   6.072   0.503  0.4782  0.1343 -0.1837
 1900TIP3    H127259   3.784   6.032   0.506  0.3910 -0.0927 -0.6095
 1900TIP3    H227260   3.681   6.101   0.593  0.8469 -0.1387 -0.0268
 1901TIP3   OH227261   5.587   5.532   1.835  0.2531 -0.0124  1.0067
 1901TIP3    H127262   5.628   5.445   1.840  0.4044  0.0415  0.7038
 1901TIP3    H227263   5.536   5.529   1.755 -0.5332 -0.1628  1.4968
 1902TIP3   OH227264   3.538   0.393   8.757 -0.0284  0.2602  0.4371
 1902TIP3    H127265   3.448   0.413   8.735  0.2397  1.2424  0.1743
 1902TIP3    H227266   3.588   0.467   8.723  0.7413  0.3130  1.6244
 1903TIP3   OH227267   3.038   1.719   7.744 -0.2112  0.0396  0.1840
 1903TIP3    H127268   2.987   1.775   7.803 -1.0576 -0.0104 -0.4646
 1903TIP3    H227269   3.016   1.630   7.770 -1.4946  0.0076 -0.9179
 1904TIP3   OH227270   0.832   0.866   7.067 -0.5622  0.7228 -0.1740
 1904TIP3    H127271   0.844   0.824   6.981  1.1847  1.3035 -0.2635
 1904TIP3    H227272   0.793   0.951   7.047  0.9988  1.3876 -0.5688
 1905TIP3   OH227273   1.288   3.403   8.754  0.4201 -0.4126 -0.0145
 1905TIP3    H127274   1.270   3.311   8.770  2.0572 -0.4255  2.2489
 1905TIP3    H227275   1.272   3.446   8.839  1.1700  1.1229 -0.6064
 1906TIP3   OH227276   1.101   3.254   7.427 -0.0018 -0.2950 -0.2397
 1906TIP3    H127277   1.185   3.278   7.466  0.2920 -0.1134 -0.9673
 1906TIP3    H227278   1.109   3.160   7.408 -0.6882 -0.7352  1.4533
 1907TIP3   OH227279   5.198   2.312   1.416 -0.2796  0.0455  0.4061
 1907TIP3    H127280   5.288   2.284   1.430 -0.2859 -0.4216 -0.4388
 1907TIP3    H227281   5.173   2.272   1.333 -0.4628  2.1479 -0.6049
 1908TIP3   OH227282   1.275   4.265   7.914  0.0801  0.7647 -0.0873
 1908TIP3    H127283   1.324   4.263   7.996  0.7039 -1.3470 -0.4411
 1908TIP3    H227284   1.298   4.182   7.871 -1.2315  1.2399 -1.7995
 1909TIP3   OH227285   3.155   1.231   8.058 -0.2012 -0.1362  0.5448
 1909TIP3    H127286   3.122   1.156   8.009  0.1944  0.1973 -0.2497
 1909TIP3    H227287   3.169   1.299   7.992  0.5749  0.2425  1.0838
 1910TIP3   OH227288   3.547   2.530   7.444  0.0204 -0.2148 -0.1506
 1910TIP3    H127289   3.621   2.471   7.428 -0.1583 -0.1624 -1.2368
 1910TIP3    H227290   3.541   2.535   7.539 -0.4684 -2.6015 -0.0021
 1911TIP3   OH227291   1.014   2.666   7.631 -0.7258  0.0018  0.5835
 1911TIP3    H127292   1.004   2.591   7.572 -2.2300  0.1213  0.6449
 1911TIP3    H227293   1.093   2.646   7.682  0.9250  0.1625 -1.7872
 1912TIP3   OH227294   5.432   0.664   8.591  0.4416 -1.1571 -0.6835
 1912TIP3    H127295   5.447   0.659   8.685 -0.9240  0.3635 -0.3508
 1912TIP3    H227296   5.452   0.576   8.559  1.5900 -1.5158  0.9036
 1913TIP3   OH227297   6.643   5.580   2.522 -0.0429  0.0030 -0.0615
 1913TIP3    H127298   6.677   5.504   2.570 -0.1835 -0.4727 -0.7101
 1913TIP3    H227299   6.621   5.546   2.435 -1.8322  0.3679  0.2080
 1914TIP3   OH227300   6.379   4.782   1.858  0.0260  0.1736  0.0633
 1914TIP3    H127301   6.366   4.865   1.811  0.8422 -0.1494 -0.7698
 1914TIP3    H227302   6.446   4.737   1.807 -0.6035 -1.1200  0.3573
 1915TIP3   OH227303   4.275   4.004   8.541 -0.6560 -0.4995  0.2185
 1915TIP3    H127304   4.277   4.096   8.567 -0.0462 -0.2852 -0.5420
 1915TIP3    H227305   4.204   3.966   8.593  0.1495  0.0166  1.7756
 1916TIP3   OH227306   4.896   0.741   6.661  0.5741 -0.3151 -0.2397
 1916TIP3    H127307   4.904   0.828   6.622 -0.9149 -0.3016 -0.5888
 1916TIP3    H227308   4.884   0.682   6.586 -1.5966 -0.3812  0.0861
 1917TIP3   OH227309   4.915   4.695   1.766  0.7888 -0.2492 -0.3912
 1917TIP3    H127310   4.905   4.668   1.674 -0.1190  1.2712 -0.7764
 1917TIP3    H227311   5.007   4.721   1.773  0.9705 -0.7765 -0.7547
 1918TIP3   OH227312   6.155   6.141   0.881  0.6201 -0.5845 -0.1039
 1918TIP3    H127313   6.215   6.190   0.937  0.3431 -1.2688  0.8020
 1918TIP3    H227314   6.107   6.209   0.834  1.8234 -0.0176 -0.5754
 1919TIP3   OH227315   3.429   2.353   7.746  0.5157 -0.3496  0.2239
 1919TIP3    H127316   3.417   2.322   7.836 -0.6118 -0.6580 -0.0087
 1919TIP3    H227317   3.515   2.393   7.746  1.1413 -1.6106  1.0866
 1920TIP3   OH227318   5.648   2.955   0.461 -0.2051 -0.3668 -0.4220
 1920TIP3    H127319   5.595   3.028   0.427 -0.0381 -0.1508 -0.2192
 1920TIP3    H227320   5.590   2.879   0.456 -0.4256 -0.1942 -0.5058
 1921TIP3   OH227321   6.751   4.734   1.291 -0.1315  0.1562  0.7862
 1921TIP3    H127322   6.834   4.753   1.246 -0.0579  1.0095  1.2613
 1921TIP3    H227323   6.773   4.667   1.355  0.3704  0.9207  1.4332
 1922TIP3   OH227324   2.636   0.439   1.678  0.2788 -0.1324  0.2489
 1922TIP3    H127325   2.676   0.370   1.729  1.5349  0.1392 -0.3238
 1922TIP3    H227326   2.675   0.520   1.712  0.7453  0.0854 -0.7599
 1923TIP3   OH227327   5.217   0.871   1.684  0.1366 -0.4298  0.7598
 1923TIP3    H127328   5.176   0.925   1.752  0.9977  0.8539  0.3009
 1923TIP3    H227329   5.159   0.795   1.676 -1.8142  0.9829  0.6154
 1924TIP3   OH227330   1.290   2.205   8.103 -0.0240 -0.4518 -0.2658
 1924TIP3    H127331   1.195   2.190   8.105 -0.4910  1.9762 -0.1396
 1924TIP3    H227332   1.303   2.263   8.028  1.9044 -3.3625 -2.3936
 1925TIP3   OH227333   3.449   1.278   0.364  0.5225  0.2013 -0.3346
 1925TIP3    H127334   3.451   1.227   0.445  0.9309  2.2715  1.0224
 1925TIP3    H227335   3.425   1.214   0.296 -0.8438 -1.3826  1.5381
 1926TIP3   OH227336   2.913   1.275   7.700 -0.6009 -0.3627 -0.7245
 1926TIP3    H127337   2.824   1.239   7.694 -0.7646  0.0018 -0.5317
 1926TIP3    H227338   2.922   1.331   7.623 -1.6554  2.0142  0.7442
 1927TIP3   OH227339   0.435   0.310   1.173 -0.2526  0.0227  0.3080
 1927TIP3    H127340   0.483   0.315   1.256  0.8316  1.2220 -0.3549
 1927TIP3    H227341   0.422   0.216   1.158  0.5873 -0.2572  1.2414
 1928TIP3   OH227342   0.081   3.183   7.987  0.0170  0.2081  0.1345
 1928TIP3    H127343   0.072   3.091   8.011  1.4508 -0.5822 -2.0518
 1928TIP3    H227344   0.163   3.211   8.028 -0.4370  0.5651  0.8305
 1929TIP3   OH227345   6.543   3.645   1.506 -0.2854  0.6493  0.2219
 1929TIP3    H127346   6.621   3.605   1.545  0.5481  2.3412  0.3666
 1929TIP3    H227347   6.470   3.604   1.552  0.4969 -0.7967  0.2570
 1930TIP3   OH227348   0.425   3.297   8.694  0.2719 -0.3972  0.0493
 1930TIP3    H127349   0.478   3.310   8.773 -2.1720  0.0924  1.7133
 1930TIP3    H227350   0.377   3.216   8.709 -0.0622 -0.4304 -1.0680
 1931TIP3   OH227351   5.501   1.610   8.203  0.4156  0.2105 -0.2384
 1931TIP3    H127352   5.438   1.678   8.176 -0.2347 -1.0593 -2.1254
 1931TIP3    H227353   5.548   1.588   8.122  1.5183 -0.6860  0.6202
 1932TIP3   OH227354   2.978   1.405   7.445 -0.4845  0.1736  0.2001
 1932TIP3    H127355   3.040   1.336   7.420  0.1031  0.9863 -0.6809
 1932TIP3    H227356   3.034   1.481   7.463 -1.1743  0.7041  0.1341
 1933TIP3   OH227357   5.055   4.919   0.869 -0.5218 -0.5563 -0.0432
 1933TIP3    H127358   5.102   4.870   0.802 -0.8698  1.0816 -1.5653
 1933TIP3    H227359   5.006   4.852   0.917 -0.0862 -1.8100 -1.2703
 1934TIP3   OH227360   4.204   5.438   2.157  0.1649  0.1552  0.0609
 1934TIP3    H127361   4.160   5.443   2.242  1.0433  1.2871  0.4830
 1934TIP3    H227362   4.230   5.529   2.139 -0.3939  0.0079 -1.6354
 1935TIP3   OH227363   0.896   6.117   0.894  0.5504  0.1258 -0.2410
 1935TIP3    H127364   0.868   6.031   0.864  1.9478 -0.3943 -0.1143
 1935TIP3    H227365   0.824   6.175   0.870 -1.1348 -1.3019  1.1136
 1936TIP3   OH227366   3.690   1.929   8.113 -0.0127  0.3403 -0.1963
 1936TIP3    H127367   3.644   1.928   8.029  2.3203  0.1594 -1.5775
 1936TIP3    H227368   3.664   1.848   8.155 -0.4729 -0.0640 -1.2172
 1937TIP3   OH227369   1.823   4.328   0.860 -0.3488 -0.5891 -0.1378
 1937TIP3    H127370   1.730   4.307   0.857 -0.7049  0.9584 -0.8375
 1937TIP3    H227371   1.829   4.405   0.916  0.5131 -0.6994 -0.0635
 1938TIP3   OH227372   6.726   3.274   8.834  0.0834  0.1905  0.1158
 1938TIP3    H127373   6.648   3.240   8.877  0.3325 -0.0872  0.3479
 1938TIP3    H227374   6.792   3.206   8.846  0.1549  0.0999 -0.7145
 1939TIP3   OH227375   6.754   2.376   0.681 -0.7219  0.2277  0.3428
 1939TIP3    H127376   6.677   2.340   0.638 -0.7293 -0.5653  1.0053
 1939TIP3    H227377   6.726   2.463   0.711 -1.8484 -0.6220  1.8756
 1940TIP3   OH227378   1.873   6.516   8.731  0.6674 -0.0011 -0.1854
 1940TIP3    H127379   1.897   6.604   8.760 -0.6324  0.3660 -0.1430
 1940TIP3    H227380   1.955   6.468   8.727  1.2448  0.8481  1.0406
 1941TIP3   OH227381   3.294   0.413   7.866  0.6161  0.3905 -0.2770
 1941TIP3    H127382   3.244   0.480   7.820 -2.1663 -1.5809 -0.3531
 1941TIP3    H227383   3.372   0.399   7.812  0.3790  2.2569 -1.1698
 1942TIP3   OH227384   4.230   4.840   8.302  0.0831 -0.7768  0.1580
 1942TIP3    H127385   4.172   4.910   8.333  1.5098 -0.1179  1.3997
 1942TIP3    H227386   4.243   4.784   8.378  0.9851 -0.9777 -0.1356
 1943TIP3   OH227387   1.680   3.171   8.330  0.0825 -0.2749 -0.3880
 1943TIP3    H127388   1.721   3.258   8.330  0.4917 -0.4555  0.3892
 1943TIP3    H227389   1.715   3.128   8.252  2.2772 -0.8107  0.7843
 1944TIP3   OH227390   6.013   2.271   1.658  0.0545 -0.1836 -0.1597
 1944TIP3    H127391   6.038   2.190   1.613  0.2293  0.0710 -0.5351
 1944TIP3    H227392   6.084   2.287   1.720  1.1525  0.8203 -1.5954
 1945TIP3   OH227393   1.198   6.729   6.942 -0.0752 -0.2626 -0.0315
 1945TIP3    H127394   1.184   6.721   6.847 -1.6181 -0.0399  0.1570
 1945TIP3    H227395   1.116   6.766   6.975 -0.5644 -2.6925  1.7439
 1946TIP3   OH227396   5.038   1.739   1.618 -0.9116 -0.2608  0.2240
 1946TIP3    H127397   4.969   1.752   1.684 -1.9973  0.6882 -1.0456
 1946TIP3    H227398   5.118   1.729   1.670 -1.7371  0.3439  1.6971
 1947TIP3   OH227399   5.328   6.106   7.704 -0.1591  0.1793  0.1472
 1947TIP3    H127400   5.341   6.180   7.644  0.2869 -1.2577 -1.6066
 1947TIP3    H227401   5.417   6.079   7.728 -0.3147  0.0167  0.5411
 1948TIP3   OH227402   3.127   3.181   0.019  0.6329 -0.2997 -0.0165
 1948TIP3    H127403   3.139   3.275   0.010 -0.4607 -0.2807 -1.8333
 1948TIP3    H227404   3.128   3.165   0.113 -2.1082  1.9345  0.5045
 1949TIP3   OH227405   2.930   5.985   2.160  0.4361 -0.5341  0.3074
 1949TIP3    H127406   2.884   5.983   2.244  0.4865  1.3224  0.4256
 1949TIP3    H227407   3.023   5.981   2.183  0.4798  0.7064  0.4244
 1950TIP3   OH227408   5.977   5.196   6.610 -0.0184  0.0310 -0.1852
 1950TIP3    H127409   5.906   5.251   6.643 -0.3487 -0.0189 -0.7904
 1950TIP3    H227410   5.980   5.122   6.670 -1.1589 -0.4753 -0.7270
 1951TIP3   OH227411   0.847   0.098   2.016 -0.8320 -0.3935  0.0721
 1951TIP3    H127412   0.896   0.170   2.057  0.6586 -0.3263 -1.6911
 1951TIP3    H227413   0.782   0.141   1.961 -3.2925 -0.4840  2.7250
 1952TIP3   OH227414   6.069   4.258   1.512  0.4347  0.3722  0.4930
 1952TIP3    H127415   6.133   4.289   1.447  0.9486  0.5249  1.0599
 1952TIP3    H227416   6.072   4.163   1.503 -0.8989  0.4309 -1.0157
 1953TIP3   OH227417   6.468   1.584   1.320 -0.2135  0.2001 -0.1986
 1953TIP3    H127418   6.395   1.531   1.288 -0.5442 -0.9674  2.3090
 1953TIP3    H227419   6.532   1.583   1.248 -1.8705 -0.2805 -1.7193
 1954TIP3   OH227420   5.715   5.581   7.733  0.0183  0.9443 -0.1062
 1954TIP3    H127421   5.627   5.542   7.727  0.8047 -0.9088 -0.2530
 1954TIP3    H227422   5.707   5.644   7.805 -1.1362 -0.1134  0.7627
 1955TIP3   OH227423   1.563   4.789   2.095 -0.1824  0.3298  0.0684
 1955TIP3    H127424   1.606   4.815   2.013  2.9739 -0.4864  1.3234
 1955TIP3    H227425   1.548   4.871   2.141  0.0163  0.6458 -0.4159
 1956TIP3   OH227426   5.582   4.949   0.443  0.4092  0.2931  0.0812
 1956TIP3    H127427   5.490   4.966   0.420  0.2099 -1.5971 -0.7165
 1956TIP3    H227428   5.631   4.972   0.364  0.6060  0.9232  0.3753
 1957TIP3   OH227429   5.659   0.596   0.921  0.3890  0.1458 -0.0682
 1957TIP3    H127430   5.620   0.527   0.867 -2.1757  0.4898  1.2191
 1957TIP3    H227431   5.603   0.672   0.906  2.3877  1.6375 -0.4270
 1958TIP3   OH227432   6.466   2.827   8.608 -0.1137  0.1393  0.4432
 1958TIP3    H127433   6.507   2.914   8.612  1.0955 -0.3532 -0.6946
 1958TIP3    H227434   6.407   2.832   8.533 -0.5404  0.1797  0.7798
 1959TIP3   OH227435   4.682   5.021   0.967 -0.3855 -0.2017 -0.3675
 1959TIP3    H127436   4.694   4.926   0.974  0.4376 -0.0994 -0.3158
 1959TIP3    H227437   4.628   5.043   1.043  1.2763 -0.3392  0.9291
 1960TIP3   OH227438   3.183   6.435   7.299  0.0082  0.0533 -0.4582
 1960TIP3    H127439   3.202   6.371   7.231  0.0637 -0.6374  0.1880
 1960TIP3    H227440   3.131   6.387   7.363 -1.4303  1.1139 -0.7671
 1961TIP3   OH227441   5.652   2.404   7.714  0.3908 -0.2490 -0.3028
 1961TIP3    H127442   5.716   2.423   7.782  1.3145 -1.1092 -0.9068
 1961TIP3    H227443   5.612   2.489   7.694  2.2020  0.5421 -0.7459
 1962TIP3   OH227444   5.272   0.298   1.602 -0.0592  0.2591 -0.2226
 1962TIP3    H127445   5.296   0.389   1.619 -2.2539  0.5249  1.9807
 1962TIP3    H227446   5.220   0.273   1.678 -3.8652 -1.2225 -3.0271
 1963TIP3   OH227447   3.151   3.973   8.476  0.4204  0.2098  0.1880
 1963TIP3    H127448   3.060   3.966   8.446  0.1579 -2.3791  1.3482
 1963TIP3    H227449   3.202   3.925   8.411  0.8115  0.6569  0.1576
 1964TIP3   OH227450   2.973   1.604   1.359  0.5298  0.2901 -0.1184
 1964TIP3    H127451   3.021   1.592   1.277 -0.8087 -0.9658 -0.7521
 1964TIP3    H227452   2.895   1.550   1.350  0.7415 -0.5724  2.3266
 1965TIP3   OH227453   6.617   2.312   8.309 -0.7184  0.3988  0.8251
 1965TIP3    H127454   6.525   2.329   8.331 -0.9278 -2.2869  2.4674
 1965TIP3    H227455   6.646   2.247   8.374  1.7028 -0.4898 -0.9850
 1966TIP3   OH227456   3.364   3.261   6.802  0.2530 -0.0510  1.1391
 1966TIP3    H127457   3.360   3.296   6.891 -1.2654 -1.4125  1.6611
 1966TIP3    H227458   3.354   3.166   6.812 -3.7260 -0.0476 -0.5628
 1967TIP3   OH227459   5.652   2.134   0.978 -0.0140 -0.3399 -0.1942
 1967TIP3    H127460   5.669   2.103   1.067 -1.4338  0.1609  0.2798
 1967TIP3    H227461   5.627   2.055   0.930 -2.7308 -0.1884  0.7851
 1968TIP3   OH227462   1.939   0.523   7.350 -0.2807  0.0809  0.0255
 1968TIP3    H127463   1.992   0.463   7.298 -0.0337  0.5191 -0.2314
 1968TIP3    H227464   1.859   0.473   7.370  0.0661 -0.4551  0.1115
 1969TIP3   OH227465   5.416   5.754   7.642 -0.3669  0.0130  0.1361
 1969TIP3    H127466   5.367   5.704   7.707  2.7339 -3.7474 -0.0514
 1969TIP3    H227467   5.463   5.820   7.692 -1.5010  0.1416  1.0399
 1970TIP3   OH227468   4.078   3.840   8.678 -0.2930  0.1713 -0.7288
 1970TIP3    H127469   3.991   3.877   8.664 -1.3999 -2.3859 -1.2872
 1970TIP3    H227470   4.112   3.884   8.755 -2.6999  0.2808  0.3388
 1971TIP3   OH227471   5.805   4.048   2.519 -0.1975 -0.6368 -0.2052
 1971TIP3    H127472   5.894   4.084   2.519 -0.0746 -0.9364  0.0598
 1971TIP3    H227473   5.751   4.117   2.557 -0.0779 -0.4608 -0.3509
 1972TIP3   OH227474   5.646   1.639   0.125  0.2612 -0.3507  0.7875
 1972TIP3    H127475   5.617   1.633   0.034 -2.5173 -0.7265  1.6217
 1972TIP3    H227476   5.742   1.639   0.119  0.1734 -0.4056 -2.1102
 1973TIP3   OH227477   2.225   0.298   7.643  0.1518  0.1946  0.0276
 1973TIP3    H127478   2.306   0.279   7.690  1.3639  2.9119 -0.7931
 1973TIP3    H227479   2.252   0.304   7.551 -1.1731  0.3041 -0.3747
 1974TIP3   OH227480   1.509   2.693   8.422 -0.0878 -0.3858  0.3937
 1974TIP3    H127481   1.495   2.787   8.410 -1.8200 -0.5785  0.7389
 1974TIP3    H227482   1.514   2.658   8.333  1.6179  0.1309  0.2392
 1975TIP3   OH227483   0.455   4.450   0.552 -0.6821  0.3402 -0.2982
 1975TIP3    H127484   0.416   4.535   0.576 -0.3234  0.4605 -0.1269
 1975TIP3    H227485   0.509   4.427   0.628  0.1451  0.5244 -0.8102
 1976TIP3   OH227486   4.011   5.696   7.198 -0.1967  0.3360  0.0867
 1976TIP3    H127487   3.966   5.696   7.282 -1.0523 -0.3259 -0.3672
 1976TIP3    H227488   3.964   5.761   7.145  1.2793  1.9050  0.5790
 1977TIP3   OH227489   3.929   2.247   7.625  0.2168  0.3318  0.4527
 1977TIP3    H127490   3.928   2.227   7.719 -1.0975 -1.1421  0.1698
 1977TIP3    H227491   4.012   2.211   7.594  1.3328  2.0676  1.2415
 1978TIP3   OH227492   2.552   1.299   8.676 -0.6365  0.0987  0.2475
 1978TIP3    H127493   2.578   1.243   8.749 -0.9039 -1.1590 -0.5746
 1978TIP3    H227494   2.586   1.254   8.598  1.2436  2.3229 -0.3396
 1979TIP3   OH227495   3.719   1.276   0.950 -0.0115 -0.5021 -0.6059
 1979TIP3    H127496   3.766   1.358   0.966 -1.5118  0.2315  0.2448
 1979TIP3    H227497   3.735   1.257   0.858  2.6119 -0.7568 -0.1850
 1980TIP3   OH227498   5.773   4.715   0.518  0.3353  0.0201  0.0518
 1980TIP3    H127499   5.709   4.783   0.499  0.5003 -0.1959 -1.4519
 1980TIP3    H227500   5.844   4.731   0.456  1.0311 -0.6691  0.6436
 1981TIP3   OH227501   5.553   3.186   2.163  0.2335 -0.0010 -0.2542
 1981TIP3    H127502   5.647   3.203   2.151  0.3063 -0.9533 -1.2426
 1981TIP3    H227503   5.513   3.214   2.081 -0.4397  0.9299  0.3811
 1982TIP3   OH227504   6.294   1.928   6.999  0.0612  0.1151  0.0634
 1982TIP3    H127505   6.276   1.850   7.051 -0.5205 -1.8854 -2.8952
 1982TIP3    H227506   6.371   1.905   6.947  1.0674  2.2881  0.4568
 1983TIP3   OH227507   5.235   6.295   7.259  0.6683 -0.6753  0.1320
 1983TIP3    H127508   5.281   6.279   7.176  2.9133  0.8742  0.9730
 1983TIP3    H227509   5.304   6.318   7.321 -1.2009  2.1081  1.4267
 1984TIP3   OH227510   2.781   5.740   7.833 -0.3163  0.0628 -0.2247
 1984TIP3    H127511   2.845   5.770   7.769 -1.2012  0.5095 -0.9209
 1984TIP3    H227512   2.823   5.665   7.875  1.1289  1.0241  0.1558
 1985TIP3   OH227513   4.551   3.045   7.642 -0.9265 -0.3784  0.0597
 1985TIP3    H127514   4.598   2.962   7.644  1.2442  0.7952  1.0101
 1985TIP3    H227515   4.544   3.067   7.550 -0.6243 -1.1339 -0.1498
 1986TIP3   OH227516   2.240   5.748   1.978 -0.2063 -0.4865 -0.0130
 1986TIP3    H127517   2.246   5.839   1.948 -0.6843  0.5434  2.7380
 1986TIP3    H227518   2.164   5.713   1.932 -3.3079  2.2056  2.5254
 1987TIP3   OH227519   4.435   3.197   0.217 -0.4015  0.5157  0.3034
 1987TIP3    H127520   4.471   3.284   0.228 -0.9615  0.7674  0.1917
 1987TIP3    H227521   4.376   3.205   0.142  1.0556 -0.4383 -1.0271
 1988TIP3   OH227522   2.653   0.070   7.162  0.8809 -0.0812 -0.0160
 1988TIP3    H127523   2.652   0.017   7.082 -1.1982  1.0681 -0.8152
 1988TIP3    H227524   2.703   0.148   7.137  1.7516 -0.4999  0.3793
 1989TIP3   OH227525   0.168   5.507   7.486  0.7480  0.1052  0.2143
 1989TIP3    H127526   0.170   5.438   7.419  0.5231 -0.3551  0.6795
 1989TIP3    H227527   0.075   5.520   7.503  0.8178 -0.0735  0.7360
 1990TIP3   OH227528   2.965   5.810   7.345 -0.3466 -0.4435  0.3096
 1990TIP3    H127529   2.951   5.749   7.417  0.2439 -0.6057  0.2882
 1990TIP3    H227530   2.931   5.765   7.268  0.8093 -1.0812  0.1571
 1991TIP3   OH227531   0.705   5.264   0.865 -0.0418 -0.6013 -0.1815
 1991TIP3    H127532   0.684   5.182   0.821  0.2220 -0.7565 -0.0190
 1991TIP3    H227533   0.783   5.244   0.917 -0.3260 -0.4203  0.3311
 1992TIP3   OH227534   0.673   6.171   2.463 -0.3316 -0.2914  0.0993
 1992TIP3    H127535   0.596   6.116   2.475 -0.7623  0.0914 -0.7946
 1992TIP3    H227536   0.710   6.143   2.379  0.1493 -0.0536  0.2281
 1993TIP3   OH227537   2.963   3.653   0.538 -0.0189 -0.1960  0.3232
 1993TIP3    H127538   3.039   3.622   0.490  0.0031  0.0034  0.2315
 1993TIP3    H227539   2.910   3.700   0.473 -0.6658 -1.0976  0.1710
 1994TIP3   OH227540   4.114   4.922   6.923 -0.3675  0.0000 -0.2528
 1994TIP3    H127541   4.047   4.926   6.990 -0.1823  0.0068 -0.0673
 1994TIP3    H227542   4.163   5.004   6.932  0.0067 -0.2470 -0.0301
 1995TIP3   OH227543   1.707   3.966   0.668  0.2680 -0.7879 -0.1118
 1995TIP3    H127544   1.732   4.013   0.588 -0.2895 -1.8044 -0.9154
 1995TIP3    H227545   1.782   3.908   0.685  0.3977 -0.5525  0.1180
 1996TIP3   OH227546   1.371   0.243   7.871 -0.2103  0.3236 -0.4511
 1996TIP3    H127547   1.403   0.178   7.808  1.3368  1.5917 -1.0713
 1996TIP3    H227548   1.435   0.240   7.942 -0.6001  0.5846 -0.0871
 1997TIP3   OH227549   3.305   5.596   0.571  0.0308 -0.1310 -0.0047
 1997TIP3    H127550   3.347   5.675   0.606  0.5857 -0.3617 -0.1363
 1997TIP3    H227551   3.330   5.594   0.479 -2.3014  1.0539 -0.7369
 1998TIP3   OH227552   6.720   0.505   1.291  0.1352  0.3683  0.0066
 1998TIP3    H127553   6.694   0.597   1.283  0.9844  0.6161  0.0120
 1998TIP3    H227554   6.812   0.508   1.315 -0.3290 -0.4687  2.0347
 1999TIP3   OH227555   1.999   1.383   7.476  0.0933 -0.0902 -0.0772
 1999TIP3    H127556   1.989   1.450   7.544 -2.0371 -0.1152 -0.2747
 1999TIP3    H227557   1.949   1.417   7.401  2.2997 -0.1131 -1.6400
 2000TIP3   OH227558   5.777   2.251   1.832  0.3296  0.3354 -0.8582
 2000TIP3    H127559   5.840   2.290   1.770  0.5858  1.0340 -0.1661
 2000TIP3    H227560   5.829   2.233   1.910  0.2718 -1.6058 -1.2114
 2001TIP3   OH227561   3.384   4.505   0.060 -0.4144  0.6455  0.6540
 2001TIP3    H127562   3.335   4.544   0.132  1.4553 -2.0247  3.6428
 2001TIP3    H227563   3.472   4.542   0.068  0.1870 -0.7411  0.6704
 2002TIP3   OH227564   0.490   5.937   7.409  0.2008 -0.1939 -0.8309
 2002TIP3    H127565   0.424   5.978   7.464  1.0729 -0.1398  0.2116
 2002TIP3    H227566   0.452   5.852   7.384 -0.4876  0.0832 -0.7399
 2003TIP3   OH227567   0.550   2.075   8.469  0.1777 -0.2810 -0.4676
 2003TIP3    H127568   0.564   2.132   8.393 -2.0869  0.0094 -0.7525
 2003TIP3    H227569   0.540   1.987   8.431  0.1235 -0.3049 -0.3982
 2004TIP3   OH227570   0.002   5.725   0.595  0.1956  0.2564  0.5418
 2004TIP3    H127571   0.006   5.726   0.499  0.6459  1.3973  0.5559
 2004TIP3    H227572  -0.085   5.759   0.616  0.5763  1.2502  0.5440
 2005TIP3   OH227573   4.489   5.403   7.738  0.2124 -0.6319  0.1761
 2005TIP3    H127574   4.579   5.425   7.714  0.1521 -1.9721 -1.4807
 2005TIP3    H227575   4.495   5.315   7.776 -0.4930 -1.2100 -0.9826
 2006TIP3   OH227576   5.406   2.741   1.248 -0.6257 -0.3635  0.3743
 2006TIP3    H127577   5.396   2.749   1.343 -1.9907  0.4647  0.1876
 2006TIP3    H227578   5.316   2.736   1.215 -0.1488 -1.8887 -0.7889
 2007TIP3   OH227579   0.564   0.332   8.543 -0.2277  0.0896 -0.4426
 2007TIP3    H127580   0.488   0.275   8.530 -1.1613  0.5806  2.2190
 2007TIP3    H227581   0.536   0.418   8.511 -0.7002  0.1861  0.2099
 2008TIP3   OH227582   3.481   0.105   7.871 -0.3720  0.6455  0.7479
 2008TIP3    H127583   3.564   0.062   7.888 -0.4373  0.5369  0.7878
 2008TIP3    H227584   3.418   0.060   7.926 -0.4497  0.7587  0.7533
 2009TIP3   OH227585   2.963   1.789   0.610  0.3403 -0.3851  0.1446
 2009TIP3    H127586   2.978   1.709   0.560  1.2315  0.9401 -1.8658
 2009TIP3    H227587   2.967   1.762   0.701  2.3867 -2.3631 -0.4412
 2010TIP3   OH227588   3.750   1.125   1.176  0.1274 -0.3560  0.2241
 2010TIP3    H127589   3.728   1.144   1.085 -1.3288  0.6995  0.7644
 2010TIP3    H227590   3.763   1.210   1.216 -0.4116 -0.7477  1.2673
 2011TIP3   OH227591   6.335   6.159   0.140 -1.0091  0.2631  0.1353
 2011TIP3    H127592   6.400   6.225   0.118 -0.6881  0.8430  2.4891
 2011TIP3    H227593   6.251   6.205   0.134 -0.9946  0.1929 -0.5928
 2012TIP3   OH227594   5.282   1.266   0.916  0.7317 -0.5214  0.0002
 2012TIP3    H127595   5.243   1.179   0.903 -2.4269  0.9292 -1.2465
 2012TIP3    H227596   5.376   1.249   0.922  0.2567 -4.0040 -0.2405
 2013TIP3   OH227597   6.364   1.609   8.323  0.0333 -0.5185  0.1890
 2013TIP3    H127598   6.435   1.564   8.369 -0.4795 -0.3478  1.1707
 2013TIP3    H227599   6.284   1.577   8.365 -0.5633 -1.5573 -1.6321
 2014TIP3   OH227600   5.671   2.410   0.556  0.3866  0.4329 -0.6615
 2014TIP3    H127601   5.636   2.334   0.510  1.6175 -0.1885 -0.6123
 2014TIP3    H227602   5.666   2.387   0.649 -1.5742  1.4613 -0.4563
 2015TIP3   OH227603   1.175   5.270   0.289 -0.3978  0.2352 -0.2807
 2015TIP3    H127604   1.176   5.363   0.311 -1.0364  0.1382  0.1887
 2015TIP3    H227605   1.255   5.235   0.328 -1.3445  0.1259  1.6903
 2016TIP3   OH227606   2.620   0.578   0.785  0.8359 -0.1530  0.1858
 2016TIP3    H127607   2.606   0.584   0.879  1.0214 -0.1006  0.2105
 2016TIP3    H227608   2.643   0.487   0.769 -0.5804 -0.4921  0.0016
 2017TIP3   OH227609   4.897   5.430   0.671 -0.1503  0.0243  0.2292
 2017TIP3    H127610   4.884   5.357   0.732 -2.5061  1.1141  1.1378
 2017TIP3    H227611   4.921   5.504   0.727 -2.1602  0.9972 -0.0843
 2018TIP3   OH227612   0.920   4.599   7.745  0.6278  0.0322 -0.6348
 2018TIP3    H127613   0.926   4.551   7.662  1.1620  2.8324 -2.3720
 2018TIP3    H227614   0.987   4.559   7.801  1.8629 -0.4939 -2.3929
 2019TIP3   OH227615   4.409   1.942   8.869  0.4545  0.6068  0.0906
 2019TIP3    H127616   4.454   1.961   8.786  1.4936 -0.5557  0.3604
 2019TIP3    H227617   4.468   1.977   8.936 -0.4646  1.6989  0.3654
 2020TIP3   OH227618   3.064   1.741   0.300 -0.4508  0.6492  0.8249
 2020TIP3    H127619   2.972   1.734   0.277 -0.2008  1.2669 -0.4159
 2020TIP3    H227620   3.110   1.742   0.217  0.7145  0.0437  1.4348
 2021TIP3   OH227621   5.352   1.715   1.414 -0.0030  0.0758  0.2238
 2021TIP3    H127622   5.439   1.685   1.439  0.3638  0.6943 -0.2955
 2021TIP3    H227623   5.294   1.642   1.437  0.8147 -0.8547 -0.5927
 2022TIP3   OH227624   6.262   0.439   6.770 -0.0872  0.5286 -0.1000
 2022TIP3    H127625   6.355   0.448   6.751 -0.5157 -0.4065 -3.1659
 2022TIP3    H227626   6.256   0.360   6.824  0.8247  0.0261 -0.7091
 2023TIP3   OH227627   3.593   0.413   6.166  0.2512  0.0328 -0.6736
 2023TIP3    H127628   3.514   0.401   6.114 -1.1308  1.3144  1.0457
 2023TIP3    H227629   3.613   0.506   6.157 -0.6963  0.5547  1.9395
 2024TIP3   OH227630   5.455   4.371   8.189  0.2363  0.1093  1.0193
 2024TIP3    H127631   5.470   4.379   8.283 -1.5541  1.9778  1.2339
 2024TIP3    H227632   5.379   4.313   8.182  0.7390 -0.5168  0.6688
 2025TIP3   OH227633   3.028   6.659   7.542 -0.5808 -0.1637 -0.1867
 2025TIP3    H127634   2.961   6.607   7.585 -1.4751  1.4252  0.4055
 2025TIP3    H227635   3.109   6.609   7.555 -1.4595 -1.6036 -0.0455
 2026TIP3   OH227636   5.041   5.921   7.165 -0.5915  0.1373  1.2291
 2026TIP3    H127637   5.129   5.944   7.193 -0.5682  1.1328  0.4072
 2026TIP3    H227638   5.021   5.840   7.212 -0.4940  1.5725  3.9627
 2027TIP3   OH227639   0.420   3.347   1.914  0.4517  0.2291 -0.2033
 2027TIP3    H127640   0.418   3.389   2.000 -0.8202  0.0079 -0.1053
 2027TIP3    H227641   0.511   3.356   1.885  0.9938 -0.0512  1.3288
 2028TIP3   OH227642   2.849   4.537   1.688 -0.6511  0.2835  0.2138
 2028TIP3    H127643   2.892   4.556   1.771 -1.8462  1.7260  0.5470
 2028TIP3    H227644   2.755   4.534   1.709 -1.0286  1.2971 -1.1466
 2029TIP3   OH227645   0.123   6.120   7.172 -0.5948  0.0624 -0.1177
 2029TIP3    H127646   0.032   6.118   7.202 -0.4864  2.3674  0.5281
 2029TIP3    H227647   0.124   6.187   7.103  0.3636 -0.9605 -1.1437
 2030TIP3   OH227648   6.713   6.634   1.946 -0.5319  0.1998 -0.1825
 2030TIP3    H127649   6.756   6.577   2.009 -0.2202  0.0553 -0.5208
 2030TIP3    H227650   6.675   6.573   1.882 -1.3409  0.3179  0.1741
 2031TIP3   OH227651   2.721   6.351   7.492  0.2506 -0.5555 -0.1220
 2031TIP3    H127652   2.788   6.370   7.558 -0.6826 -0.5252  0.8565
 2031TIP3    H227653   2.719   6.255   7.487  1.1908 -0.5356 -1.0439
 2032TIP3   OH227654   4.110   4.245   8.538 -0.0015 -0.1723  0.1672
 2032TIP3    H127655   4.054   4.319   8.513 -0.4580 -0.7105 -0.4134
 2032TIP3    H227656   4.049   4.172   8.549  0.4471 -0.4584  0.7639
 2033TIP3   OH227657   4.206   0.021   0.306 -0.1890  0.1279 -0.1623
 2033TIP3    H127658   4.158  -0.022   0.376 -2.2941  0.1713 -1.4975
 2033TIP3    H227659   4.191   0.114   0.320 -1.5397  0.1018 -1.2322
 2034TIP3   OH227660   0.783   2.818   1.448  0.1052 -0.4151  0.6181
 2034TIP3    H127661   0.879   2.811   1.455  0.2033  0.4091  0.2730
 2034TIP3    H227662   0.768   2.911   1.428 -0.7491 -0.6115  0.3282
 2035TIP3   OH227663   3.632   5.590   8.826 -0.2533  0.0525 -0.2065
 2035TIP3    H127664   3.613   5.657   8.892  1.2380  0.1899  0.1286
 2035TIP3    H227665   3.587   5.511   8.858 -1.2427  0.6366 -0.1173
 2036TIP3   OH227666   2.612   5.363   8.808 -0.1290  0.3865  0.2720
 2036TIP3    H127667   2.570   5.369   8.722 -1.6077 -0.0719  0.9244
 2036TIP3    H227668   2.640   5.272   8.814 -1.6071 -0.0556  0.9411
 2037TIP3   OH227669   5.688   0.125   1.209 -0.3903 -0.2949  0.3235
 2037TIP3    H127670   5.691   0.219   1.188 -2.3696 -0.2962 -0.2174
 2037TIP3    H227671   5.715   0.120   1.301 -1.1472  0.9538  0.6517
 2038TIP3   OH227672   2.212   2.592   8.433 -0.0024  0.8691  0.4000
 2038TIP3    H127673   2.137   2.624   8.482 -1.4853 -1.2610 -0.3682
 2038TIP3    H227674   2.179   2.519   8.382  2.2533  0.8479 -1.1936
 2039TIP3   OH227675   0.268   4.840   1.287  0.1388  0.4719  0.3192
 2039TIP3    H127676   0.360   4.815   1.295 -0.1234 -0.9753 -0.6958
 2039TIP3    H227677   0.260   4.869   1.196 -0.9245 -1.9731 -0.4481
 2040TIP3   OH227678   6.573   5.992   1.841 -0.0760  0.1948  0.1099
 2040TIP3    H127679   6.622   6.070   1.868  0.8226 -0.2263 -0.2756
 2040TIP3    H227680   6.490   5.999   1.887 -0.4146  1.8993 -0.7061
 2041TIP3   OH227681   4.804   6.693   8.214 -0.5768  0.2203  0.0768
 2041TIP3    H127682   4.803   6.788   8.202  0.9630 -0.0540 -3.5997
 2041TIP3    H227683   4.721   6.664   8.177 -0.7466  0.0667  0.5739
 2042TIP3   OH227684   4.218   2.770   6.884  0.0129 -0.2899  0.4315
 2042TIP3    H127685   4.150   2.825   6.843 -0.3934  0.3889  1.9657
 2042TIP3    H227686   4.206   2.783   6.978  2.6721  0.3312  0.7564
 2043TIP3   OH227687   2.557   6.253   0.723  0.1265  0.3312 -0.7253
 2043TIP3    H127688   2.534   6.259   0.816 -1.7372  1.0011 -1.1831
 2043TIP3    H227689   2.623   6.183   0.719  0.7609  0.7677  1.1641
 2044TIP3   OH227690   4.700   1.379   2.274  0.2140  0.3407 -0.1579
 2044TIP3    H127691   4.777   1.357   2.327  0.6574  0.7317 -0.6308
 2044TIP3    H227692   4.729   1.451   2.217 -0.0791 -0.4446 -1.3382
 2045TIP3   OH227693   2.272   2.926   7.734 -0.5534 -0.2945  0.1933
 2045TIP3    H127694   2.198   2.912   7.675  0.8992 -0.0210 -1.8034
 2045TIP3    H227695   2.304   3.013   7.712 -0.0256 -0.1440  1.4977
 2046TIP3   OH227696   3.964   0.993   1.026  0.0756  0.0428  0.2081
 2046TIP3    H127697   3.922   1.023   1.107  1.8153 -1.4453  1.7621
 2046TIP3    H227698   3.893   0.988   0.962 -1.3523  1.3390  1.5884
 2047TIP3   OH227699   3.632   4.348   1.367  0.2949 -0.2179 -0.4248
 2047TIP3    H127700   3.673   4.421   1.414 -1.3884  0.4744  0.0337
 2047TIP3    H227701   3.568   4.390   1.309  1.0908 -1.1833 -2.0853
 2048TIP3   OH227702   1.818   6.754   1.197  0.5283 -0.6152 -0.0330
 2048TIP3    H127703   1.841   6.662   1.184  0.3943 -0.6245 -0.2044
 2048TIP3    H227704   1.811   6.790   1.108 -0.2815 -0.6534  0.0137
 2049TIP3   OH227705   6.430   3.817   6.579  0.0754 -0.1236 -0.4777
 2049TIP3    H127706   6.517   3.855   6.563  0.4066 -0.9438 -0.6739
 2049TIP3    H227707   6.426   3.741   6.522 -0.8471 -0.0025 -0.5877
 2050TIP3   OH227708   2.129   1.307   6.719 -0.0076 -0.6921  0.1724
 2050TIP3    H127709   2.138   1.299   6.814  0.8724  0.3546  0.2059
 2050TIP3    H227710   2.073   1.235   6.693  2.8441 -3.4504  1.0107
 2051TIP3   OH227711   2.630   4.256   8.789 -0.2697 -0.4438  0.0375
 2051TIP3    H127712   2.599   4.193   8.855  0.0825 -1.4251 -0.7011
 2051TIP3    H227713   2.694   4.206   8.738  1.4971  1.0951  0.6392
 2052TIP3   OH227714   1.739   0.071   1.647 -0.2860 -0.1701  0.7836
 2052TIP3    H127715   1.798   0.001   1.677  0.2047 -0.2131 -0.2081
 2052TIP3    H227716   1.704   0.038   1.564  0.2161  0.8876  0.1254
 2053TIP3   OH227717   4.805   6.534   7.496  0.3590 -0.0079  0.1427
 2053TIP3    H127718   4.874   6.467   7.500  1.8929  1.4943  0.1848
 2053TIP3    H227719   4.801   6.568   7.585  0.9532  1.2271 -0.2882
 2054TIP3   OH227720   5.810   5.212   1.362 -0.4699 -0.1655 -0.6262
 2054TIP3    H127721   5.792   5.248   1.449 -1.3389 -2.1845  0.0855
 2054TIP3    H227722   5.891   5.163   1.372 -0.1514  0.2347 -1.1804
 2055TIP3   OH227723   3.150   2.848   1.236  0.2934 -0.3648 -0.5724
 2055TIP3    H127724   3.188   2.792   1.303  0.2237  0.1861 -0.0570
 2055TIP3    H227725   3.056   2.847   1.254  0.2708 -0.2358 -0.6755
 2056TIP3   OH227726   3.580   4.179   8.457 -0.9550 -0.0493  0.8942
 2056TIP3    H127727   3.591   4.273   8.468 -1.2357  0.3086 -1.5052
 2056TIP3    H227728   3.669   4.144   8.462 -0.5118  0.7109 -1.0187
 2057TIP3   OH227729   2.869   4.562   7.904  0.2107  0.4766 -0.3328
 2057TIP3    H127730   2.947   4.599   7.862 -0.6004  2.6564 -0.0170
 2057TIP3    H227731   2.809   4.545   7.832  0.9495 -1.3498 -0.5949
 2058TIP3   OH227732   0.351   5.060   8.437  0.4980 -0.0710  0.0580
 2058TIP3    H127733   0.416   5.033   8.372  1.4300  0.2070  0.8569
 2058TIP3    H227734   0.368   5.153   8.452  0.6356 -0.2474  1.0765
 2059TIP3   OH227735   5.712   3.417   6.942  0.2544  0.6895  0.2764
 2059TIP3    H127736   5.666   3.499   6.925 -0.7907 -0.0751 -0.7687
 2059TIP3    H227737   5.699   3.365   6.863  1.5793 -0.1906  0.6005
 2060TIP3   OH227738   5.799   0.499   8.578  1.0279 -0.5194 -0.1022
 2060TIP3    H127739   5.877   0.538   8.619  0.1541  1.0560  0.1605
 2060TIP3    H227740   5.776   0.426   8.635  0.9431  0.4707  1.1986
 2061TIP3   OH227741   2.583   6.412   8.160 -1.0047 -0.0384  0.7859
 2061TIP3    H127742   2.497   6.379   8.187 -2.2733  1.4335 -1.1586
 2061TIP3    H227743   2.635   6.411   8.240 -3.0585 -0.2622  2.2033
 2062TIP3   OH227744   2.473   0.315   7.158 -0.3412  0.0637  0.4843
 2062TIP3    H127745   2.540   0.314   7.226 -1.8600  1.2400  2.0778
 2062TIP3    H227746   2.516   0.355   7.082  0.7567  0.8022  1.4564
 2063TIP3   OH227747   4.720   3.721   8.242  0.6996  0.0102  0.1015
 2063TIP3    H127748   4.693   3.688   8.328 -2.1883  0.7304 -0.4052
 2063TIP3    H227749   4.647   3.777   8.215  1.2931 -0.5636 -3.0407
 2064TIP3   OH227750   0.185   0.308   8.358 -0.0687 -0.1576 -0.0213
 2064TIP3    H127751   0.203   0.214   8.364 -2.0076 -0.5722  0.0926
 2064TIP3    H227752   0.163   0.334   8.448 -1.1132  0.0191 -0.3100
 2065TIP3   OH227753   4.940   6.275   7.601 -0.4055  0.2669  0.5866
 2065TIP3    H127754   5.013   6.314   7.648 -0.0207 -0.6198  0.7384
 2065TIP3    H227755   4.981   6.218   7.536 -0.9469  0.7437 -0.1945
 2066TIP3   OH227756   4.486   0.760   1.584  0.4822 -0.0804  0.0140
 2066TIP3    H127757   4.391   0.764   1.572  0.2066 -1.1551  1.5748
 2066TIP3    H227758   4.500   0.784   1.676  1.7669  0.4928 -0.3096
 2067TIP3   OH227759   2.870   6.095   7.410 -0.8311  0.5629  0.3567
 2067TIP3    H127760   2.793   6.087   7.354 -1.2849 -1.1876  1.1693
 2067TIP3    H227761   2.933   6.033   7.374 -0.8219  0.0206  1.2685
 2068TIP3   OH227762   2.747   0.733   0.287  0.2925 -0.0404 -0.3144
 2068TIP3    H127763   2.728   0.825   0.303  0.7476  0.1461 -0.8444
 2068TIP3    H227764   2.679   0.704   0.227 -0.8574 -0.5000  1.1361
 2069TIP3   OH227765   2.316   2.001   7.736  0.6749 -0.7219 -0.3109
 2069TIP3    H127766   2.265   2.039   7.808 -1.2598 -0.1370 -1.9023
 2069TIP3    H227767   2.389   2.062   7.724  0.5150 -0.3408  0.5564
 2070TIP3   OH227768   6.426   6.282   0.826 -0.0079  0.1629 -0.1692
 2070TIP3    H127769   6.353   6.307   0.770 -0.4958 -1.0398 -0.0943
 2070TIP3    H227770   6.504   6.294   0.772 -0.5892 -2.9615 -1.9270
 2071TIP3   OH227771   0.681   2.835   8.214  0.3628 -0.2337  0.5940
 2071TIP3    H127772   0.682   2.744   8.246  1.8511 -0.4502 -0.0092
 2071TIP3    H227773   0.669   2.826   8.119  2.2255  0.0912  0.2964
 2072TIP3   OH227774   0.023   2.711   0.071 -0.0120  0.0074 -0.1402
 2072TIP3    H127775   0.045   2.796   0.111  1.8239 -0.7234  0.5048
 2072TIP3    H227776  -0.054   2.681   0.120 -0.2881  0.9864  0.0550
 2073TIP3   OH227777   1.116   5.440   0.871  0.1609  0.3083 -0.0383
 2073TIP3    H127778   1.057   5.511   0.896  0.5878  0.9163 -0.7661
 2073TIP3    H227779   1.140   5.399   0.955 -0.2965  0.8451  0.3628
 2074TIP3   OH227780   5.625   6.448   7.287 -0.2594 -0.4889  0.3182
 2074TIP3    H127781   5.656   6.359   7.297 -3.3717 -1.7928 -0.3669
 2074TIP3    H227782   5.578   6.447   7.203  0.3900  2.0795 -0.1645
 2075TIP3   OH227783   5.266   2.010   8.739 -0.2478  0.4411  0.7801
 2075TIP3    H127784   5.329   2.071   8.700 -0.1642 -1.1428 -1.7762
 2075TIP3    H227785   5.220   2.063   8.805  0.4860  2.9745 -0.5925
 2076TIP3   OH227786   5.904   1.584   0.049 -0.5502  0.2964 -0.3026
 2076TIP3    H127787   5.892   1.585  -0.046 -1.7174  1.9571 -0.1695
 2076TIP3    H227788   5.973   1.648   0.065 -0.6350  0.3106 -0.0003
 2077TIP3   OH227789   3.850   0.847   6.905 -0.5931 -0.1180  0.1004
 2077TIP3    H127790   3.927   0.884   6.862 -0.3920 -0.2420  0.3537
 2077TIP3    H227791   3.883   0.769   6.951 -0.5590  0.7031  1.5249
 2078TIP3   OH227792   1.821   3.541   1.792  0.3155 -0.1578 -0.2198
 2078TIP3    H127793   1.877   3.597   1.738  1.3857 -0.2421  0.7795
 2078TIP3    H227794   1.873   3.462   1.807  0.1117 -0.0632  1.0620
 2079TIP3   OH227795   1.634   3.163   7.061 -0.4168 -0.1204  0.0865
 2079TIP3    H127796   1.661   3.216   6.986  2.4109 -0.4471  0.7533
 2079TIP3    H227797   1.696   3.090   7.062 -2.2405 -1.7312  1.0475
 2080TIP3   OH227798   2.463   1.153   6.736  0.1401  0.3305  0.0831
 2080TIP3    H127799   2.420   1.090   6.794  1.8629 -1.8158 -0.8295
 2080TIP3    H227800   2.408   1.154   6.658 -0.4511  0.7829  0.4947
 2081TIP3   OH227801   2.016   5.303   1.969  0.3106 -0.2580 -0.4164
 2081TIP3    H127802   2.074   5.260   1.907  1.3869 -1.0105  1.0570
 2081TIP3    H227803   2.061   5.297   2.053 -1.4370  0.0353  0.6063
 2082TIP3   OH227804   5.844   6.478   8.708 -0.2734  0.6174 -0.1577
 2082TIP3    H127805   5.853   6.483   8.803  2.0282  1.2165 -0.3437
 2082TIP3    H227806   5.860   6.386   8.687  2.4444  1.0138 -0.1510
 2083TIP3   OH227807   4.901   3.201   0.389 -0.1286 -0.7745  0.5095
 2083TIP3    H127808   4.928   3.134   0.452 -1.8601 -1.3006  0.7638
 2083TIP3    H227809   4.884   3.279   0.442  0.7351 -0.4799  0.3656
 2084TIP3   OH227810   1.975   5.783   2.453  0.1809  0.1821 -0.3365
 2084TIP3    H127811   1.884   5.811   2.463 -0.0798 -0.4734 -0.7655
 2084TIP3    H227812   1.992   5.788   2.359  0.8931  1.1802 -0.1702
 2085TIP3   OH227813   0.774   6.506   7.331  0.1845 -0.0348  0.6145
 2085TIP3    H127814   0.832   6.443   7.373  1.2943  1.3804  1.3128
 2085TIP3    H227815   0.756   6.570   7.399 -0.7685  0.4919 -0.1161
 2086TIP3   OH227816   3.792   1.337   1.314  0.2446  0.2654 -0.2698
 2086TIP3    H127817   3.776   1.408   1.376  1.2900 -0.4685  0.8890
 2086TIP3    H227818   3.806   1.382   1.230 -1.9689  1.2309 -0.1867
 2087TIP3   OH227819   2.840   0.009   1.413 -0.9576  0.4301  0.0502
 2087TIP3    H127820   2.910   0.044   1.468  0.2616 -3.0962  1.0004
 2087TIP3    H227821   2.767  -0.004   1.474 -0.5591 -0.8694  0.2751
 2088TIP3   OH227822   0.397   2.781   0.732  0.1885 -0.4169  0.3858
 2088TIP3    H127823   0.386   2.822   0.818  1.4463 -1.2822  0.9895
 2088TIP3    H227824   0.482   2.812   0.701  0.2147 -0.9249 -0.0730
 2089TIP3   OH227825   4.606   2.754   2.145 -0.2404  0.2733  0.1664
 2089TIP3    H127826   4.538   2.811   2.182 -0.4831  0.0074  0.1306
 2089TIP3    H227827   4.557   2.686   2.098  0.0265  1.5983 -2.2057
 2090TIP3   OH227828   3.065   3.924   7.516 -0.3657 -0.4794  0.3162
 2090TIP3    H127829   3.028   3.882   7.438 -1.1015 -1.3489  1.1007
 2090TIP3    H227830   3.129   3.860   7.549  1.9511  1.0158 -1.0390
 2091TIP3   OH227831   4.551   5.781   1.239  0.0654 -0.2870  0.6339
 2091TIP3    H127832   4.636   5.761   1.279  0.3439 -0.3216  0.0243
 2091TIP3    H227833   4.558   5.873   1.213  0.0703 -0.4119  0.1930
 2092TIP3   OH227834   5.942   2.112   7.652 -0.6828  0.2863  0.5739
 2092TIP3    H127835   5.980   2.200   7.651 -0.9187  0.4008  1.4456
 2092TIP3    H227836   5.858   2.121   7.608 -0.5004  0.3991  0.2474
 2093TIP3   OH227837   6.515   0.944   0.371  0.6822  0.6061 -0.0566
 2093TIP3    H127838   6.465   1.020   0.400  0.7133  0.5358  0.1806
 2093TIP3    H227839   6.469   0.869   0.409  0.6564  0.5081 -0.2833
 2094TIP3   OH227840   3.859   6.397   2.504 -0.0345 -0.1362 -0.2043
 2094TIP3    H127841   3.854   6.437   2.418  1.0137  2.0923  0.6833
 2094TIP3    H227842   3.951   6.406   2.530  0.5203 -4.0198 -0.2416
 2095TIP3   OH227843   0.847   1.039   0.394  0.5068  0.3703 -0.1890
 2095TIP3    H127844   0.772   0.992   0.357  0.7568 -0.7302  0.6496
 2095TIP3    H227845   0.923   0.988   0.367  0.6869 -0.5615  1.8991
 2096TIP3   OH227846   4.700   2.923   1.252  0.0559 -0.1470  0.5040
 2096TIP3    H127847   4.612   2.916   1.289 -0.2625 -0.0072 -0.2105
 2096TIP3    H227848   4.757   2.936   1.328 -0.4568 -0.9067  1.0394
 2097TIP3   OH227849   3.185   3.590   0.824  0.2295 -0.6651 -0.2088
 2097TIP3    H127850   3.261   3.581   0.881  2.0621  0.7642 -2.2790
 2097TIP3    H227851   3.171   3.502   0.789  1.3287 -0.8116 -0.2903
 2098TIP3   OH227852   3.896   1.188   0.463  0.3760  0.3380 -0.8676
 2098TIP3    H127853   3.987   1.206   0.442  0.7647 -1.6328 -1.0742
 2098TIP3    H227854   3.855   1.169   0.378  0.3500 -1.0289 -0.5811
 2099TIP3   OH227855   2.581   0.822   1.847  0.0291 -0.5815  0.3498
 2099TIP3    H127856   2.581   0.863   1.934  1.5976  0.8957 -0.3026
 2099TIP3    H227857   2.660   0.767   1.847 -1.5108 -2.9405  0.8491
 2100TIP3   OH227858   2.131   2.998   1.237 -0.1022  0.5803  0.3030
 2100TIP3    H127859   2.157   2.914   1.199  1.0825  0.4696  1.3188
 2100TIP3    H227860   2.052   3.023   1.188 -1.2385 -1.7365  0.8188
 2101TIP3   OH227861   3.465   2.464   0.028 -0.0638  0.5712  0.3102
 2101TIP3    H127862   3.374   2.458   0.057  0.3764  0.2239  1.7176
 2101TIP3    H227863   3.493   2.373   0.018  0.4244  0.6464  0.9279
 2102TIP3   OH227864   4.277   4.863   0.786  0.3624  0.0723  0.1343
 2102TIP3    H127865   4.214   4.863   0.713 -1.8080 -0.3402  1.8808
 2102TIP3    H227866   4.338   4.933   0.765 -0.8383  0.6750 -1.5790
 2103TIP3   OH227867   5.276   4.599   8.207 -0.4047 -0.4795 -0.6430
 2103TIP3    H127868   5.286   4.682   8.161  0.5829  0.2765  0.8579
 2103TIP3    H227869   5.348   4.545   8.174  0.1939 -0.0029 -0.1368
 2104TIP3   OH227870   6.351   3.530   1.693  0.8381 -0.4201  0.0034
 2104TIP3    H127871   6.260   3.555   1.708  0.7213 -0.2866 -0.8548
 2104TIP3    H227872   6.352   3.435   1.707  0.9260 -0.2007  1.6197
 2105TIP3   OH227873   6.262   1.118   7.666  0.2195  0.1936  0.3937
 2105TIP3    H127874   6.270   1.061   7.589 -1.2245  2.0319 -1.2149
 2105TIP3    H227875   6.174   1.155   7.659 -0.1581  0.0170  3.2667
 2106TIP3   OH227876   4.472   4.309   1.310  0.1357  0.1830 -0.3144
 2106TIP3    H127877   4.429   4.312   1.395  0.5078  1.1556 -0.1389
 2106TIP3    H227878   4.556   4.267   1.327 -0.2137 -0.5537 -0.4051
 2107TIP3   OH227879   1.857   0.392   0.719 -0.9151  0.1907 -0.0823
 2107TIP3    H127880   1.905   0.473   0.700  0.1315 -0.5212 -0.5808
 2107TIP3    H227881   1.876   0.336   0.644 -0.6984 -0.9249  0.7873
 2108TIP3   OH227882   0.037   4.828   8.287 -0.4154  0.0106  0.2283
 2108TIP3    H127883   0.003   4.901   8.338  1.9295  0.2918  1.5175
 2108TIP3    H227884   0.056   4.865   8.201 -0.0589  0.7144  0.6059
 2109TIP3   OH227885   3.913   5.194   1.375  0.6908  0.4251  1.2664
 2109TIP3    H127886   3.946   5.264   1.319  2.7374  0.1554  2.0237
 2109TIP3    H227887   3.845   5.235   1.427 -1.6543  0.5633 -1.6673
 2110TIP3   OH227888   5.287   2.541   7.669  0.1679  0.4380  0.3108
 2110TIP3    H127889   5.303   2.556   7.762 -1.3693 -1.2947  0.9324
 2110TIP3    H227890   5.305   2.448   7.657 -0.3945  0.4767 -0.9534
 2111TIP3   OH227891   6.137   2.831   1.021 -0.4717  0.2390 -0.3556
 2111TIP3    H127892   6.086   2.787   0.952 -0.9164  0.1470  0.0235
 2111TIP3    H227893   6.075   2.893   1.060 -0.3815 -0.0743  0.2952
 2112TIP3   OH227894   4.304   4.399   0.281  0.2518  0.0904 -0.0805
 2112TIP3    H127895   4.388   4.442   0.300 -0.0368  0.2094  1.0289
 2112TIP3    H227896   4.245   4.433   0.349 -0.4121 -0.8005 -0.2059
 2113TIP3   OH227897   2.961   5.930   8.016  0.4209 -0.1032  0.1548
 2113TIP3    H127898   3.049   5.893   8.016 -0.1807 -1.7330 -1.5548
 2113TIP3    H227899   2.910   5.869   8.070  0.0351 -0.0772 -0.1760
 2114TIP3   OH227900   3.665   2.495   7.761  0.5487  0.5805  0.1882
 2114TIP3    H127901   3.713   2.569   7.725  2.0252 -0.3803  0.1261
 2114TIP3    H227902   3.721   2.461   7.830 -0.2237 -0.3409  0.3885
 2115TIP3   OH227903   4.864   6.154   1.344 -0.7745  0.0643 -0.3059
 2115TIP3    H127904   4.816   6.199   1.414 -1.2579  0.5076 -0.9113
 2115TIP3    H227905   4.947   6.202   1.337 -0.6546 -0.0875  0.0766
 2116TIP3   OH227906   3.479   5.572   8.514 -0.2650 -0.1599  0.1775
 2116TIP3    H127907   3.509   5.482   8.519 -1.0864 -0.4825 -0.4591
 2116TIP3    H227908   3.409   5.578   8.578 -1.1172 -0.3621 -0.7076
 2117TIP3   OH227909   5.004   1.628   8.834 -0.3399  0.2557 -0.1416
 2117TIP3    H127910   4.941   1.557   8.829 -0.3223  0.0812  1.5418
 2117TIP3    H227911   5.000   1.658   8.925  0.2331  1.8781 -0.6038
 2118TIP3   OH227912   5.445   1.255   1.928  0.4333  0.2383  0.3226
 2118TIP3    H127913   5.445   1.346   1.897  0.1091  0.1463  0.0466
 2118TIP3    H227914   5.537   1.237   1.948  0.0649  1.9660  4.4568
 2119TIP3   OH227915   5.528   1.181   0.861  0.6992 -0.5431 -0.6388
 2119TIP3    H127916   5.618   1.204   0.883  0.6237 -1.7076  1.0597
 2119TIP3    H227917   5.536   1.108   0.799  0.9503 -1.1150  0.0525
 2120TIP3   OH227918   5.583   2.301   8.235  0.3412  0.3227  0.0276
 2120TIP3    H127919   5.611   2.367   8.172  0.5537 -0.0551 -0.2805
 2120TIP3    H227920   5.569   2.349   8.316 -1.8279  1.1773 -0.7576
 2121TIP3   OH227921   4.777   4.049   7.555 -0.2818  0.5198 -0.3807
 2121TIP3    H127922   4.759   4.003   7.473 -0.4398  0.5888 -0.3847
 2121TIP3    H227923   4.805   3.981   7.616 -0.3367  0.4449 -0.4405
 2122TIP3   OH227924   5.058   3.844   2.105  0.4173 -0.0570 -0.1784
 2122TIP3    H127925   5.108   3.898   2.166  2.0876 -0.2872 -1.3026
 2122TIP3    H227926   5.058   3.756   2.144  0.6712  0.0017 -0.0488
 2123TIP3   OH227927   0.648   0.905   1.520 -0.0430 -0.3547  0.0822
 2123TIP3    H127928   0.663   0.819   1.481  1.7462 -0.3328  0.6300
 2123TIP3    H227929   0.735   0.935   1.547 -0.6259  1.6394 -0.0895
 2124TIP3   OH227930   2.945   4.894   1.808  0.0582  0.5226 -0.0297
 2124TIP3    H127931   2.941   4.960   1.877  2.2222  2.1951 -1.3736
 2124TIP3    H227932   2.988   4.819   1.850 -2.1772 -0.0147  1.4359
 2125TIP3   OH227933   0.176   0.350   7.816  0.0684 -0.1192 -0.5376
 2125TIP3    H127934   0.208   0.388   7.898 -1.3747  0.9361 -0.4177
 2125TIP3    H227935   0.206   0.410   7.748 -0.7364  0.3081 -0.5267
 2126TIP3   OH227936   0.097   5.221   8.635 -0.0168  0.0754 -0.3994
 2126TIP3    H127937   0.078   5.315   8.641  0.3305  0.2540 -1.7491
 2126TIP3    H227938   0.189   5.214   8.661  0.7476  0.5059 -2.7248
 2127TIP3   OH227939   4.049   4.885   7.559 -0.7045  0.0763  0.2403
 2127TIP3    H127940   4.145   4.884   7.554 -0.6244 -0.6246  1.4306
 2127TIP3    H227941   4.023   4.955   7.500  0.4852 -0.4326 -0.9349
 2128TIP3   OH227942   4.447   1.906   1.070 -0.9459 -0.1147 -0.0380
 2128TIP3    H127943   4.365   1.912   1.021 -0.7116 -0.0044 -0.4099
 2128TIP3    H227944   4.437   1.826   1.121  0.6620 -2.8882 -3.6724
 2129TIP3   OH227945   2.968   2.335   0.153  0.4044  0.3943 -0.3015
 2129TIP3    H127946   3.007   2.250   0.175 -0.6806  0.2999  1.3900
 2129TIP3    H227947   2.906   2.315   0.083  0.6914 -0.0667 -0.4318
 2130TIP3   OH227948   5.259   1.759   8.392  0.1753 -0.3294  0.0520
 2130TIP3    H127949   5.299   1.796   8.470 -0.6885  0.2632  0.2378
 2130TIP3    H227950   5.323   1.697   8.358  1.2444  0.5996  0.3175
 2131TIP3   OH227951   4.449   3.392   1.539  0.5057  0.1014  0.4430
 2131TIP3    H127952   4.378   3.450   1.515  1.2190  0.5902 -0.5637
 2131TIP3    H227953   4.436   3.314   1.485  1.8497  1.0152 -1.2999
 2132TIP3   OH227954   5.084   2.083   1.657  0.3398 -0.3058 -0.4959
 2132TIP3    H127955   5.122   1.996   1.641 -0.5504 -1.1150  1.4956
 2132TIP3    H227956   5.125   2.112   1.738 -2.0161 -0.5077  0.8335
 2133TIP3   OH227957   6.396   0.715   1.494 -0.1145 -0.6161 -0.3587
 2133TIP3    H127958   6.400   0.759   1.579 -0.8817 -0.4826 -0.3871
 2133TIP3    H227959   6.365   0.627   1.515  1.4140 -1.1707 -0.3011
 2134TIP3   OH227960   3.437   5.309   1.079  0.1297  0.0078  0.0413
 2134TIP3    H127961   3.376   5.371   1.119 -0.3019 -1.0073  0.9789
 2134TIP3    H227962   3.386   5.265   1.012  0.2130  0.0721 -0.0665
 2135TIP3   OH227963   0.401   6.286   0.250 -0.1640 -0.9958  0.5742
 2135TIP3    H127964   0.369   6.196   0.254 -1.6322 -0.7415 -2.5021
 2135TIP3    H227965   0.485   6.280   0.205  0.6870 -0.9539  2.0945
 2136TIP3   OH227966   3.823   3.213   6.701  0.1518 -0.5229  0.1061
 2136TIP3    H127967   3.854   3.168   6.779 -1.8009 -0.6441  0.8652
 2136TIP3    H227968   3.779   3.291   6.734  2.1871  1.2385 -1.1056
 2137TIP3   OH227969   0.961   6.669   8.368 -0.1855  0.0221 -0.3483
 2137TIP3    H127970   0.947   6.649   8.460 -1.5004  0.5039 -0.4201
 2137TIP3    H227971   0.935   6.761   8.359 -0.3118 -0.0897 -1.2411
 2138TIP3   OH227972   6.648   1.496   7.822 -0.4838 -0.2222  0.1440
 2138TIP3    H127973   6.656   1.531   7.733 -0.9183  2.1509  0.9736
 2138TIP3    H227974   6.571   1.439   7.818 -1.0858  0.6233 -0.7816
 2139TIP3   OH227975   3.375   1.572   6.719  0.5747  0.4501  0.1380
 2139TIP3    H127976   3.349   1.549   6.629  1.8809 -2.1738  0.3233
 2139TIP3    H227977   3.426   1.652   6.709  1.4080 -0.2447 -1.6072
 2140TIP3   OH227978   3.992   4.324   1.668  0.9888  0.3663 -0.0531
 2140TIP3    H127979   3.972   4.417   1.668  0.7025  0.3343 -1.9430
 2140TIP3    H227980   3.913   4.282   1.633  1.3412 -0.5361  0.1886
 2141TIP3   OH227981   0.145   0.679   8.283 -0.2404 -0.5444 -0.0230
 2141TIP3    H127982   0.165   0.701   8.374 -2.4360  0.9381  0.1581
 2141TIP3    H227983   0.229   0.687   8.237  0.9211 -1.3724  1.8278
 2142TIP3   OH227984   3.811   6.344   8.848 -0.1726 -0.3799 -0.1303
 2142TIP3    H127985   3.793   6.333   8.942  0.5103 -0.7308 -0.0321
 2142TIP3    H227986   3.811   6.439   8.835 -1.9732 -0.3416 -0.1337
 2143TIP3   OH227987   0.661   1.288   0.746 -0.4298 -0.6137  0.5930
 2143TIP3    H127988   0.714   1.270   0.668 -0.0531 -1.4301  1.0267
 2143TIP3    H227989   0.686   1.377   0.772  0.7687 -0.9907  0.8085
 2144TIP3   OH227990   1.835   5.698   8.784  0.1370  0.4573 -0.5114
 2144TIP3    H127991   1.770   5.755   8.826 -0.0527 -0.1794  0.0812
 2144TIP3    H227992   1.800   5.610   8.794  0.0778  0.2770 -2.0667
 2145TIP3   OH227993   1.403   4.207   1.048 -0.4559 -0.3142 -0.4802
 2145TIP3    H127994   1.400   4.204   1.143  0.0202 -2.0332 -0.4775
 2145TIP3    H227995   1.496   4.207   1.027 -0.5405 -1.1356 -0.9277
 2146TIP3   OH227996   5.652   1.112   7.103 -0.1889  0.7542 -0.1684
 2146TIP3    H127997   5.721   1.060   7.060  0.3398  0.6331  0.7924
 2146TIP3    H227998   5.700   1.182   7.147 -0.8909  2.0469 -1.4035
 2147TIP3   OH227999   0.752   4.973   8.010 -0.3507 -0.7696  0.3272
 2147TIP3    H128000   0.827   4.967   7.950 -3.1312 -1.0109 -3.5342
 2147TIP3    H228001   0.758   5.060   8.048 -0.0435  0.8065 -2.9799
 2148TIP3   OH228002   4.617   1.035   1.387 -0.5032 -0.2911 -0.2762
 2148TIP3    H128003   4.593   1.065   1.474 -0.2019  0.5577 -0.4790
 2148TIP3    H228004   4.709   1.059   1.377 -0.2808 -1.1707 -0.5013
 2149TIP3   OH228005   0.793   3.045   6.892 -0.8635  0.5277 -0.2062
 2149TIP3    H128006   0.818   3.016   6.980 -0.8967 -0.4500 -0.5084
 2149TIP3    H228007   0.866   3.100   6.863  0.3326 -1.1637 -0.5363
 2150TIP3   OH228008   0.749   1.166   2.568 -0.3095 -0.1042 -0.2347
 2150TIP3    H128009   0.685   1.207   2.510 -2.1941 -2.0327  0.3847
 2150TIP3    H228010   0.706   1.160   2.653  2.4413  2.7975  1.6052
 2151TIP3   OH228011   4.974   0.308   1.174  0.1441 -0.6070  0.2944
 2151TIP3    H128012   4.898   0.254   1.197 -1.3239  1.3590  0.2877
 2151TIP3    H228013   4.943   0.398   1.184  2.5159  0.2541  0.3339
 2152TIP3   OH228014   6.055   0.604   7.327 -0.3710 -0.4509  0.0328
 2152TIP3    H128015   6.049   0.530   7.387  0.3383  0.0702  0.7746
 2152TIP3    H228016   5.986   0.589   7.262 -0.8670 -1.2459  0.7301
 2153TIP3   OH228017   3.089   5.242   7.009 -0.2661 -0.3527  0.0831
 2153TIP3    H128018   3.055   5.190   6.936 -1.3863 -0.5157  0.6944
 2153TIP3    H228019   3.136   5.179   7.064 -2.3951 -0.9987  1.3083
 2154TIP3   OH228020   3.657   4.971   0.284  0.3456 -0.5000 -0.1967
 2154TIP3    H128021   3.581   4.913   0.288 -0.0124  0.0335  1.4895
 2154TIP3    H228022   3.640   5.028   0.210 -1.8733  0.8719  1.2607
 2155TIP3   OH228023   4.903   3.444   7.029 -0.2349  0.0730  0.1397
 2155TIP3    H128024   4.867   3.494   6.956  0.1069  1.6157  0.9982
 2155TIP3    H228025   4.933   3.362   6.989  0.3067  1.0381 -1.5206
 2156TIP3   OH228026   6.427   5.790   8.834 -0.2374  0.3136 -0.0361
 2156TIP3    H128027   6.463   5.777   8.746 -0.6035 -0.2439 -0.1089
 2156TIP3    H228028   6.364   5.719   8.845  0.1020  0.1295  0.8327
 2157TIP3   OH228029   0.576   1.037   7.874  0.3657 -0.4515 -0.2114
 2157TIP3    H128030   0.596   1.098   7.945 -2.7794  1.0712 -0.4422
 2157TIP3    H228031   0.655   1.036   7.820  1.0247  2.4637  0.5137
 2158TIP3   OH228032   4.859   6.160   7.205  0.1206 -0.4749  0.4207
 2158TIP3    H128033   4.775   6.117   7.192  0.4227 -0.6290 -1.1328
 2158TIP3    H228034   4.917   6.089   7.235 -0.7275  0.0077  3.6602
 2159TIP3   OH228035   3.290   0.485   0.601 -0.3621 -0.3704 -0.0734
 2159TIP3    H128036   3.216   0.429   0.623 -0.9086  0.1880 -0.4516
 2159TIP3    H228037   3.251   0.570   0.583  0.4696  0.1595  0.5711
 2160TIP3   OH228038   4.473   6.396   0.421  0.0484  0.2526  0.1559
 2160TIP3    H128039   4.557   6.442   0.412  0.4179 -0.2992  0.7383
 2160TIP3    H228040   4.432   6.436   0.497  1.4666 -1.9877  2.2398
 2161TIP3   OH228041   4.655   6.637   2.294 -0.0640 -0.1456 -0.1707
 2161TIP3    H128042   4.625   6.697   2.363 -0.8911 -0.7140 -0.0251
 2161TIP3    H228043   4.750   6.645   2.296 -0.1223  0.5609  0.3939
 2162TIP3   OH228044   5.428   0.480   1.281 -0.4604  0.3819 -0.3572
 2162TIP3    H128045   5.456   0.481   1.189  3.0339  2.1674  0.5327
 2162TIP3    H228046   5.409   0.388   1.299  0.6604 -0.3272 -2.3942
 2163TIP3   OH228047   6.689   5.608   7.334  0.2155 -0.2349  0.4666
 2163TIP3    H128048   6.740   5.689   7.327 -1.0240  0.5732  0.5729
 2163TIP3    H228049   6.645   5.600   7.250  1.3622 -1.5327 -0.0380
 2164TIP3   OH228050   4.076   2.719   1.920  0.4244 -0.1406  0.8010
 2164TIP3    H128051   3.998   2.773   1.936  0.5602  0.7550 -1.1960
 2164TIP3    H228052   4.148   2.769   1.959  0.3487  0.4300  0.2324
 2165TIP3   OH228053   1.809   0.356   8.742 -0.2270  0.2181  0.0123
 2165TIP3    H128054   1.753   0.294   8.788  1.1780  1.0002  3.0061
 2165TIP3    H228055   1.756   0.435   8.734 -0.0770  0.4911  1.5168
 2166TIP3   OH228056   0.820   3.669   0.321  0.3965 -0.2754 -0.3583
 2166TIP3    H128057   0.845   3.731   0.253  0.4547  1.8744  1.5011
 2166TIP3    H228058   0.854   3.707   0.402 -0.1020 -2.4660  0.9643
 2167TIP3   OH228059   4.992   5.339   7.217 -0.0124 -0.7373  0.7800
 2167TIP3    H128060   4.982   5.382   7.302  0.4371  1.2573 -0.1315
 2167TIP3    H228061   5.086   5.346   7.197 -0.6062  2.3543 -1.5762
 2168TIP3   OH228062   5.674   1.035   2.447  0.0815  0.1237 -0.5188
 2168TIP3    H128063   5.601   1.001   2.498 -1.1464  2.0846 -0.8685
 2168TIP3    H228064   5.644   1.031   2.357  1.7916 -2.2194 -1.1017
 2169TIP3   OH228065   3.057   6.308   2.111  0.0930  0.1590 -0.2580
 2169TIP3    H128066   2.985   6.365   2.139  0.4671  0.2797  0.5091
 2169TIP3    H228067   3.050   6.305   2.016 -1.5936 -0.7162 -0.1560
 2170TIP3   OH228068   5.266   1.400   7.279 -0.0088 -0.1425  0.6364
 2170TIP3    H128069   5.305   1.315   7.263 -0.7417 -0.3398 -0.2111
 2170TIP3    H228070   5.331   1.463   7.247 -0.2814 -0.4564 -0.5908
 2171TIP3   OH228071   0.696   5.650   1.149 -0.0858 -0.4458  0.2423
 2171TIP3    H128072   0.735   5.736   1.139 -1.6374  0.1318 -1.4455
 2171TIP3    H228073   0.768   5.593   1.176  1.0259  1.2925  1.0718
 2172TIP3   OH228074   0.349   4.863   7.769  0.4922 -0.2620  0.1073
 2172TIP3    H128075   0.293   4.938   7.745  1.9538  0.5750 -0.8654
 2172TIP3    H228076   0.413   4.858   7.698  1.2881 -1.5690  0.8845
 2173TIP3   OH228077   6.174   1.764   1.303 -0.1675 -0.6091 -0.0023
 2173TIP3    H128078   6.082   1.782   1.283 -0.2478  0.4594  1.1975
 2173TIP3    H228079   6.210   1.848   1.329  1.1125 -1.0554 -0.2500
 2174TIP3   OH228080   3.161   1.715   6.919  0.6463 -0.0942  0.0283
 2174TIP3    H128081   3.153   1.727   6.825 -0.2737 -1.0576 -0.0274
 2174TIP3    H228082   3.249   1.678   6.931 -0.3683 -3.0676 -0.8141
 2175TIP3   OH228083   2.696   3.301   8.363  0.3505 -0.2122  0.1668
 2175TIP3    H128084   2.764   3.262   8.418 -0.6543 -1.2983  0.6777
 2175TIP3    H228085   2.744   3.357   8.302  1.4696  1.5610  2.5025
 2176TIP3   OH228086   0.727   5.202   0.434 -0.3154 -0.0227 -0.3175
 2176TIP3    H128087   0.792   5.266   0.465 -0.4703 -0.4586  0.9594
 2176TIP3    H228088   0.649   5.255   0.415 -0.8585  0.0883  1.9275
 2177TIP3   OH228089   3.236   2.229   7.148  0.0999 -0.2426  0.7364
 2177TIP3    H128090   3.154   2.265   7.184  0.4440  1.4712 -0.0894
 2177TIP3    H228091   3.274   2.301   7.099  1.3632 -1.4834 -0.1856
 2178TIP3   OH228092   5.196   6.388   8.843  0.1180  0.0306 -0.7610
 2178TIP3    H128093   5.145   6.387   8.762  0.1530 -0.7531 -0.7743
 2178TIP3    H228094   5.284   6.362   8.817  0.2861  0.4066 -0.5749
 2179TIP3   OH228095   5.891   2.984   8.699 -0.2546  0.1032 -0.3597
 2179TIP3    H128096   5.900   3.059   8.757 -0.1377  1.0388 -1.5556
 2179TIP3    H228097   5.811   2.940   8.729  0.4038 -0.0739  1.1924
 2180TIP3   OH228098   1.295   3.744   7.800 -0.3994  0.1934 -0.0584
 2180TIP3    H128099   1.331   3.776   7.717  1.4653 -0.7368  0.3467
 2180TIP3    H228100   1.365   3.692   7.838 -1.0692  0.9019  2.3065
 2181TIP3   OH228101   5.499   1.886   8.883  0.1359 -0.2210 -0.0361
 2181TIP3    H128102   5.429   1.924   8.831 -0.1478 -1.0731 -0.2801
 2181TIP3    H228103   5.457   1.860   8.965  0.2401 -0.3936 -0.0361
 2182TIP3   OH228104   1.411   4.567   7.259  0.3210  0.5456 -0.4459
 2182TIP3    H128105   1.492   4.604   7.294  0.0352  0.2254  0.5962
 2182TIP3    H228106   1.356   4.643   7.240 -0.0574  0.6925  1.1604
 2183TIP3   OH228107   6.464   4.487   7.445 -0.2360  0.3515 -0.0996
 2183TIP3    H128108   6.398   4.464   7.380  1.6101 -0.4687 -1.8342
 2183TIP3    H228109   6.475   4.582   7.437 -0.4951  0.3458 -0.5210
 2184TIP3   OH228110   3.490   3.805   0.562  0.4711 -0.0021  0.6681
 2184TIP3    H128111   3.525   3.797   0.650 -1.4672  1.1166  1.6156
 2184TIP3    H228112   3.477   3.899   0.549  4.0634  0.3030 -2.2878
 2185TIP3   OH228113   1.116   0.344   7.900 -0.6437 -0.5964  0.3546
 2185TIP3    H128114   1.201   0.301   7.902  0.8947  2.2778  1.6563
 2185TIP3    H228115   1.124   0.418   7.960 -3.2721  1.1931 -1.2629
 2186TIP3   OH228116   3.985   4.057   1.487 -0.1106  0.5561  0.4810
 2186TIP3    H128117   4.033   3.994   1.540 -0.9513  0.0356  0.6582
 2186TIP3    H228118   3.910   4.082   1.542  0.3623  1.9442  0.5285
 2187TIP3   OH228119   5.269   1.934   1.894 -0.5620 -0.5748 -0.0194
 2187TIP3    H128120   5.181   1.928   1.931 -0.0754 -1.5062  1.0848
 2187TIP3    H228121   5.280   1.852   1.846  0.2448 -1.1839  1.1668
 2188TIP3   OH228122   3.242   1.107   0.761 -0.4785  0.1388 -0.7149
 2188TIP3    H128123   3.236   1.145   0.849  0.5334  1.5912 -1.2463
 2188TIP3    H228124   3.177   1.037   0.761  0.7066 -1.0761  1.7702
 2189TIP3   OH228125   0.074   2.335   0.374  0.1802 -0.1865  0.1882
 2189TIP3    H128126  -0.015   2.366   0.389  0.4292 -0.5567  3.0627
 2189TIP3    H228127   0.100   2.375   0.291 -0.9205  4.1261  1.6401
 2190TIP3   OH228128   5.819   0.050   0.072  0.5302  0.2192 -0.1555
 2190TIP3    H128129   5.794  -0.022   0.130  2.1782 -0.3191 -0.0646
 2190TIP3    H228130   5.861   0.008  -0.003 -0.4057  0.9886 -1.1492
 2191TIP3   OH228131   6.456   1.616   7.486 -0.6276 -0.4476 -0.9511
 2191TIP3    H128132   6.373   1.656   7.514  0.3163  1.8344 -1.1930
 2191TIP3    H228133   6.457   1.629   7.391 -0.0667 -0.6273 -0.9707
 2192TIP3   OH228134   0.900   2.269   0.136 -0.6771 -0.1477 -0.4608
 2192TIP3    H128135   0.890   2.362   0.154 -1.1757  0.0796 -1.7506
 2192TIP3    H228136   0.980   2.244   0.182 -1.5161  0.4731  1.4079
 2193TIP3   OH228137   5.954   2.689   0.851  0.5612 -0.0758 -0.5136
 2193TIP3    H128138   5.962   2.653   0.762 -0.0379 -1.9434  0.1408
 2193TIP3    H228139   5.898   2.766   0.840  1.5758  0.5165 -1.9262
 2194TIP3   OH228140   6.463   0.533   7.276 -0.0803 -0.1954 -0.6204
 2194TIP3    H128141   6.476   0.531   7.182  2.7887 -0.2783 -0.2995
 2194TIP3    H228142   6.459   0.627   7.298  1.7102 -0.1011 -0.5916
 2195TIP3   OH228143   3.585   4.267   7.856 -0.1588  0.0216 -0.1523
 2195TIP3    H128144   3.540   4.183   7.862 -1.3504  0.6611  0.3648
 2195TIP3    H228145   3.632   4.264   7.773 -0.5983 -0.9622 -0.3760
 2196TIP3   OH228146   2.974   4.546   1.241  1.1066 -0.0996 -0.3981
 2196TIP3    H128147   2.993   4.619   1.299 -0.6801  1.8519 -2.1059
 2196TIP3    H228148   2.937   4.478   1.298  0.1422  1.4320  0.8545
 2197TIP3   OH228149   6.543   5.574   1.162 -0.9359 -0.1632 -0.0656
 2197TIP3    H128150   6.536   5.624   1.244 -0.5396 -1.1320  0.5738
 2197TIP3    H228151   6.549   5.641   1.094 -0.2878  0.6689  0.7785
 2198TIP3   OH228152   5.859   4.947   7.103 -0.0260 -0.3615  0.8975
 2198TIP3    H128153   5.807   4.882   7.055  1.8800 -1.4346  0.1350
 2198TIP3    H228154   5.940   4.900   7.124  0.9664  1.4674  1.2869
 2199TIP3   OH228155   1.387   3.732   0.292 -0.2824  0.5330 -0.1632
 2199TIP3    H128156   1.379   3.663   0.357 -1.8268  1.0246  0.2244
 2199TIP3    H228157   1.310   3.787   0.306 -0.8608  0.4727 -2.5906
 2200TIP3   OH228158   6.523   0.424   7.022 -0.4109  0.2654  0.0061
 2200TIP3    H128159   6.507   0.330   7.033  1.0837 -0.0337 -0.0944
 2200TIP3    H228160   6.522   0.438   6.927 -3.5229  0.9501  0.0595
 2201TIP3   OH228161   0.814   0.787   7.558  0.3037  0.1560  0.8289
 2201TIP3    H128162   0.853   0.703   7.584 -0.1707  0.0030  1.0710
 2201TIP3    H228163   0.784   0.772   7.468 -0.6422 -0.2632  1.1895
 2202TIP3   OH228164   5.827   1.450   1.657 -0.0265 -0.1918  0.0200
 2202TIP3    H128165   5.917   1.474   1.674 -0.0522 -0.5287  0.6708
 2202TIP3    H228166   5.789   1.435   1.744 -0.3133 -1.4312 -0.3017
 2203TIP3   OH228167   0.809   1.121   6.937 -0.5735  0.4067  0.3968
 2203TIP3    H128168   0.803   1.171   7.019 -2.1139 -0.3773  0.7867
 2203TIP3    H228169   0.753   1.168   6.876 -0.9680 -0.0943  0.3698
 2204TIP3   OH228170   1.264   6.486   2.823  0.2644  0.6813  0.4708
 2204TIP3    H128171   1.332   6.445   2.770 -0.7814  0.3349 -0.6525
 2204TIP3    H228172   1.310   6.555   2.872  1.5213  0.0407  0.2369
 2205TIP3   OH228173   4.135   0.127   1.281 -0.6128 -0.5503 -0.4042
 2205TIP3    H128174   4.068   0.059   1.286 -1.1093 -0.0524 -0.2787
 2205TIP3    H228175   4.089   0.204   1.249 -0.1071 -0.1894 -0.2663
 2206TIP3   OH228176   1.506   5.074   8.879 -0.0257 -0.7863 -0.4435
 2206TIP3    H128177   1.602   5.076   8.875  0.0471  0.3606  0.9819
 2206TIP3    H228178   1.479   5.161   8.849 -0.4869 -0.3834  1.0245
 2207TIP3   OH228179   0.565   5.413   2.028  0.1662  0.4585 -0.2546
 2207TIP3    H128180   0.652   5.437   1.997  0.9562 -1.7036  0.0926
 2207TIP3    H228181   0.545   5.331   1.983 -1.5095  0.6689  0.0307
 2208TIP3   OH228182   4.249   5.572   0.033  0.2479 -0.4815  0.0192
 2208TIP3    H128183   4.237   5.566  -0.062  1.5883  1.2865 -0.3112
 2208TIP3    H228184   4.326   5.627   0.044  0.1155 -0.6471  2.1534
 2209TIP3   OH228185   3.621   4.892   1.189 -0.2935 -0.3754 -0.6403
 2209TIP3    H128186   3.534   4.930   1.192 -0.7138 -1.3361  2.0583
 2209TIP3    H228187   3.675   4.949   1.244  0.4573 -0.5799 -1.1361
 2210TIP3   OH228188   1.850   5.043   8.578 -0.1075 -0.8938 -0.4366
 2210TIP3    H128189   1.888   5.030   8.664 -0.2500  0.0520 -0.2169
 2210TIP3    H228190   1.759   5.016   8.587 -0.9668  1.9778  0.5761
 2211TIP3   OH228191   2.654   3.889   0.744 -0.4033 -0.0438 -0.6812
 2211TIP3    H128192   2.628   3.958   0.804  1.8887  3.0927 -2.9618
 2211TIP3    H228193   2.573   3.866   0.697 -1.3284  0.5948  0.5583
 2212TIP3   OH228194   0.397   1.083   8.196  0.1511 -0.2403 -0.2502
 2212TIP3    H128195   0.436   1.009   8.243  0.8128 -0.2642 -0.8149
 2212TIP3    H228196   0.336   1.043   8.134  0.3025 -0.2982 -0.3625
 2213TIP3   OH228197   6.108   5.069   1.544 -0.3958 -0.0482  0.1754
 2213TIP3    H128198   6.056   5.149   1.554 -0.0780  0.1189  0.5305
 2213TIP3    H228199   6.049   5.007   1.500 -0.0026  1.0295 -2.0395
 2214TIP3   OH228200   5.731   3.533   2.057  0.4258 -0.2779 -0.0310
 2214TIP3    H128201   5.736   3.600   2.125  0.9281  1.3105 -1.5726
 2214TIP3    H228202   5.726   3.451   2.106  0.2852  0.8214  1.9187
 2215TIP3   OH228203   2.279   4.062   7.886  0.3314  0.1645  0.1129
 2215TIP3    H128204   2.373   4.046   7.891 -0.1216 -3.1534  0.5950
 2215TIP3    H228205   2.256   4.099   7.972  0.9449 -0.9286  0.7707
 2216TIP3   OH228206   2.357   1.918   8.743 -0.3900  0.0109 -0.5407
 2216TIP3    H128207   2.393   1.892   8.828 -0.6770 -0.3121 -0.5187
 2216TIP3    H228208   2.359   2.014   8.745  0.1029  0.0024 -0.3840
 2217TIP3   OH228209   3.836   2.899   1.971  0.3064  0.1634 -0.2166
 2217TIP3    H128210   3.856   2.965   1.904 -0.1196 -1.3792 -1.9166
 2217TIP3    H228211   3.743   2.910   1.989  0.0139 -0.5748 -1.2114
 2218TIP3   OH228212   0.435   3.693   1.904 -0.6840  0.1556  0.8458
 2218TIP3    H128213   0.489   3.641   1.844 -2.7638  0.0901 -1.1328
 2218TIP3    H228214   0.423   3.637   1.980  0.0508 -0.8027  0.2851
 2219TIP3   OH228215   4.532   0.208   6.902 -0.1592  0.1981  0.1602
 2219TIP3    H128216   4.465   0.207   6.834 -1.4326 -3.6623  1.1953
 2219TIP3    H228217   4.610   0.172   6.859  0.1006  0.9958 -0.0579
 2220TIP3   OH228218   0.244   2.926   6.930 -0.2629 -0.4893  0.0049
 2220TIP3    H128219   0.311   2.897   6.991  0.5973  0.5212 -0.4246
 2220TIP3    H228220   0.288   2.992   6.876 -1.6300  0.2931 -0.2047
 2221TIP3   OH228221   5.321   0.653   0.543 -0.6605  0.2222 -0.1386
 2221TIP3    H128222   5.279   0.605   0.471 -0.7205  0.1708 -0.0700
 2221TIP3    H228223   5.278   0.620   0.622 -1.3873  1.0811 -0.1578
 2222TIP3   OH228224   4.774   1.950   8.606  0.2366  0.3578  0.9378
 2222TIP3    H128225   4.869   1.943   8.602  0.3180 -1.0306 -4.7866
 2222TIP3    H228226   4.756   2.042   8.626  2.6068  0.3745  3.4227
 2223TIP3   OH228227   4.555   2.973   1.006  0.0956 -0.0441  0.5307
 2223TIP3    H128228   4.540   2.880   1.018  0.9906 -0.4830 -1.2924
 2223TIP3    H228229   4.633   2.992   1.058 -1.6813  0.3867  3.2160
 2224TIP3   OH228230   0.889   1.612   1.902  0.2606 -0.6288 -0.2448
 2224TIP3    H128231   0.883   1.581   1.993 -0.1417 -1.3190 -0.4988
 2224TIP3    H228232   0.917   1.703   1.910 -3.2731  0.5570  0.7858
 2225TIP3   OH228233   0.002   4.825   1.876 -0.3986  0.9000  0.3826
 2225TIP3    H128234   0.026   4.898   1.819  0.6259  0.6757  0.5237
 2225TIP3    H228235   0.038   4.849   1.961 -0.2962  0.3539  0.4925
 2226TIP3   OH228236   0.458   1.024   1.698 -0.0725 -0.0402 -0.0483
 2226TIP3    H128237   0.489   1.107   1.733  0.6200 -0.4649  0.3732
 2226TIP3    H228238   0.533   0.988   1.651  0.7244 -1.8744  2.4006
 2227TIP3   OH228239   4.237   0.422   2.243 -0.3533  0.1963  0.5291
 2227TIP3    H128240   4.302   0.455   2.180 -0.2917 -1.8931 -0.5695
 2227TIP3    H228241   4.154   0.460   2.213 -0.5033 -1.5669 -1.5290
 2228TIP3   OH228242   3.597   1.318   8.176  0.5891  0.3036 -0.4286
 2228TIP3    H128243   3.601   1.230   8.214  0.3487 -0.4088 -1.9795
 2228TIP3    H228244   3.685   1.333   8.142  0.9352  1.1327  0.7766
 2229TIP3   OH228245   1.707   1.958   1.519  0.4358 -0.5318 -0.2632
 2229TIP3    H128246   1.787   1.939   1.469 -0.2691 -0.0689 -1.6121
 2229TIP3    H228247   1.678   2.043   1.485 -0.5564 -0.6309  0.3117
 2230TIP3   OH228248   5.100   2.602   8.720 -0.4083 -0.7352  0.0233
 2230TIP3    H128249   5.152   2.672   8.680 -1.3805  0.0252  0.0634
 2230TIP3    H228250   5.080   2.634   8.808  0.0650 -1.5513  0.4440
 2231TIP3   OH228251   4.843   3.989   1.425 -0.0460  0.4794 -0.0799
 2231TIP3    H128252   4.896   4.006   1.502  1.5293  0.2019 -1.0661
 2231TIP3    H228253   4.753   4.008   1.453  0.5655  1.0452  1.5976
 2232TIP3   OH228254   6.511   4.119   8.768  0.2053  0.2623  0.4748
 2232TIP3    H128255   6.503   4.093   8.860 -0.0336 -0.6781  0.1990
 2232TIP3    H228256   6.529   4.037   8.722  2.3415  0.9909 -0.0848
 2233TIP3   OH228257   6.546   3.004   1.830 -0.7452 -0.0272  0.1220
 2233TIP3    H128258   6.515   2.956   1.753  0.9128 -0.9021 -0.0531
 2233TIP3    H228259   6.576   3.088   1.795  2.7316 -1.4936 -0.7853
 2234TIP3   OH228260   0.650   0.072   8.721 -0.3923  0.4607  0.1685
 2234TIP3    H128261   0.652   0.039   8.631  1.3384 -1.6218  0.8622
 2234TIP3    H228262   0.690   0.158   8.716  0.0106  0.2250 -1.0266
 2235TIP3   OH228263   4.440   5.115   0.854 -0.5836 -0.5387 -0.2030
 2235TIP3    H128264   4.530   5.091   0.874 -0.2844  0.0520 -0.7830
 2235TIP3    H228265   4.396   5.120   0.939 -0.1064 -0.9586  0.0696
 2236TIP3   OH228266   4.475   5.972   8.460 -0.6564  0.7230  0.3608
 2236TIP3    H128267   4.444   6.004   8.544 -1.0420  1.2129  0.0372
 2236TIP3    H228268   4.397   5.966   8.405 -0.5232 -0.3246  0.2628
 2237TIP3   OH228269   2.129   6.635   1.299  0.1291  0.7945  0.1758
 2237TIP3    H128270   2.083   6.658   1.380  0.8493  0.1179  0.7984
 2237TIP3    H228271   2.197   6.574   1.327 -0.2248 -0.2284 -1.0778
 2238TIP3   OH228272   5.872   6.288   7.748 -0.9080  0.8296 -0.4724
 2238TIP3    H128273   5.864   6.218   7.684 -0.1586 -0.0166  0.3309
 2238TIP3    H228274   5.857   6.368   7.698 -1.4916  0.1184 -1.4582
 2239TIP3   OH228275   3.457   3.893   1.360 -0.4258 -0.2854  0.2197
 2239TIP3    H128276   3.405   3.828   1.313  0.7267 -0.9059 -0.2343
 2239TIP3    H228277   3.484   3.956   1.293 -1.4180  0.6126  0.6330
 2240TIP3   OH228278   5.813   1.658   0.713 -0.1774  0.3236 -0.8207
 2240TIP3    H128279   5.740   1.600   0.730 -1.2098  1.5574 -0.9033
 2240TIP3    H228280   5.775   1.746   0.714  1.4700  1.0769  0.1678
 2241TIP3   OH228281   4.012   4.175   0.260 -0.5829  0.2376 -0.1992
 2241TIP3    H128282   3.976   4.087   0.271  0.3223 -0.0924  0.1985
 2241TIP3    H228283   4.020   4.210   0.348 -2.8981  1.5615 -0.4459
 2242TIP3   OH228284   4.532   6.380   1.730 -0.4801  0.1196 -0.0838
 2242TIP3    H128285   4.535   6.475   1.743 -0.0482  0.0395  0.4292
 2242TIP3    H228286   4.487   6.347   1.807  1.2449 -0.2722  0.7944
 2243TIP3   OH228287   5.205   5.268   1.594 -0.4266  0.5032  0.4083
 2243TIP3    H128288   5.160   5.311   1.521  1.7870 -0.2284 -1.5007
 2243TIP3    H228289   5.293   5.306   1.594 -0.1573 -0.0370  2.2725
 2244TIP3   OH228290   4.286   1.591   8.160  0.3160 -0.2197  0.1535
 2244TIP3    H128291   4.216   1.578   8.096 -0.7955  0.0566  1.2763
 2244TIP3    H228292   4.313   1.682   8.147  0.7562 -0.4530 -0.5650
 2245TIP3   OH228293   0.252   6.190   1.706  0.0260 -0.5233  0.5174
 2245TIP3    H128294   0.301   6.272   1.697  0.5857 -0.9226 -0.2894
 2245TIP3    H228295   0.313   6.122   1.676 -0.8329 -1.0986 -0.0018
 2246TIP3   OH228296   1.381   0.143   1.555 -0.5930 -0.1026 -0.4450
 2246TIP3    H128297   1.447   0.099   1.501 -0.9613 -0.6493 -0.4629
 2246TIP3    H228298   1.410   0.234   1.560  0.6490 -0.5121  0.2857
 2247TIP3   OH228299   1.365   5.316   2.266  0.0108  0.2416  0.5821
 2247TIP3    H128300   1.345   5.376   2.338 -0.6743  0.5518  0.1513
 2247TIP3    H228301   1.367   5.229   2.306  0.2687  0.4763  1.0821
 2248TIP3   OH228302   5.429   0.261   8.408 -0.1501 -0.2648  0.0631
 2248TIP3    H128303   5.335   0.275   8.392 -0.1034  0.9476  0.7019
 2248TIP3    H228304   5.435   0.246   8.502  0.5300  2.5315  0.5789
 2249TIP3   OH228305   1.940   0.103   7.968  0.4322 -0.2004 -0.0655
 2249TIP3    H128306   1.896   0.160   8.031 -0.3941 -2.8171  1.9222
 2249TIP3    H228307   2.029   0.094   8.003  0.8185  0.4879 -0.8433
 2250TIP3   OH228308   0.210   0.422   8.695 -0.3340 -0.0162  0.0683
 2250TIP3    H128309   0.121   0.387   8.690  0.2187 -1.4404 -0.1934
 2250TIP3    H228310   0.260   0.353   8.738  0.2496  1.5998  2.1336
 2251TIP3   OH228311   0.679   0.319   0.470 -0.2583  0.0671  0.0597
 2251TIP3    H128312   0.693   0.288   0.380  1.5636 -0.0389  0.3497
 2251TIP3    H228313   0.699   0.413   0.466  0.4626 -0.0646  0.4796
 2252TIP3   OH228314   3.439   2.282   1.448  0.1469 -0.7111 -0.4228
 2252TIP3    H128315   3.383   2.337   1.393 -0.5965 -1.4089 -0.3857
 2252TIP3    H228316   3.413   2.193   1.425  1.1808 -1.0466 -0.3246
 2253TIP3   OH228317   0.825   1.650   8.457  0.1243  0.1415 -0.1045
 2253TIP3    H128318   0.807   1.727   8.403  1.2893  0.7465  0.3227
 2253TIP3    H228319   0.821   1.682   8.547  0.8440 -0.2376  0.0729
 2254TIP3   OH228320   1.878   4.262   7.347 -0.3856 -0.0939 -0.0327
 2254TIP3    H128321   1.932   4.220   7.279  0.2728 -0.2725  0.5847
 2254TIP3    H228322   1.801   4.206   7.354  0.8903 -1.8285  1.4347
 2255TIP3   OH228323   3.296   0.488   7.112 -0.0366  0.4461 -0.1545
 2255TIP3    H128324   3.244   0.541   7.052 -0.1148 -1.6575 -2.0943
 2255TIP3    H228325   3.231   0.434   7.158  0.1855  0.2417 -0.0789
 2256TIP3   OH228326   2.529   1.592   7.321 -0.0773  0.5565  0.0274
 2256TIP3    H128327   2.543   1.636   7.237  1.3761  0.5630  0.2514
 2256TIP3    H228328   2.525   1.499   7.300 -0.7370  0.6245 -0.1628
 2257TIP3   OH228329   6.767   1.071   6.313 -0.4072  0.0890 -0.2846
 2257TIP3    H128330   6.681   1.112   6.313 -0.7886 -0.6696 -0.9712
 2257TIP3    H228331   6.750   0.978   6.327  0.2627 -0.1191 -0.7689
 2258TIP3   OH228332   2.837   5.013   8.364  0.7573  0.3471  0.1485
 2258TIP3    H128333   2.769   4.957   8.327  2.4040 -1.5187 -0.2405
 2258TIP3    H228334   2.880   4.958   8.430  1.5537  1.6627  0.7823
 2259TIP3   OH228335   5.831   0.291   7.906  0.1588 -0.0713  0.8028
 2259TIP3    H128336   5.792   0.324   7.825  1.0566 -0.9814 -0.0322
 2259TIP3    H228337   5.761   0.240   7.946 -0.7723  1.5902  1.3831
 2260TIP3   OH228338   1.009   1.366   0.634 -0.1890  0.3241 -0.6474
 2260TIP3    H128339   1.008   1.461   0.647 -2.7748  0.4991 -1.5683
 2260TIP3    H228340   1.081   1.351   0.573 -0.4873  1.8724 -1.4383
 2261TIP3   OH228341   5.729   5.548   1.498 -0.2162  0.3299 -0.2156
 2261TIP3    H128342   5.773   5.566   1.414  2.0970  0.2822  0.9126
 2261TIP3    H228343   5.681   5.628   1.517 -0.4721  0.4814 -1.3843
 2262TIP3   OH228344   4.862   5.099   7.613 -0.5139  0.3862  0.2299
 2262TIP3    H128345   4.776   5.108   7.655 -2.1524 -0.3530 -2.7342
 2262TIP3    H228346   4.893   5.013   7.642 -2.1906 -0.6751 -0.9715
 2263TIP3   OH228347   4.847   2.590   7.388 -0.0580 -0.3394 -0.7638
 2263TIP3    H128348   4.933   2.602   7.429 -0.0587 -0.4354 -0.7345
 2263TIP3    H228349   4.864   2.601   7.294  0.0449 -0.6748 -0.7857
 2264TIP3   OH228350   5.492   5.015   2.190  0.4114 -0.1135 -0.3222
 2264TIP3    H128351   5.402   5.036   2.214 -0.3787 -2.1276 -1.2609
 2264TIP3    H228352   5.537   4.998   2.273 -0.5787 -0.8613  0.0751
 2265TIP3   OH228353   0.860   6.635   0.329  0.0999 -0.1534 -0.1869
 2265TIP3    H128354   0.826   6.630   0.419 -3.8159  4.2363 -1.0474
 2265TIP3    H228355   0.810   6.569   0.281  0.6630 -1.0533  0.4370
 2266TIP3   OH228356   0.657   2.883   7.527 -0.3771  0.1297 -0.3010
 2266TIP3    H128357   0.588   2.839   7.577  0.3205 -1.5238 -0.7188
 2266TIP3    H228358   0.638   2.976   7.536 -2.8663 -0.2668 -0.6552
 2267TIP3   OH228359   4.855   0.402   0.199 -0.1991  0.3677  0.0316
 2267TIP3    H128360   4.940   0.361   0.187 -0.8388 -1.9671  2.5673
 2267TIP3    H228361   4.865   0.459   0.275 -0.9642 -0.2077  0.5800
 2268TIP3   OH228362   5.639   5.071   7.376 -0.9704 -0.2335 -0.3946
 2268TIP3    H128363   5.675   4.982   7.381  0.7540  0.4733  0.7108
 2268TIP3    H228364   5.582   5.078   7.453  1.4638  0.6134  1.4512
 2269TIP3   OH228365   0.046   0.895   1.373 -1.5398  0.1321 -0.3485
 2269TIP3    H128366   0.069   0.890   1.280 -0.8293 -1.1339 -0.1168
 2269TIP3    H228367   0.081   0.980   1.401 -1.7880  0.5420 -1.2317
 2270TIP3   OH228368   3.186   1.373   6.768  0.3092  0.0439 -0.1448
 2270TIP3    H128369   3.252   1.441   6.757 -0.1639  0.4185 -0.7734
 2270TIP3    H228370   3.147   1.363   6.681 -0.1979 -0.4413  0.1282
 2271TIP3   OH228371   1.187   0.802   6.617  0.6006  0.0146 -0.2662
 2271TIP3    H128372   1.110   0.770   6.570  1.3858 -0.6553 -1.1222
 2271TIP3    H228373   1.240   0.724   6.631 -0.1625 -0.0528  2.8983
 2272TIP3   OH228374   1.196   5.744   7.320 -0.2001  0.1129 -0.1774
 2272TIP3    H128375   1.248   5.824   7.328  2.4062 -1.3125 -1.5935
 2272TIP3    H228376   1.175   5.720   7.411  2.0969  0.5269  0.5283
 2273TIP3   OH228377   0.983   5.855   8.152 -0.1316  0.9885 -0.0483
 2273TIP3    H128378   0.888   5.868   8.151 -0.3098 -0.1935 -1.4193
 2273TIP3    H228379   1.018   5.929   8.102 -0.5947 -0.1101 -2.0810
 2274TIP3   OH228380   4.073   4.767   6.685  0.3359 -0.6004  0.9564
 2274TIP3    H128381   4.051   4.687   6.734 -2.5941  0.6226  1.8728
 2274TIP3    H228382   4.076   4.835   6.752 -4.7146  1.3056 -0.3369
 2275TIP3   OH228383   2.980   1.291   1.231 -0.2846  0.0696 -0.0690
 2275TIP3    H128384   2.953   1.200   1.216 -1.1902  0.2429  0.4365
 2275TIP3    H228385   3.022   1.290   1.317  3.0519 -0.5327 -1.5399
 2276TIP3   OH228386   0.764   3.296   8.558  0.2037  0.1443  0.1892
 2276TIP3    H128387   0.818   3.307   8.636 -1.4588  1.2093  1.2603
 2276TIP3    H228388   0.762   3.383   8.518 -0.1099 -0.0652 -0.2624
 2277TIP3   OH228389   3.221   4.696   8.453  0.0028 -0.5134  0.6592
 2277TIP3    H128390   3.275   4.756   8.402 -2.0041  0.5362 -0.3648
 2277TIP3    H228391   3.274   4.616   8.459  0.2767 -0.8786 -3.4707
 2278TIP3   OH228392   2.136   6.253   1.955 -0.4047  0.4449  0.4179
 2278TIP3    H128393   2.173   6.171   1.922 -0.0844  0.2472  1.2419
 2278TIP3    H228394   2.212   6.304   1.983 -0.4453  1.7913 -1.7144
 2279TIP3   OH228395   4.326   5.889   0.482  0.1744  0.8147 -0.0727
 2279TIP3    H128396   4.318   5.954   0.412 -1.5860  2.1472  1.2778
 2279TIP3    H228397   4.258   5.913   0.545 -0.4511 -2.2383  0.5901
 2280TIP3   OH228398   2.427   5.558   2.040  0.1331  0.5271  0.0408
 2280TIP3    H128399   2.382   5.642   2.034  0.5614  0.6706 -2.7379
 2280TIP3    H228400   2.409   5.527   2.129 -0.8467  3.0711  0.8282
 2281TIP3   OH228401   3.658   2.778   0.792  0.2962 -0.6976 -0.3460
 2281TIP3    H128402   3.722   2.836   0.749  0.4997 -1.2502 -0.7995
 2281TIP3    H228403   3.670   2.795   0.885  0.1656  0.1931 -0.4777
 2282TIP3   OH228404   1.923   2.025   8.153  0.3003 -0.2838 -0.1804
 2282TIP3    H128405   1.926   1.939   8.111  0.5816 -0.4709  0.2206
 2282TIP3    H228406   1.859   2.015   8.224  0.3426 -0.1666 -0.1255
 2283TIP3   OH228407   0.775   4.292   2.320  0.1589 -0.2770 -0.7071
 2283TIP3    H128408   0.744   4.348   2.391  0.4254  0.1941 -0.9518
 2283TIP3    H228409   0.699   4.240   2.295 -0.5923  1.2025 -1.6307
 2284TIP3   OH228410   3.040   2.961   8.743 -0.5806 -0.4307  0.2045
 2284TIP3    H128411   3.079   3.048   8.756 -0.6999 -0.2567 -0.5521
 2284TIP3    H228412   2.983   2.949   8.819  0.5130 -0.4585  1.0570
 2285TIP3   OH228413   1.273   0.687   0.869 -0.2922  0.2572 -0.1570
 2285TIP3    H128414   1.218   0.764   0.887 -0.8771 -0.3663  0.8219
 2285TIP3    H228415   1.211   0.617   0.850 -0.1280 -1.2325  3.8395
 2286TIP3   OH228416   2.946   6.367   7.982 -0.1668 -0.0318 -0.3340
 2286TIP3    H128417   2.926   6.423   8.057 -1.3432  0.8769 -1.2839
 2286TIP3    H228418   3.037   6.341   7.995 -0.3852 -0.0516  1.4893
 2287TIP3   OH228419   4.028   2.663   8.199  0.0931 -0.2108  0.5447
 2287TIP3    H128420   4.113   2.621   8.201 -0.0676 -0.6557 -0.8353
 2287TIP3    H228421   3.984   2.635   8.280  1.2653  0.0969  1.3077
 2288TIP3   OH228422   1.679   6.313   0.984 -0.3768 -0.0401  0.3303
 2288TIP3    H128423   1.594   6.275   1.007 -1.0393  0.8887 -0.5278
 2288TIP3    H228424   1.669   6.406   1.000  1.1939 -0.1366  2.2621
 2289TIP3   OH228425   4.676   0.501   1.340 -0.2299 -0.4597 -0.0205
 2289TIP3    H128426   4.711   0.572   1.394 -0.3800 -0.9245  0.6973
 2289TIP3    H228427   4.587   0.488   1.373  0.1999 -1.7905  0.6810
 2290TIP3   OH228428   2.868   1.317   8.080  0.1844  0.2549 -0.8372
 2290TIP3    H128429   2.807   1.247   8.053 -0.2073  0.3945 -0.3249
 2290TIP3    H228430   2.954   1.285   8.054 -0.0067 -0.3628 -0.7245
 2291TIP3   OH228431   1.651   3.571   8.440 -0.2897  0.1403 -0.0963
 2291TIP3    H128432   1.592   3.522   8.497  0.5931  0.3910  1.0789
 2291TIP3    H228433   1.697   3.504   8.389 -1.1934 -0.0785 -0.6421
 2292TIP3   OH228434   2.817   1.711   8.117 -0.3778  0.5523  0.0782
 2292TIP3    H128435   2.755   1.771   8.158  0.5477  1.3952  0.2809
 2292TIP3    H228436   2.843   1.755   8.036 -0.0686  0.1947 -0.0196
 2293TIP3   OH228437   3.569   4.688   2.357  0.0376 -0.2216 -0.8242
 2293TIP3    H128438   3.564   4.603   2.400  0.5095  0.0286 -0.2590
 2293TIP3    H228439   3.660   4.716   2.369 -0.4089  0.9085  0.0854
 2294TIP3   OH228440   3.730   6.465   2.049 -0.1212 -0.4176  0.1350
 2294TIP3    H128441   3.807   6.462   1.993  0.2304 -0.8363  0.6426
 2294TIP3    H228442   3.762   6.491   2.135 -0.6404  0.0784  0.1867
 2295TIP3   OH228443   5.735   4.654   1.508  0.1686 -0.6800 -0.1961
 2295TIP3    H128444   5.640   4.647   1.495  0.0183 -0.3357  0.6544
 2295TIP3    H228445   5.772   4.586   1.452 -0.6466 -1.5207  0.2631
 2296TIP3   OH228446   4.764   6.768   7.410 -0.0362  0.0847 -0.0790
 2296TIP3    H128447   4.765   6.677   7.438  2.9688  0.6095  1.9875
 2296TIP3    H228448   4.845   6.780   7.360 -0.4373  1.5838 -0.4402
 2297TIP3   OH228449   3.824   6.707   7.392 -0.0941 -0.3421  0.0840
 2297TIP3    H128450   3.861   6.780   7.441 -0.6921  0.8058 -1.0772
 2297TIP3    H228451   3.752   6.747   7.342  1.3012 -1.1160 -2.7319
 2298TIP3   OH228452   0.644   1.082   0.003  0.4288  0.5385  1.2912
 2298TIP3    H128453   0.636   1.068  -0.091 -0.2810 -0.5915  1.5040
 2298TIP3    H228454   0.722   1.032   0.028 -0.4577 -0.7470  1.5857
 2299TIP3   OH228455   2.681   2.878   8.127 -0.0530  0.1772  0.3996
 2299TIP3    H128456   2.689   2.877   8.032 -1.9336  0.8574  0.1875
 2299TIP3    H228457   2.614   2.813   8.147 -0.6370  0.9564  1.1089
 2300TIP3   OH228458   3.862   3.325   2.190 -0.4545 -0.1287  0.3878
 2300TIP3    H128459   3.842   3.240   2.229  0.8283 -0.3607  0.5917
 2300TIP3    H228460   3.790   3.381   2.217 -2.9535 -1.7946 -2.1283
 2301TIP3   OH228461   2.129   5.429   0.058  0.3675  0.3200 -0.3148
 2301TIP3    H128462   2.057   5.489   0.077 -2.2284 -2.0286 -1.9597
 2301TIP3    H228463   2.119   5.358   0.122  0.3502 -0.6587 -1.3609
 2302TIP3   OH228464   3.554   5.331   7.793  0.0780 -0.1145 -0.0574
 2302TIP3    H128465   3.599   5.393   7.736  2.9764  0.0978  2.2475
 2302TIP3    H228466   3.469   5.373   7.811  0.5915  1.5421 -1.1937
 2303TIP3   OH228467   3.482   2.952   1.013 -0.1390 -0.0409  0.1442
 2303TIP3    H128468   3.507   3.043   1.002  0.5563 -0.3898 -1.4409
 2303TIP3    H228469   3.564   2.906   1.033 -0.6107 -0.2219  1.8306
 2304TIP3   OH228470   2.256   1.429   7.245  0.5966  0.1069  0.5860
 2304TIP3    H128471   2.294   1.379   7.316 -1.4657 -0.7052  1.1837
 2304TIP3    H228472   2.227   1.510   7.285  0.5860  0.2000  0.3927
 2305TIP3   OH228473   2.144   3.945   8.552  0.1245  0.1478  0.3388
 2305TIP3    H128474   2.121   3.854   8.568 -1.1189  0.3761 -0.0819
 2305TIP3    H228475   2.233   3.941   8.517 -0.4979 -1.0339 -1.1862
 2306TIP3   OH228476   5.509   1.248   8.386 -0.1191 -0.3085  0.4911
 2306TIP3    H128477   5.501   1.343   8.395 -0.5118 -0.1787 -1.0188
 2306TIP3    H228478   5.596   1.235   8.349 -0.3365 -0.4871  0.0367
 2307TIP3   OH228479   4.533   4.312   0.483  0.2241  0.5677  0.2885
 2307TIP3    H128480   4.579   4.248   0.429  0.7068  0.0343  1.2999
 2307TIP3    H228481   4.527   4.390   0.427 -1.5100 -0.7137 -1.4388
 2308TIP3   OH228482   0.569   4.524   1.612  0.2030 -0.0333  0.0969
 2308TIP3    H128483   0.647   4.538   1.665  0.2499  0.7128 -0.1692
 2308TIP3    H228484   0.601   4.515   1.523 -0.0278  0.3899 -0.0285
 2309TIP3   OH228485   0.142   6.285   1.009  0.7251  0.3376  0.4354
 2309TIP3    H128486   0.071   6.346   0.991 -0.1051 -0.8354 -0.4560
 2309TIP3    H228487   0.213   6.340   1.043 -0.6590  1.5043  1.5728
 2310TIP3   OH228488   0.846   5.178   8.145 -0.3008 -0.3697 -0.0152
 2310TIP3    H128489   0.883   5.180   8.234  0.1615  2.7720 -0.1525
 2310TIP3    H228490   0.910   5.130   8.093  0.1512 -0.9569  1.0498
 2311TIP3   OH228491   0.953   4.958   0.115  0.3046 -0.1059  0.7851
 2311TIP3    H128492   1.030   4.999   0.077 -0.0102  1.4252  1.7401
 2311TIP3    H228493   0.976   4.865   0.121  0.8812 -0.2239 -1.8243
 2312TIP3   OH228494   1.891   2.623   0.510  0.7284  0.0325  0.1806
 2312TIP3    H128495   1.941   2.599   0.432 -0.1059 -0.0470 -0.3461
 2312TIP3    H228496   1.800   2.608   0.486  0.4362  0.2509  1.0907
 2313TIP3   OH228497   1.852   4.879   7.463  0.0223  0.1415 -0.2525
 2313TIP3    H128498   1.790   4.925   7.520 -0.5705 -1.4297  0.4374
 2313TIP3    H228499   1.861   4.936   7.387 -0.7040  1.3665  0.5322
 2314TIP3   OH228500   5.628   0.303   2.121  0.9207 -0.3357  0.6875
 2314TIP3    H128501   5.664   0.217   2.141  1.1146 -0.4054  0.0538
 2314TIP3    H228502   5.607   0.340   2.206  2.0207 -0.4936  1.0464
 2315TIP3   OH228503   2.229   0.043   7.414 -0.5091  0.4568 -0.2269
 2315TIP3    H128504   2.234   0.138   7.404  0.9614  0.3800 -0.4703
 2315TIP3    H228505   2.174   0.013   7.342 -0.1752  1.0508 -0.7368
 2316TIP3   OH228506   0.439   4.678   0.792 -0.5622  0.2134  0.0043
 2316TIP3    H128507   0.475   4.606   0.844 -2.0893 -0.8885 -0.3984
 2316TIP3    H228508   0.423   4.748   0.856  0.5527  0.0768  0.4638
 2317TIP3   OH228509   0.806   6.021   2.262 -0.4529  0.1782  0.1319
 2317TIP3    H128510   0.864   6.034   2.337 -0.5284  2.2304 -0.1160
 2317TIP3    H228511   0.786   5.927   2.264  2.9051 -0.6636  0.1652
 2318TIP3   OH228512   0.686   2.637   2.625 -0.3795 -0.3242 -0.4363
 2318TIP3    H128513   0.607   2.683   2.595 -0.3140  0.3462  0.4034
 2318TIP3    H228514   0.731   2.700   2.681  2.1223  0.2837 -2.9142
 2319TIP3   OH228515   2.909   5.784   1.399 -0.7651  0.1927  0.3364
 2319TIP3    H128516   2.837   5.771   1.460 -1.6000  1.3623 -0.3671
 2319TIP3    H228517   2.879   5.746   1.316 -2.1787  3.8534 -1.0076
 2320TIP3   OH228518   0.770   3.639   1.593 -0.5644  0.2573  0.3099
 2320TIP3    H128519   0.752   3.660   1.501  0.4756  2.0195  0.4649
 2320TIP3    H228520   0.818   3.556   1.590  0.6509  0.9757 -0.8449
 2321TIP3   OH228521   3.548   1.373   6.518 -0.0644  0.0523  0.2567
 2321TIP3    H128522   3.466   1.418   6.499 -1.3380 -1.4525  1.8578
 2321TIP3    H228523   3.522   1.284   6.540  2.1812 -0.9812 -0.9174
 2322TIP3   OH228524   0.454   1.451   8.477 -0.0379 -0.2766 -0.3819
 2322TIP3    H128525   0.426   1.444   8.385 -0.1147  0.2872 -0.4044
 2322TIP3    H228526   0.548   1.429   8.475  0.1402  0.4878 -0.7153
 2323TIP3   OH228527   3.300   0.433   8.630 -0.2786 -0.2516  0.2236
 2323TIP3    H128528   3.204   0.435   8.634 -0.2526  1.7102  1.1449
 2323TIP3    H228529   3.320   0.387   8.548 -2.0214  0.1873 -0.4881
 2324TIP3   OH228530   4.498   5.693   8.839  0.4028 -0.6657 -0.6874
 2324TIP3    H128531   4.570   5.754   8.851 -1.4188  1.7212 -1.1142
 2324TIP3    H228532   4.499   5.673   8.746  1.9713 -2.7009 -0.3116
 2325TIP3   OH228533   2.415   2.718   8.157  0.2332  0.2314 -0.1984
 2325TIP3    H128534   2.403   2.628   8.185  0.7938 -0.0530 -0.8468
 2325TIP3    H228535   2.345   2.733   8.093  0.2846  0.1831 -0.2657
 2326TIP3   OH228536   4.059   2.004   8.576 -0.1037 -0.8284 -0.1449
 2326TIP3    H128537   4.094   1.961   8.498  0.0777 -2.0072  0.5490
 2326TIP3    H228538   3.967   2.021   8.554  0.7817  2.2550 -1.9536
 2327TIP3   OH228539   4.810   1.074   1.030  0.0808 -0.2343  0.0321
 2327TIP3    H128540   4.890   1.084   1.081 -2.1433  1.3149  3.6076
 2327TIP3    H228541   4.798   0.979   1.022  2.1537 -0.4902 -0.5435
 2328TIP3   OH228542   4.121   2.223   1.067 -0.4659  0.2343  0.1368
 2328TIP3    H128543   4.071   2.284   1.121 -2.2388 -1.4926  0.5595
 2328TIP3    H228544   4.137   2.148   1.125  0.9305 -0.0737 -0.6032
 2329TIP3   OH228545   6.310   4.034   2.194  0.1297 -0.5457  0.6426
 2329TIP3    H128546   6.315   3.963   2.258 -1.1227 -0.3951  0.9272
 2329TIP3    H228547   6.368   4.006   2.123  1.9234 -0.4871  2.0345
 2330TIP3   OH228548   5.846   6.616   1.982 -0.0900 -0.0219 -0.1190
 2330TIP3    H128549   5.913   6.656   1.926  2.0360 -0.7945  1.7334
 2330TIP3    H228550   5.815   6.541   1.931  0.2529  0.5032 -1.1273
 2331TIP3   OH228551   0.027   2.841   8.711  0.3502  0.0004 -0.0428
 2331TIP3    H128552   0.105   2.890   8.736  1.2474 -0.6350 -1.5014
 2331TIP3    H228553   0.011   2.781   8.785  1.0634  0.3355  0.3853
 2332TIP3   OH228554   5.555   3.852   0.762 -0.3365 -0.4794  0.1675
 2332TIP3    H128555   5.459   3.855   0.772 -0.3136  0.5802  0.1448
 2332TIP3    H228556   5.583   3.943   0.771  0.5559 -0.6173 -1.0850
 2333TIP3   OH228557   3.861   6.600   0.535 -0.0820  0.3682 -0.2522
 2333TIP3    H128558   3.873   6.610   0.630  2.1475  1.2280 -0.5602
 2333TIP3    H228559   3.924   6.532   0.511  0.7114  1.4518 -1.3434
 2334TIP3   OH228560   2.525   1.975   7.313  0.1792  0.3978 -0.2367
 2334TIP3    H128561   2.477   1.915   7.255 -0.0191 -0.3037  0.6294
 2334TIP3    H228562   2.456   2.028   7.354  0.0229 -1.0190  1.4705
 2335TIP3   OH228563   1.438   1.201   2.744 -0.0952  0.4733  0.1779
 2335TIP3    H128564   1.372   1.137   2.772  1.0694 -1.0476 -0.3789
 2335TIP3    H228565   1.417   1.219   2.652 -0.0121  0.3294  0.1295
 2336TIP3   OH228566   2.862   3.387   0.479 -0.7292 -0.7449 -0.1366
 2336TIP3    H128567   2.769   3.367   0.487 -0.4410 -1.7571  0.9660
 2336TIP3    H228568   2.868   3.480   0.503 -1.2759 -1.0697  1.3987
 2337TIP3   OH228569   0.669   5.572   8.190 -0.4801 -1.1036 -0.2293
 2337TIP3    H128570   0.602   5.504   8.202 -0.1901 -1.7420 -1.9379
 2337TIP3    H228571   0.625   5.654   8.212 -0.5257 -1.8610  3.0146
 2338TIP3   OH228572   6.461   3.523   8.831  0.3911  0.1775  0.5716
 2338TIP3    H128573   6.537   3.484   8.789  0.4998  0.1891  0.7541
 2338TIP3    H228574   6.495   3.557   8.914  0.2810  0.5813  0.4513
 2339TIP3   OH228575   4.961   4.203   8.662 -0.2521  0.0039 -0.2341
 2339TIP3    H128576   4.956   4.184   8.755 -0.9228 -0.0790 -0.2797
 2339TIP3    H228577   4.870   4.206   8.633 -0.0930  1.2275 -0.6502
 2340TIP3   OH228578   1.336   2.082   1.459  0.0679  0.0983 -0.3608
 2340TIP3    H128579   1.256   2.123   1.491 -0.8438 -1.4823 -0.5231
 2340TIP3    H228580   1.306   2.009   1.405  1.6169  0.1184 -1.3213
 2341TIP3   OH228581   6.402   4.696   7.156 -0.3106  0.3378  0.1727
 2341TIP3    H128582   6.348   4.720   7.080  0.7804  0.3908 -0.6063
 2341TIP3    H228583   6.456   4.623   7.125  0.5856  0.7637  0.7150
 2342TIP3   OH228584   2.204   4.959   2.055  0.2179  0.7089  0.2919
 2342TIP3    H128585   2.208   4.928   1.965 -1.0840  2.6251 -0.4878
 2342TIP3    H228586   2.159   4.888   2.103 -1.8351  0.9121 -1.2155
 2343TIP3   OH228587   2.043   2.760   8.595  0.2735 -0.4863  0.3018
 2343TIP3    H128588   2.104   2.834   8.602  1.6908 -1.6210  0.6062
 2343TIP3    H228589   1.957   2.800   8.583  0.8810  1.2128  1.2891
 2344TIP3   OH228590   0.189   4.810   8.530  0.7103  0.1648 -0.1618
 2344TIP3    H128591   0.147   4.776   8.451  1.2246 -0.8019 -0.0276
 2344TIP3    H228592   0.214   4.900   8.507 -1.1979  0.7007 -0.3210
 2345TIP3   OH228593   0.594   0.894   0.356  0.5718 -0.1165 -0.9284
 2345TIP3    H128594   0.526   0.867   0.294  1.2405  1.9032 -2.6070
 2345TIP3    H228595   0.663   0.829   0.345 -0.1809 -0.9823 -0.7204
 2346TIP3   OH228596   5.690   5.690   8.812 -0.3879  0.1827  0.4113
 2346TIP3    H128597   5.699   5.612   8.867  1.7444  0.2357  0.2296
 2346TIP3    H228598   5.596   5.710   8.813 -0.7164 -1.2205  2.0530
 2347TIP3   OH228599   2.776   2.786   7.894 -0.3222 -0.2319  0.1463
 2347TIP3    H128600   2.857   2.737   7.909  0.0258  0.5190  0.7460
 2347TIP3    H228601   2.741   2.749   7.812  0.8423 -0.2595 -0.3614
 2348TIP3   OH228602   6.148   2.925   2.092  0.4504  0.2298 -0.4213
 2348TIP3    H128603   6.079   2.912   2.158  0.6114 -1.4783 -0.5465
 2348TIP3    H228604   6.230   2.912   2.140  0.5469 -1.8719 -1.0954
 2349TIP3   OH228605   4.932   6.097   0.550 -0.3101  0.0584 -0.6577
 2349TIP3    H128606   4.950   6.003   0.557  1.0308  0.3395  0.1259
 2349TIP3    H228607   4.870   6.104   0.478  0.0608 -1.3756 -1.1640
 2350TIP3   OH228608   3.366   1.403   8.650  0.0791 -1.0209  0.1680
 2350TIP3    H128609   3.327   1.460   8.583  1.2356 -0.6389 -0.2050
 2350TIP3    H228610   3.323   1.319   8.637 -0.1176 -0.8047 -0.7009
 2351TIP3   OH228611   1.853   2.781   8.302  0.1389  0.5115  0.2785
 2351TIP3    H128612   1.885   2.871   8.303  1.1434  0.1660  0.4954
 2351TIP3    H228613   1.813   2.769   8.388  1.8510  0.1322  1.0631
 2352TIP3   OH228614   2.236   1.663   0.812 -0.4828  0.3191  0.0813
 2352TIP3    H128615   2.261   1.607   0.885 -2.1499  1.0705  1.2811
 2352TIP3    H228616   2.186   1.605   0.754 -0.0747 -0.0268  0.0719
 2353TIP3   OH228617   3.714   3.895   0.991 -0.3397 -0.1839  0.1542
 2353TIP3    H128618   3.791   3.927   1.038 -0.0402  0.0036 -0.4448
 2353TIP3    H228619   3.640   3.922   1.044  0.0318 -0.9152  1.0709
 2354TIP3   OH228620   0.223   4.584   0.668 -0.5087 -0.1460  0.0602
 2354TIP3    H128621   0.275   4.624   0.737 -0.9115 -1.4498  1.1414
 2354TIP3    H228622   0.213   4.654   0.603  2.4063  0.2064 -0.1312
 2355TIP3   OH228623   6.293   0.355   0.288 -1.0219  0.1536 -0.0581
 2355TIP3    H128624   6.224   0.354   0.355  0.9865  1.8214  2.2350
 2355TIP3    H228625   6.318   0.447   0.280 -0.3163 -0.1616 -2.2501
 2356TIP3   OH228626   6.232   3.955   6.696 -0.2687 -0.0388 -0.0677
 2356TIP3    H128627   6.171   3.942   6.623 -0.2883  0.8838 -0.2280
 2356TIP3    H228628   6.309   3.904   6.671 -1.5932 -2.7186  0.9824
 2357TIP3   OH228629   1.946   5.017   0.697  0.0571 -0.5637  0.5435
 2357TIP3    H128630   1.898   5.087   0.740  1.4878  0.1826  0.9918
 2357TIP3    H228631   2.004   5.061   0.635 -0.2169 -1.4682 -0.3923
 2358TIP3   OH228632   0.804   6.190   7.475  0.3093 -0.1265  0.4477
 2358TIP3    H128633   0.843   6.260   7.528  2.3910  0.6558 -1.9127
 2358TIP3    H228634   0.734   6.234   7.426  1.7802  0.4580 -1.2225
 2359TIP3   OH228635   2.169   6.122   7.055  0.4087  0.6289  0.2280
 2359TIP3    H128636   2.220   6.180   6.999  1.3747 -1.1679 -0.8492
 2359TIP3    H228637   2.113   6.181   7.106  0.4159  2.4241 -1.6849
 2360TIP3   OH228638   1.311   2.178   0.709 -0.4898 -0.0547 -0.0003
 2360TIP3    H128639   1.250   2.225   0.652  0.7366 -0.2594 -1.5569
 2360TIP3    H228640   1.337   2.244   0.774 -0.5178  0.7566 -0.7830
 2361TIP3   OH228641   2.202   1.115   1.954  0.1736 -0.0885 -0.1757
 2361TIP3    H128642   2.164   1.198   1.984  0.3469  0.8869 -2.4481
 2361TIP3    H228643   2.291   1.116   1.989  0.9018  1.7817 -1.8654
 2362TIP3   OH228644   3.342   4.407   2.287 -0.9099  0.6608 -0.0588
 2362TIP3    H128645   3.339   4.351   2.365 -1.4412  0.7431 -0.0190
 2362TIP3    H228646   3.421   4.459   2.299 -0.3005 -0.2029 -0.1840
 2363TIP3   OH228647   5.830   0.374   8.335  0.6406 -0.2523 -0.0033
 2363TIP3    H128648   5.825   0.441   8.404 -1.4651 -0.5607  0.1931
 2363TIP3    H228649   5.836   0.291   8.382  0.6540 -0.3733 -0.2149
 2364TIP3   OH228650   1.640   4.642   7.381  0.4397  0.4468  0.1703
 2364TIP3    H128651   1.611   4.670   7.468  0.7819 -0.2679  0.5292
 2364TIP3    H228652   1.732   4.670   7.376  0.6585 -0.2114  0.3670
 2365TIP3   OH228653   4.310   0.848   0.496 -0.2359  0.6644 -1.6177
 2365TIP3    H128654   4.325   0.939   0.522 -0.5379  0.3791 -0.3754
 2365TIP3    H228655   4.235   0.852   0.436 -0.1696  1.2361 -1.6703
 2366TIP3   OH228656   3.451   3.336   7.049 -0.0494  0.5914 -0.9409
 2366TIP3    H128657   3.492   3.411   7.007  1.6985  0.6743  0.7727
 2366TIP3    H228658   3.440   3.362   7.140 -0.4676 -0.8258 -0.5597
 2367TIP3   OH228659   6.390   1.695   7.237  0.1752  0.0221  0.0950
 2367TIP3    H128660   6.333   1.655   7.172 -1.6538  2.0989  0.3008
 2367TIP3    H228661   6.357   1.785   7.246  2.2173  0.6918  1.7479
 2368TIP3   OH228662   6.653   4.780   0.156 -0.6272 -0.7897 -0.0145
 2368TIP3    H128663   6.614   4.733   0.082  1.9304 -0.3605 -1.7705
 2368TIP3    H228664   6.604   4.750   0.232 -1.6068 -3.3304 -1.5270
 2369TIP3   OH228665   2.278   5.043   1.505 -0.0748 -0.0795  0.2404
 2369TIP3    H128666   2.329   5.016   1.582 -1.0158 -0.9325  0.5798
 2369TIP3    H228667   2.196   5.078   1.542 -1.0613 -1.6416 -0.3962
 2370TIP3   OH228668   3.348   5.889   6.513 -0.2777  0.0444 -0.0949
 2370TIP3    H128669   3.391   5.974   6.529  0.1739 -0.1357 -0.3288
 2370TIP3    H228670   3.361   5.840   6.594 -0.5808  0.2109  0.0584
 2371TIP3   OH228671   0.557   3.968   0.863  0.1351  0.0439  0.3830
 2371TIP3    H128672   0.617   3.918   0.918 -0.2089 -1.1440 -0.2869
 2371TIP3    H228673   0.484   3.908   0.847 -0.7093  1.0688  0.2657
 2372TIP3   OH228674   3.064   0.100   8.208 -0.2414 -0.3431  0.7951
 2372TIP3    H128675   3.069   0.025   8.149  1.6616  0.0866  0.3463
 2372TIP3    H228676   3.096   0.174   8.155 -1.5301  0.7027  1.4057
 2373TIP3   OH228677   1.136   2.751   0.888  0.1648 -0.0782  0.2702
 2373TIP3    H128678   1.200   2.739   0.958  0.7280  2.0245  0.2041
 2373TIP3    H228679   1.133   2.846   0.875 -1.9384 -0.2231 -0.7185
 2374TIP3   OH228680   2.593   5.731   8.499 -0.0794  0.3587  0.1456
 2374TIP3    H128681   2.679   5.690   8.509 -0.4556 -0.1698  1.4098
 2374TIP3    H228682   2.544   5.671   8.443  0.1953  0.3861 -0.1254
 2375TIP3   OH228683   1.145   0.334   7.448  0.1014 -0.5942 -0.0730
 2375TIP3    H128684   1.162   0.409   7.391  0.5816 -0.1930  0.5745
 2375TIP3    H228685   1.167   0.258   7.395  0.7677 -0.2192 -0.3491
 2376TIP3   OH228686   3.087   6.263   7.488  0.2020  0.0573 -0.2300
 2376TIP3    H128687   3.103   6.262   7.582 -0.0397 -1.0006 -0.1989
 2376TIP3    H228688   3.031   6.188   7.471 -1.5976  1.4797 -0.9168
 2377TIP3   OH228689   6.602   3.207   8.104  0.2064 -0.5657  0.2644
 2377TIP3    H128690   6.582   3.115   8.123 -0.9628 -0.6349 -1.0819
 2377TIP3    H228691   6.691   3.205   8.069  0.6504 -1.0035  1.3644
 2378TIP3   OH228692   4.099   0.674   0.166  0.2918 -0.1216  0.3301
 2378TIP3    H128693   4.190   0.696   0.185  0.2421  0.2052  0.1896
 2378TIP3    H228694   4.087   0.588   0.207  0.2782  0.4102  1.4806
 2379TIP3   OH228695   3.826   5.148   6.785  0.5489 -0.8631  0.5444
 2379TIP3    H128696   3.891   5.218   6.782  0.3328 -0.6241  1.1702
 2379TIP3    H228697   3.774   5.159   6.705  0.2696 -0.0619  0.8247
 2380TIP3   OH228698   3.274   4.139   7.935 -0.3963  0.2346 -0.0906
 2380TIP3    H128699   3.270   4.046   7.912  0.5090  0.7158 -2.4944
 2380TIP3    H228700   3.342   4.144   8.002  1.8516 -0.5350 -2.1677
 2381TIP3   OH228701   1.620   2.666   7.848  0.5294 -0.0600 -0.0891
 2381TIP3    H128702   1.664   2.680   7.932 -0.4666  0.4552  0.3716
 2381TIP3    H228703   1.689   2.639   7.788  1.0642 -1.7262  1.2046
 2382TIP3   OH228704   2.137   0.443   8.366 -0.3011  0.1539  0.5086
 2382TIP3    H128705   2.069   0.491   8.319 -1.7308 -0.9894  1.3130
 2382TIP3    H228706   2.122   0.463   8.458  0.4046 -0.1995  0.7100
 2383TIP3   OH228707   4.545   0.097   1.312 -0.3747 -0.0862 -0.1363
 2383TIP3    H128708   4.569   0.009   1.284 -0.1192 -0.9220  2.4519
 2383TIP3    H228709   4.466   0.085   1.365 -0.3167  1.2269  0.2865
 2384TIP3   OH228710   0.102   3.726   7.511 -0.5550 -0.5285  0.1433
 2384TIP3    H128711   0.129   3.714   7.420 -0.9976 -1.7427  0.1529
 2384TIP3    H228712   0.182   3.709   7.562  0.5579  3.2167 -0.0650
 2385TIP3   OH228713   3.100   2.463   1.087  0.0727 -0.2467  0.1853
 2385TIP3    H128714   3.030   2.399   1.072  1.1138 -1.2881 -0.3768
 2385TIP3    H228715   3.102   2.517   1.008  0.8131 -1.1228 -0.4128
 2386TIP3   OH228716   5.696   1.747   6.856 -0.3556 -0.3748 -0.3445
 2386TIP3    H128717   5.778   1.784   6.887 -0.1738 -1.3910  0.4403
 2386TIP3    H228718   5.711   1.729   6.763  0.0034  0.2325 -0.4105
 2387TIP3   OH228719   0.035   6.592   1.208  0.1268 -0.6565 -0.2527
 2387TIP3    H128720   0.039   6.526   1.277 -1.1780 -1.5339 -0.9833
 2387TIP3    H228721   0.044   6.676   1.255 -3.3698 -1.0445  1.3988
 2388TIP3   OH228722   6.636   0.745   7.402 -0.2643  0.0743 -0.1575
 2388TIP3    H128723   6.638   0.829   7.449 -0.9839  0.1435 -0.2404
 2388TIP3    H228724   6.696   0.689   7.450 -0.8796  0.1903  0.7547
 2389TIP3   OH228725   6.125   0.861   0.156  0.1662  0.4848 -0.0558
 2389TIP3    H128726   6.142   0.951   0.182  1.6737  0.2328 -0.0611
 2389TIP3    H228727   6.146   0.859   0.062  1.5069 -0.1442  0.2211
 2390TIP3   OH228728   3.311   0.656   1.487 -0.0498 -0.1760  0.3198
 2390TIP3    H128729   3.337   0.564   1.499 -0.7068 -0.5289 -0.8783
 2390TIP3    H228730   3.379   0.705   1.533  0.0260 -1.2680  1.4440
 2391TIP3   OH228731   4.960   1.960   0.368 -0.5168 -0.0188 -0.0131
 2391TIP3    H128732   5.014   1.991   0.440  1.7051 -1.4441 -0.9396
 2391TIP3    H228733   4.949   2.036   0.311  1.3650  0.1174 -0.2525
 2392TIP3   OH228734   3.813   5.196   8.559  0.2564 -0.2667  0.3239
 2392TIP3    H128735   3.857   5.272   8.597 -0.0324  0.0742 -0.0240
 2392TIP3    H228736   3.880   5.154   8.506  0.7257 -0.8606  1.3476
 2393TIP3   OH228737   2.167   5.514   2.344 -0.3990 -0.3763 -0.4710
 2393TIP3    H128738   2.172   5.511   2.439 -2.1565  2.7695 -0.1650
 2393TIP3    H228739   2.255   5.490   2.315  0.6364  0.1339  1.9941
 2394TIP3   OH228740   4.426   1.284   0.291 -0.0984  0.2293  0.2487
 2394TIP3    H128741   4.450   1.364   0.338 -0.1034  0.6385 -0.4292
 2394TIP3    H228742   4.359   1.312   0.229  0.1789 -0.2254 -0.2661
 2395TIP3   OH228743   4.533   3.633   0.735  0.2883 -0.5350 -0.4025
 2395TIP3    H128744   4.556   3.726   0.734 -0.6989 -0.2626  0.2797
 2395TIP3    H228745   4.498   3.618   0.823 -0.9436 -1.1820 -0.9677
 2396TIP3   OH228746   4.803   4.901   2.214  0.3562  0.2201 -0.0118
 2396TIP3    H128747   4.779   4.980   2.263 -3.5156 -0.4620 -0.4552
 2396TIP3    H228748   4.805   4.832   2.281 -0.0274  0.1053 -0.1145
 2397TIP3   OH228749   6.205   6.553   0.066 -0.6073  0.1213 -0.2115
 2397TIP3    H128750   6.271   6.506   0.016  0.3699  1.1094  0.1252
 2397TIP3    H228751   6.155   6.602   0.001  0.0678  0.6813 -0.3088
 2398TIP3   OH228752   1.828   1.729   0.362  0.9167 -0.5550  0.0541
 2398TIP3    H128753   1.890   1.734   0.435 -0.3344 -1.2843  1.2144
 2398TIP3    H228754   1.747   1.766   0.397 -0.1526 -2.3228 -0.4244
 2399TIP3   OH228755   1.083   3.059   8.097  0.4751  0.4071 -0.0865
 2399TIP3    H128756   1.142   3.100   8.160  0.3497 -0.2871  0.4923
 2399TIP3    H228757   1.050   2.982   8.142  0.0418  0.1410 -0.8477
 2400TIP3   OH228758   4.372   5.167   6.801  0.1253 -0.7676 -0.1254
 2400TIP3    H128759   4.332   5.219   6.731  1.0995  1.1479  0.6829
 2400TIP3    H228760   4.326   5.194   6.881  1.6627  0.0177  0.5268
 2401TIP3   OH228761   1.120   0.946   0.923 -0.0985 -0.0583 -0.1476
 2401TIP3    H128762   1.159   1.033   0.929  0.9533 -0.4638 -0.6841
 2401TIP3    H228763   1.036   0.960   0.880  1.6756  0.3222 -3.8611
 2402TIP3   OH228764   3.914   1.677   1.683  0.5625 -0.2554  0.5107
 2402TIP3    H128765   3.821   1.682   1.663  0.0185 -0.2971  2.7961
 2402TIP3    H228766   3.947   1.766   1.669  0.4320 -0.4465 -1.2239
 2403TIP3   OH228767   2.617   0.959   8.454 -0.8028  0.0178 -0.1010
 2403TIP3    H128768   2.533   0.996   8.482 -1.0337 -0.7564  0.2785
 2403TIP3    H228769   2.657   0.927   8.534  0.0834  0.8067 -0.2183
 2404TIP3   OH228770   4.495   0.863   0.929 -0.1460 -0.4135 -0.4409
 2404TIP3    H128771   4.485   0.899   1.017  0.1133 -0.6517 -0.3123
 2404TIP3    H228772   4.566   0.799   0.937 -1.3675 -1.8137 -0.4005
 2405TIP3   OH228773   0.087   2.291   0.908 -0.0286 -0.9310 -0.2600
 2405TIP3    H128774   0.079   2.197   0.897  1.2058 -0.9410 -1.3692
 2405TIP3    H228775   0.042   2.329   0.832 -0.2674 -0.6384  0.0242
 2406TIP3   OH228776   0.437   4.150   1.593 -0.3914  0.0269  0.1651
 2406TIP3    H128777   0.443   4.055   1.582  0.3120 -0.0113  0.8131
 2406TIP3    H228778   0.527   4.181   1.591 -0.6271  0.7184 -0.2571
 2407TIP3   OH228779   5.483   6.098   0.066  0.4829 -0.4092  0.0371
 2407TIP3    H128780   5.549   6.073   0.001  1.3274 -2.7516  1.6648
 2407TIP3    H228781   5.414   6.032   0.057 -0.9882  1.1363 -0.6073
 2408TIP3   OH228782   5.991   1.253   7.719 -0.4739 -0.3132 -0.1852
 2408TIP3    H128783   6.024   1.339   7.742 -2.2147  0.3546 -0.0099
 2408TIP3    H228784   6.003   1.248   7.624  0.4704 -0.2759 -0.0786
 2409TIP3   OH228785   2.580   6.192   1.000  0.1675 -0.3611 -0.2132
 2409TIP3    H128786   2.555   6.102   1.022  1.7737 -0.4210  1.6363
 2409TIP3    H228787   2.540   6.244   1.069  0.3522  0.1894 -0.5200
 2410TIP3   OH228788   0.739   4.481   2.517 -0.0493  0.1427 -0.1230
 2410TIP3    H128789   0.710   4.560   2.471  1.2602 -0.3826 -1.9328
 2410TIP3    H228790   0.819   4.508   2.561 -0.2148  0.1063  0.2049
 2411TIP3   OH228791   5.350   0.998   0.554 -0.1022 -0.5350 -0.1310
 2411TIP3    H128792   5.406   0.939   0.503 -1.2024 -0.9931 -0.8439
 2411TIP3    H228793   5.396   1.082   0.552  2.2342 -1.6130  2.0963
 2412TIP3   OH228794   0.477   3.606   1.618  0.5786 -0.3370  0.2451
 2412TIP3    H128795   0.530   3.633   1.543 -0.1288 -0.6644 -0.3817
 2412TIP3    H228796   0.513   3.521   1.643 -1.3938 -1.9556 -1.9836
 2413TIP3   OH228797   3.764   4.824   8.563 -0.2711  0.5095 -0.0190
 2413TIP3    H128798   3.698   4.772   8.610 -0.8288  2.1738  1.1385
 2413TIP3    H228799   3.845   4.811   8.612 -0.3558  0.5292  0.1274
 2414TIP3   OH228800   5.197   2.607   8.167 -0.1577 -0.2483  0.0012
 2414TIP3    H128801   5.208   2.614   8.262 -1.2675  1.5206  0.0548
 2414TIP3    H228802   5.149   2.687   8.143  1.1979 -0.0184 -2.2193
 2415TIP3   OH228803   6.629   2.067   0.034 -0.6206  0.7336  0.2625
 2415TIP3    H128804   6.705   2.100  -0.014 -1.4791  0.8687 -1.0453
 2415TIP3    H228805   6.636   1.972   0.027 -1.3426  0.7612 -1.1515
 2416TIP3   OH228806   1.592   5.333   7.654 -0.6685  0.6429 -0.2059
 2416TIP3    H128807   1.547   5.337   7.570 -0.7916  0.0155 -0.1751
 2416TIP3    H228808   1.523   5.315   7.718 -0.3710 -0.3972 -0.1695
 2417TIP3   OH228809   4.495   1.906   1.547  0.0864 -0.3778  0.1233
 2417TIP3    H128810   4.443   1.952   1.481 -0.0890 -0.1720  0.4035
 2417TIP3    H228811   4.434   1.844   1.586  0.6149 -1.7306 -1.0830
 2418TIP3   OH228812   3.702   4.980   8.364  0.7742  0.4554  0.3845
 2418TIP3    H128813   3.764   4.975   8.291  0.8240 -0.6292  0.4768
 2418TIP3    H228814   3.749   4.944   8.438 -0.3682 -1.7278  0.1374
 2419TIP3   OH228815   5.769   5.707   6.686  0.4480  0.3291 -0.1284
 2419TIP3    H128816   5.740   5.633   6.740  1.2371 -0.4989 -0.8131
 2419TIP3    H228817   5.852   5.679   6.650  0.0131  0.9310 -1.6603
 2420TIP3   OH228818   4.941   5.877   2.257 -0.0255  0.7492  0.6162
 2420TIP3    H128819   4.931   5.788   2.291 -1.3286  0.5846 -0.1390
 2420TIP3    H228820   5.033   5.899   2.273  0.0939 -0.3890  1.6147
 2421TIP3   OH228821   4.636   2.522   7.151  0.6277 -0.4976 -0.6709
 2421TIP3    H128822   4.693   2.576   7.097  1.1814 -1.4790 -1.0936
 2421TIP3    H228823   4.548   2.535   7.114  0.6132  0.7572 -0.2268
 2422TIP3   OH228824   0.760   6.071   0.299  0.7823  0.4068  0.4835
 2422TIP3    H128825   0.851   6.041   0.293 -0.0226 -1.9885 -0.9593
 2422TIP3    H228826   0.746   6.120   0.218  0.0273 -1.6680 -0.6957
 2423TIP3   OH228827   4.014   0.558   8.620 -0.1571 -0.0860 -0.0695
 2423TIP3    H128828   4.067   0.552   8.541  0.5934 -0.8768  0.4820
 2423TIP3    H228829   4.022   0.472   8.662 -2.2285 -0.3866 -0.1825
 2424TIP3   OH228830   2.916   0.211   1.033  0.2880 -0.0307 -0.2128
 2424TIP3    H128831   2.870   0.192   1.115 -0.9675 -1.6148 -1.2220
 2424TIP3    H228832   2.861   0.277   0.990 -1.1102 -1.8341 -1.3622
 2425TIP3   OH228833   0.545   5.995   2.715 -0.4838  0.4584 -0.7937
 2425TIP3    H128834   0.582   6.021   2.799 -0.6494  0.9855 -0.8802
 2425TIP3    H228835   0.614   5.944   2.673 -0.9595 -1.1810  0.3207
 2426TIP3   OH228836   2.279   3.699   7.913 -0.2248  0.4437 -0.2189
 2426TIP3    H128837   2.296   3.763   7.843 -0.9208 -1.0733 -1.8425
 2426TIP3    H228838   2.189   3.717   7.941 -0.8922 -0.5830 -1.5803
 2427TIP3   OH228839   0.740   3.699   7.312  0.1628 -0.0555  0.2175
 2427TIP3    H128840   0.730   3.742   7.397 -0.8130  3.8195 -1.6124
 2427TIP3    H228841   0.829   3.665   7.312  0.7015  1.1856  2.2344
 2428TIP3   OH228842   1.935   4.346   6.805  0.5172 -0.3455  0.2067
 2428TIP3    H128843   1.995   4.273   6.823  4.4429  2.8430  1.3822
 2428TIP3    H228844   1.914   4.338   6.712  1.2386 -2.6415  0.1813
 2429TIP3   OH228845   5.487   3.239   0.067 -0.1038 -0.2573 -0.3210
 2429TIP3    H128846   5.565   3.259   0.015  0.8239 -1.7978  0.3958
 2429TIP3    H228847   5.494   3.296   0.143 -1.3604  1.8615 -1.6984
 2430TIP3   OH228848   2.895   3.852   8.077 -1.4744  0.0337 -0.1844
 2430TIP3    H128849   2.915   3.946   8.069 -3.4623  0.6101  0.9145
 2430TIP3    H228850   2.977   3.814   8.109 -1.0416  1.6710  0.8355
 2431TIP3   OH228851   4.687   0.168   8.609 -0.4724 -0.0428  0.1875
 2431TIP3    H128852   4.708   0.253   8.649 -1.4816  0.5230 -0.4243
 2431TIP3    H228853   4.622   0.190   8.541 -1.2002 -1.3874  0.4272
 2432TIP3   OH228854   0.430   1.603   8.711  0.3934  0.2324 -0.1587
 2432TIP3    H128855   0.479   1.536   8.759 -0.3589  0.9667  1.7371
 2432TIP3    H228856   0.450   1.586   8.619  1.6942 -1.4176  0.3744
 2433TIP3   OH228857   6.152   3.161   1.945 -0.1246  0.2335  0.2337
 2433TIP3    H128858   6.091   3.192   2.012 -1.3592 -1.1568 -0.1793
 2433TIP3    H228859   6.171   3.071   1.972  1.7250  0.6102  0.3047
 2434TIP3   OH228860   3.752   6.516   7.925 -0.1091  0.2306  0.0200
 2434TIP3    H128861   3.679   6.541   7.982 -1.5589  0.8398 -1.9930
 2434TIP3    H228862   3.764   6.592   7.867  0.3097 -0.9047 -1.4418
 2435TIP3   OH228863   2.442   4.831   2.129  0.0973 -0.3255  0.4347
 2435TIP3    H128864   2.392   4.901   2.086 -0.3208 -0.7066  0.2888
 2435TIP3    H228865   2.514   4.812   2.068 -1.0503 -1.5405 -0.5982
 2436TIP3   OH228866   5.302   3.659   6.942 -0.7684  0.0054 -0.6057
 2436TIP3    H128867   5.234   3.724   6.927 -0.7940  0.5662  1.6333
 2436TIP3    H228868   5.272   3.610   7.019  1.4086  0.4241  0.6037
 2437TIP3   OH228869   1.161   2.052   7.659 -0.4362  0.3492 -0.1874
 2437TIP3    H128870   1.182   2.136   7.699 -0.5091 -0.4411  1.6117
 2437TIP3    H228871   1.244   2.004   7.659 -0.7610 -0.2223  0.4548
 2438TIP3   OH228872   6.492   6.731   0.912  0.0907  0.2532  0.2748
 2438TIP3    H128873   6.527   6.800   0.855 -0.0340  1.7694  1.9647
 2438TIP3    H228874   6.463   6.777   0.991  1.8243 -1.9353  2.3332
 2439TIP3   OH228875   1.915   4.570   1.597  0.0895 -0.5429 -0.2590
 2439TIP3    H128876   1.888   4.632   1.529  1.2107 -0.8298 -0.9910
 2439TIP3    H228877   2.003   4.600   1.623  0.3293 -1.3795 -0.0872
 2440TIP3   OH228878   0.463   0.302   7.802 -0.3314 -0.4671  0.7343
 2440TIP3    H128879   0.441   0.209   7.807  0.3786 -0.9156 -2.4546
 2440TIP3    H228880   0.394   0.340   7.749  0.2551  0.5051  0.6580
 2441TIP3   OH228881   1.564   2.755   6.932  0.1223  0.4268 -0.2140
 2441TIP3    H128882   1.473   2.779   6.947 -0.2022 -0.9473  0.2116
 2441TIP3    H228883   1.560   2.667   6.894  1.2378  0.8567 -1.4186
 2442TIP3   OH228884   0.604   0.433   2.458  0.1438  0.3646  0.7287
 2442TIP3    H128885   0.561   0.351   2.484  0.4547  0.3341  1.1649
 2442TIP3    H228886   0.661   0.454   2.532 -0.9345  1.6907  1.2422
 2443TIP3   OH228887   5.777   2.154   8.741 -0.0095  0.4118  0.1454
 2443TIP3    H128888   5.811   2.240   8.765 -2.9435  1.1835  2.1091
 2443TIP3    H228889   5.847   2.093   8.766  1.7536  2.1036 -0.4270
 2444TIP3   OH228890   4.330   2.847   7.942  0.3517  0.8101  1.0881
 2444TIP3    H128891   4.389   2.915   7.974  0.2622  1.8639 -0.8172
 2444TIP3    H228892   4.244   2.889   7.939  0.3460  0.7557 -0.3673
 2445TIP3   OH228893   1.184   0.503   1.832 -0.3744 -0.3661 -0.5458
 2445TIP3    H128894   1.222   0.418   1.810  0.6753  0.2338 -1.1810
 2445TIP3    H228895   1.242   0.566   1.789 -0.2549  0.7345  1.1121
 2446TIP3   OH228896   3.092   6.250   1.553 -0.1953  0.0726 -0.4633
 2446TIP3    H128897   3.012   6.203   1.530  1.2388 -3.1985  0.5275
 2446TIP3    H228898   3.088   6.261   1.648  0.6970 -0.5953 -0.3286
 2447TIP3   OH228899   5.737   2.730   1.177  0.4327 -0.0792  0.4208
 2447TIP3    H128900   5.649   2.705   1.150 -0.0444 -0.0861  1.9185
 2447TIP3    H228901   5.739   2.825   1.170  0.4257 -0.0994  0.0931
 2448TIP3   OH228902   1.864   3.569   0.816 -0.6883 -0.3041  0.2904
 2448TIP3    H128903   1.895   3.578   0.907  0.5359  0.7554 -0.1961
 2448TIP3    H228904   1.871   3.476   0.797 -1.3562 -0.6080  1.3996
 2449TIP3   OH228905   3.049   2.645   8.853  0.4022 -0.4925 -0.1386
 2449TIP3    H128906   3.093   2.709   8.798  0.0073 -0.1493 -0.0670
 2449TIP3    H228907   2.993   2.698   8.911 -0.9395 -0.9564 -0.9626
 2450TIP3   OH228908   1.066   5.768   2.372 -0.4319 -0.4869  0.4499
 2450TIP3    H128909   1.105   5.740   2.454  1.7539  1.2838  0.1391
 2450TIP3    H228910   1.035   5.857   2.389 -2.9666 -1.2416  0.1922
 2451TIP3   OH228911   2.190   5.486   7.643 -0.9392 -0.6952 -0.5138
 2451TIP3    H128912   2.146   5.469   7.560 -0.1681 -1.4549 -0.7811
 2451TIP3    H228913   2.216   5.578   7.638  1.1760 -1.2980 -2.1554
 2452TIP3   OH228914   4.835   5.332   8.811 -0.2341  0.7345  0.1379
 2452TIP3    H128915   4.829   5.277   8.733  0.4233  0.7156  0.0885
 2452TIP3    H228916   4.774   5.293   8.873 -0.3204  0.3905 -0.1607
 2453TIP3   OH228917   2.069   5.083   8.048  0.2803 -0.0309 -0.1780
 2453TIP3    H128918   2.053   5.004   7.996 -0.4210  0.9065 -1.4420
 2453TIP3    H228919   2.157   5.111   8.022  0.7257 -0.6534  0.6344
 2454TIP3   OH228920   0.744   4.207   2.606 -0.0510  0.3722 -0.3977
 2454TIP3    H128921   0.840   4.203   2.607 -0.0434 -2.6039 -1.8340
 2454TIP3    H228922   0.725   4.298   2.584  2.5297  0.6659 -1.9359
 2455TIP3   OH228923   2.950   5.336   0.303 -0.0673  0.3324 -0.2568
 2455TIP3    H128924   2.912   5.267   0.357  2.5223 -0.8838  0.1589
 2455TIP3    H228925   2.889   5.410   0.312 -1.5967 -1.0372  1.3493
 2456TIP3   OH228926   4.629   0.435   7.456 -0.3312  0.0502  0.4991
 2456TIP3    H128927   4.661   0.470   7.373 -0.8760 -1.1633 -0.2491
 2456TIP3    H228928   4.706   0.395   7.497 -0.4742 -1.2575 -0.4471
 2457TIP3   OH228929   6.670   0.816   7.145 -0.2164  0.2605 -0.4909
 2457TIP3    H128930   6.640   0.768   7.223 -2.1934  1.2240 -0.5937
 2457TIP3    H228931   6.755   0.777   7.124 -0.3619 -1.0988  1.2065
 2458TIP3   OH228932   1.893   4.693   2.361 -0.0012 -0.6796  0.0900
 2458TIP3    H128933   1.799   4.680   2.347 -0.0216  0.6335 -1.2517
 2458TIP3    H228934   1.934   4.617   2.320 -0.4180 -0.3055 -1.0637
 2459TIP3   OH228935   3.171   1.584   7.527  0.4695  0.0949  0.3459
 2459TIP3    H128936   3.134   1.642   7.594 -0.4401  1.1671 -1.0254
 2459TIP3    H228937   3.201   1.643   7.458  1.3877 -0.9844 -0.2219
 2460TIP3   OH228938   0.084   1.725   2.005  0.0267  0.3234 -0.2562
 2460TIP3    H128939   0.034   1.649   2.035 -0.2078  0.4594 -0.2938
 2460TIP3    H228940   0.032   1.800   2.034 -2.0218  0.5015 -3.8156
 2461TIP3   OH228941   3.807   5.028   1.037 -0.3928 -0.2067 -0.8161
 2461TIP3    H128942   3.898   5.001   1.049 -0.3143  0.1119 -0.7058
 2461TIP3    H228943   3.756   4.966   1.090  0.0138  1.9013  2.3019
 2462TIP3   OH228944   2.775   3.625   0.290  0.2162  0.1626 -0.3901
 2462TIP3    H128945   2.760   3.717   0.311  0.5997  0.2252 -0.3908
 2462TIP3    H228946   2.720   3.577   0.351  2.2585  0.2752  1.6657
 2463TIP3   OH228947   4.333   0.873   7.724 -0.2771 -0.5015 -0.1278
 2463TIP3    H128948   4.379   0.807   7.672  0.8425 -0.4553  0.7662
 2463TIP3    H228949   4.331   0.951   7.669 -1.8551 -1.3311 -1.3042
 2464TIP3   OH228950   1.029   2.182   1.959 -0.6328 -0.6028  0.1028
 2464TIP3    H128951   1.000   2.225   1.879  1.3245 -1.8315 -1.3530
 2464TIP3    H228952   1.079   2.249   2.006 -0.2939 -0.3682 -0.5867
 2465TIP3   OH228953   6.587   4.492   0.990 -0.3896  0.1045 -0.3089
 2465TIP3    H128954   6.596   4.557   1.060 -0.3644 -1.7865  1.5285
 2465TIP3    H228955   6.495   4.465   0.994 -0.2061 -0.5722 -0.4711
 2466TIP3   OH228956   1.352   2.469   7.435  0.3569 -0.2568  0.1257
 2466TIP3    H128957   1.428   2.431   7.390 -0.1177 -2.2675  0.9428
 2466TIP3    H228958   1.288   2.398   7.438 -1.2885  1.1786  0.1245
 2467TIP3   OH228959   5.953   4.943   6.804 -0.2645 -0.0034  0.0717
 2467TIP3    H128960   5.906   4.930   6.887 -3.7683 -0.3532 -1.7782
 2467TIP3    H228961   6.002   4.862   6.792  1.3921  0.5750  2.3458
 2468TIP3   OH228962   4.729   2.628   1.582  0.0373  0.5618 -0.2855
 2468TIP3    H128963   4.732   2.723   1.576 -0.9911  0.5226 -2.0406
 2468TIP3    H228964   4.636   2.607   1.591  0.2524 -0.2895  0.1200
 2469TIP3   OH228965   4.624   1.900   0.837  0.6914  0.4737  0.0364
 2469TIP3    H128966   4.599   1.836   0.771  2.5934 -2.4485  1.9573
 2469TIP3    H228967   4.570   1.878   0.914  0.7226  1.8132  0.4793
 2470TIP3   OH228968   1.467   3.440   7.223 -0.4102  0.3902 -0.0700
 2470TIP3    H128969   1.409   3.368   7.199  0.7838 -0.5886 -0.1213
 2470TIP3    H228970   1.533   3.443   7.154 -0.0837  1.1325  0.2566
 2471TIP3   OH228971   6.043   4.030   1.354  0.0465  0.1742  0.2109
 2471TIP3    H128972   6.072   3.939   1.358  0.8623  0.3828 -0.5574
 2471TIP3    H228973   5.992   4.035   1.273  1.0680  0.6653 -0.4329
 2472TIP3   OH228974   6.213   0.170   1.648 -0.6302 -0.4687  0.4611
 2472TIP3    H128975   6.251   0.083   1.638 -0.4068 -0.1082 -2.5913
 2472TIP3    H228976   6.281   0.230   1.618 -1.5062  0.6304  0.6006
 2473TIP3   OH228977   1.048   0.703   2.654 -0.4394  0.0054  0.0441
 2473TIP3    H128978   1.065   0.759   2.579  2.0393  0.1230  0.5874
 2473TIP3    H228979   0.953   0.703   2.664 -0.8143  0.3726 -2.7554
 2474TIP3   OH228980   1.171   3.394   0.939  0.6081  0.0440 -0.1063
 2474TIP3    H128981   1.237   3.328   0.918  0.1323 -0.6543  0.5547
 2474TIP3    H228982   1.220   3.476   0.948  1.1095 -0.0391 -1.7273
 2475TIP3   OH228983   4.005   2.321   7.114  0.5260 -0.1361 -0.0318
 2475TIP3    H128984   4.063   2.349   7.043  0.7446 -1.6430 -0.4680
 2475TIP3    H228985   4.018   2.226   7.120 -3.2314 -0.8754 -1.3903
 2476TIP3   OH228986   1.214   2.457   0.188  0.6971 -0.1699 -0.5353
 2476TIP3    H128987   1.279   2.472   0.256  0.6728  1.1503 -0.7691
 2476TIP3    H228988   1.216   2.363   0.172  1.1784 -0.3993  0.8033
 2477TIP3   OH228989   5.361   3.312   8.702 -0.1675 -0.5736  0.1444
 2477TIP3    H128990   5.410   3.303   8.784  0.8999  3.4222  0.1887
 2477TIP3    H228991   5.278   3.351   8.728  0.1751  0.7275 -0.6118
 2478TIP3   OH228992   5.422   1.466   1.554 -0.3440  0.1705  0.0093
 2478TIP3    H128993   5.349   1.415   1.589  1.1962 -1.6193  0.8085
 2478TIP3    H228994   5.468   1.405   1.495  0.0201  1.5308 -1.1691
 2479TIP3   OH228995   6.038   2.182   6.898 -0.0138  0.0991 -0.0589
 2479TIP3    H128996   6.132   2.196   6.888  0.4306 -1.1324  1.8655
 2479TIP3    H228997   5.998   2.265   6.872  1.7135  1.2025  0.6547
 2480TIP3   OH228998   3.910   1.717   0.485 -0.2537 -0.3039  0.1748
 2480TIP3    H128999   3.914   1.621   0.490 -0.7622 -0.3079  0.5679
 2480TIP3    H229000   3.833   1.740   0.536 -1.4698  0.1817 -1.7874
 2481TIP3   OH229001   6.633   6.153   7.100 -0.1495  0.4583  0.0475
 2481TIP3    H129002   6.669   6.101   7.028  2.5644  1.3991  0.6006
 2481TIP3    H229003   6.604   6.089   7.164 -0.4411 -0.3701 -0.8939
 2482TIP3   OH229004   5.069   3.918   8.598  0.8503 -0.4096  0.4897
 2482TIP3    H129005   5.074   3.996   8.653 -0.7091  0.2245 -0.2102
 2482TIP3    H229006   4.978   3.915   8.568  1.6376 -0.6453 -2.1337
 2483TIP3   OH229007   1.227   4.133   7.275  0.7029  0.6626  0.0344
 2483TIP3    H129008   1.158   4.082   7.232  0.0489  1.3612  0.2337
 2483TIP3    H229009   1.266   4.184   7.205  1.8246 -0.5801 -0.2966
 2484TIP3   OH229010   4.202   0.816   6.933 -0.6938 -0.2304 -0.2786
 2484TIP3    H129011   4.135   0.848   6.873 -0.2718  3.3227  0.8858
 2484TIP3    H229012   4.276   0.793   6.877 -0.7790  1.7471 -1.2984
 2485TIP3   OH229013   6.520   4.448   1.533 -0.1912 -0.5099 -0.3179
 2485TIP3    H129014   6.505   4.399   1.452  0.0020 -1.8164  0.4101
 2485TIP3    H229015   6.533   4.538   1.504  0.2119 -1.0043 -1.7792
 2486TIP3   OH229016   0.229   0.270   6.705  0.5622  0.2699 -0.3944
 2486TIP3    H129017   0.138   0.295   6.717  1.0149  1.3754  0.9474
 2486TIP3    H229018   0.232   0.231   6.617 -1.1127  0.5628 -0.6056
 2487TIP3   OH229019   4.338   5.275   7.982  0.3999  0.3809 -0.0793
 2487TIP3    H129020   4.422   5.321   7.987  0.8098 -0.1105 -1.7025
 2487TIP3    H229021   4.279   5.337   7.938  0.3099  0.2308 -0.1730
 2488TIP3   OH229022   6.175   5.670   1.150 -0.6328  0.4766 -0.1092
 2488TIP3    H129023   6.168   5.765   1.152  2.1249  0.7577  0.4116
 2488TIP3    H229024   6.191   5.649   1.058 -0.9926  0.5567 -0.1883
 2489TIP3   OH229025   2.415   0.601   8.507 -0.3345  0.5831 -0.0350
 2489TIP3    H129026   2.481   0.662   8.539  0.7921 -0.7394  0.2214
 2489TIP3    H229027   2.335   0.626   8.555  0.1614  1.6594  0.2620
 2490TIP3   OH229028   0.472   1.551   7.557 -0.3910 -0.2237  0.7709
 2490TIP3    H129029   0.462   1.466   7.513 -1.0617  0.8086 -1.1348
 2490TIP3    H229030   0.383   1.578   7.578 -0.2867  0.6340  0.1353
 2491TIP3   OH229031   5.483   0.469   0.752  0.2113  0.2013 -0.0437
 2491TIP3    H129032   5.483   0.380   0.718  1.6152 -0.5669  1.8088
 2491TIP3    H229033   5.409   0.470   0.814  1.3844 -0.3435  1.4229
 2492TIP3   OH229034   3.306   1.569   8.440 -0.2985  0.3073 -0.3839
 2492TIP3    H129035   3.211   1.561   8.440 -0.5171  2.3107 -0.6229
 2492TIP3    H229036   3.333   1.527   8.358 -1.1654  1.1550 -1.1365
 2493TIP3   OH229037   0.789   6.275   7.851  0.1854 -0.3060 -0.4206
 2493TIP3    H129038   0.844   6.349   7.877 -0.8598 -0.5451  3.0351
 2493TIP3    H229039   0.726   6.313   7.789  0.2451  1.5281  0.5584
 2494TIP3   OH229040   2.332   6.328   8.810  0.4003 -0.3394  0.3847
 2494TIP3    H129041   2.270   6.366   8.748 -0.0517  1.0966  1.6474
 2494TIP3    H229042   2.316   6.376   8.892  2.2683 -0.8452  1.0904
 2495TIP3   OH229043   1.360   5.908   2.650  0.3558 -0.2030  0.1034
 2495TIP3    H129044   1.317   5.965   2.586  0.5506  0.0388  0.1876
 2495TIP3    H229045   1.320   5.822   2.636 -1.7207  0.4416  1.5899
 2496TIP3   OH229046   1.735   5.710   7.147 -0.0838 -0.4353 -0.2760
 2496TIP3    H129047   1.650   5.705   7.190 -0.5921  1.1900 -1.0005
 2496TIP3    H229048   1.756   5.804   7.147  1.0543 -0.6646 -1.3488
 2497TIP3   OH229049   0.802   0.713   0.245 -0.4416 -0.2239 -0.3746
 2497TIP3    H129050   0.779   0.620   0.255 -0.0056 -0.2529  0.4138
 2497TIP3    H229051   0.890   0.720   0.282  0.4386  0.0912 -2.3912
 2498TIP3   OH229052   5.680   6.704   7.364  0.4007  0.1287 -0.0205
 2498TIP3    H129053   5.626   6.631   7.333 -0.7086  1.1163 -0.5427
 2498TIP3    H229054   5.767   6.667   7.377  0.1642 -1.0255 -1.4392
 2499TIP3   OH229055   1.795   3.763   8.573 -0.8044  0.2867  0.3248
 2499TIP3    H129056   1.782   3.858   8.562  1.2260  0.4198 -1.7059
 2499TIP3    H229057   1.737   3.724   8.508  1.3642  0.4174 -1.8140
 2500TIP3   OH229058   4.416   0.020   8.852 -0.6138 -0.1955  0.3518
 2500TIP3    H129059   4.422   0.057   8.941  0.5680 -1.2562  0.7422
 2500TIP3    H229060   4.332  -0.026   8.851 -1.7272  1.7092  0.1292
 2501TIP3   OH229061   2.390   6.531   8.567  0.4504 -0.0777 -0.0234
 2501TIP3    H129062   2.483   6.547   8.587 -0.0283  2.3476  0.6366
 2501TIP3    H229063   2.381   6.557   8.475  0.5221 -0.7988 -0.2342
 2502TIP3   OH229064   6.082   6.512   7.780 -0.0464  0.4517 -0.0051
 2502TIP3    H129065   6.029   6.433   7.788 -0.2457  0.7104  1.4581
 2502TIP3    H229066   6.026   6.574   7.733  0.2568 -0.3741 -1.5182
 2503TIP3   OH229067   4.190   0.928   1.356 -0.5719 -0.3362  0.2334
 2503TIP3    H129068   4.110   0.880   1.377 -0.8791 -0.7468 -1.6414
 2503TIP3    H229069   4.173   1.017   1.387 -1.7161 -0.4421 -0.0225
 2504TIP3   OH229070   4.008   2.030   7.071  0.1431  0.3368 -0.1616
 2504TIP3    H129071   3.942   2.028   7.001 -0.8761 -1.3192  0.7828
 2504TIP3    H229072   4.090   2.053   7.026 -0.1366 -2.2303 -2.2541
 2505TIP3   OH229073   3.713   5.721   1.609  0.0565  0.2103  0.1345
 2505TIP3    H129074   3.679   5.653   1.551  0.3777 -0.0987  0.3060
 2505TIP3    H229075   3.703   5.802   1.560  2.5436 -0.2942 -1.3800
 2506TIP3   OH229076   6.508   1.353   7.522 -0.0199  0.2051  0.1483
 2506TIP3    H129077   6.449   1.316   7.587  0.6663  0.1097  0.7331
 2506TIP3    H229078   6.474   1.440   7.505 -1.9846 -0.8254 -1.6585
 2507TIP3   OH229079   3.935   5.063   8.847 -0.3044 -0.3235  0.2159
 2507TIP3    H129080   3.951   5.058   8.753  1.1482  1.3369  0.3175
 2507TIP3    H229081   4.019   5.041   8.887  0.1138  2.2751  0.9785
 2508TIP3   OH229082   3.645   1.814   7.160  0.2246  0.0815  0.3635
 2508TIP3    H129083   3.606   1.864   7.231  1.7203  0.6959  0.8113
 2508TIP3    H229084   3.662   1.727   7.198 -1.4531 -0.4939 -0.1095
 2509TIP3   OH229085   2.854   3.072   6.597  0.0071 -1.1114 -0.1865
 2509TIP3    H129086   2.934   3.041   6.639 -0.3223 -0.4155  1.0054
 2509TIP3    H229087   2.860   3.041   6.506  0.9879 -2.2035  0.2361
 2510TIP3   OH229088   0.813   3.253   0.453  0.3745  0.1686  0.1223
 2510TIP3    H129089   0.762   3.236   0.532 -1.2672  0.0195 -0.9185
 2510TIP3    H229090   0.885   3.309   0.483  0.8864 -1.3834  2.0368
 2511TIP3   OH229091   2.887   2.808   1.250  0.1893 -0.3553 -0.0231
 2511TIP3    H129092   2.857   2.745   1.315  0.3729 -0.0886  0.3232
 2511TIP3    H229093   2.824   2.801   1.178  0.1186 -0.8174  0.0837
 2512TIP3   OH229094   0.514   1.097   0.969  0.0845  0.5457 -0.2654
 2512TIP3    H129095   0.526   1.116   0.876 -1.1247  2.3851 -0.1032
 2512TIP3    H229096   0.437   1.041   0.973 -0.1201  0.8180 -0.3553
 2513TIP3   OH229097   1.050   4.272   8.377  0.0554 -0.4641  0.2156
 2513TIP3    H129098   1.006   4.342   8.425 -1.3890 -0.4602 -1.0442
 2513TIP3    H229099   1.001   4.193   8.399 -1.2814 -0.3065 -1.9594
 2514TIP3   OH229100   6.778   1.242   0.624  0.0413 -0.1425  0.1502
 2514TIP3    H129101   6.793   1.213   0.714  0.0597  0.6979  0.4313
 2514TIP3    H229102   6.707   1.188   0.592  0.7642 -1.2068  0.2919
 2515TIP3   OH229103   2.587   2.265   0.970 -0.5268  0.3272  0.4641
 2515TIP3    H129104   2.572   2.288   1.062 -2.1559  0.8994  0.0934
 2515TIP3    H229105   2.670   2.307   0.949  1.4670 -2.2844  2.4339
 2516TIP3   OH229106   1.648   5.592   6.889  0.2330 -0.3193  0.4740
 2516TIP3    H129107   1.714   5.661   6.884  0.0560 -0.1876 -0.1514
 2516TIP3    H229108   1.567   5.637   6.910  0.1533 -0.3605  0.2574
 2517TIP3   OH229109   3.327   3.645   0.045  0.1783  0.1425 -0.3962
 2517TIP3    H129110   3.239   3.606   0.048  0.1695  0.2308  1.1080
 2517TIP3    H229111   3.376   3.587  -0.013 -1.1145  0.6552 -2.0881
 2518TIP3   OH229112   4.767   2.822   7.246  0.0179 -0.9506  0.7586
 2518TIP3    H129113   4.838   2.824   7.182 -0.2167 -1.5568  0.4772
 2518TIP3    H229114   4.765   2.731   7.277 -1.6757 -1.3581 -0.4158
 2519TIP3   OH229115   3.429   3.557   1.272 -0.4129 -0.0304  0.3366
 2519TIP3    H129116   3.467   3.551   1.185 -0.6042  2.0437  0.0504
 2519TIP3    H229117   3.505   3.560   1.331 -0.2812 -1.2707  0.2491
 2520TIP3   OH229118   3.032   2.762   8.555 -0.6266  0.3185 -0.4240
 2520TIP3    H129119   3.087   2.799   8.486 -0.5546  1.0877  0.0406
 2520TIP3    H229120   3.018   2.834   8.616 -2.4447  0.2441 -0.6904
 2521TIP3   OH229121   1.654   1.428   0.132  0.3952 -0.4437  0.2922
 2521TIP3    H129122   1.630   1.520   0.122  0.9763 -0.4554 -1.4055
 2521TIP3    H229123   1.749   1.427   0.129  0.4530 -1.0033  1.4692
 2522TIP3   OH229124   2.021   1.693   7.518 -0.1493 -0.3333 -0.4401
 2522TIP3    H129125   2.088   1.649   7.570 -1.9469 -0.4864  1.8971
 2522TIP3    H229126   2.054   1.690   7.428  0.8443 -4.4976 -0.1028
 2523TIP3   OH229127   3.908   2.048   8.216  0.1747  0.4616 -0.0054
 2523TIP3    H129128   3.870   2.100   8.286 -3.1003 -1.0299 -0.4797
 2523TIP3    H229129   3.832   2.013   8.168  2.1493 -2.8305 -1.0732
 2524TIP3   OH229130   1.246   2.960   1.195  0.0607 -0.6298  0.5558
 2524TIP3    H129131   1.324   3.012   1.211  0.0086 -0.0051 -1.0340
 2524TIP3    H229132   1.197   3.010   1.130 -0.2750 -2.3667 -0.5957
 2525TIP3   OH229133   5.608   4.663   7.268  0.2062  0.4219  0.2151
 2525TIP3    H129134   5.679   4.717   7.303  1.1540  0.4811 -1.7110
 2525TIP3    H229135   5.586   4.703   7.184 -0.8067 -0.7304 -0.1020
 2526TIP3   OH229136   2.710   2.377   0.691 -0.0709  0.4594  0.3843
 2526TIP3    H129137   2.756   2.433   0.629  0.8740 -0.1596  0.5048
 2526TIP3    H229138   2.752   2.395   0.775 -0.4494  0.3211  0.6060
 2527TIP3   OH229139   4.872   5.289   7.949  0.1215  0.7039 -0.1253
 2527TIP3    H129140   4.874   5.193   7.941 -0.6964  0.7466 -1.1512
 2527TIP3    H229141   4.851   5.305   8.041  0.0395 -0.1066  0.0105
 2528TIP3   OH229142   4.228   6.101   6.652  0.2820  0.3706 -0.2620
 2528TIP3    H129143   4.212   6.155   6.730 -2.4723  1.0342 -1.1846
 2528TIP3    H229144   4.183   6.019   6.670  0.7181  0.0355 -0.6708
 2529TIP3   OH229145   6.105   2.594   8.389  0.4551  0.2154 -0.0184
 2529TIP3    H129146   6.038   2.659   8.413  1.3821  1.1737  0.0587
 2529TIP3    H229147   6.137   2.561   8.473  0.6419  0.3576 -0.0325
 2530TIP3   OH229148   1.337   1.778   0.530  0.2875  0.3924 -0.7732
 2530TIP3    H129149   1.346   1.849   0.594 -0.9066  0.4433 -0.6261
 2530TIP3    H229150   1.328   1.823   0.446 -0.7825  0.4556 -0.6438
 2531TIP3   OH229151   1.368   3.224   7.522 -0.5472  0.3245 -0.3214
 2531TIP3    H129152   1.342   3.137   7.553  1.5396  0.4272  1.9420
 2531TIP3    H229153   1.439   3.207   7.460  0.0132  0.3913  0.2900
 2532TIP3   OH229154   1.452   4.212   8.122  1.0652 -0.2330  0.0959
 2532TIP3    H129155   1.451   4.151   8.196 -0.6836 -0.2877  0.0716
 2532TIP3    H229156   1.454   4.299   8.162  2.3111 -0.2692  0.1488
 2533TIP3   OH229157   2.371   2.850   7.384  0.1094  0.1388  0.0163
 2533TIP3    H129158   2.423   2.812   7.454 -1.7815 -0.8743  0.9557
 2533TIP3    H229159   2.350   2.776   7.327 -0.7047  0.4134 -0.0576
 2534TIP3   OH229160   3.134   1.089   0.338 -0.2750  0.4297 -0.2653
 2534TIP3    H129161   3.122   1.003   0.299  0.7219 -0.0386  0.4481
 2534TIP3    H229162   3.195   1.134   0.279 -0.9011  0.7276 -0.7137
 2535TIP3   OH229163   0.116   3.401   1.084  0.3103  0.1205  1.0956
 2535TIP3    H129164   0.050   3.332   1.090  1.1183 -0.6225  1.7212
 2535TIP3    H229165   0.086   3.457   1.012 -0.7867 -0.4143  1.1114
 2536TIP3   OH229166   2.797   0.833   0.747 -0.0581  0.2420 -0.3644
 2536TIP3    H129167   2.738   0.758   0.743 -2.0862  1.7765 -1.1499
 2536TIP3    H229168   2.785   0.868   0.835 -0.0245  0.3253 -0.3929
 2537TIP3   OH229169   3.973   3.939   6.420  0.3624  0.2255 -0.3547
 2537TIP3    H129170   4.020   3.863   6.455  0.2761  0.8280  1.1209
 2537TIP3    H229171   3.923   3.972   6.494  0.4336  1.7566 -0.9712
 2538TIP3   OH229172   4.244   3.558   1.393 -0.4812 -0.0942  0.2553
 2538TIP3    H129173   4.236   3.618   1.318  1.5880 -0.4070 -0.2838
 2538TIP3    H229174   4.232   3.471   1.354 -1.6466 -0.1617  0.7197
 2539TIP3   OH229175   6.672   6.454   7.584  0.0196 -0.1633  0.1800
 2539TIP3    H129176   6.743   6.473   7.645  0.4921 -0.1362 -0.3657
 2539TIP3    H229177   6.618   6.533   7.585 -0.5158 -0.5186  1.2654
 2540TIP3   OH229178   5.302   5.583   8.423 -0.2284 -0.3892  0.2759
 2540TIP3    H129179   5.383   5.547   8.461  0.2828  1.1377  0.7256
 2540TIP3    H229180   5.332   5.648   8.360 -1.1133 -1.5560 -1.4102
 2541TIP3   OH229181   5.788   0.635   8.844  0.4410  0.3859 -0.0207
 2541TIP3    H129182   5.796   0.540   8.848  0.2080  0.3948  0.7913
 2541TIP3    H229183   5.858   0.662   8.785 -1.0155 -0.4767 -2.2972
 2542TIP3   OH229184   5.593   1.280   8.038 -0.6368 -0.1657  0.5465
 2542TIP3    H129185   5.518   1.225   8.062 -0.4701 -0.9662 -0.6758
 2542TIP3    H229186   5.559   1.339   7.971 -0.1397 -0.6739 -0.1699
 2543TIP3   OH229187   0.482   2.917   7.087 -0.3198  0.5414  0.4770
 2543TIP3    H129188   0.514   2.997   7.128  0.0320  0.2508  0.7675
 2543TIP3    H229189   0.526   2.913   7.003 -0.0222  0.4362  0.6383
 2544TIP3   OH229190   4.460   2.504   0.658 -0.2645  0.4621  0.3176
 2544TIP3    H129191   4.496   2.545   0.580 -0.2247  1.4522  0.8407
 2544TIP3    H229192   4.537   2.469   0.704 -0.4768 -2.4007 -1.2921
 2545TIP3   OH229193   2.938   3.345   0.891  0.2260 -0.2541  0.3098
 2545TIP3    H129194   2.859   3.304   0.856  0.4682  0.6151 -1.3121
 2545TIP3    H229195   3.003   3.336   0.821  1.2266  0.0565  1.1766
 2546TIP3   OH229196   3.897   1.831   7.308 -0.5142  0.3327  0.2618
 2546TIP3    H129197   3.839   1.866   7.241 -0.1626 -1.1718 -0.9001
 2546TIP3    H229198   3.960   1.778   7.259  1.3114  1.1963  1.5558
 2547TIP3   OH229199   6.765   0.937   8.231 -0.3055 -0.3199  0.1041
 2547TIP3    H129200   6.850   0.924   8.188  0.9457  1.7398  1.7754
 2547TIP3    H229201   6.778   0.905   8.320 -1.0765  0.5874  0.5536
 2548TIP3   OH229202   6.105   4.191   0.671 -0.1190 -0.3417  0.5015
 2548TIP3    H129203   6.185   4.227   0.708  0.6106 -0.7512 -0.6226
 2548TIP3    H229204   6.037   4.254   0.695  0.9650  1.3535 -0.6435
 2549TIP3   OH229205   2.092   0.147   0.580 -0.5908  0.4091 -0.1811
 2549TIP3    H129206   2.140   0.221   0.544 -1.7657  2.2942  1.8758
 2549TIP3    H229207   2.003   0.157   0.546 -0.5529 -0.5829 -0.5921
 2550TIP3   OH229208   2.586   0.052   7.431 -0.2958 -0.4144 -0.6644
 2550TIP3    H129209   2.624  -0.020   7.482 -2.4687 -2.6480 -1.9715
 2550TIP3    H229210   2.635   0.051   7.349 -0.7768 -0.9351 -0.9581
 2551TIP3   OH229211   5.483   5.469   1.023 -0.6295 -0.4493  0.1737
 2551TIP3    H129212   5.545   5.410   1.066 -1.7984 -0.3812  2.0545
 2551TIP3    H229213   5.406   5.468   1.080 -1.2765  1.6882 -0.5928
 2552TIP3   OH229214   4.657   2.770   8.346 -0.1212 -0.0150  0.1358
 2552TIP3    H129215   4.671   2.785   8.440 -1.6058  0.4244  0.3175
 2552TIP3    H229216   4.737   2.726   8.317  1.1498  1.4254  1.2152
 2553TIP3   OH229217   5.351   2.180   1.800  0.0741 -0.1192  0.0981
 2553TIP3    H129218   5.332   2.095   1.840  1.2022  0.1337  1.2145
 2553TIP3    H229219   5.278   2.235   1.828  0.0315 -0.3631  0.4734
 2554TIP3   OH229220   5.245   5.598   8.016 -0.3848 -1.6743 -0.6415
 2554TIP3    H129221   5.232   5.575   8.109  2.9871 -0.6090  0.2231
 2554TIP3    H229222   5.163   5.641   7.991 -0.6043  0.0722  2.5361
 2555TIP3   OH229223   3.000   4.062   7.768  0.0022  0.2535  0.1060
 2555TIP3    H129224   3.069   4.007   7.806 -0.2654 -0.9762 -1.0827
 2555TIP3    H229225   3.009   4.050   7.673 -1.0404  1.0701 -0.1197
 2556TIP3   OH229226   6.769   4.548   1.877  0.2760 -0.1224  0.6357
 2556TIP3    H129227   6.797   4.640   1.880  0.6525 -0.2413  0.8824
 2556TIP3    H229228   6.675   4.552   1.862  0.3860  0.2944  0.0125
 2557TIP3   OH229229   5.608   1.449   1.220 -0.0085  0.0243  0.3105
 2557TIP3    H129230   5.636   1.493   1.300  0.3063 -1.3251  0.9644
 2557TIP3    H229231   5.688   1.418   1.180 -0.3122 -1.1306  0.5708
 2558TIP3   OH229232   3.833   2.379   0.162  0.9312  0.1013 -0.5712
 2558TIP3    H129233   3.890   2.326   0.218  2.5720  2.9148  0.6212
 2558TIP3    H229234   3.841   2.340   0.075  1.5706 -1.8989  0.3261
 2559TIP3   OH229235   1.473   0.199   7.388  1.0206 -0.0160  0.1538
 2559TIP3    H129236   1.549   0.229   7.337 -0.4689  1.1111 -1.5239
 2559TIP3    H229237   1.431   0.135   7.332  0.3199 -0.0881  0.7499
 2560TIP3   OH229238   0.302   2.596   7.055 -0.1975 -0.0454  0.0677
 2560TIP3    H129239   0.225   2.546   7.083 -0.3948 -0.4784 -1.1560
 2560TIP3    H229240   0.265   2.671   7.007  0.1098 -0.6765 -1.2187
 2561TIP3   OH229241   3.843   4.525   8.804  0.2465  0.5099 -0.3383
 2561TIP3    H129242   3.755   4.535   8.766 -0.0743 -0.9423 -0.0287
 2561TIP3    H229243   3.876   4.444   8.766  1.2110  0.7048  0.0615
 2562TIP3   OH229244   0.282   0.923   0.886 -0.0418 -0.4510  0.2857
 2562TIP3    H129245   0.321   0.862   0.823 -0.7364  0.6205 -1.2803
 2562TIP3    H229246   0.195   0.888   0.903  0.3284 -1.0076  1.0557
 2563TIP3   OH229247   0.316   1.877   6.822  0.2394  0.5067 -0.5506
 2563TIP3    H129248   0.358   1.857   6.738 -0.2919 -0.9560 -0.4944
 2563TIP3    H229249   0.388   1.889   6.883  0.6790  2.7021 -1.4004
 2564TIP3   OH229250   5.845   1.809   1.664  0.1462 -0.1462  0.1885
 2564TIP3    H129251   5.885   1.806   1.751  0.2481 -2.2060  0.1195
 2564TIP3    H229252   5.846   1.902   1.641 -0.4458  0.5402  2.6178
 2565TIP3   OH229253   4.482   0.088   7.924  0.6691  0.3831 -0.0832
 2565TIP3    H129254   4.524   0.049   7.847  1.5747 -2.2729  1.6581
 2565TIP3    H229255   4.554   0.122   7.976  0.1760  0.7431  0.3771
 2566TIP3   OH229256   5.743   6.305   0.282  0.3252  0.0081  0.2306
 2566TIP3    H129257   5.767   6.212   0.280  1.9632  0.2481  3.1453
 2566TIP3    H229258   5.721   6.321   0.374 -2.6693  1.9395 -0.6697
 2567TIP3   OH229259   1.858   6.714   0.913 -0.4760  0.2299  0.4251
 2567TIP3    H129260   1.886   6.640   0.968 -1.4320  0.3818  1.1445
 2567TIP3    H229261   1.807   6.673   0.844 -0.1972  0.1405  0.2676
 2568TIP3   OH229262   0.699   1.454   7.706 -0.0333 -0.0682 -0.1447
 2568TIP3    H129263   0.624   1.464   7.646 -0.6785 -1.6510  0.3378
 2568TIP3    H229264   0.773   1.438   7.648  0.0375  1.8239 -0.6467
 2569TIP3   OH229265   5.853   0.968   6.991 -0.1179 -0.0482 -0.0662
 2569TIP3    H129266   5.843   0.897   7.055  1.3488 -1.2446 -1.0686
 2569TIP3    H229267   5.884   0.923   6.911 -1.5333  1.4310 -1.5056
 2570TIP3   OH229268   4.848   5.316   1.204 -0.0253  0.0809  0.3641
 2570TIP3    H129269   4.770   5.361   1.236 -0.3167 -0.2071  0.0594
 2570TIP3    H229270   4.845   5.230   1.247 -1.0573 -0.7714 -1.3208
 2571TIP3   OH229271   4.973   3.107   8.429  0.1281 -0.1353  0.7442
 2571TIP3    H129272   4.892   3.068   8.396  0.3638 -0.1840  0.2190
 2571TIP3    H229273   4.996   3.054   8.505  1.0812 -1.8135 -0.6353
 2572TIP3   OH229274   1.108   2.021   8.528  0.1782 -1.2047 -0.2838
 2572TIP3    H129275   1.056   2.004   8.450 -0.7038  1.0417 -0.2509
 2572TIP3    H229276   1.045   2.048   8.595  1.1409 -0.7733  0.4902
 2573TIP3   OH229277   0.394   4.159   8.037 -0.8065 -0.2726  0.3669
 2573TIP3    H129278   0.302   4.185   8.034 -0.5289  0.7760  0.5731
 2573TIP3    H229279   0.428   4.201   8.116 -0.4683 -1.7869  1.0656
 2574TIP3   OH229280   4.602   6.489   7.327 -0.0193 -0.3903 -0.4461
 2574TIP3    H129281   4.572   6.577   7.347 -1.4342 -0.4134 -2.2221
 2574TIP3    H229282   4.688   6.483   7.369  0.5804  2.1890 -1.1211
 2575TIP3   OH229283   1.071   0.009   0.261  0.2328  0.0717 -0.1449
 2575TIP3    H129284   1.111  -0.001   0.348 -0.4967  3.0910  0.6690
 2575TIP3    H229285   0.989  -0.038   0.266 -0.0390  0.6284  1.0334
 2576TIP3   OH229286   5.867   4.438   1.384  0.3620  0.2628 -0.1837
 2576TIP3    H129287   5.887   4.448   1.290 -0.4479 -0.3070 -0.4296
 2576TIP3    H229288   5.952   4.421   1.424  1.0570  2.7020 -0.4664
 2577TIP3   OH229289   0.925   2.974   7.537  0.2858  0.2274  0.3418
 2577TIP3    H129290   0.922   2.880   7.553 -0.2297 -0.2341 -2.0581
 2577TIP3    H229291   0.833   3.003   7.544  0.2269  0.2443 -0.4284
 2578TIP3   OH229292   1.709   2.508   8.564 -0.2689 -0.0221  0.2204
 2578TIP3    H129293   1.641   2.495   8.498 -0.7702  2.3511  0.1832
 2578TIP3    H229294   1.666   2.558   8.633  1.2300  0.8908  0.5426
 2579TIP3   OH229295   4.620   4.134   8.644  0.0636  0.3121 -1.3371
 2579TIP3    H129296   4.534   4.136   8.687 -0.0397  2.3201 -1.5578
 2579TIP3    H229297   4.672   4.200   8.690  1.7159 -1.2412 -0.8409
 2580TIP3   OH229298   5.500   0.510   7.032  0.4716  0.1103 -0.0055
 2580TIP3    H129299   5.543   0.589   6.997 -0.2497 -0.0116 -1.2236
 2580TIP3    H229300   5.447   0.478   6.960 -0.4225 -0.6559  0.9608
 2581TIP3   OH229301   0.518   2.191   8.710 -0.2207  0.0136  0.0064
 2581TIP3    H129302   0.535   2.173   8.618  2.0493  0.8004  0.1944
 2581TIP3    H229303   0.572   2.128   8.757  1.0438  1.5502  0.7123
 2582TIP3   OH229304   5.889   4.172   8.682  0.0628 -0.0159 -0.2764
 2582TIP3    H129305   5.805   4.207   8.652  0.1184 -0.3323 -0.8038
 2582TIP3    H229306   5.911   4.105   8.618 -0.0856 -1.0766  0.7507
 2583TIP3   OH229307   6.242   6.111   8.179 -0.2801  0.0220 -0.0080
 2583TIP3    H129308   6.325   6.117   8.227  0.6392 -1.0632 -1.3852
 2583TIP3    H229309   6.267   6.078   8.093 -1.9460  1.3882 -1.0768
 2584TIP3   OH229310   1.098   0.927   0.399 -0.0014 -0.4362 -0.3434
 2584TIP3    H129311   1.123   0.890   0.483  0.8353 -0.4622 -0.5917
 2584TIP3    H229312   1.134   0.866   0.334 -2.3134 -1.4971 -0.7420
 2585TIP3   OH229313   0.089   1.906   1.122 -0.5113  0.4051  0.0184
 2585TIP3    H129314   0.018   1.956   1.161  0.1216  0.6908  0.8072
 2585TIP3    H229315   0.071   1.815   1.147 -2.2827 -0.0038 -2.3331
 2586TIP3   OH229316   5.823   0.621   6.822 -0.4838 -0.2085  0.0637
 2586TIP3    H129317   5.876   0.698   6.800 -0.3186 -0.8743 -2.2065
 2586TIP3    H229318   5.880   0.547   6.799 -0.6511 -1.0564  2.1645
 2587TIP3   OH229319   5.030   3.243   7.263 -0.5294 -0.1477 -0.0029
 2587TIP3    H129320   4.939   3.271   7.272 -0.6810 -0.5478 -0.3270
 2587TIP3    H229321   5.027   3.164   7.210 -0.0678 -0.6273  0.6584
 2588TIP3   OH229322   2.505   5.004   0.561  0.6517 -0.2637  0.6042
 2588TIP3    H129323   2.451   5.007   0.483  2.7167  0.8554 -0.8877
 2588TIP3    H229324   2.474   5.078   0.615  0.5291  0.2201 -0.1146
 2589TIP3   OH229325   5.534   3.320   0.969 -0.2416 -0.5459  0.0014
 2589TIP3    H129326   5.563   3.404   0.933 -1.6731  0.0845  0.2684
 2589TIP3    H229327   5.615   3.277   0.996  0.6587  0.0795 -1.5446
 2590TIP3   OH229328   1.308   5.763   1.991  0.1295 -0.3879 -0.0564
 2590TIP3    H129329   1.320   5.682   1.941 -0.9633 -0.4600 -0.2265
 2590TIP3    H229330   1.308   5.735   2.083  0.2155 -0.5237 -0.0980
 2591TIP3   OH229331   3.873   4.468   7.524  0.3323 -0.2611 -0.4441
 2591TIP3    H129332   3.874   4.563   7.513 -0.4749 -0.3711 -1.6723
 2591TIP3    H229333   3.963   4.441   7.507 -0.1444 -0.0566 -4.2190
 2592TIP3   OH229334   5.702   4.774   2.194  0.1382  0.2528 -0.3655
 2592TIP3    H129335   5.676   4.793   2.284 -0.4741  0.0570 -0.4976
 2592TIP3    H229336   5.654   4.695   2.171  1.3285 -0.4926 -0.4081
 2593TIP3   OH229337   5.513   0.052   8.261 -0.4509  0.1729  0.6047
 2593TIP3    H129338   5.462  -0.019   8.301 -1.2373  0.5080  0.2025
 2593TIP3    H229339   5.486   0.131   8.309 -1.7179  0.6474 -0.8290
 2594TIP3   OH229340   5.941   5.488   7.269 -0.0732 -0.3271 -0.3117
 2594TIP3    H129341   6.029   5.453   7.253  0.1428  0.5279 -1.0805
 2594TIP3    H229342   5.892   5.414   7.304  0.8284 -0.9426 -0.3036
 2595TIP3   OH229343   1.493   2.713   0.702  0.0879  0.1569  0.6090
 2595TIP3    H129344   1.399   2.705   0.681 -0.6049  0.7685  3.1900
 2595TIP3    H229345   1.501   2.799   0.742  2.0317  0.5990 -0.6198
 2596TIP3   OH229346   2.361   6.277   6.681  0.6153  0.3870 -0.5454
 2596TIP3    H129347   2.367   6.183   6.664  0.7560  0.6672 -2.2646
 2596TIP3    H229348   2.423   6.292   6.752 -1.5295 -1.2179  1.8284
 2597TIP3   OH229349   4.429   2.566   1.520  0.1914 -0.0867  0.3847
 2597TIP3    H129350   4.361   2.530   1.578  1.3558 -0.0762  1.7993
 2597TIP3    H229351   4.380   2.616   1.455 -1.5243 -3.7699 -1.4938
 2598TIP3   OH229352   5.655   3.568   0.942 -0.4233  0.1715  0.1846
 2598TIP3    H129353   5.732   3.541   0.992 -1.8818 -3.1302  0.9567
 2598TIP3    H229354   5.627   3.650   0.983  2.1539  1.0550  0.3781
 2599TIP3   OH229355   4.277   6.220   7.080  0.4157  0.2581  0.7865
 2599TIP3    H129356   4.358   6.269   7.092 -0.1643  1.2681  0.6880
 2599TIP3    H229357   4.246   6.245   6.993  0.4482 -0.8133  0.4456
 2600TIP3   OH229358   6.119   2.852   1.496  0.0386  0.8535  0.0530
 2600TIP3    H129359   6.174   2.778   1.520 -0.8339  0.8216  2.0838
 2600TIP3    H229360   6.037   2.812   1.464  0.1613  0.9329 -0.3666
 2601TIP3   OH229361   5.957   5.418   8.071 -0.1008  0.2566  0.0598
 2601TIP3    H129362   5.950   5.332   8.112  1.4991  0.9174  1.8104
 2601TIP3    H229363   6.049   5.426   8.046 -0.0110  1.8387  0.7967
 2602TIP3   OH229364   4.006   1.760   8.143  0.7404 -0.3923 -0.1345
 2602TIP3    H129365   3.962   1.814   8.208  0.1644 -1.3927  0.3413
 2602TIP3    H229366   3.937   1.705   8.106  1.1770 -0.3123 -1.1197
 2603TIP3   OH229367   1.275   0.547   8.376 -0.2179 -0.3225  0.3777
 2603TIP3    H129368   1.217   0.572   8.449 -2.0978 -0.4523 -1.0003
 2603TIP3    H229369   1.272   0.622   8.317  2.2130  0.2695  0.8694
 2604TIP3   OH229370   2.355   1.508   6.479  0.2267  0.0987  0.1460
 2604TIP3    H129371   2.276   1.454   6.489  0.4585 -0.4900 -0.9899
 2604TIP3    H229372   2.340   1.557   6.398  1.3100 -0.5098 -0.4382
 2605TIP3   OH229373   2.265   1.374   0.812 -0.1049  0.4288 -0.0463
 2605TIP3    H129374   2.341   1.318   0.795 -1.0764 -0.1893 -2.8517
 2605TIP3    H229375   2.255   1.426   0.732 -1.1975  2.2876  1.2315
 2606TIP3   OH229376   5.162   2.136   0.065  0.5909 -0.4245 -0.1221
 2606TIP3    H129377   5.205   2.111   0.147 -0.5560 -0.7634  0.4030
 2606TIP3    H229378   5.076   2.093   0.069 -0.1994  1.0369 -0.6668
 2607TIP3   OH229379   1.476   6.518   8.744 -0.3695  0.4537  0.1091
 2607TIP3    H129380   1.554   6.505   8.689  0.0211 -0.9117  0.9332
 2607TIP3    H229381   1.429   6.434   8.739 -0.4284  0.3686  1.6867
 2608TIP3   OH229382   2.468   6.157   8.334 -0.0627 -0.2261  0.3394
 2608TIP3    H129383   2.378   6.141   8.305  0.3708 -2.2382 -0.0458
 2608TIP3    H229384   2.461   6.177   8.427 -1.0024  0.8472  0.0488
 2609TIP3   OH229385   4.741   1.359   7.529 -0.0540 -0.2236 -0.0390
 2609TIP3    H129386   4.798   1.329   7.600 -1.0004  2.9786  2.3225
 2609TIP3    H229387   4.800   1.371   7.455  1.2311 -2.3769  0.5517
 2610TIP3   OH229388   1.857   0.434   8.098  0.2791 -0.7392 -0.4073
 2610TIP3    H129389   1.908   0.499   8.148 -2.3665  1.2717 -0.0693
 2610TIP3    H229390   1.892   0.440   8.009 -0.5239  2.0494 -0.6422
 2611TIP3   OH229391   2.930   3.834   1.513 -0.0037  0.7837 -0.3388
 2611TIP3    H129392   2.865   3.900   1.489  0.5723  0.5099 -2.9866
 2611TIP3    H229393   2.904   3.756   1.464  1.8468  0.4512 -0.8770
 2612TIP3   OH229394   0.897   6.486   1.273  0.1243  0.1433 -0.0937
 2612TIP3    H129395   0.932   6.435   1.200  1.0928 -0.5689  0.8537
 2612TIP3    H229396   0.971   6.539   1.303  0.4867 -1.4376  1.9870
 2613TIP3   OH229397   3.806   1.001   1.667 -0.6763 -0.1308 -0.3021
 2613TIP3    H129398   3.820   0.972   1.577  0.0303  0.6945 -0.4719
 2613TIP3    H229399   3.716   1.036   1.667  0.0700  1.9922 -1.3182
 2614TIP3   OH229400   3.209   1.259   1.889 -0.3205  0.2778 -0.6722
 2614TIP3    H129401   3.253   1.344   1.894 -0.1552  0.1504  0.0112
 2614TIP3    H229402   3.270   1.197   1.927 -1.1657  0.1355  0.4921
 2615TIP3   OH229403   0.008   1.762   1.431 -0.2492  0.8092 -0.1992
 2615TIP3    H129404   0.018   1.706   1.354  1.1751  0.4683  0.2092
 2615TIP3    H229405   0.096   1.796   1.449 -0.0212 -0.9123  2.5922
 2616TIP3   OH229406   3.445   5.844   8.239 -0.1420  0.0927 -0.3974
 2616TIP3    H129407   3.382   5.846   8.311  0.5831 -1.3574  0.3362
 2616TIP3    H229408   3.392   5.840   8.160 -0.9528  1.2563  0.0625
 2617TIP3   OH229409   5.797   2.339   1.460  0.0267 -0.5640  0.2324
 2617TIP3    H129410   5.853   2.366   1.388 -0.2793 -0.2641  0.0998
 2617TIP3    H229411   5.854   2.290   1.519  0.3800 -0.4216  0.0079
 2618TIP3   OH229412   0.746   3.122   8.197 -0.2103  0.1232 -0.7987
 2618TIP3    H129413   0.693   3.043   8.211 -0.4243  0.0818 -1.7640
 2618TIP3    H229414   0.815   3.094   8.137  0.6100  0.3100  0.0298
 2619TIP3   OH229415   3.551   4.129   1.732 -0.4828 -0.1344  0.2029
 2619TIP3    H129416   3.523   4.067   1.799  0.2946 -0.4286  0.2671
 2619TIP3    H229417   3.569   4.209   1.780  0.8704 -0.5863  0.4785
 2620TIP3   OH229418   6.543   1.170   6.392 -0.2295  0.5452  0.5006
 2620TIP3    H129419   6.533   1.261   6.364  0.6805  0.2424 -0.9567
 2620TIP3    H229420   6.454   1.140   6.411 -0.5844  1.5983  0.5485
 2621TIP3   OH229421   5.648   6.078   8.725  0.0791  0.0511  0.2760
 2621TIP3    H129422   5.653   6.053   8.633 -1.6247  1.6266 -0.3125
 2621TIP3    H229423   5.738   6.071   8.757  0.6096 -1.0973 -1.3194
 2622TIP3   OH229424   4.997   0.586   1.306 -0.1377  0.0934  0.0962
 2622TIP3    H129425   4.978   0.577   1.399 -0.9225  0.8570  0.0247
 2622TIP3    H229426   5.088   0.616   1.302  0.6638 -2.0531  0.5130
 2623TIP3   OH229427   3.240   0.858   1.782 -0.9797 -0.4919  0.6163
 2623TIP3    H129428   3.301   0.836   1.852 -0.1204 -0.4027 -0.0820
 2623TIP3    H229429   3.267   0.946   1.754 -1.3807 -0.4834  0.2450
 2624TIP3   OH229430   2.078   0.858   1.887 -0.4934 -0.0794  0.4832
 2624TIP3    H129431   2.136   0.883   1.959  0.2737  1.9912 -0.7849
 2624TIP3    H229432   2.134   0.861   1.809 -2.1456  1.4488 -0.7038
 2625TIP3   OH229433   5.789   3.266   7.150  0.0700 -0.0582  0.1493
 2625TIP3    H129434   5.749   3.331   7.091  0.0641  0.1384  0.3678
 2625TIP3    H229435   5.807   3.191   7.094 -0.5512 -0.1284  0.0317
 2626TIP3   OH229436   6.273   2.695   7.544  0.1535  0.6701  0.2652
 2626TIP3    H129437   6.281   2.786   7.518 -0.1859  0.1765 -1.7451
 2626TIP3    H229438   6.197   2.663   7.496  0.2951 -0.6900  0.8908
 2627TIP3   OH229439   1.966   3.989   8.357  0.2234 -0.3370  0.7018
 2627TIP3    H129440   2.021   3.997   8.435  0.5096 -2.7408  0.8254
 2627TIP3    H229441   1.883   4.028   8.382  1.1843  1.4393  1.2343
 2628TIP3   OH229442   2.567   3.047   6.568 -0.0384  0.0486  0.2070
 2628TIP3    H129443   2.553   2.953   6.558 -1.0089 -0.0200  1.8117
 2628TIP3    H229444   2.643   3.066   6.513 -0.0912 -1.5818 -0.4980
 2629TIP3   OH229445   5.799   6.363   1.816 -0.3647  0.8592  0.2937
 2629TIP3    H129446   5.782   6.353   1.722 -0.7713  1.2043  0.3264
 2629TIP3    H229447   5.725   6.321   1.859 -0.0172  0.4186  0.4665
 2630TIP3   OH229448   4.092   2.556   6.988 -0.7269  0.1913  0.3510
 2630TIP3    H129449   4.038   2.511   7.054 -0.5409 -1.2227 -0.4113
 2630TIP3    H229450   4.041   2.632   6.963 -2.0535 -0.7128  0.1858
 2631TIP3   OH229451   1.523   2.900   8.060 -0.1285  0.3553 -0.2482
 2631TIP3    H129452   1.602   2.954   8.070  1.0594 -1.1165 -1.2965
 2631TIP3    H229453   1.507   2.898   7.966 -0.0536 -1.2244 -0.2509
 2632TIP3   OH229454   2.752   1.860   8.649  0.3634 -1.1938 -0.0012
 2632TIP3    H129455   2.680   1.918   8.622 -2.1893 -2.8010  2.7485
 2632TIP3    H229456   2.810   1.916   8.701 -0.5577 -0.4674  0.2789
 2633TIP3   OH229457   2.746   5.128   0.753 -0.9811  0.0103  0.2199
 2633TIP3    H129458   2.727   5.085   0.836 -1.6713 -0.0249  0.0458
 2633TIP3    H229459   2.670   5.110   0.698 -1.3555  1.5279  0.1790
 2634TIP3   OH229460   5.909   4.112   1.793 -0.0776 -0.7611  0.6919
 2634TIP3    H129461   5.964   4.181   1.832 -0.5073 -1.3632  2.4557
 2634TIP3    H229462   5.956   4.031   1.811 -0.8725 -1.1599  0.9958
 2635TIP3   OH229463   3.473   3.975   1.972  0.1822 -0.0986  0.2287
 2635TIP3    H129464   3.420   3.896   1.983 -0.0320  0.1843  1.2754
 2635TIP3    H229465   3.441   4.035   2.039  0.2444  0.9430 -0.6472
 2636TIP3   OH229466   3.254   5.557   2.169 -0.5817 -0.2794 -0.3049
 2636TIP3    H129467   3.239   5.607   2.089  1.3640 -0.9824 -1.1620
 2636TIP3    H229468   3.315   5.611   2.220 -2.7174  0.7516  1.3593
 2637TIP3   OH229469   1.480   2.329   1.806 -0.4215 -0.3354  0.2690
 2637TIP3    H129470   1.551   2.276   1.771  0.7259  0.8338  0.7360
 2637TIP3    H229471   1.418   2.337   1.733  0.3718 -0.6218 -0.4589
 2638TIP3   OH229472   6.068   3.945   6.476 -0.8364 -0.2129  0.2355
 2638TIP3    H129473   5.976   3.961   6.454 -0.9432 -0.0187  0.8190
 2638TIP3    H229474   6.078   3.850   6.467 -1.2754 -0.3216  0.8399
 2639TIP3   OH229475   3.593   2.058   0.481  0.9419  0.3835 -0.1142
 2639TIP3    H129476   3.665   2.119   0.497  0.0995  1.1652  0.7925
 2639TIP3    H229477   3.610   2.023   0.393  2.7201  0.1230  0.2990
 2640TIP3   OH229478   1.749   2.015   8.630 -0.2636 -0.0420  0.6851
 2640TIP3    H129479   1.760   1.956   8.556  0.3517  1.0013 -0.0881
 2640TIP3    H229480   1.822   1.995   8.688 -0.5733 -0.6581  0.8622
 2641TIP3   OH229481   4.059   3.880   1.651  0.2603  0.0409 -0.7517
 2641TIP3    H129482   4.099   3.794   1.634  0.5936 -0.4812  2.1172
 2641TIP3    H229483   3.985   3.861   1.710  0.6162  1.7206  0.3139
 2642TIP3   OH229484   3.030   4.101   8.775  0.1784 -0.4072 -0.4931
 2642TIP3    H129485   2.954   4.159   8.764 -0.9011 -1.9950 -1.9476
 2642TIP3    H229486   3.086   4.147   8.838 -0.9909  1.8026 -0.9508
 2643TIP3   OH229487   2.021   5.630   8.192 -0.1802 -0.1120 -0.2794
 2643TIP3    H129488   2.080   5.558   8.213 -0.0591 -0.1571 -0.7740
 2643TIP3    H229489   1.962   5.635   8.267  0.0933 -0.4322 -0.0382
 2644TIP3   OH229490   2.118   3.427   8.266  0.5194 -0.4503  0.5112
 2644TIP3    H129491   2.150   3.352   8.317  2.9610 -0.7603 -1.2775
 2644TIP3    H229492   2.165   3.502   8.301 -0.6741  0.0088  1.1882
 2645TIP3   OH229493   4.691   2.194   1.266 -0.0941 -0.3818  0.3729
 2645TIP3    H129494   4.769   2.149   1.234  1.5639 -0.7518  4.4091
 2645TIP3    H229495   4.717   2.286   1.273 -2.0683  0.7304 -3.6232
 2646TIP3   OH229496   3.764   3.000   7.679 -0.0105 -0.3379  0.1280
 2646TIP3    H129497   3.739   3.042   7.761  3.0511 -0.6873  1.3822
 2646TIP3    H229498   3.860   2.995   7.682  0.2672 -0.3394 -3.5050
 2647TIP3   OH229499   5.448   1.327   2.328 -0.3636  0.2252  0.3036
 2647TIP3    H129500   5.462   1.321   2.423  1.2123  0.9321  0.1471
 2647TIP3    H229501   5.357   1.300   2.316 -0.9242  1.1171  2.1280
 2648TIP3   OH229502   1.694   0.599   8.657  0.4981  0.2307  0.1115
 2648TIP3    H129503   1.642   0.679   8.662  2.6645  1.8463 -1.0451
 2648TIP3    H229504   1.668   0.558   8.574  0.4608  0.5858 -0.0540
 2649TIP3   OH229505   3.526   5.274   8.602  0.3201  0.3407 -0.7782
 2649TIP3    H129506   3.458   5.208   8.614  0.8548  0.0911  1.2302
 2649TIP3    H229507   3.608   5.225   8.602  0.7046  0.9396  0.4526
 2650TIP3   OH229508   1.864   5.811   0.432 -0.4890  0.1235 -0.4878
 2650TIP3    H129509   1.843   5.755   0.507 -0.9317  2.6569  1.4113
 2650TIP3    H229510   1.916   5.755   0.374  0.4966 -1.7642  2.0300
 2651TIP3   OH229511   3.262   6.058   6.781  0.2336  0.1192 -0.2371
 2651TIP3    H129512   3.202   6.112   6.831  3.3201  1.6122  2.2040
 2651TIP3    H229513   3.270   5.977   6.832  0.7997  0.2266 -0.1462
 2652TIP3   OH229514   3.862   4.824   0.438  0.8584  0.7906  0.4483
 2652TIP3    H129515   3.785   4.863   0.397  0.1286 -1.4874 -0.4487
 2652TIP3    H229516   3.828   4.772   0.510  1.5768 -0.0557  0.1896
 2653TIP3   OH229517   5.197   2.081   7.093 -0.2528  0.6390  0.4096
 2653TIP3    H129518   5.176   2.162   7.045 -0.1365  1.1512  1.1992
 2653TIP3    H229519   5.155   2.012   7.042  0.7510  1.0233 -1.0231
 2654TIP3   OH229520   2.769   5.279   1.066 -0.7357  0.0872 -0.0683
 2654TIP3    H129521   2.762   5.276   1.162 -2.0794  0.5365 -0.1361
 2654TIP3    H229522   2.779   5.188   1.040  0.7435  0.0353  0.5459
 2655TIP3   OH229523   1.646   0.245   8.115  0.0017  0.2250  0.2569
 2655TIP3    H129524   1.565   0.292   8.134  0.3242  1.6749 -1.6119
 2655TIP3    H229525   1.714   0.313   8.115  0.5847 -0.2619 -1.8600
 2656TIP3   OH229526   0.696   1.856   7.179  0.3795  0.0032 -0.2108
 2656TIP3    H129527   0.657   1.830   7.262  3.1379 -1.9496  0.5885
 2656TIP3    H229528   0.736   1.776   7.145  0.3494  1.0266 -2.8802
 2657TIP3   OH229529   0.496   5.748   7.062 -1.6403  0.1852 -0.1943
 2657TIP3    H129530   0.447   5.690   7.003 -0.4053 -0.8112 -0.2633
 2657TIP3    H229531   0.482   5.711   7.149  0.2428 -1.0794 -0.3731
 2658TIP3   OH229532   0.664   6.661   7.537 -0.9616  0.0897 -0.3427
 2658TIP3    H129533   0.582   6.619   7.510  0.4248 -1.4102 -2.5732
 2658TIP3    H229534   0.706   6.597   7.594 -1.2722  0.8253  0.7355
 2659TIP3   OH229535   5.805   4.092   7.336  0.0181 -0.0002 -0.0880
 2659TIP3    H129536   5.886   4.142   7.321 -0.1385  0.0712 -0.7505
 2659TIP3    H229537   5.736   4.149   7.303 -0.1456 -0.7488 -1.0859
 2660TIP3   OH229538   2.790   6.497   1.832  0.2579 -0.1443 -0.0504
 2660TIP3    H129539   2.834   6.582   1.833  1.1143 -0.5211 -1.7867
 2660TIP3    H229540   2.757   6.488   1.743  1.2196 -2.1091 -0.2796
 2661TIP3   OH229541   3.372   1.600   7.904 -0.1388  0.3583 -0.0287
 2661TIP3    H129542   3.289   1.639   7.876 -0.5988 -1.7712 -1.9168
 2661TIP3    H229543   3.431   1.675   7.912 -1.7703  1.7545 -0.3128
 2662TIP3   OH229544   5.601   5.940   7.443  0.2505 -0.2076  0.4681
 2662TIP3    H129545   5.654   5.977   7.513 -0.0022  0.0121  0.5429
 2662TIP3    H229546   5.664   5.925   7.372  0.3734  0.2886  0.4650
 2663TIP3   OH229547   5.605   2.107   8.417 -0.6154  0.4802  0.4646
 2663TIP3    H129548   5.617   2.177   8.481  1.9726  0.8690 -0.3381
 2663TIP3    H229549   5.635   2.145   8.334 -0.0134 -1.2678 -0.1658
 2664TIP3   OH229550   3.988   3.464   8.687 -0.5327  0.6331 -0.4176
 2664TIP3    H129551   3.898   3.432   8.686 -0.2454 -0.2810  0.7721
 2664TIP3    H229552   3.987   3.543   8.633 -1.7327 -0.1827 -1.6484
 2665TIP3   OH229553   2.776   2.089   8.375 -0.0886 -0.3188  0.5338
 2665TIP3    H129554   2.772   2.072   8.470  0.9453 -1.0610  0.4630
 2665TIP3    H229555   2.693   2.053   8.341 -0.2094 -0.5795  1.0845
 2666TIP3   OH229556   1.435   1.350   1.539 -0.2023  0.0088  0.1044
 2666TIP3    H129557   1.524   1.321   1.555 -0.6098 -2.2534 -1.2750
 2666TIP3    H229558   1.412   1.313   1.454 -2.5839  0.1342  0.6050
 2667TIP3   OH229559   4.751   0.214   0.458  0.8345 -0.2478  0.5503
 2667TIP3    H129560   4.685   0.266   0.410  1.4318 -0.2735 -0.3247
 2667TIP3    H229561   4.701   0.169   0.526 -0.3855 -1.6275 -1.1657
 2668TIP3   OH229562   4.330   2.378   0.138 -0.2536 -0.7066 -0.0367
 2668TIP3    H129563   4.360   2.409   0.223  0.2332 -0.4829 -0.2903
 2668TIP3    H229564   4.249   2.427   0.122  0.1892 -0.0117 -0.1599
 2669TIP3   OH229565   5.624   1.023   6.666  0.4897  0.2672 -0.3143
 2669TIP3    H129566   5.706   1.012   6.715  0.6871  0.7015 -0.5393
 2669TIP3    H229567   5.557   0.985   6.723  0.6516  1.1241  0.4789
 2670TIP3   OH229568   0.202   1.661   7.574  0.0667 -0.0021  0.0108
 2670TIP3    H129569   0.228   1.685   7.485 -0.3331  0.8857  0.1183
 2670TIP3    H229570   0.115   1.622   7.564  0.3379 -0.5893 -0.0673
 2671TIP3   OH229571   0.505   4.486   7.977 -0.8298 -0.3926  0.2060
 2671TIP3    H129572   0.563   4.417   8.007 -1.1362 -0.1340  1.4417
 2671TIP3    H229573   0.448   4.504   8.052 -2.3899 -0.5252 -0.8999
 2672TIP3   OH229574   1.103   1.397   0.269  0.3024  0.2445  0.1325
 2672TIP3    H129575   1.055   1.459   0.324  0.1316  0.9368 -0.7652
 2672TIP3    H229576   1.128   1.326   0.328  0.2783  1.0457  1.1340
 2673TIP3   OH229577   5.583   6.104   7.803  0.2490  0.3453  0.1115
 2673TIP3    H129578   5.616   6.046   7.871  1.0401  1.5541  0.7813
 2673TIP3    H229579   5.661   6.137   7.758  0.0658  3.1295  1.6255
 2674TIP3   OH229580   6.327   4.071   7.793  0.1447  0.2533  0.2877
 2674TIP3    H129581   6.333   3.994   7.736  2.2800  0.7215 -0.1996
 2674TIP3    H229582   6.316   4.145   7.732  2.1649  0.7249  0.4224
 2675TIP3   OH229583   2.183   3.642   1.891 -0.0563  0.2038 -0.0408
 2675TIP3    H129584   2.154   3.728   1.921 -0.4066  0.6720 -1.6352
 2675TIP3    H229585   2.143   3.581   1.953 -0.8440  1.1059  0.3687
 2676TIP3   OH229586   3.204   2.459   1.361 -0.6936 -0.5594 -1.0137
 2676TIP3    H129587   3.112   2.475   1.381 -0.2539  2.0938 -0.7654
 2676TIP3    H229588   3.203   2.426   1.271 -1.8321  0.9667 -1.6171
 2677TIP3   OH229589   5.290   1.207   6.551 -0.1354 -0.4206 -0.0024
 2677TIP3    H129590   5.340   1.206   6.469  0.6547 -0.6294  0.4635
 2677TIP3    H229591   5.225   1.138   6.540  0.8889 -1.4387  0.0744
 2678TIP3   OH229592   3.185   0.846   8.646  0.0705  0.0343 -0.0438
 2678TIP3    H129593   3.213   0.857   8.556 -0.2967 -0.6881 -0.2514
 2678TIP3    H229594   3.256   0.797   8.688  1.0337  1.7831  0.5181
 2679TIP3   OH229595   3.937   6.595   8.783  0.0911 -0.4481 -0.1027
 2679TIP3    H129596   4.025   6.574   8.814  0.4551 -0.5827 -1.1899
 2679TIP3    H229597   3.940   6.690   8.769 -0.1240 -0.3622  0.4008
 2680TIP3   OH229598   6.613   2.377   8.616  0.4335  0.4188 -0.5795
 2680TIP3    H129599   6.523   2.407   8.628  0.7899  1.0327  0.7006
 2680TIP3    H229600   6.605   2.300   8.561 -1.2410 -1.5587  2.1691
 2681TIP3   OH229601   3.578   2.459   1.732 -0.6140 -0.1042  0.3803
 2681TIP3    H129602   3.586   2.546   1.770  0.3617  0.7235 -1.5414
 2681TIP3    H229603   3.486   2.437   1.741 -0.9941  1.3966  0.4130
 2682TIP3   OH229604   2.969   1.381   2.051  0.2035 -0.2155 -0.0047
 2682TIP3    H129605   3.023   1.357   1.976  0.3764 -0.5570  0.2253
 2682TIP3    H229606   2.884   1.405   2.013  0.8118  1.3284 -0.4596
 2683TIP3   OH229607   6.445   1.193   2.263  0.3114  0.1638 -0.2833
 2683TIP3    H129608   6.434   1.113   2.313  0.4116  1.0240  1.1728
 2683TIP3    H229609   6.532   1.226   2.288 -0.3096  1.4658  0.2746
 2684TIP3   OH229610   0.535   1.216   1.462 -0.5876 -0.0925 -0.9633
 2684TIP3    H129611   0.566   1.300   1.498 -1.6718  0.1100 -0.4564
 2684TIP3    H229612   0.585   1.150   1.509  0.8695  0.2733 -1.9476
 2685TIP3   OH229613   0.429   5.289   1.705 -0.5755 -0.3597  0.4472
 2685TIP3    H129614   0.505   5.256   1.754 -0.8817 -1.6916  0.0551
 2685TIP3    H229615   0.459   5.294   1.614 -0.7769 -0.2954  0.3834
 2686TIP3   OH229616   1.016   5.050   0.424  0.5173  0.2369 -0.1027
 2686TIP3    H129617   1.092   5.104   0.404  0.1280  0.3319 -1.4007
 2686TIP3    H229618   1.053   4.969   0.460  1.1832  0.6193  0.0957
 2687TIP3   OH229619   1.820   6.162   2.411 -0.2212  0.9892  0.4961
 2687TIP3    H129620   1.814   6.257   2.413  0.0588  1.0219  3.2905
 2687TIP3    H229621   1.895   6.140   2.466 -1.0139 -0.8557  0.9551
 2688TIP3   OH229622   6.011   0.651   8.693  0.0884  0.3935  0.0979
 2688TIP3    H129623   6.071   0.710   8.739  0.3209  0.6320 -0.5003
 2688TIP3    H229624   6.056   0.631   8.611 -0.4039  0.1251 -0.1084
 2689TIP3   OH229625   0.095   5.069   6.597  0.1703 -0.4538 -0.0065
 2689TIP3    H129626   0.055   5.005   6.655 -1.1867  0.8678  0.5940
 2689TIP3    H229627   0.189   5.062   6.614  0.1442 -2.7973 -0.5679
 2690TIP3   OH229628   1.925   3.306   1.906  0.0228 -0.0189 -0.0009
 2690TIP3    H129629   1.993   3.331   1.969  0.8922 -0.9848 -0.5234
 2690TIP3    H229630   1.855   3.269   1.960  0.2727  0.1878  0.4755
 2691TIP3   OH229631   4.446   3.385   0.894 -0.0364 -0.4717  0.2853
 2691TIP3    H129632   4.506   3.319   0.928 -0.5045 -0.7418  0.6029
 2691TIP3    H229633   4.455   3.380   0.799  0.1957 -0.7421  0.3215
 2692TIP3   OH229634   4.718   4.241   1.408  0.2514 -0.0905  0.5049
 2692TIP3    H129635   4.766   4.276   1.482  1.1733 -0.2694  0.0076
 2692TIP3    H229636   4.777   4.176   1.369 -0.1819  0.0408 -0.4152
 2693TIP3   OH229637   3.419   3.308   7.750 -0.5362  0.1552 -0.3521
 2693TIP3    H129638   3.353   3.357   7.799 -0.8567 -1.6034  1.0680
 2693TIP3    H229639   3.370   3.238   7.707  0.0900  0.2645 -1.2673
 2694TIP3   OH229640   3.759   1.545   6.898 -0.3049  0.6361  0.1065
 2694TIP3    H129641   3.848   1.524   6.870 -0.4576  0.9281 -0.6034
 2694TIP3    H229642   3.704   1.479   6.855 -0.2380 -1.0319  2.3656
 2695TIP3   OH229643   3.923   6.143   8.001  0.8681 -0.3769  0.1215
 2695TIP3    H129644   3.831   6.152   7.977  1.0599 -0.3475 -0.6243
 2695TIP3    H229645   3.954   6.067   7.953  1.3707 -0.0616 -0.0676
 2696TIP3   OH229646   6.718   0.916   0.594 -0.1614  0.1951  0.5895
 2696TIP3    H129647   6.633   0.941   0.559 -0.6011  0.8222  2.0514
 2696TIP3    H229648   6.781   0.957   0.535 -0.8644  0.3818 -0.0500
 2697TIP3   OH229649   4.178   1.982   1.177  0.1008  0.1463 -0.0565
 2697TIP3    H129650   4.159   1.940   1.093  0.0988 -0.4862  0.2598
 2697TIP3    H229651   4.146   1.921   1.243  1.5778 -0.1170  0.4526
 2698TIP3   OH229652   0.069   4.150   1.303  0.5063 -0.0500  0.0296
 2698TIP3    H129653   0.068   4.245   1.293  0.8294 -0.2233 -2.2041
 2698TIP3    H229654   0.151   4.122   1.262 -0.2284 -1.3726 -0.6193
 2699TIP3   OH229655   3.646   3.447   1.423 -0.0960  0.0082  0.5621
 2699TIP3    H129656   3.720   3.507   1.434  0.6236 -0.9207  0.9597
 2699TIP3    H229657   3.663   3.376   1.485 -0.0948 -1.3938 -0.9681
 2700TIP3   OH229658   4.661   5.015   7.070  0.0351  0.3834  0.2405
 2700TIP3    H129659   4.647   5.021   6.975 -1.4432 -0.6783  0.3535
 2700TIP3    H229660   4.686   5.104   7.096 -1.2833  1.1332 -0.9021
 2701TIP3   OH229661   1.870   3.865   0.171 -0.4000 -0.0348 -0.3880
 2701TIP3    H129662   1.924   3.844   0.095  0.8909  1.0173  0.1955
 2701TIP3    H229663   1.780   3.843   0.144  0.0220  0.3418 -2.2178
 2702TIP3   OH229664   0.216   1.154   1.425 -0.0748  0.2804  0.7741
 2702TIP3    H129665   0.181   1.230   1.471  0.9872  1.0982  0.2900
 2702TIP3    H229666   0.308   1.150   1.451  0.3487  0.2867 -0.6290
 2703TIP3   OH229667   2.485   6.606   1.862 -0.3258  0.4445  0.6832
 2703TIP3    H129668   2.487   6.535   1.927 -1.2723 -0.4779 -0.2726
 2703TIP3    H229669   2.569   6.651   1.875  0.8970 -1.6161  0.4838
 2704TIP3   OH229670   0.587   3.794   1.105 -0.5868 -0.2526  0.0663
 2704TIP3    H129671   0.582   3.779   1.199 -2.8186 -0.1996  0.0065
 2704TIP3    H229672   0.671   3.836   1.091  0.4731 -1.6703  1.8208
 2705TIP3   OH229673   5.052   2.803   1.585  0.6499  0.9460  0.4002
 2705TIP3    H129674   5.069   2.709   1.593  0.7950  0.9805  0.5005
 2705TIP3    H229675   5.005   2.825   1.666 -1.6194  0.4739 -0.6870
 2706TIP3   OH229676   6.429   2.561   8.712  0.1873  0.0567  0.1634
 2706TIP3    H129677   6.456   2.649   8.686  0.9695  0.0331  0.8632
 2706TIP3    H229678   6.466   2.549   8.800  0.0043 -0.9254  0.1192
 2707TIP3   OH229679   6.657   5.510   7.640  0.0820  0.3218  0.2341
 2707TIP3    H129680   6.633   5.437   7.697 -1.1767  0.4310 -0.1152
 2707TIP3    H229681   6.636   5.588   7.690 -3.2662  0.4495 -1.1248
 2708TIP3   OH229682   3.192   3.814   7.281  0.0629  0.6196 -0.1578
 2708TIP3    H129683   3.133   3.738   7.278  1.7718 -0.7532 -1.1568
 2708TIP3    H229684   3.186   3.852   7.194 -0.1424  1.1372  0.0787
 2709TIP3   OH229685   6.244   3.752   0.239  0.1778  0.2703 -0.1347
 2709TIP3    H129686   6.178   3.737   0.306  0.5089  0.0009  0.1283
 2709TIP3    H229687   6.212   3.703   0.163 -0.4461  0.9771 -0.3325
 2710TIP3   OH229688   5.577   4.850   7.052  0.3982  0.5120  0.0580
 2710TIP3    H129689   5.565   4.782   6.986  0.2271  1.1210 -0.5559
 2710TIP3    H229690   5.546   4.930   7.009 -1.2282  0.6582  1.4348
 2711TIP3   OH229691   6.572   4.133   7.145  0.0107 -0.1561 -0.9287
 2711TIP3    H129692   6.500   4.128   7.207 -0.4085 -2.0205 -1.5226
 2711TIP3    H229693   6.620   4.212   7.172 -0.0230 -0.9754  1.8922
 2712TIP3   OH229694   4.874   5.402   8.339  0.2147  0.4299 -0.1315
 2712TIP3    H129695   4.949   5.365   8.386  0.0908  1.0927  0.6192
 2712TIP3    H229696   4.837   5.328   8.291  0.3180 -0.3061  0.8798
 2713TIP3   OH229697   5.565   3.976   8.381  0.1896  0.3288 -0.7258
 2713TIP3    H129698   5.490   3.985   8.440  0.1390  2.2195 -1.0172
 2713TIP3    H229699   5.533   4.008   8.296  0.9371 -0.1047 -1.1837
 2714TIP3   OH229700   2.896   3.163   8.482 -0.5653  0.0154  0.6378
 2714TIP3    H129701   2.864   3.077   8.455 -0.1394 -0.3238  1.1847
 2714TIP3    H229702   2.991   3.155   8.480 -0.1863  1.9886 -4.2902
 2715TIP3   OH229703   4.396   0.706   0.738 -0.2426 -0.4428  0.2448
 2715TIP3    H129704   4.404   0.768   0.666 -2.3305  0.3913  0.6462
 2715TIP3    H229705   4.386   0.760   0.816 -0.2291 -1.3053  0.8629
 2716TIP3   OH229706   1.500   3.721   1.675  0.1570  0.5954 -0.8392
 2716TIP3    H129707   1.522   3.632   1.649  3.5972  1.0760  0.0089
 2716TIP3    H229708   1.441   3.710   1.750  0.3340 -0.9404 -0.8977
 2717TIP3   OH229709   3.706   2.262   0.819  0.5059 -0.2846 -0.3302
 2717TIP3    H129710   3.772   2.331   0.819  0.3503 -0.1291 -1.3146
 2717TIP3    H229711   3.627   2.305   0.852  0.6002 -0.1853 -0.2317
 2718TIP3   OH229712   0.629   2.215   7.267 -0.2947 -0.2711  0.7844
 2718TIP3    H129713   0.652   2.304   7.293  0.1390  0.1786 -1.0014
 2718TIP3    H229714   0.544   2.224   7.225  0.2764 -0.4980 -0.4419
 2719TIP3   OH229715   4.515   5.324   8.285  0.2328  0.0238 -0.0813
 2719TIP3    H129716   4.498   5.418   8.279 -0.4709 -0.1962 -2.5427
 2719TIP3    H229717   4.429   5.284   8.292  0.2644 -0.5602 -2.3552
 2720TIP3   OH229718   0.226   5.497   0.504  0.2800 -0.1264 -0.1194
 2720TIP3    H129719   0.186   5.466   0.422 -0.2107  0.9005 -0.2951
 2720TIP3    H229720   0.152   5.526   0.557  0.4139 -2.4384  1.4770
 2721TIP3   OH229721   3.407   3.939   7.069 -0.0548 -0.5845  0.5785
 2721TIP3    H129722   3.391   3.847   7.090 -1.0127 -0.4102  0.6616
 2721TIP3    H229723   3.320   3.975   7.049  0.3016  0.3116  0.5799
 2722TIP3   OH229724   3.980   6.216   1.162 -0.5359  0.7923  0.3496
 2722TIP3    H129725   3.892   6.205   1.199 -1.7392  0.8033 -2.3153
 2722TIP3    H229726   4.024   6.133   1.179 -1.7305  0.0801  0.0979
 2723TIP3   OH229727   1.978   6.267   8.437 -0.9414  0.1955  0.3676
 2723TIP3    H129728   2.066   6.292   8.407 -1.5159  1.4377 -0.3897
 2723TIP3    H229729   1.987   6.256   8.531 -0.2934  1.8783  0.5357
 2724TIP3   OH229730   2.191   3.662   6.683  0.0706 -0.1618  0.6937
 2724TIP3    H129731   2.264   3.644   6.742  0.8764 -1.1292 -0.5533
 2724TIP3    H229732   2.140   3.730   6.728  3.6149  3.2145  0.0729
 2725TIP3   OH229733   3.570   2.972   7.480  0.1073 -0.3534 -0.0638
 2725TIP3    H129734   3.503   3.017   7.532  0.4682 -0.7902  0.7945
 2725TIP3    H229735   3.647   2.969   7.538 -0.0418 -2.4541  0.0844
 2726TIP3   OH229736   0.029   6.073   1.368  0.2452 -0.6900  0.3478
 2726TIP3    H129737   0.067   6.024   1.295 -1.8565 -0.3790 -1.0426
 2726TIP3    H229738   0.053   6.022   1.445  1.3558 -1.7979 -0.6649
 2727TIP3   OH229739   4.152   1.245   1.783  0.1812 -0.0253  0.0661
 2727TIP3    H129740   4.086   1.306   1.750 -0.9092 -1.0617  0.2377
 2727TIP3    H229741   4.112   1.207   1.861 -0.9172 -3.7832 -2.0824
 2728TIP3   OH229742   3.325   5.356   8.217 -1.1567 -0.2167  0.2579
 2728TIP3    H129743   3.305   5.435   8.268  0.8878 -0.3942  1.4275
 2728TIP3    H229744   3.411   5.328   8.248 -0.3500 -1.0579 -2.4432
 2729TIP3   OH229745   1.556   2.641   7.483 -0.1261  0.3553  0.4198
 2729TIP3    H129746   1.537   2.686   7.401  1.0750 -0.8623 -0.5856
 2729TIP3    H229747   1.474   2.597   7.507 -0.4515  0.6229 -0.2016
 2730TIP3   OH229748   6.312   2.599   1.820 -0.2180  0.2908  0.4848
 2730TIP3    H129749   6.334   2.598   1.727  0.3091 -2.2335  0.5608
 2730TIP3    H229750   6.373   2.661   1.859  2.4023 -1.6356 -0.3061
 2731TIP3   OH229751   6.547   4.491   0.473  0.2735  0.3843 -0.5956
 2731TIP3    H129752   6.621   4.523   0.524  0.3829  0.1558 -0.6137
 2731TIP3    H229753   6.470   4.510   0.527  0.4877 -1.0392  0.2439
 2732TIP3   OH229754   3.852   3.225   6.982 -0.2497 -0.0225 -0.4405
 2732TIP3    H129755   3.813   3.313   6.979 -1.6334 -0.6058 -0.5062
 2732TIP3    H229756   3.932   3.236   7.033  0.6102  1.6373 -2.0411
 2733TIP3   OH229757   4.575   1.501   1.676 -0.1061  0.1303 -0.0619
 2733TIP3    H129758   4.547   1.427   1.731 -0.0486  1.2098  1.4956
 2733TIP3    H229759   4.497   1.555   1.667  0.5746  1.4754  1.5283
 2734TIP3   OH229760   3.767   6.751   6.660 -0.4177  0.0904 -0.2534
 2734TIP3    H129761   3.682   6.744   6.705  0.1480 -1.2179  0.6583
 2734TIP3    H229762   3.796   6.661   6.649 -0.4695  0.3449 -3.2119
 2735TIP3   OH229763   1.524   4.845   8.363 -0.1905  0.0084  0.2374
 2735TIP3    H129764   1.527   4.928   8.410  0.3495  0.4906 -0.6407
 2735TIP3    H229765   1.614   4.828   8.338 -0.0167 -1.6505  1.7602
 2736TIP3   OH229766   3.186   1.251   7.567  0.1018 -0.4001 -0.6952
 2736TIP3    H129767   3.243   1.281   7.638  0.3517  0.4770 -1.2478
 2736TIP3    H229768   3.098   1.251   7.604  0.4638 -2.0711  0.2691
 2737TIP3   OH229769   6.710   1.799   0.019  0.6907  0.0249  0.0416
 2737TIP3    H129770   6.670   1.788  -0.067  0.3198  1.3012  0.0261
 2737TIP3    H229771   6.804   1.793   0.004  0.6831  1.2886 -0.6454
 2738TIP3   OH229772   5.891   5.578   2.184 -0.0765  0.1760  0.3358
 2738TIP3    H129773   5.964   5.609   2.237  0.3320 -0.2556  0.0328
 2738TIP3    H229774   5.834   5.531   2.245  0.5204 -0.5422  0.3475
 2739TIP3   OH229775   3.591   3.897   1.593 -0.0992  0.2497  0.1892
 2739TIP3    H129776   3.559   3.895   1.502 -1.4487 -0.1138  0.6427
 2739TIP3    H229777   3.584   3.989   1.618 -0.7887  0.1862  0.2621
 2740TIP3   OH229778   0.809   3.678   8.683  0.2176 -0.0667  0.2098
 2740TIP3    H129779   0.747   3.727   8.738  0.6793 -0.8246  1.4551
 2740TIP3    H229780   0.755   3.616   8.635 -0.3759  1.5830 -1.3692
 2741TIP3   OH229781   4.536   1.312   8.806  0.6035 -0.5002 -0.7056
 2741TIP3    H129782   4.575   1.288   8.890 -0.4113  1.3749  0.3576
 2741TIP3    H229783   4.517   1.405   8.814 -1.0731 -0.6403 -2.4058
 2742TIP3   OH229784   4.972   2.395   1.098  0.4055  0.0216 -0.0418
 2742TIP3    H129785   4.923   2.447   1.163 -0.5660  0.3141 -0.9883
 2742TIP3    H229786   5.056   2.441   1.091 -0.2952  1.2838 -0.5796
 2743TIP3   OH229787   4.029   3.946   6.133 -0.3686 -0.4617 -0.2199
 2743TIP3    H129788   4.004   3.927   6.223 -1.2205  0.2344 -0.2944
 2743TIP3    H229789   4.124   3.955   6.135 -0.4868  0.8231  0.8676
 2744TIP3   OH229790   1.753   1.004   2.077  0.3333  0.2844 -0.5771
 2744TIP3    H129791   1.791   1.076   2.127  0.2061  0.9954 -1.4650
 2744TIP3    H229792   1.794   1.011   1.991  1.0887 -1.3517 -0.3830
 2745TIP3   OH229793   6.548   6.258   1.255  0.2875  0.4400  0.4419
 2745TIP3    H129794   6.549   6.266   1.160  0.7258 -2.2857  0.1305
 2745TIP3    H229795   6.640   6.246   1.279  0.0474 -0.3790  1.0139
 2746TIP3   OH229796   2.814   3.491   8.652 -1.1032 -0.2839 -0.4548
 2746TIP3    H129797   2.761   3.412   8.663 -2.3066  0.4875 -0.5931
 2746TIP3    H229798   2.763   3.560   8.693 -0.7120  0.6892 -1.5745
 2747TIP3   OH229799   4.612   5.906   0.888 -0.0389 -0.0423 -0.1982
 2747TIP3    H129800   4.587   5.978   0.829 -1.7799  0.7010  1.3320
 2747TIP3    H229801   4.552   5.915   0.962  2.1898 -0.7847  1.8099
 2748TIP3   OH229802   1.505   5.161   0.815 -0.1313  0.4265  0.0510
 2748TIP3    H129803   1.441   5.205   0.872 -2.9622 -1.5447 -1.4031
 2748TIP3    H229804   1.491   5.200   0.729 -1.1053 -1.6622 -0.7832
 2749TIP3   OH229805   2.114   5.185   8.313  0.3190  0.2010 -0.6327
 2749TIP3    H129806   2.063   5.130   8.372  2.3220 -0.6284  0.4130
 2749TIP3    H229807   2.099   5.149   8.226 -0.7703 -0.0739 -0.3396
 2750TIP3   OH229808   0.625   4.166   0.352 -0.4981  0.1052 -0.5522
 2750TIP3    H129809   0.635   4.084   0.400  0.3575  1.1684  1.1968
 2750TIP3    H229810   0.531   4.184   0.356 -0.7118 -0.8416 -1.0757
 2751TIP3   OH229811   4.752   3.660   2.198 -0.0425 -0.1118  0.3857
 2751TIP3    H129812   4.792   3.650   2.285 -1.2033 -1.6753  0.7767
 2751TIP3    H229813   4.717   3.749   2.199  2.9942  1.2179  0.1545
 2752TIP3   OH229814   2.603   3.759   7.833 -0.1119 -0.2051  0.5715
 2752TIP3    H129815   2.674   3.717   7.785 -0.8774 -2.1018  0.9944
 2752TIP3    H229816   2.523   3.723   7.795 -0.9314  2.3482 -0.3126
 2753TIP3   OH229817   5.790   6.588   7.932  0.0798  0.5718 -0.5980
 2753TIP3    H129818   5.867   6.554   7.978  0.3382 -0.1149 -1.5280
 2753TIP3    H229819   5.826   6.636   7.857 -0.4026 -0.3977 -1.4733
 2754TIP3   OH229820   2.951   0.949   7.079 -0.4779 -0.2098 -0.2356
 2754TIP3    H129821   2.988   0.930   6.993 -0.0120 -0.1462 -0.0495
 2754TIP3    H229822   3.017   0.919   7.142 -0.4973  0.3906  0.0873
 2755TIP3   OH229823   5.286   6.251   0.896  0.1456  0.6878  0.6615
 2755TIP3    H129824   5.291   6.346   0.906  1.4569  0.8795 -1.2495
 2755TIP3    H229825   5.371   6.219   0.927  0.1374  0.2705  0.2755
 2756TIP3   OH229826   1.062   1.483   6.838  0.4457  0.4057  0.4132
 2756TIP3    H129827   0.983   1.533   6.819  0.0069 -0.1897  0.6293
 2756TIP3    H229828   1.088   1.447   6.753 -1.4997 -2.2333  0.8063
 2757TIP3   OH229829   4.132   0.325   0.932  0.3935 -0.5014  0.0540
 2757TIP3    H129830   4.085   0.248   0.900  2.0275 -1.6624  0.3186
 2757TIP3    H229831   4.173   0.362   0.854 -0.4020  0.1344 -0.0751
 2758TIP3   OH229832   0.599   3.887   8.760  0.3137 -0.1415 -0.0811
 2758TIP3    H129833   0.508   3.906   8.736  0.2500 -1.3047 -0.8615
 2758TIP3    H229834   0.646   3.968   8.741 -0.6843  0.8063  1.2207
 2759TIP3   OH229835   4.530   0.680   7.132 -0.0659  1.2174 -0.1618
 2759TIP3    H129836   4.623   0.675   7.154  0.0143  0.6109 -0.6046
 2759TIP3    H229837   4.488   0.717   7.210  0.2546 -0.4883  0.8596
 2760TIP3   OH229838   5.619   4.861   0.892  0.0633 -0.0895 -0.9716
 2760TIP3    H129839   5.576   4.864   0.807  1.7539  1.0753 -1.8546
 2760TIP3    H229840   5.701   4.815   0.876  0.4296  0.1936  0.0079
 2761TIP3   OH229841   5.332   5.111   1.343  0.1833  0.2469 -0.2870
 2761TIP3    H129842   5.333   5.134   1.250  3.4430 -1.4771 -0.8196
 2761TIP3    H229843   5.339   5.015   1.343 -0.0462  0.1933  1.7597
 2762TIP3   OH229844   2.177   4.440   7.456 -0.2463 -0.3943 -0.3080
 2762TIP3    H129845   2.190   4.419   7.364 -0.4890  0.2384 -0.4894
 2762TIP3    H229846   2.195   4.534   7.463 -1.9468 -0.0577 -0.0566
 2763TIP3   OH229847   0.426   6.071   8.451  0.0339  0.8192 -0.5243
 2763TIP3    H129848   0.436   5.980   8.480 -0.5812  0.2153 -2.0660
 2763TIP3    H229849   0.507   6.114   8.476  0.1665 -0.0493  0.6031
 2764TIP3   OH229850   6.406   0.953   0.011  0.8481  0.7870 -0.0170
 2764TIP3    H129851   6.490   0.926   0.049  0.9501  2.3376  0.9276
 2764TIP3    H229852   6.418   1.046  -0.009 -0.8396  1.1937  0.7072
 2765TIP3   OH229853   5.116   3.495   0.451  0.1943 -0.1929 -0.4946
 2765TIP3    H129854   5.041   3.470   0.504  0.7216  0.7084  0.7150
 2765TIP3    H229855   5.192   3.479   0.507  0.9063 -0.7588 -1.5680
 2766TIP3   OH229856   2.149   5.117   0.559 -0.3399  0.2125 -0.8045
 2766TIP3    H129857   2.199   5.182   0.510  0.6399 -0.5909 -0.8887
 2766TIP3    H229858   2.131   5.048   0.495 -0.6812  0.0282 -0.5138
 2767TIP3   OH229859   1.206   3.148   8.784 -0.0255 -0.5005 -0.0302
 2767TIP3    H129860   1.203   3.134   8.878  1.0600  1.3858  0.3234
 2767TIP3    H229861   1.116   3.132   8.755 -0.4869 -0.6217  1.3913
 2768TIP3   OH229862   3.433   6.310   0.689 -0.0232  0.2078 -0.7802
 2768TIP3    H129863   3.381   6.374   0.641  0.1784 -0.5878 -2.1049
 2768TIP3    H229864   3.367   6.253   0.730 -0.1951  0.6885 -0.3749
 2769TIP3   OH229865   5.226   5.391   0.368  0.1673 -0.1902  0.5160
 2769TIP3    H129866   5.155   5.332   0.394 -0.1708 -0.3602 -0.7368
 2769TIP3    H229867   5.291   5.333   0.327 -0.5875  0.3810 -1.5797
 2770TIP3   OH229868   0.526   0.039   1.136 -0.2098 -0.3353  0.1193
 2770TIP3    H129869   0.500  -0.029   1.198  0.2563 -0.5652  0.0653
 2770TIP3    H229870   0.453   0.045   1.074 -0.9391  0.3038  1.0200
 2771TIP3   OH229871   2.024   1.753   8.693 -0.9040 -0.3425  0.0239
 2771TIP3    H129872   2.092   1.686   8.701 -0.2639  0.3322  0.2708
 2771TIP3    H229873   2.039   1.792   8.607 -0.3644  0.4726  0.4840
 2772TIP3   OH229874   0.911   4.474   8.506  0.0471 -0.4800 -0.0878
 2772TIP3    H129875   0.822   4.508   8.492 -0.2070 -2.1153 -3.4392
 2772TIP3    H229876   0.968   4.543   8.473 -0.0545 -0.1831  0.3464
 2773TIP3   OH229877   2.323   0.837   6.366  0.0018 -0.7723  0.5449
 2773TIP3    H129878   2.357   0.896   6.300 -1.2342  0.3839  0.9011
 2773TIP3    H229879   2.231   0.824   6.342 -0.5017 -0.2419  2.0659
 2774TIP3   OH229880   0.471   4.265   8.739  0.2969 -0.5156  0.3083
 2774TIP3    H129881   0.472   4.191   8.799 -1.8219 -1.0126 -0.1859
 2774TIP3    H229882   0.381   4.296   8.740  0.3582 -0.0729 -2.0294
 2775TIP3   OH229883   6.672   0.333   0.737  0.0075  0.0503  0.4511
 2775TIP3    H129884   6.744   0.356   0.795 -0.5206  0.2862  1.0212
 2775TIP3    H229885   6.659   0.411   0.683  1.2113 -0.5391 -0.7644
 2776TIP3   OH229886   6.446   0.529   0.625 -0.0534 -0.3525 -0.5373
 2776TIP3    H129887   6.488   0.563   0.704  1.6747  0.5515 -1.7902
 2776TIP3    H229888   6.357   0.506   0.653  0.5399 -0.1558  1.6741
 2777TIP3   OH229889   6.420   0.970   8.414  0.2000 -0.7467  0.8357
 2777TIP3    H129890   6.382   0.923   8.340  1.9163 -2.9518  1.2149
 2777TIP3    H229891   6.345   0.999   8.465 -1.0353  0.6489 -1.5758
 2778TIP3   OH229892   4.558   6.319   6.828  0.2922  0.0495 -0.6527
 2778TIP3    H129893   4.530   6.240   6.782 -0.3984  0.6357 -1.2512
 2778TIP3    H229894   4.504   6.389   6.791  0.4137  0.6920  0.3530
 2779TIP3   OH229895   0.143   6.280   7.535  0.3421  0.4418  0.8296
 2779TIP3    H129896   0.135   6.298   7.629 -0.6228  1.4502  0.5918
 2779TIP3    H229897   0.059   6.308   7.499  0.2048 -1.1475 -0.1751
 2780TIP3   OH229898   3.189   4.712   0.186 -0.3164 -0.1957  0.1778
 2780TIP3    H129899   3.241   4.792   0.198  0.1987 -0.6618  1.1505
 2780TIP3    H229900   3.131   4.732   0.113 -0.0750  1.0138  0.2964
 2781TIP3   OH229901   5.954   6.044   1.607 -0.2417  0.4047 -0.7316
 2781TIP3    H129902   5.865   6.066   1.579  0.4144  1.8548 -1.8453
 2781TIP3    H229903   5.952   6.052   1.703 -1.1271  1.1985 -0.7999
 2782TIP3   OH229904   5.190   0.144   7.757  0.2340 -0.2095 -0.1841
 2782TIP3    H129905   5.215   0.213   7.819 -1.5241 -0.8633  1.3694
 2782TIP3    H229906   5.178   0.066   7.812  1.4617 -1.6209 -1.7958
 2783TIP3   OH229907   1.324   2.017   6.906  0.2289 -0.1709 -0.0686
 2783TIP3    H129908   1.317   1.934   6.858  0.3439  0.0792 -0.5298
 2783TIP3    H229909   1.412   2.049   6.886  0.6823 -0.5776  1.1794
 2784TIP3   OH229910   1.759   3.192   0.191 -0.1207 -0.5161  0.2125
 2784TIP3    H129911   1.685   3.242   0.156  0.4750 -0.9825 -1.8320
 2784TIP3    H229912   1.832   3.255   0.193  0.4290 -1.0155 -1.6399
 2785TIP3   OH229913   3.431   4.138   0.844  0.3151  1.0089  0.4941
 2785TIP3    H129914   3.367   4.209   0.850 -2.1404 -0.8261 -1.6605
 2785TIP3    H229915   3.455   4.135   0.752 -0.6955 -1.6896  0.2162
 2786TIP3   OH229916   3.503   6.631   7.756  0.2192  0.0771 -0.2301
 2786TIP3    H129917   3.437   6.699   7.771 -0.2702 -0.4353 -0.0485
 2786TIP3    H229918   3.518   6.632   7.662  1.6568  1.7733 -0.0428
 2787TIP3   OH229919   2.016   5.172   1.506 -0.2083 -0.5193 -0.5097
 2787TIP3    H129920   1.961   5.157   1.430 -1.3903  0.0480  0.2059
 2787TIP3    H229921   1.971   5.128   1.578  0.0409  0.3001  0.1721
 2788TIP3   OH229922   5.075   5.443   0.033 -0.3224  0.4873 -0.1654
 2788TIP3    H129923   5.101   5.352   0.045 -1.3389  0.2880  0.7016
 2788TIP3    H229924   4.986   5.439  -0.002 -1.0514  1.1050  1.5060
 2789TIP3   OH229925   5.295   1.410   8.224 -0.1103  0.3420  0.2406
 2789TIP3    H129926   5.384   1.440   8.212  0.0214  0.1428  0.7020
 2789TIP3    H229927   5.301   1.343   8.293 -0.5221 -0.1025 -0.1483
 2790TIP3   OH229928   4.541   0.932   8.050 -0.1303  0.0357  0.1835
 2790TIP3    H129929   4.528   0.994   7.978  2.2503 -0.1256 -0.4473
 2790TIP3    H229930   4.599   0.977   8.111  0.6537 -1.0893  0.3064
 2791TIP3   OH229931   5.843   4.185   1.066  0.3747  0.7639 -0.2974
 2791TIP3    H129932   5.768   4.127   1.077  1.6115 -0.9364 -0.3406
 2791TIP3    H229933   5.861   4.183   0.972 -0.7430  2.8437 -0.6152
 2792TIP3   OH229934   5.091   2.001   8.327  0.7732  0.0021 -0.6163
 2792TIP3    H129935   5.058   2.053   8.400  3.1382  0.5458  0.1244
 2792TIP3    H229936   5.177   1.971   8.355  2.6210  1.7355 -3.8182
 2793TIP3   OH229937   1.039   6.637   2.164 -0.0434 -0.0088 -0.0970
 2793TIP3    H129938   1.109   6.693   2.131 -1.2966  1.3625 -0.5172
 2793TIP3    H229939   1.008   6.681   2.243 -1.6310  0.4138 -0.9137
 2794TIP3   OH229940   2.059   1.314   0.972  0.1920  0.3031  0.1105
 2794TIP3    H129941   2.007   1.395   0.973  0.7455  0.7025 -1.3820
 2794TIP3    H229942   2.131   1.333   0.912  0.3047 -1.3321 -0.2973
 2795TIP3   OH229943   3.537   5.572   8.162 -0.2219 -0.0750  0.0591
 2795TIP3    H129944   3.537   5.666   8.178  3.3849  0.2073 -0.7743
 2795TIP3    H229945   3.584   5.535   8.236  1.8555 -0.6528 -1.4333
 2796TIP3   OH229946   3.758   6.411   0.205 -0.0506  0.0466  0.9898
 2796TIP3    H129947   3.710   6.365   0.274  2.0349 -0.5006  2.1624
 2796TIP3    H229948   3.716   6.497   0.201  0.0166  0.2377  3.2583
 2797TIP3   OH229949   5.164   4.271   7.738  0.3120  0.4777  0.1219
 2797TIP3    H129950   5.257   4.248   7.740 -0.1670 -1.8378 -0.6243
 2797TIP3    H229951   5.161   4.363   7.763  2.8957  0.9556 -1.0308
 2798TIP3   OH229952   6.071   1.619   8.087  0.2056  0.0780  0.1680
 2798TIP3    H129953   5.977   1.599   8.093  0.3410 -0.7448 -0.2230
 2798TIP3    H229954   6.098   1.637   8.177 -0.0664 -0.9791  0.4835
 2799TIP3   OH229955   0.889   0.934   1.634  0.0598 -0.3568 -0.4127
 2799TIP3    H129956   0.967   0.889   1.602  0.0560 -1.6130  1.2183
 2799TIP3    H229957   0.913   0.963   1.722 -1.2293 -0.6115  0.0415
 2800TIP3   OH229958   6.424   2.205   1.460  0.5653  0.2315  0.1596
 2800TIP3    H129959   6.482   2.153   1.516  1.5819  1.6403  0.4621
 2800TIP3    H229960   6.474   2.284   1.441 -1.4224  1.7006  0.7703
 2801TIP3   OH229961   3.509   4.228   0.203  0.0768  0.4816  0.5425
 2801TIP3    H129962   3.502   4.260   0.113 -0.1222 -1.1108 -0.0363
 2801TIP3    H229963   3.576   4.160   0.199 -1.6263 -1.3407  1.0266
 2802TIP3   OH229964   1.832   2.262   8.068 -0.2019  0.4392 -0.2867
 2802TIP3    H129965   1.869   2.183   8.105 -2.9243 -1.6706 -1.6721
 2802TIP3    H229966   1.867   2.266   7.979  0.1600  0.9708 -0.1231
 2803TIP3   OH229967   4.265   0.761   7.963 -0.2111 -0.4126 -1.0149
 2803TIP3    H129968   4.354   0.755   7.997  0.2765 -3.3018 -2.4319
 2803TIP3    H229969   4.274   0.806   7.879  0.1604 -1.7369 -1.7117
 2804TIP3   OH229970   4.325   1.181   8.001 -0.4983  0.4223 -0.6816
 2804TIP3    H129971   4.251   1.216   7.952 -1.2452 -0.2623 -0.0738
 2804TIP3    H229972   4.285   1.122   8.065  0.6154 -0.4584 -0.7706
 2805TIP3   OH229973   1.920   3.842   1.758  0.5933 -0.4660 -0.1086
 2805TIP3    H129974   1.983   3.773   1.779  0.3445 -0.6958 -0.1107
 2805TIP3    H229975   1.971   3.909   1.713  1.4105  0.5829  2.1740
 2806TIP3   OH229976   1.485   1.777   7.166 -0.0140  0.3132  0.1470
 2806TIP3    H129977   1.400   1.789   7.125  0.0713  0.2750 -0.0430
 2806TIP3    H229978   1.543   1.838   7.120 -0.3301  1.7165  1.5167
 2807TIP3   OH229979   3.743   0.601   7.385  0.1846  0.2428  0.2170
 2807TIP3    H129980   3.828   0.633   7.416 -0.0820  0.3125  0.8911
 2807TIP3    H229981   3.701   0.565   7.463  0.0026 -0.7225 -0.3067
 2808TIP3   OH229982   2.698   6.771   1.637 -0.3477 -0.6776 -0.1157
 2808TIP3    H129983   2.628   6.836   1.647 -0.8053 -1.3248  1.1424
 2808TIP3    H229984   2.740   6.767   1.723 -0.1234 -1.7964 -0.2542
 2809TIP3   OH229985   5.615   6.777   0.970  0.2778 -0.2378  0.1686
 2809TIP3    H129986   5.637   6.851   1.027  1.8109  0.6189 -1.4276
 2809TIP3    H229987   5.575   6.818   0.893 -0.8652 -1.2725  0.1961
 2810TIP3   OH229988   5.605   3.862   8.849  0.9857 -0.0065  0.0315
 2810TIP3    H129989   5.511   3.849   8.861  1.0719  0.2017  0.9554
 2810TIP3    H229990   5.616   3.957   8.847  1.1731 -0.0306 -0.1123
 2811TIP3   OH229991   0.327   6.363   0.557  0.2161  0.0989 -0.1448
 2811TIP3    H129992   0.364   6.451   0.549  0.8454 -0.1188  0.3540
 2811TIP3    H229993   0.233   6.376   0.543  0.3108  0.8414 -0.1342
 2812TIP3   OH229994   3.053   1.085   2.112 -0.4091 -0.0942 -0.0535
 2812TIP3    H129995   3.145   1.069   2.092  0.3139  2.2603  1.0791
 2812TIP3    H229996   3.016   0.997   2.124  2.1024 -1.0744  1.3205
 2813TIP3   OH229997   0.233   4.691   0.178 -0.0312  0.1693 -0.0285
 2813TIP3    H129998   0.309   4.637   0.198 -0.9644 -1.5518 -0.8874
 2813TIP3    H229999   0.211   4.670   0.087 -0.2638  2.2607 -0.5255
 2814TIP3   OH230000   2.947   2.143   1.036  1.0193 -0.6860 -0.4426
 2814TIP3    H130001   3.000   2.182   0.966 -0.4107  1.4535 -0.4230
 2814TIP3    H230002   2.875   2.101   0.990 -0.1624  1.0975 -0.3273
 2815TIP3   OH230003   1.389   6.669   7.590  0.0039  0.2031  0.1555
 2815TIP3    H130004   1.444   6.610   7.642 -0.5053 -0.1148  0.3373
 2815TIP3    H230005   1.426   6.756   7.606 -0.2498  0.1353  1.1989
 2816TIP3   OH230006   2.239   1.417   8.452 -0.0335 -0.7558  0.8409
 2816TIP3    H130007   2.209   1.459   8.371 -1.4013 -1.1930  1.0949
 2816TIP3    H230008   2.330   1.447   8.462  0.6602 -1.8119 -1.5937
 2817TIP3   OH230009   2.010   0.469   8.600  0.1039  0.1849 -0.1598
 2817TIP3    H130010   1.938   0.416   8.636  0.6263 -1.2631 -1.1607
 2817TIP3    H230011   1.977   0.559   8.603 -1.8607 -0.4501 -0.7825
 2818TIP3   OH230012   5.399   5.126   8.753  0.6535  0.0476  0.4663
 2818TIP3    H130013   5.347   5.103   8.676  0.2065  1.4586  0.3139
 2818TIP3    H230014   5.486   5.146   8.718  0.4600  0.6566  0.3296
 2819TIP3   OH230015   6.237   2.467   0.539 -0.2221  0.1903  0.3942
 2819TIP3    H130016   6.209   2.554   0.512  0.7814  0.2614 -0.4925
 2819TIP3    H230017   6.170   2.408   0.503 -1.8832  0.6841  2.5084
 2820TIP3   OH230018   3.594   1.432   7.894 -0.5041  0.4903  0.4342
 2820TIP3    H130019   3.519   1.431   7.954 -1.7848  1.3047 -1.0792
 2820TIP3    H230020   3.625   1.341   7.894 -1.2356  0.2130  1.3803
 2821TIP3   OH230021   4.056   4.479   2.706  0.3289 -0.6231 -0.1981
 2821TIP3    H130022   4.144   4.500   2.737 -0.1715 -2.3932  2.8644
 2821TIP3    H230023   4.058   4.384   2.693 -1.4440 -0.9187  1.2945
 2822TIP3   OH230024   0.289   1.408   0.631  0.2873  0.5651 -0.5141
 2822TIP3    H130025   0.335   1.335   0.673  0.7132  1.1677  0.0898
 2822TIP3    H230026   0.313   1.402   0.539 -0.6938 -0.8008 -0.7099
 2823TIP3   OH230027   1.995   5.150   7.720  0.4469 -0.1217  0.2651
 2823TIP3    H130028   1.945   5.229   7.700  1.0752 -0.0313 -1.0846
 2823TIP3    H230029   2.056   5.141   7.647  2.5989 -0.0775  1.9484
 2824TIP3   OH230030   3.859   1.304   8.051 -0.4067  0.2195  0.3924
 2824TIP3    H130031   3.877   1.228   7.996 -0.3705  0.8324 -0.4574
 2824TIP3    H230032   3.914   1.291   8.129 -1.2277 -1.1690  0.7745
 2825TIP3   OH230033   0.577   5.917   0.055 -0.1070 -0.0139 -0.2224
 2825TIP3    H130034   0.644   5.985   0.047  1.0823 -0.7866  2.0817
 2825TIP3    H230035   0.495   5.964   0.066  0.2265  0.9717 -1.7491
 2826TIP3   OH230036   6.215   6.697   7.284  0.2710 -0.0905 -0.1127
 2826TIP3    H130037   6.255   6.617   7.319  0.3892  0.1010  0.1947
 2826TIP3    H230038   6.244   6.701   7.193  1.4331  0.3412  0.2512
 2827TIP3   OH230039   4.796   3.887   7.058  0.5043  0.3978  0.1429
 2827TIP3    H130040   4.794   3.900   6.963 -0.0752  2.1583  0.3446
 2827TIP3    H230041   4.833   3.969   7.091 -2.9846  1.5464  1.6293
 2828TIP3   OH230042   1.644   2.041   7.264  0.1925  0.6178 -0.1817
 2828TIP3    H130043   1.691   1.969   7.306  0.6808  0.2497 -1.3249
 2828TIP3    H230044   1.644   2.019   7.171 -0.2337  1.7709 -0.4770
 2829TIP3   OH230045   3.610   2.018   0.925  0.3446  0.9193 -0.0618
 2829TIP3    H130046   3.651   2.101   0.899  1.9965 -0.8003 -3.7129
 2829TIP3    H230047   3.561   1.991   0.847 -0.1133 -1.5831  1.0070
 2830TIP3   OH230048   4.924   6.272   0.152  0.0588  0.0671 -0.3444
 2830TIP3    H130049   4.881   6.318   0.080  0.6241  1.5485  0.2227
 2830TIP3    H230050   4.853   6.250   0.212 -0.3719 -0.8804 -1.1661
 2831TIP3   OH230051   1.127   0.573   8.044  0.4803  0.1491 -0.4329
 2831TIP3    H130052   1.192   0.642   8.031  0.8176  0.0745  0.7786
 2831TIP3    H230053   1.044   0.619   8.051  0.5103  0.3117 -1.1023
 2832TIP3   OH230054   2.351   2.320   7.186  0.8403 -0.1079 -0.8892
 2832TIP3    H130055   2.257   2.309   7.178  0.3951  1.0889  1.6157
 2832TIP3    H230056   2.388   2.261   7.121 -1.6074 -1.5554 -1.0866
 2833TIP3   OH230057   5.282   1.790   8.105 -0.6004 -0.0602  0.4080
 2833TIP3    H130058   5.192   1.784   8.138 -0.4358 -0.3831  0.8120
 2833TIP3    H230059   5.279   1.859   8.039 -1.4640 -1.0880 -0.6568
 2834TIP3   OH230060   2.918   6.345   0.734  0.6611 -0.4767  0.3333
 2834TIP3    H130061   2.863   6.267   0.730 -1.2244  0.7694  0.5180
 2834TIP3    H230062   2.941   6.363   0.643  1.2346 -1.3158  0.3051
 2835TIP3   OH230063   4.897   2.692   2.137 -0.0290  0.0197 -0.8381
 2835TIP3    H130064   4.808   2.727   2.127 -0.2329 -0.1004  0.3949
 2835TIP3    H230065   4.901   2.663   2.228  1.3533  0.2330 -0.8121
 2836TIP3   OH230066   5.192   4.300   0.047  0.4387  0.2916  0.0555
 2836TIP3    H130067   5.187   4.212   0.085 -0.2793  1.0962  1.9417
 2836TIP3    H230068   5.277   4.303   0.004  0.6355 -1.1905  0.3044
 2837TIP3   OH230069   2.705   6.709   8.214  0.2109 -0.8538 -0.6142
 2837TIP3    H130070   2.712   6.739   8.305 -0.6116 -1.3803 -0.3703
 2837TIP3    H230071   2.632   6.759   8.178 -1.8434 -3.1748  0.0799
 2838TIP3   OH230072   1.884   3.331   1.378 -0.3226  0.0909 -0.0815
 2838TIP3    H130073   1.958   3.356   1.322  0.2594  2.0551  1.4717
 2838TIP3    H230074   1.924   3.295   1.457 -1.1171 -1.5029 -0.3664
 2839TIP3   OH230075   0.825   1.990   8.690  0.2169  0.0934 -0.6945
 2839TIP3    H130076   0.895   2.048   8.719  0.8801  0.0874 -2.1757
 2839TIP3    H230077   0.755   2.050   8.663  0.7355  0.2245 -1.8137
 2840TIP3   OH230078   3.486   0.255   6.361  0.9593 -0.0444 -0.5715
 2840TIP3    H130079   3.557   0.191   6.354  0.1437 -0.8884 -1.3317
 2840TIP3    H230080   3.515   0.329   6.307  1.6783  0.0257 -0.1011
 2841TIP3   OH230081   0.273   2.494   0.899  0.1341  0.0694  0.0617
 2841TIP3    H130082   0.211   2.421   0.892  0.2317  0.0195 -0.3569
 2841TIP3    H230083   0.251   2.550   0.824  1.3134 -0.5139 -0.7490
 2842TIP3   OH230084   3.901   1.982   1.685 -0.0562 -0.6331  0.7562
 2842TIP3    H130085   3.871   2.018   1.601  0.2606  1.5619  1.5216
 2842TIP3    H230086   3.996   1.970   1.672  0.0029 -0.2403  0.8078
 2843TIP3   OH230087   5.490   0.644   2.496 -0.1359  0.1628 -0.3524
 2843TIP3    H130088   5.562   0.703   2.521 -2.6589  2.0953  3.3220
 2843TIP3    H230089   5.440   0.694   2.433 -0.2873  0.4504 -0.0105
 2844TIP3   OH230090   0.045   2.828   1.217  0.6756  0.2529  0.0795
 2844TIP3    H130091  -0.043   2.797   1.237  0.1812  1.6802  0.2468
 2844TIP3    H230092   0.068   2.785   1.134  0.2818 -0.9767  0.5959
 2845TIP3   OH230093   1.311   4.603   2.741  0.3998 -0.6852  0.4987
 2845TIP3    H130094   1.283   4.511   2.747  0.5811 -0.9596 -1.8233
 2845TIP3    H230095   1.300   4.625   2.648 -0.5256  1.9584  1.1367
 2846TIP3   OH230096   6.352   0.993   7.419  0.0613 -0.3307 -0.0327
 2846TIP3    H130097   6.301   0.940   7.358 -0.4593  0.7935 -0.6054
 2846TIP3    H230098   6.432   1.014   7.371 -0.3055  0.4710 -0.3186
 2847TIP3   OH230099   3.655   3.513   0.945 -0.1583  0.6103 -0.4760
 2847TIP3    H130100   3.731   3.518   1.003  0.1823  0.7678 -0.9347
 2847TIP3    H230101   3.687   3.469   0.866 -1.0971 -1.3975  0.2096
 2848TIP3   OH230102   0.401   1.726   8.411  0.7947 -0.2375  0.2297
 2848TIP3    H130103   0.340   1.687   8.474  1.2806 -1.6885 -0.1711
 2848TIP3    H230104   0.356   1.804   8.380 -2.0226 -2.5046 -1.8901
 2849TIP3   OH230105   1.397   1.286   0.698  0.1480 -0.6900  0.4023
 2849TIP3    H130106   1.399   1.204   0.649  1.0073 -0.0147 -0.7556
 2849TIP3    H230107   1.362   1.350   0.636  0.6072  0.0514  0.8940
 2850TIP3   OH230108   4.333   4.896   7.482 -0.0953  0.0478 -0.5201
 2850TIP3    H130109   4.404   4.935   7.430 -0.5250  0.6973 -0.6257
 2850TIP3    H230110   4.363   4.807   7.499 -0.1222 -0.3206 -2.2176
 2851TIP3   OH230111   0.771   6.768   8.143  0.5811  0.3724 -0.4706
 2851TIP3    H130112   0.688   6.807   8.172  1.1046  0.7425  0.5765
 2851TIP3    H230113   0.753   6.674   8.141  0.1248  0.4502 -0.2637
 2852TIP3   OH230114   5.374   0.785   0.234 -0.6326 -0.7111  0.5367
 2852TIP3    H130115   5.303   0.846   0.254  0.2598  1.1947 -1.6250
 2852TIP3    H230116   5.443   0.809   0.297  0.7344  2.6124 -1.8850
 2853TIP3   OH230117   2.549   1.257   0.753 -0.2800 -0.3934  0.3034
 2853TIP3    H130118   2.573   1.342   0.790  1.1101  0.1307 -1.5986
 2853TIP3    H230119   2.593   1.256   0.667  0.6124 -3.4638  0.6940
 2854TIP3   OH230120   1.889   3.476   0.460 -0.6838 -0.0948  0.2338
 2854TIP3    H130121   1.925   3.446   0.544 -1.3899 -1.1225  0.1918
 2854TIP3    H230122   1.889   3.398   0.404 -1.1396  0.3433 -0.3913
 2855TIP3   OH230123   3.658   6.631   1.741 -1.0778  0.0512  0.1202
 2855TIP3    H130124   3.710   6.683   1.802 -0.7049 -0.5752  0.3384
 2855TIP3    H230125   3.626   6.695   1.677  0.5658  0.3596 -0.4467
 2856TIP3   OH230126   4.762   3.469   8.135 -0.4534  0.3885  0.4994
 2856TIP3    H130127   4.675   3.463   8.095 -1.0219 -0.6323  1.7855
 2856TIP3    H230128   4.769   3.560   8.163 -0.7396  0.6922 -0.4036
 2857TIP3   OH230129   5.620   0.291   7.209  0.2833  0.3720  0.3353
 2857TIP3    H130130   5.614   0.330   7.296  2.5848 -0.5091  0.9851
 2857TIP3    H230131   5.585   0.357   7.150 -1.5624  0.9014  1.9182
 2858TIP3   OH230132   5.810   6.030   7.611 -0.7452 -0.1768  0.3911
 2858TIP3    H130133   5.843   5.956   7.662 -0.7437  1.4451  2.8841
 2858TIP3    H230134   5.886   6.061   7.562 -0.1119 -0.3142  1.2631
 2859TIP3   OH230135   3.369   2.719   7.009  0.1094  0.8038 -0.2126
 2859TIP3    H130136   3.336   2.741   7.096 -0.8713  1.4117 -0.7322
 2859TIP3    H230137   3.311   2.764   6.948  0.3470 -0.1814 -1.2111
 2860TIP3   OH230138   2.554   0.436   1.390  0.1265 -0.1189  0.1312
 2860TIP3    H130139   2.604   0.508   1.351  0.8325 -0.5156  0.2859
 2860TIP3    H230140   2.573   0.441   1.484  0.7152 -0.8993  0.0688
 2861TIP3   OH230141   1.890   3.663   2.255  0.1436  0.0123 -0.4239
 2861TIP3    H130142   1.890   3.702   2.168 -0.6359 -0.0425 -0.4483
 2861TIP3    H230143   1.800   3.673   2.287  0.4979  0.3511  0.5197
 2862TIP3   OH230144   4.046   3.026   6.843  0.1155  0.4017  0.5368
 2862TIP3    H130145   4.004   2.940   6.856 -1.0472  0.5025 -1.9976
 2862TIP3    H230146   4.019   3.077   6.919 -1.9672 -0.4815  0.4741
 2863TIP3   OH230147   6.010   0.390   1.308 -0.2131 -0.5139 -0.6140
 2863TIP3    H130148   5.930   0.347   1.337 -0.5573 -0.4123 -1.3928
 2863TIP3    H230149   5.984   0.481   1.291  0.2434 -0.2865 -0.1092
 2864TIP3   OH230150   0.815   0.484   8.063  0.2612 -0.0032 -0.0616
 2864TIP3    H130151   0.819   0.567   8.110 -0.2920 -1.0095  1.8903
 2864TIP3    H230152   0.722   0.462   8.059  0.2575  0.1897 -1.9791
 2865TIP3   OH230153   4.444   2.630   8.377 -0.1320 -0.4148  0.0544
 2865TIP3    H130154   4.405   2.662   8.458 -0.1366 -0.4871  0.0809
 2865TIP3    H230155   4.520   2.688   8.363  0.5129 -1.0764  0.6962
 2866TIP3   OH230156   4.493   1.379   8.112  0.4960  0.3623 -0.7020
 2866TIP3    H130157   4.434   1.308   8.135 -1.1411  1.5815 -1.0079
 2866TIP3    H230158   4.448   1.458   8.141  3.2173  1.2297  1.6399
 2867TIP3   OH230159   3.623   2.686   2.313 -0.4851 -0.2946  0.3212
 2867TIP3    H130160   3.599   2.594   2.302  0.4730 -0.4972 -0.2588
 2867TIP3    H230161   3.719   2.686   2.306 -0.3897  0.6113  1.3446
 2868TIP3   OH230162   3.724   4.411   0.792  0.3295 -0.6216  0.2539
 2868TIP3    H130163   3.676   4.368   0.721 -1.1692  0.1542  0.7419
 2868TIP3    H230164   3.813   4.422   0.758 -0.2413 -0.6639 -1.3246
 2869TIP3   OH230165   5.042   5.721   8.846 -0.4857  0.4895  0.3493
 2869TIP3    H130166   5.109   5.782   8.874 -1.2614  1.1281  0.8692
 2869TIP3    H230167   5.081   5.635   8.858 -0.0388  0.8210  1.4190
 2870TIP3   OH230168   6.359   0.449   8.400  0.6863 -0.1769  0.0263
 2870TIP3    H130169   6.323   0.364   8.376  1.0941 -1.0537  2.2668
 2870TIP3    H230170   6.386   0.488   8.317 -1.1022 -1.4625 -1.2337
 2871TIP3   OH230171   5.013   4.922   6.988  0.1348 -0.0893 -0.0740
 2871TIP3    H130172   5.047   4.833   6.996  3.0725  0.7355 -1.9047
 2871TIP3    H230173   4.948   4.917   6.918  0.4432 -0.7465 -0.3209
 2872TIP3   OH230174   1.882   6.213   0.282  0.2192  0.2337  0.4166
 2872TIP3    H130175   1.828   6.281   0.321 -0.2220 -0.1346  0.4571
 2872TIP3    H230176   1.966   6.220   0.327 -0.4539 -0.5520  1.8516
 2873TIP3   OH230177   0.600   2.636   0.286 -0.8832 -0.0137  0.1672
 2873TIP3    H130178   0.585   2.730   0.280 -2.7267 -0.3186 -0.7451
 2873TIP3    H230179   0.636   2.623   0.374  0.6659  1.6594 -0.1688
 2874TIP3   OH230180   1.635   0.924   6.471 -0.0177  0.0410  0.4975
 2874TIP3    H130181   1.598   0.880   6.548 -0.1539 -1.4303 -0.3609
 2874TIP3    H230182   1.602   1.014   6.476 -1.2624 -0.4366  1.3500
 2875TIP3   OH230183   6.357   6.645   7.920 -0.4906 -0.1466 -0.0329
 2875TIP3    H130184   6.293   6.590   7.874 -0.7868 -0.6227  0.9364
 2875TIP3    H230185   6.434   6.588   7.930  0.2515  0.5219 -1.4813
 2876TIP3   OH230186   3.988   0.100   6.457 -0.0466 -0.5198  0.5079
 2876TIP3    H130187   4.067   0.154   6.452 -1.2476  1.5244  2.1455
 2876TIP3    H230188   3.978   0.081   6.551 -1.5392 -0.6981  0.3302
 2877TIP3   OH230189   3.595   2.728   1.828  0.0752  0.5925 -0.5948
 2877TIP3    H130190   3.663   2.794   1.840  1.7960 -0.9520 -1.4511
 2877TIP3    H230191   3.554   2.720   1.915  0.7247  1.7828 -0.1540
 2878TIP3   OH230192   1.861   6.153   6.475 -0.4787  0.1887  0.5516
 2878TIP3    H130193   1.813   6.220   6.426  0.3136  0.4137  0.0574
 2878TIP3    H230194   1.949   6.190   6.486 -0.3821 -0.2597  1.3349
 2879TIP3   OH230195   5.436   4.675   1.476 -0.0270  0.1090  0.1088
 2879TIP3    H130196   5.415   4.586   1.451 -4.2313  1.1195 -0.7001
 2879TIP3    H230197   5.440   4.723   1.393  1.3143  0.8632  0.5820
 2880TIP3   OH230198   1.871   2.271   8.524  0.2005 -0.4470 -0.2193
 2880TIP3    H130199   1.832   2.195   8.567  0.6025 -1.3581 -1.3929
 2880TIP3    H230200   1.812   2.290   8.451  2.5910 -2.8771 -3.0470
 2881TIP3   OH230201   0.908   5.475   8.119 -0.4229  0.0827  0.0946
 2881TIP3    H130202   0.896   5.380   8.108 -1.7404  0.4290 -2.1751
 2881TIP3    H230203   0.821   5.509   8.135 -0.3109  1.0997 -1.2399
 2882TIP3   OH230204   3.608   5.877   7.181  0.5084  0.2311  0.0330
 2882TIP3    H130205   3.701   5.877   7.162  1.3136  1.1116  3.3149
 2882TIP3    H230206   3.597   5.941   7.251 -2.1617 -1.4557  1.3542
 2883TIP3   OH230207   6.095   6.347   0.187 -0.6854  0.0567  0.6075
 2883TIP3    H130208   6.018   6.363   0.243  0.7133  1.0932  2.3443
 2883TIP3    H230209   6.129   6.434   0.168  0.4627 -0.4077  0.4742
 2884TIP3   OH230210   0.909   5.775   0.109  0.0310  0.1535  0.3491
 2884TIP3    H130211   0.857   5.808   0.182 -1.1662 -0.4542 -0.1957
 2884TIP3    H230212   0.855   5.706   0.070  0.5866  0.5490 -1.1919
 2885TIP3   OH230213   4.616   4.122   0.314  0.3605 -0.1599 -0.2447
 2885TIP3    H130214   4.707   4.149   0.307 -0.2321  1.8674 -0.8980
 2885TIP3    H230215   4.613   4.037   0.270  1.6135  0.6153 -1.9673
 2886TIP3   OH230216   4.591   0.081   2.440 -0.5790  0.2522 -0.2445
 2886TIP3    H130217   4.544   0.163   2.447 -1.3313 -0.2636  0.8859
 2886TIP3    H230218   4.637   0.072   2.523 -1.1122 -0.8255 -0.0515
 2887TIP3   OH230219   1.849   3.399   2.326  0.3235  0.0662 -0.2498
 2887TIP3    H130220   1.888   3.387   2.413  0.8165  1.5590 -0.2369
 2887TIP3    H230221   1.889   3.479   2.292 -0.4987 -0.0195 -1.5058
 2888TIP3   OH230222   1.985   0.219   8.352  0.7614 -0.2140 -0.2207
 2888TIP3    H130223   2.030   0.296   8.318  0.6567 -0.3351 -0.6311
 2888TIP3    H230224   1.902   0.253   8.385 -0.0608 -0.3914 -1.9912
 2889TIP3   OH230225   5.655   5.386   6.943 -0.0927  0.2180  0.1745
 2889TIP3    H130226   5.743   5.363   6.972  0.9578  3.3849 -0.1881
 2889TIP3    H230227   5.662   5.393   6.848 -0.6588  0.8671  0.1748
 2890TIP3   OH230228   1.870   4.811   1.492 -0.4100  0.1903 -0.9390
 2890TIP3    H130229   1.844   4.881   1.433 -0.9029 -0.8512 -2.0100
 2890TIP3    H230230   1.859   4.848   1.579 -2.7637  0.7810 -1.4011
 2891TIP3   OH230231   4.005   5.222   8.284  0.0558 -0.0440 -0.7218
 2891TIP3    H130232   3.978   5.313   8.293  0.0575 -0.0636 -0.5123
 2891TIP3    H230233   3.990   5.201   8.192  0.0626  0.1701 -0.7711
 2892TIP3   OH230234   2.804   5.565   8.865  0.1670 -0.3216  0.3506
 2892TIP3    H130235   2.727   5.508   8.853 -0.9418  0.5320  2.7082
 2892TIP3    H230236   2.877   5.514   8.830 -1.0884 -2.2897  0.4094
 2893TIP3   OH230237   6.459   2.779   1.983 -0.3546  0.1209  0.2442
 2893TIP3    H130238   6.483   2.835   1.909 -0.5438  3.1289  2.2666
 2893TIP3    H230239   6.543   2.748   2.018 -0.2694 -1.5683 -1.2588
 2894TIP3   OH230240   0.071   6.537   6.781  0.2074 -0.1951  0.3088
 2894TIP3    H130241   0.083   6.611   6.721 -0.1916  1.0247  1.6637
 2894TIP3    H230242  -0.020   6.510   6.768  0.3481 -0.4325 -0.1765
 2895TIP3   OH230243   6.107   0.001   1.324  0.0297  0.6695 -0.6389
 2895TIP3    H130244   6.064  -0.050   1.393  2.7347 -0.7677  0.1371
 2895TIP3    H230245   6.038   0.016   1.259 -1.3424 -2.7205 -0.1913
 2896TIP3   OH230246   4.277   2.040   7.780  0.0388  0.5263 -0.2673
 2896TIP3    H130247   4.261   1.950   7.753  0.0781  0.3205  0.3814
 2896TIP3    H230248   4.267   2.039   7.875  1.3843  0.9093 -0.0955
 2897TIP3   OH230249   2.067   2.676   8.008  0.1830  0.0910 -0.6578
 2897TIP3    H130250   2.085   2.766   8.036 -0.3724  0.1090 -0.3380
 2897TIP3    H230251   2.091   2.623   8.083 -0.0319  0.0240 -0.6352
 2898TIP3   OH230252   4.714   2.218   8.647 -0.4988 -0.1896 -0.3259
 2898TIP3    H130253   4.775   2.288   8.671  0.8159 -1.0806 -1.0125
 2898TIP3    H230254   4.628   2.254   8.668  0.1555  1.5878 -0.5421
 2899TIP3   OH230255   1.634   3.218   1.960 -0.1269 -0.2458 -0.2171
 2899TIP3    H130256   1.642   3.297   2.013 -2.2081 -0.1276  0.0137
 2899TIP3    H230257   1.615   3.148   2.022  1.8370 -1.0208 -0.4029
 2900TIP3   OH230258   0.344   1.555   1.625 -0.3859  0.1355  0.1624
 2900TIP3    H130259   0.436   1.539   1.646 -0.7995 -0.9332  1.2803
 2900TIP3    H230260   0.322   1.635   1.672 -0.2771 -0.1392  0.6856
 2901TIP3   OH230261   0.091   4.472   0.381 -0.4626  0.0509 -0.4245
 2901TIP3    H130262   0.038   4.419   0.441  0.6717 -0.1155  0.4621
 2901TIP3    H230263   0.121   4.546   0.434  1.0231 -0.3902 -0.6247
 2902TIP3   OH230264   0.840   6.449   0.543 -0.1948  0.4399  0.3066
 2902TIP3    H130265   0.892   6.393   0.600  3.1683 -0.2340 -3.0187
 2902TIP3    H230266   0.766   6.395   0.516  2.1362 -2.1054 -1.5844
 2903TIP3   OH230267   1.460   3.124   1.264 -0.4136 -0.1262  0.1213
 2903TIP3    H130268   1.511   3.091   1.338 -2.4938 -1.6375  0.9551
 2903TIP3    H230269   1.518   3.189   1.223  1.4713 -0.4858  2.0196
 2904TIP3   OH230270   5.304   6.042   1.342 -0.3457 -0.5499  0.0163
 2904TIP3    H130271   5.343   5.955   1.336 -1.1343 -0.8732 -0.6362
 2904TIP3    H230272   5.221   6.028   1.387 -0.3288 -0.0877  0.1942
 2905TIP3   OH230273   4.093   1.764   0.194  0.1056 -0.4154 -0.2474
 2905TIP3    H130274   4.061   1.769   0.283 -0.0274 -0.5049 -0.2914
 2905TIP3    H230275   4.051   1.838   0.149 -1.7349 -1.7657 -0.8562
 2906TIP3   OH230276   0.303   0.372   7.551 -0.1042  0.1416  0.1177
 2906TIP3    H130277   0.356   0.301   7.515  2.3324  2.0337 -0.2149
 2906TIP3    H230278   0.279   0.425   7.475  2.9194  2.7429  0.7914
 2907TIP3   OH230279   0.151   4.937   1.518 -0.4568  0.2008 -0.2200
 2907TIP3    H130280   0.235   4.979   1.536  0.0286 -0.6766 -0.4241
 2907TIP3    H230281   0.166   4.884   1.440 -0.8710 -0.9022  0.4351
 2908TIP3   OH230282   0.152   3.262   8.422  0.6526 -0.3700  0.3185
 2908TIP3    H130283   0.243   3.272   8.395  0.0536 -1.3004 -2.3574
 2908TIP3    H230284   0.121   3.352   8.435  1.0185  0.2679 -2.4601
 2909TIP3   OH230285   4.370   5.832   6.931  0.0011 -0.5474  0.1082
 2909TIP3    H130286   4.455   5.867   6.905 -0.0531 -0.3264  0.2207
 2909TIP3    H230287   4.367   5.844   7.026 -2.4076  4.8075 -0.2378
 2910TIP3   OH230288   5.484   3.675   1.272 -0.2037 -0.9839 -0.1872
 2910TIP3    H130289   5.576   3.698   1.282 -0.6930  0.4934  1.5471
 2910TIP3    H230290   5.482   3.580   1.269  1.2019 -1.1615  2.4589
 2911TIP3   OH230291   3.785   0.127   0.726  0.0944  0.1922  0.2846
 2911TIP3    H130292   3.739   0.209   0.709  0.4270  0.0896 -1.2070
 2911TIP3    H230293   3.723   0.059   0.701  0.7469  0.0450 -1.0007
 2912TIP3   OH230294   1.405   5.887   8.247  0.1504 -0.7442  0.3049
 2912TIP3    H130295   1.385   5.940   8.323  0.7024  0.5084 -0.4049
 2912TIP3    H230296   1.379   5.941   8.172 -0.3032 -1.9104 -0.4166
 2913TIP3   OH230297   6.425   4.764   0.303  0.4810 -0.1914 -0.0508
 2913TIP3    H130298   6.425   4.678   0.345 -1.2058  0.3617  1.1757
 2913TIP3    H230299   6.334   4.780   0.279  0.8884  0.9350 -0.9710
 2914TIP3   OH230300   0.430   6.419   1.643 -0.0560 -0.3832 -0.0211
 2914TIP3    H130301   0.432   6.425   1.547 -1.1617 -2.4701 -0.2424
 2914TIP3    H230302   0.421   6.509   1.673  2.5713  0.5832 -1.7566
 2915TIP3   OH230303   2.601   2.948   7.667  0.0434 -0.3412  0.4970
 2915TIP3    H130304   2.675   2.952   7.606 -0.4287  0.1914 -0.0603
 2915TIP3    H230305   2.572   2.856   7.664  0.4487 -0.4688  0.4403
 2916TIP3   OH230306   3.295   0.680   8.840 -0.3324  0.3005  0.1315
 2916TIP3    H130307   3.224   0.667   8.902 -0.9894 -0.5537 -0.7647
 2916TIP3    H230308   3.323   0.591   8.816 -0.9582  0.5473 -1.7236
 2917TIP3   OH230309   4.982   3.612   6.489  0.3806  0.0234  0.6044
 2917TIP3    H130310   4.913   3.677   6.505 -0.6130 -0.7131 -0.5173
 2917TIP3    H230311   4.952   3.534   6.535 -0.2348 -0.7094 -0.9728
 2918TIP3   OH230312   0.182   5.967   0.643 -0.3607  0.8476  0.5492
 2918TIP3    H130313   0.122   6.021   0.594 -0.2819  0.2698 -0.2022
 2918TIP3    H230314   0.127   5.921   0.707 -0.7583  0.1410 -0.2919
 2919TIP3   OH230315   0.545   1.786   2.198  0.2664  0.6234 -0.5723
 2919TIP3    H130316   0.564   1.742   2.114 -0.1137 -2.0509  0.6376
 2919TIP3    H230317   0.569   1.721   2.264 -4.1047  0.5896  1.3105
 2920TIP3   OH230318   5.411   4.291   7.518 -0.4712 -0.1176 -0.2443
 2920TIP3    H130319   5.411   4.325   7.428  3.0671  1.7129  0.2829
 2920TIP3    H230320   5.503   4.282   7.541 -1.2416 -2.1855  2.6914
 2921TIP3   OH230321   4.916   5.911   7.543  0.2327 -0.3088 -0.1601
 2921TIP3    H130322   4.976   5.839   7.564  0.0681 -0.4767 -0.2661
 2921TIP3    H230323   4.972   5.976   7.501  0.2889 -0.5943 -0.5360
 2922TIP3   OH230324   2.888   1.218   6.322  0.2409  0.2435  0.0258
 2922TIP3    H130325   2.931   1.132   6.329  0.7565  0.5285  0.4899
 2922TIP3    H230326   2.797   1.201   6.345  0.7210  0.1259  2.0859
 2923TIP3   OH230327   2.191   1.991   0.301  0.0747 -0.0340 -0.2175
 2923TIP3    H130328   2.282   2.014   0.286  0.0145  0.5991  0.3528
 2923TIP3    H230329   2.186   1.898   0.279  0.6608  0.1226 -1.0733
 2924TIP3   OH230330   5.313   1.922   7.331 -0.1855  0.1754 -0.1818
 2924TIP3    H130331   5.232   1.917   7.381  0.3655 -1.1694  0.6529
 2924TIP3    H230332   5.286   1.953   7.244 -1.5327  0.1032  0.1865
 2925TIP3   OH230333   6.382   2.958   7.484 -0.0252 -0.2864 -0.2506
 2925TIP3    H130334   6.342   3.041   7.458 -1.3233 -0.6085  0.6112
 2925TIP3    H230335   6.435   2.933   7.409 -1.5939  0.0882 -1.5603
 2926TIP3   OH230336   1.085   4.786   2.198  0.3404 -0.0191 -0.9731
 2926TIP3    H130337   1.052   4.737   2.123 -0.5453  2.1355 -2.1067
 2926TIP3    H230338   1.055   4.737   2.274 -0.4732 -1.2163 -2.0208
 2927TIP3   OH230339   5.554   4.281   7.957 -0.0190 -0.5389  0.6702
 2927TIP3    H130340   5.498   4.314   7.887  0.5339  2.4198  1.4510
 2927TIP3    H230341   5.527   4.332   8.034  0.1599 -2.8793  2.3682
 2928TIP3   OH230342   0.049   5.489   8.664  0.6778  0.1936 -0.1181
 2928TIP3    H130343   0.037   5.544   8.587 -1.7335 -0.6173 -0.4280
 2928TIP3    H230344  -0.002   5.533   8.733  1.5284  0.0931  0.5964
 2929TIP3   OH230345   0.686   1.707   0.313 -0.3040  0.5400  0.0071
 2929TIP3    H130346   0.657   1.616   0.306  0.8900  0.1938 -0.7334
 2929TIP3    H230347   0.668   1.744   0.227  0.9575  0.4515 -0.3075
 2930TIP3   OH230348   3.869   1.589   0.790  0.1248  0.4916  0.0302
 2930TIP3    H130349   3.835   1.674   0.764  2.2094  1.2461 -0.3932
 2930TIP3    H230350   3.852   1.532   0.715 -0.4441  0.7689 -0.0535
 2931TIP3   OH230351   3.073   5.639   1.586  0.1953  0.1428 -0.0851
 2931TIP3    H130352   3.046   5.670   1.500  1.5489  1.6195 -0.0139
 2931TIP3    H230353   3.144   5.697   1.612  2.5046 -2.6443  0.3486
 2932TIP3   OH230354   4.854   4.923   8.353  0.1902 -0.1415  0.3752
 2932TIP3    H130355   4.853   4.828   8.347 -0.4656 -0.1109 -0.0227
 2932TIP3    H230356   4.768   4.946   8.388 -0.6746  0.4396 -1.9300
 2933TIP3   OH230357   5.301   3.243   1.540  0.3535  0.5438  0.4838
 2933TIP3    H130358   5.255   3.292   1.608  1.3954  0.6788  1.1022
 2933TIP3    H230359   5.277   3.152   1.555  1.2193  0.4800  1.5578
 2934TIP3   OH230360   4.922   4.067   2.740  0.4047  0.4347  0.1821
 2934TIP3    H130361   4.941   3.979   2.705 -0.6341  0.5990 -0.8737
 2934TIP3    H230362   4.995   4.121   2.709  1.0138 -0.0319  0.7769
 2935TIP3   OH230363   2.756   4.814   7.946  0.2161  0.7136 -0.8633
 2935TIP3    H130364   2.745   4.719   7.940  0.9852 -0.0713  4.8426
 2935TIP3    H230365   2.847   4.826   7.973  0.0254  3.0460 -1.0950
 2936TIP3   OH230366   2.325   6.621   7.140 -0.3917  0.3661  0.2272
 2936TIP3    H130367   2.341   6.704   7.093  0.5662  0.1472  0.1455
 2936TIP3    H230368   2.327   6.645   7.232 -0.4839  0.5023  0.1937
 2937TIP3   OH230369   0.882   6.388   0.179 -0.1860 -0.5606 -0.4053
 2937TIP3    H130370   0.903   6.309   0.228 -0.9535  0.2436  1.2921
 2937TIP3    H230371   0.798   6.368   0.136 -1.3817 -0.0500  1.5902
 2938TIP3   OH230372   6.638   4.591   8.403  0.0531 -0.0045 -0.3874
 2938TIP3    H130373   6.677   4.662   8.352  0.1246  0.0955 -0.1961
 2938TIP3    H230374   6.547   4.617   8.415  0.1687  0.2237 -0.0173
 2939TIP3   OH230375   6.469   2.300   0.672  0.0796  0.2577 -0.4982
 2939TIP3    H130376   6.451   2.248   0.750  2.4176  0.1071  0.0323
 2939TIP3    H230377   6.392   2.356   0.661  0.0257  0.9168  2.4387
 2940TIP3   OH230378   5.522   3.587   7.331  0.3085 -0.3023 -0.5033
 2940TIP3    H130379   5.554   3.623   7.249 -1.7579  1.1339 -0.7671
 2940TIP3    H230380   5.480   3.504   7.306 -1.2279  0.6181 -1.1367
 2941TIP3   OH230381   0.167   1.607   8.510  0.4728 -0.3080 -0.3697
 2941TIP3    H130382   0.174   1.513   8.523  0.5049 -0.0799  1.6582
 2941TIP3    H230383   0.123   1.639   8.589  0.4503  1.3791 -1.0149
 2942TIP3   OH230384   4.099   0.277   7.817 -0.2206  0.7456 -0.1322
 2942TIP3    H130385   4.076   0.184   7.808 -3.3072  1.1155  2.3137
 2942TIP3    H230386   4.033   0.323   7.765  3.0322  1.7306 -3.9234
 2943TIP3   OH230387   1.480   5.956   1.388 -0.1891 -0.0883  0.2540
 2943TIP3    H130388   1.518   6.040   1.363 -3.6673  1.4004 -0.5499
 2943TIP3    H230389   1.415   5.937   1.320 -0.1405 -3.0224  0.8972
 2944TIP3   OH230390   1.583   0.380   0.036 -0.6140 -0.3261 -0.3855
 2944TIP3    H130391   1.510   0.329   0.000  0.5970 -1.4535 -1.3624
 2944TIP3    H230392   1.613   0.329   0.111 -0.8296  0.1431  0.0232
 2945TIP3   OH230393   5.549   3.933   6.768  0.4815  0.2189 -0.0073
 2945TIP3    H130394   5.640   3.948   6.744  0.2929  0.4306 -0.6100
 2945TIP3    H230395   5.540   3.972   6.855  0.5917  1.5458 -0.5694
 2946TIP3   OH230396   4.686   3.173   8.328  0.0934  0.5287 -0.4603
 2946TIP3    H130397   4.720   3.236   8.392 -2.7959  0.7929  0.9964
 2946TIP3    H230398   4.636   3.227   8.266  1.7308  0.1146 -2.2374
 2947TIP3   OH230399   6.493   4.972   7.734 -0.6946 -0.2661 -0.0853
 2947TIP3    H130400   6.586   4.995   7.737 -0.8645  1.1545 -2.6479
 2947TIP3    H230401   6.477   4.949   7.642 -2.7025 -1.3889  0.4832
 2948TIP3   OH230402   5.426   0.240   7.648 -0.5194 -0.0612  0.3491
 2948TIP3    H130403   5.364   0.253   7.719 -0.3474  1.0511  0.3144
 2948TIP3    H230404   5.376   0.195   7.580 -0.7970 -0.7556  0.9932
 2949TIP3   OH230405   2.658   0.990   0.332  0.7528 -0.1172  0.2091
 2949TIP3    H130406   2.726   1.047   0.367  1.1471  0.5464 -1.5397
 2949TIP3    H230407   2.619   1.041   0.261  0.7140 -1.7909 -1.0180
 2950TIP3   OH230408   3.745   3.462   1.882 -0.2913 -0.1996 -0.3138
 2950TIP3    H130409   3.667   3.518   1.871 -0.3209 -0.2507 -0.3636
 2950TIP3    H230410   3.738   3.430   1.972 -0.3083 -0.1737 -0.3057
 2951TIP3   OH230411   2.081   5.947   8.787  0.3921  0.1961  0.3341
 2951TIP3    H130412   1.993   5.967   8.819  0.1725  0.9143 -0.6720
 2951TIP3    H230413   2.067   5.879   8.721  0.3219  1.7391 -1.3082
 2952TIP3   OH230414   0.645   5.221   1.834 -0.1271 -0.2019 -0.0441
 2952TIP3    H130415   0.722   5.277   1.830 -0.3114 -0.0110 -1.3397
 2952TIP3    H230416   0.681   5.132   1.842  0.1813 -0.0086  0.8837
 2953TIP3   OH230417   3.941   2.906   2.369 -0.4259  0.7171  0.1243
 2953TIP3    H130418   3.997   2.921   2.445 -0.0532  0.8328 -0.1684
 2953TIP3    H230419   3.992   2.845   2.314  0.3620  2.4454 -1.1365
 2954TIP3   OH230420   0.421   3.566   2.142 -0.2144 -0.2175  0.3567
 2954TIP3    H130421   0.346   3.541   2.196 -0.7014  1.5856  0.5859
 2954TIP3    H230422   0.494   3.570   2.204 -0.2895 -0.2951  0.4517
 2955TIP3   OH230423   5.654   5.651   1.179  0.1856 -0.3890  0.7261
 2955TIP3    H130424   5.742   5.632   1.210 -0.5439 -1.6015  2.2160
 2955TIP3    H230425   5.610   5.691   1.254 -1.0607 -1.5346  0.6549
 2956TIP3   OH230426   3.540   3.944   7.864  0.0089 -0.2903 -0.3862
 2956TIP3    H130427   3.472   3.970   7.926 -2.0862 -2.9951 -1.3475
 2956TIP3    H230428   3.493   3.899   7.793  2.6417 -0.7065 -2.0224
 2957TIP3   OH230429   4.358   6.093   0.899 -0.5631 -0.2521  0.5205
 2957TIP3    H130430   4.367   6.178   0.941 -1.0724 -0.5419  1.2593
 2957TIP3    H230431   4.282   6.053   0.943 -0.4493 -0.9998  0.0559
 2958TIP3   OH230432   5.517   3.693   1.988 -0.1577  0.4028 -0.2681
 2958TIP3    H130433   5.571   3.769   2.011 -0.0277 -0.1095  1.2116
 2958TIP3    H230434   5.571   3.617   2.009 -1.2989 -0.1227  0.9670
 2959TIP3   OH230435   4.636   4.478   8.134  0.6730  0.0628  0.0072
 2959TIP3    H130436   4.649   4.516   8.047  1.0669  0.3820  0.1983
 2959TIP3    H230437   4.544   4.452   8.136  0.4401  0.8379 -0.2028
 2960TIP3   OH230438   0.306   0.929   6.972 -0.0836 -0.3286 -0.7337
 2960TIP3    H130439   0.357   1.008   6.954 -2.3489  2.0782  2.2612
 2960TIP3    H230440   0.357   0.883   7.040 -0.6794  0.8105  0.5209
 2961TIP3   OH230441   4.316   1.426   7.296 -0.1322 -0.4727  0.9435
 2961TIP3    H130442   4.396   1.389   7.257  0.5610  0.6076  1.2907
 2961TIP3    H230443   4.245   1.381   7.251  0.5991  0.8878 -1.8412
 2962TIP3   OH230444   4.054   2.747   1.380  0.0396  0.1516 -0.2473
 2962TIP3    H130445   4.037   2.836   1.350 -0.1191  0.5361  0.9385
 2962TIP3    H230446   4.075   2.756   1.472 -0.7041 -1.1162  0.0791
 2963TIP3   OH230447   3.794   1.972   6.446 -0.3098 -0.0095 -0.1650
 2963TIP3    H130448   3.854   1.924   6.503  1.5289  1.3345 -0.8666
 2963TIP3    H230449   3.780   1.914   6.371 -0.2669 -0.5117  0.2072
 2964TIP3   OH230450   6.212   4.820   0.559  0.3447 -0.4520 -0.0438
 2964TIP3    H130451   6.123   4.787   0.545  0.1570 -0.1081  0.3139
 2964TIP3    H230452   6.257   4.748   0.604  0.5246 -0.9896 -1.0558
 2965TIP3   OH230453   0.422   2.563   7.444  0.1443 -0.5770 -0.0095
 2965TIP3    H130454   0.368   2.614   7.383  0.4293 -0.0126  0.2087
 2965TIP3    H230455   0.509   2.562   7.403  0.2862 -0.3716  0.2841
 2966TIP3   OH230456   2.869   0.966   7.615 -0.2466  0.1117  0.5328
 2966TIP3    H130457   2.799   1.026   7.641  0.5599  1.6208 -0.6043
 2966TIP3    H230458   2.865   0.965   7.520 -1.0577 -2.7302  0.4921
 2967TIP3   OH230459   1.159   6.098   8.174 -0.3338 -0.3152 -0.2703
 2967TIP3    H130460   1.116   6.171   8.130 -0.6011 -1.7375 -2.4803
 2967TIP3    H230461   1.245   6.133   8.200 -0.5672  0.8597 -1.0082
 2968TIP3   OH230462   5.725   6.342   1.541  0.5103  0.1102  0.2757
 2968TIP3    H130463   5.699   6.298   1.461  1.0693  0.0953  0.0981
 2968TIP3    H230464   5.649   6.394   1.566  0.4675  0.4229 -0.4833
 2969TIP3   OH230465   5.457   5.482   7.740 -0.7697  0.0719 -0.4185
 2969TIP3    H130466   5.379   5.475   7.686 -1.8746  0.6187  1.0491
 2969TIP3    H230467   5.438   5.429   7.817  0.4260 -0.0125 -0.1545
 2970TIP3   OH230468   0.529   6.360   7.640 -0.3415  0.6456  0.5790
 2970TIP3    H130469   0.520   6.403   7.555  0.0895  0.7204  0.5713
 2970TIP3    H230470   0.509   6.429   7.704  0.3473  0.8644  0.5670
 2971TIP3   OH230471   5.506   5.078   6.921 -0.1115  0.4179 -0.6314
 2971TIP3    H130472   5.420   5.082   6.879 -0.9509  1.4717  1.0743
 2971TIP3    H230473   5.564   5.124   6.861 -0.7651 -0.0951 -1.6930
 2972TIP3   OH230474   3.348   4.643   7.748 -0.6793  0.2611  0.3626
 2972TIP3    H130475   3.407   4.682   7.813 -1.1579 -1.1084  1.6675
 2972TIP3    H230476   3.407   4.616   7.677  0.0339  0.5139  0.8373
 2973TIP3   OH230477   2.399   1.073   0.584  0.5890  0.1554 -0.0765
 2973TIP3    H130478   2.444   1.094   0.666  1.2709  0.2496 -0.4606
 2973TIP3    H230479   2.425   0.983   0.565 -0.7462 -0.3794  0.5524
 2974TIP3   OH230480   0.439   5.911   1.641  0.5133 -0.5326  0.8092
 2974TIP3    H130481   0.523   5.886   1.679  0.8890 -0.8535 -0.1836
 2974TIP3    H230482   0.450   6.002   1.615  1.1552 -1.0407 -0.8283
 2975TIP3   OH230483   2.929   3.954   6.751 -0.4943  0.0941  0.2351
 2975TIP3    H130484   2.864   4.013   6.714 -0.8273  0.2320  1.0072
 2975TIP3    H230485   2.969   4.005   6.822 -0.4520 -0.4345  0.5962
 2976TIP3   OH230486   6.422   2.230   8.889  0.1427 -0.0096 -0.1355
 2976TIP3    H130487   6.495   2.176   8.918  0.6112  0.3151 -0.6978
 2976TIP3    H230488   6.395   2.192   8.805 -0.7659 -0.5284  0.3706
 2977TIP3   OH230489   3.686   0.194   8.541 -0.6108 -0.5315 -0.9791
 2977TIP3    H130490   3.632   0.170   8.465 -0.5874 -1.0636 -0.8303
 2977TIP3    H230491   3.624   0.232   8.604 -0.9087 -1.6615 -0.5807
 2978TIP3   OH230492   0.847   0.190   0.746  0.4110 -0.0854  0.5283
 2978TIP3    H130493   0.878   0.246   0.675  0.1379  0.6725  0.9956
 2978TIP3    H230494   0.927   0.158   0.787  0.5771 -1.2208 -0.6404
 2979TIP3   OH230495   1.139   4.368   1.296  0.4899 -0.0571  0.3471
 2979TIP3    H130496   1.145   4.440   1.234  1.4885 -0.6200 -0.2240
 2979TIP3    H230497   1.141   4.411   1.382  2.8645  0.5294  0.0721
 2980TIP3   OH230498   4.073   0.142   7.331  0.1457  0.6274  0.4482
 2980TIP3    H130499   4.079   0.086   7.253  3.2298  1.0686  0.2620
 2980TIP3    H230500   4.021   0.217   7.302 -1.5528 -0.7044 -0.1562
 2981TIP3   OH230501   6.565   4.122   1.058 -0.5189 -0.7451  0.6058
 2981TIP3    H130502   6.583   4.029   1.071  2.0603 -0.5212 -0.6496
 2981TIP3    H230503   6.550   4.129   0.963  0.8855  0.2856  0.4333
 2982TIP3   OH230504   5.249   2.959   7.710  0.4423 -0.0357 -0.1966
 2982TIP3    H130505   5.253   3.054   7.719 -3.5339  0.2565  0.2651
 2982TIP3    H230506   5.225   2.945   7.618 -1.4318 -0.3552  0.2996
 2983TIP3   OH230507   0.240   2.076   2.569  0.0831  0.3136 -0.4367
 2983TIP3    H130508   0.149   2.105   2.567  0.1239  0.8372  1.7396
 2983TIP3    H230509   0.237   1.984   2.543 -1.2570 -0.0095  0.7344
 2984TIP3   OH230510   0.184   5.635   8.051  0.4970  0.3961  0.3993
 2984TIP3    H130511   0.230   5.557   8.085 -0.9269 -0.4132  0.5370
 2984TIP3    H230512   0.249   5.705   8.058  0.5535  0.1867  4.2125
 2985TIP3   OH230513   4.944   0.060   1.519 -0.3845  0.0265 -0.2539
 2985TIP3    H130514   4.870   0.113   1.487 -1.1334 -1.0700 -0.3792
 2985TIP3    H230515   4.921   0.041   1.610  0.8645  1.5932  0.4373
 2986TIP3   OH230516   0.097   1.963   0.865 -0.5718 -0.6342 -0.0754
 2986TIP3    H130517   0.190   1.961   0.844 -0.4582  2.2377 -0.1767
 2986TIP3    H230518   0.092   1.927   0.954  0.7824  0.2125  0.3666
 2987TIP3   OH230519   1.297   3.043   8.339 -0.9801  0.3894 -0.7843
 2987TIP3    H130520   1.263   2.974   8.397 -2.8660  0.8333 -1.3027
 2987TIP3    H230521   1.364   2.999   8.287 -0.1793 -0.3458  0.7947
 2988TIP3   OH230522   2.222   0.467   1.568  0.2459 -0.1234  0.9015
 2988TIP3    H130523   2.277   0.464   1.645 -0.6365  0.8522  1.5941
 2988TIP3    H230524   2.233   0.381   1.527  2.7660  0.2810  0.6211
 2989TIP3   OH230525   5.554   1.779   2.033  0.1032 -0.2623 -0.1151
 2989TIP3    H130526   5.536   1.700   2.084  1.6524  0.7492  2.1072
 2989TIP3    H230527   5.579   1.746   1.946 -0.6188 -2.1232  0.3348
 2990TIP3   OH230528   5.913   2.412   8.553  0.0380 -0.5252  0.4329
 2990TIP3    H130529   5.901   2.325   8.514 -1.1784 -0.7836  1.3199
 2990TIP3    H230530   6.006   2.418   8.571  0.7465 -0.3185 -2.6471
 2991TIP3   OH230531   0.962   6.495   7.873 -0.1774 -0.4124 -0.0199
 2991TIP3    H130532   0.995   6.541   7.949  0.0735  0.2515 -0.5178
 2991TIP3    H230533   0.896   6.554   7.836  0.4189 -0.2641 -0.8838
 2992TIP3   OH230534   3.878   6.178   1.539 -0.6469  0.1853 -1.0401
 2992TIP3    H130535   3.828   6.248   1.579  2.4020  1.2462  1.2566
 2992TIP3    H230536   3.939   6.222   1.480  0.2957 -0.6607 -0.7215
 2993TIP3   OH230537   4.883   3.003   0.192 -0.6453  0.7011  0.2641
 2993TIP3    H130538   4.790   2.981   0.196 -0.5874  0.4637  0.2886
 2993TIP3    H230539   4.895   3.069   0.261 -0.8856  1.0605 -0.0342
 2994TIP3   OH230540   5.252   1.514   0.440  0.3667 -0.4841 -0.1976
 2994TIP3    H130541   5.285   1.603   0.446  1.6551 -0.8403 -1.4692
 2994TIP3    H230542   5.242   1.486   0.531 -1.2909  1.3530  0.2626
 2995TIP3   OH230543   4.239   2.539   7.261  0.0302  1.1461 -0.4298
 2995TIP3    H130544   4.273   2.473   7.321 -0.7289  1.8834  0.8562
 2995TIP3    H230545   4.263   2.507   7.174 -1.6041 -1.5984  0.0076
 2996TIP3   OH230546   2.250   6.381   8.100 -0.6487 -0.0677  0.1972
 2996TIP3    H130547   2.295   6.350   8.021 -0.4841  0.0273  0.2541
 2996TIP3    H230548   2.205   6.303   8.134 -0.0022 -0.3169  0.5014
 2997TIP3   OH230549   4.509   3.929   8.385  0.0045  0.3619  0.1612
 2997TIP3    H130550   4.443   3.944   8.452 -1.0372 -1.1525 -0.4749
 2997TIP3    H230551   4.459   3.904   8.307  1.2889 -0.1363 -0.5352
 2998TIP3   OH230552   3.801   0.730   0.641  0.4906  0.2275  0.0381
 2998TIP3    H130553   3.823   0.655   0.697 -0.8480 -1.2219 -1.2600
 2998TIP3    H230554   3.721   0.766   0.679  0.4271  0.1968 -0.0658
 2999TIP3   OH230555   3.032   5.509   7.140  0.1766  0.2272 -0.3855
 2999TIP3    H130556   3.089   5.486   7.213 -2.0082  1.2308  1.7530
 2999TIP3    H230557   3.000   5.425   7.108 -0.6198 -0.1682  1.3542
 3000TIP3   OH230558   6.052   1.048   1.186  0.3257 -0.6171 -0.3006
 3000TIP3    H130559   6.085   0.996   1.260  1.0968  1.3704  0.8443
 3000TIP3    H230560   5.971   1.087   1.219  0.4743 -0.0209 -0.6354
 3001TIP3   OH230561   1.619   3.148   7.363  0.3085 -0.0311 -0.4511
 3001TIP3    H130562   1.628   3.183   7.275 -1.4232  0.8430 -0.3125
 3001TIP3    H230563   1.605   3.054   7.350 -1.4055  0.3066 -1.2163
 3002TIP3   OH230564   2.627   3.746   1.620  0.1136 -0.0078 -0.6401
 3002TIP3    H130565   2.702   3.741   1.680 -1.3601  0.2883  1.3156
 3002TIP3    H230566   2.593   3.657   1.618 -0.4933  0.2122 -0.1641
 3003TIP3   OH230567   1.028   4.503   2.549 -0.2531  0.6252 -0.5381
 3003TIP3    H130568   1.002   4.583   2.502  1.6025  0.5645 -1.7865
 3003TIP3    H230569   1.083   4.456   2.487  1.0179 -0.2473  1.1732
 3004TIP3   OH230570   2.049   4.707   1.133  0.0203 -0.2897  0.1945
 3004TIP3    H130571   2.081   4.628   1.175 -0.1984 -0.6132 -0.2435
 3004TIP3    H230572   2.129   4.755   1.109  0.1480 -0.2746  0.6484
 3005TIP3   OH230573   2.234   4.360   8.335  0.8990 -0.5792  0.5965
 3005TIP3    H130574   2.275   4.365   8.422  1.6993 -1.0264  0.2602
 3005TIP3    H230575   2.172   4.287   8.342 -0.4582  0.5915  1.3396
 3006TIP3   OH230576   5.532   1.433   7.808 -0.1081  0.2996  0.0739
 3006TIP3    H130577   5.529   1.522   7.773  2.1111  1.3789  2.2829
 3006TIP3    H230578   5.603   1.390   7.760  1.0152  0.8560  1.1640
 3007TIP3   OH230579   1.013   4.661   8.730  0.6699  0.6072  0.6591
 3007TIP3    H130580   0.958   4.590   8.697  0.3144 -0.5205  3.3917
 3007TIP3    H230581   1.084   4.668   8.666 -2.2795  1.8890 -2.8394
 3008TIP3   OH230582   6.270   6.497   7.546 -0.3050  0.1992  0.2896
 3008TIP3    H130583   6.354   6.532   7.574 -0.9809  1.8000  0.3922
 3008TIP3    H230584   6.220   6.487   7.628 -0.7860  0.8175  0.0747
 3009TIP3   OH230585   0.702   2.117   8.191  0.0322  0.2096  0.0484
 3009TIP3    H130586   0.744   2.050   8.245 -1.0556 -1.0069 -0.5865
 3009TIP3    H230587   0.676   2.072   8.111 -3.2559  0.6459  0.7317
 3010TIP3   OH230588   5.915   1.996   8.160 -0.0655 -0.1409 -0.3956
 3010TIP3    H130589   5.905   1.976   8.067 -0.9663  2.3459 -0.9108
 3010TIP3    H230590   5.835   1.960   8.200 -1.7006  2.1996 -1.3061
 3011TIP3   OH230591   3.328   4.242   6.926 -0.6014  0.0691  0.2843
 3011TIP3    H130592   3.350   4.315   6.867  2.2405 -0.4201  0.6056
 3011TIP3    H230593   3.251   4.201   6.885 -2.0078  2.8834 -0.1555
 3012TIP3   OH230594   4.191   4.915   1.733  0.6416  0.2378  0.6566
 3012TIP3    H130595   4.277   4.932   1.770  0.4398  0.9680  0.8167
 3012TIP3    H230596   4.130   4.941   1.802  0.2156  3.0920 -0.6444
 3013TIP3   OH230597   4.311   4.610   1.024 -0.1424 -0.2788  0.3400
 3013TIP3    H130598   4.337   4.701   1.037  1.0693 -0.6363  0.4816
 3013TIP3    H230599   4.247   4.593   1.093 -0.1928  0.3838  0.4601
 3014TIP3   OH230600   3.236   3.891   0.940  0.7996  0.5389  0.7506
 3014TIP3    H130601   3.226   3.829   1.013  0.5970  0.7741  0.9222
 3014TIP3    H230602   3.318   3.864   0.897  1.9416  1.5529  2.1821
 3015TIP3   OH230603   6.468   2.819   1.620  0.1142  0.1823  0.6429
 3015TIP3    H130604   6.506   2.846   1.536 -0.4005  1.4296  0.7943
 3015TIP3    H230605   6.423   2.737   1.600  0.3884  0.2221 -0.1913
 3016TIP3   OH230606   4.440   6.519   1.311  0.7190  0.3330  0.3478
 3016TIP3    H130607   4.392   6.584   1.362 -0.2511  0.4838 -0.7231
 3016TIP3    H230608   4.424   6.436   1.357 -0.3070  0.4353  0.1945
 3017TIP3   OH230609   4.044   2.558   0.176 -0.3677  0.0021 -0.7565
 3017TIP3    H130610   3.961   2.518   0.149 -0.3107  0.1198 -1.1108
 3017TIP3    H230611   4.052   2.535   0.269 -0.5719 -0.4045 -0.8341
 3018TIP3   OH230612   6.234   1.372   0.062 -0.8490 -0.4208 -0.1920
 3018TIP3    H130613   6.194   1.412  -0.016  1.3211  0.6565 -0.8452
 3018TIP3    H230614   6.326   1.396   0.056 -0.3774 -1.4132  2.0725
 3019TIP3   OH230615   6.684   1.104   7.794  1.0361  0.1975  0.2153
 3019TIP3    H130616   6.666   1.070   7.882  0.5139  2.3801  1.0035
 3019TIP3    H230617   6.765   1.155   7.804  2.3682 -1.5067 -1.1556
 3020TIP3   OH230618   2.874   0.068   0.733  0.4586 -0.1153  0.0161
 3020TIP3    H130619   2.807   0.135   0.720  0.7737  0.4018  0.9748
 3020TIP3    H230620   2.956   0.117   0.744  0.9468 -0.7194 -0.7432
 3021TIP3   OH230621   4.685   1.696   8.099  0.4619 -0.3069  0.1668
 3021TIP3    H130622   4.623   1.729   8.034  0.8287  0.0275 -0.0201
 3021TIP3    H230623   4.650   1.725   8.183  0.6356  0.3430  0.0215
 3022TIP3   OH230624   0.572   1.855   1.326 -0.6759  0.3359  0.4821
 3022TIP3    H130625   0.651   1.873   1.274 -1.4402  1.4964 -0.3446
 3022TIP3    H230626   0.565   1.930   1.385 -1.3931  0.4883  0.2189
 3023TIP3   OH230627   3.783   5.684   7.381 -0.1930 -0.5987 -0.2419
 3023TIP3    H130628   3.695   5.698   7.418 -0.4245 -0.6279 -0.7717
 3023TIP3    H230629   3.808   5.597   7.410  0.5369  0.1779  1.6464
 3024TIP3   OH230630   3.938   3.443   0.756 -0.3013  0.3759 -0.0289
 3024TIP3    H130631   3.856   3.397   0.743  0.4487 -0.6566 -1.4239
 3024TIP3    H230632   3.914   3.536   0.752 -1.2847  0.1026 -1.4813
 3025TIP3   OH230633   4.643   1.126   0.419 -0.4220 -0.2161 -0.3994
 3025TIP3    H130634   4.672   1.190   0.483 -1.4993  1.2580 -1.3269
 3025TIP3    H230635   4.549   1.140   0.411 -0.6575 -1.8141 -0.7474
 3026TIP3   OH230636   5.945   1.882   1.893 -0.1031  0.1271  0.2272
 3026TIP3    H130637   5.914   1.881   1.984 -0.6534  0.9245  0.0571
 3026TIP3    H230638   5.998   1.962   1.888 -0.0119  0.0422 -0.1295
 3027TIP3   OH230639   2.603   0.783   6.891  0.0601  0.2428 -0.2367
 3027TIP3    H130640   2.512   0.801   6.872  0.4540  1.8420 -0.6983
 3027TIP3    H230641   2.639   0.866   6.921  1.5738 -0.1290 -0.9187
 3028TIP3   OH230642   2.332   2.960   1.716 -0.0924 -0.7438 -0.0135
 3028TIP3    H130643   2.282   2.879   1.732  0.9704 -1.7632 -1.5573
 3028TIP3    H230644   2.372   2.980   1.801 -0.5126 -1.7614  0.4476
 3029TIP3   OH230645   3.877   1.595   7.477  0.0980 -0.2427 -0.4812
 3029TIP3    H130646   3.880   1.678   7.431 -0.5860 -0.6582 -1.3200
 3029TIP3    H230647   3.968   1.571   7.491  0.3149  1.1118  0.6766
 3030TIP3   OH230648   6.466   0.623   8.183 -0.2275  0.0106 -0.5549
 3030TIP3    H130649   6.445   0.717   8.178  2.5283  0.8505  1.2017
 3030TIP3    H230650   6.483   0.597   8.092  0.1139  1.5481 -0.9627
 3031TIP3   OH230651   4.223   2.821   7.146 -0.8057 -0.1469 -0.2199
 3031TIP3    H130652   4.160   2.764   7.191 -0.1340 -1.4110 -0.8194
 3031TIP3    H230653   4.256   2.879   7.215 -1.3100 -0.6670  0.4728
 3032TIP3   OH230654   4.788   0.555   8.098  0.4158 -0.1670 -0.2762
 3032TIP3    H130655   4.820   0.561   8.008  1.4700 -0.1937  0.0816
 3032TIP3    H230656   4.818   0.637   8.139  0.0269 -0.1988  0.0739
 3033TIP3   OH230657   1.338   1.896   7.426 -0.0064  0.0404  0.4204
 3033TIP3    H130658   1.421   1.859   7.457  1.2660  0.0225 -2.7015
 3033TIP3    H230659   1.293   1.822   7.386 -0.5700  0.4988  0.1999
 3034TIP3   OH230660   5.044   6.663   8.077  0.0872 -0.3596  0.1813
 3034TIP3    H130661   4.951   6.666   8.101  0.2160  2.7488  0.7117
 3034TIP3    H230662   5.073   6.576   8.107 -2.1735 -0.6547  1.8473
 3035TIP3   OH230663   0.027   4.201   0.481  0.3165  0.2933  0.6098
 3035TIP3    H130664   0.013   4.113   0.446 -0.5331  1.1784 -1.5125
 3035TIP3    H230665  -0.038   4.210   0.551 -1.6064  0.1265 -1.0284
 3036TIP3   OH230666   5.395   0.740   0.918 -0.1768 -0.0634  0.2817
 3036TIP3    H130667   5.365   0.761   0.830 -1.2978  1.6130  1.0189
 3036TIP3    H230668   5.371   0.648   0.931  0.2634 -0.4180 -1.2354
 3037TIP3   OH230669   4.910   2.250   7.511  0.0448 -0.0714  0.1231
 3037TIP3    H130670   4.973   2.276   7.579 -0.0340 -1.2609  0.6832
 3037TIP3    H230671   4.830   2.231   7.560 -1.0942  2.3162 -0.6663
 3038TIP3   OH230672   5.081   5.628   8.572 -0.2819 -0.4282 -0.2376
 3038TIP3    H130673   5.060   5.535   8.580  2.9434 -1.2599 -0.2067
 3038TIP3    H230674   5.168   5.630   8.534  0.3155  2.5640  0.9967
 3039TIP3   OH230675   4.854   0.481   2.002  0.2490  0.1715 -0.1105
 3039TIP3    H130676   4.820   0.396   2.031  0.7003 -0.0956 -0.3437
 3039TIP3    H230677   4.920   0.505   2.068 -0.3747  0.6823  0.3362
 3040TIP3   OH230678   3.253   1.555   6.463 -0.1077 -0.2382 -0.0436
 3040TIP3    H130679   3.250   1.592   6.374 -0.0109  1.3672  0.5839
 3040TIP3    H230680   3.175   1.499   6.468 -1.8936  2.0826 -0.1685
 3041TIP3   OH230681   4.648   0.167   8.127 -0.5488  0.2116  0.3869
 3041TIP3    H130682   4.571   0.195   8.177  0.4826 -0.1929  2.3045
 3041TIP3    H230683   4.720   0.218   8.163  0.0875  0.7206 -1.5045
 3042TIP3   OH230684   3.448   5.022   8.136  0.2358 -0.0856  0.0001
 3042TIP3    H130685   3.505   5.014   8.060 -0.9430 -0.0250 -0.9175
 3042TIP3    H230686   3.469   5.108   8.173 -0.3734  0.6250 -1.2684
 3043TIP3   OH230687   2.112   6.573   0.606  0.7482  0.4039 -0.0722
 3043TIP3    H130688   2.206   6.575   0.589  0.9567  1.2262  1.0309
 3043TIP3    H230689   2.101   6.625   0.686 -0.4666 -0.8600  0.6402
 3044TIP3   OH230690   2.217   0.059   1.106 -0.4169 -0.1114 -0.2294
 3044TIP3    H130691   2.164   0.005   1.166  0.4962 -0.7315  0.0445
 3044TIP3    H230692   2.199   0.023   1.020 -0.7255 -0.0872 -0.1745
 3045TIP3   OH230693   6.560   3.660   0.520  0.0377  0.3652  0.0925
 3045TIP3    H130694   6.611   3.581   0.540 -0.7409 -1.2966 -3.5464
 3045TIP3    H230695   6.473   3.641   0.555  0.1118  0.0632  0.1207
 3046TIP3   OH230696   3.594   4.223   7.007  0.3146 -0.0182  0.0161
 3046TIP3    H130697   3.620   4.239   6.916  1.9487  1.5404  0.6973
 3046TIP3    H230698   3.501   4.203   7.002  0.6171 -1.2631 -2.1178
 3047TIP3   OH230699   4.572   2.695   6.668  0.7744  0.0437 -0.5046
 3047TIP3    H130700   4.521   2.775   6.654 -1.5717 -1.0366  1.1791
 3047TIP3    H230701   4.534   2.632   6.607  1.9172 -0.1013 -1.0944
 3048TIP3   OH230702   5.856   0.557   1.816 -0.0070  0.4985 -0.3231
 3048TIP3    H130703   5.798   0.482   1.824 -0.7675  1.1851  0.9946
 3048TIP3    H230704   5.822   0.606   1.741 -0.0120 -0.0321 -0.6719
 3049TIP3   OH230705   0.929   0.734   6.849  0.0051  0.1235  0.7116
 3049TIP3    H130706   0.989   0.661   6.860  0.0455  0.0369 -0.0038
 3049TIP3    H230707   0.977   0.795   6.793 -0.4949  0.1445  0.3029
 3050TIP3   OH230708   5.181   6.472   8.276  0.9398  0.2185  0.0309
 3050TIP3    H130709   5.094   6.434   8.263  0.6427  0.5252  1.0201
 3050TIP3    H230710   5.178   6.508   8.365  2.1303  0.1110  0.1258
 3051TIP3   OH230711   1.736   1.099   0.759  0.5326 -0.2553  1.0782
 3051TIP3    H130712   1.787   1.088   0.679  2.2746  1.0902  1.9350
 3051TIP3    H230713   1.769   1.032   0.818 -0.2097 -0.7410  0.9619
 3052TIP3   OH230714   0.634   1.837   8.317 -0.0993  0.2510  0.0708
 3052TIP3    H130715   0.562   1.777   8.338  0.1848  0.0447  0.4787
 3052TIP3    H230716   0.635   1.842   8.222  1.1408 -1.9740 -0.0909
 3053TIP3   OH230717   5.918   3.926   7.776 -0.1076  0.1560  0.3181
 3053TIP3    H130718   5.882   3.839   7.765  1.5672 -0.4397 -0.8049
 3053TIP3    H230719   5.916   3.941   7.871  3.9034 -3.1240  1.2066
 3054TIP3   OH230720   5.937   4.655   2.231  0.1737  0.9774 -0.3090
 3054TIP3    H130721   6.015   4.711   2.230  0.0856  1.1224 -2.1798
 3054TIP3    H230722   5.863   4.715   2.225  0.0099  0.7505 -0.6096
 3055TIP3   OH230723   6.542   2.735   1.344  0.4131 -0.4746 -0.4277
 3055TIP3    H130724   6.504   2.774   1.265 -1.1880  0.4997  0.7515
 3055TIP3    H230725   6.547   2.642   1.325  0.5138 -0.2050 -1.8366
 3056TIP3   OH230726   4.840   2.771   0.507  0.3833  0.4275  0.1706
 3056TIP3    H130727   4.899   2.712   0.460 -0.7727 -0.3743 -0.2991
 3056TIP3    H230728   4.820   2.726   0.589  0.6981  0.8617  0.4913
 3057TIP3   OH230729   5.433   0.114   0.773 -0.0159  0.0103  0.3083
 3057TIP3    H130730   5.344   0.150   0.776  0.0621  0.2202  0.1307
 3057TIP3    H230731   5.471   0.150   0.693  0.5663  0.7205  0.8969
 3058TIP3   OH230732   3.380   6.597   0.252 -0.1965 -0.3327  0.0177
 3058TIP3    H130733   3.460   6.589   0.304  0.8890  0.7724 -1.4190
 3058TIP3    H230734   3.351   6.687   0.267 -2.6296 -1.3737  2.4668
 3059TIP3   OH230735   5.567   6.372   0.097 -0.0397  0.0118  0.4347
 3059TIP3    H130736   5.638   6.338   0.152  0.0754  0.5461  0.6199
 3059TIP3    H230737   5.521   6.294   0.067  0.5125 -0.3314  0.4682
 3060TIP3   OH230738   3.095   4.743   7.282  0.8650  0.2435  0.1100
 3060TIP3    H130739   3.186   4.714   7.285  0.8387  0.0967 -0.4149
 3060TIP3    H230740   3.051   4.681   7.223  0.1810 -0.3360  1.2086
 3061TIP3   OH230741   2.196   1.719   7.296  0.3380 -0.0528 -0.8044
 3061TIP3    H130742   2.266   1.696   7.235  1.0478 -2.2821  0.7267
 3061TIP3    H230743   2.239   1.768   7.365  0.0439  0.1612 -0.7715
 3062TIP3   OH230744   4.355   4.528   8.313 -0.1135  0.2158  0.2387
 3062TIP3    H130745   4.351   4.557   8.222 -1.2780  0.3432  0.3221
 3062TIP3    H230746   4.417   4.587   8.354  2.2943 -1.2794 -0.9691
 3063TIP3   OH230747   3.302   3.073   0.222 -0.0433 -0.6249 -0.4040
 3063TIP3    H130748   3.306   3.038   0.133  2.7427  1.3406 -1.2013
 3063TIP3    H230749   3.391   3.060   0.256 -0.2830  1.1658  1.0546
 3064TIP3   OH230750   5.392   5.162   1.819 -0.3975  0.1826  0.2419
 3064TIP3    H130751   5.459   5.141   1.884  1.4528  0.4101 -1.4969
 3064TIP3    H230752   5.406   5.099   1.749 -0.8711  1.3191 -0.9144
 3065TIP3   OH230753   6.017   5.610   6.597 -0.1464 -0.2014 -0.4474
 3065TIP3    H130754   6.053   5.692   6.563  2.3031 -0.4699  1.2834
 3065TIP3    H230755   6.085   5.545   6.582  0.3248 -0.7119  3.0546
 3066TIP3   OH230756   0.505   5.598   7.865  0.3484  0.1387  0.1845
 3066TIP3    H130757   0.561   5.648   7.806  0.5029  0.7960  0.8709
 3066TIP3    H230758   0.431   5.570   7.811  0.4099  0.8582 -0.2804
 3067TIP3   OH230759   4.811   1.296   1.687 -0.3702  0.2802  0.2266
 3067TIP3    H130760   4.885   1.253   1.644 -1.1155  1.0707 -1.9914
 3067TIP3    H230761   4.835   1.300   1.779  2.0876  0.0049 -0.3498
 3068TIP3   OH230762   5.087   1.469   7.666 -0.2455  1.0712  0.4156
 3068TIP3    H130763   5.092   1.502   7.756  1.0319  1.7335  0.1211
 3068TIP3    H230764   5.175   1.436   7.648 -0.3922  1.2569 -0.7026
 3069TIP3   OH230765   0.529   5.375   1.470  0.1717  0.6828 -0.0595
 3069TIP3    H130766   0.568   5.344   1.389 -1.1913 -0.1715 -0.4285
 3069TIP3    H230767   0.544   5.470   1.470  1.5284  0.4906 -0.5319
 3070TIP3   OH230768   1.288   4.308   0.439 -0.1317 -0.2084  0.2956
 3070TIP3    H130769   1.322   4.279   0.355 -0.2781  2.6781 -0.8498
 3070TIP3    H230770   1.195   4.284   0.437 -0.0260 -0.5847 -0.1468
 3071TIP3   OH230771   4.427   1.772   0.667  0.1350  0.2850 -0.3241
 3071TIP3    H130772   4.356   1.836   0.672  0.7618  0.9496  0.6083
 3071TIP3    H230773   4.390   1.698   0.620 -0.7870  1.1085 -0.9356
 3072TIP3   OH230774   3.389   6.676   8.094 -0.1005  0.1483 -0.5336
 3072TIP3    H130775   3.373   6.748   8.155  0.9791 -1.6095  2.0157
 3072TIP3    H230776   3.318   6.613   8.113  1.1784 -1.1406  0.1673
 3073TIP3   OH230777   3.436   2.887   1.576 -0.8528 -0.2935 -0.2576
 3073TIP3    H130778   3.399   2.822   1.515  0.7405 -2.1445  0.6173
 3073TIP3    H230779   3.405   2.859   1.662 -1.0035  0.7776  0.0505
 3074TIP3   OH230780   6.305   5.134   8.256  0.0798 -0.1444 -0.1870
 3074TIP3    H130781   6.273   5.090   8.334  0.7531  0.7259  0.5984
 3074TIP3    H230782   6.300   5.067   8.187  0.3059 -1.1810  0.7826
 3075TIP3   OH230783   2.121   6.654   2.324 -0.1329  0.0995 -0.5325
 3075TIP3    H130784   2.207   6.659   2.283  0.5015  1.6623  0.8579
 3075TIP3    H230785   2.088   6.744   2.322 -0.5280  0.0410  1.2995
 3076TIP3   OH230786   3.200   2.574   7.737  0.8600  0.2300 -0.1893
 3076TIP3    H130787   3.146   2.575   7.658  0.4832 -2.0916 -0.0463
 3076TIP3    H230788   3.284   2.538   7.708  0.9192 -0.0771  0.3491
 3077TIP3   OH230789   6.185   6.509   8.410 -0.7271  0.0154 -0.0481
 3077TIP3    H130790   6.116   6.568   8.441  0.0577  0.5874  0.6728
 3077TIP3    H230791   6.161   6.423   8.446 -2.7626 -0.5453 -2.4472
 3078TIP3   OH230792   3.677   4.652   0.591 -0.2526  0.3339 -0.0352
 3078TIP3    H130793   3.670   4.598   0.669 -2.4064 -0.5927 -0.7795
 3078TIP3    H230794   3.722   4.597   0.527  1.1301  0.9376  0.3803
 3079TIP3   OH230795   3.658   4.075   0.509 -0.3533  0.1623  0.0483
 3079TIP3    H130796   3.675   4.049   0.418 -1.8681 -1.1884  0.0996
 3079TIP3    H230797   3.604   4.154   0.502  0.0419  0.4110 -0.2134
 3080TIP3   OH230798   4.135   4.738   1.455  0.5883 -0.0904  0.7464
 3080TIP3    H130799   4.225   4.717   1.480  1.1134  1.0154 -0.1059
 3080TIP3    H230800   4.130   4.834   1.461  0.2036  0.0829 -1.4884
 3081TIP3   OH230801   6.545   3.899   1.425 -0.2481 -0.3306 -0.4669
 3081TIP3    H130802   6.530   3.809   1.452  0.5013 -0.4776 -0.5172
 3081TIP3    H230803   6.465   3.945   1.450  0.7784 -0.2097  3.1799
 3082TIP3   OH230804   2.162   6.500   8.686 -0.0510 -0.0468 -0.1699
 3082TIP3    H130805   2.142   6.594   8.685 -0.2199 -0.0849 -0.3920
 3082TIP3    H230806   2.240   6.491   8.632  0.2082  0.0206  0.1916
 3083TIP3   OH230807   0.111   1.412   7.923 -0.0553 -0.5421  0.2334
 3083TIP3    H130808   0.150   1.354   7.859  0.5370 -0.5967  0.6309
 3083TIP3    H230809   0.029   1.441   7.884  1.3217  1.2309 -1.5535
 3084TIP3   OH230810   1.650   2.755   1.524  0.2673  0.0316 -0.5076
 3084TIP3    H130811   1.615   2.790   1.606  0.3594 -1.0152 -0.0030
 3084TIP3    H230812   1.736   2.797   1.516  0.3988 -0.1013  0.1074
 3085TIP3   OH230813   0.558   6.028   1.030 -0.0515 -0.9365 -0.1905
 3085TIP3    H130814   0.537   6.121   1.032  1.6134 -0.5047 -0.6101
 3085TIP3    H230815   0.474   5.984   1.016 -1.0817  0.3877  1.4837
 3086TIP3   OH230816   4.572   5.546   8.514  0.0069  0.4442 -0.3781
 3086TIP3    H130817   4.500   5.609   8.506  0.3830  0.8903 -0.3054
 3086TIP3    H230818   4.529   5.461   8.519 -0.4973  0.6555 -0.9087
 3087TIP3   OH230819   3.232   0.894   8.021 -0.1001 -0.5299 -0.1420
 3087TIP3    H130820   3.145   0.933   8.026  0.2490  0.2008  0.5765
 3087TIP3    H230821   3.240   0.864   7.930 -1.0870 -0.5970 -0.2189
 3088TIP3   OH230822   4.232   1.043   7.066 -0.1282 -0.5498 -0.2473
 3088TIP3    H130823   4.317   1.046   7.109  0.1195  1.0638 -0.7917
 3088TIP3    H230824   4.238   0.968   7.006  1.4367  0.3473 -1.2905
 3089TIP3   OH230825   5.791   0.189   7.454 -0.5023 -0.1414  0.2211
 3089TIP3    H130826   5.730   0.201   7.527 -0.2357 -1.6863  0.7336
 3089TIP3    H230827   5.784   0.096   7.432  0.9287 -0.1345 -0.3713
 3090TIP3   OH230828   2.291   3.529   1.479  0.2394  0.2204 -0.4390
 3090TIP3    H130829   2.303   3.436   1.499 -0.3865  0.1650 -0.2928
 3090TIP3    H230830   2.311   3.574   1.561 -2.3639 -0.0096  0.4205
 3091TIP3   OH230831   3.085   5.386   2.405  0.1193 -0.2676 -0.0704
 3091TIP3    H130832   3.159   5.362   2.349  1.7437 -1.8088  2.5176
 3091TIP3    H230833   3.034   5.305   2.413 -1.5762  0.6229 -1.3354
 3092TIP3   OH230834   1.624   3.751   0.103 -0.0771  0.3141  0.2454
 3092TIP3    H130835   1.554   3.763   0.168 -0.2383 -1.3864  0.4389
 3092TIP3    H230836   1.619   3.658   0.081  0.2429  0.7675 -1.9096
 3093TIP3   OH230837   3.638   1.660   8.169 -0.2129 -0.3724  0.0807
 3093TIP3    H130838   3.569   1.605   8.131 -1.8122  2.4075 -1.3903
 3093TIP3    H230839   3.713   1.647   8.112 -0.6179 -0.8486 -0.3568
 3094TIP3   OH230840   4.800   0.111   7.913 -0.0289  0.3357  0.1575
 3094TIP3    H130841   4.872   0.175   7.909 -0.2652  0.5650 -0.5109
 3094TIP3    H230842   4.773   0.112   8.004  0.5303  0.5727  0.3287
 3095TIP3   OH230843   0.840   2.822   8.740  0.1096 -0.4944 -0.2468
 3095TIP3    H130844   0.935   2.815   8.751  0.0290 -0.6798  0.3686
 3095TIP3    H230845   0.816   2.904   8.784 -0.0926 -0.7676  0.1643
 3096TIP3   OH230846   5.031   5.850   1.913 -0.1263  0.4178  0.3200
 3096TIP3    H130847   5.029   5.761   1.876  0.6859 -0.2374  1.7685
 3096TIP3    H230848   5.055   5.906   1.839 -0.7322 -0.5367 -0.6401
 3097TIP3   OH230849   4.234   4.743   7.216 -0.2633  0.3681  0.6431
 3097TIP3    H130850   4.270   4.826   7.185  0.4904 -0.1785 -0.0223
 3097TIP3    H230851   4.141   4.761   7.232 -0.2356  1.1924 -0.0436
 3098TIP3   OH230852   5.147   4.828   0.612  0.2330 -0.0308  0.1949
 3098TIP3    H130853   5.141   4.745   0.565  0.1555  0.8414 -1.4141
 3098TIP3    H230854   5.229   4.867   0.582  0.1622  0.5726  0.7665
 3099TIP3   OH230855   1.898   5.927   1.456  0.2949 -0.0136  0.7497
 3099TIP3    H130856   1.959   5.996   1.481  1.0603 -0.2953 -0.2805
 3099TIP3    H230857   1.837   5.922   1.529  1.3631  0.4311  1.7040
 3100TIP3   OH230858   3.894   0.161   7.558 -0.3302  0.3635  0.4630
 3100TIP3    H130859   3.988   0.174   7.550 -0.0244 -0.8362  1.6247
 3100TIP3    H230860   3.857   0.249   7.560  0.8615  0.8718  0.8017
 3101TIP3   OH230861   2.915   0.821   8.373 -0.0328  0.2403  0.1740
 3101TIP3    H130862   2.905   0.769   8.453  1.0435 -0.3344 -0.0536
 3101TIP3    H230863   2.929   0.911   8.405 -0.4788  0.1601  0.6038
 3102TIP3   OH230864   5.772   1.894   7.483 -0.7475  0.2707 -0.1034
 3102TIP3    H130865   5.733   1.884   7.396 -1.2724 -1.2003  0.2654
 3102TIP3    H230866   5.866   1.889   7.469 -0.7738  1.3322 -0.7212
 3103TIP3   OH230867   4.450   5.003   8.221  0.1069 -0.2464 -0.1253
 3103TIP3    H130868   4.387   5.075   8.224 -1.9780 -1.9085 -1.0172
 3103TIP3    H230869   4.396   4.924   8.215  2.2558 -1.7164 -2.4701
 3104TIP3   OH230870   2.403   4.280   1.292 -0.0023  0.1810  0.1011
 3104TIP3    H130871   2.309   4.282   1.308 -0.3007  0.1269 -1.4788
 3104TIP3    H230872   2.443   4.285   1.379 -1.4499  0.9219  0.7454
 3105TIP3   OH230873   2.403   2.313   1.233  0.5213 -0.4406  0.1943
 3105TIP3    H130874   2.406   2.218   1.244 -1.0824 -0.4471  0.8196
 3105TIP3    H230875   2.366   2.325   1.146  0.1452 -0.3876  0.3618
 3106TIP3   OH230876   2.390   2.621   1.631 -0.3285 -0.1528 -0.7336
 3106TIP3    H130877   2.342   2.696   1.596 -1.5623 -0.7090 -0.2938
 3106TIP3    H230878   2.403   2.642   1.724 -0.5011 -0.3886 -0.6548
 3107TIP3   OH230879   2.760   1.228   2.310 -0.3063  0.4775  0.5486
 3107TIP3    H130880   2.704   1.256   2.238  0.6492  1.0796  0.0224
 3107TIP3    H230881   2.763   1.133   2.303  1.3617  0.6297 -1.4354
 3108TIP3   OH230882   1.245   3.721   7.026 -0.0004  0.2941 -0.0062
 3108TIP3    H130883   1.243   3.710   7.121  0.7199  0.7038  0.0693
 3108TIP3    H230884   1.195   3.801   7.011 -2.4855 -1.1957 -0.2574
 3109TIP3   OH230885   4.932   1.030   7.623  0.1692 -0.2548  0.2622
 3109TIP3    H130886   4.844   0.991   7.616 -0.2489  0.7580 -0.3411
 3109TIP3    H230887   4.929   1.083   7.702  0.4560 -0.7540  0.6080
 3110TIP3   OH230888   5.981   1.662   6.986 -0.1966  0.4096  0.2273
 3110TIP3    H130889   5.950   1.752   6.980  0.3243  0.6105  0.4454
 3110TIP3    H230890   5.974   1.640   7.079 -0.1822  0.2763  0.1977
 3111TIP3   OH230891   6.107   1.251   1.586  0.1820  0.2053  0.5816
 3111TIP3    H130892   6.156   1.177   1.550  0.8638  0.4659  0.9503
 3111TIP3    H230893   6.112   1.239   1.681  0.9582  1.1290  0.6736
 3112TIP3   OH230894   0.027   5.958   8.608 -0.2286  0.2381  0.0143
 3112TIP3    H130895   0.021   6.037   8.555  0.0204  0.8306  0.8574
 3112TIP3    H230896   0.045   5.989   8.697  1.3065 -0.8145  0.1157
 3113TIP3   OH230897   5.710   1.007   8.071 -0.3941  0.1023 -0.0779
 3113TIP3    H130898   5.669   0.959   7.999  3.5775 -0.0203 -2.5337
 3113TIP3    H230899   5.693   1.099   8.051  2.1557  0.1799 -2.3864
 3114TIP3   OH230900   4.300   4.041   1.634 -0.3249 -0.2897 -0.5078
 3114TIP3    H130901   4.275   4.045   1.541 -0.4186  1.5464 -0.4387
 3114TIP3    H230902   4.227   4.081   1.681  1.1224  1.9686 -0.0003
 3115TIP3   OH230903   6.297   4.370   7.282  0.4144 -0.1699 -0.1464
 3115TIP3    H130904   6.388   4.361   7.253  1.0677  1.7347  1.0679
 3115TIP3    H230905   6.261   4.282   7.278  1.2673 -0.4963 -3.8488
 3116TIP3   OH230906   3.138   0.976   0.006  0.7406  0.5526 -0.5551
 3116TIP3    H130907   3.152   0.916  -0.067  1.2166 -0.7341  0.5631
 3116TIP3    H230908   3.058   0.946   0.048  1.5563 -0.0266  0.6618
 3117TIP3   OH230909   1.956   3.024   8.313  0.1678 -0.0455  0.0698
 3117TIP3    H130910   2.043   3.060   8.297 -0.9268  2.2449 -1.1988
 3117TIP3    H230911   1.899   3.071   8.252 -1.8131 -2.2554  0.0725
 3118TIP3   OH230912   3.263   2.232   2.139  0.3309 -0.4868 -0.1617
 3118TIP3    H130913   3.243   2.151   2.092 -0.5591 -0.1760 -0.3234
 3118TIP3    H230914   3.178   2.267   2.166  0.7902 -0.5191  1.4606
 3119TIP3   OH230915   2.185   4.633   1.664 -0.3896 -0.0605  0.5643
 3119TIP3    H130916   2.220   4.545   1.671 -1.9057 -0.6244  1.6091
 3119TIP3    H230917   2.259   4.687   1.636  0.9744 -1.3694  1.5356
 3120TIP3   OH230918   3.184   5.852   1.949  0.7655 -0.2872  0.3582
 3120TIP3    H130919   3.209   5.887   2.034  0.6937  0.8979 -0.0858
 3120TIP3    H230920   3.088   5.856   1.949  0.6931 -1.6120  0.7472
 3121TIP3   OH230921   0.085   6.347   2.535  0.7165  0.0117  0.1707
 3121TIP3    H130922   0.101   6.433   2.574 -0.1369  0.4475 -0.4132
 3121TIP3    H230923   0.119   6.354   2.446  1.1676 -0.4559  0.2968
 3122TIP3   OH230924   1.058   6.200   7.075  0.3392 -0.3926  0.1118
 3122TIP3    H130925   0.963   6.190   7.079  0.5198 -2.2534  0.6841
 3122TIP3    H230926   1.091   6.149   7.149  1.8013  0.0180 -0.2270
 3123TIP3   OH230927   2.456   0.069   1.445 -0.4536 -0.7544  0.1914
 3123TIP3    H130928   2.490  -0.017   1.472  1.7290 -0.1833 -0.5337
 3123TIP3    H230929   2.463   0.068   1.349  1.9970  1.0915  0.2720
 3124TIP3   OH230930   2.841   4.178   7.399 -0.1713 -0.2814 -0.2913
 3124TIP3    H130931   2.835   4.269   7.372  1.7422  0.3033  1.0809
 3124TIP3    H230932   2.828   4.129   7.318  0.2114  1.2539 -1.3293
 3125TIP3   OH230933   6.456   6.661   8.377  0.2688 -0.3280 -0.0154
 3125TIP3    H130934   6.377   6.608   8.375 -0.4462  0.7278 -1.7712
 3125TIP3    H230935   6.503   6.638   8.297  1.6169 -0.7015  0.8399
 3126TIP3   OH230936   3.112   2.757   0.241  0.0129 -1.0833 -0.7387
 3126TIP3    H130937   3.186   2.818   0.245 -0.7377 -0.1717 -0.3898
 3126TIP3    H230938   3.152   2.670   0.254  1.4071 -0.9621 -3.5644
 3127TIP3   OH230939   5.916   0.965   1.517  0.3473  0.4716  0.3782
 3127TIP3    H130940   5.879   1.054   1.514 -0.5768  0.2897  3.0928
 3127TIP3    H230941   5.970   0.966   1.596  2.9339 -0.5145 -1.2831
 3128TIP3   OH230942   1.719   3.244   1.165 -0.0511 -0.2699 -0.3623
 3128TIP3    H130943   1.764   3.268   1.246 -0.3346  1.7188 -0.7426
 3128TIP3    H230944   1.762   3.163   1.137  0.5536 -0.5949  1.3631
 3129TIP3   OH230945   2.696   0.099   6.310  0.2848 -1.0529 -0.7236
 3129TIP3    H130946   2.788   0.100   6.334  0.4768 -1.6731 -1.4079
 3129TIP3    H230947   2.679   0.186   6.273  1.1322 -1.6110 -2.5365
 3130TIP3   OH230948   3.919   0.275   1.877  0.6789  0.0174  0.4243
 3130TIP3    H130949   3.919   0.330   1.799  3.0083  0.6267  0.7554
 3130TIP3    H230950   3.873   0.326   1.943  3.2889  1.9750  0.8925
 3131TIP3   OH230951   3.720   5.940   1.468  0.5401  0.7282  0.1479
 3131TIP3    H130952   3.731   5.948   1.373 -1.2037  1.4075 -0.0296
 3131TIP3    H230953   3.780   6.006   1.504 -1.2079  2.8967 -0.6712
 3132TIP3   OH230954   5.188   6.007   1.724 -0.2302  1.1313 -0.1013
 3132TIP3    H130955   5.193   6.092   1.680 -0.1962  0.6623 -1.0424
 3132TIP3    H230956   5.251   6.014   1.796  1.3449  1.2245 -1.4158
 3133TIP3   OH230957   0.175   5.176   8.085  0.1677  0.2149 -0.3216
 3133TIP3    H130958   0.166   5.081   8.074  2.9344 -0.2755  0.8169
 3133TIP3    H230959   0.097   5.212   8.043 -0.0607 -2.4353 -2.4786
 3134TIP3   OH230960   3.567   6.558   0.446 -0.2578 -0.3591  0.4283
 3134TIP3    H130961   3.554   6.566   0.541 -1.8937  0.8908  0.1465
 3134TIP3    H230962   3.660   6.577   0.433 -0.0221 -0.4992  1.7698
 3135TIP3   OH230963   4.871   1.968   0.981 -0.0082 -0.2616 -0.0182
 3135TIP3    H130964   4.887   1.975   1.075 -0.5605 -0.5451  0.1032
 3135TIP3    H230965   4.787   1.923   0.974 -0.3919  0.5270 -0.6429
 3136TIP3   OH230966   4.597   3.845   0.299 -0.2109  0.1713 -0.2428
 3136TIP3    H130967   4.587   3.789   0.222  0.3569 -0.9098  0.4405
 3136TIP3    H230968   4.661   3.800   0.354 -0.1029  1.2538  0.5679
 3137TIP3   OH230969   1.367   5.633   1.469  0.5866 -0.3653 -0.2853
 3137TIP3    H130970   1.339   5.594   1.386  1.5172 -0.8923 -0.3663
 3137TIP3    H230971   1.436   5.695   1.445  1.6916 -1.3661  0.1720
 3138TIP3   OH230972   1.027   1.629   0.702  0.4064  0.2476 -0.0569
 3138TIP3    H130973   1.095   1.612   0.768 -0.8021 -0.5456  1.0119
 3138TIP3    H230974   0.975   1.700   0.739  0.2655  0.4142 -0.5739
 3139TIP3   OH230975   2.686   6.702   0.325 -0.0309  0.3397 -0.4128
 3139TIP3    H130976   2.734   6.689   0.406  0.2886 -0.0279 -0.6568
 3139TIP3    H230977   2.748   6.744   0.266  0.2470 -0.8006 -0.9711
 3140TIP3   OH230978   4.866   5.215   1.648 -0.0681 -0.3149  0.8106
 3140TIP3    H130979   4.952   5.218   1.606 -0.7539 -1.1252 -0.7179
 3140TIP3    H230980   4.876   5.150   1.718  0.1784 -1.5530 -0.3378
 3141TIP3   OH230981   3.766   6.288   7.799 -0.2029  0.2960  0.1432
 3141TIP3    H130982   3.798   6.305   7.711  1.8990 -0.0204  0.7882
 3141TIP3    H230983   3.777   6.372   7.845  0.1526  0.0607  0.4939
 3142TIP3   OH230984   3.204   3.062   1.044 -0.2726 -0.1251 -0.1796
 3142TIP3    H130985   3.175   3.008   1.118  0.9511  0.1944  0.5635
 3142TIP3    H230986   3.285   3.019   1.014 -1.1448 -0.6985 -1.8596
 3143TIP3   OH230987   5.664   3.609   8.404  0.3489  0.5937  0.4797
 3143TIP3    H130988   5.640   3.593   8.313 -0.7726 -0.1084  0.8770
 3143TIP3    H230989   5.632   3.698   8.422  0.0953  0.5348  0.3268
 3144TIP3   OH230990   6.050   1.208   2.416 -0.3789 -0.1284  0.2041
 3144TIP3    H130991   6.007   1.136   2.369 -2.8592  0.5641  1.2341
 3144TIP3    H230992   6.043   1.283   2.356  0.0678 -0.1740  0.0900
 3145TIP3   OH230993   6.205   1.559   1.027  0.2741  0.1262  0.2752
 3145TIP3    H130994   6.169   1.643   1.057 -0.8137 -0.1327 -0.2430
 3145TIP3    H230995   6.177   1.496   1.094  1.1521  0.1793  0.7023
 3146TIP3   OH230996   4.032   5.943   1.255 -0.6921 -0.1080 -0.6356
 3146TIP3    H130997   3.937   5.950   1.244 -0.9390 -1.6474  0.2218
 3146TIP3    H230998   4.052   5.853   1.230  0.5791  0.2427 -0.9385
 3147TIP3   OH230999   0.830   5.877   0.745 -0.6063 -0.3993 -0.2061
 3147TIP3    H131000   0.738   5.859   0.724 -0.4072 -0.8479 -0.7162
 3147TIP3    H231001   0.879   5.838   0.672 -0.0479  0.3932 -0.2656
 3148TIP3   OH231002   1.727   0.699   0.849 -0.0196  0.6905 -0.2639
 3148TIP3    H131003   1.719   0.679   0.942  0.8388 -0.6196 -0.4495
 3148TIP3    H231004   1.774   0.781   0.846  0.8358  0.2424  0.4465
 3149TIP3   OH231005   6.056   4.346   7.687  0.0434 -0.6843  0.4992
 3149TIP3    H131006   5.994   4.275   7.672 -0.0716 -0.9792  2.1829
 3149TIP3    H231007   6.142   4.303   7.684  0.1548 -0.4066 -1.0847
 3150TIP3   OH231008   1.715   0.517   0.451  0.1995 -0.0275 -0.0893
 3150TIP3    H131009   1.776   0.553   0.386  2.3517 -0.9353  1.2972
 3150TIP3    H231010   1.767   0.452   0.499 -2.0975 -1.3973  0.7390
 3151TIP3   OH231011   2.234   1.668   1.388  0.3815 -0.3506  0.0491
 3151TIP3    H131012   2.173   1.740   1.369  0.6479 -0.5142 -1.5915
 3151TIP3    H231013   2.178   1.592   1.403  0.0788  0.2142  2.1520
 3152TIP3   OH231014   2.410   4.418   7.643  0.1304  0.2143 -0.9769
 3152TIP3    H131015   2.434   4.391   7.732  0.0045  2.5350 -0.1694
 3152TIP3    H231016   2.328   4.372   7.625  0.3434 -0.5706 -0.0475
 3153TIP3   OH231017   0.207   5.930   1.192  0.6511 -0.3478 -0.1347
 3153TIP3    H131018   0.221   5.921   1.098 -4.5483  1.7658 -1.5069
 3153TIP3    H231019   0.187   5.841   1.222  1.4922 -0.9222 -1.2385
 3154TIP3   OH231020   2.594   5.517   7.717  0.0640 -0.0966  0.3863
 3154TIP3    H131021   2.519   5.549   7.768  0.0904  0.1573  0.2655
 3154TIP3    H231022   2.670   5.544   7.769  0.0707 -0.4300  0.5524
 3155TIP3   OH231023   3.885   0.536   0.797 -0.2286 -0.9035 -0.1862
 3155TIP3    H131024   3.953   0.556   0.862  0.0414 -1.2246 -0.3682
 3155TIP3    H231025   3.813   0.500   0.849 -0.3274 -0.4010  0.0274
 3156TIP3   OH231026   5.067   0.957   8.675  0.3411  0.6964  0.1220
 3156TIP3    H131027   5.110   0.890   8.728  0.1037  0.1599 -0.3540
 3156TIP3    H231028   5.003   0.997   8.734  0.8127  0.8336  0.5462
 3157TIP3   OH231029   6.336   0.161   1.371 -0.4543 -0.0220  0.3682
 3157TIP3    H131030   6.306   0.245   1.405 -1.3614 -1.1508  2.5598
 3157TIP3    H231031   6.256   0.115   1.348  0.0027 -0.4906 -0.2981
 3158TIP3   OH231032   6.644   2.650   0.615 -0.4439 -0.0882 -0.1204
 3158TIP3    H131033   6.649   2.649   0.520  1.3386 -1.6528 -0.0666
 3158TIP3    H231034   6.726   2.690   0.643  0.3412 -2.1498  0.7384
 3159TIP3   OH231035   4.141   1.499   7.493 -0.4076  0.0202 -0.7295
 3159TIP3    H131036   4.182   1.438   7.555  1.2023  0.9112 -0.8671
 3159TIP3    H231037   4.191   1.487   7.412  0.0792  1.6294 -0.7036
 3160TIP3   OH231038   1.541   2.487   1.401  0.1561 -0.1772 -0.1505
 3160TIP3    H131039   1.579   2.464   1.316  1.4788  0.8973  0.1078
 3160TIP3    H231040   1.594   2.561   1.431 -0.8922  0.0617  1.1862
 3161TIP3   OH231041   6.420   1.807   1.176  0.4718  0.4529 -0.1833
 3161TIP3    H131042   6.489   1.860   1.215  0.3080 -0.6099  1.6324
 3161TIP3    H231043   6.393   1.747   1.245 -0.3344 -1.0435 -1.7222
 3162TIP3   OH231044   0.547   5.476   0.431  0.5481 -0.6123 -0.7224
 3162TIP3    H131045   0.552   5.526   0.349  0.4782 -1.2088 -1.0899
 3162TIP3    H231046   0.480   5.410   0.415  0.0940 -0.3482  0.0299
 3163TIP3   OH231047   5.763   3.312   1.811 -0.4796  0.5374 -0.2578
 3163TIP3    H131048   5.767   3.400   1.848 -0.8890 -0.4705  2.4130
 3163TIP3    H231049   5.684   3.313   1.756  0.4105  2.2309 -1.6210
 3164TIP3   OH231050   2.297   5.716   6.844 -0.0187 -0.2550  0.3149
 3164TIP3    H131051   2.386   5.751   6.848 -0.7610  1.8490  0.0132
 3164TIP3    H231052   2.305   5.635   6.794  1.6221  0.3092 -0.4220
 3165TIP3   OH231053   2.870   5.180   8.121 -0.1096 -0.0380 -0.4467
 3165TIP3    H131054   2.835   5.137   8.199 -0.6664  0.7136 -0.2845
 3165TIP3    H231055   2.965   5.183   8.136 -0.1661 -0.3402 -0.0279
 3166TIP3   OH231056   4.255   6.055   7.295  0.6712  1.0322 -0.7535
 3166TIP3    H131057   4.290   5.966   7.283  1.4128  1.4203 -1.5764
 3166TIP3    H231058   4.264   6.096   7.209  1.3656  2.2646 -0.1253
 3167TIP3   OH231059   4.608   2.954   0.223 -0.1664 -0.5888 -0.2841
 3167TIP3    H131060   4.595   2.945   0.318 -0.3554 -0.7794 -0.3273
 3167TIP3    H231061   4.553   3.029   0.199  2.1011  1.3301  0.2208
 3168TIP3   OH231062   5.597   3.380   0.270 -0.0199 -0.8129 -0.1486
 3168TIP3    H131063   5.627   3.446   0.208 -2.2147  0.8035  0.4102
 3168TIP3    H231064   5.673   3.366   0.327  0.3777  1.6988  0.0715
 3169TIP3   OH231065   5.764   1.990   6.688  0.1100  0.4658  0.2439
 3169TIP3    H131066   5.673   1.972   6.666 -0.3246  0.0015  2.2428
 3169TIP3    H231067   5.765   2.081   6.717  0.0832  0.1684  1.1885
 3170TIP3   OH231068   6.584   5.060   0.179  0.1675 -0.2434  0.3265
 3170TIP3    H131069   6.593   4.977   0.133 -0.8885 -0.8502  1.1620
 3170TIP3    H231070   6.632   5.123   0.125  2.4049 -1.6863  0.5431
 3171TIP3   OH231071   4.468   4.995   1.420 -0.2082  0.5504  0.0850
 3171TIP3    H131072   4.499   5.085   1.429  0.6836  0.2259  0.3271
 3171TIP3    H231073   4.471   4.960   1.509  1.3677 -0.3220 -0.2799
 3172TIP3   OH231074   5.181   1.123   7.506  0.7584 -0.3144 -0.6361
 3172TIP3    H131075   5.241   1.189   7.539 -0.3859  0.9214 -0.9444
 3172TIP3    H231076   5.138   1.088   7.585  0.5805  0.1039 -0.5451
 3173TIP3   OH231077   3.229   4.138   1.115  0.0897  0.4160  0.6404
 3173TIP3    H131078   3.211   4.074   1.184  1.0645 -2.6249 -1.6848
 3173TIP3    H231079   3.201   4.095   1.034  1.6012  2.5967 -1.1871
 3174TIP3   OH231080   5.541   4.616   7.858  0.2200 -0.0430  0.4225
 3174TIP3    H131081   5.606   4.555   7.822 -2.5922 -1.9439 -1.8865
 3174TIP3    H231082   5.562   4.700   7.817  2.6204  0.0599  1.6755
 3175TIP3   OH231083   0.613   6.572   8.561 -0.2624  0.1005 -0.1629
 3175TIP3    H131084   0.621   6.654   8.511  0.2056 -0.7860 -1.6030
 3175TIP3    H231085   0.524   6.542   8.542 -0.6898  0.6070  0.9411
 3176TIP3   OH231086   4.866   3.407   0.558 -0.1283 -0.3033  0.4441
 3176TIP3    H131087   4.859   3.341   0.627  0.6591 -0.3770  0.4692
 3176TIP3    H231088   4.776   3.428   0.534 -0.4164 -2.5024 -0.6389
 3177TIP3   OH231089   6.444   2.558   7.141 -0.1780  0.1930  0.1068
 3177TIP3    H131090   6.506   2.490   7.169 -0.7925 -1.0810 -1.4486
 3177TIP3    H231091   6.431   2.540   7.048 -3.2862  0.0487  0.4860
 3178TIP3   OH231092   3.809   2.372   7.405 -0.0848  0.6384  0.1516
 3178TIP3    H131093   3.860   2.453   7.395 -0.9796  1.0061 -1.9074
 3178TIP3    H231094   3.830   2.341   7.493  0.8027  2.7553  0.7415
 3179TIP3   OH231095   5.386   5.549   1.614  0.1867 -0.1394 -0.1354
 3179TIP3    H131096   5.409   5.618   1.553 -0.0031 -0.1537 -0.2253
 3179TIP3    H231097   5.405   5.468   1.567 -1.7102 -0.1974 -0.9186
 3180TIP3   OH231098   0.629   4.593   7.757 -0.2547  0.4962  0.4537
 3180TIP3    H131099   0.580   4.529   7.808 -0.4625  3.0633  3.8244
 3180TIP3    H231100   0.707   4.546   7.728  0.1272 -1.1102  3.6674
 3181TIP3   OH231101   0.037   6.493   7.274  0.3509 -0.2940 -0.6666
 3181TIP3    H131102   0.119   6.491   7.225 -0.4239  0.5658 -2.0527
 3181TIP3    H231103   0.059   6.538   7.356  1.4234 -0.7880 -0.6698
 3182TIP3   OH231104   0.306   5.848   2.675  0.2218 -0.3000 -0.6046
 3182TIP3    H131105   0.320   5.825   2.583  0.9600 -0.3674 -0.4869
 3182TIP3    H231106   0.384   5.899   2.699  0.3011 -0.7373  0.1253
 3183TIP3   OH231107   3.208   1.808   0.091 -0.2990 -0.3183 -0.4292
 3183TIP3    H131108   3.187   1.790  -0.000 -1.1221  1.0483 -0.5370
 3183TIP3    H231109   3.290   1.760   0.107 -0.2205 -0.6865 -1.8259
 3184TIP3   OH231110   1.652   0.068   8.357  1.4503 -0.0091  0.3979
 3184TIP3    H131111   1.643   0.109   8.271  0.1994 -0.1587  0.4321
 3184TIP3    H231112   1.706   0.129   8.407 -1.4700  2.3853  0.8897
 3185TIP3   OH231113   5.430   4.907   0.669 -0.1257  0.0108 -0.4282
 3185TIP3    H131114   5.482   4.907   0.589 -0.4028 -0.1854 -0.6129
 3185TIP3    H231115   5.373   4.983   0.661  0.9662  0.9442  0.3380
 3186TIP3   OH231116   0.156   4.143   1.582 -0.8311 -0.0127 -1.0565
 3186TIP3    H131117   0.159   4.226   1.630 -2.4255 -0.9908  0.8943
 3186TIP3    H231118   0.235   4.143   1.529  1.6695  0.7409  2.3356
 3187TIP3   OH231119   3.130   5.378   7.903 -0.2681 -0.0881  0.5764
 3187TIP3    H131120   3.131   5.285   7.927  0.1481 -0.3230 -0.3295
 3187TIP3    H231121   3.214   5.412   7.933  0.6557 -0.6012 -1.3432
 3188TIP3   OH231122   3.768   3.038   7.292  0.1917  0.2556 -0.2618
 3188TIP3    H131123   3.773   3.116   7.348 -0.4107 -0.4566  0.8331
 3188TIP3    H231124   3.686   2.995   7.319 -0.1659 -0.0710 -1.7755
 3189TIP3   OH231125   2.614   0.215   0.920  0.2492 -0.1282 -0.0281
 3189TIP3    H131126   2.531   0.220   0.871  0.5248  0.5299 -0.4464
 3189TIP3    H231127   2.653   0.302   0.909  1.3499 -0.6646 -0.4737
 3190TIP3   OH231128   1.094   4.940   8.622  0.4218 -0.3480  0.0595
 3190TIP3    H131129   1.183   4.912   8.600  0.5734 -0.3046  0.5823
 3190TIP3    H231130   1.061   4.870   8.679 -0.3986 -1.0581 -1.2544
 3191TIP3   OH231131   5.582   4.888   7.588 -0.0569 -0.3774  0.1477
 3191TIP3    H131132   5.622   4.806   7.559  0.0988  0.1000 -1.0223
 3191TIP3    H231133   5.638   4.918   7.660  0.5455 -0.7231 -0.1707
 3192TIP3   OH231134   3.531   4.559   6.539  0.4195  0.4388 -0.5759
 3192TIP3    H131135   3.563   4.648   6.556  0.3911 -0.0014  2.3391
 3192TIP3    H231136   3.609   4.503   6.551 -0.2191 -0.1661  1.0169
 3193TIP3   OH231137   6.073   5.181   8.804 -0.1736 -0.3014 -0.6317
 3193TIP3    H131138   6.064   5.268   8.842  1.5987  0.5113 -1.8809
 3193TIP3    H231139   6.047   5.193   8.712 -0.6549 -1.2797 -0.6287
 3194TIP3   OH231140   0.482   4.735   8.305 -0.0633  0.0647 -0.0850
 3194TIP3    H131141   0.482   4.829   8.319 -0.0149 -0.0072  0.3990
 3194TIP3    H231142   0.391   4.712   8.288 -0.0078  0.2670 -0.7062
 3195TIP3   OH231143   3.048   0.336   0.614  0.2919 -0.0929  0.0293
 3195TIP3    H131144   2.973   0.391   0.638  0.8105  0.0102  1.5307
 3195TIP3    H231145   3.033   0.314   0.522 -1.1077  0.6685  0.0426
 3196TIP3   OH231146   1.552   3.631   7.839  0.7516  0.4226  0.3459
 3196TIP3    H131147   1.648   3.631   7.834  0.7203  1.7334 -1.4388
 3196TIP3    H231148   1.524   3.575   7.766  0.1145 -1.9985  2.3383
 3197TIP3   OH231149   1.486   3.736   8.709  0.1233  0.6321  0.1977
 3197TIP3    H131150   1.490   3.653   8.757 -1.2930 -0.7487 -1.9105
 3197TIP3    H231151   1.577   3.762   8.698  0.8177 -2.0608 -1.3474
 3198TIP3   OH231152   5.168   4.960   8.388  0.0908  0.1608 -0.2055
 3198TIP3    H131153   5.161   4.864   8.388  1.4875  0.0274 -0.7619
 3198TIP3    H231154   5.135   4.985   8.301 -0.4253  0.2037  0.0013
 3199TIP3   OH231155   1.891   6.216   1.810  0.2409  0.2477 -0.2415
 3199TIP3    H131156   1.813   6.247   1.857  0.1560  1.1707 -0.9529
 3199TIP3    H231157   1.964   6.252   1.860  0.1587  0.8431 -0.5323
 3200TIP3   OH231158   4.777   0.504   7.247 -0.0026  0.1186  0.6458
 3200TIP3    H131159   4.836   0.575   7.220  0.6678 -0.5014  0.4673
 3200TIP3    H231160   4.790   0.436   7.182 -3.6872  1.3362 -1.7047
 3201TIP3   OH231161   4.885   2.105   7.063  0.1026  0.5190  0.1794
 3201TIP3    H131162   4.887   2.179   7.124  1.0258  0.8501 -0.2434
 3201TIP3    H231163   4.849   2.142   6.982  4.7725  1.7987 -1.6197
 3202TIP3   OH231164   6.202   5.445   1.380 -0.6828 -0.5653  0.4001
 3202TIP3    H131165   6.197   5.510   1.309  0.2595 -2.5281 -1.5890
 3202TIP3    H231166   6.167   5.490   1.456 -1.4945  1.7688 -1.2380
 3203TIP3   OH231167   0.472   6.773   1.541  0.4773 -0.0603 -0.6775
 3203TIP3    H131168   0.381   6.801   1.532  0.2574 -0.0322  1.2114
 3203TIP3    H231169   0.521   6.854   1.555  0.1755 -0.2568  2.3073
 3204TIP3   OH231170   5.695   3.325   8.794 -0.2642 -0.6891 -0.2079
 3204TIP3    H131171   5.782   3.338   8.831 -0.7775 -0.6369  1.0100
 3204TIP3    H231172   5.649   3.408   8.809 -0.9224 -1.1313  0.2957
 3205TIP3   OH231173   4.656   4.190   1.067  0.0620 -0.0401 -0.1772
 3205TIP3    H131174   4.598   4.115   1.081 -0.0577 -0.0978 -0.9543
 3205TIP3    H231175   4.597   4.265   1.059  0.1638  0.0897  0.2472
 3206TIP3   OH231176   5.360   3.125   2.307  0.6669  0.1615 -0.1204
 3206TIP3    H131177   5.435   3.167   2.265  0.5518  0.6380  0.1383
 3206TIP3    H231178   5.285   3.179   2.282  0.4005 -0.3305 -0.4029
 3207TIP3   OH231179   4.598   2.167   7.132  0.2146 -0.1123 -0.7768
 3207TIP3    H131180   4.656   2.201   7.065  2.7495 -0.1655  1.2465
 3207TIP3    H231181   4.527   2.231   7.137  1.2269  1.1474 -1.8304
 3208TIP3   OH231182   4.269   4.447   0.552 -0.2181 -0.0781 -0.6328
 3208TIP3    H131183   4.334   4.378   0.559  0.2331  0.4539  1.1688
 3208TIP3    H231184   4.303   4.517   0.607 -2.0305  0.4345 -0.0868
 3209TIP3   OH231185   2.979   2.207   7.257  0.3661 -0.3070  0.3001
 3209TIP3    H131186   2.907   2.143   7.257 -0.4058  0.5207 -0.4187
 3209TIP3    H231187   3.041   2.174   7.322 -0.3393 -1.4106  0.4451
 3210TIP3   OH231188   5.038   5.659   0.739  0.2534  0.1130 -0.5517
 3210TIP3    H131189   5.116   5.612   0.710 -0.0360 -0.1359 -0.9336
 3210TIP3    H231190   5.037   5.647   0.834 -0.1855 -1.2434 -0.7001
 3211TIP3   OH231191   0.943   0.640   1.271  0.3870  0.5276 -0.5210
 3211TIP3    H131192   0.936   0.563   1.215  1.9469  1.1889 -1.7015
 3211TIP3    H231193   0.854   0.675   1.276 -0.2250 -0.9804 -0.4598
 3212TIP3   OH231194   1.167   4.139   0.717 -0.2776 -0.0246  0.1362
 3212TIP3    H131195   1.239   4.173   0.665  0.9252  1.8683  2.7665
 3212TIP3    H231196   1.091   4.190   0.690  0.6015  1.8430  1.0120
 3213TIP3   OH231197   4.762   2.600   0.700 -0.0016 -0.1716 -0.4316
 3213TIP3    H131198   4.818   2.612   0.777 -0.1963  0.2525 -0.3543
 3213TIP3    H231199   4.708   2.523   0.721 -0.2242  0.0883 -0.0439
 3214TIP3   OH231200   6.485   6.400   2.087 -0.3095  0.4744 -0.0834
 3214TIP3    H131201   6.489   6.341   2.162 -1.5523  1.1841  0.5840
 3214TIP3    H231202   6.401   6.379   2.046  0.1569  0.4077 -1.0129
 3215TIP3   OH231203   1.175   0.607   8.653  0.0610 -0.2283 -0.0648
 3215TIP3    H131204   1.228   0.599   8.733  1.9562 -0.3977 -1.2650
 3215TIP3    H231205   1.117   0.681   8.670  0.5374 -0.1640  1.4112
 3216TIP3   OH231206   0.980   3.612   2.523  0.1545 -0.3136 -0.4582
 3216TIP3    H131207   0.980   3.594   2.617  0.1442  0.3723 -0.3165
 3216TIP3    H231208   1.071   3.597   2.496  0.9082  2.2934  0.2639
 3217TIP3   OH231209   0.125   3.196   1.558  0.0761  0.5547  0.0191
 3217TIP3    H131210   0.102   3.281   1.520  1.1414  0.0033 -2.0274
 3217TIP3    H231211   0.174   3.217   1.637 -0.7576  1.7964  0.2339
 3218TIP3   OH231212   5.014   1.840   6.157  0.0108 -0.5470  0.7129
 3218TIP3    H131213   4.930   1.871   6.124  0.0764 -2.0654 -0.9755
 3218TIP3    H231214   4.999   1.826   6.251 -2.6660 -3.8361 -0.0161
 3219TIP3   OH231215   6.017   5.275   0.324 -0.1174 -0.6681  0.2693
 3219TIP3    H131216   6.051   5.194   0.286 -0.8082 -1.5208  1.3975
 3219TIP3    H231217   6.079   5.343   0.298  0.5841 -1.6022 -0.5236
 3220TIP3   OH231218   1.580   5.945   7.425 -0.3126  0.1401  0.3571
 3220TIP3    H131219   1.506   5.959   7.368 -0.5974  1.4276  1.0047
 3220TIP3    H231220   1.647   6.007   7.395  0.3598 -0.7113  0.0419
 3221TIP3   OH231221   2.250   4.819   8.496 -0.1044  0.4698 -0.2277
 3221TIP3    H131222   2.338   4.804   8.529 -0.3032  0.6495  0.3951
 3221TIP3    H231223   2.256   4.802   8.402 -0.3449 -3.8068  0.3337
 3222TIP3   OH231224   0.435   2.670   2.062 -0.1088 -1.0976 -0.6808
 3222TIP3    H131225   0.379   2.747   2.048  1.0447 -0.2175 -0.5851
 3222TIP3    H231226   0.388   2.618   2.127  0.1346  0.6477  0.9906
 3223TIP3   OH231227   5.312   0.187   2.242  0.4480  0.0992  0.1811
 3223TIP3    H131228   5.367   0.108   2.245  0.7277  0.1409 -2.1911
 3223TIP3    H231229   5.224   0.154   2.228  0.6874  0.1914 -1.7334
 3224TIP3   OH231230   1.032   4.322   7.389  0.1326  0.5920  0.7568
 3224TIP3    H131231   1.093   4.395   7.376  0.2113  0.3382 -0.3489
 3224TIP3    H231232   1.087   4.245   7.391  0.2473  0.6148  3.5480
 3225TIP3   OH231233   4.672   2.725   8.618 -0.0908  0.1621 -0.5655
 3225TIP3    H131234   4.584   2.687   8.606 -0.1128 -0.1485  0.4603
 3225TIP3    H231235   4.731   2.651   8.611 -0.0343  0.1274  0.2319
 3226TIP3   OH231236   4.352   0.463   8.550  0.1934  0.2876  0.1406
 3226TIP3    H131237   4.432   0.473   8.497 -0.6992  0.1856 -1.2845
 3226TIP3    H231238   4.281   0.467   8.486 -0.8757 -1.1907  1.1857
 3227TIP3   OH231239   1.911   0.090   2.128 -0.6546  0.3200 -0.1365
 3227TIP3    H131240   1.853   0.145   2.074  0.1668  0.8228 -0.5170
 3227TIP3    H231241   1.969   0.152   2.172  0.1331 -0.2300 -0.3893
 3228TIP3   OH231242   3.875   0.463   7.708 -0.0161 -0.0093  0.8218
 3228TIP3    H131243   3.797   0.511   7.680  0.2269 -0.6840 -1.2115
 3228TIP3    H231244   3.934   0.530   7.743 -1.3075  0.5616  2.0023
 3229TIP3   OH231245   1.144   5.275   1.183  0.0750 -0.1678  0.0936
 3229TIP3    H131246   1.051   5.289   1.203 -0.3731 -2.3068 -0.2764
 3229TIP3    H231247   1.176   5.220   1.255  1.5622  1.9293  1.1631
 3230TIP3   OH231248   2.310   6.647   7.606  0.1933 -0.1998  0.0596
 3230TIP3    H131249   2.373   6.594   7.557 -0.2790 -0.8740  0.1704
 3230TIP3    H231250   2.284   6.716   7.544  0.2985 -0.4983 -0.3234
 3231TIP3   OH231251   2.816   3.767   1.822  0.2131  0.4200  0.1162
 3231TIP3    H131252   2.904   3.757   1.785  0.2916  0.0995  0.3859
 3231TIP3    H231253   2.832   3.787   1.915  0.0340  1.6966 -0.1071
 3232TIP3   OH231254   3.050   4.194   0.689 -0.4354  0.3715 -0.6692
 3232TIP3    H131255   3.125   4.241   0.724  0.0578 -0.2135 -0.9376
 3232TIP3    H231256   3.010   4.256   0.627  0.0725  0.5292 -0.8470
 3233TIP3   OH231257   5.591   5.249   2.284  0.1890 -0.1960  0.2343
 3233TIP3    H131258   5.502   5.283   2.293  0.2345  0.0416 -0.2043
 3233TIP3    H231259   5.581   5.166   2.238  0.0857 -0.7598  1.2334
 3234TIP3   OH231260   2.347   1.015   8.490  0.0784  0.4246  0.5498
 3234TIP3    H131261   2.283   1.073   8.449  0.3050  1.0539  1.0655
 3234TIP3    H231262   2.294   0.954   8.542 -0.1278  0.5816  0.5252
 3235TIP3   OH231263   2.963   0.392   0.045 -0.0183  0.1296 -0.1794
 3235TIP3    H131264   3.004   0.405  -0.041 -2.1365  0.9364 -1.1316
 3235TIP3    H231265   2.869   0.405   0.029 -0.2802  3.0298  2.7716
 3236TIP3   OH231266   2.888   6.434   7.697 -0.2521  0.2988  0.0186
 3236TIP3    H131267   2.842   6.373   7.753 -0.8667  1.3581  0.7037
 3236TIP3    H231268   2.971   6.451   7.742 -0.3895  0.5093  0.1961
 3237TIP3   OH231269   0.374   1.569   2.572  0.3437 -0.0595 -0.1893
 3237TIP3    H131270   0.345   1.519   2.648  2.7930 -1.2381  0.0508
 3237TIP3    H231271   0.365   1.508   2.498 -0.3456  0.4947 -0.5830
 3238TIP3   OH231272   4.788   1.787   0.194 -0.0888 -0.3921  0.1931
 3238TIP3    H131273   4.704   1.815   0.157  0.6881  0.2434 -1.1155
 3238TIP3    H231274   4.854   1.831   0.142  1.0861 -0.7796  1.2942
 3239TIP3   OH231275   3.796   2.538   7.147 -0.5020  0.5015 -0.0939
 3239TIP3    H131276   3.836   2.454   7.173 -1.3119  0.2112  0.2507
 3239TIP3    H231277   3.859   2.604   7.176  0.7323 -0.0216 -1.4529
 3240TIP3   OH231278   5.246   0.975   7.091  0.1970  0.2265  0.0373
 3240TIP3    H131279   5.296   1.039   7.140  0.6552  0.3371 -0.5626
 3240TIP3    H231280   5.287   0.891   7.111 -0.1294  0.1651  0.4767
 3241TIP3   OH231281   0.964   0.246   8.096 -0.2476 -0.4812 -0.2097
 3241TIP3    H131282   0.892   0.309   8.092 -0.4314 -0.6006  0.8975
 3241TIP3    H231283   1.027   0.277   8.031 -1.2762 -0.3493 -1.1602
 3242TIP3   OH231284   5.914   1.931   6.924  0.0417 -0.1630  0.2707
 3242TIP3    H131285   5.965   2.007   6.952  0.7087 -0.6553  0.4046
 3242TIP3    H231286   5.858   1.964   6.854  1.2258  0.1776 -0.5545
 3243TIP3   OH231287   4.645   1.727   8.725 -0.0996  0.0640 -0.2875
 3243TIP3    H131288   4.700   1.798   8.692 -0.4369  0.1376 -0.6925
 3243TIP3    H231289   4.566   1.731   8.672 -0.2805 -0.3748 -0.0550
 3244TIP3   OH231290   0.223   4.510   2.047  0.2011 -0.3978  0.7818
 3244TIP3    H131291   0.221   4.602   2.075 -1.2441 -0.0235 -0.4293
 3244TIP3    H231292   0.166   4.507   1.971 -0.7621 -2.5631  1.5139
 3245TIP3   OH231293   4.658   5.150   1.918 -0.4885 -0.3700 -0.4269
 3245TIP3    H131294   4.732   5.098   1.886 -2.0157 -1.7483 -1.9466
 3245TIP3    H231295   4.598   5.086   1.956 -1.1411  0.6474  0.2998
 3246TIP3   OH231296   5.729   3.211   7.394 -0.8358 -0.6150 -0.0692
 3246TIP3    H131297   5.760   3.248   7.312 -0.4164  0.7779  0.6804
 3246TIP3    H231298   5.657   3.268   7.421 -0.5836 -0.6949  0.8243
 3247TIP3   OH231299   6.041   3.689   6.682 -0.5784 -0.0432  0.2921
 3247TIP3    H131300   6.050   3.600   6.717 -1.8771 -0.3243 -0.0087
 3247TIP3    H231301   5.996   3.737   6.751  0.9371  0.6601  0.8311
 3248TIP3   OH231302   3.193   0.112   0.145  0.3296 -0.1886 -0.7583
 3248TIP3    H131303   3.197   0.103   0.241  1.0016 -0.0257 -0.7638
 3248TIP3    H231304   3.284   0.101   0.117  0.2059  0.2495 -1.3367
 3249TIP3   OH231305   4.411   5.032   8.637  0.6956 -0.3452  0.2444
 3249TIP3    H131306   4.316   5.040   8.627  0.7213 -0.2165  0.1048
 3249TIP3    H231307   4.423   4.952   8.688  0.4894 -0.0871  0.7043
 3250TIP3   OH231308   4.998   4.051   7.848  0.1721 -0.3165 -0.3995
 3250TIP3    H131309   5.059   4.072   7.777 -0.0606 -0.9939 -0.7987
 3250TIP3    H231310   4.936   3.990   7.810 -0.0978 -0.5026  0.3234
 3251TIP3   OH231311   4.405   0.580   2.058  0.1256 -0.1607  0.5483
 3251TIP3    H131312   4.425   0.671   2.079  0.8084  0.7983 -3.4936
 3251TIP3    H231313   4.475   0.530   2.100  1.0268  1.3912  0.9910
 3252TIP3   OH231314   5.964   5.703   8.629 -0.0678  0.5917 -0.2945
 3252TIP3    H131315   5.883   5.672   8.669  0.3820  0.5974  0.6238
 3252TIP3    H231316   5.954   5.681   8.536 -0.2601 -1.2485  0.1314
 3253TIP3   OH231317   0.877   1.915   0.186  0.5344 -0.1671  0.1394
 3253TIP3    H131318   0.903   1.993   0.138 -0.7033  0.3519  0.2560
 3253TIP3    H231319   0.795   1.888   0.145  0.6226 -1.0211  0.5164
 3254TIP3   OH231320   6.484   2.484   0.158 -0.3450 -0.0415  0.4275
 3254TIP3    H131321   6.461   2.417   0.094 -2.8051 -0.1076  1.2862
 3254TIP3    H231322   6.521   2.436   0.232 -0.4220 -0.2765  0.3127
 3255TIP3   OH231323   6.117   5.342   0.669  0.3842 -0.0883 -0.4886
 3255TIP3    H131324   6.113   5.248   0.689 -1.3862  0.2763  1.2526
 3255TIP3    H231325   6.203   5.369   0.701  0.6497 -0.9945 -0.3985
 3256TIP3   OH231326   3.816   6.762   8.330 -0.1583  0.0950 -0.0525
 3256TIP3    H131327   3.780   6.711   8.258  2.5265  0.3140 -1.6922
 3256TIP3    H231328   3.776   6.848   8.322  0.0594  0.0942 -1.2766
 3257TIP3   OH231329   5.401   0.056   0.374 -0.3806  0.1750 -0.1932
 3257TIP3    H131330   5.382   0.096   0.289  0.6469  0.5021 -0.2822
 3257TIP3    H231331   5.475  -0.002   0.358  0.0075  0.4520  0.5195
 3258TIP3   OH231332   4.212   1.340   0.114  0.0737 -0.2990 -0.3388
 3258TIP3    H131333   4.225   1.385   0.031 -0.1385  0.9555  0.2795
 3258TIP3    H231334   4.182   1.253   0.090  1.7734 -0.5815 -1.6102
 3259TIP3   OH231335   2.837   2.964   0.698 -0.0491 -0.1367  0.4361
 3259TIP3    H131336   2.865   2.954   0.607 -0.2951  0.1525  0.3251
 3259TIP3    H231337   2.918   2.966   0.749  0.0651 -2.0471  0.4161
 3260TIP3   OH231338   6.499   4.841   1.146  0.8177  0.4900 -0.2378
 3260TIP3    H131339   6.581   4.814   1.185  0.0308  0.3252  1.3844
 3260TIP3    H231340   6.477   4.923   1.190  0.2222  0.6512 -0.8114
 3261TIP3   OH231341   6.369   3.781   1.215 -0.8804 -0.0999 -0.4254
 3261TIP3    H131342   6.280   3.788   1.248 -0.5803  1.0117  0.1931
 3261TIP3    H231343   6.421   3.833   1.276  0.2313 -0.9542 -0.6225
 3262TIP3   OH231344   1.565   1.715   7.427  0.4945  0.4129  0.6266
 3262TIP3    H131345   1.652   1.756   7.433  0.2004  1.1070  0.3416
 3262TIP3    H231346   1.546   1.714   7.333 -0.8435  2.5908  0.7858
 3263TIP3   OH231347   2.790   6.223   8.626  0.2952  0.0137 -0.7326
 3263TIP3    H131348   2.704   6.181   8.616  0.6165 -0.9397  0.2761
 3263TIP3    H231349   2.837   6.166   8.687  2.0314 -0.0678 -2.0822
 3264TIP3   OH231350   5.418   6.169   0.432  0.5634  0.1125  0.3063
 3264TIP3    H131351   5.359   6.115   0.485  2.7156 -0.0366  2.7965
 3264TIP3    H231352   5.497   6.115   0.422  0.5958  0.5127 -2.4246
 3265TIP3   OH231353   0.669   2.860   0.657  0.1771 -0.2991 -0.1456
 3265TIP3    H131354   0.633   2.933   0.606  1.2243  0.0359 -0.4384
 3265TIP3    H231355   0.696   2.796   0.591  2.5166  0.5843 -0.1457
 3266TIP3   OH231356   1.404   4.180   1.315  0.2050 -0.1522 -0.2107
 3266TIP3    H131357   1.392   4.085   1.328  1.5330 -0.0922  2.0123
 3266TIP3    H231358   1.326   4.219   1.355 -0.7677 -0.2829 -1.8915
 3267TIP3   OH231359   4.843   2.058   0.672  0.3214  0.1473  0.9583
 3267TIP3    H131360   4.747   2.056   0.662  0.5273 -0.9686 -1.7005
 3267TIP3    H231361   4.859   2.016   0.756 -1.5180 -1.2399  0.6919
 3268TIP3   OH231362   6.017   2.318   7.939  0.4060 -0.1385  0.2133
 3268TIP3    H131363   6.112   2.316   7.932  0.4026  0.2152  0.0520
 3268TIP3    H231364   5.994   2.234   7.981  0.6437 -1.0760 -1.4409
 3269TIP3   OH231365   2.911   6.468   8.305 -0.0878  0.3972 -0.2447
 3269TIP3    H131366   2.902   6.543   8.363 -0.9779  0.6875 -0.7516
 3269TIP3    H231367   2.836   6.413   8.325  1.6198 -1.4514  1.6321
 3270TIP3   OH231368   2.110   6.747   0.210 -0.0183  0.3823  0.2623
 3270TIP3    H131369   2.076   6.670   0.254  0.7336  0.0740  0.3269
 3270TIP3    H231370   2.078   6.821   0.262  0.5388  0.0442  1.1125
 3271TIP3   OH231371   3.994   6.752   1.006 -0.2554 -0.2906  0.4205
 3271TIP3    H131372   4.031   6.690   1.068 -3.3097 -2.6785  0.1003
 3271TIP3    H231373   3.927   6.799   1.056 -0.8499 -0.2862 -0.3556
 3272TIP3   OH231374   5.234   6.751   6.695 -0.1703 -0.0876 -0.0110
 3272TIP3    H131375   5.219   6.761   6.601  0.2251 -1.2879 -0.2111
 3272TIP3    H231376   5.251   6.841   6.726  0.1167  0.2704 -1.1536
 3273TIP3   OH231377   2.211   2.906   0.318 -0.1594 -0.8907 -0.0571
 3273TIP3    H131378   2.151   2.843   0.278 -0.0126 -0.9418 -0.2009
 3273TIP3    H231379   2.250   2.859   0.392 -1.3322 -0.4040  0.9082
 3274TIP3   OH231380   5.990   4.218   6.954 -0.5181  0.6944 -0.7400
 3274TIP3    H131381   5.999   4.283   6.885 -0.3824  1.7510  0.2472
 3274TIP3    H231382   5.896   4.215   6.972 -0.3659  1.9973  0.4621
 3275TIP3   OH231383   4.361   4.958   7.106  0.4760  0.5521 -0.2766
 3275TIP3    H131384   4.441   4.979   7.155  1.5170 -2.0385 -0.7383
 3275TIP3    H231385   4.391   4.943   7.016 -0.7705  0.9544 -0.7846
 3276TIP3   OH231386   4.751   0.343   7.014  0.4355 -0.3618 -0.1115
 3276TIP3    H131387   4.660   0.318   7.002  0.5234 -1.5038  1.2725
 3276TIP3    H231388   4.762   0.421   6.961 -1.1968 -0.5139 -0.7330
 3277TIP3   OH231389   1.424   5.144   8.025  0.3460 -0.1652  0.0075
 3277TIP3    H131390   1.416   5.163   8.118  2.8623 -0.1694  0.3100
 3277TIP3    H231391   1.397   5.225   7.981  0.2023  0.2287  0.8049
 3278TIP3   OH231392   3.800   3.771   1.726 -0.0139 -0.2131 -0.0973
 3278TIP3    H131393   3.755   3.740   1.804  0.1511 -1.1588 -0.3613
 3278TIP3    H231394   3.736   3.828   1.682  0.2360  1.1132  1.2002
 3279TIP3   OH231395   1.084   0.492   1.449 -0.1002 -0.0891 -0.1584
 3279TIP3    H131396   1.144   0.442   1.392  2.4584  2.2726  0.2435
 3279TIP3    H231397   1.032   0.545   1.388  1.8656  1.6172 -0.4521
 3280TIP3   OH231398   3.984   0.711   6.619 -0.2088 -0.0784  0.9492
 3280TIP3    H131399   3.922   0.734   6.550 -0.8227 -0.8750  1.2258
 3280TIP3    H231400   3.988   0.788   6.675 -0.1947  0.3355  0.3856
 3281TIP3   OH231401   5.766   3.218   1.080  0.2981  0.2029  0.6355
 3281TIP3    H131402   5.832   3.232   1.012 -1.1295 -0.3313 -0.9429
 3281TIP3    H231403   5.791   3.277   1.151  1.2208  1.6473 -0.8195
 3282TIP3   OH231404   5.536   3.650   7.612  0.4316  0.2871  0.1971
 3282TIP3    H131405   5.459   3.703   7.634  1.5741  1.4641  1.5516
 3282TIP3    H231406   5.555   3.671   7.521 -0.9653 -0.2107 -0.2342
 3283TIP3   OH231407   4.728   5.001   8.751 -0.3561  0.8910 -0.1448
 3283TIP3    H131408   4.742   5.071   8.688 -0.9845  0.0681 -1.2384
 3283TIP3    H231409   4.708   4.924   8.698 -0.2798  0.0171  1.0415
 3284TIP3   OH231410   3.994   0.393   0.603  0.6262  0.1959  0.4951
 3284TIP3    H131411   3.935   0.443   0.660 -0.6221 -1.6019  0.8433
 3284TIP3    H231412   4.080   0.434   0.617 -0.3147  2.1600  0.8228
 3285TIP3   OH231413   2.162   2.457   8.120  0.2128 -0.5613  0.4026
 3285TIP3    H131414   2.253   2.462   8.149 -0.0373 -0.8788  1.2549
 3285TIP3    H231415   2.117   2.407   8.188 -0.3856 -1.3355 -0.5405
 3286TIP3   OH231416   1.610   5.787   3.038  0.1556  0.3565  0.0998
 3286TIP3    H131417   1.601   5.796   2.943  1.1852  0.2723 -0.0102
 3286TIP3    H231418   1.702   5.804   3.056  0.6212 -2.4041  0.7534
 3287TIP3   OH231419   2.501   0.192   8.359 -0.7313 -0.0968 -0.5081
 3287TIP3    H131420   2.540   0.224   8.278  2.5908  0.1917  1.0454
 3287TIP3    H231421   2.416   0.158   8.333 -1.1710  2.8319 -3.5564
 3288TIP3   OH231422   6.248   5.179   0.930 -0.4203  0.4763  0.0606
 3288TIP3    H131423   6.315   5.241   0.901  2.0080 -1.5034  1.0533
 3288TIP3    H231424   6.211   5.143   0.849 -1.7916  3.0074 -0.5289
 3289TIP3   OH231425   5.225   0.807   8.831 -0.4323  0.0108  0.0143
 3289TIP3    H131426   5.266   0.744   8.890  0.5382  1.4933  1.0037
 3289TIP3    H231427   5.295   0.870   8.811 -0.7035 -0.4290 -2.7679
 3290TIP3   OH231428   2.852   2.974   1.473 -0.1588 -0.1481  0.5888
 3290TIP3    H131429   2.856   2.973   1.377 -0.5269  1.5872  0.5189
 3290TIP3    H231430   2.762   2.951   1.493 -0.4849  0.9448  0.4372
 3291TIP3   OH231431   0.837   3.856   0.126  0.0210  0.3734  0.0129
 3291TIP3    H131432   0.748   3.891   0.132  0.6383  2.3938 -1.5333
 3291TIP3    H231433   0.894   3.932   0.136  1.5420 -0.5762 -0.9328
 3292TIP3   OH231434   4.183   5.679   7.608 -0.1033  0.6445  0.1422
 3292TIP3    H131435   4.203   5.598   7.561 -0.6506  0.8906 -0.5388
 3292TIP3    H231436   4.233   5.673   7.689 -0.7331 -0.7256  0.4456
 3293TIP3   OH231437   5.048   4.172   0.423 -0.0410 -0.3654  0.6009
 3293TIP3    H131438   5.004   4.170   0.507 -0.4912  0.4417  0.3894
 3293TIP3    H231439   5.119   4.235   0.434  0.7024 -1.1969  0.7505
 3294TIP3   OH231440   5.605   6.076   2.464 -0.1522 -0.0750  0.5117
 3294TIP3    H131441   5.542   6.049   2.397  1.2257  0.3675 -1.0437
 3294TIP3    H231442   5.670   6.005   2.466  0.0928  0.1592  1.0005
 3295TIP3   OH231443   5.610   0.014   8.678 -0.1568 -0.0812 -0.1007
 3295TIP3    H131444   5.580  -0.009   8.766  1.4527 -1.2168  0.2136
 3295TIP3    H231445   5.636  -0.070   8.640  1.4033  0.6600 -0.7565
 3296TIP3   OH231446   3.038   1.214   7.243  0.1657  0.2999 -0.4556
 3296TIP3    H131447   3.085   1.141   7.284  0.1383  0.7857  0.4574
 3296TIP3    H231448   3.101   1.251   7.181  0.2549 -0.3475 -0.7725
 3297TIP3   OH231449   4.625   0.280   0.140 -0.2681  0.4649  0.3934
 3297TIP3    H131450   4.706   0.314   0.177 -0.4532 -0.0577  1.2980
 3297TIP3    H231451   4.627   0.309   0.048  0.6111  1.0262  0.5745
 3298TIP3   OH231452   6.190   3.632   8.863 -0.3452  0.0012  0.7012
 3298TIP3    H131453   6.162   3.702   8.805  0.1995  0.1853  0.6525
 3298TIP3    H231454   6.269   3.596   8.821 -1.6736 -1.9261 -0.2828
 3299TIP3   OH231455   2.709   5.022   0.990 -0.3418 -1.0356 -0.3087
 3299TIP3    H131456   2.620   5.048   1.014 -0.3558  0.0131 -1.4325
 3299TIP3    H231457   2.712   4.928   1.009 -1.0317 -0.7018  1.6445
 3300TIP3   OH231458   0.004   5.053   1.704 -0.2268 -0.0953  0.1661
 3300TIP3    H131459   0.051   4.998   1.642 -0.1200 -0.0779  0.2321
 3300TIP3    H231460   0.061   5.128   1.719  0.0620 -0.4257  0.8073
 3301TIP3   OH231461   2.030   4.177   7.140 -0.5051 -0.0632 -0.1804
 3301TIP3    H131462   2.104   4.232   7.165  0.8239 -1.8301 -0.0775
 3301TIP3    H231463   2.033   4.175   7.044 -0.9189  0.4941 -0.2111
 3302TIP3   OH231464   2.377   4.595   0.236  0.2826 -0.5221  0.1546
 3302TIP3    H131465   2.397   4.551   0.153  0.7439  0.0700 -0.0607
 3302TIP3    H231466   2.345   4.525   0.293 -0.4816 -0.8628 -0.6613
 3303TIP3   OH231467   1.717   5.363   1.362  0.2155 -0.5754 -0.3219
 3303TIP3    H131468   1.813   5.358   1.360  0.2114 -0.5097 -1.0959
 3303TIP3    H231469   1.697   5.431   1.426  0.6767 -0.7726  0.0375
 3304TIP3   OH231470   0.259   1.792   1.742  0.1625  0.4221 -0.4338
 3304TIP3    H131471   0.188   1.800   1.806  0.0046  0.5599 -0.6280
 3304TIP3    H231472   0.253   1.870   1.688  0.3361  0.3357 -0.5811
 3305TIP3   OH231473   0.515   4.878   8.015 -0.1018 -0.2278  0.0501
 3305TIP3    H131474   0.605   4.903   7.998 -0.6428  1.6540 -0.2447
 3305TIP3    H231475   0.477   4.865   7.928  0.1057 -2.0166  0.1852
 3306TIP3   OH231476   0.664   5.769   2.266 -0.3442  0.2478  0.2887
 3306TIP3    H131477   0.580   5.728   2.284  0.2510 -0.7255  0.9596
 3306TIP3    H231478   0.718   5.698   2.232  0.2268  0.8508 -0.0954
 3307TIP3   OH231479   4.371   2.717   8.625  0.1679 -0.1356  0.1014
 3307TIP3    H131480   4.277   2.698   8.617 -0.1809  1.6802 -0.5411
 3307TIP3    H231481   4.375   2.803   8.667  1.5320 -0.0452 -0.1662
 3308TIP3   OH231482   3.876   6.494   6.631 -0.2166 -0.3711  0.0339
 3308TIP3    H131483   3.970   6.514   6.628 -0.1204 -0.2855  2.1121
 3308TIP3    H231484   3.860   6.468   6.722 -2.6026  1.6073  0.2660
 3309TIP3   OH231485   6.498   1.370   8.093  0.5640 -0.0322 -0.2128
 3309TIP3    H131486   6.575   1.427   8.093  1.0133 -0.6272 -1.0472
 3309TIP3    H231487   6.424   1.430   8.079  1.0063  0.3812 -0.8347
 3310TIP3   OH231488   1.789   3.036   8.071  0.1178  0.0118  0.1485
 3310TIP3    H131489   1.831   2.967   8.019  0.0059  0.4524 -0.5414
 3310TIP3    H231490   1.820   3.117   8.032  0.3761  0.3613  1.0635
 3311TIP3   OH231491   4.877   5.177   0.790 -0.2104  0.2788  0.1313
 3311TIP3    H131492   4.831   5.127   0.857  1.2778 -0.8434  0.3577
 3311TIP3    H231493   4.940   5.116   0.752  1.7785  1.9733  0.5033
 3312TIP3   OH231494   2.191   0.953   7.533  0.4782 -0.3663 -0.0597
 3312TIP3    H131495   2.114   1.006   7.514  1.1126 -0.0432 -1.9224
 3312TIP3    H231496   2.158   0.881   7.587 -1.0551 -0.0634 -0.5470
 3313TIP3   OH231497   4.564   0.063   7.639 -0.4311  0.1925 -0.4477
 3313TIP3    H131498   4.579   0.109   7.556  0.3152 -2.0712 -1.6555
 3313TIP3    H231499   4.632  -0.004   7.642 -1.5557 -0.9533  1.1390
 3314TIP3   OH231500   0.974   5.327   6.710 -0.6272 -0.4147  0.2264
 3314TIP3    H131501   0.897   5.346   6.764  0.1440  0.1430  1.1710
 3314TIP3    H231502   1.029   5.273   6.766  0.4556  0.6668  0.2388
 3315TIP3   OH231503   2.392   0.782   6.629  0.3521 -0.5609  0.0937
 3315TIP3    H131504   2.382   0.804   6.536 -0.0159 -0.8339  0.0705
 3315TIP3    H231505   2.314   0.819   6.671 -0.0557 -1.4462  0.1208
 3316TIP3   OH231506   5.408   0.070   7.009 -0.3692 -0.1495  0.2363
 3316TIP3    H131507   5.475   0.135   7.030 -2.0650  1.7882  0.0076
 3316TIP3    H231508   5.456  -0.000   6.966  1.6606  0.5973  1.1130
 3317TIP3   OH231509   4.244   3.131   0.431 -0.3088 -0.3967  0.4751
 3317TIP3    H131510   4.309   3.172   0.374  0.7597 -1.2443  1.0542
 3317TIP3    H231511   4.161   3.174   0.408  0.4971  0.9099 -0.0699
 3318TIP3   OH231512   1.869   5.378   0.462  0.0602  0.0283  0.0209
 3318TIP3    H131513   1.826   5.450   0.508 -2.6106 -1.6577  0.3808
 3318TIP3    H231514   1.906   5.324   0.531  0.9748  0.3871 -0.1777
 3319TIP3   OH231515   3.818   2.327   2.265 -0.0529  0.2788 -0.2325
 3319TIP3    H131516   3.860   2.242   2.276 -0.8073  0.1066  1.7350
 3319TIP3    H231517   3.889   2.390   2.276  0.3099 -0.0565 -0.5936
 3320TIP3   OH231518   2.766   3.461   2.538 -0.6112  0.3449  0.1757
 3320TIP3    H131519   2.846   3.506   2.511 -0.6616  0.1432 -0.3345
 3320TIP3    H231520   2.697   3.504   2.488 -1.0221  1.4477  1.6442
 3321TIP3   OH231521   1.228   1.030   2.730 -0.0655 -0.1443  0.1110
 3321TIP3    H131522   1.288   0.967   2.689 -0.4148  0.0148 -0.6677
 3321TIP3    H231523   1.190   0.982   2.803  0.2270 -0.6010 -0.0311
 3322TIP3   OH231524   5.089   2.953   2.260 -0.7681 -0.1800  0.0077
 3322TIP3    H131525   5.087   3.041   2.297 -1.0877 -0.5633  0.9180
 3322TIP3    H231526   5.039   2.900   2.322  1.3762 -1.4859  0.7154
 3323TIP3   OH231527   4.290   3.125   7.496 -0.0826  0.1017 -0.3640
 3323TIP3    H131528   4.346   3.199   7.472 -0.3511  0.0603 -1.1592
 3323TIP3    H231529   4.341   3.047   7.473 -0.1434  0.0516 -0.3312
 3324TIP3   OH231530   2.019   3.022   1.889  0.0434 -0.3356 -0.5161
 3324TIP3    H131531   2.106   3.013   1.927  0.5166  2.2950 -0.7764
 3324TIP3    H231532   1.962   3.038   1.964  0.2729  0.6540 -0.5376
 3325TIP3   OH231533   3.600   1.301   6.815 -0.6743  0.2639  0.2606
 3325TIP3    H131534   3.528   1.320   6.756 -2.0574 -0.2015  1.7050
 3325TIP3    H231535   3.620   1.208   6.800 -0.4391  0.3693 -0.0765
 3326TIP3   OH231536   6.301   5.248   0.423 -0.6758  0.1304 -0.1095
 3326TIP3    H131537   6.224   5.296   0.454  0.3096  0.7226  1.5278
 3326TIP3    H231538   6.364   5.316   0.400  0.2286 -0.3518  0.8969
 3327TIP3   OH231539   0.840   0.152   8.341 -0.0040 -0.1691 -0.1764
 3327TIP3    H131540   0.916   0.209   8.355  0.9703 -1.3053 -0.6763
 3327TIP3    H231541   0.839   0.136   8.247 -0.2599 -0.9701 -0.0469
 3328TIP3   OH231542   2.115   3.243   2.363 -0.0609  0.4736  0.1711
 3328TIP3    H131543   2.124   3.279   2.452  1.1685 -2.5810  1.4120
 3328TIP3    H231544   2.204   3.241   2.329 -0.2233 -0.4530 -0.2177
 3329TIP3   OH231545   5.356   5.784   8.245  0.5459  0.2726  0.4004
 3329TIP3    H131546   5.325   5.870   8.273  1.0485  0.3757  0.6589
 3329TIP3    H231547   5.326   5.775   8.155 -4.1917 -1.4882  1.8411
 3330TIP3   OH231548   2.350   5.952   7.469  0.1927  0.1330  0.0380
 3330TIP3    H131549   2.373   6.002   7.391  2.6098  0.6695  1.0044
 3330TIP3    H231550   2.263   5.916   7.450  0.2564  1.1033 -2.4410
 3331TIP3   OH231551   3.733   5.180   0.462 -0.0909  0.2452  0.4072
 3331TIP3    H131552   3.704   5.125   0.389  0.2927 -0.4424  0.7664
 3331TIP3    H231553   3.827   5.164   0.468  0.2250  1.7126 -0.1294
 3332TIP3   OH231554   4.963   2.767   8.046 -0.0245 -0.6045 -0.2441
 3332TIP3    H131555   4.968   2.748   7.952 -0.3541 -0.4936 -0.2839
 3332TIP3    H231556   4.894   2.832   8.054  0.9689  0.4764 -0.0997
 3333TIP3   OH231557   4.382   6.313   1.502  0.1126  0.2083  0.1626
 3333TIP3    H131558   4.457   6.333   1.558  0.1558  1.8470 -0.4449
 3333TIP3    H231559   4.370   6.218   1.512  0.1950  0.4040  2.8116
 3334TIP3   OH231560   2.901   1.250   6.990 -0.8533  0.4718  0.1160
 3334TIP3    H131561   2.887   1.342   6.968  0.5497  0.8206  0.5961
 3334TIP3    H231562   2.898   1.247   7.085  1.6418  0.5168  0.2560
 3335TIP3   OH231563   5.002   6.599   0.211  0.4118 -0.4287  0.2212
 3335TIP3    H131564   4.913   6.620   0.180  1.0153  1.6044 -0.2680
 3335TIP3    H231565   4.998   6.612   0.306  0.3017  0.1478  0.1414
 3336TIP3   OH231566   5.748   0.559   7.311 -0.1524  0.0458 -0.1745
 3336TIP3    H131567   5.760   0.623   7.381 -1.8081  0.5142 -0.2552
 3336TIP3    H231568   5.700   0.487   7.352 -0.0894 -0.2187 -0.5558
 3337TIP3   OH231569   5.605   4.070   1.192 -0.4906 -0.8451  0.0366
 3337TIP3    H131570   5.583   4.041   1.281  0.1814 -0.8948  0.1883
 3337TIP3    H231571   5.527   4.117   1.163  0.5273  2.4076  2.0336
 3338TIP3   OH231572   5.869   6.702   1.148 -0.0981  0.5179  0.3352
 3338TIP3    H131573   5.783   6.741   1.130 -0.4870 -0.5908 -0.3384
 3338TIP3    H231574   5.871   6.690   1.243 -0.5118  0.9340  0.3997
 3339TIP3   OH231575   1.703   2.074   0.262 -0.3000 -0.6091 -0.3212
 3339TIP3    H131576   1.667   2.135   0.197  1.1896  0.8422  0.1342
 3339TIP3    H231577   1.793   2.058   0.232  0.3807 -0.0105  1.2789
 3340TIP3   OH231578   2.741   5.242   1.830 -0.3176 -0.0280  0.0062
 3340TIP3    H131579   2.742   5.336   1.849 -0.7662 -0.3671  1.9056
 3340TIP3    H231580   2.807   5.205   1.889 -2.9438 -1.3728  2.2793
 3341TIP3   OH231581   4.494   0.193   8.439  0.4117  0.0985  0.1471
 3341TIP3    H131582   4.420   0.187   8.498 -0.0020  0.0921 -0.3640
 3341TIP3    H231583   4.455   0.193   8.351  1.0122  0.0826 -0.1266
 3342TIP3   OH231584   6.552   3.191   1.545  0.4901  0.4192 -0.3683
 3342TIP3    H131585   6.613   3.117   1.540 -0.3506 -0.2327 -1.6204
 3342TIP3    H231586   6.568   3.230   1.631  0.2105 -1.8936  0.8085
 3343TIP3   OH231587   5.878   3.844   8.812  0.1040  0.2949 -0.6962
 3343TIP3    H131588   5.784   3.864   8.811  0.1743  0.6464 -0.5745
 3343TIP3    H231589   5.913   3.887   8.734 -0.0702 -1.0741 -1.5637
 3344TIP3   OH231590   0.594   5.261   2.269  0.1178  0.2417 -0.1769
 3344TIP3    H131591   0.511   5.230   2.304  0.5450 -1.0830 -0.2871
 3344TIP3    H231592   0.569   5.318   2.196 -0.7003 -0.8873 -0.8213
 3345TIP3   OH231593   6.017   1.275   6.554  0.1791  0.2592 -0.1079
 3345TIP3    H131594   6.044   1.292   6.644 -1.6544 -0.3308  0.6069
 3345TIP3    H231595   5.997   1.182   6.552  0.8070  0.1354 -1.3111
 3346TIP3   OH231596   0.527   1.673   7.856  0.4234 -0.6753  0.3988
 3346TIP3    H131597   0.509   1.608   7.924  1.3618 -0.9418  0.4127
 3346TIP3    H231598   0.543   1.621   7.777 -0.0396 -0.3960  0.1188
 3347TIP3   OH231599   5.542   3.356   7.517  0.1630 -0.2549  0.4523
 3347TIP3    H131600   5.539   3.450   7.537  0.0182 -0.3341  0.8081
 3347TIP3    H231601   5.564   3.315   7.601  2.1169 -0.3975 -0.0777
 3348TIP3   OH231602   5.471   0.997   8.788 -0.1261  0.2390 -0.0341
 3348TIP3    H131603   5.564   0.990   8.768 -0.0348  0.9712  0.1283
 3348TIP3    H231604   5.467   1.043   8.872 -0.7130  3.1818 -1.5680
 3349TIP3   OH231605   5.054   4.584   8.008 -0.0317 -0.0675  0.0548
 3349TIP3    H131606   5.110   4.550   8.077 -1.5839 -1.2608  0.7765
 3349TIP3    H231607   4.981   4.625   8.054 -1.4221 -1.4407 -0.8123
 3350TIP3   OH231608   5.511   1.706   0.490 -0.3618 -0.5194  0.1754
 3350TIP3    H131609   5.522   1.656   0.571  0.0519 -0.0865  0.3866
 3350TIP3    H231610   5.588   1.762   0.485 -1.1064  0.5248  0.2256
 3351TIP3   OH231611   5.268   4.655   1.697 -0.1942  0.2724 -0.6684
 3351TIP3    H131612   5.262   4.712   1.773  1.2498 -0.5986  0.1441
 3351TIP3    H231613   5.325   4.702   1.636  0.4899 -0.0050 -0.2561
 3352TIP3   OH231614   2.862   1.038   1.493  0.2334  0.2716  0.0528
 3352TIP3    H131615   2.926   0.988   1.544  0.5117  0.4917 -0.0785
 3352TIP3    H231616   2.866   1.126   1.528 -0.2397  0.2123  0.2652
 3353TIP3   OH231617   4.475   6.160   1.929 -0.1426  0.0524 -0.4520
 3353TIP3    H131618   4.474   6.083   1.985  2.2168 -0.0161 -0.4094
 3353TIP3    H231619   4.403   6.215   1.961 -0.8753 -1.4096  0.5000
 3354TIP3   OH231620   1.347   0.907   2.323 -0.0675  0.1714  0.0811
 3354TIP3    H131621   1.271   0.955   2.290 -0.8190 -0.8305  0.2850
 3354TIP3    H231622   1.355   0.935   2.414  0.1018  0.6331 -0.0751
 3355TIP3   OH231623   2.709   6.588   8.569 -0.3920 -0.2880 -0.4587
 3355TIP3    H131624   2.763   6.557   8.641  1.3780  0.8418 -1.2135
 3355TIP3    H231625   2.693   6.680   8.589 -0.5817 -0.1762 -1.0841
 3356TIP3   OH231626   2.869   6.037   1.901  0.2121 -0.2132 -0.3466
 3356TIP3    H131627   2.887   6.040   1.995 -0.7920  0.0852 -0.1523
 3356TIP3    H231628   2.895   5.949   1.874 -1.0695 -0.9042  0.5586
 3357TIP3   OH231629   0.433   0.432   0.555  0.0372  0.3767 -0.0744
 3357TIP3    H131630   0.499   0.374   0.517  1.1226  0.4161  1.6474
 3357TIP3    H231631   0.389   0.378   0.621  0.0953  1.0940  0.5605
 3358TIP3   OH231632   6.686   2.670   1.014 -0.2109  0.7278  0.0621
 3358TIP3    H131633   6.599   2.705   0.999  0.1109  0.7975 -1.8385
 3358TIP3    H231634   6.743   2.721   0.957  0.7337 -0.7935 -0.4170
 3359TIP3   OH231635   5.089   4.215   2.442  0.0622  0.1032 -0.4636
 3359TIP3    H131636   5.126   4.147   2.499 -1.0642  0.4578  0.7531
 3359TIP3    H231637   5.155   4.283   2.439 -1.2916  1.9435  3.8302
 3360TIP3   OH231638   3.931   1.058   8.516  0.8070  0.3487  0.9168
 3360TIP3    H131639   3.898   1.135   8.562  0.8945  0.8670  0.1126
 3360TIP3    H231640   3.883   0.985   8.555 -1.6409  1.1121 -0.5020
 3361TIP3   OH231641   0.733   1.271   1.101 -0.3294 -0.2505  0.6475
 3361TIP3    H131642   0.817   1.237   1.069 -0.1969  1.6449 -1.2832
 3361TIP3    H231643   0.669   1.244   1.034 -0.7740  0.4982  0.7583
 3362TIP3   OH231644   5.716   0.450   7.713 -0.2315 -0.0307  0.5345
 3362TIP3    H131645   5.635   0.493   7.741 -1.7459 -1.4192 -1.4100
 3362TIP3    H231646   5.746   0.502   7.639 -0.6243 -0.7461 -0.1540
 3363TIP3   OH231647   6.112   1.779   7.809  0.7842 -0.6410  0.5489
 3363TIP3    H131648   6.077   1.774   7.898  0.0127 -0.6495  0.2577
 3363TIP3    H231649   6.036   1.804   7.755  1.3306 -0.2402 -0.0468
 3364TIP3   OH231650   5.324   5.957   8.535  0.0383  0.2095  0.3750
 3364TIP3    H131651   5.290   6.022   8.473  1.5269  1.3818  0.7258
 3364TIP3    H231652   5.259   5.953   8.604 -1.1033 -0.2807 -0.7035
 3365TIP3   OH231653   1.607   0.642   8.366  0.0400  0.3926  0.6888
 3365TIP3    H131654   1.533   0.591   8.398 -1.6937  1.0176 -2.0025
 3365TIP3    H231655   1.594   0.647   8.272  2.6628  1.9235  0.3032
 3366TIP3   OH231656   2.432   3.914   7.306 -0.1076 -0.2104 -0.0761
 3366TIP3    H131657   2.497   3.863   7.258 -0.2818 -0.4121 -0.1027
 3366TIP3    H231658   2.423   3.995   7.257  2.5338  1.2713  1.6916
 3367TIP3   OH231659   5.335   1.351   7.621 -0.1855  0.1399 -0.3053
 3367TIP3    H131660   5.394   1.358   7.696  0.8991 -0.6919 -1.0391
 3367TIP3    H231661   5.392   1.356   7.544 -1.0664 -0.6107 -1.0458
 3368TIP3   OH231662   0.129   0.023   1.832 -0.2613 -0.9736 -0.1242
 3368TIP3    H131663   0.076  -0.034   1.889 -0.3092  0.3867  1.2349
 3368TIP3    H231664   0.116  -0.014   1.745 -0.9583 -2.5479  0.5892
 3369TIP3   OH231665   0.669   5.866   1.756 -0.2137  0.4678 -0.1204
 3369TIP3    H131666   0.704   5.846   1.669  1.0848 -1.6678  0.8054
 3369TIP3    H231667   0.747   5.869   1.812 -1.2477 -1.1431  1.4635
 3370TIP3   OH231668   5.885   3.954   7.115 -0.1238  0.5091 -0.7195
 3370TIP3    H131669   5.844   4.014   7.178  0.3220 -0.7753  0.8685
 3370TIP3    H231670   5.979   3.965   7.130 -0.0356 -1.3509  0.4318
 3371TIP3   OH231671   2.635   4.320   8.280  0.3013 -0.0425 -0.6569
 3371TIP3    H131672   2.573   4.265   8.233 -0.2410  1.6719 -2.0555
 3371TIP3    H231673   2.707   4.332   8.219  0.1007  1.3281 -0.6449
 3372TIP3   OH231674   6.467   1.515   0.018  0.2237 -0.0220 -0.2074
 3372TIP3    H131675   6.556   1.479   0.014  0.8611  1.5524 -0.8967
 3372TIP3    H231676   6.456   1.563  -0.064  0.0326  2.6531  1.2714
 3373TIP3   OH231677   4.650   6.670   8.753  0.1350  0.1261  0.4446
 3373TIP3    H131678   4.568   6.665   8.803  0.1838  3.1103  0.9942
 3373TIP3    H231679   4.643   6.752   8.704  3.8050  1.9113  2.4761
 3374TIP3   OH231680   2.199   4.105   7.392  0.5457  0.0458  0.5631
 3374TIP3    H131681   2.260   4.111   7.318  0.2312 -0.3361  0.2625
 3374TIP3    H231682   2.205   4.013   7.420  0.0262 -0.0269  0.4513
 3375TIP3   OH231683   0.345   2.144   0.419  0.3734  0.8544 -0.3411
 3375TIP3    H131684   0.395   2.094   0.483 -2.8563 -0.4309  1.4095
 3375TIP3    H231685   0.321   2.224   0.466 -2.1532 -0.1694  0.2545
 3376TIP3   OH231686   4.321   0.695   8.335 -0.5308 -0.5836 -0.1652
 3376TIP3    H131687   4.266   0.617   8.346  0.9273 -1.8189 -1.2675
 3376TIP3    H231688   4.378   0.675   8.261  0.8294  0.9885  0.3801
 3377TIP3   OH231689   5.808   5.643   7.067 -0.4527  0.3391  0.2683
 3377TIP3    H131690   5.864   5.651   6.990 -1.6648  0.3904 -0.6216
 3377TIP3    H231691   5.851   5.575   7.120  1.7067  1.9444  0.7559
 3378TIP3   OH231692   0.137   5.381   0.247 -0.6396 -0.0245  0.0609
 3378TIP3    H131693   0.045   5.377   0.272 -0.1942 -1.1063  1.6921
 3378TIP3    H231694   0.165   5.289   0.246  0.3144  0.2605 -0.8793
 3379TIP3   OH231695   0.883   3.980   1.510 -0.5829 -0.1871 -0.4753
 3379TIP3    H131696   0.856   3.888   1.518 -1.6855  0.2749  1.5905
 3379TIP3    H231697   0.929   3.999   1.592 -0.2716  1.0978 -0.9225
 3380TIP3   OH231698   6.282   0.344   1.886  0.5803 -0.3354  0.2985
 3380TIP3    H131699   6.187   0.344   1.873  0.8515 -0.9956 -2.1448
 3380TIP3    H231700   6.296   0.289   1.963 -1.0028 -0.5802  0.4356
 3381TIP3   OH231701   2.833   2.396   7.979 -0.1706 -0.4759  0.6552
 3381TIP3    H131702   2.744   2.430   7.989 -0.4476 -0.3799 -1.5771
 3381TIP3    H231703   2.886   2.473   7.960  0.2951 -0.6036  1.4120
 3382TIP3   OH231704   6.402   1.346   7.767 -0.1679 -0.0676  0.2697
 3382TIP3    H131705   6.357   1.262   7.757 -0.7253  0.2052  0.4980
 3382TIP3    H231706   6.360   1.388   7.841 -1.3174  1.3271 -1.1198
 3383TIP3   OH231707   0.278   4.056   6.800 -0.3775  0.2187 -0.1437
 3383TIP3    H131708   0.220   4.066   6.876  0.4444 -2.1219  0.8928
 3383TIP3    H231709   0.248   3.975   6.758 -0.0518  0.8502 -1.6487
 3384TIP3   OH231710   4.890   1.363   1.375 -0.0662 -0.3480 -0.0738
 3384TIP3    H131711   4.940   1.426   1.324 -0.4761  0.6783  0.7629
 3384TIP3    H231712   4.881   1.287   1.317 -3.6554  2.0471 -3.1061
 3385TIP3   OH231713   6.173   4.024   0.927 -0.1612  0.2903  0.8717
 3385TIP3    H131714   6.098   4.001   0.871  0.0389  1.8729 -0.1264
 3385TIP3    H231715   6.198   3.942   0.968 -1.0606 -0.7231 -0.4868
 3386TIP3   OH231716   5.162   6.416   7.728  0.2123 -0.2729  0.6236
 3386TIP3    H131717   5.155   6.511   7.741  0.9531 -0.2919  1.1865
 3386TIP3    H231718   5.228   6.406   7.660  0.0762 -0.3859  0.5075
 3387TIP3   OH231719   3.549   2.435   2.313  0.5141 -0.1098  0.1104
 3387TIP3    H131720   3.486   2.364   2.303  0.9519 -0.5046  0.1303
 3387TIP3    H231721   3.630   2.402   2.273  0.5281  0.6467 -0.5276
 3388TIP3   OH231722   3.133   0.548   7.456  0.2183  0.1500 -0.0631
 3388TIP3    H131723   3.083   0.539   7.537  0.9136  0.6742  0.4353
 3388TIP3    H231724   3.115   0.467   7.408 -0.0974 -0.2267  0.6706
 3389TIP3   OH231725   3.343   1.438   8.224  0.4379 -0.3948  0.3657
 3389TIP3    H131726   3.283   1.380   8.176  2.2079 -1.4219 -0.7359
 3389TIP3    H231727   3.430   1.411   8.195  1.3748  3.2251 -0.6709
 3390TIP3   OH231728   3.578   1.886   8.829  0.4222 -0.2247 -0.3909
 3390TIP3    H131729   3.569   1.794   8.851  0.0638  0.1777  1.3120
 3390TIP3    H231730   3.532   1.896   8.745 -0.0495 -1.4667 -0.2955
 3391TIP3   OH231731   4.609   2.403   7.418  0.2010 -0.0233 -0.2737
 3391TIP3    H131732   4.676   2.459   7.378  0.2748 -0.5857 -0.9802
 3391TIP3    H231733   4.596   2.333   7.353  1.1405 -1.6089  1.1417
 3392TIP3   OH231734   3.586   4.882   1.696 -0.4095 -0.8502  0.3346
 3392TIP3    H131735   3.587   4.963   1.644  1.8156 -0.3879  0.9695
 3392TIP3    H231736   3.496   4.873   1.726 -0.6061  1.7455  0.7338
 3393TIP3   OH231737   3.276   0.043   0.399 -0.4669  0.2699  0.8611
 3393TIP3    H131738   3.296  -0.005   0.479  2.0457 -0.4985 -0.1273
 3393TIP3    H231739   3.355   0.092   0.380 -0.6582 -0.2108 -1.5687
 3394TIP3   OH231740   4.553   3.028   7.928  0.1544 -0.4762 -0.0324
 3394TIP3    H131741   4.575   3.029   7.835 -0.9287 -1.0220 -0.3052
 3394TIP3    H231742   4.610   2.960   7.965 -1.2456 -2.1526 -0.8004
 3395TIP3   OH231743   4.215   2.243   8.520 -0.0987  0.4762  0.1010
 3395TIP3    H131744   4.149   2.193   8.568  1.4446 -2.1408 -0.3446
 3395TIP3    H231745   4.171   2.272   8.441 -1.6654  1.8719  1.3991
 3396TIP3   OH231746   0.409   5.464   7.125  0.2154 -0.1726  0.1837
 3396TIP3    H131747   0.363   5.488   7.044  1.0119  0.2868 -0.1452
 3396TIP3    H231748   0.480   5.406   7.096  0.4088 -0.1326  0.5754
 3397TIP3   OH231749   4.123   4.315   7.703  0.6395 -0.1512 -0.2378
 3397TIP3    H131750   4.081   4.262   7.635  0.4975 -1.3768  0.7528
 3397TIP3    H231751   4.065   4.305   7.779  0.7920  1.1880  0.0755
 3398TIP3   OH231752   1.453   6.588   7.956  0.1030  0.4563  0.6867
 3398TIP3    H131753   1.477   6.527   7.885  0.7534  0.3159  1.0207
 3398TIP3    H231754   1.521   6.655   7.954  0.8953 -0.2638  2.0317
 3399TIP3   OH231755   3.716   3.662   8.505  0.3832  0.6954  0.2764
 3399TIP3    H131756   3.769   3.741   8.520 -0.3897  1.0362  1.3220
 3399TIP3    H231757   3.626   3.694   8.506 -0.0082 -0.3616  1.9301
 3400TIP3   OH231758   6.009   5.544   0.862 -0.0076 -0.2086 -0.0433
 3400TIP3    H131759   6.077   5.611   0.869  0.1719 -0.5662  2.1764
 3400TIP3    H231760   6.035   5.492   0.786  2.0310 -0.1216  0.5222
 3401TIP3   OH231761   4.894   3.405   2.285  0.1213 -0.0704  0.0815
 3401TIP3    H131762   4.834   3.406   2.360  1.9584  0.9244  1.6122
 3401TIP3    H231763   4.876   3.487   2.239 -1.2353 -0.8284 -0.8439
 3402TIP3   OH231764   6.299   2.314   7.733  0.1527 -0.3490 -0.0213
 3402TIP3    H131765   6.296   2.405   7.761  0.9305 -0.3084 -0.0677
 3402TIP3    H231766   6.273   2.316   7.641 -0.8779 -0.3047  0.2593
 3403TIP3   OH231767   3.871   0.062   7.821 -0.1954  0.1534 -0.8490
 3403TIP3    H131768   3.900  -0.027   7.804 -2.7957 -1.0118  0.2004
 3403TIP3    H231769   3.838   0.093   7.737  0.0940 -0.1577 -1.0752
 3404TIP3   OH231770   4.924   5.090   0.264  0.2839 -0.3743 -0.4131
 3404TIP3    H131771   4.838   5.131   0.253  0.0422 -1.0193 -1.1054
 3404TIP3    H231772   4.939   5.046   0.180  0.1503 -2.3776  0.5521
 3405TIP3   OH231773   1.037   2.584   8.231 -0.6011 -0.2718 -0.5720
 3405TIP3    H131774   1.116   2.533   8.247 -0.5286 -0.1024 -0.3775
 3405TIP3    H231775   1.015   2.567   8.139  0.1799  0.3800 -0.9024
 3406TIP3   OH231776   6.457   1.796   2.308 -0.2043  0.7568 -0.0363
 3406TIP3    H131777   6.538   1.846   2.318 -0.3461  1.3488 -1.6088
 3406TIP3    H231778   6.483   1.715   2.266 -0.4890  1.2479 -1.2048
 3407TIP3   OH231779   4.859   1.774   7.583  0.2650 -0.1050 -0.2748
 3407TIP3    H131780   4.775   1.819   7.597  1.2377  2.4402 -1.9428
 3407TIP3    H231781   4.878   1.733   7.667 -1.3475  1.5620  0.9998
 3408TIP3   OH231782   6.595   1.664   0.244  0.2491 -0.1764  0.6942
 3408TIP3    H131783   6.634   1.709   0.169  1.3631 -0.2403  1.2086
 3408TIP3    H231784   6.589   1.573   0.216 -0.6929  0.0380  0.1655
 3409TIP3   OH231785   6.101   3.399   8.573  0.1219  0.2680 -0.6748
 3409TIP3    H131786   6.031   3.461   8.597  2.7670  2.9944  0.7246
 3409TIP3    H231787   6.107   3.405   8.478 -1.0386  0.5398 -0.7480
 3410TIP3   OH231788   1.351   6.534   7.063 -0.1645 -0.0196  0.1906
 3410TIP3    H131789   1.344   6.452   7.014  2.5294  0.7414 -1.6883
 3410TIP3    H231790   1.291   6.594   7.018  1.2590  0.2692 -1.4350
 3411TIP3   OH231791   5.288   0.441   2.098 -0.0239  0.0373 -0.1469
 3411TIP3    H131792   5.227   0.446   2.171  0.6620  2.2503  0.3630
 3411TIP3    H231793   5.360   0.387   2.130 -0.2258  0.1157  0.4364
 3412TIP3   OH231794   0.237   4.060   7.162  0.1262  0.6536 -0.3716
 3412TIP3    H131795   0.203   3.981   7.204 -1.9388  2.1286  0.9024
 3412TIP3    H231796   0.168   4.087   7.102  1.7841  0.2885 -2.6073
 3413TIP3   OH231797   5.447   3.060   0.325 -0.3547 -0.2770  0.0725
 3413TIP3    H131798   5.412   3.149   0.328 -0.3839 -0.2904  0.1246
 3413TIP3    H231799   5.385   3.008   0.376 -1.2444 -0.6372 -1.3123
 3414TIP3   OH231800   3.266   0.990   1.374  0.2625  0.2059 -0.1441
 3414TIP3    H131801   3.351   0.955   1.348 -0.5233 -1.7031 -0.2669
 3414TIP3    H231802   3.282   1.033   1.458  1.0515 -1.6084  0.6689
 3415TIP3   OH231803   1.354   1.572   7.491 -1.0055 -0.2432  0.3092
 3415TIP3    H131804   1.435   1.618   7.469 -0.5791 -0.0522  2.1187
 3415TIP3    H231805   1.323   1.616   7.571 -2.0069 -1.3654  0.5547
 3416TIP3   OH231806   0.918   5.642   0.939 -0.2393 -0.2898 -0.1581
 3416TIP3    H131807   0.939   5.733   0.919  2.1535 -0.7834 -0.2548
 3416TIP3    H231808   0.850   5.618   0.876 -2.3857  1.9403  1.1647
 3417TIP3   OH231809   1.187   3.657   6.430 -0.6678 -0.8844  0.0192
 3417TIP3    H131810   1.167   3.715   6.356  0.3711 -0.6296 -0.0709
 3417TIP3    H231811   1.187   3.714   6.507  1.2404 -0.5683 -0.1818
 3418TIP3   OH231812   4.651   2.431   8.370 -0.0613  0.0464  0.2073
 3418TIP3    H131813   4.566   2.474   8.375  0.7942  1.6457  2.8337
 3418TIP3    H231814   4.713   2.501   8.351  0.9616 -0.6006  1.0228
 3419TIP3   OH231815   4.235   2.876   0.285 -0.0632 -0.1971  0.1901
 3419TIP3    H131816   4.144   2.849   0.298 -0.2079  0.0126 -0.3606
 3419TIP3    H231817   4.237   2.967   0.316 -0.1195 -0.0966 -0.0973
 3420TIP3   OH231818   2.555   0.685   6.262 -0.0072 -0.4058 -0.1226
 3420TIP3    H131819   2.467   0.709   6.289 -0.5988 -0.8354 -1.5849
 3420TIP3    H231820   2.595   0.767   6.234  0.2254 -0.1450  0.9055
 3421TIP3   OH231821   6.139   1.127   0.237 -0.5051 -0.0306 -0.0380
 3421TIP3    H131822   6.071   1.172   0.288 -0.3162 -0.9784  1.1122
 3421TIP3    H231823   6.189   1.197   0.197 -2.0904  0.6952 -0.8392
 3422TIP3   OH231824   3.559   5.213   8.285  0.2593 -0.1550  0.2071
 3422TIP3    H131825   3.622   5.283   8.301 -0.1809  0.8372 -2.0988
 3422TIP3    H231826   3.605   5.133   8.312  2.8878  0.4177 -2.1319
 3423TIP3   OH231827   1.708   2.291   8.327 -0.0287 -0.1725  0.5970
 3423TIP3    H131828   1.766   2.354   8.286 -1.6543  1.3789  0.5712
 3423TIP3    H231829   1.680   2.234   8.256  0.3293 -0.0384  0.3461
 3424TIP3   OH231830   1.997   6.739   8.841 -0.3823  0.5223  0.0925
 3424TIP3    H131831   2.018   6.738   8.934  0.6887  0.3550 -0.1466
 3424TIP3    H231832   2.007   6.831   8.815 -0.7654  0.5841  0.1550
 3425TIP3   OH231833   4.954   2.038   1.215  0.1626  0.3988  0.4783
 3425TIP3    H131834   5.031   2.095   1.225  3.4080 -3.1576 -1.2786
 3425TIP3    H231835   4.971   1.966   1.276 -2.3033 -0.1367  0.6061
 3426TIP3   OH231836   0.745   2.461   2.049 -0.0618  0.2405  0.0535
 3426TIP3    H131837   0.780   2.392   2.106 -0.1266 -0.7340 -1.0549
 3426TIP3    H231838   0.745   2.539   2.104  1.2686 -0.3365  0.9337
 3427TIP3   OH231839   5.190   5.636   0.242  0.1730  0.0680  0.0987
 3427TIP3    H131840   5.195   5.579   0.319  0.6184  0.0344  0.0447
 3427TIP3    H231841   5.192   5.575   0.168 -1.0608  0.0412  0.0616
 3428TIP3   OH231842   2.905   3.010   7.969  0.1466 -0.0119 -0.4766
 3428TIP3    H131843   2.858   2.934   7.935  0.5173  0.0838 -1.2243
 3428TIP3    H231844   2.838   3.060   8.016 -0.1458 -0.6905 -0.1616
 3429TIP3   OH231845   3.675   3.469   2.363 -0.3795 -0.3858  1.0896
 3429TIP3    H131846   3.730   3.493   2.437  0.7009  0.0337  0.1803
 3429TIP3    H231847   3.595   3.521   2.374  0.1545  0.3716  1.4564
 3430TIP3   OH231848   5.814   1.528   8.392  0.2798 -0.1167 -0.6460
 3430TIP3    H131849   5.772   1.454   8.437 -0.0180  0.5519  0.2044
 3430TIP3    H231850   5.793   1.515   8.299 -0.4298 -0.6806 -0.4146
 3431TIP3   OH231851   3.455   4.133   2.179  0.1137 -0.2815 -0.5056
 3431TIP3    H131852   3.533   4.171   2.220  0.2615 -0.3373 -0.7388
 3431TIP3    H231853   3.386   4.146   2.245  0.1195  0.5527 -0.6467
 3432TIP3   OH231854   2.630   2.515   2.210 -0.1353  0.5037  0.4538
 3432TIP3    H131855   2.612   2.498   2.302 -1.5867  0.4809  0.1852
 3432TIP3    H231856   2.544   2.532   2.171  0.2595 -1.0681 -1.2233
 3433TIP3   OH231857   0.973   6.745   7.190 -0.0293  0.5197  0.1374
 3433TIP3    H131858   0.890   6.711   7.222  1.0496 -0.1374  2.4503
 3433TIP3    H231859   1.037   6.717   7.256  2.2532 -0.1224 -2.2076
 3434TIP3   OH231860   2.404   3.332   2.376 -0.1692 -0.5083  0.0804
 3434TIP3    H131861   2.470   3.270   2.407  0.0186 -0.2458  0.2099
 3434TIP3    H231862   2.439   3.418   2.398 -1.2107 -0.3970  1.4845
 3435TIP3   OH231863   2.482   6.201   7.571 -0.0412 -0.2887 -0.0733
 3435TIP3    H131864   2.461   6.109   7.556 -0.3903 -0.1785 -0.2861
 3435TIP3    H231865   2.397   6.243   7.581  0.0579  0.2000 -1.1366
 3436TIP3   OH231866   6.637   1.225   1.313 -0.9432 -0.2281 -0.6794
 3436TIP3    H131867   6.662   1.308   1.272  0.6010 -0.1780  0.2856
 3436TIP3    H231868   6.685   1.223   1.396  1.1165 -3.1355 -1.7363
 3437TIP3   OH231869   0.007   0.848   0.886 -0.3654 -0.6024  0.6282
 3437TIP3    H131870  -0.018   0.904   0.813 -0.2421 -0.0493  1.0064
 3437TIP3    H231871  -0.025   0.894   0.964  2.0483  0.3064  1.1829
 3438TIP3   OH231872   1.021   0.098   1.771  0.0184  0.5236 -1.0624
 3438TIP3    H131873   0.966   0.107   1.849  1.5971 -0.4883  0.2384
 3438TIP3    H231874   1.038   0.188   1.742 -1.5330  0.8755 -0.9628
 3439TIP3   OH231875   3.074   6.268   0.477  0.3138 -0.0754  0.6659
 3439TIP3    H131876   3.122   6.348   0.500 -0.7725  0.8040  0.0184
 3439TIP3    H231877   2.989   6.300   0.446  0.4502 -1.3700 -1.2398
 3440TIP3   OH231878   6.621   2.340   1.782 -0.1334  0.2663  0.5658
 3440TIP3    H131879   6.557   2.338   1.853 -0.8138 -0.1953 -0.0395
 3440TIP3    H231880   6.642   2.432   1.770  0.3103  0.3171  1.6389
 3441TIP3   OH231881   0.169   6.326   6.966 -1.0491  0.6431 -0.3085
 3441TIP3    H131882   0.176   6.400   7.026 -0.8004 -0.1030  0.6127
 3441TIP3    H231883   0.095   6.348   6.909 -1.6021  1.1551  0.5782
 3442TIP3   OH231884   3.536   0.781   0.790 -0.0706 -0.0668 -0.4937
 3442TIP3    H131885   3.544   0.692   0.756  1.1025  0.4748 -1.7422
 3442TIP3    H231886   3.477   0.773   0.865  0.3282 -1.9475 -0.3304
 3443TIP3   OH231887   2.625   0.732   8.654  0.3154  0.1172  0.3374
 3443TIP3    H131888   2.716   0.748   8.678  0.5350 -1.3844  0.6002
 3443TIP3    H231889   2.575   0.747   8.734  0.8759 -3.3691  1.5082
 3444TIP3   OH231890   4.514   4.782   1.813 -0.4696 -0.7336 -0.6078
 3444TIP3    H131891   4.575   4.840   1.768 -1.8586  1.4415  0.1180
 3444TIP3    H231892   4.445   4.766   1.750 -1.0097 -0.0072 -0.2241
 3445TIP3   OH231893   3.764   0.879   8.650 -0.0283  0.3767 -0.0511
 3445TIP3    H131894   3.670   0.893   8.643 -0.4041 -1.8681 -0.1145
 3445TIP3    H231895   3.776   0.839   8.736  0.6650 -0.6622 -0.6069
 3446TIP3   OH231896   6.274   4.569   0.026  0.2905  0.1597  0.3482
 3446TIP3    H131897   6.252   4.513   0.101 -1.7862  0.1398 -0.1972
 3446TIP3    H231898   6.369   4.569   0.023  0.4180 -0.4625  2.5096
 3447TIP3   OH231899   2.299   2.817   1.114 -0.3612  0.3936  0.4610
 3447TIP3    H131900   2.341   2.879   1.055 -0.0829  1.3717  1.6442
 3447TIP3    H231901   2.369   2.760   1.144 -0.3273  0.4904  0.5664
 3448TIP3   OH231902   3.371   2.614   8.631 -0.7683 -0.4515  0.7781
 3448TIP3    H131903   3.458   2.655   8.633 -1.2992  0.8358 -0.8744
 3448TIP3    H231904   3.371   2.557   8.708  0.9273  0.7607  1.7712
 3449TIP3   OH231905   1.977   0.416   7.826 -0.5846  0.1423 -0.2503
 3449TIP3    H131906   1.916   0.458   7.766  0.2677  1.9002  0.0349
 3449TIP3    H231907   2.036   0.365   7.770 -0.9164  0.2779 -0.7265
 3450TIP3   OH231908   3.564   4.709   7.899  0.0983 -0.0994  0.3689
 3450TIP3    H131909   3.613   4.778   7.943  2.6325 -2.0609  0.8754
 3450TIP3    H231910   3.605   4.628   7.929 -1.3343 -1.7542 -1.8274
 3451TIP3   OH231911   0.042   6.443   8.657 -0.3331 -0.1381  0.4391
 3451TIP3    H131912   0.123   6.395   8.676 -0.4914 -1.0480 -1.0212
 3451TIP3    H231913  -0.003   6.388   8.593 -1.5879  0.9109  0.3967
 3452TIP3   OH231914   3.887   5.827   8.399 -0.0232  0.0741  0.5385
 3452TIP3    H131915   3.898   5.857   8.489  0.3949  0.2035  0.4423
 3452TIP3    H231916   3.792   5.832   8.384  0.0138  1.1281  0.6036
 3453TIP3   OH231917   1.190   6.460   7.694  0.6840  0.1237  0.7530
 3453TIP3    H131918   1.125   6.486   7.760  1.1375  0.5152  1.0556
 3453TIP3    H231919   1.243   6.538   7.681  1.0729 -0.1835  0.4778
 3454TIP3   OH231920   6.716   6.131   2.095 -0.2228 -0.1780  0.8715
 3454TIP3    H131921   6.679   6.190   2.161 -1.6755 -0.3974  0.2894
 3454TIP3    H231922   6.685   6.044   2.121  0.8566 -0.5289  1.0124
 3455TIP3   OH231923   0.809   1.078   7.665 -0.8839  0.4493  0.4164
 3455TIP3    H131924   0.835   1.138   7.596 -0.7190  0.6550  0.6539
 3455TIP3    H231925   0.815   0.991   7.626 -0.6822  0.5573  0.2076
 3456TIP3   OH231926   2.829   5.715   0.212 -0.4220 -0.1319 -0.2888
 3456TIP3    H131927   2.744   5.757   0.197  0.9974  2.2489 -2.4731
 3456TIP3    H231928   2.841   5.658   0.136  0.1649 -0.0410 -0.2642
 3457TIP3   OH231929   2.143   1.179   8.470 -0.3377  0.7606  0.2846
 3457TIP3    H131930   2.066   1.177   8.413  0.9479  0.8714 -1.5656
 3457TIP3    H231931   2.180   1.266   8.457  0.3085  0.5812  0.8490
 3458TIP3   OH231932   1.269   6.322   0.548  0.1547  0.1160 -0.0179
 3458TIP3    H131933   1.206   6.302   0.616 -0.2201 -0.9116 -0.6528
 3458TIP3    H231934   1.237   6.403   0.508  1.5892  2.0385  2.4468
 3459TIP3   OH231935   5.061   0.982   0.552 -0.0142  0.0163 -0.6791
 3459TIP3    H131936   5.023   0.902   0.590  1.1354 -2.4948 -4.2815
 3459TIP3    H231937   5.153   0.979   0.577 -0.2029  0.9816  0.2111
 3460TIP3   OH231938   5.102   6.539   6.803 -0.2489  0.0958 -0.3817
 3460TIP3    H131939   5.147   6.539   6.888  0.0283 -0.1799 -0.5265
 3460TIP3    H231940   5.142   6.611   6.754  0.4003 -0.4779 -0.7001
 3461TIP3   OH231941   5.663   0.139   6.363 -0.5867  0.3433 -0.0547
 3461TIP3    H131942   5.683   0.218   6.414  1.1391 -0.3274  0.3765
 3461TIP3    H231943   5.612   0.085   6.422  2.4413 -0.9795  1.6077
 3462TIP3   OH231944   4.415   4.352   8.052  0.1162  0.7114  0.6130
 3462TIP3    H131945   4.350   4.328   8.117  0.6356  1.4023  1.4098
 3462TIP3    H231946   4.440   4.270   8.010 -0.6917  0.3461  0.8304
 3463TIP3   OH231947   2.158   0.484   1.155  0.1139 -0.0607  0.1732
 3463TIP3    H131948   2.239   0.435   1.174  0.0335 -0.5250 -0.6502
 3463TIP3    H231949   2.116   0.435   1.085 -0.8164  0.2689  0.4846
 3464TIP3   OH231950   3.171   4.359   7.860  0.0082  0.5905 -0.0051
 3464TIP3    H131951   3.211   4.277   7.889 -1.0442 -0.3367 -1.0291
 3464TIP3    H231952   3.218   4.427   7.907  1.2606 -0.5692  0.4967
 3465TIP3   OH231953   5.224   0.237   1.088 -0.3722  0.1950 -0.0940
 3465TIP3    H131954   5.292   0.229   1.154 -0.8578 -0.1562  0.3700
 3465TIP3    H231955   5.143   0.249   1.137 -0.5520  1.4170 -0.6539
 3466TIP3   OH231956   6.133   4.252   1.082  0.1377 -1.2212 -0.1348
 3466TIP3    H131957   6.039   4.251   1.065  0.1213 -0.1542 -0.1301
 3466TIP3    H231958   6.165   4.172   1.040 -0.7297 -1.4821 -0.3302
 3467TIP3   OH231959   3.811   5.387   1.192  0.4979  0.0891  0.3595
 3467TIP3    H131960   3.759   5.383   1.111  0.0582 -2.4979  0.6860
 3467TIP3    H231961   3.891   5.432   1.166 -0.0088  0.1358 -1.2922
 3468TIP3   OH231962   3.001   0.669   8.061 -0.2604  0.3102 -0.7063
 3468TIP3    H131963   3.041   0.666   8.148  0.9168  0.6288 -1.2128
 3468TIP3    H231964   3.075   0.686   8.001 -0.2922 -3.6921 -2.2335
 3469TIP3   OH231965   2.804   1.581   7.253 -0.8418 -0.6241  0.0700
 3469TIP3    H131966   2.724   1.560   7.302 -1.4041  0.9720 -0.1050
 3469TIP3    H231967   2.869   1.600   7.320 -0.4490 -2.3248  0.2226
 3470TIP3   OH231968   1.427   3.327   1.809 -0.0115 -0.3158  0.5898
 3470TIP3    H131969   1.491   3.306   1.877  0.7922 -1.5951 -0.5053
 3470TIP3    H231970   1.390   3.242   1.784  1.4636 -0.2598 -2.2238
 3471TIP3   OH231971   4.247   2.126   0.619  0.4727 -0.6850 -0.1494
 3471TIP3    H131972   4.201   2.173   0.688  0.9204  1.0821 -1.0112
 3471TIP3    H231973   4.235   2.033   0.641 -1.8831 -0.2472  0.6550
 3472TIP3   OH231974   2.301   3.365   1.094 -0.4423  0.3082  0.9320
 3472TIP3    H131975   2.382   3.400   1.058 -0.1341 -1.6331 -0.4534
 3472TIP3    H231976   2.263   3.437   1.143  1.4668  1.6683  0.5234
 3473TIP3   OH231977   5.954   3.569   7.030 -0.3680 -0.2932 -0.4876
 3473TIP3    H131978   5.896   3.499   7.002 -0.6744  0.0739 -0.7794
 3473TIP3    H231979   5.930   3.644   6.975 -0.8891  0.4069  0.6618
 3474TIP3   OH231980   5.067   6.293   0.720  0.1241  0.0255 -0.1866
 3474TIP3    H131981   5.134   6.253   0.774  0.5917 -1.3132 -1.6679
 3474TIP3    H231982   5.038   6.222   0.662 -2.9783  0.3769  0.7387
 3475TIP3   OH231983   2.551   4.591   1.780  0.5893 -0.6298 -0.4153
 3475TIP3    H131984   2.477   4.575   1.722  1.8715 -0.5574 -2.1522
 3475TIP3    H231985   2.588   4.504   1.797  2.1454 -0.4475 -2.4509
 3476TIP3   OH231986   4.687   5.682   2.591 -0.6625 -0.3748 -0.2420
 3476TIP3    H131987   4.718   5.635   2.669  1.2023 -0.4609 -0.9811
 3476TIP3    H231988   4.592   5.672   2.594 -0.6285 -0.6617  1.8270
 3477TIP3   OH231989   0.304   6.015   0.290  0.2814 -0.1399 -0.7682
 3477TIP3    H131990   0.252   5.965   0.227 -0.4663  0.9922 -1.0814
 3477TIP3    H231991   0.296   5.966   0.372 -0.6420 -0.4075 -1.0108
 3478TIP3   OH231992   1.307   3.995   7.884 -0.1375 -0.0640  0.1541
 3478TIP3    H131993   1.233   3.974   7.940  0.0486  0.2803  0.5268
 3478TIP3    H231994   1.331   3.911   7.844  0.1477 -0.4374  1.0925
 3479TIP3   OH231995   0.423   5.795   8.054  0.1468 -0.0868  0.1004
 3479TIP3    H131996   0.464   5.800   8.141  0.7790  0.0859 -0.2002
 3479TIP3    H231997   0.482   5.739   8.003 -0.1243 -0.0372 -0.2661
 3480TIP3   OH231998   1.982   5.872   8.418  0.5852  0.0728  0.0098
 3480TIP3    H131999   2.019   5.849   8.333  1.3784  2.9617 -0.5213
 3480TIP3    H232000   2.031   5.818   8.480  1.2329 -0.7804 -1.1956
 3481TIP3   OH232001   5.835   3.145   6.824 -0.1426 -0.1844 -0.8985
 3481TIP3    H132002   5.829   3.066   6.771 -1.4749  0.1185 -1.2413
 3481TIP3    H232003   5.761   3.199   6.795 -1.3350 -0.2851  1.7091
 3482TIP3   OH232004   5.949   4.507   1.124  0.0730  0.7581 -0.0438
 3482TIP3    H132005   5.858   4.518   1.096 -0.7161  0.0469  2.0642
 3482TIP3    H232006   5.978   4.596   1.145 -0.3277  0.9111 -0.1292
 3483TIP3   OH232007   1.459   0.771   1.728 -0.3099 -0.0479  0.0285
 3483TIP3    H132008   1.401   0.756   1.654 -1.5783  0.9228  0.7871
 3483TIP3    H232009   1.510   0.690   1.735 -0.5819 -0.3896 -1.5071
 3484TIP3   OH232010   5.192   5.167   7.977  0.0242  0.1233  0.3934
 3484TIP3    H132011   5.130   5.102   8.010 -0.4639  0.2304 -0.2724
 3484TIP3    H232012   5.169   5.247   8.023 -0.9532  0.3821 -0.4830
 3485TIP3   OH232013   3.252   4.812   8.138  0.5896  0.0592 -0.1899
 3485TIP3    H132014   3.180   4.871   8.119  0.1896  0.0650  1.2475
 3485TIP3    H232015   3.331   4.867   8.130  0.3070  0.4934 -0.0237
 3486TIP3   OH232016   3.437   5.170   1.727  0.2519  0.0966 -0.2514
 3486TIP3    H132017   3.379   5.123   1.786  1.1308 -0.1158  0.4708
 3486TIP3    H232018   3.522   5.171   1.772  0.7913  0.4720 -1.2338
 3487TIP3   OH232019   5.096   2.301   7.700 -0.4220 -0.5350 -0.1802
 3487TIP3    H132020   5.190   2.300   7.683 -0.3783 -0.8433  0.0719
 3487TIP3    H232021   5.084   2.373   7.762 -0.4558 -0.0159 -0.7814
 3488TIP3   OH232022   3.346   2.150   7.577  0.4969  0.2002  0.1704
 3488TIP3    H132023   3.387   2.214   7.635 -0.6590 -1.6397  3.3063
 3488TIP3    H232024   3.386   2.066   7.602 -0.9885 -0.8325 -0.7657
 3489TIP3   OH232025   5.220   0.247   7.101  0.2570  0.0556  0.1697
 3489TIP3    H132026   5.284   0.184   7.067 -0.6275  0.0775 -1.6417
 3489TIP3    H232027   5.228   0.240   7.196  1.6392 -1.2817 -0.0035
 3490TIP3   OH232028   0.570   6.546   0.424  0.0951 -0.0398 -0.2060
 3490TIP3    H132029   0.522   6.466   0.405 -0.9793  0.4422  0.4004
 3490TIP3    H232030   0.509   6.600   0.473  0.5498  1.4444 -1.1800
 3491TIP3   OH232031   3.347   4.375   1.865 -0.0946 -0.5029  0.2561
 3491TIP3    H132032   3.333   4.459   1.910 -0.9851  0.0655 -1.0196
 3491TIP3    H232033   3.439   4.355   1.880  0.8729  2.0664 -1.5846
 3492TIP3   OH232034   2.718   4.145   7.656  0.4034 -0.4788 -0.4692
 3492TIP3    H132035   2.724   4.182   7.568 -2.2091  0.1676 -0.4483
 3492TIP3    H232036   2.727   4.050   7.643  0.0521 -0.3943 -1.4359
 3493TIP3   OH232037   3.095   3.648   1.826  0.2751  0.2612 -0.0736
 3493TIP3    H132038   3.131   3.577   1.880 -0.9888 -0.0991  0.3472
 3493TIP3    H232039   3.069   3.605   1.744 -2.3351 -0.2555  0.9170
 3494TIP3   OH232040   1.825   0.197   7.068  0.1509 -0.5194  0.5757
 3494TIP3    H132041   1.766   0.136   7.024  0.9737  0.7561 -2.5674
 3494TIP3    H232042   1.768   0.269   7.096 -0.1216 -0.3457 -0.3957
 3495TIP3   OH232043   3.238   5.107   8.677  0.4491  0.2729  0.0042
 3495TIP3    H132044   3.169   5.130   8.615 -0.4993  0.3998  1.0717
 3495TIP3    H232045   3.233   5.012   8.686  0.9662  0.1902 -0.5334
 3496TIP3   OH232046   1.634   3.539   0.350 -0.3651 -0.3558  0.3087
 3496TIP3    H132047   1.703   3.529   0.415  2.7552 -3.5755 -2.9519
 3496TIP3    H232048   1.676   3.587   0.278 -1.9588 -1.2012 -1.2626
 3497TIP3   OH232049   4.463   5.723   0.671 -0.2893 -0.1215  0.5555
 3497TIP3    H132050   4.427   5.691   0.589  1.7032 -0.0057 -0.4267
 3497TIP3    H232051   4.454   5.818   0.666 -0.9395 -0.1603  0.8730
 3498TIP3   OH232052   3.724   5.916   7.746 -0.2133 -0.1680 -0.2886
 3498TIP3    H132053   3.657   5.950   7.686  0.0214 -2.3213 -1.8973
 3498TIP3    H232054   3.676   5.860   7.806 -0.1899  0.4258  0.2870
 3499TIP3   OH232055   1.811   3.817   7.601 -0.1044 -0.2218  0.7832
 3499TIP3    H132056   1.897   3.820   7.557 -1.2377  2.4442 -1.6108
 3499TIP3    H232057   1.805   3.729   7.636  3.2876 -0.7603  0.3821
 3500TIP3   OH232058   6.352   4.314   0.747 -0.3914  0.3940  0.1899
 3500TIP3    H132059   6.349   4.365   0.828 -1.4976  0.0417  0.3891
 3500TIP3    H232060   6.382   4.228   0.774  0.3366  0.5955  0.0385
 3501TIP3   OH232061   3.327   4.407   1.411  1.0038  0.3838  0.0132
 3501TIP3    H132062   3.245   4.359   1.421  0.1182  1.9924  0.8518
 3501TIP3    H232063   3.362   4.376   1.328 -0.9731  0.3919 -0.8900
 3502TIP3   OH232064   2.199   6.002   6.773 -0.5968  0.3006  0.2678
 3502TIP3    H132065   2.257   5.969   6.705 -1.3288 -0.7631  0.1428
 3502TIP3    H232066   2.147   6.070   6.730  0.1893  0.8973  0.2488
 3503TIP3   OH232067   5.162   1.890   0.946 -0.6622  0.2581  0.0431
 3503TIP3    H132068   5.184   1.929   0.861 -1.1138  0.9936  0.2520
 3503TIP3    H232069   5.079   1.931   0.970 -1.1426 -0.8325  0.2935
 3504TIP3   OH232070   3.673   6.019   8.209  0.2060  0.1665  1.0737
 3504TIP3    H132071   3.659   6.114   8.202 -2.2126 -0.2118 -0.4142
 3504TIP3    H232072   3.585   5.982   8.207  1.1333 -2.2786 -1.6446
 3505TIP3   OH232073   6.208   2.075   1.632  0.3472  0.5716  0.1243
 3505TIP3    H132074   6.262   2.083   1.554  0.6576  1.3067  0.4089
 3505TIP3    H232075   6.205   1.981   1.649 -0.7148  0.2773 -1.4543
 3506TIP3   OH232076   5.419   0.205   1.300 -0.0071  0.3121 -0.0900
 3506TIP3    H132077   5.495   0.159   1.263  0.8019 -0.3981  2.2357
 3506TIP3    H232078   5.357   0.135   1.319 -1.1859  0.8666 -1.7505
 3507TIP3   OH232079   6.510   4.316   1.282 -0.1009  0.5469  0.2076
 3507TIP3    H132080   6.516   4.286   1.192  0.3822  0.9249  0.1060
 3507TIP3    H232081   6.594   4.290   1.322  0.9800  2.9582 -0.2798
 3508TIP3   OH232082   2.149   0.627   6.567  0.6146 -0.5811 -0.1696
 3508TIP3    H132083   2.145   0.638   6.472 -0.7043 -1.8412 -0.2892
 3508TIP3    H232084   2.140   0.716   6.602  0.7715 -0.1410 -1.2040
 3509TIP3   OH232085   5.799   1.276   0.840 -0.0402 -0.0773 -0.0591
 3509TIP3    H132086   5.804   1.369   0.863 -0.6260  0.7985 -2.9500
 3509TIP3    H232087   5.876   1.260   0.785  2.0793 -2.3845  3.2488
 3510TIP3   OH232088   4.702   5.235   8.576  0.1121 -0.0777 -0.1113
 3510TIP3    H132089   4.697   5.305   8.511 -1.8451 -0.3706 -0.3425
 3510TIP3    H232090   4.655   5.162   8.537 -0.1893 -0.6269  1.2039
 3511TIP3   OH232091   1.732   6.384   0.417  0.7743 -0.0347 -0.8349
 3511TIP3    H132092   1.651   6.435   0.423 -0.6151 -1.6585 -3.5459
 3511TIP3    H232093   1.728   6.323   0.490  0.1335  0.6424 -0.2893
 3512TIP3   OH232094   6.364   6.068   1.244  0.2026 -0.3711  0.0228
 3512TIP3    H132095   6.433   6.134   1.246 -0.2996  0.2540 -1.8156
 3512TIP3    H232096   6.405   5.990   1.283  1.8792  0.0513 -0.7757
 3513TIP3   OH232097   1.670   2.266   0.052  0.1099 -0.4475 -0.5442
 3513TIP3    H132098   1.764   2.278   0.065 -0.0747 -0.3278  0.8437
 3513TIP3    H232099   1.636   2.355   0.040 -0.2129 -0.1175  2.1136
 3514TIP3   OH232100   6.506   1.116   8.058 -0.4254 -0.0467  0.6326
 3514TIP3    H132101   6.601   1.105   8.059 -0.3987 -0.5202 -1.5482
 3514TIP3    H232102   6.494   1.211   8.056  0.2287  0.0967 -2.8194
 3515TIP3   OH232103   2.466   3.662   8.696  0.1527 -1.1334 -0.8986
 3515TIP3    H132104   2.456   3.582   8.644 -0.7255 -0.9831 -0.9776
 3515TIP3    H232105   2.443   3.636   8.785 -2.5777 -0.4612 -1.3257
 3516TIP3   OH232106   2.314   3.370   0.267 -0.0307  0.2540  0.2408
 3516TIP3    H132107   2.246   3.306   0.286 -1.5569  1.0428 -2.0387
 3516TIP3    H232108   2.365   3.331   0.197 -0.3875  1.0922 -0.5134
 3517TIP3   OH232109   3.371   4.678   1.379 -0.4783 -0.0071 -0.4679
 3517TIP3    H132110   3.337   4.594   1.407 -0.9560 -0.4702 -2.3270
 3517TIP3    H232111   3.463   4.661   1.357  0.0957  0.5059  1.3305
 3518TIP3   OH232112   1.575   6.594   1.002  0.9246 -1.0038 -0.2324
 3518TIP3    H132113   1.605   6.683   0.985 -1.2468 -0.0011  0.8946
 3518TIP3    H232114   1.530   6.569   0.922  1.8075 -1.2595 -0.6714
 3519TIP3   OH232115   2.866   4.535   0.303 -0.3583 -0.3365  0.4825
 3519TIP3    H132116   2.840   4.606   0.245 -0.6104 -0.3485  0.5790
 3519TIP3    H232117   2.803   4.464   0.285 -0.1690 -0.4989  0.4556
 3520TIP3   OH232118   0.091   6.676   0.933 -0.0176  0.0369 -0.3407
 3520TIP3    H132119   0.165   6.640   0.982 -0.5770  0.3753  0.7951
 3520TIP3    H232120   0.031   6.708   1.001 -0.4939  1.1833 -1.2671
 3521TIP3   OH232121   2.427   4.124   0.685  0.4618 -0.0819  0.4038
 3521TIP3    H132122   2.421   4.077   0.602  0.4362  0.4581  0.0962
 3521TIP3    H232123   2.342   4.110   0.726 -0.4143  1.6058 -0.7329
 3522TIP3   OH232124   5.253   0.338   2.847  0.3878  0.2829 -0.1383
 3522TIP3    H132125   5.206   0.268   2.802 -0.3712  1.2094 -0.8145
 3522TIP3    H232126   5.298   0.386   2.777 -1.6425  2.3723 -0.1076
 3523TIP3   OH232127   1.569   6.109   0.165  0.2571 -0.0244 -0.2321
 3523TIP3    H132128   1.485   6.119   0.210  0.8908 -0.8394  1.1626
 3523TIP3    H232129   1.632   6.157   0.219  0.6297  1.0930 -1.5784
 3524TIP3   OH232130   0.822   5.523   2.418  0.1961  0.1370  0.2231
 3524TIP3    H132131   0.728   5.544   2.419  0.0472 -0.4950  1.4260
 3524TIP3    H232132   0.825   5.428   2.419  0.8485  0.1546  0.4141
 3525TIP3   OH232133   0.451   3.486   6.755  0.0652  0.0441  0.4726
 3525TIP3    H132134   0.539   3.509   6.724  0.7761 -0.6877  1.8448
 3525TIP3    H232135   0.467   3.422   6.824 -1.6446 -1.3977 -0.4208
 3526TIP3   OH232136   6.005   6.506   2.221  0.0332 -0.4764  0.1157
 3526TIP3    H132137   5.939   6.463   2.275 -0.6575  0.4169 -0.0002
 3526TIP3    H232138   5.957   6.535   2.143  0.5553  0.1954  0.0337
 3527TIP3   OH232139   2.111   4.517   0.678 -0.1787  0.2470 -0.4576
 3527TIP3    H132140   2.182   4.572   0.711  0.0674  0.2069 -0.9131
 3527TIP3    H232141   2.138   4.428   0.700 -0.5185  0.2934  0.1701
 3528TIP3   OH232142   4.232   2.514   1.750  0.1181  0.0649  0.4875
 3528TIP3    H132143   4.246   2.608   1.763 -1.3858  0.0858  2.5093
 3528TIP3    H232144   4.244   2.477   1.838 -2.2785 -1.1930  0.3440
 3529TIP3   OH232145   3.595   2.369   8.462 -0.3635 -0.2524 -0.0469
 3529TIP3    H132146   3.531   2.432   8.495 -1.2155  0.0002 -2.0921
 3529TIP3    H232147   3.567   2.285   8.500 -1.8666 -0.1256 -0.7860
 3530TIP3   OH232148   2.187   0.971   0.351  0.1293  0.2450  0.3004
 3530TIP3    H132149   2.262   0.924   0.388  1.4453  2.8101  1.0676
 3530TIP3    H232150   2.222   1.014   0.273 -1.0666 -0.0675 -0.4334
 3531TIP3   OH232151   5.594   3.207   0.659 -0.5084 -0.0019 -0.3047
 3531TIP3    H132152   5.622   3.132   0.712  0.2808 -1.3344 -2.4520
 3531TIP3    H232153   5.661   3.274   0.674  0.4207 -0.8455 -0.5577
 3532TIP3   OH232154   0.574   1.531   2.347 -0.2178  0.0865 -0.4612
 3532TIP3    H132155   0.568   1.437   2.366  0.1214  0.3137  0.8252
 3532TIP3    H232156   0.535   1.574   2.423  0.0209  1.0055 -0.8407
 3533TIP3   OH232157   4.792   6.151   8.454  0.4864 -0.3802 -0.0930
 3533TIP3    H132158   4.740   6.125   8.529  1.2237 -1.2215  0.1468
 3533TIP3    H232159   4.752   6.232   8.424 -0.0482 -0.2284  0.9786
 3534TIP3   OH232160   0.921   5.912   7.148 -0.3946 -0.2100 -0.0329
 3534TIP3    H132161   0.938   5.989   7.203  0.9543  0.0074 -0.7082
 3534TIP3    H232162   0.978   5.844   7.185  0.2450 -0.1652 -0.9196
 3535TIP3   OH232163   5.059   2.047   7.755 -0.1213  0.5719 -0.3833
 3535TIP3    H132164   5.123   2.034   7.825  0.1690  1.3887 -0.4923
 3535TIP3    H232165   5.064   2.140   7.735 -2.4623  1.0106  0.7061
 3536TIP3   OH232166   5.285   4.395   2.393 -0.2780  0.5845  0.3665
 3536TIP3    H132167   5.377   4.389   2.367  0.2609  1.5217  1.9144
 3536TIP3    H232168   5.283   4.463   2.460 -1.7060 -0.9422  1.9917
 3537TIP3   OH232169   6.527   1.196   8.814 -0.0789 -0.4928 -0.0378
 3537TIP3    H132170   6.507   1.264   8.750 -1.0150 -0.8578 -0.1407
 3537TIP3    H232171   6.622   1.184   8.807  0.2241  1.2684  0.4573
 3538TIP3   OH232172   3.111   0.328   7.264 -0.1342 -0.0779  0.0698
 3538TIP3    H132173   3.154   0.244   7.279  0.9456  0.6755  1.4855
 3538TIP3    H232174   3.022   0.316   7.297  0.5077 -0.2122  1.8816
 3539TIP3   OH232175   4.934   3.540   7.938  0.3699  0.4135  0.4287
 3539TIP3    H132176   4.886   3.619   7.910  1.1554  1.5419  2.0713
 3539TIP3    H232177   4.869   3.488   7.986  0.3603  1.1742  1.2779
 3540TIP3   OH232178   0.495   5.813   1.959 -0.8754  0.4592 -0.1010
 3540TIP3    H132179   0.546   5.881   1.915  0.7728  0.2587  1.3850
 3540TIP3    H232180   0.502   5.737   1.901 -0.8637  0.9117 -0.7009
 3541TIP3   OH232181   0.225   2.035   1.600  0.1548 -0.5103  0.1521
 3541TIP3    H132182   0.289   2.085   1.651 -0.3329 -0.7114  0.9858
 3541TIP3    H232183   0.152   2.021   1.661 -0.8818  0.1018 -0.9224
 3542TIP3   OH232184   0.547   5.770   2.540 -0.2610  0.1214  0.1258
 3542TIP3    H132185   0.635   5.764   2.579 -0.9622  1.8747  2.1954
 3542TIP3    H232186   0.508   5.684   2.555  0.7972 -0.4026 -0.0441
 3543TIP3   OH232187   4.811   4.917   6.790 -0.2575  0.0717  0.5196
 3543TIP3    H132188   4.755   4.992   6.809 -0.4814 -0.7248  3.5606
 3543TIP3    H232189   4.751   4.846   6.771 -0.0599  0.4304 -1.6624
 3544TIP3   OH232190   6.369   1.290   8.600  0.3073 -0.4623 -0.5010
 3544TIP3    H132191   6.316   1.215   8.625  0.0794 -0.1029  0.1249
 3544TIP3    H232192   6.402   1.269   8.512  0.2082 -1.2621 -0.3482
 3545TIP3   OH232193   5.197   5.331   0.929  0.1722 -0.2160 -0.5566
 3545TIP3    H132194   5.260   5.366   0.993  0.2295 -1.9509  0.4125
 3545TIP3    H232195   5.116   5.379   0.947  0.2323 -0.5526  0.7514
 3546TIP3   OH232196   0.052   1.063   0.218  0.3164 -0.4946 -0.0064
 3546TIP3    H132197   0.127   1.053   0.160  0.7620 -0.9812  0.6375
 3546TIP3    H232198   0.090   1.079   0.304 -0.2660 -2.3040  0.6285
 3547TIP3   OH232199   6.327   4.421   1.008  0.3527 -0.4872  0.3691
 3547TIP3    H132200   6.249   4.371   1.034  0.2650 -0.5994 -0.0915
 3547TIP3    H232201   6.323   4.500   1.061  0.3045 -0.8079  0.8547
 3548TIP3   OH232202   0.615   6.024   6.421 -0.4303  0.2610  0.0804
 3548TIP3    H132203   0.525   6.013   6.452  0.0502 -2.5712  0.7143
 3548TIP3    H232204   0.669   6.009   6.499  0.6416  0.8068 -0.5337
 3549TIP3   OH232205   1.893   1.300   0.343  0.2456 -0.6444 -0.5344
 3549TIP3    H132206   1.799   1.285   0.353  0.4958 -1.2730  1.1601
 3549TIP3    H232207   1.931   1.213   0.349  1.0219 -0.2759 -0.0187
 3550TIP3   OH232208   5.737   5.819   2.475  0.1175 -0.0056  0.0662
 3550TIP3    H132209   5.797   5.774   2.415  2.2668  0.6556  1.6325
 3550TIP3    H232210   5.678   5.750   2.506 -0.2744 -0.5880 -1.8182
 3551TIP3   OH232211   4.587   0.016   6.203 -0.3414  0.3041  0.4074
 3551TIP3    H132212   4.506   0.002   6.153  0.9834  0.1779 -1.8274
 3551TIP3    H232213   4.579   0.105   6.237 -0.6112  1.0425 -1.4681
 3552TIP3   OH232214   4.579   2.420   6.785 -0.1449 -0.3378  0.2661
 3552TIP3    H132215   4.601   2.504   6.744 -1.1327 -0.5626 -0.7779
 3552TIP3    H232216   4.492   2.399   6.752  0.3417 -2.1016 -0.0172
 3553TIP3   OH232217   2.161   4.997   7.430 -0.5586 -0.4127  0.4095
 3553TIP3    H132218   2.076   5.007   7.386  0.0924 -1.9531 -1.3202
 3553TIP3    H232219   2.214   5.069   7.396 -0.1721 -1.3846 -1.1296
 3554TIP3   OH232220   1.087   4.924   1.933 -0.4887 -0.1701 -0.0071
 3554TIP3    H132221   1.089   4.890   2.022  0.9122 -0.1514 -0.0066
 3554TIP3    H232222   1.159   4.986   1.930 -0.9246  0.3019 -0.9751
 3555TIP3   OH232223   2.099   0.937   8.841 -0.2354 -0.0946  0.2440
 3555TIP3    H132224   2.173   0.980   8.885 -0.0740 -0.3282  0.2050
 3555TIP3    H232225   2.063   1.004   8.784  1.8243 -0.7811 -2.0653
 3556TIP3   OH232226   6.229   3.021   1.323  0.0074 -0.2096  0.0726
 3556TIP3    H132227   6.208   2.966   1.398 -0.2582 -0.6541 -0.3272
 3556TIP3    H232228   6.145   3.037   1.280 -0.5759  3.5573  2.2220
 3557TIP3   OH232229   4.882   1.583   8.540 -0.3239 -0.5562 -0.4015
 3557TIP3    H132230   4.870   1.509   8.598  0.3902 -1.3983 -1.2917
 3557TIP3    H232231   4.800   1.632   8.546 -0.6366 -1.1716  0.5280
 3558TIP3   OH232232   3.413   3.796   7.678 -0.6811 -0.3390  0.3574
 3558TIP3    H132233   3.457   3.711   7.673  0.9285  0.5234 -2.0724
 3558TIP3    H232234   3.414   3.829   7.588 -1.6445  2.0864  1.1522
 3559TIP3   OH232235   5.570   2.620   0.429  0.3495  0.0401 -0.0253
 3559TIP3    H132236   5.641   2.619   0.364  0.0039 -0.5979 -0.4029
 3559TIP3    H232237   5.576   2.536   0.473 -1.0112 -0.5984 -0.9956
 3560TIP3   OH232238   2.517   5.503   1.213 -0.5026  0.2003  0.4550
 3560TIP3    H132239   2.514   5.467   1.302  1.0588 -2.1074 -0.3320
 3560TIP3    H232240   2.473   5.437   1.159 -0.4060  1.0160 -0.6508
 3561TIP3   OH232241   5.934   6.435   6.766 -0.1443 -0.2314  0.2881
 3561TIP3    H132242   6.021   6.449   6.730  0.1141  0.5111  1.1662
 3561TIP3    H232243   5.885   6.393   6.695  1.2227 -1.6623  0.1309
 3562TIP3   OH232244   1.214   0.144   8.217 -0.4554  0.3552  0.5194
 3562TIP3    H132245   1.146   0.163   8.152  1.1844  1.2448 -1.0204
 3562TIP3    H232246   1.198   0.054   8.244 -1.1152 -0.0819 -1.2344
 3563TIP3   OH232247   5.215   3.008   0.496  0.3911 -0.2572 -0.4228
 3563TIP3    H132248   5.151   2.960   0.549 -0.1531  0.1686 -0.6785
 3563TIP3    H232249   5.197   3.100   0.515  0.4560 -0.1157 -1.0377
 3564TIP3   OH232250   1.405   6.477   8.439  0.1680  0.2094 -0.4719
 3564TIP3    H132251   1.374   6.387   8.450 -2.2971  1.1411  1.0928
 3564TIP3    H232252   1.500   6.471   8.450 -0.0075 -2.0855  0.3985
 3565TIP3   OH232253   2.909   4.419   1.006  0.4991  0.4072 -0.1240
 3565TIP3    H132254   2.930   4.328   0.983 -0.2262  0.0363  0.5984
 3565TIP3    H232255   2.922   4.423   1.100  0.2312  0.9710 -0.1080
 3566TIP3   OH232256   4.776   5.066   1.326 -0.0418 -0.3476  0.3043
 3566TIP3    H132257   4.819   5.008   1.389  1.5064  2.0423  1.6320
 3566TIP3    H232258   4.685   5.039   1.327  0.3079 -1.6741  2.1015
 3567TIP3   OH232259   6.006   4.396   0.853 -0.0134 -0.1060  0.2373
 3567TIP3    H132260   6.014   4.485   0.818 -0.8011 -0.6525 -1.4770
 3567TIP3    H232261   6.051   4.399   0.937  0.9438  1.6312 -0.2777
 3568TIP3   OH232262   5.094   0.163   8.526  0.7030 -0.5276  0.3116
 3568TIP3    H132263   5.121   0.105   8.454  0.2102  0.2208 -0.5089
 3568TIP3    H232264   5.055   0.105   8.591  1.7616 -1.3007  0.2809
 3569TIP3   OH232265   6.616   0.083   8.570  0.5833  0.2077 -0.0278
 3569TIP3    H132266   6.651   0.117   8.487 -0.5373  2.1905  0.2385
 3569TIP3    H232267   6.521   0.083   8.558  0.3072  1.9224  1.6900
 3570TIP3   OH232268   4.889   0.743   7.141 -0.4088 -0.2675  0.0528
 3570TIP3    H132269   4.922   0.833   7.136 -0.6664 -0.1628  0.2569
 3570TIP3    H232270   4.885   0.715   7.049  0.5198 -0.3819  0.0366
 3571TIP3   OH232271   5.829   0.946   7.603 -0.0258 -0.3808  0.4919
 3571TIP3    H132272   5.833   0.969   7.696 -1.1284  2.3388 -0.0391
 3571TIP3    H232273   5.921   0.937   7.576  0.4649  1.8631  1.2197
 3572TIP3   OH232274   2.463   2.011   0.402 -0.2788 -0.6264 -0.2210
 3572TIP3    H132275   2.523   1.944   0.369 -0.0585 -0.1572 -0.7908
 3572TIP3    H232276   2.508   2.049   0.477  0.3759  0.0712 -0.9487
 3573TIP3   OH232277   1.896   2.556   0.792 -0.4323  0.9162 -0.6110
 3573TIP3    H132278   1.872   2.600   0.710 -2.2545  2.3735  0.6296
 3573TIP3    H232279   1.888   2.624   0.859  2.1585  0.0632  0.6824
 3574TIP3   OH232280   5.452   4.124   0.448 -0.1796  0.4723 -0.0084
 3574TIP3    H132281   5.539   4.154   0.424 -0.8165  1.8818 -0.7176
 3574TIP3    H232282   5.431   4.056   0.384  0.0052  0.8703 -0.5000
 3575TIP3   OH232283   4.969   0.667   0.017 -0.1140  0.5467  0.1816
 3575TIP3    H132284   5.062   0.690   0.023 -0.2950  0.9459  4.1956
 3575TIP3    H232285   4.968   0.575  -0.010  1.2473  1.1189 -2.0841
 3576TIP3   OH232286   5.041   1.050   2.473  0.1573  0.3514  0.3087
 3576TIP3    H132287   5.103   0.990   2.515 -1.1561 -0.6433  0.9005
 3576TIP3    H232288   5.028   1.120   2.537  0.0689  0.1542  0.5048
 3577TIP3   OH232289   5.623   0.950   7.413  0.3117 -0.2072 -0.0704
 3577TIP3    H132290   5.672   0.967   7.494 -0.5008 -0.5327  0.5113
 3577TIP3    H232291   5.531   0.951   7.441 -0.2959  3.5098 -1.6615
 3578TIP3   OH232292   3.362   6.060   7.860  0.3501 -0.3814 -0.5045
 3578TIP3    H132293   3.321   5.990   7.911 -1.3999  1.8071  1.2917
 3578TIP3    H232294   3.439   6.085   7.911  1.7250 -1.7348 -1.7957
 3579TIP3   OH232295   3.185   3.378   8.052  0.3374  0.0313 -0.4412
 3579TIP3    H132296   3.127   3.385   8.128  0.8846 -0.3561  0.0198
 3579TIP3    H232297   3.185   3.285   8.030 -0.9981  0.3313 -1.8613
 3580TIP3   OH232298   2.642   0.614   1.199  0.3564 -0.1711  0.2108
 3580TIP3    H132299   2.574   0.675   1.228 -1.7675 -2.6036  0.7153
 3580TIP3    H232300   2.722   0.645   1.242 -1.2777  0.3875  3.1295
 3581TIP3   OH232301   6.636   3.624   1.249  0.1877  0.0214 -0.1103
 3581TIP3    H132302   6.563   3.580   1.206  0.2516 -0.2436  0.0495
 3581TIP3    H232303   6.610   3.629   1.341  0.9057 -1.1926  0.1721
 3582TIP3   OH232304   1.230   1.062   8.433 -0.1323 -0.5910 -1.0266
 3582TIP3    H132305   1.179   1.044   8.512 -0.8777 -0.9558 -1.5721
 3582TIP3    H232306   1.164   1.085   8.367  0.6250  2.3828 -0.8864
 3583TIP3   OH232307   4.870   0.848   1.707 -0.0335  0.2989  0.1238
 3583TIP3    H132308   4.901   0.773   1.759  1.3501  0.1659 -0.8299
 3583TIP3    H232309   4.906   0.925   1.752 -0.6511  0.3364  0.5630
 3584TIP3   OH232310   6.213   3.448   7.787  0.1984 -0.0486  0.1943
 3584TIP3    H132311   6.277   3.503   7.741  0.1415 -0.4796 -0.4077
 3584TIP3    H232312   6.193   3.497   7.867  1.1489  0.1690  0.3094
 3585TIP3   OH232313   5.872   1.414   1.185 -0.3862  0.2579 -0.1049
 3585TIP3    H132314   5.880   1.319   1.171  0.8890  0.3438 -0.0984
 3585TIP3    H232315   5.912   1.429   1.270 -1.4800  0.6926  0.3449
 3586TIP3   OH232316   0.957   3.851   1.228 -0.2871  0.1760  0.3613
 3586TIP3    H132317   1.033   3.820   1.277  0.0834  1.0894  0.3856
 3586TIP3    H232318   0.955   3.945   1.244 -1.9575  0.0546  1.1217
 3587TIP3   OH232319   0.472   1.126   0.251 -0.1564 -0.4331  0.0966
 3587TIP3    H132320   0.545   1.145   0.192  1.1293 -2.1673  1.0441
 3587TIP3    H232321   0.511   1.076   0.323 -1.9850  0.0991  1.5345
 3588TIP3   OH232322   0.647   4.654   8.820  0.0375  0.0330 -0.2492
 3588TIP3    H132323   0.590   4.631   8.893  0.0339 -1.5682 -0.7343
 3588TIP3    H232324   0.607   4.614   8.743  0.6277  0.7765 -0.9703
 3589TIP3   OH232325   0.209   1.470   1.947  0.2729 -0.1639 -0.0570
 3589TIP3    H132326   0.150   1.455   2.021 -0.9653 -0.3725 -1.0632
 3589TIP3    H232327   0.173   1.547   1.903  0.1568 -0.8853 -1.2570
 3590TIP3   OH232328   0.009   2.512   7.802 -0.1073 -0.5749  0.2850
 3590TIP3    H132329  -0.032   2.596   7.781  1.0730 -0.0479  0.0020
 3590TIP3    H232330  -0.037   2.482   7.881 -0.0942  0.6639  0.7902
 3591TIP3   OH232331   1.650   4.230   6.842  0.5693 -0.0280  0.4515
 3591TIP3    H132332   1.651   4.248   6.748 -1.0279 -0.0455  0.3988
 3591TIP3    H232333   1.736   4.192   6.861  0.1494 -2.1307 -1.4428
 3592TIP3   OH232334   3.477   1.610   8.774  0.5908 -0.2373 -0.3643
 3592TIP3    H132335   3.456   1.523   8.739  0.7902 -0.5181  0.2015
 3592TIP3    H232336   3.408   1.667   8.739 -1.6038 -1.2441  2.0043
 3593TIP3   OH232337   2.941   1.104   1.849  0.0446 -0.4690  0.5801
 3593TIP3    H132338   2.952   1.192   1.813  1.9125 -1.6002 -1.9282
 3593TIP3    H232339   2.993   1.105   1.930 -0.9009  0.9955  1.2132
 3594TIP3   OH232340   0.191   0.409   1.879 -0.3021 -0.2115 -0.4098
 3594TIP3    H132341   0.234   0.324   1.869  2.9940  1.3648 -1.0435
 3594TIP3    H232342   0.193   0.426   1.973  1.0413  0.0742 -0.4787
 3595TIP3   OH232343   1.990   2.011   7.218  0.3005 -0.4991 -0.1734
 3595TIP3    H132344   1.982   2.056   7.134  2.5524  0.7517  0.2108
 3595TIP3    H232345   2.044   2.069   7.272 -0.0257 -1.8467  1.7249
 3596TIP3   OH232346   6.532   1.603   6.780  0.4973  0.0086  0.0874
 3596TIP3    H132347   6.514   1.692   6.813 -0.2269  0.4981 -1.5408
 3596TIP3    H232348   6.446   1.565   6.764  0.8180 -0.5827 -0.2728
 3597TIP3   OH232349   4.137   2.531   7.592  0.7461  0.6090 -0.0996
 3597TIP3    H132350   4.193   2.469   7.545  0.5130  0.8075 -0.6432
 3597TIP3    H232351   4.074   2.562   7.526  1.1185  1.7411  0.0453
 3598TIP3   OH232352   6.555   3.886   8.616  0.5148 -0.6884 -0.4116
 3598TIP3    H132353   6.598   3.926   8.541  0.6930  0.4820  0.2827
 3598TIP3    H232354   6.538   3.796   8.590  0.7983 -0.3642 -1.7515
 3599TIP3   OH232355   0.776   3.584   7.897 -0.0129 -0.0743  0.3484
 3599TIP3    H132356   0.794   3.628   7.980  2.6590 -1.5083  0.6220
 3599TIP3    H232357   0.809   3.495   7.908 -1.1701 -0.8456 -1.7031
 3600TIP3   OH232358   0.028   1.008   6.643 -0.1136 -0.3408 -0.1551
 3600TIP3    H132359   0.011   0.946   6.572  1.4845 -1.1034  0.0978
 3600TIP3    H232360  -0.032   1.081   6.626 -1.1113 -1.3665 -1.1896
 3601TIP3   OH232361   1.632   4.508   2.005 -0.0642 -0.4795  0.2192
 3601TIP3    H132362   1.720   4.485   1.976  0.7157  0.7661  1.4647
 3601TIP3    H232363   1.605   4.579   1.947  0.5087  0.3478  0.9279
 3602TIP3   OH232364   2.167   0.193   1.811 -0.2395 -0.1312  0.3621
 3602TIP3    H132365   2.179   0.193   1.716 -1.9858  2.5549  0.0497
 3602TIP3    H232366   2.073   0.181   1.824  0.0074 -0.7913  1.7845
 3603TIP3   OH232367   1.147   0.602   2.222 -0.1423  0.1603 -0.5242
 3603TIP3    H132368   1.235   0.577   2.192 -0.6608 -0.4990 -1.5876
 3603TIP3    H232369   1.104   0.635   2.143 -0.6774  1.0066  0.1080
 3604TIP3   OH232370   5.969   4.523   0.578 -0.4107  0.4622 -0.2953
 3604TIP3    H132371   5.900   4.579   0.613 -0.5853  0.5238 -0.7237
 3604TIP3    H232372   5.946   4.513   0.485 -0.5122 -0.4976 -0.1755
 3605TIP3   OH232373   3.022   3.582   7.334 -0.6466 -0.1358  0.1488
 3605TIP3    H132374   3.078   3.564   7.409 -0.5176 -0.3641 -0.0031
 3605TIP3    H232375   3.014   3.498   7.288 -0.0253  0.1844 -0.5714
 3606TIP3   OH232376   1.049   4.103   8.100  0.1433  0.6869 -0.1830
 3606TIP3    H132377   0.969   4.051   8.095  0.7015 -0.1001 -1.8495
 3606TIP3    H232378   1.075   4.099   8.192 -0.3441 -1.2392 -0.0903
 3607TIP3   OH232379   0.873   5.414   1.099  0.1501 -0.5170 -0.3365
 3607TIP3    H132380   0.920   5.492   1.070 -2.0793  1.2979  0.6367
 3607TIP3    H232381   0.900   5.346   1.037  3.2361  0.5791 -0.3828
 3608TIP3   OH232382   3.476   4.827   7.493 -0.2555 -0.4602 -0.2352
 3608TIP3    H132383   3.449   4.763   7.427  0.4591  0.1337 -1.1327
 3608TIP3    H232384   3.521   4.776   7.559 -1.2838 -1.1142 -0.0182
 3609TIP3   OH232385   0.604   3.964   8.287  0.2084  0.2083  0.0636
 3609TIP3    H132386   0.549   4.012   8.350 -1.0789  1.6850 -2.0376
 3609TIP3    H232387   0.543   3.937   8.219  1.5425 -1.4417 -0.5257
 3610TIP3   OH232388   4.681   0.952   7.642  0.2068  0.3054  0.4998
 3610TIP3    H132389   4.631   1.011   7.697 -0.1126 -0.2760  0.8416
 3610TIP3    H232390   4.676   0.867   7.686 -1.8175 -0.7013 -1.4084
 3611TIP3   OH232391   1.621   6.380   7.481  0.0296  0.0455  0.0137
 3611TIP3    H132392   1.553   6.424   7.430  0.8619  0.3816 -0.8610
 3611TIP3    H232393   1.636   6.297   7.436  0.7224  0.3123 -0.2687
 3612TIP3   OH232394   3.870   2.528   1.936 -0.1728  0.1326 -0.3193
 3612TIP3    H132395   3.885   2.445   1.891 -0.7718 -0.1834  0.0387
 3612TIP3    H232396   3.948   2.580   1.918 -0.4298  0.0610 -1.7875
 3613TIP3   OH232397   4.612   4.048   0.615 -0.3026 -0.3533 -0.3392
 3613TIP3    H132398   4.556   4.123   0.594 -2.0484 -2.1373 -2.5542
 3613TIP3    H232399   4.610   3.993   0.536  0.5865 -2.9106  1.2779
 3614TIP3   OH232400   5.661   3.034   0.161  0.0709 -1.1945 -0.1751
 3614TIP3    H132401   5.593   2.977   0.199 -0.7057 -0.1609  0.0302
 3614TIP3    H232402   5.614   3.114   0.136  1.5522  0.4114  1.8654
 3615TIP3   OH232403   2.947   6.113   8.290 -0.0827  0.5384  0.5409
 3615TIP3    H132404   2.927   6.118   8.384 -0.1112 -3.4225  0.9273
 3615TIP3    H232405   2.861   6.111   8.247 -0.2011 -1.1760  0.8062
 3616TIP3   OH232406   3.038   5.706   0.731 -0.3400 -0.0993 -0.3223
 3616TIP3    H132407   3.114   5.664   0.771 -0.6153  0.0580  0.3912
 3616TIP3    H232408   3.052   5.699   0.637 -0.5956 -2.2379 -0.2491
 3617TIP3   OH232409   5.179   3.475   8.830 -0.1715 -0.5106  0.5891
 3617TIP3    H132410   5.143   3.549   8.781 -0.8188 -1.3282 -0.2103
 3617TIP3    H232411   5.181   3.505   8.921  1.5440  1.2301  0.0452
 3618TIP3   OH232412   4.133   3.659   0.371 -0.0532  0.0620 -0.0897
 3618TIP3    H132413   4.119   3.630   0.281 -0.5618  1.9163 -0.6497
 3618TIP3    H232414   4.216   3.706   0.368 -0.9606  1.7423 -0.0420
 3619TIP3   OH232415   2.050   0.059   7.023 -0.1503 -0.6144 -0.1181
 3619TIP3    H132416   2.114   0.126   7.050  0.5176 -1.7426  1.2247
 3619TIP3    H232417   1.965   0.102   7.033  0.3145  0.3673 -0.2735
 3620TIP3   OH232418   4.664   5.240   0.144 -0.2518  0.0992 -0.0989
 3620TIP3    H132419   4.604   5.254   0.070  1.8223  1.6885 -1.6121
 3620TIP3    H232420   4.697   5.328   0.165  3.3032 -0.8681 -0.9858
 3621TIP3   OH232421   1.749   5.117   7.875 -0.4754 -0.0173  0.0941
 3621TIP3    H132422   1.831   5.122   7.827 -0.5300 -0.5929 -0.0699
 3621TIP3    H232423   1.758   5.181   7.946 -0.7031  1.4315 -1.1307
 3622TIP3   OH232424   1.037   6.154   0.272 -0.1494  0.0421 -0.2247
 3622TIP3    H132425   1.086   6.132   0.351 -0.8838 -0.2222  0.1572
 3622TIP3    H232426   1.101   6.144   0.201  0.3343 -0.3481  0.2597
 3623TIP3   OH232427   6.669   1.467   1.122 -0.2842  0.0984  0.0952
 3623TIP3    H132428   6.762   1.474   1.141 -0.0412 -1.3464 -0.4026
 3623TIP3    H232429   6.655   1.523   1.045  0.3144 -0.1694 -0.2142
 3624TIP3   OH232430   3.353   0.694   7.285  0.3543  0.3543 -0.7310
 3624TIP3    H132431   3.373   0.675   7.193  2.2146 -0.1468 -0.2543
 3624TIP3    H232432   3.317   0.612   7.319  2.6511 -0.5265 -0.2464
 3625TIP3   OH232433   0.838   1.482   1.395 -0.2587 -0.1874 -0.1942
 3625TIP3    H132434   0.782   1.452   1.467 -1.8798  0.4657 -1.1460
 3625TIP3    H232435   0.899   1.409   1.381 -0.7116 -0.8339  1.0107
 3626TIP3   OH232436   1.156   2.333   2.230 -1.4792 -0.2041  0.1650
 3626TIP3    H132437   1.226   2.281   2.190 -0.3473  1.8166 -0.6331
 3626TIP3    H232438   1.191   2.358   2.315 -1.0805  0.9936 -0.3229
 3627TIP3   OH232439   0.318   0.059   8.052 -0.0782 -0.1100 -0.3910
 3627TIP3    H132440   0.223   0.071   8.051  0.1773  2.9643 -1.6564
 3627TIP3    H232441   0.343   0.058   7.959  1.2427  1.3527 -0.1054
 3628TIP3   OH232442   2.439   0.338   1.149  0.2186 -0.0238 -0.3678
 3628TIP3    H132443   2.467   0.398   1.218 -0.6723 -0.2715  0.2232
 3628TIP3    H232444   2.431   0.253   1.192  1.5594 -0.6331 -1.2150
 3629TIP3   OH232445   2.920   6.770   0.149  0.9250  0.2060  0.3167
 3629TIP3    H132446   3.010   6.799   0.163  0.5170  1.0474  1.2933
 3629TIP3    H232447   2.881   6.838   0.094  0.4010  0.7791  1.3585
 3630TIP3   OH232448   3.107   3.460   8.856  0.4013 -0.2048  0.2380
 3630TIP3    H132449   3.077   3.504   8.777 -1.0982 -1.3363  0.1121
 3630TIP3    H232450   3.068   3.510   8.928 -0.6596 -0.8310  0.1230
 3631TIP3   OH232451   0.486   1.424   0.953  0.2763 -0.1216 -0.4224
 3631TIP3    H132452   0.532   1.434   1.036  0.0984  1.5990 -0.4913
 3631TIP3    H232453   0.553   1.397   0.891  0.4174 -1.3845  0.2589
 3632TIP3   OH232454   6.749   6.236   1.739 -0.0946  0.3417 -0.5885
 3632TIP3    H132455   6.687   6.186   1.685 -0.0358  0.3252 -0.6400
 3632TIP3    H232456   6.835   6.205   1.711 -0.0944 -1.5313  1.2519
 3633TIP3   OH232457   4.939   6.018   0.035 -0.1966 -0.1028 -0.9803
 3633TIP3    H132458   4.990   5.995   0.112  0.1331 -0.9863 -1.4444
 3633TIP3    H232459   4.886   6.093   0.063 -0.7952 -1.0023  0.3876
 3634TIP3   OH232460   1.289   1.283   8.728  0.6122  0.0993  0.2952
 3634TIP3    H132461   1.370   1.331   8.710  0.8493  0.2907  1.7530
 3634TIP3    H232462   1.277   1.291   8.823 -1.6932  0.9981 -0.0084
 3635TIP3   OH232463   1.353   5.419   1.269 -0.3990 -0.2382  0.7847
 3635TIP3    H132464   1.275   5.387   1.224  1.8248 -0.9587 -3.0615
 3635TIP3    H232465   1.409   5.342   1.277  0.8215  0.6743  1.3004
 3636TIP3   OH232466   4.756   3.757   6.581 -0.1847  0.3413  0.8421
 3636TIP3    H132467   4.775   3.835   6.633  0.0146  2.1001 -1.6764
 3636TIP3    H232468   4.662   3.759   6.567 -0.1698  0.1742  0.7031
 3637TIP3   OH232469   2.888   5.106   8.755 -0.6636  0.4730  0.0603
 3637TIP3    H132470   2.822   5.038   8.746  0.6438 -0.9359  0.7796
 3637TIP3    H232471   2.921   5.120   8.666 -0.3609 -0.4484  0.0208
 3638TIP3   OH232472   3.701   2.983   7.043 -1.1383  0.3932  0.2924
 3638TIP3    H132473   3.719   2.993   7.136 -2.5558  0.4284  0.5868
 3638TIP3    H232474   3.703   3.073   7.008  1.2699  0.2248 -0.1162
 3639TIP3   OH232475   5.793   5.954   0.569 -0.6699  0.2064 -0.4122
 3639TIP3    H132476   5.826   5.866   0.552  0.3378  0.4540  0.1820
 3639TIP3    H232477   5.698   5.944   0.568 -0.5842 -0.6806 -1.4044
 3640TIP3   OH232478   1.288   1.250   7.155  0.2376  0.6256 -0.3761
 3640TIP3    H132479   1.375   1.266   7.193 -0.5894  1.8398  1.1244
 3640TIP3    H232480   1.258   1.337   7.128 -0.1245  0.0751 -1.8028
 3641TIP3   OH232481   3.843   1.897   0.993 -0.4144  0.3077 -0.4044
 3641TIP3    H132482   3.844   1.824   1.055  0.5646  1.1562  0.6362
 3641TIP3    H232483   3.750   1.909   0.972 -0.8263  0.2103  1.2050
 3642TIP3   OH232484   6.118   1.602   0.500  0.5763  0.1055  0.7248
 3642TIP3    H132485   6.179   1.663   0.459  0.4208 -0.6676 -0.7365
 3642TIP3    H232486   6.050   1.658   0.539 -0.2173  0.8918 -1.6082
 3643TIP3   OH232487   2.874   4.171   0.935 -0.3646  0.0638 -0.3132
 3643TIP3    H132488   2.780   4.186   0.926 -1.3604 -2.8658  2.8515
 3643TIP3    H232489   2.887   4.080   0.908  1.6139  0.4268 -0.7666
 3644TIP3   OH232490   1.445   4.447   8.240 -0.1751 -0.3682  0.5148
 3644TIP3    H132491   1.516   4.477   8.297 -0.2550 -0.7253  0.8056
 3644TIP3    H232492   1.374   4.509   8.255  0.3585  0.4814 -0.3977
 3645TIP3   OH232493   5.698   4.293   7.593 -0.5592 -0.0808  0.3589
 3645TIP3    H132494   5.786   4.285   7.555 -1.1453 -0.7944 -0.8913
 3645TIP3    H232495   5.705   4.369   7.652  0.8143  0.0474  0.0750
 3646TIP3   OH232496   2.509   3.635   8.334  0.1959 -0.6974  0.7544
 3646TIP3    H132497   2.476   3.547   8.316 -1.0928 -0.0116 -0.4014
 3646TIP3    H232498   2.563   3.656   8.257 -1.3586  0.3700 -0.0911
 3647TIP3   OH232499   3.098   5.992   7.144  0.1257 -0.1817  0.4620
 3647TIP3    H132500   3.034   5.921   7.136 -0.0394 -0.0454  0.5526
 3647TIP3    H232501   3.183   5.949   7.141  0.0212 -0.4292  0.9692
 3648TIP3   OH232502   1.986   1.574   6.597  0.0623 -0.2140 -0.6343
 3648TIP3    H132503   1.994   1.511   6.669  1.2366 -0.8027 -1.2556
 3648TIP3    H232504   1.997   1.660   6.638  0.9068 -0.5502 -0.1293
 3649TIP3   OH232505   0.241   1.389   1.059  0.6204 -0.3184 -0.4307
 3649TIP3    H132506   0.328   1.393   1.019  1.7665  0.3481  1.9555
 3649TIP3    H232507   0.243   1.311   1.114  0.1634  0.3810  0.6005
 3650TIP3   OH232508   0.410   4.858   1.010 -0.1587  0.3043 -0.7232
 3650TIP3    H132509   0.469   4.805   1.064  1.8776 -0.4820 -3.5018
 3650TIP3    H232510   0.330   4.807   1.004 -0.3754  0.3290  1.2951
 3651TIP3   OH232511   2.975   5.875   7.681 -0.3160  0.6662 -0.3112
 3651TIP3    H132512   3.041   5.856   7.614  0.4560 -2.8639  1.1978
 3651TIP3    H232513   3.024   5.913   7.754  0.0981 -1.4708  0.6066
 3652TIP3   OH232514   4.841   5.717   1.261 -0.7336  0.2079 -0.0974
 3652TIP3    H132515   4.890   5.782   1.212  0.6390 -0.6374  0.0852
 3652TIP3    H232516   4.817   5.651   1.196 -0.5377  0.0121  0.0262
 3653TIP3   OH232517   3.510   3.157   8.502  0.1568  0.9198  0.0810
 3653TIP3    H132518   3.443   3.175   8.567 -0.4380 -3.9677  1.1670
 3653TIP3    H232519   3.591   3.148   8.552  0.1825 -0.3532 -0.1593
 3654TIP3   OH232520   5.410   5.782   8.766 -0.1619 -0.1139 -0.0357
 3654TIP3    H132521   5.393   5.844   8.694  1.6012  0.6205  0.1528
 3654TIP3    H232522   5.376   5.699   8.733  0.2132  0.3016 -1.5549
 3655TIP3   OH232523   2.770   4.455   2.162 -0.1321  0.0295  0.1227
 3655TIP3    H132524   2.780   4.361   2.148  2.4684  0.1814  0.4267
 3655TIP3    H232525   2.819   4.495   2.090  0.3314  1.0915  0.9985
 3656TIP3   OH232526   5.493   2.017   6.976 -0.2127  0.0092 -0.1804
 3656TIP3    H132527   5.574   2.051   7.014  1.4588 -1.6277 -2.0389
 3656TIP3    H232528   5.470   2.080   6.908 -1.9041  1.7037  1.8247
 3657TIP3   OH232529   6.490   5.789   0.634  0.5205 -0.1096 -0.4898
 3657TIP3    H132530   6.466   5.696   0.632  0.0619 -0.0032 -2.4588
 3657TIP3    H232531   6.416   5.832   0.675  0.6932 -0.5922  0.3484
 3658TIP3   OH232532   1.564   1.710   1.310 -0.2207  0.5275 -0.6639
 3658TIP3    H132533   1.653   1.726   1.341 -0.5376  1.5263 -0.2374
 3658TIP3    H232534   1.574   1.689   1.217  0.5342 -0.3446 -0.4048
 3659TIP3   OH232535   1.950   4.360   0.535 -0.2311  0.6660 -0.3712
 3659TIP3    H132536   1.868   4.397   0.502 -0.8889  0.8350  1.3567
 3659TIP3    H232537   1.989   4.430   0.588 -0.4637 -0.3779  1.2348
 3660TIP3   OH232538   6.258   6.615   2.286 -0.0755  0.2201 -0.1717
 3660TIP3    H132539   6.193   6.547   2.300  0.6115 -0.3785  0.1707
 3660TIP3    H232540   6.270   6.656   2.372  1.1860 -0.7705  0.1587
 3661TIP3   OH232541   2.323   0.098   7.060  0.4324 -0.5220  0.1853
 3661TIP3    H132542   2.369   0.112   6.978 -1.2146 -0.1218 -0.7177
 3661TIP3    H232543   2.373   0.149   7.124  1.1015  0.0887 -0.7905
 3662TIP3   OH232544   4.704   0.737   1.159 -0.3932  1.0201  0.0237
 3662TIP3    H132545   4.721   0.658   1.211 -0.9996 -0.5087 -1.9385
 3662TIP3    H232546   4.623   0.773   1.195 -2.3981 -1.6056 -1.4360
 3663TIP3   OH232547   1.185   2.632   7.859  0.2647  0.4624 -0.3323
 3663TIP3    H132548   1.095   2.639   7.891 -0.7039  3.5740 -3.1019
 3663TIP3    H232549   1.239   2.660   7.933 -1.0984 -0.3702  1.0333
 3664TIP3   OH232550   0.586   3.911   0.419 -0.1666  0.5428  0.1974
 3664TIP3    H132551   0.619   3.853   0.488 -0.1082  1.2478  0.7794
 3664TIP3    H232552   0.556   3.852   0.350  0.7204 -0.1566  0.3840
 3665TIP3   OH232553   3.781   4.077   8.170  0.2284 -0.2144 -0.4758
 3665TIP3    H132554   3.841   4.061   8.243 -0.9069 -1.3839  0.2344
 3665TIP3    H232555   3.733   4.156   8.196  1.1852  0.5313 -0.8950
 3666TIP3   OH232556   4.793   1.273   6.787  0.3803  0.2842  0.1631
 3666TIP3    H132557   4.753   1.327   6.719  1.7194  1.4931  0.2888
 3666TIP3    H232558   4.887   1.285   6.775  0.6940 -1.0862  0.9766
 3667TIP3   OH232559   3.255   1.776   8.715 -0.1138  0.2286 -0.3575
 3667TIP3    H132560   3.193   1.705   8.699 -1.9725  1.6333  0.1967
 3667TIP3    H232561   3.243   1.835   8.640 -0.0180  0.8888  0.1422
 3668TIP3   OH232562   6.262   4.923   6.672 -0.3927  0.1286 -0.5062
 3668TIP3    H132563   6.321   4.984   6.716 -0.0254  0.8604 -1.9231
 3668TIP3    H232564   6.225   4.974   6.599  0.7268 -1.5883 -2.3880
 3669TIP3   OH232565   1.047   1.108   8.630 -0.7326 -0.9841  0.2639
 3669TIP3    H132566   1.073   1.198   8.648  2.8317 -1.9544  0.6485
 3669TIP3    H232567   0.987   1.114   8.555 -0.2978  1.6506  0.0611
 3670TIP3   OH232568   2.553   0.768   8.228 -0.2911  0.1653 -0.8593
 3670TIP3    H132569   2.565   0.813   8.311  0.7706 -0.0995 -0.8650
 3670TIP3    H232570   2.458   0.774   8.211 -0.3629  1.1331 -0.1637
 3671TIP3   OH232571   4.801   1.255   1.981 -0.2068 -0.3197  0.6689
 3671TIP3    H132572   4.714   1.295   1.990  0.1946  0.4412  1.2811
 3671TIP3    H232573   4.861   1.319   2.020  0.6777 -0.6763 -0.0751
 3672TIP3   OH232574   1.241   4.344   1.836  0.1626 -0.1946  0.0009
 3672TIP3    H132575   1.203   4.426   1.805 -0.7018 -1.5407 -2.7518
 3672TIP3    H232576   1.171   4.280   1.828  1.0734 -1.4129  1.2779
 3673TIP3   OH232577   5.534   0.637   6.777  0.4778 -0.0501  0.1637
 3673TIP3    H132578   5.614   0.627   6.725  0.3486 -0.1620 -0.0123
 3673TIP3    H232579   5.472   0.576   6.737  1.1975 -2.1920  2.1043
 3674TIP3   OH232580   2.364   3.226   8.016  0.1099 -0.6259 -0.0681
 3674TIP3    H132581   2.405   3.311   8.003  1.2937 -1.4594 -2.5328
 3674TIP3    H232582   2.433   3.163   7.995 -1.9249 -2.1030 -3.0640
 3675TIP3   OH232583   5.535   6.438   7.633  0.4241 -0.2980 -0.3151
 3675TIP3    H132584   5.557   6.467   7.721  2.5515  0.5447 -1.0568
 3675TIP3    H232585   5.454   6.485   7.612  0.6756  0.6096  0.6787
 3676TIP3   OH232586   3.292   0.955   2.302  0.5128  0.5339  0.0334
 3676TIP3    H132587   3.210   0.924   2.341  0.2037  0.5305 -0.6072
 3676TIP3    H232588   3.338   0.874   2.276  0.2602  0.5688 -0.5265
 3677TIP3   OH232589   1.244   0.721   6.993  0.5165  0.2260  0.0129
 3677TIP3    H132590   1.196   0.660   6.937 -1.4996  1.5850  0.1251
 3677TIP3    H232591   1.331   0.727   6.954 -0.6308  0.7296 -2.7313
 3678TIP3   OH232592   2.865   3.690   7.123 -0.8512 -0.0126  0.2713
 3678TIP3    H132593   2.894   3.657   7.208 -1.2082 -0.3032  0.2811
 3678TIP3    H232594   2.888   3.783   7.125 -2.9258  0.5457  1.6251
 3679TIP3   OH232595   2.033   1.848   1.254  0.1546  0.8073  0.0770
 3679TIP3    H132596   1.963   1.808   1.306  0.2492  1.0296  0.3832
 3679TIP3    H232597   2.003   1.938   1.240 -0.3677  0.4682 -1.1717
 3680TIP3   OH232598   1.363   5.773   0.925  0.2972  0.4893 -0.0159
 3680TIP3    H132599   1.452   5.767   0.891 -0.5566 -1.1280 -2.2107
 3680TIP3    H232600   1.309   5.792   0.849 -1.1970  2.2684  1.4006
 3681TIP3   OH232601   0.573   3.351   1.650  0.4117 -0.4314  0.3189
 3681TIP3    H132602   0.666   3.359   1.629  0.3337 -0.8592 -0.2012
 3681TIP3    H232603   0.554   3.258   1.639  0.0214 -0.4233  0.8681
 3682TIP3   OH232604   6.265   0.795   0.787  0.4414  0.1879  0.1268
 3682TIP3    H132605   6.255   0.876   0.837  0.0756 -0.5185  1.2172
 3682TIP3    H232606   6.347   0.758   0.818  0.3557 -0.1194 -0.0149
 3683TIP3   OH232607   2.334   5.147   8.032 -0.0688  0.1245  0.2694
 3683TIP3    H132608   2.387   5.197   8.094 -0.7718  0.1322  0.8779
 3683TIP3    H232609   2.396   5.087   7.992  0.6412  0.9753  0.0619
 3684TIP3   OH232610   4.249   5.493   0.704  0.0812 -0.1679 -0.0986
 3684TIP3    H132611   4.220   5.572   0.658 -1.2706 -0.7439 -0.2624
 3684TIP3    H232612   4.242   5.515   0.797 -1.0391 -0.3422 -0.1338
 3685TIP3   OH232613   3.664   3.992   0.238 -0.2225 -0.0789 -0.6476
 3685TIP3    H132614   3.750   3.951   0.233 -0.3758 -1.0774  2.4864
 3685TIP3    H232615   3.604   3.928   0.201  0.2235  0.0571 -1.6209
 3686TIP3   OH232616   5.337   6.094   8.279 -0.2902  0.5174  0.0288
 3686TIP3    H132617   5.308   6.167   8.333  0.2167  2.2026 -1.8687
 3686TIP3    H232618   5.304   6.114   8.191  0.8601 -0.9437 -0.7863
 3687TIP3   OH232619   1.388   5.920   7.247  0.2367  0.1640 -0.1549
 3687TIP3    H132620   1.355   6.009   7.236 -2.3684 -0.7763 -0.5590
 3687TIP3    H232621   1.395   5.887   7.157 -0.4734 -0.5716  0.0513
 3688TIP3   OH232622   5.318   3.260   1.982 -0.5863  0.6980 -0.2052
 3688TIP3    H132623   5.305   3.288   2.072 -0.6631 -1.9343  0.6755
 3688TIP3    H232624   5.232   3.229   1.953 -0.2414  0.1634 -0.6790
 3689TIP3   OH232625   0.402   4.455   1.368  0.2730 -0.2300  0.3430
 3689TIP3    H132626   0.493   4.439   1.395  0.3008  0.8052  0.9352
 3689TIP3    H232627   0.380   4.539   1.410 -0.8356 -0.2973 -0.0934
 3690TIP3   OH232628   4.236   5.125   1.239  0.9591 -0.4815  0.2196
 3690TIP3    H132629   4.226   5.219   1.247 -1.4882 -0.7252  0.6705
 3690TIP3    H232630   4.209   5.090   1.323  2.3917 -1.5921  0.2595
 3691TIP3   OH232631   2.310   5.383   6.787 -0.4619 -0.6293  0.3645
 3691TIP3    H132632   2.402   5.405   6.775  0.4471 -1.5153  4.2226
 3691TIP3    H232633   2.303   5.293   6.754 -0.1667 -0.2979 -0.6387
 3692TIP3   OH232634   5.879   5.301   0.559 -0.0967 -0.0494 -0.0462
 3692TIP3    H132635   5.959   5.306   0.611 -1.6893 -1.1312  2.7592
 3692TIP3    H232636   5.909   5.294   0.468  2.9422 -0.0925  0.8657
 3693TIP3   OH232637   1.531   3.490   8.868 -0.2385  0.5622  0.0932
 3693TIP3    H132638   1.466   3.452   8.809 -1.2134  0.3453  1.2542
 3693TIP3    H232639   1.522   3.439   8.949  2.2458 -0.2804 -0.0984
 3694TIP3   OH232640   5.066   3.571   1.205  0.1511  0.0896 -0.0135
 3694TIP3    H132641   5.007   3.645   1.214  2.9862  2.5130  0.0760
 3694TIP3    H232642   5.060   3.547   1.112 -1.3719 -0.1491  0.1221
 3695TIP3   OH232643   1.379   3.653   0.578 -0.0352  0.2698  0.1029
 3695TIP3    H132644   1.469   3.645   0.608 -0.1534 -1.0741  0.1600
 3695TIP3    H232645   1.353   3.742   0.601  1.3170  0.7100 -0.0428
 3696TIP3   OH232646   3.188   2.884   8.381  0.4634  0.0259  0.0965
 3696TIP3    H132647   3.232   2.967   8.362  0.1340  0.1947  0.0711
 3696TIP3    H232648   3.241   2.818   8.336 -0.2553  0.4006 -1.3522
 3697TIP3   OH232649   0.161   4.042   7.755 -0.2438 -0.2693 -0.0312
 3697TIP3    H132650   0.116   4.024   7.672  0.0202 -0.2216 -0.1836
 3697TIP3    H232651   0.152   4.137   7.767 -0.9670 -0.3827  0.3886
 3698TIP3   OH232652   5.028   1.656   8.313  0.2384  0.2724  1.2247
 3698TIP3    H132653   4.971   1.668   8.389 -3.5110 -1.2505 -1.0850
 3698TIP3    H232654   5.102   1.715   8.329 -1.8445  2.3056  4.5692
 3699TIP3   OH232655   2.848   5.849   0.875  0.1526  0.2506 -0.2439
 3699TIP3    H132656   2.915   5.791   0.839  0.5947  0.8141 -0.3413
 3699TIP3    H232657   2.777   5.790   0.900  2.0834 -0.8690  3.2784
 3700TIP3   OH232658   4.770   4.471   1.777 -0.6572  0.0820  0.2524
 3700TIP3    H132659   4.819   4.549   1.752  0.2764 -0.8667 -1.0460
 3700TIP3    H232660   4.811   4.400   1.728 -1.6099 -1.2055  1.2330
 3701TIP3   OH232661   6.572   1.886   8.685  0.7046 -0.5659  0.2240
 3701TIP3    H132662   6.581   1.981   8.675  0.2232 -0.1383  2.9811
 3701TIP3    H232663   6.477   1.872   8.691  0.8203 -1.0127  1.1699
 3702TIP3   OH232664   0.383   1.233   7.891  0.5323 -0.2162  0.0716
 3702TIP3    H132665   0.420   1.145   7.887  0.5675 -0.1785 -0.4953
 3702TIP3    H232666   0.456   1.289   7.918 -0.0531 -0.6773  2.9939
 3703TIP3   OH232667   5.241   5.042   6.828  0.3240 -0.0893  0.1386
 3703TIP3    H132668   5.204   4.988   6.757  0.3312 -1.4384  1.1137
 3703TIP3    H232669   5.169   5.053   6.889 -0.4316  3.1818 -1.1530
 3704TIP3   OH232670   2.469   5.744   2.387 -0.4262  0.0531 -0.0916
 3704TIP3    H132671   2.445   5.663   2.341 -1.0034 -0.2211  0.6715
 3704TIP3    H232672   2.443   5.729   2.477 -0.5553  1.1003  0.0583
 3705TIP3   OH232673   6.373   6.349   7.915  0.1255  0.2607 -0.6292
 3705TIP3    H132674   6.307   6.357   7.984 -0.5391  0.0476 -1.2302
 3705TIP3    H232675   6.433   6.283   7.948  0.7819  1.3673  0.4975
 3706TIP3   OH232676   0.010   2.477   7.146 -0.0472 -0.7202 -0.2379
 3706TIP3    H132677  -0.058   2.447   7.206  0.4232 -2.0637 -0.3402
 3706TIP3    H232678   0.005   2.572   7.149 -1.4022 -0.7954  0.3484
 3707TIP3   OH232679   5.556   2.392   8.535  0.1459 -0.3648 -0.1431
 3707TIP3    H132680   5.479   2.422   8.583 -0.6055  0.0467 -1.5317
 3707TIP3    H232681   5.618   2.465   8.539 -0.7262  0.4922 -1.4802
 3708TIP3   OH232682   6.639   5.277   7.497 -0.1047  0.4361  0.1504
 3708TIP3    H132683   6.631   5.362   7.539 -0.8882  1.1365 -1.3206
 3708TIP3    H232684   6.684   5.296   7.414 -1.0138 -0.4477 -0.5616
 3709TIP3   OH232685   5.123   1.025   0.137 -0.1614 -0.1626 -0.3190
 3709TIP3    H132686   5.157   0.953   0.082  2.1012 -0.3796  1.2055
 3709TIP3    H232687   5.038   1.046   0.099  1.2596 -0.1982 -4.0068
 3710TIP3   OH232688   5.042   5.470   2.507 -0.4151 -0.4453 -0.0668
 3710TIP3    H132689   5.060   5.402   2.442 -2.3435 -0.1115 -1.0175
 3710TIP3    H232690   5.011   5.422   2.584 -2.2904 -0.7158 -0.9150
 3711TIP3   OH232691   0.917   2.382   1.306 -0.4590  0.1132  0.1053
 3711TIP3    H132692   0.841   2.436   1.285 -0.3375  0.4523  0.5297
 3711TIP3    H232693   0.903   2.301   1.257 -1.8490 -0.4396  1.3268
 3712TIP3   OH232694   4.641   4.654   7.432  0.2345 -0.7129  0.3487
 3712TIP3    H132695   4.730   4.623   7.450  1.1342  2.5782  2.3485
 3712TIP3    H232696   4.650   4.712   7.357  0.1378  0.7375  1.4023
 3713TIP3   OH232697   3.280   5.085   1.929  0.2886 -0.4201 -0.0680
 3713TIP3    H132698   3.253   4.996   1.954 -2.4495  0.6256  1.0208
 3713TIP3    H232699   3.351   5.106   1.989 -0.8967 -0.8863  1.5602
 3714TIP3   OH232700   1.634   4.255   0.023 -0.3671  0.1473 -0.1850
 3714TIP3    H132701   1.651   4.229   0.113  0.7920  2.3156  0.2923
 3714TIP3    H232702   1.570   4.191  -0.009  0.1975 -1.4648  1.7157
 3715TIP3   OH232703   1.489   0.901   0.912 -0.6089 -0.4211 -0.0669
 3715TIP3    H132704   1.464   0.814   0.880 -0.2507 -0.6069  0.1593
 3715TIP3    H232705   1.585   0.900   0.912 -0.5943 -0.5004  1.2170
 3716TIP3   OH232706   0.995   4.130   1.224 -0.6694  0.2722 -0.1100
 3716TIP3    H132707   1.068   4.129   1.162 -0.1388 -1.5476  0.4631
 3716TIP3    H232708   1.020   4.195   1.290 -1.5797  2.7817 -2.0878
 3717TIP3   OH232709   3.462   1.849   1.122  0.4547  0.2056 -0.3626
 3717TIP3    H132710   3.473   1.913   1.052  2.6133  1.5317  1.0805
 3717TIP3    H232711   3.515   1.774   1.094 -0.7836 -0.3528 -1.3043
 3718TIP3   OH232712   0.443   2.758   7.725 -0.7825  0.7706 -0.7981
 3718TIP3    H132713   0.351   2.757   7.753 -0.5198  0.8465  0.1032
 3718TIP3    H232714   0.462   2.667   7.703 -1.3493  0.9115 -1.9841
 3719TIP3   OH232715   1.830   0.847   6.796  0.7449  0.4993 -0.3215
 3719TIP3    H132716   1.742   0.814   6.776  0.8182  0.3705 -0.4363
 3719TIP3    H232717   1.832   0.854   6.891  0.4203  1.0345 -0.3519
 3720TIP3   OH232718   2.694   1.547   1.334 -0.0788 -0.7888 -0.3894
 3720TIP3    H132719   2.662   1.474   1.282 -0.7666 -0.4540 -0.4433
 3720TIP3    H232720   2.622   1.567   1.395  0.0710 -0.1203 -0.4196
 3721TIP3   OH232721   6.610   6.733   7.934 -0.3700 -0.2010 -0.4714
 3721TIP3    H132722   6.692   6.718   7.887  0.7567  0.8509  1.0611
 3721TIP3    H232723   6.563   6.797   7.880 -0.4595 -1.2067 -1.6306
 3722TIP3   OH232724   2.216   5.496   8.713 -0.2305 -0.1036  0.4305
 3722TIP3    H132725   2.189   5.462   8.799  1.0444  1.2993  1.4385
 3722TIP3    H232726   2.207   5.421   8.654 -1.6619 -0.9680  1.6489
 3723TIP3   OH232727   3.946   0.884   0.178 -0.0749 -0.2908  0.3535
 3723TIP3    H132728   3.999   0.805   0.183 -1.9964 -1.5921  1.1005
 3723TIP3    H232729   3.952   0.923   0.265 -1.7016 -1.4177  1.0181
 3724TIP3   OH232730   4.482   3.641   6.756  0.3170 -0.3846  0.4220
 3724TIP3    H132731   4.431   3.614   6.680  2.0829 -0.0246 -0.9421
 3724TIP3    H232732   4.490   3.561   6.809 -1.0919 -0.5845  0.3630
 3725TIP3   OH232733   6.222   6.342   0.660  0.7806 -0.7902  0.3662
 3725TIP3    H132734   6.245   6.284   0.588 -1.5001 -0.4624 -0.7249
 3725TIP3    H232735   6.233   6.430   0.624  0.7798 -0.6056  0.8091
 3726TIP3   OH232736   4.652   1.564   0.050  0.0166  0.5128 -0.1977
 3726TIP3    H132737   4.639   1.620  -0.026 -3.6836 -0.5075 -0.5341
 3726TIP3    H232738   4.600   1.604   0.119 -2.3211 -2.0341 -0.3020
 3727TIP3   OH232739   5.914   4.977   8.569  0.0334  0.5999 -0.0004
 3727TIP3    H132740   5.863   5.024   8.504  0.8843 -0.4792 -1.5229
 3727TIP3    H232741   5.850   4.924   8.617 -0.3951 -0.1984 -1.3994
 3728TIP3   OH232742   3.537   2.533   1.450  0.2437  0.7418  0.0184
 3728TIP3    H132743   3.491   2.553   1.532 -1.0125 -0.6926 -0.2792
 3728TIP3    H232744   3.537   2.437   1.446  1.4262  0.7543 -1.0583
 3729TIP3   OH232745   2.028   1.580   6.899  0.0261 -0.1471 -0.0147
 3729TIP3    H132746   2.042   1.639   6.973 -1.5464  1.4335 -0.8914
 3729TIP3    H232747   1.959   1.521   6.928 -1.9541  1.6674 -0.7519
 3730TIP3   OH232748   0.965   3.410   0.792  0.0181  0.6452  0.4979
 3730TIP3    H132749   1.053   3.394   0.826 -0.6099 -0.2378  1.7546
 3730TIP3    H232750   0.939   3.494   0.830 -0.8759 -0.5603  2.7437
 3731TIP3   OH232751   2.615   6.414   0.265  0.9515 -0.4524 -0.0296
 3731TIP3    H132752   2.675   6.396   0.192 -1.3189  0.7250 -2.3488
 3731TIP3    H232753   2.627   6.507   0.285  0.6657 -0.4665  0.2315
 3732TIP3   OH232754   4.392   1.758   8.574  0.5236  0.1624 -0.4602
 3732TIP3    H132755   4.394   1.853   8.565  0.1479  0.1273 -0.9681
 3732TIP3    H232756   4.311   1.731   8.531  0.8688 -0.4255 -0.7668
 3733TIP3   OH232757   0.919   3.887   8.570  0.1336  0.4428 -0.0507
 3733TIP3    H132758   0.874   3.813   8.612 -0.2863  0.2595 -0.8117
 3733TIP3    H232759   0.880   3.965   8.609  1.4403  0.2794  1.6753
 3734TIP3   OH232760   3.447   4.887   8.398 -0.4103  0.7683  0.9010
 3734TIP3    H132761   3.530   4.933   8.383 -0.3602  0.6039  0.6864
 3734TIP3    H232762   3.381   4.957   8.394 -0.5212  0.6114 -1.1125
 3735TIP3   OH232763   6.340   4.717   2.313  0.1076 -0.3270 -0.3517
 3735TIP3    H132764   6.322   4.786   2.377 -0.9571 -1.5400  0.7239
 3735TIP3    H232765   6.258   4.706   2.266 -0.0334 -1.4983  0.1476
 3736TIP3   OH232766   2.707   4.616   8.334  0.1351 -0.4384 -0.4321
 3736TIP3    H132767   2.658   4.539   8.306  1.8425 -0.9879 -2.2163
 3736TIP3    H232768   2.799   4.592   8.319  0.8273  1.2713  0.7716
 3737TIP3   OH232769   2.667   5.286   7.974  0.1838  0.2227 -0.6298
 3737TIP3    H132770   2.611   5.306   8.049 -0.3468 -1.1929 -0.6201
 3737TIP3    H232771   2.727   5.218   8.006  0.8902  0.6205 -1.0882
 3738TIP3   OH232772   1.088   1.555   8.022 -0.2703  0.0427 -0.0005
 3738TIP3    H132773   1.150   1.483   8.024 -0.4681 -0.1218  0.2484
 3738TIP3    H232774   1.101   1.602   8.104  0.9965  1.2726 -0.8616
 3739TIP3   OH232775   5.404   2.985   1.018  0.4259 -0.0647  0.2854
 3739TIP3    H132776   5.378   3.039   1.093  0.4070 -0.3957  0.5222
 3739TIP3    H232777   5.375   2.896   1.041  2.3087 -0.5849  0.8497
 3740TIP3   OH232778   2.727   5.551   8.252 -0.7075  0.1587  0.0443
 3740TIP3    H132779   2.805   5.605   8.241 -1.2291  1.3295  1.6668
 3740TIP3    H232780   2.759   5.472   8.296 -0.3312  0.3539  0.1257
 3741TIP3   OH232781   6.142   5.885   1.869  0.7721 -0.2203 -0.4897
 3741TIP3    H132782   6.055   5.925   1.870  0.2087 -1.4208  0.5270
 3741TIP3    H232783   6.160   5.869   1.776  0.2897  0.7983 -0.7753
 3742TIP3   OH232784   0.612   0.520   7.544  0.0197  0.1515 -0.0736
 3742TIP3    H132785   0.646   0.589   7.601 -0.4702 -0.1672  0.6255
 3742TIP3    H232786   0.637   0.438   7.588 -1.1063 -0.0916  0.1513
 3743TIP3   OH232787   6.608   3.535   2.733 -0.6443  0.2906 -0.4176
 3743TIP3    H132788   6.630   3.442   2.740 -0.8481  0.1356 -1.5558
 3743TIP3    H232789   6.665   3.567   2.663 -2.6690  0.3002 -2.1652
 3744TIP3   OH232790   0.044   4.117   8.637 -0.7059 -0.1450  0.0846
 3744TIP3    H132791  -0.032   4.156   8.594 -0.4160 -0.0099 -0.3139
 3744TIP3    H232792   0.090   4.191   8.676  0.2435  0.0399 -1.3001
 3745TIP3   OH232793   6.729   5.077   7.661  0.1204 -0.1295  0.3920
 3745TIP3    H132794   6.824   5.063   7.657  0.0575 -0.8009  1.1803
 3745TIP3    H232795   6.714   5.150   7.600  1.3043  0.8656  1.2440
 3746TIP3   OH232796   2.043   5.269   7.136 -0.3387 -0.3423  0.2570
 3746TIP3    H132797   2.107   5.270   7.065 -1.4271 -1.6252 -0.8059
 3746TIP3    H232798   1.966   5.312   7.099  0.2899  2.5186  1.9929
 3747TIP3   OH232799   5.523   0.401   0.267 -0.0148 -0.0095  0.5531
 3747TIP3    H132800   5.568   0.483   0.285  1.0703 -0.6573  0.8663
 3747TIP3    H232801   5.495   0.370   0.353 -1.9267  0.8419  0.2851
 3748TIP3   OH232802   0.408   0.781   0.177  0.1943  0.2751  0.1419
 3748TIP3    H132803   0.322   0.805   0.145  0.6797  1.3567 -0.3821
 3748TIP3    H232804   0.401   0.687   0.196 -1.0012  0.2896 -0.1589
 3749TIP3   OH232805   6.220   6.573   1.008 -0.2730  0.0991 -0.1118
 3749TIP3    H132806   6.287   6.575   0.940  1.1705  0.5825  1.2690
 3749TIP3    H232807   6.266   6.597   1.088 -2.0757  0.2833  0.9252
 3750TIP3   OH232808   6.253   1.033   1.524 -0.1585 -0.1438 -0.1428
 3750TIP3    H132809   6.287   1.016   1.436 -0.4893 -1.3630 -0.0471
 3750TIP3    H232810   6.287   0.961   1.577 -0.5648  0.1790  0.5646
 3751TIP3   OH232811   6.574   6.623   7.302  0.5071 -0.0742 -0.2532
 3751TIP3    H132812   6.507   6.569   7.260  0.2775 -0.5698  0.7346
 3751TIP3    H232813   6.650   6.565   7.309  0.0384 -0.5477  1.4596
 3752TIP3   OH232814   2.262   1.946   0.609 -0.0785 -0.2645 -0.1294
 3752TIP3    H132815   2.325   1.874   0.608  0.6991  0.3735  0.6078
 3752TIP3    H232816   2.267   1.984   0.522  3.0000  1.7622  0.7746
 3753TIP3   OH232817   2.958   1.491   7.871 -0.1196 -0.2170  0.3843
 3753TIP3    H132818   2.980   1.406   7.834  1.3556  0.0571  0.5856
 3753TIP3    H232819   2.960   1.477   7.966  0.2794  0.0730  0.4209
 3754TIP3   OH232820   5.991   3.003   1.210 -0.4672  0.1771  0.3197
 3754TIP3    H132821   5.939   3.003   1.290  0.9320  0.4806  1.2760
 3754TIP3    H232822   5.927   3.010   1.139 -1.7747 -0.7001  1.3751
 3755TIP3   OH232823   0.432   3.226   8.441  0.1391 -0.0423  0.0841
 3755TIP3    H132824   0.439   3.254   8.533  1.1762  3.0326 -0.8130
 3755TIP3    H232825   0.514   3.180   8.424  0.1182 -0.2730  0.5935
 3756TIP3   OH232826   1.842   1.124   1.170  0.5534 -0.0925 -0.8239
 3756TIP3    H132827   1.895   1.203   1.167  1.1997 -0.4782 -0.0387
 3756TIP3    H232828   1.891   1.064   1.227 -1.9060  0.4203  2.1106
 3757TIP3   OH232829   3.309   1.851   8.347  0.2300  0.3347  0.0446
 3757TIP3    H132830   3.405   1.851   8.346  0.2393  0.0180  0.5661
 3757TIP3    H232831   3.286   1.761   8.372 -0.2406 -0.2819 -2.3477
 3758TIP3   OH232832   1.281   3.128   2.403  0.7882  0.0309 -0.0120
 3758TIP3    H132833   1.192   3.160   2.391  0.1207 -2.0693 -1.1506
 3758TIP3    H232834   1.330   3.166   2.331  0.6158  0.4970  0.1144
 3759TIP3   OH232835   1.163   1.715   7.342  0.5830  0.4149  0.9790
 3759TIP3    H132836   1.159   1.684   7.252 -0.9479  1.0109  0.8029
 3759TIP3    H232837   1.206   1.644   7.390 -2.0459 -1.7080  0.4534
 3760TIP3   OH232838   4.605   3.723   1.299  0.5837 -0.6322  0.4155
 3760TIP3    H132839   4.510   3.723   1.286  0.7939 -1.0907 -1.5264
 3760TIP3    H232840   4.618   3.672   1.379 -0.8174 -0.2041  0.9540
 3761TIP3   OH232841   3.805   3.735   7.740  0.2618 -0.1747 -0.1009
 3761TIP3    H132842   3.728   3.762   7.790  1.0319  0.8727  0.5812
 3761TIP3    H232843   3.864   3.811   7.744  0.9953 -0.6427 -1.2961
 3762TIP3   OH232844   6.256   3.356   0.126 -0.0544 -0.2009  0.6183
 3762TIP3    H132845   6.316   3.418   0.169 -0.8616 -0.1590  1.7265
 3762TIP3    H232846   6.272   3.368   0.033 -0.0548  1.5498  0.8109
 3763TIP3   OH232847   2.013   4.120   8.712  0.1248 -0.7118  0.3845
 3763TIP3    H132848   2.030   4.211   8.689 -0.4680 -0.5239  0.6521
 3763TIP3    H232849   2.076   4.069   8.661  0.6065 -0.1368  0.4082
 3764TIP3   OH232850   2.540   5.846   1.874 -0.0712 -0.2196  0.3653
 3764TIP3    H132851   2.574   5.879   1.791  1.0887 -1.0543  0.4857
 3764TIP3    H232852   2.445   5.855   1.866  0.0080 -0.3904 -1.1046
 3765TIP3   OH232853   0.029   0.577   1.689 -0.2303 -0.5821 -0.5020
 3765TIP3    H132854   0.093   0.531   1.744 -0.7841 -1.3446 -0.4836
 3765TIP3    H232855   0.078   0.600   1.610  0.3860 -0.1006  0.0090
 3766TIP3   OH232856   0.914   2.922   1.107 -0.9829  0.7282 -0.8600
 3766TIP3    H132857   0.926   2.996   1.047 -0.4837  0.5771 -0.9544
 3766TIP3    H232858   0.867   2.857   1.055  0.5478  0.0949 -1.5224
 3767TIP3   OH232859   0.779   2.000   0.453 -0.1154  0.1161  0.1936
 3767TIP3    H132860   0.687   1.979   0.472 -0.7305  0.3271 -2.2968
 3767TIP3    H232861   0.803   1.939   0.384  2.0593 -0.7441  1.5985
 3768TIP3   OH232862   6.549   6.305   0.587  0.1394  0.0326 -0.2025
 3768TIP3    H132863   6.522   6.396   0.598 -0.6989 -0.3983  1.7918
 3768TIP3    H232864   6.481   6.267   0.532 -2.0333 -0.3470  2.4741
 3769TIP3   OH232865   1.502   2.506   7.114 -0.1482 -0.7633  0.0319
 3769TIP3    H132866   1.407   2.501   7.118 -0.2684  0.3934 -0.7082
 3769TIP3    H232867   1.521   2.531   7.023  0.7380  0.7994  0.6001
 3770TIP3   OH232868   1.541   2.579   0.942  0.1082  0.2084 -0.3290
 3770TIP3    H132869   1.491   2.635   1.002 -0.2352 -1.0131  0.5586
 3770TIP3    H232870   1.557   2.634   0.865  2.7735  2.7745  1.8120
 3771TIP3   OH232871   2.069   5.889   7.391  0.6504  0.7835 -0.3589
 3771TIP3    H132872   2.008   5.860   7.460  2.0970  0.4944  0.8662
 3771TIP3    H232873   2.013   5.912   7.317 -0.9118  0.1564  0.5757
 3772TIP3   OH232874   2.468   2.723   7.612  0.6672 -0.0749  0.5801
 3772TIP3    H132875   2.390   2.711   7.666 -0.5408 -1.3948 -1.3072
 3772TIP3    H232876   2.503   2.634   7.601  0.9349  0.1619 -0.6672
 3773TIP3   OH232877   4.620   3.611   1.557  0.0527 -0.8381 -0.3407
 3773TIP3    H132878   4.561   3.686   1.566 -0.0458 -1.1232  1.9215
 3773TIP3    H232879   4.561   3.536   1.548  0.0530 -0.9997  0.8398
 3774TIP3   OH232880   3.233   6.581   1.585  0.2542  0.3064  0.5246
 3774TIP3    H132881   3.209   6.613   1.672  0.3340  0.5861  0.4442
 3774TIP3    H232882   3.150   6.553   1.546  0.1900  0.3745  0.6126
 3775TIP3   OH232883   4.195   3.290   8.739 -0.2646 -0.2304 -0.3158
 3775TIP3    H132884   4.200   3.197   8.719 -1.2902 -0.6910  1.3704
 3775TIP3    H232885   4.105   3.314   8.718  0.4518  0.8588 -2.4369
 3776TIP3   OH232886   2.314   0.289   0.881 -0.1568 -0.0456 -0.2247
 3776TIP3    H132887   2.218   0.290   0.881 -0.2065 -1.7329 -0.8213
 3776TIP3    H232888   2.338   0.300   0.973 -0.9570 -0.7770  0.0823
 3777TIP3   OH232889   4.935   3.904   1.013  0.0008  0.0780 -0.0055
 3777TIP3    H132890   4.904   3.829   1.064  0.5748  0.7579  1.4129
 3777TIP3    H232891   4.973   3.963   1.078 -0.6149  1.7025 -1.0557
 3778TIP3   OH232892   5.179   3.616   2.284  0.3773  0.5025 -0.3143
 3778TIP3    H132893   5.132   3.634   2.365  0.2006  1.3480 -0.6029
 3778TIP3    H232894   5.259   3.669   2.291  1.0380 -0.4838 -0.0810
 3779TIP3   OH232895   3.008   6.261   1.823  0.3072  0.4181 -0.2790
 3779TIP3    H132896   2.964   6.179   1.845  0.7066  0.2155 -0.2328
 3779TIP3    H232897   2.947   6.329   1.852  1.2013  0.1987  2.3905
 3780TIP3   OH232898   5.057   0.546   0.642 -0.1243 -0.3551  0.1016
 3780TIP3    H132899   5.003   0.605   0.695  0.7215  0.6046 -0.0795
 3780TIP3    H232900   5.020   0.459   0.659 -1.7413  0.2683 -0.0554
 3781TIP3   OH232901   0.802   4.840   0.438 -0.1539 -0.4317  0.2411
 3781TIP3    H132902   0.821   4.749   0.415 -0.0036 -0.1325 -0.8878
 3781TIP3    H232903   0.790   4.839   0.533  0.2038 -1.5631  0.2883
 3782TIP3   OH232904   6.266   0.419   1.427 -0.1066  0.1628 -0.0717
 3782TIP3    H132905   6.219   0.461   1.499  0.6672  0.0152  0.5327
 3782TIP3    H232906   6.198   0.394   1.365 -0.5813  2.5614 -0.6104
 3783TIP3   OH232907   3.970   3.591   1.961 -0.4523 -0.0745 -0.4365
 3783TIP3    H132908   3.927   3.631   2.037  0.5037 -1.3988  0.8479
 3783TIP3    H232909   3.911   3.521   1.934  1.0727 -2.3813  1.7873
 3784TIP3   OH232910   4.154   3.763   2.470  0.6206 -0.0410 -0.3593
 3784TIP3    H132911   4.226   3.710   2.435  0.8611  1.3473 -2.1199
 3784TIP3    H232912   4.197   3.842   2.503  0.0245  0.1960 -0.1452
 3785TIP3   OH232913   0.460   2.867   8.402 -0.1269  0.0069 -0.1697
 3785TIP3    H132914   0.462   2.920   8.323  1.4791  0.1275 -0.0863
 3785TIP3    H232915   0.552   2.855   8.426 -0.4862 -1.6362  0.6066
 3786TIP3   OH232916   4.458   2.205   8.404 -0.3637  0.7481 -0.5144
 3786TIP3    H132917   4.385   2.240   8.455 -0.6567 -1.5661  0.7646
 3786TIP3    H232918   4.532   2.261   8.426 -1.3234  2.0579 -0.4752
 3787TIP3   OH232919   1.600   6.724   0.672 -0.0944  0.4783 -0.5078
 3787TIP3    H132920   1.508   6.707   0.650  0.1430 -1.1185 -0.4340
 3787TIP3    H232921   1.637   6.637   0.685  1.1225  1.1477  0.7364
 3788TIP3   OH232922   1.291   3.298   8.279 -0.5133 -0.2332 -0.3317
 3788TIP3    H132923   1.279   3.211   8.318 -3.0275 -0.3683 -1.2166
 3788TIP3    H232924   1.286   3.358   8.353  0.6487 -0.7806  0.2145
 3789TIP3   OH232925   0.371   5.964   2.136 -0.0840  0.3527 -0.5576
 3789TIP3    H132926   0.420   5.907   2.077  1.1115  0.3974  0.3485
 3789TIP3    H232927   0.335   6.032   2.079  0.9578  0.3406 -1.2611
 3790TIP3   OH232928   0.794   5.872   1.493 -0.6059  0.0866  0.1417
 3790TIP3    H132929   0.815   5.798   1.436 -1.3087 -0.2329  0.2872
 3790TIP3    H232930   0.749   5.935   1.437  2.5717  1.7854 -0.7350
 3791TIP3   OH232931   4.341   1.569   1.546  0.3044 -0.1096 -0.0882
 3791TIP3    H132932   4.271   1.509   1.571  1.9034 -1.9600  0.1984
 3791TIP3    H232933   4.351   1.627   1.621 -1.2880  0.6008 -0.3775
 3792TIP3   OH232934   5.276   2.610   8.412 -0.1358 -0.0876  0.1078
 3792TIP3    H132935   5.351   2.669   8.420 -1.0627  1.1228  0.2041
 3792TIP3    H232936   5.298   2.535   8.467  0.9649  0.2864  0.1983
 3793TIP3   OH232937   6.019   5.152   8.151 -0.0532 -0.4411  1.0520
 3793TIP3    H132938   6.008   5.118   8.062  0.6717 -0.6363  1.0312
 3793TIP3    H232939   6.022   5.075   8.207 -1.9269 -0.2846  1.4419
 3794TIP3   OH232940   4.921   4.470   0.633 -0.0651  0.3055  0.2759
 3794TIP3    H132941   4.830   4.467   0.665  0.0209  1.0447  0.5940
 3794TIP3    H232942   4.974   4.443   0.708  0.0838  1.3564  0.5641
 3795TIP3   OH232943   5.895   5.534   1.728 -0.1709 -0.4285 -0.0092
 3795TIP3    H132944   5.857   5.602   1.784  0.8501  0.9391 -0.9227
 3795TIP3    H232945   5.834   5.527   1.654 -0.2458 -0.4886  0.0569
 3796TIP3   OH232946   2.156   5.257   0.305  0.4547  0.3839 -0.5879
 3796TIP3    H132947   2.147   5.170   0.267  0.8158 -0.0692  0.3322
 3796TIP3    H232948   2.066   5.283   0.325  0.3151  0.3791 -1.1925
 3797TIP3   OH232949   4.320   0.412   8.818  0.2302 -0.0226 -0.1032
 3797TIP3    H132950   4.365   0.332   8.846  2.3660  0.8496 -0.8796
 3797TIP3    H232951   4.337   0.417   8.724 -2.1744 -0.0152 -0.6152
 3798TIP3   OH232952   5.616   0.886   0.441 -0.2145  0.5581  0.5655
 3798TIP3    H132953   5.613   0.809   0.497  0.3968  0.6145  0.6871
 3798TIP3    H232954   5.669   0.859   0.366 -2.4996 -0.0936 -0.9082
 3799TIP3   OH232955   1.878   5.283   8.034 -0.4221  0.2328  0.0230
 3799TIP3    H132956   1.932   5.204   8.027 -2.4218 -1.0180 -2.6220
 3799TIP3    H232957   1.940   5.355   8.022  1.4375 -0.8097  2.3756
 3800TIP3   OH232958   3.585   5.835   8.489  0.1624  0.0596 -0.4672
 3800TIP3    H132959   3.561   5.746   8.512  1.2357  0.0606  0.7306
 3800TIP3    H232960   3.520   5.861   8.423  0.1953 -1.7937 -1.2691
 3801TIP3   OH232961   5.620   3.022   1.781 -0.6196 -0.1992  0.6745
 3801TIP3    H132962   5.679   3.053   1.849 -2.0974  1.0746  1.4553
 3801TIP3    H232963   5.609   3.098   1.723  0.4391 -1.1928 -0.8846
 3802TIP3   OH232964   1.219   3.469   1.944 -0.0284  0.2451 -0.3200
 3802TIP3    H132965   1.243   3.509   2.027  0.3986 -1.6013  0.5039
 3802TIP3    H232966   1.301   3.433   1.910 -0.5243 -0.6259 -0.6213
 3803TIP3   OH232967   4.466   1.711   1.279  0.3020 -0.8072 -0.8056
 3803TIP3    H132968   4.500   1.751   1.359  0.2549 -0.6844 -0.8466
 3803TIP3    H232969   4.424   1.630   1.308  0.2360 -0.7352 -0.6995
 3804TIP3   OH232970   5.326   2.756   8.697  0.2144 -0.4868  0.2722
 3804TIP3    H132971   5.375   2.687   8.742  1.6539  1.3006  1.6014
 3804TIP3    H232972   5.392   2.804   8.647 -0.3467  1.2857  1.1712
 3805TIP3   OH232973   0.435   6.546   7.426  0.3621 -0.5156 -0.4573
 3805TIP3    H132974   0.347   6.508   7.422  0.2600 -0.3572  0.2402
 3805TIP3    H232975   0.433   6.616   7.360 -0.0020 -0.5747 -0.5140
 3806TIP3   OH232976   6.487   5.445   0.412 -0.3768  0.0634  0.2888
 3806TIP3    H132977   6.529   5.507   0.352 -0.3462  0.6396  0.8947
 3806TIP3    H232978   6.555   5.423   0.476 -0.6316  0.0458  0.5554
 3807TIP3   OH232979   3.810   1.220   1.895 -0.2919 -0.9128 -0.0731
 3807TIP3    H132980   3.839   1.277   1.824 -0.4268  1.9370  1.9696
 3807TIP3    H232981   3.875   1.150   1.899  1.2546  0.4090 -1.2310
 3808TIP3   OH232982   4.467   4.685   2.635  0.2322 -0.0257 -0.8438
 3808TIP3    H132983   4.499   4.772   2.610 -1.4636  0.3531 -1.8740
 3808TIP3    H232984   4.479   4.632   2.557 -0.3079 -0.2495 -0.7800
 3809TIP3   OH232985   3.261   6.701   2.070  0.1055  0.9829  0.2653
 3809TIP3    H132986   3.205   6.669   2.141  2.0051 -1.5966  0.7409
 3809TIP3    H232987   3.350   6.677   2.097  0.8478 -1.2674 -3.4695
 3810TIP3   OH232988   3.684   2.157   7.190 -0.3531 -0.7964 -0.3974
 3810TIP3    H132989   3.738   2.215   7.244 -1.6985 -1.4214  1.7452
 3810TIP3    H232990   3.699   2.188   7.100 -0.1545  2.1684  0.5244
 3811TIP3   OH232991   0.797   5.898   2.610  0.5897 -0.1997  0.4667
 3811TIP3    H132992   0.829   5.976   2.564 -1.2823 -0.2506 -0.9923
 3811TIP3    H232993   0.876   5.845   2.624  1.4368  0.4575 -1.4439
 3812TIP3   OH232994   4.336   3.871   0.374 -0.1275 -0.1721 -0.1132
 3812TIP3    H132995   4.428   3.850   0.359  0.2796  1.3043  0.1444
 3812TIP3    H232996   4.324   3.957   0.334 -0.9287  0.4418  1.3506
 3813TIP3   OH232997   0.729   0.818   1.029  0.0677 -0.2132  0.4964
 3813TIP3    H132998   0.723   0.764   0.950  1.0187  0.3349  0.0214
 3813TIP3    H232999   0.705   0.906   0.999  0.9316  0.0996  0.6832
 3814TIP3   OH233000   4.769   5.581   8.746  0.0661  0.0388 -0.3720
 3814TIP3    H133001   4.716   5.556   8.670  0.7557  0.8137 -1.1287
 3814TIP3    H233002   4.785   5.498   8.792 -3.3021 -0.0283  0.9346
 3815TIP3   OH233003   1.752   6.524   0.735 -0.0787  0.2029 -0.5877
 3815TIP3    H133004   1.696   6.447   0.746  0.3297  0.1936  2.1432
 3815TIP3    H233005   1.839   6.487   0.715 -0.4283  0.1097 -2.0323
 3816TIP3   OH233006   3.809   6.418   1.396 -0.2524  0.1243 -0.5060
 3816TIP3    H133007   3.842   6.422   1.486  1.5279 -0.7892 -1.0688
 3816TIP3    H233008   3.796   6.510   1.371 -0.1842  0.4121  0.4718
 3817TIP3   OH233009   5.409   5.811   1.092 -0.1041 -0.1230 -0.2148
 3817TIP3    H133010   5.415   5.771   1.179  1.5436 -0.9320 -0.6523
 3817TIP3    H233011   5.395   5.904   1.109  0.9859 -0.1424  0.9484
 3818TIP3   OH233012   0.333   3.155   1.286 -0.0432 -0.1729  0.3026
 3818TIP3    H133013   0.354   3.061   1.288 -0.1758 -0.2347 -0.6804
 3818TIP3    H233014   0.240   3.158   1.263  0.3632  0.2035 -1.5027
 3819TIP3   OH233015   5.322   0.677   7.703  0.0733  0.9265 -0.1534
 3819TIP3    H133016   5.356   0.723   7.625  2.8634 -0.1585  0.2954
 3819TIP3    H233017   5.396   0.675   7.763 -0.7355 -1.9002  0.8714
 3820TIP3   OH233018   2.388   2.637   7.200 -0.1472  0.3721  0.7071
 3820TIP3    H133019   2.407   2.551   7.237 -3.4572 -0.6164  0.4483
 3820TIP3    H233020   2.455   2.651   7.134  1.0298 -1.5476  1.4282
 3821TIP3   OH233021   5.886   5.259   1.620  0.5434  0.0585  0.1120
 3821TIP3    H133022   5.934   5.247   1.702 -0.3381  2.3873  1.0779
 3821TIP3    H233023   5.828   5.334   1.638 -2.1902 -1.5024 -1.5230
 3822TIP3   OH233024   3.610   5.661   1.342  0.2445  0.2214 -0.4551
 3822TIP3    H133025   3.701   5.631   1.336  0.3196  0.0614  1.0774
 3822TIP3    H233026   3.557   5.583   1.325  0.4245 -0.1843  0.7671
 3823TIP3   OH233027   3.005   0.424   8.636 -0.2202 -0.3225  0.6247
 3823TIP3    H133028   3.036   0.368   8.565 -0.0268 -0.4896  0.8354
 3823TIP3    H233029   2.930   0.471   8.600 -0.0309 -0.2946  0.2672
 3824TIP3   OH233030   6.099   3.446   0.421  0.6039  0.6033  0.0480
 3824TIP3    H133031   6.023   3.394   0.448  0.2002  1.6163  0.9035
 3824TIP3    H233032   6.174   3.387   0.433  0.0630 -0.0993  0.0690
 3825TIP3   OH233033   5.369   4.418   1.402  0.2661  0.1821 -0.2047
 3825TIP3    H133034   5.454   4.377   1.419  0.1638 -0.0304 -0.2044
 3825TIP3    H233035   5.307   4.345   1.403 -0.1304  0.5059  1.2840
 3826TIP3   OH233036   4.776   2.901   1.794 -0.6936  0.1834 -0.3149
 3826TIP3    H133037   4.732   2.816   1.802  1.3130 -0.9909 -0.9949
 3826TIP3    H233038   4.860   2.888   1.838 -0.1142  1.6422 -0.9438
 3827TIP3   OH233039   6.171   1.907   2.584  0.1160 -0.7443  0.1680
 3827TIP3    H133040   6.194   1.997   2.606  0.0642 -0.7156  0.1063
 3827TIP3    H233041   6.244   1.854   2.617  0.6168 -0.5848 -0.6720
 3828TIP3   OH233042   2.534   5.057   1.881 -0.0736  0.2696 -0.0383
 3828TIP3    H133043   2.619   5.040   1.921 -1.2615 -0.0143  2.5606
 3828TIP3    H233044   2.529   5.152   1.874  1.1681  0.2549 -2.0583
 3829TIP3   OH233045   3.021   0.211   7.560 -0.3086 -0.2287 -0.0970
 3829TIP3    H133046   2.963   0.136   7.571 -1.8133  1.0532  1.1369
 3829TIP3    H233047   2.971   0.272   7.504 -1.0202  1.6342  2.3678
 3830TIP3   OH233048   0.907   5.361   1.369  1.1091 -0.5079 -0.3192
 3830TIP3    H133049   0.904   5.421   1.444  0.5273  0.1876 -0.8910
 3830TIP3    H233050   0.918   5.418   1.293  1.3516 -1.1877 -0.8019
 3831TIP3   OH233051   5.084   5.848   1.464  0.5318 -0.1435  0.1427
 3831TIP3    H133052   5.004   5.803   1.490 -2.0912  2.3430 -2.8133
 3831TIP3    H233053   5.113   5.892   1.544 -1.2979 -0.7883  1.2304
 3832TIP3   OH233054   0.902   1.525   1.129 -1.1940  0.0657  0.6186
 3832TIP3    H133055   0.857   1.441   1.132  1.4292 -1.4460  1.3986
 3832TIP3    H233056   0.907   1.554   1.220  0.5518 -0.5330  0.7570
 3833TIP3   OH233057   3.655   6.147   0.798  0.2546  0.0516 -0.0296
 3833TIP3    H133058   3.610   6.092   0.861  1.1756 -2.4628 -1.4433
 3833TIP3    H233059   3.586   6.197   0.756 -0.9685 -1.9334 -0.4782
 3834TIP3   OH233060   0.273   3.728   1.062  0.7229  0.2477 -0.0538
 3834TIP3    H133061   0.268   3.789   0.987 -1.1200  2.0976  1.4609
 3834TIP3    H233062   0.313   3.780   1.132  0.3236 -0.7149  0.9091
 3835TIP3   OH233063   5.866   3.116   8.397 -0.0896  0.0056  0.5632
 3835TIP3    H133064   5.955   3.146   8.376 -0.6650  0.3752 -1.5575
 3835TIP3    H233065   5.822   3.194   8.432 -1.1756  1.5965 -3.6753
 3836TIP3   OH233066   3.412   3.400   7.330  0.0025 -0.4800 -0.6385
 3836TIP3    H133067   3.476   3.345   7.377 -0.4738 -1.4709 -1.1305
 3836TIP3    H233068   3.335   3.400   7.387 -0.1649 -0.7171 -0.8648
 3837TIP3   OH233069   3.253   4.207   0.294  0.7735  0.0921  0.4440
 3837TIP3    H133070   3.225   4.298   0.286 -0.2663 -0.0383  2.0584
 3837TIP3    H233071   3.348   4.210   0.291  0.7528  1.2415  0.5194
 3838TIP3   OH233072   1.328   0.216   0.272  0.3460 -0.4933 -0.6975
 3838TIP3    H133073   1.311   0.180   0.359  0.4911  1.3931  0.1739
 3838TIP3    H233074   1.372   0.300   0.290 -0.5788  0.4307 -2.5519
 3839TIP3   OH233075   4.257   0.143   8.633  0.1300 -0.0215 -0.6185
 3839TIP3    H133076   4.315   0.096   8.694 -0.4237  1.2704  0.9825
 3839TIP3    H233077   4.230   0.077   8.570  0.8416 -1.3984  0.4591
 3840TIP3   OH233078   4.670   4.757   0.887 -0.5240  0.5473 -0.1293
 3840TIP3    H133079   4.687   4.694   0.817  0.6353  0.1919  0.4550
 3840TIP3    H233080   4.599   4.717   0.938  0.1576 -0.2653  0.1966
 3841TIP3   OH233081   1.130   5.236   7.233 -0.0513 -0.2967 -0.5150
 3841TIP3    H133082   1.179   5.158   7.258 -0.4714 -0.3363  0.2129
 3841TIP3    H233083   1.161   5.305   7.291  0.1341  0.0212 -0.9829
 3842TIP3   OH233084   5.687   0.024   8.032  0.0489 -0.1261 -0.3562
 3842TIP3    H133085   5.644   0.028   8.117  2.4687  1.3585  0.9000
 3842TIP3    H233086   5.714  -0.067   8.022 -0.4127 -0.3452  0.3932
 3843TIP3   OH233087   4.132   2.759   1.639  0.2031  0.1192  0.5041
 3843TIP3    H133088   4.177   2.842   1.655  1.1343 -0.1776 -0.4432
 3843TIP3    H233089   4.118   2.722   1.726  0.1445  1.0781  0.9135
 3844TIP3   OH233090   5.058   5.675   7.674  0.3505  0.0088  0.4593
 3844TIP3    H133091   5.082   5.592   7.715  1.9329  0.0766 -0.2477
 3844TIP3    H233092   5.057   5.657   7.580 -1.0594  0.3842  0.3761
 3845TIP3   OH233093   2.477   2.942   0.185 -0.0942  0.0712 -0.2240
 3845TIP3    H133094   2.500   2.869   0.243 -3.0836 -1.5703 -0.9102
 3845TIP3    H233095   2.427   3.002   0.241  1.4431  1.1369  0.0702
 3846TIP3   OH233096   4.957   3.076   7.054  0.3491 -0.0821  0.1881
 3846TIP3    H133097   4.982   2.984   7.044 -0.8974 -0.5356  1.0786
 3846TIP3    H233098   4.980   3.116   6.970  1.5110 -1.0528  0.0155
 3847TIP3   OH233099   4.665   2.481   7.982  0.1224  0.4694 -0.0168
 3847TIP3    H133100   4.612   2.558   7.963  1.3852  1.6864  1.1551
 3847TIP3    H233101   4.722   2.472   7.905  0.5959  1.2857  0.2265
 3848TIP3   OH233102   4.303   5.725   0.912  0.3453 -0.8207  0.2069
 3848TIP3    H133103   4.236   5.766   0.858 -0.0243  0.7266  1.7621
 3848TIP3    H233104   4.383   5.733   0.860 -0.3967 -1.4689 -1.0874
 3849TIP3   OH233105   3.705   2.812   8.293 -0.4039 -0.1153  0.2895
 3849TIP3    H133106   3.773   2.745   8.289  1.2360  1.4586  0.2375
 3849TIP3    H233107   3.687   2.834   8.202 -1.7677 -1.2105  0.2566
 3850TIP3   OH233108   3.710   0.729   0.202  0.1149  0.3997 -0.4109
 3850TIP3    H133109   3.647   0.745   0.131  0.9696 -0.2012 -1.3434
 3850TIP3    H233110   3.777   0.796   0.190  0.6414 -0.1589 -0.6370
 3851TIP3   OH233111   3.423   5.469   0.177  0.0880 -0.4810  0.0532
 3851TIP3    H133112   3.495   5.462   0.240 -1.3071 -0.3097  1.7568
 3851TIP3    H233113   3.424   5.386   0.129  4.0106  1.0469 -3.0720
 3852TIP3   OH233114   6.433   2.490   1.295  0.3392  0.0912 -0.1336
 3852TIP3    H133115   6.370   2.526   1.233  1.7576  1.0658 -1.0979
 3852TIP3    H233116   6.490   2.434   1.242  0.4208 -0.5861  0.6596
 3853TIP3   OH233117   3.539   3.655   1.921 -0.4243 -0.0546 -0.6094
 3853TIP3    H133118   3.513   3.656   2.013  1.1911  1.3835 -0.1204
 3853TIP3    H233119   3.477   3.715   1.878 -1.4212 -1.0230 -0.5671
 3854TIP3   OH233120   0.911   0.481   8.775 -0.1159 -0.4736 -0.2533
 3854TIP3    H133121   0.998   0.454   8.804  0.0891 -0.9825 -1.3277
 3854TIP3    H233122   0.874   0.403   8.735 -0.9172 -0.1396 -0.1696
 3855TIP3   OH233123   2.050   5.812   7.656  0.3929 -0.5522  0.2119
 3855TIP3    H133124   2.030   5.722   7.682  0.0774 -1.3917 -2.5528
 3855TIP3    H233125   2.146   5.817   7.659  0.5673 -1.7026 -1.4251
 3856TIP3   OH233126   5.624   0.878   8.310 -0.5236  0.2275 -0.2427
 3856TIP3    H133127   5.655   0.885   8.219 -0.5902 -1.5695 -0.4321
 3856TIP3    H233128   5.703   0.860   8.360 -0.6103  0.3735 -0.0542
 3857TIP3   OH233129   4.867   3.089   7.875 -0.3744  0.3326  0.7127
 3857TIP3    H133130   4.863   3.087   7.970  0.3502 -0.7676  0.7304
 3857TIP3    H233131   4.838   3.002   7.847 -0.4752  0.6040 -0.0664
 3858TIP3   OH233132   3.743   1.822   1.343  0.2103 -0.2478 -0.6537
 3858TIP3    H133133   3.722   1.820   1.250 -1.8592 -0.4074 -0.2396
 3858TIP3    H233134   3.698   1.900   1.376 -1.7426 -1.8629  0.7301
 3859TIP3   OH233135   6.123   1.409   0.308 -0.3803  0.5626 -0.1018
 3859TIP3    H133136   6.153   1.440   0.222 -1.7159  2.3025  0.0083
 3859TIP3    H233137   6.143   1.481   0.368 -1.3791  0.2321  0.6465
 3860TIP3   OH233138   4.272   0.000   0.686 -0.2688  0.9209 -0.2723
 3860TIP3    H133139   4.323   0.078   0.664 -0.3468  0.6214 -1.5490
 3860TIP3    H233140   4.184   0.019   0.654 -0.5294  0.7036  0.3076
 3861TIP3   OH233141   3.581   1.955   6.641 -0.1333 -0.4245 -0.2617
 3861TIP3    H133142   3.634   1.907   6.704 -0.4466  0.4582  0.6872
 3861TIP3    H233143   3.624   1.940   6.557  1.8384  0.5750  0.5225
 3862TIP3   OH233144   1.063   1.724   1.095 -0.1291  0.7507  0.6290
 3862TIP3    H133145   1.153   1.701   1.116 -0.3556 -0.2158  0.5827
 3862TIP3    H233146   1.021   1.640   1.075 -0.7998  1.2875 -0.2721
 3863TIP3   OH233147   1.896   6.043   7.697  0.3922  0.1327 -0.2845
 3863TIP3    H133148   1.940   5.958   7.683  0.9519  0.1185  1.2699
 3863TIP3    H233149   1.926   6.070   7.784  0.0128  1.8156 -0.6521
 3864TIP3   OH233150   2.374   6.369   7.050  0.3995 -0.0178  0.9377
 3864TIP3    H133151   2.361   6.460   7.078 -0.6971  0.2467 -0.3556
 3864TIP3    H233152   2.453   6.372   6.997 -0.0718  0.3317  0.2514
 3865TIP3   OH233153   3.658   4.023   7.168 -0.6028  0.2114  0.5893
 3865TIP3    H133154   3.573   3.993   7.136 -1.8307  2.1063  1.8282
 3865TIP3    H233155   3.686   4.088   7.104  0.0274 -0.5471  0.0834
 3866TIP3   OH233156   1.392   2.987   2.659 -0.1151 -0.5560  0.0688
 3866TIP3    H133157   1.447   2.920   2.618 -2.5961 -1.7519 -1.5124
 3866TIP3    H233158   1.372   3.049   2.589 -0.1296  0.3271  0.8269
 3867TIP3   OH233159   4.926   6.039   8.222  0.1398  0.1180 -1.1403
 3867TIP3    H133160   4.881   6.032   8.306 -0.6990  1.7870 -1.3920
 3867TIP3    H233161   4.866   5.997   8.160  0.4375 -0.4972 -1.0193
 3868TIP3   OH233162   3.531   6.012   1.017 -0.1218  0.7141  0.2486
 3868TIP3    H133163   3.450   5.985   0.974  0.1901  1.1416 -0.6343
 3868TIP3    H233164   3.503   6.052   1.099 -0.6346 -1.8115  1.4230
 3869TIP3   OH233165   5.178   3.333   2.217  0.1301  0.0075 -0.0696
 3869TIP3    H133166   5.088   3.303   2.222  0.3717 -0.6315  0.5142
 3869TIP3    H233167   5.175   3.424   2.249 -0.4170  0.2377 -0.7619
 3870TIP3   OH233168   4.209   5.331   0.153  0.0337 -0.4656  0.4474
 3870TIP3    H133169   4.288   5.320   0.205 -0.4230  0.7915  1.4518
 3870TIP3    H233170   4.219   5.417   0.111 -1.0665  0.0116  1.1144
 3871TIP3   OH233171   0.411   1.908   0.902 -0.1175 -0.4573  0.9367
 3871TIP3    H133172   0.485   1.850   0.923  1.4968  1.2657  0.2991
 3871TIP3    H233173   0.420   1.980   0.964 -1.3043 -0.2364  0.8626
 3872TIP3   OH233174   6.057   4.056   7.598 -0.1119  0.1020  0.6665
 3872TIP3    H133175   6.130   3.996   7.582  0.5087  0.7113  1.1199
 3872TIP3    H233176   6.008   4.014   7.669 -1.3086 -1.2403 -0.8728
 3873TIP3   OH233177   5.758   3.780   0.477 -0.1183  0.3802 -0.7849
 3873TIP3    H133178   5.775   3.728   0.555  0.6534 -1.5558 -2.1873
 3873TIP3    H233179   5.772   3.871   0.506 -0.2562 -0.2319  1.3955
 3874TIP3   OH233180   1.344   0.569   0.163  0.1791  0.0187 -0.4490
 3874TIP3    H133181   1.391   0.562   0.246 -1.3741  0.5206  0.5009
 3874TIP3    H233182   1.412   0.553   0.096  0.9923 -2.9205  0.9227
 3875TIP3   OH233183   4.665   4.696   2.047 -0.3395 -0.6839  0.2679
 3875TIP3    H133184   4.620   4.709   1.963 -1.5898  1.0578  1.1608
 3875TIP3    H233185   4.662   4.782   2.089  1.1106 -1.3023  1.7077
 3876TIP3   OH233186   5.281   1.289   1.693  0.6377 -0.0207 -0.0035
 3876TIP3    H133187   5.204   1.305   1.748  0.1818  0.9590 -0.8879
 3876TIP3    H233188   5.336   1.231   1.745 -0.3515 -0.1281  0.9617
 3877TIP3   OH233189   3.002   3.237   1.156  0.1844 -0.6010  0.0542
 3877TIP3    H133190   3.064   3.167   1.134  0.7561  0.0613 -0.4531
 3877TIP3    H233191   3.008   3.298   1.083  0.3201  0.4207  0.9094
 3878TIP3   OH233192   5.385   2.654   7.913  0.5136 -0.0239 -0.0634
 3878TIP3    H133193   5.344   2.741   7.910  2.5867  1.0395  0.3167
 3878TIP3    H233194   5.327   2.602   7.967 -0.3699  1.3700  0.3825
 3879TIP3   OH233195   1.136   3.605   1.641 -0.4966 -0.3651 -0.0514
 3879TIP3    H133196   1.128   3.512   1.662  2.5884 -1.4587 -2.7999
 3879TIP3    H233197   1.181   3.643   1.717 -3.4357 -0.5786  1.9270
 3880TIP3   OH233198   5.646   1.167   0.350  0.3172 -0.1907  0.5127
 3880TIP3    H133199   5.577   1.217   0.394  0.0077 -0.9591  0.9114
 3880TIP3    H233200   5.703   1.234   0.312 -0.1635  0.4656  0.9238
 3881TIP3   OH233201   4.425   2.664   0.263 -0.3684  0.3356 -0.4771
 3881TIP3    H133202   4.477   2.614   0.326  0.1230  0.4986 -0.7462
 3881TIP3    H233203   4.390   2.738   0.312  0.7767  0.9785 -0.6037
 3882TIP3   OH233204   3.553   1.475   0.546  0.2202  0.0409  0.2957
 3882TIP3    H133205   3.510   1.415   0.484  1.9959 -0.7427 -0.2372
 3882TIP3    H233206   3.528   1.562   0.515  0.4053 -0.3573 -1.0584
 3883TIP3   OH233207   2.435   4.764   1.051  0.1539 -0.2471 -0.5060
 3883TIP3    H133208   2.381   4.733   0.978  0.6806 -1.6412 -0.3238
 3883TIP3    H233209   2.521   4.726   1.034  0.3234 -0.4434  0.7450
 3884TIP3   OH233210   2.655   6.058   7.242 -1.0953  0.0681  0.4970
 3884TIP3    H133211   2.573   6.106   7.236 -1.8890 -1.4149 -1.7795
 3884TIP3    H233212   2.665   6.015   7.157  0.6219 -2.0564  1.6366
 3885TIP3   OH233213   4.810   0.803   0.524 -0.3672 -0.0544  0.1666
 3885TIP3    H133214   4.831   0.854   0.446  0.9696 -0.3477  0.3127
 3885TIP3    H233215   4.743   0.854   0.570 -0.2757  0.7139 -0.5491
 3886TIP3   OH233216   3.332   1.549   1.279  0.1111 -0.0370  0.2997
 3886TIP3    H133217   3.342   1.587   1.366  1.7831 -0.5778  0.3774
 3886TIP3    H233218   3.395   1.477   1.277  0.6907  0.4704 -1.6262
 3887TIP3   OH233219   3.838   3.125   8.646  0.0042  0.6243 -0.2391
 3887TIP3    H133220   3.780   3.198   8.626 -1.5201 -0.8544 -1.5252
 3887TIP3    H233221   3.873   3.098   8.561  0.6217 -0.0856  0.2214
 3888TIP3   OH233222   2.277   1.885   6.702 -0.0979  0.2689  0.1205
 3888TIP3    H133223   2.368   1.905   6.680  0.3339 -1.1489  0.4770
 3888TIP3    H233224   2.240   1.968   6.731  1.3429  0.6951  0.8342
 3889TIP3   OH233225   3.497   0.876   1.577  0.1894  0.2549  0.4622
 3889TIP3    H133226   3.526   0.927   1.652  2.1874  0.5867 -0.4652
 3889TIP3    H233227   3.491   0.939   1.505  1.9705 -0.5946 -0.5208
 3890TIP3   OH233228   1.652   6.186   1.323  0.0551 -0.0034  0.4278
 3890TIP3    H133229   1.732   6.224   1.359 -0.7043 -0.2065  2.4817
 3890TIP3    H233230   1.591   6.260   1.319  0.0757 -0.0179 -0.3759
 3891TIP3   OH233231   4.243   2.115   7.218  0.2080 -0.7691  0.1820
 3891TIP3    H133232   4.295   2.084   7.293 -1.8247 -0.3548  1.8668
 3891TIP3    H233233   4.183   2.043   7.199  0.0433 -0.4795 -0.4179
 3892TIP3   OH233234   5.078   4.516   8.372  0.1261 -0.1468  0.2505
 3892TIP3    H133235   5.156   4.547   8.325  1.5494 -0.6992  2.1187
 3892TIP3    H233236   5.038   4.454   8.312  0.4423  1.0231 -1.2282
 3893TIP3   OH233237   0.973   2.707   7.344 -0.0377 -0.1011 -0.1764
 3893TIP3    H133238   0.908   2.705   7.274  0.4479  0.2342 -0.6436
 3893TIP3    H233239   0.985   2.800   7.364  0.2040 -0.1655 -0.0043
 3894TIP3   OH233240   6.179   1.977   8.193 -0.6060 -0.1448 -0.3624
 3894TIP3    H133241   6.085   1.958   8.200 -0.2428 -3.1284 -1.6886
 3894TIP3    H233242   6.186   2.039   8.120 -1.5011 -0.8421 -1.0694
 3895TIP3   OH233243   2.770   6.400   0.958 -0.1691  0.0748  0.1707
 3895TIP3    H133244   2.718   6.322   0.939 -0.4957  0.4801 -0.6978
 3895TIP3    H233245   2.820   6.415   0.877  1.6230 -0.5269  1.1124
 3896TIP3   OH233246   1.690   5.304   6.807 -0.2354 -0.2518  0.1208
 3896TIP3    H133247   1.776   5.269   6.783 -0.8521 -2.4446  0.8305
 3896TIP3    H233248   1.700   5.399   6.802  1.9571 -0.4702 -0.6945
 3897TIP3   OH233249   3.490   2.006   7.274  0.0947 -0.0373 -0.0720
 3897TIP3    H133250   3.553   2.057   7.224  1.4831 -0.1647  1.4510
 3897TIP3    H233251   3.478   2.056   7.355 -0.0091 -1.1532  0.6175
 3898TIP3   OH233252   0.561   0.917   0.641  0.3638  0.5448 -0.2021
 3898TIP3    H133253   0.599   0.846   0.694 -2.4414 -2.8830 -2.3046
 3898TIP3    H233254   0.621   0.925   0.567  0.1421 -0.5221 -0.5198
 3899TIP3   OH233255   3.077   4.409   2.170 -0.1916 -0.1045  0.7673
 3899TIP3    H133256   3.166   4.426   2.201  0.0322  0.8431 -0.3322
 3899TIP3    H233257   3.028   4.386   2.249  0.8153  0.2561  1.5192
 3900TIP3   OH233258   3.703   2.793   1.082 -0.2349  0.3442  0.0638
 3900TIP3    H133259   3.797   2.781   1.092 -0.2232 -0.5170 -0.9136
 3900TIP3    H233260   3.664   2.715   1.122 -0.5102  0.4443 -0.0076
 3901TIP3   OH233261   4.084   6.044   8.510  0.3927 -0.0012 -0.1133
 3901TIP3    H133262   4.042   6.108   8.566 -1.7558 -1.7477  0.3955
 3901TIP3    H233263   4.081   6.082   8.422  1.4536  1.6283  0.5211
 3902TIP3   OH233264   0.796   3.958   1.024 -0.0519 -0.4171  0.5471
 3902TIP3    H133265   0.857   3.933   1.093  0.9281  1.0667  0.2528
 3902TIP3    H233266   0.793   4.053   1.028  1.7969 -0.0701 -2.9086
 3903TIP3   OH233267   0.056   4.105   6.975  0.1792 -0.0199  0.6151
 3903TIP3    H133268   0.028   4.036   6.915  1.7626 -0.5706  0.4783
 3903TIP3    H233269  -0.025   4.152   6.995 -0.5434 -0.3276 -1.2896
 3904TIP3   OH233270   5.452   1.503   1.816 -0.2649  0.3230 -0.4984
 3904TIP3    H133271   5.532   1.552   1.832  0.4628 -1.1737  0.8170
 3904TIP3    H233272   5.452   1.485   1.722  0.7995  0.5991 -0.5604
 3905TIP3   OH233273   4.801   1.607   6.942  0.3966 -0.3376  0.1111
 3905TIP3    H133274   4.722   1.624   6.891  0.2848  0.3090  0.4848
 3905TIP3    H233275   4.819   1.690   6.987  1.0896 -0.5810  0.3004
 3906TIP3   OH233276   4.308   5.401   7.517  0.1348  0.1375  0.1207
 3906TIP3    H133277   4.240   5.379   7.579 -0.0464 -2.8393 -0.9829
 3906TIP3    H233278   4.389   5.371   7.558  0.3014  0.2347 -0.1335
 3907TIP3   OH233279   1.851   4.345   1.756 -0.2208 -0.6335  0.5287
 3907TIP3    H133280   1.868   4.409   1.687 -0.8997 -1.6791 -0.6481
 3907TIP3    H233281   1.853   4.396   1.837 -0.2750  0.7796 -0.3268
 3908TIP3   OH233282   2.655   2.112   1.496 -0.4710 -0.5276 -0.0223
 3908TIP3    H133283   2.690   2.082   1.580  0.1680  0.1238 -0.0374
 3908TIP3    H233284   2.624   2.033   1.453  2.2184 -1.3785 -0.5642
 3909TIP3   OH233285   2.303   1.669   8.308  0.4925  0.1295  0.0748
 3909TIP3    H133286   2.389   1.639   8.340  1.7839  3.1224 -0.2770
 3909TIP3    H233287   2.298   1.633   8.219  0.7924 -1.0697  0.5114
 3910TIP3   OH233288   2.492   3.221   0.091  0.6427 -0.1383  0.0496
 3910TIP3    H133289   2.579   3.251   0.064 -0.0469  1.4134 -0.5909
 3910TIP3    H233290   2.505   3.130   0.116  2.2307 -0.3052 -1.1786
 3911TIP3   OH233291   0.062   6.009   0.920 -0.2247 -0.3235  0.2966
 3911TIP3    H133292   0.091   6.100   0.930 -0.5998 -0.2039  0.3122
 3911TIP3    H233293  -0.028   6.016   0.887 -0.0877 -0.6917 -0.1655
 3912TIP3   OH233294   2.038   1.467   1.411  0.4492 -0.1380 -0.2174
 3912TIP3    H133295   1.947   1.446   1.389  1.2127 -3.7845 -0.4633
 3912TIP3    H233296   2.041   1.461   1.507  0.4139  0.1900 -0.1935
 3913TIP3   OH233297   5.886   3.653   8.075  0.1649  0.3769 -0.2168
 3913TIP3    H133298   5.807   3.705   8.089  0.4518  1.1589 -1.3339
 3913TIP3    H233299   5.931   3.652   8.159 -2.1357 -2.0543  1.1388
 3914TIP3   OH233300   1.236   2.732   7.449 -0.5250 -0.0687 -0.4611
 3914TIP3    H133301   1.154   2.694   7.418  0.1859 -0.8572 -1.4687
 3914TIP3    H233302   1.296   2.657   7.457  0.4519  0.6238 -0.9660
 3915TIP3   OH233303   5.281   5.331   7.192  0.8818  0.0504 -0.2170
 3915TIP3    H133304   5.359   5.277   7.201  0.4555 -0.4133  0.8117
 3915TIP3    H233305   5.305   5.398   7.127  1.3573 -1.4419 -1.6511
 3916TIP3   OH233306   6.013   5.706   0.100 -0.9351 -0.1654  0.2528
 3916TIP3    H133307   5.950   5.634   0.098  1.2912 -2.3307  1.7966
 3916TIP3    H233308   6.054   5.704   0.014 -0.7607 -0.8672  0.3495
 3917TIP3   OH233309   4.590   6.608   0.796 -0.2485 -0.1306 -0.1232
 3917TIP3    H133310   4.579   6.673   0.866 -2.0463  0.8218 -1.2087
 3917TIP3    H233311   4.674   6.567   0.815  1.1417  2.7196  0.4575
 3918TIP3   OH233312   5.341   3.493   1.118  0.0766  0.1121  0.3855
 3918TIP3    H133313   5.277   3.447   1.172 -1.3125 -0.4338 -1.6243
 3918TIP3    H233314   5.391   3.424   1.076  1.3038  0.5350  1.0859
 3919TIP3   OH233315   3.004   2.218   0.558  0.1227  0.1790 -0.2804
 3919TIP3    H133316   3.069   2.225   0.488  0.7667 -0.2011  0.2623
 3919TIP3    H233317   2.940   2.154   0.525  1.6242 -1.7708  0.3502
 3920TIP3   OH233318   2.843   0.411   8.027  0.0155 -0.4947  0.4836
 3920TIP3    H133319   2.813   0.407   7.937  2.0296  1.7426 -0.3945
 3920TIP3    H233320   2.881   0.499   8.037  2.8185 -1.7428  2.4829
 3921TIP3   OH233321   0.184   1.102   1.107  0.3763  0.1977 -0.9164
 3921TIP3    H133322   0.194   1.108   1.202 -1.7587  0.9194 -0.7001
 3921TIP3    H233323   0.175   1.008   1.091 -0.8345  0.1708 -0.1958
 3922TIP3   OH233324   6.662   4.260   0.704 -0.3756 -0.1173  0.1076
 3922TIP3    H133325   6.580   4.252   0.752  0.6097 -0.0898  1.8844
 3922TIP3    H233326   6.674   4.355   0.693 -0.6044 -0.1241 -0.2297
 3923TIP3   OH233327   5.889   4.798   7.823  0.1903  0.4059  0.6157
 3923TIP3    H133328   5.920   4.761   7.741 -3.1874  0.4402 -0.8595
 3923TIP3    H233329   5.901   4.729   7.887 -0.0838 -0.8871 -0.6673
 3924TIP3   OH233330   3.590   0.984   0.307  0.3547  0.2531 -0.0496
 3924TIP3    H133331   3.516   0.980   0.367 -0.7383  1.6549 -1.2191
 3924TIP3    H233332   3.638   0.902   0.321 -1.6079 -0.8422  0.5058
 3925TIP3   OH233333   3.536   1.294   1.950  0.0733  1.0783 -0.5293
 3925TIP3    H133334   3.517   1.380   1.989  2.1549  0.5675  1.8276
 3925TIP3    H233335   3.631   1.285   1.955 -0.1153 -1.5677 -0.2449
 3926TIP3   OH233336   4.012   2.318   6.594  0.0675  0.4208  0.0587
 3926TIP3    H133337   3.949   2.314   6.523  0.7709  1.2961 -0.6385
 3926TIP3    H233338   4.034   2.227   6.613 -0.8903  0.1424 -0.1448
 3927TIP3   OH233339   3.963   0.511   2.205 -0.2069 -0.4425 -0.6700
 3927TIP3    H133340   3.884   0.486   2.157 -1.4297 -1.3490  1.6626
 3927TIP3    H233341   3.932   0.531   2.294  2.1308 -0.3999  0.2026
 3928TIP3   OH233342   4.988   6.528   1.180  0.1927  0.2489 -0.2500
 3928TIP3    H133343   5.063   6.585   1.163 -0.3001  1.2405  0.7528
 3928TIP3    H233344   4.959   6.500   1.093  0.4027  1.6204 -0.8007
 3929TIP3   OH233345   1.829   5.704   2.748 -0.5132  0.3204 -0.4761
 3929TIP3    H133346   1.890   5.765   2.706 -0.0319  1.2037  1.3756
 3929TIP3    H233347   1.748   5.755   2.758 -0.3264  0.4572  0.4589
 3930TIP3   OH233348   2.341   5.811   8.090  0.1070 -0.4207 -0.2033
 3930TIP3    H133349   2.297   5.857   8.161  0.8293  0.0134 -0.0201
 3930TIP3    H233350   2.434   5.825   8.107  0.3140 -1.0882 -0.7271
 3931TIP3   OH233351   2.807   1.049   7.347  0.3252  0.2354 -0.2121
 3931TIP3    H133352   2.878   1.061   7.284 -0.4755  1.3789 -0.9467
 3931TIP3    H233353   2.784   0.956   7.339 -0.2300  0.4854 -2.1972
 3932TIP3   OH233354   2.971   0.860   2.217 -0.0852  0.2884 -0.4086
 3932TIP3    H133355   2.903   0.904   2.269 -1.2940 -1.3577 -0.4998
 3932TIP3    H233356   2.986   0.777   2.263 -0.3814 -0.7112 -2.0555
 3933TIP3   OH233357   2.875   4.245   1.243 -0.2129  0.1285 -0.0188
 3933TIP3    H133358   2.795   4.201   1.272 -0.0299  0.1979  0.6147
 3933TIP3    H233359   2.896   4.205   1.159 -1.3850  0.7040 -0.6024
 3934TIP3   OH233360   1.701   3.860   1.572  0.3265 -0.0964 -0.0859
 3934TIP3    H133361   1.633   3.810   1.618  0.0600  0.7935  0.5129
 3934TIP3    H233362   1.779   3.851   1.626  0.0906  0.7031  0.4123
 3935TIP3   OH233363   1.863   1.231   2.182 -0.2308 -0.4391  0.3020
 3935TIP3    H133364   1.875   1.291   2.256  0.6757 -1.5718  1.1362
 3935TIP3    H233365   1.927   1.259   2.117  1.8911 -1.8666  1.6568
 3936TIP3   OH233366   5.841   6.704   1.420  0.3098  0.2916 -0.5345
 3936TIP3    H133367   5.751   6.672   1.432  0.5011 -0.0434  0.0084
 3936TIP3    H233368   5.890   6.668   1.493  1.4121 -1.4095 -2.0210
 3937TIP3   OH233369   4.051   1.564   1.266 -0.4653 -0.4432 -0.3455
 3937TIP3    H133370   4.018   1.517   1.342 -0.3043  2.0807  1.4171
 3937TIP3    H233371   4.130   1.516   1.240  1.4987  0.4327  3.2983
 3938TIP3   OH233372   4.959   0.888   1.179  0.3185 -0.5149  0.0456
 3938TIP3    H133373   4.900   0.881   1.253 -0.5701  2.5922 -0.2137
 3938TIP3    H233374   4.987   0.798   1.161 -2.5452 -1.8347  1.5811
 3939TIP3   OH233375   5.452   2.764   0.150 -0.2174  0.0358  0.3491
 3939TIP3    H133376   5.385   2.813   0.102 -1.2969  0.5322  2.2389
 3939TIP3    H233377   5.435   2.785   0.242  2.4090 -0.0031  0.9257
 3940TIP3   OH233378   2.121   3.887   2.045  0.0222  0.0278 -0.1460
 3940TIP3    H133379   2.168   3.906   2.126 -1.8986 -0.6180  1.1821
 3940TIP3    H233380   2.032   3.918   2.061 -0.5299 -0.5560 -1.8382
 3941TIP3   OH233381   4.411   2.737   1.844  0.1171 -0.0404  0.1767
 3941TIP3    H133382   4.453   2.670   1.899 -0.5802 -1.0632 -0.4849
 3941TIP3    H233383   4.349   2.781   1.903  1.9930  1.4370  1.1407
 3942TIP3   OH233384   2.688   1.382   1.993 -0.0473  0.1597  0.2080
 3942TIP3    H133385   2.642   1.440   1.933  1.7692  0.5765 -0.8744
 3942TIP3    H233386   2.636   1.384   2.073 -2.5527 -0.4110 -1.2922
 3943TIP3   OH233387   4.379   0.255   8.199  0.2880 -0.6550  0.4456
 3943TIP3    H133388   4.362   0.335   8.150  1.2470  0.5788  2.0331
 3943TIP3    H233389   4.294   0.210   8.200 -0.7612  1.2238  1.0435
 3944TIP3   OH233390   3.676   3.171   0.516 -0.8141  0.1627 -0.0031
 3944TIP3    H133391   3.763   3.182   0.478  0.5452  0.6436  2.9583
 3944TIP3    H233392   3.619   3.226   0.462  1.1256  1.4992 -0.8048
 3945TIP3   OH233393   6.407   4.347   8.376 -0.4647  0.3865 -0.2552
 3945TIP3    H133394   6.322   4.325   8.337 -0.9164  0.8318  0.4725
 3945TIP3    H233395   6.405   4.442   8.386 -0.1307  0.3352  0.3408
 3946TIP3   OH233396   4.207   0.146   7.557 -0.0777  0.7250 -0.4333
 3946TIP3    H133397   4.281   0.204   7.539 -0.9938  1.8136 -0.8869
 3946TIP3    H233398   4.167   0.132   7.471  0.7520 -1.5331 -0.5160
 3947TIP3   OH233399   1.166   0.817   1.215  0.5483 -0.5613  0.1412
 3947TIP3    H133400   1.135   0.848   1.130  1.2902 -0.0978  0.0343
 3947TIP3    H233401   1.101   0.752   1.242 -0.0269 -0.2552 -0.4880
 3948TIP3   OH233402   3.794   1.562   8.599 -0.0841 -0.1298  0.1556
 3948TIP3    H133403   3.723   1.551   8.535 -0.2240  1.6823 -0.0435
 3948TIP3    H233404   3.865   1.507   8.565 -0.6990 -0.4153 -0.7115
 3949TIP3   OH233405   3.191   3.775   1.570 -0.4130  0.0078 -0.4120
 3949TIP3    H133406   3.167   3.682   1.574 -0.9018  0.1871  1.1109
 3949TIP3    H233407   3.109   3.822   1.583  0.1181  0.6410  0.7292
 3950TIP3   OH233408   5.734   3.521   1.474  0.0850  0.3099 -0.7402
 3950TIP3    H133409   5.779   3.465   1.410 -1.0609 -1.3274 -0.1726
 3950TIP3    H233410   5.694   3.460   1.536  0.5991  1.8222  1.1952
 3951TIP3   OH233411   3.356   4.092   0.532  0.3985  0.1147 -0.5718
 3951TIP3    H133412   3.301   4.017   0.559  0.3924 -0.2704 -1.6033
 3951TIP3    H233413   3.308   4.131   0.459 -0.2178  1.9062  0.7263
 3952TIP3   OH233414   5.457   5.705   0.771  0.1522  0.1330 -0.2391
 3952TIP3    H133415   5.379   5.651   0.762  0.9522 -1.0681 -0.2207
 3952TIP3    H233416   5.453   5.765   0.696 -1.3553  0.8749  0.3933
 3953TIP3   OH233417   1.804   1.267   7.885  0.0483 -0.3077  0.7676
 3953TIP3    H133418   1.877   1.325   7.907  1.4913 -1.0707 -1.6953
 3953TIP3    H233419   1.810   1.256   7.790 -0.7938 -3.6465  1.0011
 3954TIP3   OH233420   4.533   0.059   0.950 -0.1950 -0.2654 -0.4188
 3954TIP3    H133421   4.590   0.120   0.904 -1.4173 -0.7355 -2.7110
 3954TIP3    H233422   4.460   0.112   0.982 -0.2293 -0.2023 -0.6014
 3955TIP3   OH233423   4.244   4.421   2.026 -0.6885 -0.1500  0.2702
 3955TIP3    H133424   4.248   4.408   2.121 -0.3118 -1.3424  0.1059
 3955TIP3    H233425   4.319   4.477   2.006  0.1189 -1.1155  0.5026
 3956TIP3   OH233426   4.259   2.199   1.370 -0.0514  0.4362  0.2218
 3956TIP3    H133427   4.184   2.157   1.328 -0.0613  1.1685 -0.5354
 3956TIP3    H233428   4.334   2.144   1.348 -0.5493 -1.1366  2.2433
 3957TIP3   OH233429   2.487   3.039   8.253  1.0828  0.1445 -0.5142
 3957TIP3    H133430   2.476   2.959   8.304  2.1509 -1.2956 -2.4083
 3957TIP3    H233431   2.550   3.016   8.184 -0.1924  1.9575 -2.4435
 3958TIP3   OH233432   6.718   0.836   6.446  0.0694 -0.2327 -0.7267
 3958TIP3    H133433   6.716   0.775   6.520  0.6918 -1.1799 -1.4642
 3958TIP3    H233434   6.646   0.809   6.390  0.4193 -0.3807 -1.1153
 3959TIP3   OH233435   3.819   4.651   8.300 -0.3374 -0.1707  0.1209
 3959TIP3    H133436   3.842   4.585   8.235  0.9910 -0.5764  0.9436
 3959TIP3    H233437   3.726   4.667   8.287 -0.4548 -1.4410 -0.7850
 3960TIP3   OH233438   6.174   1.194   1.851 -0.2441 -0.2031  0.3884
 3960TIP3    H133439   6.197   1.193   1.943 -1.3958 -1.7841  0.6933
 3960TIP3    H233440   6.142   1.106   1.833 -0.1512  0.1073 -1.5006
 3961TIP3   OH233441   3.889   0.174   6.770 -0.5757 -0.2824 -0.1211
 3961TIP3    H133442   3.985   0.174   6.770 -0.4856 -1.3878  2.1917
 3961TIP3    H233443   3.865   0.082   6.759 -1.2728 -0.2632  1.0079
 3962TIP3   OH233444   5.864   0.628   7.078 -0.1899 -0.3557  0.4548
 3962TIP3    H133445   5.820   0.625   6.992  1.5193  1.6816 -0.5912
 3962TIP3    H233446   5.792   0.626   7.141 -1.5331 -1.4165 -1.0210
 3963TIP3   OH233447   1.227   1.667   1.782 -0.3069 -0.1659 -0.3003
 3963TIP3    H133448   1.221   1.587   1.730 -0.7185  0.9023 -1.9713
 3963TIP3    H233449   1.289   1.723   1.734 -1.0769  1.0474  0.0754
 3964TIP3   OH233450   2.701   1.816   1.199 -0.2139 -0.0275 -0.3722
 3964TIP3    H133451   2.708   1.775   1.286  1.6892  1.5401  0.2922
 3964TIP3    H233452   2.749   1.757   1.141  1.2947  0.5168  0.2923
 3965TIP3   OH233453   4.096   4.615   1.207 -0.4673  0.1571 -0.1694
 3965TIP3    H133454   4.143   4.536   1.232  1.0528  0.2956 -2.3471
 3965TIP3    H233455   4.096   4.669   1.286  1.9005 -0.4065  0.2850
 3966TIP3   OH233456   0.313   6.758   8.316 -0.5830 -0.3561  0.2395
 3966TIP3    H133457   0.227   6.743   8.355 -0.5914 -4.9416 -0.9287
 3966TIP3    H233458   0.294   6.785   8.226 -0.9036 -1.5969 -0.0919
 3967TIP3   OH233459   4.090   6.168   0.021  0.1574 -0.3830 -0.2633
 3967TIP3    H133460   4.090   6.260   0.049 -0.1275  0.0438 -1.6114
 3967TIP3    H233461   4.073   6.171  -0.073 -2.6610 -1.9159  0.0599
 3968TIP3   OH233462   0.534   4.155   2.320  0.4222 -0.2925 -0.1894
 3968TIP3    H133463   0.451   4.198   2.302  0.9653  0.6839 -0.4584
 3968TIP3    H233464   0.545   4.092   2.248  0.0758 -0.1821 -0.3406
 3969TIP3   OH233465   0.199   3.592   1.620  0.0641 -0.3260 -0.2114
 3969TIP3    H133466   0.204   3.567   1.527 -0.5939 -2.3432  0.2288
 3969TIP3    H233467   0.286   3.575   1.654  0.6155  1.4349 -0.6419
 3970TIP3   OH233468   2.757   3.350   7.169 -0.5702 -0.5490  0.1396
 3970TIP3    H133469   2.766   3.396   7.086  2.7960  1.2359  1.2837
 3970TIP3    H233470   2.729   3.262   7.145 -2.1461  0.5663 -2.5951
 3971TIP3   OH233471   3.676   5.626   0.580  0.4503  0.0467  0.3631
 3971TIP3    H133472   3.644   5.536   0.576 -0.9797  0.5603 -0.4546
 3971TIP3    H233473   3.629   5.665   0.654  0.3893  0.3678  0.1560
 3972TIP3   OH233474   6.339   6.009   2.045  0.4734 -0.3178 -0.2531
 3972TIP3    H133475   6.261   5.966   2.011  0.0115  0.2553  0.0612
 3972TIP3    H233476   6.310   6.049   2.128  0.3584  2.1870 -1.3924
 3973TIP3   OH233477   6.071   6.364   1.836 -0.3181  0.4526  0.0539
 3973TIP3    H133478   5.978   6.374   1.818  0.0886  2.2096 -1.3715
 3973TIP3    H233479   6.098   6.450   1.869  0.4684 -0.5576  2.2348
 3974TIP3   OH233480   4.977   0.662   0.339 -0.0058  0.1228  0.0653
 3974TIP3    H133481   4.945   0.712   0.264 -0.0095 -0.4086 -0.2909
 3974TIP3    H233482   4.951   0.714   0.415 -0.7236  0.2672 -0.2673
 3975TIP3   OH233483   3.474   1.440   6.137  0.0043 -0.0942  0.0068
 3975TIP3    H133484   3.564   1.449   6.169 -0.4310 -0.2416  1.3243
 3975TIP3    H233485   3.471   1.353   6.097 -0.1077 -0.9968  1.8954
 3976TIP3   OH233486   1.533   1.593   1.634  0.0901  0.1150  0.5110
 3976TIP3    H133487   1.494   1.513   1.598  1.1046 -0.1491 -0.0460
 3976TIP3    H233488   1.529   1.656   1.562 -0.5799  0.5235  0.9048
 3977TIP3   OH233489   4.633   3.951   8.092 -0.0348  0.4107  0.1063
 3977TIP3    H133490   4.665   4.026   8.142 -1.0600  0.8106  0.1952
 3977TIP3    H233491   4.577   3.989   8.024 -3.1852 -0.3393  2.0782
 3978TIP3   OH233492   2.498   6.501   7.463 -0.3576 -0.0884 -0.4888
 3978TIP3    H133493   2.564   6.560   7.500 -1.0184  0.3274  0.0586
 3978TIP3    H233494   2.540   6.415   7.465  0.0748  0.1233  0.1239
 3979TIP3   OH233495   4.534   0.503   6.704  0.1405  0.1817  0.7741
 3979TIP3    H133496   4.590   0.476   6.632  1.5412  2.1398  1.0512
 3979TIP3    H233497   4.497   0.421   6.738  1.9344 -1.0599 -0.1234
 3980TIP3   OH233498   5.563   5.261   7.612 -0.0977  0.5575 -0.1039
 3980TIP3    H133499   5.551   5.355   7.621 -2.2249  0.6485 -2.7811
 3980TIP3    H233500   5.478   5.223   7.635 -0.2401 -0.4064 -2.0293
 3981TIP3   OH233501   0.483   4.185   1.051 -0.3133  0.7280 -0.3316
 3981TIP3    H133502   0.536   4.124   0.999  1.0388  0.6550  1.0711
 3981TIP3    H233503   0.396   4.179   1.012  0.5622  0.4921 -2.4178
 3982TIP3   OH233504   4.859   0.554   6.889  0.0691  0.3688  0.1696
 3982TIP3    H133505   4.866   0.624   6.824  1.3505 -2.3958 -2.9151
 3982TIP3    H233506   4.949   0.533   6.912 -0.2589 -0.7313  0.5082
 3983TIP3   OH233507   1.337   2.463   0.420  0.3453 -0.3273  0.3489
 3983TIP3    H133508   1.274   2.406   0.464 -0.2500  0.4986  0.5713
 3983TIP3    H233509   1.414   2.462   0.477  0.3614 -0.9440  0.3230
 3984TIP3   OH233510   1.452   4.519   8.625 -0.0061  0.3148 -0.6783
 3984TIP3    H133511   1.450   4.562   8.711 -1.9675  1.9249 -1.4631
 3984TIP3    H233512   1.518   4.568   8.576 -0.8241  1.2057 -0.9275
 3985TIP3   OH233513   4.097   0.764   8.780 -0.5753  0.7185  0.0901
 3985TIP3    H133514   4.118   0.727   8.866 -3.0839  1.2098  0.9958
 3985TIP3    H233515   4.040   0.698   8.739  0.3865  0.6061 -1.1399
 3986TIP3   OH233516   3.134   6.647   1.831 -0.1366  0.7136  0.1631
 3986TIP3    H133517   3.183   6.659   1.912 -0.3689  2.0176  0.1375
 3986TIP3    H233518   3.052   6.694   1.845 -0.4257  0.4551 -0.6133
 3987TIP3   OH233519   3.315   5.843   7.138  0.2964 -0.2565 -0.7392
 3987TIP3    H133520   3.302   5.751   7.118 -1.8406  0.3900 -2.7565
 3987TIP3    H233521   3.404   5.848   7.175  0.6045 -3.0176 -0.9631
 3988TIP3   OH233522   4.493   3.667   8.645 -0.4910 -0.6037 -0.2660
 3988TIP3    H133523   4.485   3.606   8.719 -0.4225  0.9556  1.0868
 3988TIP3    H233524   4.538   3.743   8.682  1.0871 -0.4432 -2.3524
 3989TIP3   OH233525   3.164   2.396   8.784  0.2233 -0.0365 -0.1945
 3989TIP3    H133526   3.107   2.329   8.822  2.5110 -1.9584  0.1175
 3989TIP3    H233527   3.111   2.475   8.783 -2.7063 -1.8461 -0.7334
 3990TIP3   OH233528   0.874   1.287   1.822  0.0507 -0.0290  0.4674
 3990TIP3    H133529   0.926   1.367   1.819  0.0771 -0.0381  0.7244
 3990TIP3    H233530   0.915   1.233   1.889 -0.1459 -0.1338  0.5048
 3991TIP3   OH233531   3.145   3.051   0.496 -0.1620  0.4509 -0.0163
 3991TIP3    H133532   3.089   2.973   0.493  1.2676 -0.6895  1.4809
 3991TIP3    H233533   3.195   3.048   0.415 -0.4756  0.0835 -0.1978
 3992TIP3   OH233534   6.417   6.565   1.199  0.0334 -0.7881  0.5885
 3992TIP3    H133535   6.471   6.636   1.235 -0.1315 -0.0530 -0.5357
 3992TIP3    H233536   6.480   6.497   1.174  0.6058  0.3937 -1.4674
 3993TIP3   OH233537   2.418   3.481   7.927 -0.1207  0.2044 -0.2674
 3993TIP3    H133538   2.452   3.497   7.839  1.8452  0.8702  0.5409
 3993TIP3    H233539   2.375   3.564   7.951 -3.8817 -1.0988 -1.8362
 3994TIP3   OH233540   4.375   2.571   7.903 -0.4546 -0.2543  0.1556
 3994TIP3    H133541   4.290   2.527   7.905 -1.2971  1.0917 -2.0207
 3994TIP3    H233542   4.356   2.661   7.928  0.2892  0.0989 -0.5125
 3995TIP3   OH233543   2.770   1.172   8.354 -0.4645 -0.0941 -0.1902
 3995TIP3    H133544   2.761   1.171   8.258 -0.0354  1.3480 -0.2724
 3995TIP3    H233545   2.708   1.107   8.385 -0.4840 -0.7090 -1.4661
 3996TIP3   OH233546   1.046   1.145   7.275  0.1193 -0.3756  0.9034
 3996TIP3    H133547   1.123   1.200   7.260 -0.2468 -0.0404  0.1940
 3996TIP3    H233548   1.073   1.058   7.245  0.1118 -0.1832  0.3269
 3997TIP3   OH233549   0.388   3.143   0.941  0.2757 -0.3388 -0.6698
 3997TIP3    H133550   0.438   3.207   0.991  0.4258 -0.9527 -0.0148
 3997TIP3    H233551   0.372   3.185   0.857 -0.9308  1.1444  0.2669
 3998TIP3   OH233552   5.990   3.204   0.908 -0.4392 -0.4596 -0.3971
 3998TIP3    H133553   6.077   3.165   0.909 -0.4954 -0.5889 -0.4691
 3998TIP3    H233554   5.975   3.228   0.816 -0.6306 -0.7839 -0.4528
 3999TIP3   OH233555   5.552   5.127   0.158  0.5730  0.2490  0.3646
 3999TIP3    H133556   5.615   5.165   0.097 -1.8659  1.8260 -1.3414
 3999TIP3    H233557   5.566   5.175   0.240  0.2434  2.0986 -0.6084
 4000TIP3   OH233558   1.189   2.041   2.202 -0.5069  0.4342 -0.4558
 4000TIP3    H133559   1.222   2.096   2.131  0.3191  0.0647 -0.3666
 4000TIP3    H233560   1.106   2.006   2.168 -1.1225  1.8317 -0.4504
 4001TIP3   OH233561   3.641   5.617   7.078 -0.1454 -0.6165  0.0765
 4001TIP3    H133562   3.677   5.562   7.148 -0.3307 -1.5236 -0.5245
 4001TIP3    H233563   3.600   5.690   7.123  0.3216 -0.8439  0.8843
 4002TIP3   OH233564   4.933   6.484   6.574  0.1300 -0.0855 -0.1234
 4002TIP3    H133565   4.932   6.494   6.478  0.1757  1.2640 -0.0046
 4002TIP3    H233566   4.907   6.570   6.607  0.6036 -0.3865  1.0910
 4003TIP3   OH233567   2.998   4.214   2.396 -0.2701  0.4019  0.2487
 4003TIP3    H133568   2.931   4.209   2.464 -2.1097  0.4830 -1.4711
 4003TIP3    H233569   2.952   4.193   2.315  1.8590  0.2024 -0.9972
 4004TIP3   OH233570   0.362   0.922   7.290 -0.3574 -0.6686  0.3601
 4004TIP3    H133571   0.394   0.835   7.265  1.9374  0.0289  0.7054
 4004TIP3    H233572   0.350   0.916   7.385  1.7145 -0.0791  0.6967
 4005TIP3   OH233573   5.679   3.239   7.898  0.1876  0.0809  0.1854
 4005TIP3    H133574   5.701   3.242   7.991 -1.9483  1.3830  0.7227
 4005TIP3    H233575   5.615   3.310   7.886  0.2192 -0.1963 -2.2362
 4006TIP3   OH233576   2.461   1.149   2.008  0.7386 -0.5491 -0.2471
 4006TIP3    H133577   2.478   1.213   2.077 -1.3007 -0.1066 -0.1052
 4006TIP3    H233578   2.529   1.083   2.021  2.3580  1.1072  0.1586
 4007TIP3   OH233579   2.421   3.178   0.804  0.3945  0.1137  0.0830
 4007TIP3    H133580   2.411   3.162   0.898 -1.2906  0.1328 -0.0569
 4007TIP3    H233581   2.338   3.149   0.766  0.9484  0.3512 -1.3737
 4008TIP3   OH233582   1.181   2.570   1.892 -0.0563  0.3928 -0.1826
 4008TIP3    H133583   1.273   2.576   1.914 -0.0765  1.2559 -0.2989
 4008TIP3    H233584   1.176   2.500   1.826  0.2699 -0.8075  1.0158
 4009TIP3   OH233585   5.347   2.339   8.861  0.0022 -0.1763  0.1233
 4009TIP3    H133586   5.388   2.263   8.819 -0.3472  0.0326 -0.6000
 4009TIP3    H233587   5.272   2.302   8.909 -0.0076 -0.3249 -0.0055
 4010TIP3   OH233588   4.842   0.811   6.291 -0.3820  0.3324 -0.2165
 4010TIP3    H133589   4.749   0.818   6.267 -0.9904  1.0880  2.0408
 4010TIP3    H233590   4.846   0.732   6.345  0.2286  0.4523 -0.0852
 4011TIP3   OH233591   0.301   5.788   0.455  0.4908 -0.0363 -0.8189
 4011TIP3    H133592   0.280   5.834   0.536  1.6738  0.8025 -0.9616
 4011TIP3    H233593   0.340   5.705   0.485  0.3834  0.0136 -0.5341
 4012TIP3   OH233594   2.927   2.807   7.312  0.4189 -0.1586  0.7402
 4012TIP3    H133595   2.856   2.754   7.276  0.2194 -0.9776  2.2596
 4012TIP3    H233596   2.910   2.896   7.280  0.7458 -0.9393 -1.8585
 4013TIP3   OH233597   4.976   2.642   0.100 -0.3529 -0.0411  0.4760
 4013TIP3    H133598   4.884   2.667   0.092 -0.3446 -0.4693 -1.2255
 4013TIP3    H233599   5.024   2.725   0.097 -0.6421  0.1402  0.7546
 4014TIP3   OH233600   0.376   0.134   1.918 -0.2819  0.1756 -0.3482
 4014TIP3    H133601   0.313   0.074   1.878  0.7477 -1.7616  0.7605
 4014TIP3    H233602   0.381   0.105   2.010  1.2311  1.1392 -0.0995
 4015TIP3   OH233603   0.569   0.382   8.039  0.3260  0.2157  0.0659
 4015TIP3    H133604   0.516   0.377   7.959  1.4696 -0.5333 -0.6707
 4015TIP3    H233605   0.531   0.456   8.087 -0.9474  0.1300 -0.7414
 4016TIP3   OH233606   3.798   0.272   8.228 -0.2266 -0.1018  0.1170
 4016TIP3    H133607   3.864   0.216   8.187 -2.3213 -2.1241 -0.6890
 4016TIP3    H233608   3.754   0.316   8.155 -2.2894 -1.7668  0.2790
 4017TIP3   OH233609   3.607   0.589   7.656  0.2083  0.6487 -0.1918
 4017TIP3    H133610   3.525   0.638   7.668  0.5929  0.8577  2.0110
 4017TIP3    H233611   3.582   0.498   7.668  0.0495  0.5618 -1.1031
 4018TIP3   OH233612   3.497   0.011   1.563 -0.9674 -0.6744  0.2039
 4018TIP3    H133613   3.449  -0.072   1.563 -0.5746 -0.9027  0.4121
 4018TIP3    H233614   3.447   0.067   1.505 -1.7296 -0.7761  0.7412
 4019TIP3   OH233615   5.493   6.238   1.344  0.1883  0.4488 -0.1787
 4019TIP3    H133616   5.546   6.191   1.280  1.4776 -1.4363  2.1018
 4019TIP3    H233617   5.411   6.188   1.349  0.0988  0.5801 -0.3134
 4020TIP3   OH233618   3.558   0.027   2.013 -0.1354  0.2522  0.7514
 4020TIP3    H133619   3.556  -0.061   2.051 -0.1953 -1.1832 -2.2650
 4020TIP3    H233620   3.584   0.014   1.922 -1.2431  3.2411 -0.1427
 4021TIP3   OH233621   2.571   1.867   7.817 -0.5500 -0.1366 -0.1044
 4021TIP3    H133622   2.588   1.951   7.775 -1.0355 -0.7492 -1.5554
 4021TIP3    H233623   2.562   1.804   7.746  2.1148 -1.9275  0.9655
 4022TIP3   OH233624   4.965   0.116   6.369 -0.1443  0.1418 -0.3745
 4022TIP3    H133625   4.914   0.107   6.450 -0.2774  2.4217 -0.1584
 4022TIP3    H233626   4.936   0.199   6.331  0.6979 -0.3590 -2.2298
 4023TIP3   OH233627   3.022   1.117   2.454  0.0562 -0.5508 -0.0768
 4023TIP3    H133628   2.978   1.041   2.493  1.6550 -1.1807  0.6083
 4023TIP3    H233629   3.062   1.161   2.529 -0.1367  0.4888 -0.5772
 4024TIP3   OH233630   6.572   3.920   8.237 -0.1064 -0.0497 -0.0291
 4024TIP3    H133631   6.543   3.976   8.165  0.7620 -0.6210 -0.8468
 4024TIP3    H233632   6.656   3.884   8.208  1.7750  1.9508  2.4301
 4025TIP3   OH233633   1.485   0.417   8.514  0.2410 -0.4568 -0.2529
 4025TIP3    H133634   1.416   0.451   8.457  0.6330 -0.0198 -0.4799
 4025TIP3    H233635   1.439   0.375   8.586 -0.2814  0.9720  0.2817
 4026TIP3   OH233636   5.757   0.734   1.639  0.1642 -0.5226 -0.4296
 4026TIP3    H133637   5.675   0.757   1.684 -0.8127 -0.8767 -1.9586
 4026TIP3    H233638   5.782   0.814   1.593  0.2074 -0.6696 -0.6619
 4027TIP3   OH233639   5.833   0.226   0.531  0.2896 -0.0450  0.2853
 4027TIP3    H133640   5.865   0.148   0.575  0.7710 -0.4601 -0.7714
 4027TIP3    H233641   5.815   0.198   0.441 -1.5034  0.5673  0.4173
 4028TIP3   OH233642   4.652   2.143   7.619  0.1867 -0.4507  0.1214
 4028TIP3    H133643   4.641   2.059   7.664  2.2382  0.1299  1.8370
 4028TIP3    H233644   4.575   2.193   7.644 -0.1182 -1.1517  0.6247
 4029TIP3   OH233645   0.323   4.233   0.423  0.0629  0.4182  0.2107
 4029TIP3    H133646   0.237   4.213   0.461 -0.1627 -1.8996 -1.2952
 4029TIP3    H233647   0.362   4.295   0.484 -2.2094  0.6716  1.5466
 4030TIP3   OH233648   5.267   5.454   7.530  0.5640  0.6363  0.0113
 4030TIP3    H133649   5.281   5.370   7.486 -1.7129 -0.1034  0.5225
 4030TIP3    H233650   5.239   5.513   7.460 -1.5620 -0.1284  0.1318
 4031TIP3   OH233651   0.961   1.753   2.316 -0.4499  0.6461 -0.0241
 4031TIP3    H133652   1.034   1.725   2.372 -1.6403 -0.2081  1.1543
 4031TIP3    H233653   0.937   1.839   2.349 -0.0658  0.8776 -0.3374
 4032TIP3   OH233654   5.474   1.912   8.555 -0.8949 -0.0045  0.3951
 4032TIP3    H133655   5.537   1.852   8.595 -1.4654 -0.1866  1.0428
 4032TIP3    H233656   5.526   1.964   8.494 -0.6301 -2.1724 -1.3614
 4033TIP3   OH233657   5.524   4.049   1.445  0.2233 -0.0052 -0.1912
 4033TIP3    H133658   5.444   4.041   1.496  0.7986 -3.2133  0.4112
 4033TIP3    H233659   5.593   4.019   1.503  1.4836  0.1044 -1.5708
 4034TIP3   OH233660   1.120   2.271   1.046  0.1183  0.4356 -0.3794
 4034TIP3    H133661   1.102   2.365   1.049  0.9948  0.6499 -1.1039
 4034TIP3    H233662   1.205   2.265   1.001  0.9094 -0.5912  1.1515
 4035TIP3   OH233663   3.386   5.150   0.032 -0.0072 -0.0540 -0.4784
 4035TIP3    H133664   3.365   5.120  -0.056  1.2479  0.7385 -1.0619
 4035TIP3    H233665   3.462   5.206   0.022 -0.6577  1.1670  0.9359
 4036TIP3   OH233666   2.302   1.501   0.354  0.0094 -0.2219 -0.1669
 4036TIP3    H133667   2.398   1.504   0.349  0.0536  0.3002  0.7327
 4036TIP3    H233668   2.281   1.407   0.350  0.5499 -0.3331 -0.5018
 4037TIP3   OH233669   0.985   4.684   0.131 -0.4345 -0.1647  0.2484
 4037TIP3    H133670   1.002   4.673   0.038  0.5064 -0.2315  0.4118
 4037TIP3    H233671   0.902   4.639   0.146 -0.0435 -1.1297 -0.3589
 4038TIP3   OH233672   1.295   5.976   8.787 -0.4660 -0.2845 -0.1819
 4038TIP3    H133673   1.333   5.897   8.824  0.9731 -0.0239 -1.0426
 4038TIP3    H233674   1.203   5.973   8.813 -0.0240 -1.2788  1.3908
 4039TIP3   OH233675   5.022   5.398   2.809 -0.4281 -0.2486 -0.2062
 4039TIP3    H133676   5.045   5.319   2.858 -0.9851  0.4067  1.1737
 4039TIP3    H233677   5.031   5.469   2.873 -0.1306  0.7909 -1.3631
 4040TIP3   OH233678   2.932   4.936   7.587 -0.3307 -0.2275 -0.8070
 4040TIP3    H133679   3.019   4.947   7.626  0.5690 -1.4798 -2.3122
 4040TIP3    H233680   2.948   4.941   7.492 -2.0941  0.6461 -1.0963
 4041TIP3   OH233681   6.711   2.852   8.326  0.2694  0.2428  0.0361
 4041TIP3    H133682   6.646   2.835   8.258 -1.3573 -0.5659  1.7245
 4041TIP3    H233683   6.695   2.943   8.352  1.2498  0.7306 -0.9790
 4042TIP3   OH233684   2.790   0.243   1.276  0.2290 -0.2692  0.4652
 4042TIP3    H133685   2.792   0.157   1.319 -1.3780 -1.9808 -2.6287
 4042TIP3    H233686   2.702   0.276   1.291  0.7571  0.8315  1.4136
 4043TIP3   OH233687   5.531   6.689   0.025 -0.2648  0.3434  0.6633
 4043TIP3    H133688   5.441   6.656   0.025 -1.1661  2.5294  1.8367
 4043TIP3    H233689   5.570   6.653   0.105  1.1954 -3.4209 -1.4894
 4044TIP3   OH233690   5.583   6.648   1.353  0.1138  0.4030 -0.5517
 4044TIP3    H133691   5.528   6.651   1.432  1.7841 -0.5623  0.7121
 4044TIP3    H233692   5.522   6.664   1.281 -1.3454  2.1677  0.9533
 4045TIP3   OH233693   5.927   2.536   0.591 -0.2833  0.1312 -0.1833
 4045TIP3    H133694   5.850   2.480   0.587 -1.1835  1.3638 -1.0346
 4045TIP3    H233695   5.916   2.597   0.518 -0.7789  3.1968  2.2284
 4046TIP3   OH233696   2.343   6.547   0.916  0.5509 -0.0414 -0.3710
 4046TIP3    H133697   2.317   6.636   0.894  0.2967  0.5969  2.1411
 4046TIP3    H233698   2.360   6.550   1.010  1.8187 -2.3589 -0.4530
 4047TIP3   OH233699   6.304   6.750   2.540  0.3986  0.1661  0.6469
 4047TIP3    H133700   6.211   6.754   2.565 -0.3210  2.4403 -1.9741
 4047TIP3    H233701   6.329   6.841   2.526  1.9108 -0.5886 -2.3386
 4048TIP3   OH233702   4.551   4.139   7.899  0.5956 -0.1494 -0.2198
 4048TIP3    H133703   4.606   4.205   7.859 -1.1946  1.3797 -0.2880
 4048TIP3    H233704   4.486   4.117   7.832 -1.0816  0.8058  0.9987
 4049TIP3   OH233705   4.913   1.672   2.081 -0.0582  0.1707 -0.5802
 4049TIP3    H133706   4.844   1.665   2.015  0.0251 -1.9239 -0.5391
 4049TIP3    H233707   4.867   1.691   2.163 -0.6902 -1.5841 -0.4850
 4050TIP3   OH233708   1.763   0.948   8.762  0.0043 -0.6527  0.0334
 4050TIP3    H133709   1.689   0.921   8.816  0.2338 -1.4298 -0.0225
 4050TIP3    H233710   1.826   0.985   8.824 -0.6118  0.4562  0.0253
 4051TIP3   OH233711   5.130   2.861   0.141 -0.2473 -0.7043 -0.6463
 4051TIP3    H133712   5.169   2.933   0.091 -0.9348 -0.0650 -0.2979
 4051TIP3    H233713   5.047   2.897   0.173 -0.0630 -1.2653  0.5245
 4052TIP3   OH233714   4.744   0.668   1.543 -0.3426  0.3840  0.7452
 4052TIP3    H133715   4.658   0.706   1.560 -0.3704  1.9277 -2.1562
 4052TIP3    H233716   4.805   0.721   1.595 -0.8619  1.4799  0.2696
 4053TIP3   OH233717   0.684   2.025   2.546  0.0989  0.4615  0.5816
 4053TIP3    H133718   0.658   2.092   2.608  0.4745 -0.6365  1.9685
 4053TIP3    H233719   0.644   1.944   2.578  1.6112 -0.4375  0.3395
 4054TIP3   OH233720   3.826   2.083   6.875 -0.6455  0.1019  0.2113
 4054TIP3    H133721   3.757   2.148   6.886  0.5757  1.4631  0.1936
 4054TIP3    H233722   3.780   2.003   6.850 -2.1170  1.2971 -1.1637
 4055TIP3   OH233723   0.640   3.336   7.381 -0.2581 -0.2061 -0.2780
 4055TIP3    H133724   0.601   3.423   7.376  0.4638  0.0568 -1.8366
 4055TIP3    H233725   0.600   3.287   7.310 -0.0258 -0.8931  0.0522
 4056TIP3   OH233726   1.991   0.351   0.991 -0.4198 -0.5477  0.2230
 4056TIP3    H133727   1.915   0.385   0.944  0.3447 -2.3201 -2.5374
 4056TIP3    H233728   1.981   0.256   0.989  2.1143 -0.8724 -0.8388
 4057TIP3   OH233729   5.647   5.999   1.641 -0.1893 -0.2038 -0.5567
 4057TIP3    H133730   5.679   5.947   1.715  0.2100 -0.6094 -1.0057
 4057TIP3    H233731   5.632   5.935   1.571  0.5200  0.2908 -1.1935
 4058TIP3   OH233732   2.069   6.291   0.666 -0.3410 -0.0620 -0.1878
 4058TIP3    H133733   2.120   6.338   0.600 -0.5949  2.1732  1.1007
 4058TIP3    H233734   2.120   6.299   0.746 -0.3035 -2.2532  0.0756
 4059TIP3   OH233735   6.443   1.296   0.986 -1.0641  0.5599 -0.2470
 4059TIP3    H133736   6.467   1.388   0.989 -1.8096  0.7748 -0.7446
 4059TIP3    H233737   6.354   1.293   1.019 -0.2793 -0.2919  2.0243
 4060TIP3   OH233738   1.428   5.445   1.658  0.3050  0.1710 -0.0277
 4060TIP3    H133739   1.458   5.490   1.737 -0.1249  0.7572 -0.1964
 4060TIP3    H233740   1.415   5.514   1.594 -1.0755 -0.0997 -0.0749
 4061TIP3   OH233741   1.166   1.464   8.520 -0.1953  0.2741  0.2426
 4061TIP3    H133742   1.196   1.398   8.582  0.3803 -0.1515 -0.4683
 4061TIP3    H233743   1.157   1.544   8.572  2.4925  0.5313  0.4946
 4062TIP3   OH233744   5.275   1.478   8.791 -0.0191 -0.1267 -0.1338
 4062TIP3    H133745   5.193   1.512   8.756 -0.5817 -2.4080 -1.2461
 4062TIP3    H233746   5.251   1.442   8.877 -0.0783 -0.2900 -0.2173
 4063TIP3   OH233747   4.053   0.611   7.839 -0.4936 -0.0745 -0.0224
 4063TIP3    H133748   3.993   0.677   7.873  0.8028  1.1111  0.0421
 4063TIP3    H233749   4.127   0.613   7.900  0.1490 -0.6521 -0.7752
 4064TIP3   OH233750   6.158   6.624   1.922  0.0191 -0.1013 -0.3556
 4064TIP3    H133751   6.212   6.611   1.844 -0.4968  0.5874 -0.8490
 4064TIP3    H233752   6.211   6.591   1.994  2.1107  2.5458 -0.4907
 4065TIP3   OH233753   2.395   1.331   1.502  0.2161 -0.1983 -0.0830
 4065TIP3    H133754   2.361   1.335   1.413  0.9133  3.8188 -0.3436
 4065TIP3    H233755   2.451   1.254   1.503 -0.1484 -0.5944 -2.9932
 4066TIP3   OH233756   2.103   0.153   6.451 -0.1973 -0.5677  0.3210
 4066TIP3    H133757   2.070   0.105   6.526 -1.5692 -1.0942 -0.5784
 4066TIP3    H233758   2.142   0.087   6.394  0.3815 -0.2408  0.3234
 4067TIP3   OH233759   0.657   1.763   0.580  0.0717 -0.2977  0.6130
 4067TIP3    H133760   0.568   1.729   0.591 -0.7007  0.8470 -1.5189
 4067TIP3    H233761   0.679   1.744   0.488  1.0188  1.6080  0.3878
 4068TIP3   OH233762   2.632   2.119   0.602  0.1302  0.0855 -0.0073
 4068TIP3    H133763   2.708   2.082   0.557  2.4345  0.1960  3.3660
 4068TIP3    H233764   2.657   2.209   0.620 -0.4363 -0.0730  1.7736
 4069TIP3   OH233765   0.543   3.125   2.419 -0.0663  0.2149 -0.0409
 4069TIP3    H133766   0.484   3.198   2.403  0.5302  0.4447 -1.3714
 4069TIP3    H233767   0.630   3.165   2.427 -0.1148 -0.0581  2.4949
 4070TIP3   OH233768   2.032   6.401   2.385 -0.1058 -0.2141  0.4813
 4070TIP3    H133769   2.074   6.379   2.468  1.2933  1.7123  0.3412
 4070TIP3    H233770   2.061   6.490   2.366 -0.0908 -0.7139 -2.2480
 4071TIP3   OH233771   4.558   1.977   0.216 -0.3250 -0.3858  0.3154
 4071TIP3    H133772   4.546   1.889   0.253  0.4073 -0.6171  0.0254
 4071TIP3    H233773   4.495   2.032   0.262 -0.1262 -0.8754  1.1781
 4072TIP3   OH233774   1.021   3.450   2.201 -0.4721  0.2911  0.1470
 4072TIP3    H133775   1.113   3.471   2.183 -0.9247  1.2980 -1.1506
 4072TIP3    H233776   1.023   3.404   2.285  1.3987 -1.4001 -0.7432
 4073TIP3   OH233777   6.621   3.877   1.074  0.0513  0.4144 -0.0955
 4073TIP3    H133778   6.607   3.814   1.003  1.3774 -0.1926  0.1468
 4073TIP3    H233779   6.624   3.823   1.154 -2.8671  1.2138  0.6846
 4074TIP3   OH233780   0.376   6.745   2.169  0.6978 -0.3497 -0.0151
 4074TIP3    H133781   0.355   6.720   2.259  0.0056 -0.2206 -0.1391
 4074TIP3    H233782   0.471   6.759   2.170  0.5807  0.4748  0.8875
 4075TIP3   OH233783   1.980   5.428   1.317 -0.4268  0.2670  0.0554
 4075TIP3    H133784   2.018   5.381   1.243 -2.0761 -1.3317  0.1511
 4075TIP3    H233785   2.050   5.486   1.347  1.1583 -0.9435 -1.1105
 4076TIP3   OH233786   0.545   3.275   0.046  0.1260  0.3038  0.0061
 4076TIP3    H133787   0.543   3.246   0.138  0.9047 -0.4306 -0.1985
 4076TIP3    H233788   0.638   3.286   0.027 -0.0627  0.9854 -0.5409
 4077TIP3   OH233789   1.087   5.667   7.577  0.1713  0.0113 -0.0727
 4077TIP3    H133790   1.029   5.712   7.637 -0.2463  0.5317 -0.8539
 4077TIP3    H233791   1.153   5.625   7.633  0.1705  1.0266  0.6996
 4078TIP3   OH233792   2.210   3.297   7.735  0.0270  0.3244 -0.1579
 4078TIP3    H133793   2.281   3.269   7.677  1.7555  0.6806  1.6560
 4078TIP3    H233794   2.253   3.314   7.819 -2.0419  1.7621  0.7008
 4079TIP3   OH233795   2.580   1.781   0.359  1.1709  0.0357  0.2411
 4079TIP3    H133796   2.645   1.716   0.385 -0.1223 -1.5632 -0.3945
 4079TIP3    H233797   2.513   1.778   0.427  2.9313  3.6585  2.4185
 4080TIP3   OH233798   5.875   0.835   1.076  0.6273 -0.1711  0.2713
 4080TIP3    H133799   5.929   0.914   1.083 -0.4022  0.5742  0.1328
 4080TIP3    H233800   5.785   0.868   1.072  0.2230 -1.3146 -0.7033
 4081TIP3   OH233801   5.303   0.714   8.148  0.5664 -0.6239 -0.2433
 4081TIP3    H133802   5.252   0.757   8.217  0.0384  1.5559 -1.8814
 4081TIP3    H233803   5.337   0.635   8.189 -2.3332 -1.0691  1.5540
 4082TIP3   OH233804   0.140   4.750   6.829 -0.0773  0.3538 -0.1823
 4082TIP3    H133805   0.229   4.754   6.862  0.6400  0.9775 -2.0599
 4082TIP3    H233806   0.095   4.689   6.887  1.4328  0.3750  1.0688
 4083TIP3   OH233807   1.756   0.539   1.144 -0.4237  0.0679 -0.2624
 4083TIP3    H133808   1.701   0.590   1.204  0.4983  0.7999 -0.0182
 4083TIP3    H233809   1.839   0.527   1.191  0.5953  1.3034 -1.6389
 4084TIP3   OH233810   5.796   5.174   8.383  0.3571 -0.8538 -0.7976
 4084TIP3    H133811   5.720   5.224   8.353 -0.3428 -3.2850 -3.4569
 4084TIP3    H233812   5.851   5.165   8.306  1.6519 -2.0878  0.2192
 4085TIP3   OH233813   4.500   3.041   2.655 -0.4581 -0.0070  0.0599
 4085TIP3    H133814   4.422   3.069   2.703 -0.4906  0.3009 -0.1701
 4085TIP3    H233815   4.489   2.947   2.644 -0.4228 -0.0913  0.7027
 4086TIP3   OH233816   3.299   0.771   0.302 -0.7344  0.1591  0.6963
 4086TIP3    H133817   3.307   0.822   0.222  2.6602 -0.1366  0.6855
 4086TIP3    H233818   3.304   0.680   0.273 -1.0151  0.0023  1.1312
 4087TIP3   OH233819   3.856   2.217   6.363  0.1122  0.2388  0.5490
 4087TIP3    H133820   3.809   2.147   6.407  0.1926 -0.1131  0.0744
 4087TIP3    H233821   3.922   2.173   6.310 -0.1924  0.6439 -0.1773
 4088TIP3   OH233822   1.020   3.719   8.865  0.2162  0.3044  0.1895
 4088TIP3    H133823   0.959   3.745   8.934  0.4108 -0.1092  0.5236
 4088TIP3    H233824   0.975   3.647   8.820  1.1961 -1.2541  1.5958
 4089TIP3   OH233825   0.106   3.682   7.069  0.2083 -0.5240 -0.0552
 4089TIP3    H133826   0.052   3.695   6.991  0.2639 -1.2130 -0.2170
 4089TIP3    H233827   0.153   3.600   7.051 -0.3452 -1.0952  1.0298
 4090TIP3   OH233828   6.622   1.051   1.068 -0.2612  0.4850  0.0913
 4090TIP3    H133829   6.624   1.078   1.160  0.1296 -0.2201  0.2948
 4090TIP3    H233830   6.555   1.107   1.028  0.5212  1.7524  0.4961
 4091TIP3   OH233831   6.306   6.258   0.407 -0.2760  0.5969  0.1593
 4091TIP3    H133832   6.312   6.184   0.346  0.5614 -0.2083  1.1884
 4091TIP3    H233833   6.238   6.315   0.369 -1.1662 -0.8441 -0.4884
 4092TIP3   OH233834   4.610   2.573   0.451 -0.6998 -0.6043  0.5203
 4092TIP3    H133835   4.660   2.508   0.400 -0.4627 -0.4382  0.5393
 4092TIP3    H233836   4.677   2.625   0.495 -0.9003 -0.5742  0.7896
 4093TIP3   OH233837   2.661   5.118   1.580  0.4961  0.3315 -0.1574
 4093TIP3    H133838   2.654   5.034   1.626 -1.7357  0.9633  0.7984
 4093TIP3    H233839   2.715   5.173   1.638 -0.7331  0.5324  0.8326
 4094TIP3   OH233840   2.922   0.672   2.417  0.2952  0.5816  0.4117
 4094TIP3    H133841   2.987   0.629   2.473  0.9509 -1.1046 -1.5128
 4094TIP3    H233842   2.840   0.663   2.466  1.2802  1.8393  2.4217
 4095TIP3   OH233843   1.975   3.118   7.292 -0.3114  0.2109  0.1527
 4095TIP3    H133844   2.061   3.107   7.331  0.0731  0.6275 -0.5400
 4095TIP3    H233845   1.946   3.204   7.321 -1.0953 -0.4819  1.4765
 4096TIP3   OH233846   6.470   0.614   7.868  0.4790  0.4234  0.5451
 4096TIP3    H133847   6.504   0.695   7.906 -0.6697  0.9044  0.5813
 4096TIP3    H233848   6.476   0.627   7.773 -0.5893  0.9540  0.5386
 4097TIP3   OH233849   0.480   2.384   1.237 -0.4695  0.8832 -0.2506
 4097TIP3    H133850   0.442   2.371   1.324 -1.4088  0.7767 -0.6632
 4097TIP3    H233851   0.540   2.457   1.248 -1.4119  1.6151  0.2603
 4098TIP3   OH233852   2.091   5.837   0.746 -0.3333  0.4500  0.9815
 4098TIP3    H133853   2.107   5.894   0.671  1.9951 -0.8923  0.3589
 4098TIP3    H233854   2.106   5.748   0.713 -0.8039 -0.3077  2.6688
 4099TIP3   OH233855   2.327   4.071   0.983 -0.4607 -0.2715  0.1119
 4099TIP3    H133856   2.419   4.047   0.969 -0.3326  0.2287  0.0880
 4099TIP3    H233857   2.289   3.993   1.024 -0.4775 -1.1889 -1.5374
 4100TIP3   OH233858   4.205   5.177   7.039  0.8882  0.6534 -0.1600
 4100TIP3    H133859   4.260   5.114   7.084 -2.7395 -2.7910  0.0401
 4100TIP3    H233860   4.183   5.242   7.105  2.1530  0.3332  0.6052
 4101TIP3   OH233861   4.921   4.382   8.189  0.1625 -0.2884 -0.3326
 4101TIP3    H133862   4.830   4.388   8.159  0.3890 -0.3569 -1.0356
 4101TIP3    H233863   4.948   4.293   8.166  0.4050 -0.2792 -0.0945
 4102TIP3   OH233864   4.214   2.311   0.840  0.3748  0.0856  0.0329
 4102TIP3    H133865   4.169   2.273   0.915  0.0935  1.2233  0.4726
 4102TIP3    H233866   4.296   2.264   0.834  0.4385  0.0364  1.1243
 4103TIP3   OH233867   2.101   4.390   8.640 -0.1691  0.1254  0.3388
 4103TIP3    H133868   2.165   4.441   8.688 -2.0482  1.2280  1.8328
 4103TIP3    H233869   2.045   4.456   8.598 -1.4224 -0.7186  0.6219
 4104TIP3   OH233870   1.995   1.151   2.515  0.0112  0.0388 -0.6872
 4104TIP3    H133871   2.018   1.124   2.604 -0.1919  2.0080 -0.0019
 4104TIP3    H233872   1.907   1.187   2.523  0.8283  2.3178 -1.2049
 4105TIP3   OH233873   4.693   1.683   1.106 -0.1351 -0.3761  0.1316
 4105TIP3    H133874   4.635   1.656   1.035  0.9976  1.6277 -1.6564
 4105TIP3    H233875   4.639   1.676   1.185 -1.1810 -3.4611 -0.7295
 4106TIP3   OH233876   6.700   2.604   1.799 -0.2233  0.0109 -0.0542
 4106TIP3    H133877   6.709   2.652   1.717  0.2770 -1.6232 -1.0091
 4106TIP3    H233878   6.717   2.669   1.867 -1.4330  1.6007 -1.1872
 4107TIP3   OH233879   1.820   0.944   8.089  0.1858  0.4742 -0.3617
 4107TIP3    H133880   1.769   0.921   8.012  0.1414  0.3987 -0.3106
 4107TIP3    H233881   1.779   1.024   8.122  2.1032  2.3022 -2.1743
 4108TIP3   OH233882   5.164   0.590   8.588 -0.7604  0.4302 -0.2089
 4108TIP3    H133883   5.167   0.559   8.498 -0.3892  0.2890 -0.1495
 4108TIP3    H233884   5.244   0.641   8.599 -0.7915  0.4255  0.0461
 4109TIP3   OH233885   5.368   3.770   1.567 -0.0525 -0.1876  0.6531
 4109TIP3    H133886   5.308   3.703   1.534 -0.3648 -0.4685  1.7322
 4109TIP3    H233887   5.448   3.758   1.517 -0.0433 -1.5038  0.9564
 4110TIP3   OH233888   4.659   3.585   7.310  0.2077 -0.1191  0.2720
 4110TIP3    H133889   4.586   3.646   7.314 -1.0063 -1.5839  1.6134
 4110TIP3    H233890   4.632   3.518   7.247  0.7534 -0.2311  0.1472
 4111TIP3   OH233891   1.744   3.976   2.542  0.0235  0.1624  0.2820
 4111TIP3    H133892   1.833   3.950   2.566  0.6912  1.8877 -0.1542
 4111TIP3    H233893   1.707   3.898   2.502  1.7062 -0.3366 -0.4272
 4112TIP3   OH233894   3.267   2.900   0.021  0.5857  0.1453 -0.5300
 4112TIP3    H133895   3.194   2.931  -0.032  0.1674 -0.8575 -0.5677
 4112TIP3    H233896   3.328   2.862  -0.041 -0.2748 -1.7642 -0.2709
 4113TIP3   OH233897   1.590   5.574   0.372  0.9072  0.0949 -0.1962
 4113TIP3    H133898   1.548   5.660   0.370  2.3716  0.8381 -0.4462
 4113TIP3    H233899   1.637   5.572   0.456  0.7412 -0.5385 -0.1118
 4114TIP3   OH233900   4.705   0.644   0.054 -0.2757  0.7685  0.3871
 4114TIP3    H133901   4.690   0.600  -0.030 -0.3717 -0.2025  0.8978
 4114TIP3    H233902   4.793   0.682   0.046 -0.2826  0.6825 -0.1500
 4115TIP3   OH233903   3.430   5.839   0.636 -0.3621  0.5639 -0.5338
 4115TIP3    H133904   3.373   5.915   0.629 -0.1585  0.7372 -0.2932
 4115TIP3    H233905   3.476   5.836   0.552 -0.1920  0.8481 -0.4523
 4116TIP3   OH233906   6.647   2.652   0.354  0.1616 -0.2718  0.6284
 4116TIP3    H133907   6.662   2.740   0.319 -0.9701  0.6755  2.3914
 4116TIP3    H233908   6.607   2.605   0.281  0.1372  0.8839 -0.1433
 4117TIP3   OH233909   4.048   4.311   7.180 -0.1295  0.0981 -0.2104
 4117TIP3    H133910   4.081   4.307   7.091  1.0037 -0.2690  0.2108
 4117TIP3    H233911   4.113   4.361   7.228 -0.9358  0.6575  0.3318
 4118TIP3   OH233912   5.512   0.715   1.381  0.2274 -0.6184  0.2642
 4118TIP3    H133913   5.488   0.628   1.350  1.7289 -1.4303  1.2391
 4118TIP3    H233914   5.607   0.719   1.371 -0.0352  2.1865 -2.7951
 4119TIP3   OH233915   2.197   2.086   8.574 -0.0165  0.2535  0.4544
 4119TIP3    H133916   2.225   2.174   8.548 -1.9747  0.7047 -0.3223
 4119TIP3    H233917   2.158   2.048   8.495 -0.3728 -0.8115  1.1121
 4120TIP3   OH233918   0.742   2.669   6.882  0.3476  0.8037  0.3176
 4120TIP3    H133919   0.679   2.741   6.870  0.1012  0.3218 -1.6114
 4120TIP3    H233920   0.827   2.708   6.864  0.3658  0.9253  0.6588
 4121TIP3   OH233921   0.061   6.424   0.528  0.8315  0.8667  0.4091
 4121TIP3    H133922   0.044   6.388   0.441  0.9864  0.5092  0.5236
 4121TIP3    H233923  -0.004   6.383   0.585 -0.7323  2.7447  0.1000
 4122TIP3   OH233924   2.197   3.820   0.118  0.1135  0.4915 -0.0916
 4122TIP3    H133925   2.269   3.865   0.073 -0.0656 -0.5174 -1.4276
 4122TIP3    H233926   2.127   3.816   0.053 -0.9206  0.8190  0.9636
 4123TIP3   OH233927   2.376   6.088   1.391 -0.6154  0.1161 -0.0707
 4123TIP3    H133928   2.373   6.108   1.297 -0.4406  0.6937  0.0408
 4123TIP3    H233929   2.424   6.006   1.396 -0.9046 -0.0848 -0.5128
 4124TIP3   OH233930   3.191   5.291   2.155 -0.1677 -0.9409  0.6656
 4124TIP3    H133931   3.216   5.383   2.165  0.2412 -0.9810  0.0712
 4124TIP3    H233932   3.266   5.250   2.111 -0.0789 -1.7058  1.5085
 4125TIP3   OH233933   5.511   2.041   6.536  0.8054  0.3390 -1.0223
 4125TIP3    H133934   5.521   1.950   6.508  1.2676  0.4836 -1.3367
 4125TIP3    H233935   5.462   2.083   6.466  0.1789  0.2260 -0.6575
 4126TIP3   OH233936   5.223   2.123   1.210  0.3311 -0.1848 -0.3531
 4126TIP3    H133937   5.281   2.047   1.220  1.6271  0.8849  0.5857
 4126TIP3    H233938   5.243   2.156   1.122 -0.7049 -1.2617 -1.0276
 4127TIP3   OH233939   5.493   0.269   8.023  0.3563  0.2301  0.1884
 4127TIP3    H133940   5.541   0.192   8.053  3.3735  1.3555 -1.3728
 4127TIP3    H233941   5.506   0.334   8.092  1.3927  0.6264 -0.3631
 4128TIP3   OH233942   2.948   2.344   1.469  0.0289 -0.1897  0.4483
 4128TIP3    H133943   2.866   2.298   1.487  0.2289 -1.4756 -1.6636
 4128TIP3    H233944   3.016   2.292   1.512  0.4164 -2.8259 -2.9601
 4129TIP3   OH233945   2.421   6.725   7.849  0.4310  0.3769  0.0160
 4129TIP3    H133946   2.490   6.663   7.872  0.3222  0.1544 -0.2567
 4129TIP3    H233947   2.382   6.690   7.769 -0.8554 -0.2153  0.8555
 4130TIP3   OH233948   6.274   6.218   7.476  0.4898 -0.5369  0.3587
 4130TIP3    H133949   6.267   6.182   7.387  0.3488  0.1211  0.1040
 4130TIP3    H233950   6.252   6.310   7.467 -0.6290 -0.7040  1.2697
 4131TIP3   OH233951   5.291   5.192   7.727  0.3298  0.1882  0.3592
 4131TIP3    H133952   5.206   5.213   7.688  0.5854  1.3795  0.4229
 4131TIP3    H233953   5.274   5.189   7.821  0.5644  1.5700  0.4691
 4132TIP3   OH233954   2.789   1.660   8.470  0.0004  0.0129 -0.1346
 4132TIP3    H133955   2.797   1.724   8.541  0.3700 -0.8154  0.5921
 4132TIP3    H233956   2.723   1.697   8.411 -0.1512  0.8188  0.5275
 4133TIP3   OH233957   3.340   0.001   8.396  0.0551 -0.0125 -0.3181
 4133TIP3    H133958   3.250  -0.033   8.394 -0.1267  0.4843 -0.7400
 4133TIP3    H233959   3.348   0.043   8.481  0.1000 -0.6201 -0.0154
 4134TIP3   OH233960   5.679   5.498   2.336 -0.7579  0.4624  0.0681
 4134TIP3    H133961   5.654   5.406   2.325  0.8081 -0.2834  2.0220
 4134TIP3    H233962   5.638   5.524   2.419  0.5292  0.8255  0.6208
 4135TIP3   OH233963   1.446   4.312   0.793 -0.0267  0.6305 -0.3875
 4135TIP3    H133964   1.414   4.282   0.879  2.9213 -0.3273  0.4847
 4135TIP3    H233965   1.458   4.232   0.743 -0.8221  1.1230 -1.3974
 4136TIP3   OH233966   3.557   3.627   7.414 -0.0514  0.1975  0.2383
 4136TIP3    H133967   3.531   3.719   7.405 -3.4704 -0.4988  1.7363
 4136TIP3    H233968   3.495   3.579   7.359 -0.2841 -1.4237  1.8340
 4137TIP3   OH233969   2.037   5.807   1.266 -0.3286 -0.0037 -0.0220
 4137TIP3    H133970   1.957   5.798   1.213 -1.0171 -0.2086  1.0216
 4137TIP3    H233971   2.009   5.856   1.343 -0.5319 -3.6202  2.4511
 4138TIP3   OH233972   2.252   6.485   1.749  0.4651  0.2045  0.1780
 4138TIP3    H133973   2.263   6.537   1.829  1.8115 -0.0339  0.1626
 4138TIP3    H233974   2.302   6.406   1.764  1.5998  0.5920 -1.2834
 4139TIP3   OH233975   5.401   5.923   7.953 -0.0633 -0.2032  0.3263
 4139TIP3    H133976   5.317   5.921   7.999  0.1388 -0.7458  0.6782
 4139TIP3    H233977   5.423   6.016   7.946 -2.5091  0.3026 -3.1177
 4140TIP3   OH233978   0.232   0.048   0.264 -0.3284  0.1564  0.7524
 4140TIP3    H133979   0.262  -0.029   0.217  0.1063  0.3535  0.7048
 4140TIP3    H233980   0.301   0.113   0.250 -0.4733  0.4022  1.1777
 4141TIP3   OH233981   5.397   1.361   7.002  0.0678 -0.6679 -0.2570
 4141TIP3    H133982   5.382   1.294   6.935 -2.4154  0.3043 -0.7622
 4141TIP3    H233983   5.434   1.313   7.076 -1.9047 -2.6738 -0.4941
 4142TIP3   OH233984   0.051   5.946   1.602 -0.4324 -0.0901  0.7373
 4142TIP3    H133985  -0.013   5.896   1.654  1.1228  0.3831  3.2588
 4142TIP3    H233986   0.122   5.965   1.663  0.8533  1.8300 -1.2229
 4143TIP3   OH233987   3.373   5.482   7.955 -0.6825 -0.3200 -0.7425
 4143TIP3    H133988   3.342   5.571   7.939 -0.6969 -0.3288 -0.7641
 4143TIP3    H233989   3.400   5.483   8.047  0.1280 -0.0601 -0.9783
 4144TIP3   OH233990   0.981   6.079   7.806 -0.9065  0.8439 -0.3558
 4144TIP3    H133991   1.056   6.119   7.762  1.3665 -0.5424  1.9414
 4144TIP3    H233992   0.933   6.153   7.843 -0.7016  1.7635 -1.8414
 4145TIP3   OH233993   4.317   4.507   2.767 -0.2452 -0.5351 -0.3758
 4145TIP3    H133994   4.373   4.489   2.842 -0.7452  0.5835  0.2962
 4145TIP3    H233995   4.365   4.574   2.717  0.0204 -1.1720 -0.9896
 4146TIP3   OH233996   6.499   5.058   0.475 -0.0374  0.1247 -0.3237
 4146TIP3    H133997   6.516   5.005   0.397  1.5882 -1.0303  0.7313
 4146TIP3    H233998   6.422   5.110   0.454 -0.1958 -0.8620 -2.3313
 4147TIP3   OH233999   4.801   6.359   6.291  0.0141  0.0922 -0.6729
 4147TIP3    H134000   4.720   6.408   6.300 -0.4363 -0.4060 -1.8572
 4147TIP3    H234001   4.801   6.298   6.365 -0.2316  0.7119 -0.1551
 4148TIP3   OH234002   1.067   4.338   7.067 -0.3549  0.9802  0.0195
 4148TIP3    H134003   0.975   4.312   7.068 -0.1497  0.2267  0.4310
 4148TIP3    H234004   1.087   4.353   6.975 -0.7669  0.6674 -0.1262
 4149TIP3   OH234005   3.014   1.624   0.856 -0.3048 -0.6049 -0.2847
 4149TIP3    H134006   3.089   1.597   0.802  0.5480  0.9818  0.0481
 4149TIP3    H234007   3.051   1.645   0.941 -1.0485  0.5113 -0.2027
 4150TIP3   OH234008   5.200   4.608   0.937 -0.2393  0.3585  0.4566
 4150TIP3    H134009   5.244   4.688   0.966 -0.1754  0.7938 -0.7861
 4150TIP3    H234010   5.108   4.623   0.957 -0.2836  0.9242 -0.1533
 4151TIP3   OH234011   4.420   4.743   6.538 -0.2891  0.1737 -0.2556
 4151TIP3    H134012   4.371   4.663   6.519  1.8289 -0.6414 -2.8398
 4151TIP3    H234013   4.363   4.814   6.509 -1.3211 -0.5124  0.0540
 4152TIP3   OH234014   5.292   2.057   7.992 -0.1548 -0.2267 -0.5440
 4152TIP3    H134015   5.246   2.076   8.074 -1.6576  0.8933 -1.5787
 4152TIP3    H234016   5.343   2.136   7.974  0.1953 -0.4798 -0.6795
 4153TIP3   OH234017   6.408   0.110   1.102  0.2192  0.6941 -0.1091
 4153TIP3    H134018   6.433   0.191   1.058  0.8461 -0.0522 -1.1754
 4153TIP3    H234019   6.391   0.136   1.192 -3.1269  2.6925 -1.1118
 4154TIP3   OH234020   5.438   4.580   0.770 -0.6540  0.1989 -0.3276
 4154TIP3    H134021   5.465   4.667   0.741 -0.2668 -0.0784 -0.8237
 4154TIP3    H234022   5.358   4.594   0.820 -0.9627  0.7639 -0.9713
 4155TIP3   OH234023   4.562   0.730   0.271  0.1152 -0.3467  0.5322
 4155TIP3    H134024   4.470   0.724   0.247  0.4683  0.6678 -1.2953
 4155TIP3    H234025   4.607   0.681   0.203  1.1373  2.0200 -0.6006
 4156TIP3   OH234026   3.605   6.615   0.744  0.6122  0.1014 -0.1816
 4156TIP3    H134027   3.544   6.547   0.773  1.3575 -0.4678  0.0836
 4156TIP3    H234028   3.691   6.581   0.767  1.1884  0.0546 -2.2002
 4157TIP3   OH234029   2.208   4.496   1.221  0.4840 -0.1392  0.4680
 4157TIP3    H134030   2.161   4.448   1.289  0.3654 -0.8396 -0.0969
 4157TIP3    H234031   2.294   4.513   1.259  0.3127 -0.2428  0.9133
 4158TIP3   OH234032   3.895   6.244   0.673  0.2268  0.1380 -0.7505
 4158TIP3    H134033   3.811   6.220   0.712 -1.2205  1.0963 -3.0494
 4158TIP3    H234034   3.950   6.268   0.747 -1.5748 -0.3383  0.8272
 4159TIP3   OH234035   2.821   5.160   7.354  0.2020 -0.2479  0.0430
 4159TIP3    H134036   2.894   5.100   7.339 -0.1173 -0.7103  0.3345
 4159TIP3    H234037   2.787   5.179   7.266  0.9408  0.3202 -0.1371
 4160TIP3   OH234038   4.370   4.344   2.542 -0.3548  0.3893  0.6383
 4160TIP3    H134039   4.419   4.275   2.587 -1.0458 -0.8224 -0.4052
 4160TIP3    H234040   4.326   4.392   2.612  1.7717  1.1336  1.5663
 4161TIP3   OH234041   4.792   2.441   1.379  0.5619  0.0091  0.2294
 4161TIP3    H134042   4.759   2.506   1.440 -1.7521  0.5190 -1.4088
 4161TIP3    H234043   4.840   2.379   1.433 -0.5039  0.9775  2.3947
 4162TIP3   OH234044   4.727   5.616   0.901 -0.2725  0.2723  0.8684
 4162TIP3    H134045   4.669   5.547   0.870  1.2908  0.2380 -2.4680
 4162TIP3    H234046   4.675   5.696   0.894 -0.5304  0.0213 -0.3433
 4163TIP3   OH234047   6.306   5.928   8.550 -0.6208 -0.1861  0.6017
 4163TIP3    H134048   6.354   6.010   8.537 -0.7713 -0.0125  1.1125
 4163TIP3    H234049   6.374   5.861   8.553 -0.4735 -0.0436  0.5037
 4164TIP3   OH234050   0.483   5.410   7.621 -0.5224 -0.1296 -0.1424
 4164TIP3    H134051   0.417   5.478   7.636 -2.0553 -1.8233  1.4237
 4164TIP3    H234052   0.539   5.414   7.699 -0.1064 -0.1144 -0.4418
 4165TIP3   OH234053   0.522   3.699   1.346 -0.1939 -0.1931  0.0359
 4165TIP3    H134054   0.474   3.620   1.323 -1.6325  0.5735  0.3208
 4165TIP3    H234055   0.455   3.764   1.365  0.9563  1.1233 -0.2297
 4166TIP3   OH234056   5.332   4.847   0.974  0.1203 -0.2438 -0.2179
 4166TIP3    H134057   5.425   4.867   0.968  0.4379  0.0241  3.4610
 4166TIP3    H234058   5.291   4.932   0.994 -0.1789 -1.0016  2.9071
 4167TIP3   OH234059   3.191   3.217   1.699 -0.1653  0.4244 -0.5979
 4167TIP3    H134060   3.199   3.275   1.774  1.2622 -0.9763  0.3883
 4167TIP3    H234061   3.251   3.253   1.634  0.1608  0.4693 -0.2728
 4168TIP3   OH234062   1.010   3.471   2.767 -0.1123 -0.0187 -0.1541
 4168TIP3    H134063   1.012   3.388   2.815 -0.3820 -0.2251 -0.4922
 4168TIP3    H234064   1.080   3.523   2.806  0.0286 -0.3877  0.0932
 4169TIP3   OH234065   2.669   6.724   0.990  0.0321  0.3407 -0.3618
 4169TIP3    H134066   2.758   6.692   0.978  0.0873  1.1797 -2.6044
 4169TIP3    H234067   2.668   6.811   0.950 -2.0340 -0.0633 -1.3397
 4170TIP3   OH234068   1.750   0.759   7.863  0.2177  0.2487  0.0582
 4170TIP3    H134069   1.740   0.687   7.801  1.6862 -2.2777  2.5285
 4170TIP3    H234070   1.841   0.754   7.893 -0.3274  1.4956  2.1892
 4171TIP3   OH234071   0.558   3.255   0.338  0.0535 -0.0376 -0.0141
 4171TIP3    H134072   0.539   3.338   0.382  0.6892  0.1312 -0.0486
 4171TIP3    H234073   0.653   3.248   0.340  0.0752 -0.2092 -1.0271
 4172TIP3   OH234074   4.847   1.594   1.762 -0.1721  0.5555 -0.4845
 4172TIP3    H134075   4.928   1.555   1.795 -0.4035 -0.8020 -1.4273
 4172TIP3    H234076   4.777   1.538   1.797 -0.7061  1.5682  0.1145
 4173TIP3   OH234077   5.720   5.670   8.445 -1.3846 -0.1005 -0.2557
 4173TIP3    H134078   5.706   5.765   8.440  0.0903  0.1791  0.2585
 4173TIP3    H234079   5.777   5.650   8.371 -0.4092 -0.2918  0.5167
 4174TIP3   OH234080   2.422   0.785   1.237 -0.5423 -0.2576  0.0065
 4174TIP3    H134081   2.354   0.790   1.304 -0.3542 -2.2086  0.4067
 4174TIP3    H234082   2.377   0.804   1.155 -1.1970  0.1694  0.4583
 4175TIP3   OH234083   2.994   4.510   1.945 -0.1402 -0.1843  0.3046
 4175TIP3    H134084   3.060   4.567   1.906  1.2494 -1.9532 -0.0512
 4175TIP3    H234085   3.031   4.485   2.030 -0.4773 -0.9323  0.2419
 4176TIP3   OH234086   3.539   1.185   1.563  0.0493 -0.0361 -0.6823
 4176TIP3    H134087   3.566   1.251   1.627  1.1657 -2.2362  1.3092
 4176TIP3    H234088   3.464   1.142   1.604  0.2035 -0.8936 -1.2638
 4177TIP3   OH234089   3.582   2.867   2.090  0.4784  0.1266 -0.0779
 4177TIP3    H134090   3.496   2.909   2.093  0.8645  1.0339 -1.0447
 4177TIP3    H234091   3.586   2.815   2.170 -0.8936  0.2160  0.0735
 4178TIP3   OH234092   4.984   1.760   7.288 -0.1954 -0.4543  0.2508
 4178TIP3    H134093   4.913   1.714   7.332 -1.8873  0.7436 -1.0914
 4178TIP3    H234094   4.961   1.853   7.294 -0.0941 -0.1788 -2.3136
 4179TIP3   OH234095   0.671   2.151   0.949  0.1261 -0.1450  0.0312
 4179TIP3    H134096   0.600   2.130   1.010  1.1820 -0.4566  1.2115
 4179TIP3    H234097   0.649   2.238   0.915 -0.3041  0.2186  1.1795
 4180TIP3   OH234098   4.526   4.717   8.433  0.3240  0.1547  0.3425
 4180TIP3    H134099   4.566   4.804   8.429  3.6166 -1.2593 -1.0437
 4180TIP3    H234100   4.537   4.690   8.524  1.5674  0.2734  0.2439
 4181TIP3   OH234101   2.235   1.246   0.436  0.0500 -0.2614  0.8266
 4181TIP3    H134102   2.187   1.179   0.388 -0.1500  0.8861 -0.6352
 4181TIP3    H234103   2.291   1.196   0.496 -1.2618 -1.6752  0.9492
 4182TIP3   OH234104   5.857   3.078   1.951  0.6735  0.0608  0.3691
 4182TIP3    H134105   5.822   3.167   1.949  0.8839  0.1645  1.1246
 4182TIP3    H234106   5.919   3.078   2.024  0.6973 -0.6929  0.3543
 4183TIP3   OH234107   1.862   5.940   2.991 -0.0678  0.5802  0.0541
 4183TIP3    H134108   1.832   6.022   2.952 -1.3629  0.2427  0.3012
 4183TIP3    H234109   1.939   5.916   2.940 -1.4946  0.3217 -2.1247
 4184TIP3   OH234110   4.679   3.602   1.920  0.4775 -0.0453 -0.1010
 4184TIP3    H134111   4.699   3.628   2.010 -2.3917  1.9443  0.0848
 4184TIP3    H234112   4.712   3.674   1.866 -0.1390  0.0357 -0.3799
 4185TIP3   OH234113   5.221   1.456   0.710 -0.3169  0.5589 -0.5638
 4185TIP3    H134114   5.169   1.505   0.774  0.6125  1.1758 -0.2597
 4185TIP3    H234115   5.263   1.386   0.761 -2.4766 -1.3004 -1.1775
 4186TIP3   OH234116   3.054   1.583   8.116  0.1835 -0.2328 -0.7551
 4186TIP3    H134117   3.113   1.654   8.089 -1.4539  1.0864 -1.0451
 4186TIP3    H234118   2.974   1.628   8.143 -1.2525 -2.0173 -1.8198
 4187TIP3   OH234119   2.370   3.429   2.099 -0.3894 -0.1917 -0.1331
 4187TIP3    H134120   2.390   3.395   2.186  0.6106  1.3918  0.3038
 4187TIP3    H234121   2.447   3.406   2.047 -1.4988 -2.2156 -0.9782
 4188TIP3   OH234122   5.970   1.745   6.579 -0.2692  0.0037 -0.2877
 4188TIP3    H134123   5.983   1.840   6.566 -1.6683  0.0282 -1.9134
 4188TIP3    H234124   5.880   1.730   6.552 -0.0677 -1.8109 -0.0268
 4189TIP3   OH234125   4.437   2.164   0.922  0.4702  0.1641  0.1726
 4189TIP3    H134126   4.403   2.096   0.981  1.0458  0.5421  0.9601
 4189TIP3    H234127   4.470   2.232   0.981  2.6137 -0.1906 -0.5505
 4190TIP3   OH234128   4.976   3.480   7.576  0.1595 -0.0078  0.0536
 4190TIP3    H134129   4.900   3.534   7.552  0.1010  0.1424  0.5634
 4190TIP3    H234130   4.942   3.419   7.641  0.9863  1.6711  2.1931
 4191TIP3   OH234131   6.268   5.992   1.572 -0.5277 -0.6015 -0.1883
 4191TIP3    H134132   6.313   6.075   1.586 -0.9148  0.1387 -2.7352
 4191TIP3    H234133   6.183   6.016   1.535 -1.2831 -2.0999  0.4720
 4192TIP3   OH234134   2.422   4.787   1.562  0.2442 -0.0716  0.0145
 4192TIP3    H134135   2.507   4.822   1.589 -0.1089  3.1931 -2.4674
 4192TIP3    H234136   2.440   4.742   1.479 -0.4665  1.3659 -0.9649
 4193TIP3   OH234137   5.116   2.668   7.475  0.5055  0.1235 -0.1489
 4193TIP3    H134138   5.142   2.754   7.441  0.2832  0.1133 -0.3447
 4193TIP3    H234139   5.192   2.639   7.525  0.8677  0.1039 -0.7005
 4194TIP3   OH234140   0.597   4.280   7.442  0.0342  0.1543 -0.0715
 4194TIP3    H134141   0.659   4.208   7.432  0.5276  0.7662 -1.7370
 4194TIP3    H234142   0.612   4.336   7.366 -1.1861  1.3805  0.5356
 4195TIP3   OH234143   4.608   1.426   6.599 -0.1274  0.4857 -0.2228
 4195TIP3    H134144   4.546   1.354   6.592  0.9666 -0.7865  2.0539
 4195TIP3    H234145   4.579   1.475   6.676  1.3904  0.1148  0.6187
 4196TIP3   OH234146   3.322   5.677   7.683  0.4764 -0.0460 -0.0840
 4196TIP3    H134147   3.309   5.713   7.771  0.8982 -0.1062  0.0070
 4196TIP3    H234148   3.260   5.725   7.628  0.8034  0.6028  0.0950
 4197TIP3   OH234149   4.330   6.022   1.557 -0.4339 -0.3386 -0.2563
 4197TIP3    H134150   4.375   5.961   1.616 -0.0822 -0.5117 -0.6953
 4197TIP3    H234151   4.241   5.987   1.550 -0.6198 -0.0520  0.5365
 4198TIP3   OH234152   5.940   6.406   7.290  0.0704 -0.1622 -0.2452
 4198TIP3    H134153   5.955   6.446   7.204  1.0375 -0.2276 -0.1166
 4198TIP3    H234154   5.882   6.332   7.271  0.5259 -0.3672 -0.8979
 4199TIP3   OH234155   6.739   0.748   8.811 -0.5978 -0.2554 -0.0356
 4199TIP3    H134156   6.708   0.794   8.889 -1.5429 -1.0192  0.0531
 4199TIP3    H234157   6.673   0.765   8.744 -0.5758 -0.8622 -0.2199
 4200TIP3   OH234158   5.841   4.556   7.068  0.5935  0.1653  0.2105
 4200TIP3    H134159   5.760   4.603   7.046 -0.4436 -1.5064  0.3057
 4200TIP3    H234160   5.848   4.488   7.001  1.2803 -0.4613  0.9031
 4201TIP3   OH234161   6.592   2.945   8.076  0.1526  0.0721 -0.0643
 4201TIP3    H134162   6.685   2.936   8.054 -0.1536 -1.1588 -0.9276
 4201TIP3    H234163   6.545   2.922   7.996 -0.9091  0.2088  0.4963
 4202TIP3   OH234164   3.917   5.190   8.009 -0.5904 -0.5824 -0.2782
 4202TIP3    H134165   3.922   5.145   7.925  0.6203  0.1993 -0.6620
 4202TIP3    H234166   3.848   5.255   7.999 -0.4677 -0.5120 -0.6620
 4203TIP3   OH234167   5.185   1.255   2.304  0.5120  0.2151  0.0343
 4203TIP3    H134168   5.120   1.278   2.370  0.4482 -0.7278  0.3173
 4203TIP3    H234169   5.191   1.160   2.308 -0.8280 -0.0605 -2.6133
 4204TIP3   OH234170   1.600   5.331   8.623 -0.0264  0.6954  0.3080
 4204TIP3    H134171   1.525   5.304   8.675 -0.5520  1.4738 -0.0259
 4204TIP3    H234172   1.567   5.403   8.568  1.1479  1.5575  0.6885
 4205TIP3   OH234173   5.213   6.772   8.335 -0.1778 -0.1665  0.0754
 4205TIP3    H134174   5.178   6.734   8.254  0.1006  1.2851 -0.7517
 4205TIP3    H234175   5.245   6.697   8.384 -1.7931 -1.2510 -0.4429
 4206TIP3   OH234176   5.849   5.153   0.782  0.9120  0.5747  0.2436
 4206TIP3    H134177   5.914   5.183   0.846  0.5965  1.0837  0.3318
 4206TIP3    H234178   5.869   5.203   0.703  1.2122  0.0484 -0.0233
 4207TIP3   OH234179   0.854   2.046   1.511  0.3102 -0.2917  0.2738
 4207TIP3    H134180   0.853   1.952   1.493  0.1045 -0.1901 -0.2693
 4207TIP3    H234181   0.779   2.080   1.462 -0.3885 -0.0241  1.5030
 4208TIP3   OH234182   6.749   2.242   2.047  0.5558  0.4262  0.1285
 4208TIP3    H134183   6.819   2.282   2.098  1.3261 -0.0983 -0.4797
 4208TIP3    H234184   6.741   2.297   1.969 -0.2726  0.9422  0.5662
 4209TIP3   OH234185   2.057   5.907   8.137  0.3105  0.0087 -0.6329
 4209TIP3    H134186   2.078   5.814   8.145  1.0451  0.2123 -0.0638
 4209TIP3    H234187   1.965   5.908   8.108 -0.1446 -0.8885  0.6516
 4210TIP3   OH234188   0.333   2.399   7.912  0.0734 -0.3213  0.0455
 4210TIP3    H134189   0.416   2.388   7.958  0.0328  1.0111  0.4888
 4210TIP3    H234190   0.357   2.391   7.819  0.3578 -1.8026  0.2198
 4211TIP3   OH234191   4.204   4.937   6.516 -0.3161  0.2499  0.1094
 4211TIP3    H134192   4.185   5.026   6.547 -1.0287  0.1353  0.0172
 4211TIP3    H234193   4.141   4.882   6.561 -0.0739 -0.1762 -0.0691
 4212TIP3   OH234194   4.827   5.938   7.971  0.0428 -0.3129 -0.3622
 4212TIP3    H134195   4.737   5.955   7.944 -0.0813  0.4515  0.4944
 4212TIP3    H234196   4.875   6.018   7.949 -0.3204  0.8902  2.7124
 4213TIP3   OH234197   5.788   1.006   1.888  0.3497 -0.3739  0.6389
 4213TIP3    H134198   5.723   0.966   1.945 -0.4865 -0.0951 -0.0928
 4213TIP3    H234199   5.743   1.019   1.805  1.4110 -0.3767  0.0382
 4214TIP3   OH234200   0.472   3.906   8.061  0.4251 -0.0062 -0.7378
 4214TIP3    H134201   0.395   3.849   8.066  0.7791 -0.5090 -0.9483
 4214TIP3    H234202   0.436   3.994   8.048 -0.1047 -0.2756 -1.1034
 4215TIP3   OH234203   0.209   0.476   0.879 -0.2721 -0.2515 -0.4836
 4215TIP3    H134204   0.301   0.452   0.863 -0.6358 -0.6555 -2.2595
 4215TIP3    H234205   0.196   0.554   0.825 -0.7363  0.3636  0.4942
 4216TIP3   OH234206   1.376   5.702   8.810 -0.0194 -0.0969 -0.1379
 4216TIP3    H134207   1.442   5.719   8.877  0.6000 -0.0975 -0.7245
 4216TIP3    H234208   1.419   5.642   8.749 -0.0020  1.1077 -1.3529
 4217TIP3   OH234209   2.453   3.878   8.565  0.0689 -0.8388  0.4521
 4217TIP3    H134210   2.485   3.888   8.475 -1.2645 -0.3534  0.0058
 4217TIP3    H234211   2.463   3.784   8.583 -0.9700 -1.2029 -0.7407
 4218TIP3   OH234212   5.114   1.369   1.104 -0.6761 -0.0787  0.7249
 4218TIP3    H134213   5.183   1.327   1.053 -0.5434 -0.4264  1.1788
 4218TIP3    H234214   5.081   1.299   1.160  0.1038  0.5980  2.0798
 4219TIP3   OH234215   6.351   4.611   8.456 -0.3123  0.1036 -0.1588
 4219TIP3    H134216   6.309   4.652   8.532  2.0298 -1.4380  2.1281
 4219TIP3    H234217   6.353   4.680   8.389 -1.3983  1.9191  1.5736
 4220TIP3   OH234218   4.684   5.966   0.477 -0.1383  0.2351 -0.0008
 4220TIP3    H134219   4.614   5.993   0.537 -1.1519 -1.5752 -0.3200
 4220TIP3    H234220   4.734   5.901   0.526 -0.2775 -0.4025 -0.6885
 4221TIP3   OH234221   4.772   2.855   7.778 -0.3158  0.2156  0.0364
 4221TIP3    H134222   4.727   2.807   7.708 -0.0450  2.0162 -1.4354
 4221TIP3    H234223   4.848   2.800   7.800  0.2366  0.1497 -1.8986
 4222TIP3   OH234224   1.521   2.661   8.697  0.1865  0.1416 -0.3580
 4222TIP3    H134225   1.486   2.734   8.749  0.7179  0.9786 -1.1442
 4222TIP3    H234226   1.505   2.688   8.606 -0.8385 -1.3435 -0.6449
 4223TIP3   OH234227   0.149   1.101   7.227 -0.6692  0.9384  0.0854
 4223TIP3    H134228   0.218   1.040   7.252  1.1310  1.7736 -2.5063
 4223TIP3    H234229   0.135   1.155   7.305 -2.2557 -2.5095  2.4554
 4224TIP3   OH234230   2.466   5.604   8.248 -0.2626 -0.1306  0.6624
 4224TIP3    H134231   2.427   5.679   8.203 -0.6705 -1.5014 -1.3707
 4224TIP3    H234232   2.560   5.615   8.235 -0.3898 -0.6969 -0.9230
 4225TIP3   OH234233   4.016   3.151   0.271 -0.5500 -0.1210 -0.5724
 4225TIP3    H134234   3.984   3.233   0.233  0.7105  0.5033 -0.3358
 4225TIP3    H234235   3.961   3.083   0.232 -0.7495  0.7137 -1.7790
 4226TIP3   OH234236   1.463   3.462   7.638 -0.5751  0.0096 -0.2769
 4226TIP3    H134237   1.377   3.504   7.628  0.2077  1.9140  0.6110
 4226TIP3    H234238   1.446   3.370   7.618 -3.2056 -0.0232  1.5444
 4227TIP3   OH234239   4.389   4.009   0.893  0.5641 -0.1942  0.6749
 4227TIP3    H134240   4.474   3.967   0.878  0.1946 -0.2490 -1.5420
 4227TIP3    H234241   4.330   3.965   0.832 -0.6414  1.1158  0.8589
 4228TIP3   OH234242   3.232   5.978   2.190 -0.0367  0.2050 -0.4605
 4228TIP3    H134243   3.232   5.960   2.285 -0.4471 -0.4205 -0.5724
 4228TIP3    H234244   3.319   6.015   2.173  0.6511 -1.1831 -0.1105
 4229TIP3   OH234245   0.661   3.032   1.949  0.0516 -0.0830 -0.4751
 4229TIP3    H134246   0.654   3.011   2.042 -0.8479  2.5029  0.1272
 4229TIP3    H234247   0.638   2.951   1.904  1.2257 -1.6149  1.5129
 4230TIP3   OH234248   0.114   0.505   2.389 -0.1374 -0.2869  0.4090
 4230TIP3    H134249   0.164   0.462   2.458  0.2740 -1.1862 -0.4180
 4230TIP3    H234250   0.108   0.596   2.416  0.2312 -0.5757  1.5024
 4231TIP3   OH234251   3.207   6.241   7.727 -0.0849  0.0388  0.3646
 4231TIP3    H134252   3.223   6.158   7.772 -0.0037 -0.2374 -0.1607
 4231TIP3    H234253   3.277   6.299   7.758 -0.6443  0.1890  1.3894
 4232TIP3   OH234254   5.491   4.689   8.674 -0.7318 -0.2670 -0.1007
 4232TIP3    H134255   5.575   4.645   8.686 -0.2750  0.3373 -0.9517
 4232TIP3    H234256   5.489   4.757   8.741 -0.5374 -0.2609 -0.1024
 4233TIP3   OH234257   0.175   1.340   1.716  0.0887 -0.0078  0.0300
 4233TIP3    H134258   0.179   1.409   1.651  0.0411  0.0914  0.1317
 4233TIP3    H234259   0.210   1.380   1.796  0.1456 -0.1277  0.0657
 4234TIP3   OH234260   5.183   5.119   7.321 -0.0551  0.7243 -0.2829
 4234TIP3    H134261   5.188   5.189   7.256  1.1700  2.1517  1.2589
 4234TIP3    H234262   5.093   5.087   7.316  0.1277  0.4536 -2.9601
 4235TIP3   OH234263   2.079   5.064   0.081  0.0474 -0.7080 -0.1841
 4235TIP3    H134264   2.062   5.127   0.011  0.0468 -0.6279 -0.1115
 4235TIP3    H234265   2.068   4.978   0.038  1.3878 -0.6792 -0.6262
 4236TIP3   OH234266   2.641   5.979   1.261 -0.1755 -0.2446 -0.3014
 4236TIP3    H134267   2.712   5.918   1.238 -2.0895 -2.3544 -1.0157
 4236TIP3    H234268   2.614   6.015   1.176 -0.1622  0.3185 -0.0657
 4237TIP3   OH234269   0.975   5.245   2.116  0.2415 -0.4756  0.1809
 4237TIP3    H134270   0.898   5.191   2.129 -0.9083  0.6659 -1.4021
 4237TIP3    H234271   0.978   5.303   2.193  0.1641 -1.2427  0.7667
 4238TIP3   OH234272   5.685   1.179   6.459  0.5319 -0.4961  0.0580
 4238TIP3    H134273   5.670   1.121   6.533  1.0554 -0.5303  0.1434
 4238TIP3    H234274   5.598   1.194   6.422  0.2222 -0.1862  0.8956
 4239TIP3   OH234275   1.918   2.601   1.148 -0.1724  0.3080 -0.2204
 4239TIP3    H134276   1.823   2.611   1.147 -0.1077  1.3742  1.3297
 4239TIP3    H234277   1.943   2.611   1.240  1.6041  1.9494 -0.8039
 4240TIP3   OH234278   3.191   6.254   7.092  0.0943 -0.1942  0.9478
 4240TIP3    H134279   3.135   6.299   7.028  0.3635 -2.3019 -0.8769
 4240TIP3    H234280   3.151   6.168   7.103  2.3385 -1.3801  0.3967
 4241TIP3   OH234281   2.761   4.985   2.021  0.1629  0.2716 -0.4197
 4241TIP3    H134282   2.733   4.905   1.976  0.0348  0.7769 -1.2705
 4241TIP3    H234283   2.719   4.981   2.107  0.7373 -0.9148 -0.1841
 4242TIP3   OH234284   4.541   3.476   7.988  0.8356 -0.1238 -0.0476
 4242TIP3    H134285   4.599   3.524   7.930  2.7971 -1.2318  0.8823
 4242TIP3    H234286   4.461   3.528   7.991  1.6765  1.3469 -1.5728
 4243TIP3   OH234287   4.527   0.839   1.856 -0.2085 -0.1377 -0.3859
 4243TIP3    H134288   4.489   0.834   1.944  1.2135 -0.1437  0.2756
 4243TIP3    H234289   4.513   0.929   1.828 -1.7794 -0.4610 -0.7031
 4244TIP3   OH234290   4.797   3.681   8.781  0.5457 -0.5078  0.1048
 4244TIP3    H134291   4.784   3.742   8.708 -1.0885  0.0752  0.8270
 4244TIP3    H234292   4.876   3.632   8.758  0.3188 -0.0384 -1.8395
 4245TIP3   OH234293   0.769   5.083   2.129  0.2434 -0.2580  0.1998
 4245TIP3    H134294   0.700   5.141   2.161  1.8795  1.3248  1.0019
 4245TIP3    H234295   0.767   5.008   2.188 -0.2491  0.1503  0.7097
 4246TIP3   OH234296   1.781   2.312   0.513 -0.1539  0.6643  0.0233
 4246TIP3    H134297   1.705   2.363   0.540  0.2518  1.2448  0.0806
 4246TIP3    H234298   1.817   2.360   0.438 -0.2026  0.0595 -0.3953
 4247TIP3   OH234299   5.080   3.887   0.387 -0.2165 -0.0988 -0.3049
 4247TIP3    H134300   5.042   3.908   0.302 -1.6357 -0.0467  0.3003
 4247TIP3    H234301   5.077   3.970   0.435 -0.9598 -0.4786  0.3302
 4248TIP3   OH234302   1.906   0.088   2.603 -0.2992  0.1189 -0.3803
 4248TIP3    H134303   1.908   0.180   2.629 -2.6576  0.2332 -0.3400
 4248TIP3    H234304   1.914   0.039   2.685 -2.4434  0.4005  0.0608
 4249TIP3   OH234305   0.629   6.479   0.961  0.0774  0.0194  0.0278
 4249TIP3    H134306   0.613   6.546   0.894 -2.6464 -1.7133 -1.2408
 4249TIP3    H234307   0.644   6.398   0.911 -0.2067 -0.9868  1.5020
 4250TIP3   OH234308   1.412   0.865   1.299 -0.2242 -0.4001  0.1072
 4250TIP3    H134309   1.450   0.945   1.262 -1.0147  0.7989  1.7483
 4250TIP3    H234310   1.344   0.839   1.236  0.4766 -0.1573 -0.7622
 4251TIP3   OH234311   1.619   6.499   1.279 -0.8121  0.1120  0.7699
 4251TIP3    H134312   1.544   6.518   1.335 -0.0296  2.4885  1.1484
 4251TIP3    H234313   1.591   6.525   1.191 -0.8102 -0.0648  0.7172
 4252TIP3   OH234314   6.697   4.426   7.589 -0.3080  0.2557 -0.0683
 4252TIP3    H134315   6.637   4.450   7.519  0.2428  1.6008 -0.1161
 4252TIP3    H234316   6.675   4.486   7.661  1.5135  1.3844 -0.3922
 4253TIP3   OH234317   0.008   5.738   1.875  0.4874 -0.3590  0.1376
 4253TIP3    H134318  -0.033   5.786   1.948 -0.0961 -2.0902  1.0034
 4253TIP3    H234319   0.090   5.785   1.860 -1.3049  2.6686 -1.0516
 4254TIP3   OH234320   3.525   3.820   0.098  0.4135  0.8186  0.2107
 4254TIP3    H134321   3.438   3.784   0.083  0.7883 -0.5277  1.0921
 4254TIP3    H234322   3.551   3.854   0.012 -0.9048  1.1108 -0.1011
 4255TIP3   OH234323   1.362   1.055   8.090  0.4679  0.1201 -0.0297
 4255TIP3    H134324   1.422   1.032   8.019  1.5904  1.9908  0.2379
 4255TIP3    H234325   1.323   1.137   8.062 -0.1687  0.1362  0.8805
 4256TIP3   OH234326   3.718   0.413   1.006 -0.2137  0.3645  0.2221
 4256TIP3    H134327   3.629   0.449   1.008 -0.5446 -0.3227 -1.1265
 4256TIP3    H234328   3.742   0.404   1.099 -0.1001  3.9900  0.7302
 4257TIP3   OH234329   5.692   3.663   2.291  0.2549  0.1640  0.1883
 4257TIP3    H134330   5.684   3.745   2.243  1.5464  0.2107  0.0339
 4257TIP3    H234331   5.753   3.683   2.362  1.0581 -0.8012 -0.2057
 4258TIP3   OH234332   1.676   2.013   1.183  0.2930 -0.2986 -0.3114
 4258TIP3    H134333   1.686   1.967   1.266  1.1094 -0.1147 -0.2992
 4258TIP3    H234334   1.765   2.026   1.152 -0.0213 -1.3439 -1.7622
 4259TIP3   OH234335   1.964   0.158   7.560 -0.0520 -0.2934  0.5733
 4259TIP3    H134336   2.042   0.212   7.578 -0.0085  0.0522 -0.5318
 4259TIP3    H234337   1.974   0.133   7.468 -1.2452 -0.2589  0.4264
 4260TIP3   OH234338   6.054   6.479   7.029  0.0857  0.0076 -0.7650
 4260TIP3    H134339   6.008   6.445   6.952  1.1028  2.4243 -2.5368
 4260TIP3    H234340   6.147   6.477   7.005  0.6382 -1.0846  1.2283
 4261TIP3   OH234341   0.375   5.056   8.722  0.3056  0.2301 -0.0539
 4261TIP3    H134342   0.371   5.077   8.629  0.2264  1.3783  0.1870
 4261TIP3    H234343   0.426   4.976   8.727  1.8172  1.1014 -0.9536
 4262TIP3   OH234344   3.908   4.747   1.027  0.1580 -0.0587  0.0328
 4262TIP3    H134345   3.961   4.709   1.097 -0.7430 -0.5344  0.4755
 4262TIP3    H234346   3.967   4.749   0.952  1.0356  0.1360  0.7062
 4263TIP3   OH234347   0.636   5.274   1.220  0.0795  0.5855 -0.2448
 4263TIP3    H134348   0.676   5.340   1.162 -0.9806  3.0530  1.6672
 4263TIP3    H234349   0.551   5.256   1.180  0.1300  0.8006 -0.4548
 4264TIP3   OH234350   0.251   4.634   1.700 -0.4506  0.4444  1.0368
 4264TIP3    H134351   0.318   4.568   1.718 -2.5288 -1.2523  3.2308
 4264TIP3    H234352   0.284   4.714   1.743  1.6280  0.6698 -0.7921
 4265TIP3   OH234353   4.363   2.410   1.066  0.3999 -0.1247 -0.3538
 4265TIP3    H134354   4.297   2.349   1.031 -0.7986  0.7588  0.2835
 4265TIP3    H234355   4.351   2.406   1.161  0.4243  0.9628 -0.2994
 4266TIP3   OH234356   0.627   1.561   1.820 -0.5828 -0.4484  0.1113
 4266TIP3    H134357   0.720   1.579   1.829 -0.7447  1.5862 -1.5928
 4266TIP3    H234358   0.591   1.577   1.907  0.2550  1.7456  0.1105
 4267TIP3   OH234359   4.174   5.129   7.815  1.1349  0.3675 -0.2840
 4267TIP3    H134360   4.087   5.095   7.835  1.5745 -0.0566  1.0205
 4267TIP3    H234361   4.200   5.177   7.894  1.2316  2.3413 -1.4406
 4268TIP3   OH234362   5.091   3.716   1.725 -0.5264 -0.5920  0.6125
 4268TIP3    H134363   5.086   3.657   1.800 -0.8535 -1.4478 -0.0608
 4268TIP3    H234364   5.160   3.778   1.748 -0.4109 -1.0219  1.4822
 4269TIP3   OH234365   5.628   5.398   8.752  0.7005 -0.2253  0.6339
 4269TIP3    H134366   5.601   5.434   8.667  0.1462  1.0164  1.3158
 4269TIP3    H234367   5.673   5.317   8.730  2.1746  0.9478 -1.0049
 4270TIP3   OH234368   4.311   1.684   0.068 -0.2252 -0.3253  0.2012
 4270TIP3    H134369   4.336   1.770   0.036 -0.7570 -0.5130 -0.7666
 4270TIP3    H234370   4.217   1.692   0.087 -0.5224 -0.9350 -0.8648
 4271TIP3   OH234371   4.719   5.059   2.812 -0.1029  0.7042 -0.0316
 4271TIP3    H134372   4.665   5.002   2.757 -1.6526 -0.0085  2.0967
 4271TIP3    H234373   4.807   5.022   2.805 -0.4582  0.0047 -1.1580
 4272TIP3   OH234374   6.008   2.840   8.486 -0.6809  0.3908 -0.1117
 4272TIP3    H134375   6.094   2.881   8.480  0.2863 -1.0345  2.3250
 4272TIP3    H234376   5.954   2.904   8.531 -1.0289  1.3776 -1.8385
 4273TIP3   OH234377   3.096   4.459   8.514  0.5174  0.4091  0.3708
 4273TIP3    H134378   3.094   4.542   8.562  0.3006  1.2211 -0.9770
 4273TIP3    H234379   3.189   4.439   8.505  0.6333  1.3153 -0.5972
 4274TIP3   OH234380   2.917   2.674   0.923  0.4052  0.6156 -0.5319
 4274TIP3    H134381   2.983   2.734   0.956  1.0457  0.6711 -1.8689
 4274TIP3    H234382   2.884   2.716   0.844 -1.5563  0.7924  0.3252
 4275TIP3   OH234383   6.463   1.227   8.338  0.0418 -0.1210 -0.0238
 4275TIP3    H134384   6.429   1.257   8.253 -0.4306 -0.2139  0.1263
 4275TIP3    H234385   6.477   1.133   8.325  0.1829 -0.0930 -0.0691
 4276TIP3   OH234386   0.698   3.836   7.544 -0.4862 -0.0753 -0.0777
 4276TIP3    H134387   0.628   3.850   7.608  0.8232 -2.0037  1.8938
 4276TIP3    H234388   0.778   3.860   7.591  0.4170 -0.4489 -1.3891
 4277TIP3   OH234389   5.175   3.594   1.466  0.4809 -0.1155  0.6724
 4277TIP3    H134390   5.088   3.614   1.500  0.1671 -2.2492  1.2950
 4277TIP3    H234391   5.161   3.579   1.372 -0.0835 -1.5209  0.9468
 4278TIP3   OH234392   6.511   1.149   2.647 -0.0851  0.4785  0.1706
 4278TIP3    H134393   6.564   1.223   2.675  2.0364  0.1601 -2.5570
 4278TIP3    H234394   6.425   1.188   2.627  0.4629  1.8836  0.4158
 4279TIP3   OH234395   2.315   2.558   0.180 -0.0483 -0.0105  0.2668
 4279TIP3    H134396   2.331   2.621   0.110 -1.5316 -0.9362 -0.9778
 4279TIP3    H234397   2.319   2.609   0.261 -2.0967  1.9162 -0.7505
 4280TIP3   OH234398   4.985   2.680   7.762 -0.1541  0.5234 -0.8769
 4280TIP3    H134399   5.006   2.669   7.669  0.0991  0.6606 -0.8379
 4280TIP3    H234400   5.013   2.599   7.803 -1.1635  0.0608 -1.0646
 4281TIP3   OH234401   6.050   4.763   1.274  0.0907 -0.5201  0.2680
 4281TIP3    H134402   6.019   4.850   1.250  1.9069  0.1752  0.2556
 4281TIP3    H234403   6.105   4.777   1.351 -0.6259 -1.8593  1.0663
 4282TIP3   OH234404   4.127   5.703   8.706 -0.7089 -0.2710 -0.2931
 4282TIP3    H134405   4.129   5.767   8.777 -1.1188 -1.2258  0.6160
 4282TIP3    H234406   4.035   5.695   8.683 -0.6353 -0.3514 -0.5676
 4283TIP3   OH234407   2.992   0.504   7.702  0.0375 -0.0397 -0.4452
 4283TIP3    H134408   2.897   0.503   7.706 -0.0692 -0.1606 -2.2494
 4283TIP3    H234409   3.017   0.412   7.691  0.5612 -0.3395  2.4814
 4284TIP3   OH234410   1.341   0.211   0.008  0.0137 -0.1188  0.2686
 4284TIP3    H134411   1.324   0.127  -0.035  0.5242  0.1215 -0.4430
 4284TIP3    H234412   1.341   0.191   0.101  3.4299 -1.6601  0.1149
 4285TIP3   OH234413   2.079   5.987   0.507 -0.1334 -0.3873 -0.2809
 4285TIP3    H134414   2.056   6.065   0.558  1.0796 -0.1899  0.0019
 4285TIP3    H234415   1.995   5.947   0.486 -0.7051 -0.9060  2.5381
 4286TIP3   OH234416   6.318   2.084   8.646 -0.1565 -0.2109 -0.0127
 4286TIP3    H134417   6.312   2.043   8.560  0.2708  1.6949 -1.0002
 4286TIP3    H234418   6.259   2.032   8.701 -1.2683 -0.8394 -1.7051
 4287TIP3   OH234419   3.237   2.114   8.375 -0.2028 -0.4171  0.0908
 4287TIP3    H134420   3.255   2.023   8.350 -1.1910 -0.8344  0.8550
 4287TIP3    H234421   3.318   2.160   8.352  0.3687 -1.5009 -0.1976
 4288TIP3   OH234422   0.362   4.096   8.452  0.6016 -0.7125 -0.4757
 4288TIP3    H134423   0.390   4.083   8.543 -2.0639  1.4084  0.7774
 4288TIP3    H234424   0.270   4.070   8.452  0.0845  0.9766 -2.1342
 4289TIP3   OH234425   4.457   6.368   0.951 -0.1456  0.0092 -0.0500
 4289TIP3    H134426   4.497   6.428   1.014 -1.3066  0.7298  0.0391
 4289TIP3    H234427   4.411   6.426   0.889 -3.0470 -0.7617  1.2107
 4290TIP3   OH234428   6.216   3.027   7.677 -0.5220  0.0612  0.3817
 4290TIP3    H134429   6.285   3.017   7.611  0.5410  0.6585  1.3520
 4290TIP3    H234430   6.135   3.011   7.630  0.1874  0.7476 -1.1405
 4291TIP3   OH234431   0.489   0.483   2.191  0.6664  0.3223 -0.3028
 4291TIP3    H134432   0.501   0.411   2.129 -1.6726 -1.0601  0.7048
 4291TIP3    H234433   0.546   0.461   2.264 -2.3994 -2.5467  1.5156
 4292TIP3   OH234434   3.261   3.802   1.940 -0.6134 -0.0720  0.1177
 4292TIP3    H134435   3.219   3.741   1.880 -0.1207 -2.2321  1.8547
 4292TIP3    H234436   3.191   3.828   2.000 -0.5699  0.1781  0.0596
 4293TIP3   OH234437   2.302   3.653   7.268 -0.3875 -0.0520  0.6518
 4293TIP3    H134438   2.312   3.746   7.249 -0.2728  0.1828  1.8173
 4293TIP3    H234439   2.391   3.618   7.268 -0.3338  0.0713  1.3209
 4294TIP3   OH234440   5.775   5.928   7.935 -0.4043 -0.1896  0.4417
 4294TIP3    H134441   5.754   5.869   8.008 -2.6576  2.6369  2.2867
 4294TIP3    H234442   5.865   5.955   7.952 -0.6053 -0.2469  1.6881
 4295TIP3   OH234443   2.820   6.452   2.125  0.4310 -0.0365  0.1394
 4295TIP3    H134444   2.779   6.466   2.039  1.2981 -0.6466 -0.3834
 4295TIP3    H234445   2.769   6.507   2.184 -0.0904  0.5159 -0.7906
 4296TIP3   OH234446   2.914   5.401   1.577 -0.5285 -0.3010 -0.2591
 4296TIP3    H134447   2.957   5.483   1.553 -2.8669  0.4209 -2.4056
 4296TIP3    H234448   2.955   5.376   1.661  0.8425  2.5674  0.0518
 4297TIP3   OH234449   5.517   1.251   1.415  0.0232 -0.3703 -0.0626
 4297TIP3    H134450   5.511   1.156   1.403 -1.3722 -0.1170 -1.9545
 4297TIP3    H234451   5.570   1.281   1.341  3.6865  0.0911  2.4807
 4298TIP3   OH234452   1.253   2.315   7.820 -0.3596  0.2129  0.1763
 4298TIP3    H134453   1.335   2.336   7.774 -0.8138 -0.4579 -1.0018
 4298TIP3    H234454   1.207   2.399   7.824 -0.9768  0.0443 -2.0352
 4299TIP3   OH234455   3.439   3.860   7.396 -0.1798  0.1649 -0.0014
 4299TIP3    H134456   3.473   3.923   7.332  0.5230  0.6673  0.8583
 4299TIP3    H234457   3.348   3.847   7.370  0.1113  0.3106 -1.1495
 4300TIP3   OH234458   1.520   5.504   0.832  0.1299 -0.2639 -0.1210
 4300TIP3    H134459   1.562   5.466   0.909  2.2657 -1.3976 -1.7418
 4300TIP3    H234460   1.592   5.521   0.771 -1.4253  1.0214 -1.7202
 4301TIP3   OH234461   5.256   6.251   8.492  0.0911 -0.1499  0.8648
 4301TIP3    H134462   5.178   6.286   8.535 -0.0043  1.0096 -0.1998
 4301TIP3    H234463   5.315   6.326   8.485  0.0223 -0.2308 -1.1682
 4302TIP3   OH234464   2.570   5.450   6.751 -0.3957 -0.5495 -0.0127
 4302TIP3    H134465   2.618   5.492   6.680 -2.4522  0.4925 -0.8376
 4302TIP3    H234466   2.638   5.427   6.815  1.3853 -0.6098 -1.8208
 4303TIP3   OH234467   1.106   2.856   1.718  0.0165  0.0701 -0.8078
 4303TIP3    H134468   1.082   2.824   1.631 -1.3599 -1.3161  0.0396
 4303TIP3    H234469   1.202   2.846   1.721 -0.1025 -1.6956 -1.4900
 4304TIP3   OH234470   2.796   4.913   0.583  0.4676  0.3863 -0.2057
 4304TIP3    H134471   2.818   4.992   0.632  0.9935  0.0648  0.0941
 4304TIP3    H234472   2.877   4.862   0.583  0.9304  0.9864 -2.6069
 4305TIP3   OH234473   3.206   4.326   0.875 -0.4915  0.0169 -0.4309
 4305TIP3    H134474   3.211   4.421   0.884  1.0109  0.0329 -1.1486
 4305TIP3    H234475   3.151   4.297   0.949  0.6194  1.2649  0.9194
 4306TIP3   OH234476   2.233   3.907   2.299 -0.3584 -0.0669 -0.3358
 4306TIP3    H134477   2.270   3.949   2.376 -0.0443  0.2669 -0.6666
 4306TIP3    H234478   2.253   3.814   2.310 -2.1618 -0.3404  1.0329
 4307TIP3   OH234479   1.912   4.859   2.156  0.0618 -0.1694 -0.0959
 4307TIP3    H134480   1.893   4.808   2.077  0.3225  0.8607 -0.8568
 4307TIP3    H234481   1.909   4.796   2.227 -1.8405 -0.8345 -0.7082
 4308TIP3   OH234482   5.166   3.935   1.476 -0.1060  0.1408 -0.1916
 4308TIP3    H134483   5.160   3.930   1.381 -0.1364  0.5183 -0.2134
 4308TIP3    H234484   5.223   3.863   1.501 -1.0458 -0.7088 -0.3956
 4309TIP3   OH234485   3.283   0.881   6.601  0.4826  0.2383 -0.1954
 4309TIP3    H134486   3.254   0.903   6.512  0.2377  0.9722  0.0610
 4309TIP3    H234487   3.265   0.787   6.609 -0.6447  0.4089 -0.5045
 4310TIP3   OH234488   3.184   2.999   1.493 -0.1381 -0.5962 -0.2918
 4310TIP3    H134489   3.216   3.009   1.404 -0.5055  0.6154 -0.3106
 4310TIP3    H234490   3.260   2.972   1.544  0.0851 -1.2392 -0.9528
 4311TIP3   OH234491   0.058   2.243   8.724 -0.3698  0.2543  0.4857
 4311TIP3    H134492  -0.016   2.227   8.665  0.1068  0.2317 -0.1179
 4311TIP3    H234493   0.048   2.334   8.750  1.7260  1.7149 -3.0309
 4312TIP3   OH234494   5.366   0.895   7.444 -0.1530 -0.1552 -0.4343
 4312TIP3    H134495   5.306   0.969   7.448 -0.1353 -0.1483 -0.2788
 4312TIP3    H234496   5.327   0.836   7.379 -0.5763 -0.3672  0.0080
 4313TIP3   OH234497   4.751   5.884   8.755 -0.4537 -0.3041  0.1572
 4313TIP3    H134498   4.704   5.960   8.721  0.8070  1.0322  1.2905
 4313TIP3    H234499   4.800   5.918   8.830  1.8883 -1.7450 -0.6337
 4314TIP3   OH234500   5.949   6.287   0.767  0.5393  0.4360 -0.0215
 4314TIP3    H134501   6.007   6.335   0.707  1.9766 -1.2177 -0.0106
 4314TIP3    H234502   5.936   6.347   0.841 -0.4208  2.0919 -1.4417
 4315TIP3   OH234503   5.545   0.873   7.120 -0.0124 -0.0046 -0.2334
 4315TIP3    H134504   5.589   0.804   7.170  0.8393  0.2544 -0.6129
 4315TIP3    H234505   5.579   0.955   7.157 -0.7752  0.2159 -0.0008
 4316TIP3   OH234506   0.011   3.942   7.269  0.0732  0.1422 -0.0674
 4316TIP3    H134507  -0.047   3.909   7.337 -0.5375  1.7788  0.2486
 4316TIP3    H234508  -0.046   3.991   7.209  0.8655  0.2660 -0.7466
 4317TIP3   OH234509   3.401   6.500   0.938 -0.5498  0.1631 -0.1707
 4317TIP3    H134510   3.419   6.473   1.028  0.5113 -1.3261 -0.7902
 4317TIP3    H234511   3.315   6.462   0.918 -0.8876  0.6859  0.2819
 4318TIP3   OH234512   1.732   1.367   6.416  0.3822 -0.0593  0.1005
 4318TIP3    H134513   1.708   1.312   6.490 -0.7883  1.2266  0.7323
 4318TIP3    H234514   1.651   1.410   6.390  0.7722 -0.4118 -1.9102
 4319TIP3   OH234515   6.638   6.439   2.837 -0.6980 -0.2717  0.1228
 4319TIP3    H134516   6.643   6.533   2.821  0.8320 -0.4235 -0.4539
 4319TIP3    H234517   6.556   6.412   2.797 -1.7764  1.0098  1.3889
 4320TIP3   OH234518   5.704   1.175   0.024  0.1958  0.0059  0.0957
 4320TIP3    H134519   5.774   1.190   0.087 -0.0338  1.4941  0.0311
 4320TIP3    H234520   5.627   1.157   0.077  0.1475  0.6024  0.2351
 4321TIP3   OH234521   0.796   4.990   1.871 -0.3481  0.0132 -0.0683
 4321TIP3    H134522   0.779   5.014   1.962 -0.7936 -0.5078 -0.0086
 4321TIP3    H234523   0.888   4.963   1.870  0.1167  1.4986 -0.1007
 4322TIP3   OH234524   3.505   0.146   0.280  0.0334  0.1362  0.9738
 4322TIP3    H134525   3.510   0.226   0.333 -1.1053  0.1157  1.1347
 4322TIP3    H234526   3.578   0.093   0.311  0.7785  1.0795  0.9055
 4323TIP3   OH234527   1.320   1.607   0.831 -0.0465 -0.1884 -0.1183
 4323TIP3    H134528   1.325   1.537   0.766 -1.4681  0.9551 -1.5485
 4323TIP3    H234529   1.323   1.687   0.779 -2.0098  0.7639  1.1414
 4324TIP3   OH234530   0.285   5.869   0.921  0.4211 -0.9392  0.2208
 4324TIP3    H134531   0.203   5.916   0.910  0.3521 -1.3197 -1.0608
 4324TIP3    H234532   0.325   5.869   0.834  2.1612 -0.0858  0.9729
 4325TIP3   OH234533   2.714   3.221   7.966 -0.2687 -0.1564  0.1447
 4325TIP3    H134534   2.685   3.280   7.896 -4.0093 -1.6765  0.1506
 4325TIP3    H234535   2.741   3.279   8.037  0.7913  1.4399 -1.4863
 4326TIP3   OH234536   4.938   3.007   0.563 -0.3377  0.2452 -0.8631
 4326TIP3    H134537   4.916   2.918   0.536  3.1632 -1.0001 -0.1873
 4326TIP3    H234538   4.915   3.010   0.656  1.0653 -0.5991 -0.4625
 4327TIP3   OH234539   5.760   6.466   2.349 -0.6349  0.1295 -0.1561
 4327TIP3    H134540   5.752   6.549   2.396  2.9986  1.1730 -1.0657
 4327TIP3    H234541   5.673   6.452   2.310 -1.9504  2.3930  1.6876
 4328TIP3   OH234542   6.339   3.287   1.767 -0.0986 -0.3196  0.1833
 4328TIP3    H134543   6.335   3.201   1.726 -0.9666 -0.3571  0.3287
 4328TIP3    H234544   6.293   3.276   1.850  2.7137 -0.5791  1.8382
 4329TIP3   OH234545   3.015   5.834   8.491  0.6874  0.0957  0.1858
 4329TIP3    H134546   2.976   5.747   8.498  0.5096  0.2694  1.6423
 4329TIP3    H234547   2.939   5.893   8.484  0.7452  0.2754  1.0375
 4330TIP3   OH234548   1.798   2.740   8.042 -0.2644  0.3351 -0.3508
 4330TIP3    H134549   1.822   2.742   8.135 -0.4269 -2.5812 -0.1353
 4330TIP3    H234550   1.880   2.720   7.996 -0.3668  0.7729 -0.7231
 4331TIP3   OH234551   2.129   1.853   8.376 -0.1805 -0.2509  0.2320
 4331TIP3    H134552   2.166   1.921   8.321 -1.5310  0.3656  0.0474
 4331TIP3    H234553   2.195   1.783   8.376  0.7962  0.6494 -0.3532
 4332TIP3   OH234554   6.279   1.475   1.690 -0.1415 -0.0847  0.3271
 4332TIP3    H134555   6.337   1.540   1.650 -0.0068 -0.2334  0.2784
 4332TIP3    H234556   6.324   1.392   1.677  0.3205 -0.0478  1.5389
 4333TIP3   OH234557   3.919   5.037   2.270 -0.3532  0.8265 -0.4807
 4333TIP3    H134558   3.915   5.131   2.256  0.2701  1.0245  0.5798
 4333TIP3    H234559   3.997   5.023   2.324 -0.3080 -0.3187 -0.8048
 4334TIP3   OH234560   4.214   6.546   8.215  0.0186 -0.0050  0.6456
 4334TIP3    H134561   4.124   6.532   8.186  0.5829  0.1515 -1.3220
 4334TIP3    H234562   4.253   6.459   8.217  1.3045  0.1995 -3.9574
 4335TIP3   OH234563   5.588   4.636   8.231  0.2429  0.2791 -0.3440
 4335TIP3    H134564   5.554   4.551   8.206 -1.7238 -0.1244  3.1847
 4335TIP3    H234565   5.683   4.622   8.240  0.3381 -0.7422 -2.3560
 4336TIP3   OH234566   1.539   4.546   0.237  0.4810 -0.8776  0.2251
 4336TIP3    H134567   1.606   4.478   0.247  1.0775 -0.2186  0.7574
 4336TIP3    H234568   1.498   4.551   0.323  0.4628 -0.5392  0.1961
 4337TIP3   OH234569   2.422   1.267   7.095  0.9279  0.1900  0.5338
 4337TIP3    H134570   2.388   1.178   7.104  0.0755  0.4223 -0.2391
 4337TIP3    H234571   2.361   1.321   7.145 -0.3291  0.7030 -1.4485
 4338TIP3   OH234572   1.908   3.496   8.783  0.2578  0.5616  0.3194
 4338TIP3    H134573   1.950   3.470   8.701  0.1040 -1.6285  0.8607
 4338TIP3    H234574   1.853   3.570   8.760 -1.5507 -1.3675 -2.0990
 4339TIP3   OH234575   2.606   4.623   2.332 -0.1565 -0.5287 -0.2494
 4339TIP3    H134576   2.657   4.557   2.284  0.9905  1.5596 -2.0573
 4339TIP3    H234577   2.672   4.677   2.375 -0.8516  1.4275 -1.5326
 4340TIP3   OH234578   1.217   1.602   7.782 -0.0589 -0.6544  0.4420
 4340TIP3    H134579   1.289   1.643   7.830 -1.4533  2.9977 -0.2501
 4340TIP3    H234580   1.141   1.610   7.840 -0.6590 -1.1150 -0.2600
 4341TIP3   OH234581   3.223   3.695   1.111  0.0541 -0.3938 -0.1224
 4341TIP3    H134582   3.287   3.623   1.110  1.7050  1.0177 -0.9430
 4341TIP3    H234583   3.139   3.651   1.123  1.1548 -2.3310  1.1586
 4342TIP3   OH234584   1.143   5.975   2.103  0.1149  0.2187 -0.3638
 4342TIP3    H134585   1.211   5.936   2.049  0.3494 -0.7812  0.6222
 4342TIP3    H234586   1.143   5.924   2.184 -3.0650 -1.1121 -1.0266
 4343TIP3   OH234587   5.385   1.797   0.265  0.1450 -0.3780  0.3540
 4343TIP3    H134588   5.368   1.891   0.274  0.4089 -0.3325  0.3968
 4343TIP3    H234589   5.436   1.774   0.343 -0.1836 -0.6226  0.4983
 4344TIP3   OH234590   1.557   2.750   7.247 -0.2235 -0.3676  0.6124
 4344TIP3    H134591   1.570   2.662   7.214  1.1506 -0.2775  0.8651
 4344TIP3    H234592   1.639   2.796   7.228 -2.1436  2.0697 -3.0946
 4345TIP3   OH234593   5.091   6.259   6.948 -0.0920  0.5670 -0.5697
 4345TIP3    H134594   5.167   6.265   7.006  0.6962 -0.9372 -1.3715
 4345TIP3    H234595   5.016   6.277   7.004  0.6278 -0.8533  0.9501
 4346TIP3   OH234596   4.685   1.836   7.338  0.5302 -0.3238  0.2913
 4346TIP3    H134597   4.741   1.910   7.359  0.1724 -0.0574  0.3219
 4346TIP3    H234598   4.707   1.770   7.403  0.1101  0.1430  0.9189
 4347TIP3   OH234599   5.457   1.828   0.862  0.2728  0.0511 -0.1707
 4347TIP3    H134600   5.380   1.825   0.920  1.4665 -1.3148  1.4428
 4347TIP3    H234601   5.520   1.768   0.903  3.2183  3.0149  0.0338
 4348TIP3   OH234602   1.626   5.499   1.107  0.3319  0.2382  0.1592
 4348TIP3    H134603   1.560   5.485   1.175  2.1432 -2.8059  1.5331
 4348TIP3    H234604   1.672   5.578   1.134 -0.3230  0.2382  1.3522
 4349TIP3   OH234605   0.317   3.587   0.193 -0.1542 -0.7704 -0.6740
 4349TIP3    H134606   0.404   3.556   0.219 -0.5417 -1.1449  0.2190
 4349TIP3    H234607   0.288   3.525   0.127 -0.7721 -2.1628  0.8393
 4350TIP3   OH234608   1.032   1.166   8.257 -0.2873  0.2299  0.0545
 4350TIP3    H134609   0.973   1.122   8.195 -1.6199  0.2865  1.2453
 4350TIP3    H234610   0.995   1.253   8.268  0.1378  0.3347  0.6739
 4351TIP3   OH234611   1.213   2.070   7.152  0.2714  0.1680 -0.4827
 4351TIP3    H134612   1.220   1.998   7.215  0.9873  0.5373 -0.1186
 4351TIP3    H234613   1.270   2.045   7.080  1.1084  0.6757 -0.0266
 4352TIP3   OH234614   1.361   3.059   1.736 -0.5556  0.3802 -0.9136
 4352TIP3    H134615   1.358   3.056   1.641 -1.0663 -1.9781 -0.8832
 4352TIP3    H234616   1.382   2.969   1.762  1.9924  1.4409  1.1572
 4353TIP3   OH234617   4.783   0.364   7.767  0.0844 -0.3053  0.7758
 4353TIP3    H134618   4.799   0.316   7.685  1.1709  0.5915  0.4322
 4353TIP3    H234619   4.865   0.410   7.783 -1.3048  2.4989  0.3761
 4354TIP3   OH234620   1.557   6.222   1.690 -0.6001  0.5155  0.2287
 4354TIP3    H134621   1.636   6.188   1.647  0.5043  1.9271  1.0587
 4354TIP3    H234622   1.494   6.150   1.684  0.4551 -0.3463 -1.1977
 4355TIP3   OH234623   2.706   6.471   1.562 -0.3531 -0.0877  0.2019
 4355TIP3    H134624   2.655   6.405   1.516  0.0425  0.7417 -1.4938
 4355TIP3    H234625   2.651   6.549   1.562  0.2043  0.3136 -0.0921
 4356TIP3   OH234626   6.176   2.043   0.084  0.6118 -0.2086 -0.2235
 4356TIP3    H134627   6.261   2.025   0.044  0.6898 -0.1466 -0.0853
 4356TIP3    H234628   6.197   2.077   0.171  0.3983 -4.6701  1.8269
 4357TIP3   OH234629   6.723   2.750   2.096  0.2776  0.0549  0.4281
 4357TIP3    H134630   6.663   2.762   2.169  0.4424 -1.8931  0.9305
 4357TIP3    H234631   6.779   2.677   2.122  1.4728  0.4427 -0.9289
 4358TIP3   OH234632   3.752   2.643   0.349 -0.2142 -0.0406 -1.1114
 4358TIP3    H134633   3.659   2.666   0.353  0.0923  1.1905 -0.6280
 4358TIP3    H234634   3.771   2.635   0.256 -0.6599  0.3576 -1.2412
 4359TIP3   OH234635   4.614   2.836   6.282 -0.4118 -0.8877  0.0121
 4359TIP3    H134636   4.586   2.825   6.373  0.3112 -1.2541  0.2038
 4359TIP3    H234637   4.576   2.761   6.236 -0.3850 -0.9673  0.1174
 4360TIP3   OH234638   3.452   2.264   8.020 -0.3141 -0.3616  0.2648
 4360TIP3    H134639   3.360   2.256   8.043 -1.5454  1.4236 -3.2672
 4360TIP3    H234640   3.471   2.358   8.027  0.0338 -0.1275 -2.5954
 4361TIP3   OH234641   3.970   4.846   7.218 -0.1361 -0.0303  0.6845
 4361TIP3    H134642   3.898   4.874   7.162 -0.5296 -1.5943  0.3533
 4361TIP3    H234643   4.015   4.927   7.242  0.1563  0.7004 -2.0207
 4362TIP3   OH234644   3.221   4.817   8.687 -0.3513  0.7304 -0.0865
 4362TIP3    H134645   3.139   4.789   8.727 -1.6513  3.7097 -0.3662
 4362TIP3    H234646   3.220   4.779   8.599 -1.1113  0.2003  0.1460
 4363TIP3   OH234647   3.436   0.730   7.835 -0.1077 -0.3511  0.1094
 4363TIP3    H134648   3.356   0.684   7.807  0.2099 -0.6246 -0.3688
 4363TIP3    H234649   3.414   0.823   7.829 -0.4937 -0.4276  0.2936
 4364TIP3   OH234650   6.727   5.246   0.503  0.2697  0.5320 -0.1955
 4364TIP3    H134651   6.653   5.186   0.495  0.4523  0.5305 -2.3542
 4364TIP3    H234652   6.712   5.292   0.586 -0.2609 -1.9244  1.1503
 4365TIP3   OH234653   5.972   0.324   1.624  0.3760  0.2601 -0.0952
 4365TIP3    H134654   6.052   0.271   1.632 -0.0819 -0.3314  0.7528
 4365TIP3    H234655   6.004   0.414   1.619  1.0844  0.0936  1.0090
 4366TIP3   OH234656   2.368   4.886   0.024 -0.2119  0.2352  0.0558
 4366TIP3    H134657   2.275   4.864   0.016 -0.4714  1.0429  0.7829
 4366TIP3    H234658   2.410   4.803   0.049 -0.8379  0.0322  0.4589
 4367TIP3   OH234659   1.679   1.336   6.697 -0.2082 -0.1620 -0.0752
 4367TIP3    H134660   1.595   1.334   6.651 -0.6020  0.4144  0.5882
 4367TIP3    H234661   1.680   1.255   6.748 -0.3853 -0.1539 -0.0581
 4368TIP3   OH234662   0.837   4.393   7.569 -0.0174  0.7838  0.6942
 4368TIP3    H134663   0.767   4.361   7.513  0.2920  1.8086 -0.3063
 4368TIP3    H234664   0.916   4.386   7.516  0.0746  3.1207  0.4050
 4369TIP3   OH234665   3.143   1.851   1.379 -0.0384  0.4684  0.4416
 4369TIP3    H134666   3.129   1.880   1.289 -1.2882  0.3604  0.5849
 4369TIP3    H234667   3.066   1.798   1.400 -1.1242  2.5811  2.4057
 4370TIP3   OH234668   2.275   0.438   2.107 -0.4274 -0.1823 -0.5275
 4370TIP3    H134669   2.370   0.433   2.098 -0.4586 -1.1298 -0.4629
 4370TIP3    H234670   2.260   0.503   2.176  0.1542  0.2479 -0.8040
 4371TIP3   OH234671   1.822   6.584   1.466  0.5655 -0.2117  0.4039
 4371TIP3    H134672   1.783   6.552   1.385 -0.8240  0.9224  0.5789
 4371TIP3    H234673   1.765   6.552   1.535  1.0900 -0.2131  0.8428
 4372TIP3   OH234674   6.528   5.340   7.218 -0.0973  0.3360  0.6519
 4372TIP3    H134675   6.605   5.341   7.162 -0.6943 -0.7073 -0.2365
 4372TIP3    H234676   6.463   5.289   7.169 -1.5187  1.5658  1.1515
 4373TIP3   OH234677   0.303   2.792   7.312 -0.1190 -0.3465  0.2538
 4373TIP3    H134678   0.344   2.870   7.349  0.2517 -0.5553  0.2849
 4373TIP3    H234679   0.342   2.782   7.225 -0.1946 -0.4741  0.2330
 4374TIP3   OH234680   1.434   4.543   6.800 -0.0848 -0.0522 -0.2477
 4374TIP3    H134681   1.381   4.465   6.817 -0.4090  0.2490  0.1565
 4374TIP3    H234682   1.513   4.510   6.757  0.0066 -0.6561  0.3703
 4375TIP3   OH234683   5.540   1.516   8.462  0.7921 -0.0476  0.1022
 4375TIP3    H134684   5.529   1.580   8.532 -1.7333  0.0924 -0.3270
 4375TIP3    H234685   5.550   1.568   8.383  3.4637 -0.2095  0.2448
 4376TIP3   OH234686   3.015   3.287   0.293  0.0519 -0.3057  0.2017
 4376TIP3    H134687   2.957   3.315   0.364 -1.8604 -1.6405 -0.7411
 4376TIP3    H234688   2.956   3.264   0.221  1.7608 -1.7102 -0.8450
 4377TIP3   OH234689   2.326   4.528   2.093 -0.3533  0.2745 -0.0584
 4377TIP3    H134690   2.306   4.589   2.023  1.4312 -1.4581 -2.2203
 4377TIP3    H234691   2.282   4.446   2.069  0.1952 -0.3315  0.8877
 4378TIP3   OH234692   1.602   1.453   8.056  0.5594 -0.7753 -0.1041
 4378TIP3    H134693   1.637   1.415   7.976 -0.7356 -0.4976 -0.8240
 4378TIP3    H234694   1.675   1.503   8.092  1.5892 -2.0521 -0.3390
 4379TIP3   OH234695   6.127   3.950   0.565  0.3008 -0.3900  0.0300
 4379TIP3    H134696   6.158   4.019   0.623 -0.5535 -0.5208  0.6628
 4379TIP3    H234697   6.057   3.991   0.514  0.1226 -0.6539  0.0609
 4380TIP3   OH234698   4.105   4.041   7.143  0.0366 -0.0212  0.1018
 4380TIP3    H134699   4.180   3.997   7.182  0.8396  1.6754  0.5292
 4380TIP3    H234700   4.086   4.114   7.201 -1.0238  0.4457 -0.7864
 4381TIP3   OH234701   6.483   6.371   8.694  0.1081 -0.5327 -0.0326
 4381TIP3    H134702   6.564   6.357   8.743  2.9671 -0.9992 -4.2639
 4381TIP3    H234703   6.475   6.467   8.688  0.0055 -0.4803  0.8833
 4382TIP3   OH234704   2.769   3.095   2.255 -0.7511 -0.3434 -0.7472
 4382TIP3    H134705   2.732   3.135   2.333 -1.2098  0.5567 -1.4087
 4382TIP3    H234706   2.714   3.018   2.240 -1.2256 -0.0187 -0.6924
 4383TIP3   OH234707   0.332   0.663   7.567 -0.5429 -0.3410  0.1758
 4383TIP3    H134708   0.341   0.568   7.580 -3.4470 -0.9330 -1.3478
 4383TIP3    H234709   0.296   0.695   7.649 -2.4134 -1.1478 -0.2627
 4384TIP3   OH234710   1.177   3.862   0.682 -0.1992  0.1201  0.2030
 4384TIP3    H134711   1.171   3.957   0.685 -1.0014  0.0546  1.9069
 4384TIP3    H234712   1.165   3.834   0.773 -1.0058 -1.6548 -0.3888
 4385TIP3   OH234713   0.249   5.863   7.175  0.0983  0.2102 -0.4446
 4385TIP3    H134714   0.224   5.818   7.095  0.1403 -1.5284  0.4804
 4385TIP3    H234715   0.225   5.954   7.160 -1.6787 -0.4220 -1.6833
 4386TIP3   OH234716   5.303   2.424   0.704  0.6643  0.3950  0.3623
 4386TIP3    H134717   5.386   2.469   0.719 -0.5617  2.0219  2.8761
 4386TIP3    H234718   5.257   2.480   0.641 -0.1343  1.8340  2.1334
 4387TIP3   OH234719   0.290   5.514   2.051 -0.1647  0.1293  0.4143
 4387TIP3    H134720   0.269   5.421   2.062  1.4373 -0.3790 -0.3964
 4387TIP3    H234721   0.358   5.515   1.983 -0.3152  1.9221  0.2354
 4388TIP3   OH234722   5.866   1.071   0.512  0.1696 -1.1791 -0.2840
 4388TIP3    H134723   5.784   1.063   0.463 -1.0291 -0.1831  1.4802
 4388TIP3    H234724   5.877   1.164   0.528  1.3190 -1.3541  0.1041
 4389TIP3   OH234725   6.104   4.655   0.841 -0.2746  0.3031  0.0602
 4389TIP3    H134726   6.037   4.723   0.840  0.5407  1.2197  2.2194
 4389TIP3    H234727   6.172   4.688   0.900  2.1229 -0.5692 -2.0290
 4390TIP3   OH234728   2.639   5.990   1.646 -0.1412  0.4248  0.4281
 4390TIP3    H134729   2.713   6.038   1.610 -1.0735  0.0819 -2.1641
 4390TIP3    H234730   2.596   6.052   1.705  0.6713  1.5201 -0.0949
 4391TIP3   OH234731   4.911   0.159   8.287  0.1718 -0.4084  0.1155
 4391TIP3    H134732   4.886   0.163   8.380  1.5024 -1.2969  0.5429
 4391TIP3    H234733   4.966   0.237   8.275 -0.2067 -0.1574  0.0049
 4392TIP3   OH234734   3.868   1.734   8.414 -0.2794  0.0422 -0.1874
 4392TIP3    H134735   3.956   1.743   8.450 -0.3839  0.7737 -0.1068
 4392TIP3    H234736   3.827   1.666   8.467 -0.2771  0.7762  0.7842
 4393TIP3   OH234737   5.646   1.903   0.692  0.0115  0.2758 -0.3832
 4393TIP3    H134738   5.662   1.996   0.676 -1.1857  0.8473  1.3842
 4393TIP3    H234739   5.572   1.903   0.752  0.4268 -1.8224  0.1711
 4394TIP3   OH234740   6.425   4.862   8.314 -0.3206  0.5913 -0.2841
 4394TIP3    H134741   6.382   4.877   8.230 -0.0441  1.2943 -0.3117
 4394TIP3    H234742   6.445   4.950   8.346  1.0436  0.2883 -0.2521
 4395TIP3   OH234743   5.115   6.159   7.899 -0.4303  0.5740 -0.0566
 4395TIP3    H134744   5.136   6.122   7.814 -1.7879  0.8762 -0.5604
 4395TIP3    H234745   5.140   6.092   7.963 -0.5343 -0.1604 -0.7808
 4396TIP3   OH234746   1.010   2.153   8.134 -0.3927  0.5912  0.0319
 4396TIP3    H134747   0.943   2.215   8.104 -0.6450 -0.2616 -1.1791
 4396TIP3    H234748   1.032   2.184   8.223 -0.2878  2.5986 -0.6340
 4397TIP3   OH234749   2.859   5.523   6.864 -0.2240  0.2094 -0.2066
 4397TIP3    H134750   2.841   5.552   6.774  1.6465 -0.5701 -0.8835
 4397TIP3    H234751   2.946   5.484   6.859 -0.9206 -1.7122  1.5381
 4398TIP3   OH234752   4.693   5.939   1.440  0.1496  0.1041 -0.0983
 4398TIP3    H134753   4.769   5.948   1.383  0.9489 -1.3996  0.6825
 4398TIP3    H234754   4.724   5.965   1.527 -0.2738 -0.3197  0.1881
 4399TIP3   OH234755   6.244   5.890   7.658 -0.0519 -0.0972 -0.0829
 4399TIP3    H134756   6.231   5.985   7.664  0.4080 -0.0717  0.6500
 4399TIP3    H234757   6.161   5.854   7.689  0.3154  0.0769  1.1793
 4400TIP3   OH234758   2.253   4.331   0.893  0.5185  0.8808 -0.4246
 4400TIP3    H134759   2.274   4.247   0.933  0.9899  1.5792  0.8485
 4400TIP3    H234760   2.245   4.392   0.967 -0.0683  1.9013 -1.2988
 4401TIP3   OH234761   1.475   5.967   1.676  0.2937  0.3564 -0.0026
 4401TIP3    H134762   1.563   5.985   1.710 -0.1413  0.2743  1.1920
 4401TIP3    H234763   1.489   5.945   1.584  1.3400  2.2333 -0.3515
 4402TIP3   OH234764   6.030   3.458   0.706 -0.3500  0.1262  0.1979
 4402TIP3    H134765   6.087   3.382   0.696 -0.9963 -1.0359  3.8798
 4402TIP3    H234766   6.090   3.533   0.698  0.9584 -0.8947 -0.0101
 4403TIP3   OH234767   6.528   2.173   0.951  0.3600  0.4010 -0.2615
 4403TIP3    H134768   6.586   2.192   1.025  0.2445  0.5017 -0.1957
 4403TIP3    H234769   6.472   2.251   0.945  0.3427  0.3750 -0.4292
 4404TIP3   OH234770   2.440   2.063   0.841 -0.1625  0.1807  0.3727
 4404TIP3    H134771   2.473   2.140   0.887  2.0466 -1.6650  2.0965
 4404TIP3    H234772   2.488   2.063   0.758 -1.0280  1.2058 -0.1660
 4405TIP3   OH234773   3.872   5.876   7.053  0.1459  0.1782  0.7485
 4405TIP3    H134774   3.901   5.964   7.031  1.3609 -0.3245  0.2388
 4405TIP3    H234775   3.844   5.838   6.970  0.2316 -0.1354  0.8603
 4406TIP3   OH234776   1.914   2.833   0.689  0.1156  0.1241 -0.1896
 4406TIP3    H134777   1.987   2.895   0.689 -0.0428  0.3245  0.6888
 4406TIP3    H234778   1.923   2.786   0.606  1.0097  0.4193 -0.2772
 4407TIP3   OH234779   2.790   0.258   1.808 -0.1098 -0.3182 -0.4169
 4407TIP3    H134780   2.728   0.297   1.869 -1.7225 -1.6629 -1.1337
 4407TIP3    H234781   2.781   0.163   1.821  2.4649 -0.5636  0.0770
 4408TIP3   OH234782   4.280   5.195   1.887  0.1647  0.1209 -0.0538
 4408TIP3    H134783   4.216   5.170   1.953 -0.0918  1.8000  0.3544
 4408TIP3    H234784   4.338   5.257   1.931  0.8148  0.2388 -1.0306
 4409TIP3   OH234785   0.468   4.585   7.541  0.1867 -0.0804  0.1813
 4409TIP3    H134786   0.377   4.616   7.539  0.5540  1.0583  0.3634
 4409TIP3    H234787   0.506   4.628   7.617  1.2405  0.5371 -0.6709
 4410TIP3   OH234788   1.015   4.303   0.401 -0.2490 -0.3161 -0.1427
 4410TIP3    H134789   0.937   4.310   0.455  0.2504 -0.0927  0.5616
 4410TIP3    H234790   0.999   4.363   0.328 -1.6377 -1.8395 -1.1546
 4411TIP3   OH234791   0.042   0.074   8.101  0.3948  0.4405 -0.0284
 4411TIP3    H134792  -0.009   0.124   8.165 -0.5230  0.0301 -0.4257
 4411TIP3    H234793  -0.022   0.017   8.058  1.1063  0.2606 -0.8768
 4412TIP3   OH234794   0.677   5.099   7.117 -0.9449 -0.5443 -0.4124
 4412TIP3    H134795   0.595   5.054   7.100 -1.2143 -0.0210 -0.5060
 4412TIP3    H234796   0.681   5.168   7.052 -1.0343  0.2208  0.3733
 4413TIP3   OH234797   4.514   6.057   0.659  0.0229  0.2347  0.3428
 4413TIP3    H134798   4.583   6.122   0.676 -0.0436  0.5749 -0.6369
 4413TIP3    H234799   4.449   6.072   0.728  0.2387  0.8860  0.4089
 4414TIP3   OH234800   0.684   1.568   0.034  0.7318 -0.4091 -0.1064
 4414TIP3    H134801   0.608   1.515   0.055 -0.4050  0.9871 -0.5245
 4414TIP3    H234802   0.710   1.539  -0.054 -0.2940  0.1447 -0.6155
 4415TIP3   OH234803   2.809   5.256   1.334  0.6939  0.2839  0.3162
 4415TIP3    H134804   2.861   5.284   1.409 -0.7237 -1.9835  2.3095
 4415TIP3    H234805   2.718   5.268   1.362  0.0973 -1.8328 -0.4554
 4416TIP3   OH234806   2.349   4.348   6.900 -0.0295 -0.2759  0.0697
 4416TIP3    H134807   2.374   4.271   6.950 -0.8437  0.0975  1.0843
 4416TIP3    H234808   2.284   4.316   6.838 -0.7861 -0.3240  0.8700
 4417TIP3   OH234809   0.951   5.655   1.809  0.0328 -0.8842  0.2415
 4417TIP3    H134810   0.980   5.696   1.727  1.4055 -1.1841  0.5536
 4417TIP3    H234811   0.966   5.562   1.796  1.8751 -0.7899  1.4250
 4418TIP3   OH234812   5.684   4.606   7.561  0.3722 -0.4616 -0.5911
 4418TIP3    H134813   5.779   4.608   7.546  0.9201 -1.6872  2.0720
 4418TIP3    H234814   5.652   4.538   7.502  1.6038 -1.8005  0.2034
 4419TIP3   OH234815   1.037   1.916   7.989  0.3457  0.4741  0.2237
 4419TIP3    H134816   1.132   1.918   7.978  0.1784  0.1807 -1.6126
 4419TIP3    H234817   1.016   2.001   8.029  1.1244  1.8733 -2.1219
 4420TIP3   OH234818   4.010   3.272   8.278 -0.4380  0.6134 -0.2830
 4420TIP3    H134819   3.949   3.324   8.332  0.1254  1.1380 -0.1425
 4420TIP3    H234820   3.963   3.191   8.261 -0.9905  0.8139  0.2361
 4421TIP3   OH234821   0.797   6.285   1.465  0.2775 -0.3667  0.0951
 4421TIP3    H134822   0.817   6.369   1.424  1.1394 -0.4935  0.2204
 4421TIP3    H234823   0.769   6.307   1.554 -1.1137 -0.1203 -0.3911
 4422TIP3   OH234824   0.604   0.023   8.444 -0.0774  0.3332  0.4402
 4422TIP3    H134825   0.670   0.055   8.382 -0.3914  0.6277  0.2540
 4422TIP3    H234826   0.531  -0.005   8.389 -0.2567  0.3540  0.6671
 4423TIP3   OH234827   4.103   6.279   7.597  0.0147 -0.5005 -0.7669
 4423TIP3    H134828   4.028   6.338   7.597 -0.0994 -0.6327 -1.7246
 4423TIP3    H234829   4.148   6.297   7.514  0.3431 -1.3015 -0.7747
 4424TIP3   OH234830   2.847   1.311   8.809 -0.1348  0.1475 -0.5258
 4424TIP3    H134831   2.764   1.302   8.855  0.3542 -0.0981  0.3390
 4424TIP3    H234832   2.830   1.377   8.741 -0.8189  0.7022  0.1612
 4425TIP3   OH234833   5.532   0.233   0.533 -0.7051  0.2351  0.1876
 4425TIP3    H134834   5.626   0.224   0.514 -0.4961  0.0159  1.2503
 4425TIP3    H234835   5.490   0.170   0.475 -0.1515 -0.0428  0.0781
 4426TIP3   OH234836   6.518   1.537   8.619  0.3700 -0.6346 -0.0819
 4426TIP3    H134837   6.565   1.509   8.540 -0.0920 -0.9020 -0.2638
 4426TIP3    H234838   6.461   1.463   8.640  0.2296 -0.4186  0.2935
 4427TIP3   OH234839   2.257   6.776   8.667  0.3212  0.5003 -0.6801
 4427TIP3    H134840   2.306   6.734   8.596 -0.2176  0.9177 -1.3139
 4427TIP3    H234841   2.280   6.869   8.660  0.2616  0.5468 -0.3044
 4428TIP3   OH234842   5.962   3.942   8.546 -0.4453 -1.2074  0.4925
 4428TIP3    H134843   6.019   4.013   8.519 -0.1058 -0.2034  3.4871
 4428TIP3    H234844   5.945   3.892   8.466  1.6716  0.5366 -1.1402
 4429TIP3   OH234845   5.743   2.239   7.512  0.3157  0.6135  0.0622
 4429TIP3    H134846   5.749   2.304   7.582 -0.4851  0.0587  0.6657
 4429TIP3    H234847   5.732   2.291   7.432  0.6395  1.2411  0.4164
 4430TIP3   OH234848   3.596   1.438   8.459 -0.1074 -1.1176 -0.4556
 4430TIP3    H134849   3.586   1.399   8.373 -1.4568 -0.3125 -0.7033
 4430TIP3    H234850   3.506   1.447   8.492  0.2565  0.2759  0.2468
 4431TIP3   OH234851   0.103   2.917   8.098  0.2172 -0.2137  0.2935
 4431TIP3    H134852   0.061   2.870   8.170  0.5130 -0.3857  0.3567
 4431TIP3    H234853   0.119   2.850   8.032 -1.4326  0.2153 -0.5770
 4432TIP3   OH234854   6.610   3.492   7.688  0.6153  0.8450  0.0859
 4432TIP3    H134855   6.641   3.412   7.729  0.6188  0.3208 -0.9004
 4432TIP3    H234856   6.689   3.539   7.663  0.6482  0.2244 -1.0648
 4433TIP3   OH234857   1.523   2.103   8.155  0.1937  0.1159 -0.1259
 4433TIP3    H134858   1.430   2.123   8.163  0.1952  0.0295  0.1128
 4433TIP3    H234859   1.541   2.040   8.224 -0.0711 -1.7255 -1.6555
 4434TIP3   OH234860   2.924   0.677   1.125  0.0801 -0.6477 -0.4138
 4434TIP3    H134861   3.000   0.709   1.174 -1.0311 -0.1837  1.1051
 4434TIP3    H234862   2.902   0.747   1.064 -0.4069  0.1792  0.6694
 4435TIP3   OH234863   4.012   4.037   6.899 -0.2274  0.2866 -0.0845
 4435TIP3    H134864   4.059   4.049   6.982 -1.4934  0.0519  0.6862
 4435TIP3    H234865   3.949   4.109   6.896 -0.9252 -0.3244 -0.3180
 4436TIP3   OH234866   0.191   3.564   0.726  0.1605  0.1819 -0.2048
 4436TIP3    H134867   0.166   3.579   0.635 -3.9951 -0.7125  0.6225
 4436TIP3    H234868   0.161   3.476   0.746  1.3851  0.1743  1.9760
 4437TIP3   OH234869   3.973   2.095   2.285 -0.0287  0.5037 -0.0433
 4437TIP3    H134870   4.053   2.142   2.307  0.4272  0.2552 -1.1160
 4437TIP3    H234871   4.002   2.005   2.269 -0.6892  0.1541  0.6343
 4438TIP3   OH234872   6.333   5.239   8.675  0.2862  0.1230  0.0292
 4438TIP3    H134873   6.308   5.204   8.761 -0.1134 -0.3872 -0.2873
 4438TIP3    H234874   6.273   5.197   8.614  1.6804 -0.8463 -0.7249
 4439TIP3   OH234875   2.331   5.711   7.656 -0.3265  0.0357 -0.0058
 4439TIP3    H134876   2.380   5.671   7.728  0.7403  0.6073 -0.3875
 4439TIP3    H234877   2.380   5.791   7.636 -2.7023  1.8635  1.0986
 4440TIP3   OH234878   5.463   4.349   0.936  0.0608 -0.6824  0.4003
 4440TIP3    H134879   5.459   4.436   0.896  3.2023  0.1709  1.6681
 4440TIP3    H234880   5.491   4.291   0.865 -0.5558 -0.4177 -0.0729
 4441TIP3   OH234881   1.582   4.742   8.010 -0.3395  0.0057 -0.1259
 4441TIP3    H134882   1.618   4.654   8.003  0.9412  0.5964 -1.4522
 4441TIP3    H234883   1.657   4.796   8.037 -1.4653  0.4767  2.3300
 4442TIP3   OH234884   2.137   1.512   0.613  0.4855 -0.3360 -0.6080
 4442TIP3    H134885   2.178   1.466   0.539  1.9721 -1.0936  0.6238
 4442TIP3    H234886   2.051   1.470   0.623  1.9874 -3.4020  0.8191
 4443TIP3   OH234887   1.464   5.585   8.578  0.0105  0.1615 -0.3480
 4443TIP3    H134888   1.393   5.594   8.515 -0.1638 -1.1508 -0.3630
 4443TIP3    H234889   1.540   5.626   8.536 -0.8674  2.2516 -0.0297
 4444TIP3   OH234890   1.459   4.111   0.597 -0.0234 -0.3121 -0.1682
 4444TIP3    H134891   1.518   4.061   0.654 -0.6407 -0.6308  0.2013
 4444TIP3    H234892   1.518   4.156   0.536  0.5594 -1.3488 -0.3981
 4445TIP3   OH234893   2.964   4.338   7.699 -0.8454  0.6532 -0.1135
 4445TIP3    H134894   3.035   4.357   7.761 -1.7648  0.7529  0.9515
 4445TIP3    H234895   2.917   4.264   7.738 -0.0622 -0.8645 -1.9011
 4446TIP3   OH234896   0.765   5.889   8.455 -0.3317  0.1698  0.4077
 4446TIP3    H134897   0.847   5.874   8.501  0.8176 -1.8004 -2.0573
 4446TIP3    H234898   0.778   5.973   8.411  0.4325 -0.1758 -0.0522
 4447TIP3   OH234899   6.109   1.079   0.657 -0.2155  0.9409  0.1274
 4447TIP3    H134900   6.044   1.042   0.597  0.7602 -0.1536 -0.2957
 4447TIP3    H234901   6.108   1.019   0.732  0.6983  0.5862 -0.1352
 4448TIP3   OH234902   0.679   4.796   0.710  0.5721 -0.7527 -0.0201
 4448TIP3    H134903   0.586   4.788   0.731  0.2374 -0.6774 -1.4112
 4448TIP3    H234904   0.718   4.715   0.741  0.1797 -0.5098  1.1806
 4449TIP3   OH234905   3.117   5.967   1.283  0.9472  0.2056 -0.4709
 4449TIP3    H134906   3.068   5.909   1.342  2.1229  0.0735  0.4128
 4449TIP3    H234907   3.051   6.029   1.251 -0.0175 -0.6544 -0.2023
 4450TIP3   OH234908   4.402   4.068   7.698 -0.0344  1.2085 -0.1817
 4450TIP3    H134909   4.360   4.102   7.619 -0.1954  1.1222 -0.1334
 4450TIP3    H234910   4.444   3.986   7.669 -0.5803  0.8758 -0.0498
 4451TIP3   OH234911   4.774   4.465   0.378 -0.2637 -0.1529  0.3236
 4451TIP3    H134912   4.807   4.463   0.468 -1.5417  0.7702  0.8309
 4451TIP3    H234913   4.806   4.383   0.339 -0.3458 -0.9302  1.8450
 4452TIP3   OH234914   1.053   2.394   8.702 -0.2048 -0.5484 -0.3429
 4452TIP3    H134915   1.116   2.326   8.676 -1.3793 -1.4936 -0.8286
 4452TIP3    H234916   1.008   2.417   8.621  0.5305  1.2487 -0.2864
 4453TIP3   OH234917   5.516   2.118   7.438  0.4528  0.3786  0.1740
 4453TIP3    H134918   5.606   2.150   7.448  0.2707  0.9189  0.1085
 4453TIP3    H234919   5.526   2.030   7.402  0.9700  0.2336  0.6572
 4454TIP3   OH234920   0.251   5.559   7.745  0.2247 -0.6305 -0.5854
 4454TIP3    H134921   0.215   5.576   7.658 -0.8440  1.1669  0.1638
 4454TIP3    H234922   0.212   5.625   7.801  0.5392 -2.0225  1.3868
 4455TIP3   OH234923   0.197   3.608   8.335  0.3024  0.0756  0.1387
 4455TIP3    H134924   0.253   3.560   8.274  0.2022  0.3187 -0.1474
 4455TIP3    H234925   0.256   3.638   8.404  0.9090  2.0340 -1.1678
 4456TIP3   OH234926   6.142   2.872   8.815  0.1397 -0.1948  0.0991
 4456TIP3    H134927   6.077   2.919   8.762  0.3963  1.3496  1.0833
 4456TIP3    H234928   6.219   2.867   8.758 -0.1529 -0.1372 -0.3075
 4457TIP3   OH234929   0.448   4.312   8.282  0.3994 -0.6192 -0.5322
 4457TIP3    H134930   0.404   4.241   8.329  1.1050 -0.5161  0.3048
 4457TIP3    H234931   0.387   4.386   8.288 -0.5534 -1.2486 -1.8068
 4458TIP3   OH234932   3.181   1.004   7.341  0.2487  0.4570 -0.3958
 4458TIP3    H134933   3.273   0.985   7.361  0.2319  0.3695 -0.4033
 4458TIP3    H234934   3.143   0.919   7.320  0.5153  0.6683 -1.8442
 4459TIP3   OH234935   3.188   1.889   7.572 -1.0288  0.1002 -0.1931
 4459TIP3    H134936   3.259   1.923   7.627 -0.5917 -2.0089  0.6259
 4459TIP3    H234937   3.121   1.861   7.633 -0.8386 -1.6315 -0.7273
 4460TIP3   OH234938   6.062   0.385   8.177 -0.0239  0.5243 -0.0674
 4460TIP3    H134939   6.068   0.399   8.083 -1.9833 -2.1333 -0.7249
 4460TIP3    H234940   5.968   0.385   8.195  0.1817 -1.7164  1.3485
 4461TIP3   OH234941   1.230   1.777   6.764 -0.1394 -0.4614  0.1175
 4461TIP3    H134942   1.271   1.703   6.720  0.9489  0.0133  0.3193
 4461TIP3    H234943   1.139   1.776   6.733 -0.1955 -1.9839  0.2647
 4462TIP3   OH234944   0.549   6.727   0.199  0.5432 -0.1761 -0.1401
 4462TIP3    H134945   0.512   6.674   0.129 -1.9714 -0.7254  1.4875
 4462TIP3    H234946   0.560   6.667   0.272 -1.4225  1.2234  1.4310
 4463TIP3   OH234947   4.283   1.254   6.890  0.0568  0.2286 -0.7242
 4463TIP3    H134948   4.225   1.251   6.814  1.5688  1.6573 -2.0268
 4463TIP3    H234949   4.235   1.209   6.959 -0.9281 -2.1268 -2.7991
 4464TIP3   OH234950   2.155   1.536   7.703 -0.6935  0.1227  0.1925
 4464TIP3    H134951   2.213   1.594   7.752 -0.3730 -1.5659  1.9638
 4464TIP3    H234952   2.141   1.461   7.762 -0.7640 -1.7710 -2.0770
 4465TIP3   OH234953   5.253   3.621   0.884 -0.1846  0.3086 -0.0419
 4465TIP3    H134954   5.179   3.565   0.862  0.9223 -1.2474 -0.0006
 4465TIP3    H234955   5.282   3.591   0.970 -1.4597  3.0831  1.4825
 4466TIP3   OH234956   2.096   6.093   1.539 -0.1602 -0.1018  0.4515
 4466TIP3    H134957   2.176   6.079   1.488 -0.2116  0.1592  0.2961
 4466TIP3    H234958   2.124   6.085   1.630  0.0878  0.2073  0.4040
 4467TIP3   OH234959   6.162   5.329   7.219 -0.4424  0.2073 -0.1560
 4467TIP3    H134960   6.175   5.307   7.127 -0.1739  0.2883 -0.1404
 4467TIP3    H234961   6.180   5.248   7.267 -1.6647 -0.1308 -0.2425
 4468TIP3   OH234962   5.258   6.263   1.592 -0.4536 -0.0816  0.3556
 4468TIP3    H134963   5.229   6.259   1.501 -0.0248 -0.3796  0.2238
 4468TIP3    H234964   5.346   6.224   1.590 -0.1187  0.6395  0.7664
 4469TIP3   OH234965   6.554   1.955   2.079 -0.1912  0.2501  0.0906
 4469TIP3    H134966   6.604   1.910   2.147 -1.5191 -1.0136  0.2744
 4469TIP3    H234967   6.524   2.035   2.121 -0.4925 -0.2327  0.8288
 4470TIP3   OH234968   3.035   5.720   0.444  0.0031 -0.0880 -0.1483
 4470TIP3    H134969   3.078   5.653   0.390  0.8838  0.0184  0.4019
 4470TIP3    H234970   2.975   5.763   0.384 -0.6241 -1.3947 -0.5079
 4471TIP3   OH234971   0.151   2.158   8.443 -0.0397 -0.3310  0.0170
 4471TIP3    H134972   0.192   2.241   8.419  0.2410 -0.3743  0.3500
 4471TIP3    H234973   0.200   2.127   8.519 -0.6864 -0.3754  0.4329
 4472TIP3   OH234974   5.967   5.005   1.145 -0.2599  0.2352  0.2429
 4472TIP3    H134975   5.882   4.983   1.184  0.3838 -0.3827  1.3141
 4472TIP3    H234976   5.973   5.101   1.154 -0.8503  0.2857  0.1404
 4473TIP3   OH234977   2.241   4.343   7.217 -0.4442 -0.4023  0.7782
 4473TIP3    H134978   2.279   4.410   7.160 -1.6429 -0.0595  0.3396
 4473TIP3    H234979   2.310   4.323   7.280  0.5715 -0.0798 -0.1965
 4474TIP3   OH234980   4.846   5.850   0.697  0.0165 -0.0777 -0.0123
 4474TIP3    H134981   4.786   5.863   0.770 -0.9477 -1.7102 -0.4644
 4474TIP3    H234982   4.893   5.769   0.719  0.4365 -0.0326 -0.7252
 4475TIP3   OH234983   0.792   1.755   1.513  0.2510  0.0436 -0.0246
 4475TIP3    H134984   0.886   1.745   1.500  0.5551  2.9957 -0.7643
 4475TIP3    H234985   0.755   1.670   1.489  2.5847 -0.7248 -1.1801
 4476TIP3   OH234986   4.533   6.320   7.131  0.0070  0.1774 -0.2555
 4476TIP3    H134987   4.556   6.366   7.211 -0.9388 -0.6690  0.5189
 4476TIP3    H234988   4.549   6.385   7.061 -2.4897  2.1961  0.8778
 4477TIP3   OH234989   0.115   3.295   0.703 -0.6459 -0.3473 -0.0323
 4477TIP3    H134990   0.111   3.257   0.791  0.5532 -0.1430  0.1244
 4477TIP3    H234991   0.101   3.221   0.644 -0.4353 -0.6606  0.3077
 4478TIP3   OH234992   3.031   3.562   0.203 -0.0804  0.0855 -0.6279
 4478TIP3    H134993   3.033   3.471   0.232  1.0145  1.0468  2.7251
 4478TIP3    H234994   2.946   3.595   0.232 -0.0637  0.4226 -0.9486
 4479TIP3   OH234995   5.554   0.453   8.244 -0.8913 -0.0511 -0.0378
 4479TIP3    H134996   5.496   0.401   8.301  0.3103 -1.1092  0.2694
 4479TIP3    H234997   5.642   0.430   8.272 -0.2906  0.6542 -1.2581
 4480TIP3   OH234998   0.842   0.271   8.627  0.5733  0.5458 -0.5807
 4480TIP3    H134999   0.767   0.267   8.568  0.0450 -2.1354  0.1209
 4480TIP3    H235000   0.916   0.237   8.576  0.7463  0.8483 -0.5338
 4481TIP3   OH235001   1.690   5.874   0.081 -0.1714  0.2176  0.4043
 4481TIP3    H135002   1.762   5.936   0.091  0.0104  0.1394 -0.3941
 4481TIP3    H235003   1.619   5.911   0.135  0.3443  0.4646  0.9317
 4482TIP3   OH235004   4.078   1.399   1.526  0.2115  0.2593 -0.4682
 4482TIP3    H135005   3.991   1.366   1.548  0.0483  1.5191  0.9355
 4482TIP3    H235006   4.128   1.321   1.504 -1.0084 -0.5873 -0.3545
 4483TIP3   OH235007   4.118   5.165   2.460 -0.0929  0.6976  0.2960
 4483TIP3    H135008   4.091   5.254   2.437  1.9350  1.7628  1.7558
 4483TIP3    H235009   4.078   5.149   2.545  2.4762  1.7316  1.7942
 4484TIP3   OH235010   3.703   4.330   8.192  0.1063 -0.0775  0.4135
 4484TIP3    H135011   3.641   4.396   8.223 -1.3535 -0.4097 -1.5766
 4484TIP3    H235012   3.789   4.366   8.213 -0.6741  1.9297  0.4026
 4485TIP3   OH235013   3.747   0.454   2.036 -0.1277  0.2088  0.3681
 4485TIP3    H135014   3.705   0.540   2.040  0.8448  0.6953  0.2978
 4485TIP3    H235015   3.675   0.392   2.052 -1.1800  0.9380 -1.2233
 4486TIP3   OH235016   6.035   6.757   0.954 -0.5419  0.5116  0.1145
 4486TIP3    H135017   5.962   6.745   1.016 -1.2744 -0.1147 -0.8439
 4486TIP3    H235018   6.092   6.681   0.970 -0.0679  1.0241  0.8943
 4487TIP3   OH235019   3.235   6.482   0.530 -0.1124 -0.5573  0.5051
 4487TIP3    H135020   3.255   6.565   0.575  0.4410 -0.5543  0.2610
 4487TIP3    H235021   3.271   6.493   0.443 -0.8942 -0.6914  0.1553
 4488TIP3   OH235022   1.424   0.507   7.402 -0.1422  0.6285 -0.1763
 4488TIP3    H135023   1.445   0.424   7.445  0.6824  1.2753  0.6852
 4488TIP3    H235024   1.336   0.494   7.367  0.0176 -0.6455 -0.1555
 4489TIP3   OH235025   2.389   6.529   1.201 -1.0269  0.5644  0.1365
 4489TIP3    H135026   2.470   6.570   1.231  0.9707 -1.5003 -1.9539
 4489TIP3    H235027   2.379   6.451   1.256 -0.4203 -0.2558 -0.8737
 4490TIP3   OH235028   6.060   6.644   0.270 -0.0162  0.1311  0.2450
 4490TIP3    H135029   6.116   6.644   0.193 -0.0340  0.7146  0.2252
 4490TIP3    H235030   6.061   6.735   0.300 -0.2773 -0.0241  0.7352
 4491TIP3   OH235031   5.106   0.817   8.394  0.0641  0.3330  0.1449
 4491TIP3    H135032   5.123   0.909   8.373  0.5174  0.2934  0.3378
 4491TIP3    H235033   5.167   0.796   8.464  0.6334 -0.3865 -0.5345
 4492TIP3   OH235034   4.068   1.127   2.006 -0.1035  0.1612 -0.2535
 4492TIP3    H135035   4.128   1.068   2.051 -1.0607 -0.7229 -0.0941
 4492TIP3    H235036   4.023   1.174   2.076  0.6720  1.1372 -0.3799
 4493TIP3   OH235037   4.540   3.420   8.781  0.9898  0.0955  0.4927
 4493TIP3    H135038   4.632   3.397   8.774  0.6125 -1.4726  0.4535
 4493TIP3    H235039   4.498   3.375   8.708  0.4104  2.2147 -0.5810
 4494TIP3   OH235040   1.467   2.239   7.585 -0.5850  0.3049 -0.0277
 4494TIP3    H135041   1.487   2.324   7.622 -1.0130  0.2262  0.3984
 4494TIP3    H235042   1.490   2.246   7.492  0.2419  0.5886  0.1934
 4495TIP3   OH235043   2.747   6.309   1.300  0.2935  0.5014 -0.1065
 4495TIP3    H135044   2.760   6.402   1.284  0.3639  0.5410  0.1675
 4495TIP3    H235045   2.660   6.302   1.338  1.4330  0.8539  2.8830
 4496TIP3   OH235046   0.205   1.450   1.421 -0.2107  0.1532  0.4404
 4496TIP3    H135047   0.272   1.495   1.474 -0.0393  1.6987 -1.0118
 4496TIP3    H235048   0.182   1.513   1.353 -0.1466 -1.8898 -1.5793
 4497TIP3   OH235049   5.500   1.636   8.692  0.0195 -0.5051 -0.2021
 4497TIP3    H135050   5.491   1.713   8.747 -0.8270  0.1848 -1.2669
 4497TIP3    H235051   5.438   1.573   8.728 -0.9321  0.1410 -0.6925
 4498TIP3   OH235052   6.433   5.104   1.194  0.5226  0.3234  0.2326
 4498TIP3    H135053   6.480   5.168   1.248  1.5595 -0.3023  0.0746
 4498TIP3    H235054   6.423   5.147   1.109 -0.5652  1.0614  0.7053
 4499TIP3   OH235055   3.779   0.400   7.953 -0.3589  0.4579  0.7799
 4499TIP3    H135056   3.817   0.408   7.866 -0.3386  0.1943  0.7646
 4499TIP3    H235057   3.733   0.483   7.966  0.9617  1.1525  1.1643
 4500TIP3   OH235058   4.923   6.419   8.179 -0.8147  0.0822  0.1971
 4500TIP3    H135059   4.866   6.342   8.178 -1.1512  0.3336 -0.6974
 4500TIP3    H235060   4.864   6.493   8.192 -0.4353  0.1599  1.6023
 4501TIP3   OH235061   2.544   1.397   6.238 -0.4718  0.3340 -0.0638
 4501TIP3    H135062   2.479   1.462   6.211  0.4075  0.9899 -0.6493
 4501TIP3    H235063   2.507   1.358   6.317 -0.3464  2.6246  1.2087
 4502TIP3   OH235064   3.751   1.193   7.612  0.4388  0.2494 -0.2021
 4502TIP3    H135065   3.787   1.157   7.531 -0.7499 -0.2123 -0.5622
 4502TIP3    H235066   3.677   1.247   7.583 -0.1643 -0.1383  0.5808
 4503TIP3   OH235067   6.395   2.886   0.769 -0.4747  0.7633  0.7720
 4503TIP3    H135068   6.483   2.888   0.808  0.2505 -0.6670 -0.6515
 4503TIP3    H235069   6.376   2.792   0.759 -1.3629  1.0678 -0.6258
 4504TIP3   OH235070   4.006   3.697   0.622  0.0929 -0.2346  0.1536
 4504TIP3    H135071   4.027   3.693   0.529 -1.0038 -0.6655 -0.0949
 4504TIP3    H235072   3.924   3.745   0.626 -2.3540 -4.0371  0.3880
 4505TIP3   OH235073   3.961   4.955   7.870  0.1713  0.3861 -0.3493
 4505TIP3    H135074   3.977   4.893   7.941 -2.3796  0.9270  0.8034
 4505TIP3    H235075   3.971   4.903   7.790 -0.9383 -1.3091  0.5498
 4506TIP3   OH235076   2.412   6.543   0.517 -0.2612 -0.2668  0.0313
 4506TIP3    H135077   2.389   6.452   0.531 -0.3415 -0.6011 -2.0361
 4506TIP3    H235078   2.479   6.562   0.584 -0.0314 -1.9109  0.2912
 4507TIP3   OH235079   3.557   0.822   0.016 -0.0853 -0.2000  0.4888
 4507TIP3    H135080   3.553   0.917   0.008 -0.2473 -0.0090  2.3856
 4507TIP3    H235081   3.471   0.792  -0.015  0.4721  0.1094 -1.4880
 4508TIP3   OH235082   5.878   3.570   8.644  0.3668 -0.0007  0.7885
 4508TIP3    H135083   5.889   3.636   8.712  0.6139  0.7510  0.0379
 4508TIP3    H235084   5.799   3.596   8.597  0.7079  0.0244  0.2130
 4509TIP3   OH235085   4.987   1.848   8.109  0.5311 -0.2110 -0.1634
 4509TIP3    H135086   4.945   1.771   8.147  0.7143 -0.0248  0.4231
 4509TIP3    H235087   5.012   1.902   8.184 -1.2859  1.3283 -0.5874
 4510TIP3   OH235088   3.902   5.705   0.084  0.4750  0.3417  0.1812
 4510TIP3    H135089   3.908   5.731   0.176  1.2392  0.8964 -0.0186
 4510TIP3    H235090   3.990   5.675   0.062  0.2109 -0.1056 -0.2822
 4511TIP3   OH235091   0.712   3.839   6.605 -0.0447  0.3971 -0.4027
 4511TIP3    H135092   0.690   3.916   6.657  0.3952  0.2421  0.0176
 4511TIP3    H235093   0.641   3.832   6.541 -0.5318  0.6528  0.1080
 4512TIP3   OH235094   0.906   3.031   0.037  0.2984  0.2541  0.5716
 4512TIP3    H135095   0.978   2.979   0.073 -0.9341 -2.0004 -0.0081
 4512TIP3    H235096   0.839   3.029   0.106  0.3327  1.3465  0.6485
 4513TIP3   OH235097   4.968   4.926   2.832 -0.1185  0.0697  0.4498
 4513TIP3    H135098   5.000   4.919   2.742 -0.3925  1.1909  0.2428
 4513TIP3    H235099   4.968   4.836   2.865  1.9673 -0.1373  0.0354
 4514TIP3   OH235100   5.446   2.193   1.546 -0.2382 -0.2572 -0.2597
 4514TIP3    H135101   5.380   2.187   1.615 -2.9437  0.2775 -2.6146
 4514TIP3    H235102   5.502   2.116   1.560 -0.7064 -0.2016  2.4158
 4515TIP3   OH235103   1.073   0.307   2.009  0.5142  0.3751  0.0463
 4515TIP3    H135104   1.130   0.230   2.011 -0.3972 -0.3088  1.2832
 4515TIP3    H235105   1.122   0.372   1.959  1.3558 -0.9619 -0.9425
 4516TIP3   OH235106   5.299   3.861   0.807  0.1398 -0.4140  0.1972
 4516TIP3    H135107   5.304   3.774   0.847  1.9848 -0.5193 -0.1711
 4516TIP3    H235108   5.206   3.872   0.785 -0.2325 -2.0221  0.8030
 4517TIP3   OH235109   5.403   0.533   1.667  0.1952  0.2661  0.4791
 4517TIP3    H135110   5.426   0.626   1.662 -0.3932  0.3765 -2.4982
 4517TIP3    H235111   5.468   0.490   1.612 -0.4231 -0.8766  0.6100
 4518TIP3   OH235112   0.792   5.742   7.932 -0.2104  0.1535  0.6894
 4518TIP3    H135113   0.863   5.691   7.971 -0.6311 -2.3881 -1.5777
 4518TIP3    H235114   0.826   5.770   7.847 -2.2893 -2.5869 -1.2278
 4519TIP3   OH235115   5.712   0.600   0.342  0.6302  0.0923 -0.4342
 4519TIP3    H135116   5.748   0.641   0.264 -0.3857  1.6484 -0.1236
 4519TIP3    H235117   5.771   0.625   0.413 -0.1787  1.3836 -0.1840
 4520TIP3   OH235118   4.057   6.597   1.403 -0.2086 -0.3864  0.4095
 4520TIP3    H135119   4.041   6.503   1.410  0.1499 -0.3378  2.5511
 4520TIP3    H235120   4.014   6.634   1.480 -0.8231  1.3085 -0.6806
 4521TIP3   OH235121   0.924   4.699   1.180 -0.7595 -0.3017 -0.2315
 4521TIP3    H135122   0.991   4.765   1.197  0.4172 -1.2020 -1.1064
 4521TIP3    H235123   0.870   4.737   1.111  0.0475 -0.3120 -0.8931
 4522TIP3   OH235124   2.406   3.519   0.857  0.2465 -0.2755  0.1776
 4522TIP3    H135125   2.324   3.559   0.827  0.6424 -0.0925 -0.7159
 4522TIP3    H235126   2.417   3.442   0.801  1.9953  1.1578 -1.6123
 4523TIP3   OH235127   6.383   1.785   0.047  0.1489  0.0657  0.0573
 4523TIP3    H135128   6.472   1.791   0.080  0.1307 -0.2760  0.1821
 4523TIP3    H235129   6.359   1.693   0.060  0.2659 -0.1629 -1.2596
 4524TIP3   OH235130   2.700   0.307   0.244  0.1187  0.3425 -0.3684
 4524TIP3    H135131   2.761   0.316   0.170 -2.2499 -1.2815 -2.6819
 4524TIP3    H235132   2.629   0.367   0.224 -1.1513 -1.0146 -0.0916
 4525TIP3   OH235133   1.418   2.514   7.722  0.2368 -0.4352  0.5170
 4525TIP3    H135134   1.341   2.557   7.759 -0.1315 -1.1203  0.5750
 4525TIP3    H235135   1.492   2.566   7.751 -0.1452 -0.2459  1.1599
 4526TIP3   OH235136   3.000   1.857   7.258 -0.1054  0.2159  0.1385
 4526TIP3    H135137   2.946   1.829   7.332 -2.2237 -0.3628 -1.5167
 4526TIP3    H235138   2.939   1.902   7.200  1.4219  0.3982 -1.4110
 4527TIP3   OH235139   2.700   4.197   2.057 -0.0141 -0.0263 -0.1850
 4527TIP3    H135140   2.763   4.129   2.082 -1.0951 -0.7954  0.5615
 4527TIP3    H235141   2.621   4.149   2.033 -0.4748  0.9340 -0.6583
 4528TIP3   OH235142   5.520   3.653   0.387  0.3297  0.0039  0.5616
 4528TIP3    H135143   5.524   3.617   0.298  1.1993 -0.7441  0.8891
 4528TIP3    H235144   5.609   3.683   0.405 -0.1848  1.5863  0.6248
 4529TIP3   OH235145   2.999   5.420   8.719  0.3372 -0.5236 -0.0713
 4529TIP3    H135146   3.083   5.429   8.764  0.0727 -0.4660  0.4193
 4529TIP3    H235147   2.966   5.334   8.745 -0.2433 -0.1154  0.5961
 4530TIP3   OH235148   2.326   4.815   8.206  0.6683 -0.2182 -0.1063
 4530TIP3    H135149   2.410   4.856   8.224 -0.0279  0.2285  2.4451
 4530TIP3    H235150   2.305   4.842   8.116  1.0789  3.6137  0.7745
 4531TIP3   OH235151   3.897   3.679   2.449 -0.1184  0.1958  0.2429
 4531TIP3    H135152   3.977   3.728   2.471 -1.3113  2.2635  0.2850
 4531TIP3    H235153   3.889   3.614   2.519  1.1004  0.4865  0.6826
 4532TIP3   OH235154   2.838   4.379   8.571 -0.1445 -0.3686  0.1758
 4532TIP3    H135155   2.922   4.383   8.525 -0.9699  1.1003 -1.3018
 4532TIP3    H235156   2.787   4.315   8.522 -1.3907  1.9352 -1.7570
 4533TIP3   OH235157   0.754   3.806   6.919  0.6695 -0.0432  0.1786
 4533TIP3    H135158   0.799   3.882   6.954  0.3367  0.8362 -1.2137
 4533TIP3    H235159   0.797   3.789   6.835 -2.1947  1.5309 -1.7726
 4534TIP3   OH235160   6.667   5.365   8.324  0.3726  0.0943  0.0375
 4534TIP3    H135161   6.701   5.276   8.328 -1.4882 -0.6286  3.3065
 4534TIP3    H235162   6.600   5.362   8.255  0.4262 -0.9756  0.0233
 4535TIP3   OH235163   4.679   5.661   7.565 -0.1981 -0.0056 -0.0349
 4535TIP3    H135164   4.725   5.595   7.617 -0.9814 -0.7169 -0.1980
 4535TIP3    H235165   4.692   5.633   7.474  0.8820  1.0397 -0.2212
 4536TIP3   OH235166   3.220   3.497   6.635  0.1287  0.2823  0.5645
 4536TIP3    H135167   3.230   3.403   6.652  0.1447  0.2012  0.1378
 4536TIP3    H235168   3.305   3.524   6.602 -0.5009 -0.0600 -1.5118
 4537TIP3   OH235169   1.461   6.737   8.524  0.2096  0.0765 -0.2774
 4537TIP3    H135170   1.527   6.750   8.456 -0.1445 -0.9981 -0.8533
 4537TIP3    H235171   1.458   6.642   8.536 -0.9465  0.1451  0.0372
 4538TIP3   OH235172   2.119   3.370   2.596  0.4536 -0.0074  0.2922
 4538TIP3    H135173   2.135   3.452   2.548 -1.9254  0.0741 -0.5051
 4538TIP3    H235174   2.069   3.397   2.673 -0.8779 -0.7280 -0.2837
 4539TIP3   OH235175   3.783   1.845   7.764  0.2631 -0.0305  0.8820
 4539TIP3    H135176   3.852   1.906   7.738 -0.4010 -0.5466 -2.5494
 4539TIP3    H235177   3.812   1.760   7.731 -1.7410 -0.3353 -0.2346
 4540TIP3   OH235178   4.570   1.190   1.600 -0.3378  0.0719 -0.0747
 4540TIP3    H135179   4.503   1.240   1.646  0.2351 -0.2638  1.1715
 4540TIP3    H235180   4.653   1.222   1.636  0.0419 -1.7746  0.8127
 4541TIP3   OH235181   4.916   0.002   0.394 -0.4317 -0.1039 -0.2415
 4541TIP3    H135182   4.871   0.087   0.390 -0.5964 -0.1947 -0.3153
 4541TIP3    H235183   4.952  -0.002   0.482  0.9826  0.7653 -0.7392
 4542TIP3   OH235184   2.071   3.400   0.664 -0.1109 -0.2782  0.0364
 4542TIP3    H135185   2.103   3.312   0.684  0.7110  0.3240  1.5455
 4542TIP3    H235186   2.133   3.458   0.709 -1.9625  1.0101  1.0581
 4543TIP3   OH235187   4.386   2.756   7.656  0.2719 -0.2767 -0.0975
 4543TIP3    H135188   4.329   2.685   7.685  0.1105  0.0599  0.4330
 4543TIP3    H235189   4.378   2.822   7.725 -0.3284  0.6601 -1.0449
 4544TIP3   OH235190   3.135   3.053   7.434  0.1314 -0.1176 -0.6233
 4544TIP3    H135191   3.052   3.094   7.409 -1.9741 -3.4622  0.2227
 4544TIP3    H235192   3.160   3.001   7.358 -2.4066 -4.5071  1.1775
 4545TIP3   OH235193   4.890   0.087   1.799  0.2735  0.0030 -0.3940
 4545TIP3    H135194   4.982   0.112   1.803 -0.3179  2.2653  0.4724
 4545TIP3    H235195   4.862   0.085   1.891 -0.8490  0.5836 -0.7172
 4546TIP3   OH235196   1.053   2.799   1.426  0.1595 -0.4175  0.4838
 4546TIP3    H135197   1.098   2.715   1.419  0.0182 -0.5140  0.7230
 4546TIP3    H235198   1.076   2.846   1.346 -0.9397 -1.2665 -0.3527
 4547TIP3   OH235199   2.623   2.723   0.301 -0.1780  0.5038 -0.0518
 4547TIP3    H135200   2.682   2.723   0.225  0.9799  0.0402  0.8199
 4547TIP3    H235201   2.598   2.632   0.312 -2.1756  0.8426 -1.1991
 4548TIP3   OH235202   0.276   1.949   2.026  0.2249 -0.0502  0.1245
 4548TIP3    H135203   0.361   1.905   2.028 -0.4656 -1.4471 -0.2271
 4548TIP3    H235204   0.212   1.881   2.047 -1.0684  0.2963 -2.3159
 4549TIP3   OH235205   0.473   6.634   8.842  0.4611 -0.0150  0.1239
 4549TIP3    H135206   0.459   6.589   8.758  0.4972 -0.9760  0.6174
 4549TIP3    H235207   0.535   6.703   8.822  2.0322 -1.4707 -0.2793
 4550TIP3   OH235208   3.042   5.014   7.256 -0.0626 -0.5882  0.1727
 4550TIP3    H135209   3.125   5.031   7.211 -1.4312  1.6771 -1.7635
 4550TIP3    H235210   3.039   4.919   7.266  1.6848 -0.9557 -1.9117
 4551TIP3   OH235211   1.394   3.357   1.524  0.3625 -0.2897  0.1617
 4551TIP3    H135212   1.483   3.342   1.493  0.0597  0.0912 -0.9776
 4551TIP3    H235213   1.403   3.376   1.617  1.8127  2.5179 -0.4243
 4552TIP3   OH235214   3.851   2.731   8.747  0.0493  0.2822  0.0025
 4552TIP3    H135215   3.789   2.778   8.691  0.9048  1.1815 -0.2124
 4552TIP3    H235216   3.796   2.672   8.799 -1.1362  1.9828  0.7685
 4553TIP3   OH235217   1.589   5.850   0.374 -0.1699 -0.2791 -0.3715
 4553TIP3    H135218   1.683   5.834   0.364 -0.1937 -1.9739  1.5677
 4553TIP3    H235219   1.581   5.901   0.454 -0.8911  0.6036 -0.9711
 4554TIP3   OH235220   2.113   4.900   8.743  0.3258 -0.0809 -0.1398
 4554TIP3    H135221   2.066   4.817   8.755 -0.3979  0.1954 -0.9988
 4554TIP3    H235222   2.175   4.882   8.672  2.3396 -0.7679  1.7083
 4555TIP3   OH235223   5.437   5.324   1.484  0.9072  0.7443  0.7419
 4555TIP3    H135224   5.504   5.338   1.417 -1.1804  0.2558 -1.6090
 4555TIP3    H235225   5.402   5.236   1.465  0.7039  0.2875  2.9520
 4556TIP3   OH235226   5.255   5.205   0.076 -0.0881 -0.2110 -0.8189
 4556TIP3    H135227   5.298   5.181  -0.006  1.3092 -0.2214 -0.1259
 4556TIP3    H235228   5.315   5.173   0.144 -0.0263  1.8298  0.1666
 4557TIP3   OH235229   2.011   6.630   1.775  0.2685 -0.1093  0.3901
 4557TIP3    H135230   2.073   6.566   1.740  0.3623  0.1711  0.0253
 4557TIP3    H235231   2.035   6.639   1.867  0.2618 -0.5850  0.4415
 4558TIP3   OH235232   2.037   1.417   6.347 -0.6567  0.1179  0.4531
 4558TIP3    H135233   1.953   1.389   6.383 -0.3451 -0.6501  0.6000
 4558TIP3    H235234   2.054   1.501   6.389 -1.9228  0.8754 -0.4940
 4559TIP3   OH235235   5.578   3.682   6.896 -0.1179 -0.5776 -0.3845
 4559TIP3    H135236   5.488   3.648   6.898 -0.4486  0.3201  1.2446
 4559TIP3    H235237   5.580   3.738   6.818 -1.6768  1.1290  0.7122
 4560TIP3   OH235238   0.701   0.695   0.804 -0.1833  0.2474 -0.5290
 4560TIP3    H135239   0.786   0.671   0.767  1.8702  2.2770  2.3455
 4560TIP3    H235240   0.677   0.620   0.859  0.8847  0.4554  0.2714
 4561TIP3   OH235241   4.434   5.272   2.128 -0.7017  0.7564 -0.3144
 4561TIP3    H135242   4.401   5.188   2.159 -0.0689 -0.0232 -1.6644
 4561TIP3    H235243   4.375   5.337   2.166 -1.9506 -0.3855 -0.2386
 4562TIP3   OH235244   5.139   3.307   7.865  0.0569 -0.0389  0.1977
 4562TIP3    H135245   5.123   3.381   7.806  0.7078  0.4607  0.6532
 4562TIP3    H235246   5.060   3.302   7.919  0.3914  0.8948  0.7820
 4563TIP3   OH235247   1.639   6.002   1.114  0.0939 -0.3679  0.1971
 4563TIP3    H135248   1.550   5.999   1.147  0.7215 -2.6527  1.9855
 4563TIP3    H235249   1.687   6.054   1.178  0.2774 -0.0777 -0.1682
 4564TIP3   OH235250   3.767   3.239   6.365  0.0935  0.0292 -0.3064
 4564TIP3    H135251   3.822   3.317   6.377  0.7380 -0.2440 -1.4035
 4564TIP3    H235252   3.807   3.192   6.292 -1.7773 -0.0294 -1.3474
 4565TIP3   OH235253   2.288   1.097   0.124  0.5103  0.0755  0.1121
 4565TIP3    H135254   2.237   1.175   0.101  0.8346 -0.0217 -1.0246
 4565TIP3    H235255   2.378   1.128   0.130  0.3529  0.2357  2.0650
 4566TIP3   OH235256   2.378   3.602   0.105 -0.4204  0.1355 -0.0288
 4566TIP3    H135257   2.318   3.677   0.114  0.1293  0.6134 -0.2751
 4566TIP3    H235258   2.355   3.545   0.178 -1.6141 -0.0034 -0.4891
 4567TIP3   OH235259   2.927   5.785   1.799  0.0204  0.1764 -0.0595
 4567TIP3    H135260   2.984   5.714   1.770 -0.1797 -0.2641  0.6095
 4567TIP3    H235261   2.864   5.796   1.728 -0.6732 -1.1087  0.3221
 4568TIP3   OH235262   3.920   6.462   8.127 -0.0364  0.3885 -0.6203
 4568TIP3    H135263   3.851   6.472   8.063 -1.7394 -2.2534  0.6395
 4568TIP3    H235264   3.876   6.430   8.206  2.4425 -0.1927  0.6481
 4569TIP3   OH235265   5.850   1.648   1.466  0.0702 -0.3360 -0.4850
 4569TIP3    H135266   5.834   1.583   1.534  2.0130  0.1399  0.4897
 4569TIP3    H235267   5.871   1.728   1.513 -1.1273  0.7175 -1.6688
 4570TIP3   OH235268   2.652   3.306   1.075  0.3882 -0.0721  0.2814
 4570TIP3    H135269   2.587   3.236   1.068  0.5522 -0.1093 -1.3974
 4570TIP3    H235270   2.736   3.260   1.078  0.4033  0.0056  1.4859
 4571TIP3   OH235271   1.397   4.840   0.801  0.7034  0.5397  0.7604
 4571TIP3    H135272   1.482   4.870   0.769  1.4282 -2.1216 -0.0938
 4571TIP3    H235273   1.342   4.834   0.722  0.5962 -0.2694  0.8793
 4572TIP3   OH235274   3.934   3.745   6.642  0.8027  0.1227 -0.1947
 4572TIP3    H135275   4.003   3.760   6.707  0.2759  0.7701  0.2236
 4572TIP3    H235276   3.861   3.710   6.691  0.1586  1.2485 -0.3046
 4573TIP3   OH235277   2.645   3.847   1.379  0.8948 -0.4705 -0.0443
 4573TIP3    H135278   2.561   3.846   1.333  1.0517  0.6728 -0.3649
 4573TIP3    H235279   2.624   3.811   1.466 -0.1533  0.7919  0.2543
 4574TIP3   OH235280   5.039   5.247   0.494 -0.3683 -0.0159 -0.3534
 4574TIP3    H135281   4.951   5.235   0.459 -0.5915 -0.3712  0.2968
 4574TIP3    H235282   5.029   5.314   0.561 -0.2503 -0.4236  0.0791
 4575TIP3   OH235283   3.302   3.845   8.306 -0.4569  0.1519 -0.4066
 4575TIP3    H135284   3.382   3.894   8.286  0.2266  0.0389  1.8641
 4575TIP3    H235285   3.321   3.755   8.277  0.3086  0.0916  0.2557
 4576TIP3   OH235286   5.239   5.083   0.527 -0.1053 -0.3304 -0.4940
 4576TIP3    H135287   5.246   5.025   0.450 -1.0698  0.0369 -0.8799
 4576TIP3    H235288   5.153   5.124   0.517 -0.4935 -0.7037  1.0957
 4577TIP3   OH235289   5.520   5.906   0.614 -0.6189 -0.7808 -0.0921
 4577TIP3    H135290   5.453   5.974   0.619  0.3476  0.1380  1.0812
 4577TIP3    H235291   5.528   5.887   0.520 -1.2146  0.4106 -0.4020
 4578TIP3   OH235292   6.368   2.587   0.752 -0.6077 -0.0072  0.2186
 4578TIP3    H135293   6.459   2.570   0.730 -0.6811 -2.1943  1.2907
 4578TIP3    H235294   6.319   2.561   0.674 -0.3197  1.9240 -0.6560
 4579TIP3   OH235295   4.601   6.505   6.584  0.1899  0.2107 -0.1821
 4579TIP3    H135296   4.654   6.516   6.505  0.7718 -1.9685 -0.1582
 4579TIP3    H235297   4.554   6.588   6.593 -0.2073  0.3795 -3.0449
 4580TIP3   OH235298   1.447   1.197   2.413  0.2535  0.1121  0.0572
 4580TIP3    H135299   1.442   1.198   2.317  0.0923  0.9995  0.0652
 4580TIP3    H235300   1.473   1.286   2.436  0.9736 -0.2762  0.8088
 4581TIP3   OH235301   3.525   5.422   1.454 -0.0468 -0.4721  0.0018
 4581TIP3    H135302   3.529   5.348   1.394  0.5537 -0.1825 -0.3184
 4581TIP3    H235303   3.434   5.422   1.485  0.2059 -1.9650  0.8209
 4582TIP3   OH235304   3.524   3.308   6.579 -0.2281  0.1593  0.2689
 4582TIP3    H135305   3.438   3.293   6.620  0.8787 -0.6293  2.4302
 4582TIP3    H235306   3.561   3.381   6.629  0.6033  0.1083 -0.2676
 4583TIP3   OH235307   2.137   2.059   7.926  0.5743  0.1085 -0.3234
 4583TIP3    H135308   2.074   2.004   7.972  1.0840 -1.0491 -0.9893
 4583TIP3    H235309   2.093   2.081   7.843  0.0764  1.3373  0.2404
 4584TIP3   OH235310   2.931   2.864   0.453  0.3399  0.4645 -0.0923
 4584TIP3    H135311   2.988   2.851   0.378  0.5641  1.0065 -0.0270
 4584TIP3    H235312   2.869   2.792   0.450  0.8998 -0.0133 -0.2896
 4585TIP3   OH235313   5.529   2.573   0.743 -0.1880  0.0994  0.0430
 4585TIP3    H135314   5.621   2.570   0.718  0.3030 -1.0102  1.8100
 4585TIP3    H235315   5.530   2.569   0.839 -1.9924  3.0223  0.2900
 4586TIP3   OH235316   6.513   0.594   0.089  0.0280  0.1338 -0.1276
 4586TIP3    H135317   6.537   0.684   0.069  0.1873 -0.0058 -0.5739
 4586TIP3    H235318   6.430   0.601   0.136 -0.6217  0.4514 -1.2844
 4587TIP3   OH235319   2.730   2.638   7.205 -0.4806  0.0368  0.5110
 4587TIP3    H135320   2.718   2.611   7.114  0.6342 -3.0662  1.1689
 4587TIP3    H235321   2.664   2.706   7.219 -0.7495  0.5454 -2.5363
 4588TIP3   OH235322   6.022   6.769   8.402 -0.5898 -0.8252 -0.2439
 4588TIP3    H135323   5.938   6.793   8.363  0.8768  0.3078 -2.9569
 4588TIP3    H235324   6.078   6.845   8.386  1.1024 -1.7347  1.0877
 4589TIP3   OH235325   5.960   4.779   0.342 -0.5091 -0.5933 -0.4183
 4589TIP3    H135326   6.021   4.830   0.288 -1.1487  1.0014  0.2987
 4589TIP3    H235327   5.977   4.688   0.318  1.9011 -0.1833 -0.5092
 4590TIP3   OH235328   6.566   0.822   1.292  0.0162 -0.0422 -0.3237
 4590TIP3    H135329   6.523   0.791   1.372 -1.0506  1.0389 -0.4388
 4590TIP3    H235330   6.648   0.860   1.323  0.2890 -0.9430  0.0758
 4591TIP3   OH235331   0.198   3.481   0.444  0.0551 -0.0331 -0.0681
 4591TIP3    H135332   0.255   3.558   0.442 -0.7476  0.5635 -0.6655
 4591TIP3    H235333   0.227   3.427   0.370  1.6810 -1.1276  1.2898
 4592TIP3   OH235334   3.221   6.062   8.175  0.1874  0.8701  0.2415
 4592TIP3    H135335   3.198   6.008   8.099 -0.0908 -0.6332  1.3524
 4592TIP3    H235336   3.149   6.048   8.237  1.1469  0.8383  1.3832
 4593TIP3   OH235337   2.272   4.577   8.729 -0.3352  0.3145 -0.6746
 4593TIP3    H135338   2.292   4.642   8.662  1.1652 -1.4547 -2.0630
 4593TIP3    H235339   2.358   4.543   8.755 -1.0499 -3.0443 -2.0994
 4594TIP3   OH235340   1.810   2.482   7.340 -0.3401  0.1490 -0.5192
 4594TIP3    H135341   1.788   2.398   7.381  1.0096  0.2784  0.5482
 4594TIP3    H235342   1.824   2.460   7.248 -0.1792 -0.7783 -0.2927
 4595TIP3   OH235343   3.038   5.029   1.593  0.3097 -0.0538  0.9367
 4595TIP3    H135344   2.995   4.984   1.666 -2.8845 -0.7577 -1.1842
 4595TIP3    H235345   3.116   4.977   1.575 -0.3356 -1.4883  2.1033
 4596TIP3   OH235346   0.171   5.408   2.434  0.3329  0.2689 -0.1313
 4596TIP3    H135347   0.122   5.386   2.513  0.9010 -2.9239 -0.5414
 4596TIP3    H235348   0.105   5.417   2.366 -0.0040  1.0096  0.2815
 4597TIP3   OH235349   6.580   0.397   0.411  0.1799 -0.6495  0.7290
 4597TIP3    H135350   6.551   0.440   0.491 -0.9714 -1.7290  0.9169
 4597TIP3    H235351   6.541   0.310   0.414  0.6518 -0.9469 -0.6937
 4598TIP3   OH235352   6.070   2.399   0.247 -0.0760  0.3322 -0.4499
 4598TIP3    H135353   6.071   2.401   0.152  0.7519  0.3003 -0.4511
 4598TIP3    H235354   6.121   2.475   0.274  0.4426 -0.1471 -0.0483
 4599TIP3   OH235355   1.076   3.457   8.526 -0.4843 -0.1148 -0.1801
 4599TIP3    H135356   1.129   3.470   8.605 -0.5644  0.2385 -0.1836
 4599TIP3    H235357   1.029   3.375   8.542 -0.8641  0.2011  0.3388
 4600TIP3   OH235358   6.002   6.576   8.114 -0.6249  0.3737  0.3493
 4600TIP3    H135359   6.072   6.511   8.114 -0.7939  0.1516  1.8302
 4600TIP3    H235360   6.042   6.655   8.076 -0.3756 -0.5240 -1.3195
 4601TIP3   OH235361   1.089   6.420   7.320 -0.3837 -0.7219  0.5431
 4601TIP3    H135362   1.076   6.514   7.326  1.7577 -0.3418 -0.2185
 4601TIP3    H235363   1.106   6.404   7.227  1.1275 -1.5851  0.9467
 4602TIP3   OH235364   3.112   1.258   0.025  0.3032  0.1011  0.2037
 4602TIP3    H135365   3.120   1.165   0.007 -1.3926  0.4982 -3.2371
 4602TIP3    H235366   3.026   1.283  -0.009  1.9554  3.4766 -2.0837
 4603TIP3   OH235367   0.832   5.060   1.205  0.5624 -0.0237  0.0761
 4603TIP3    H135368   0.881   5.064   1.287 -0.4840 -1.7557  0.8398
 4603TIP3    H235369   0.757   5.117   1.220  1.7750  1.8723 -0.7461
 4604TIP3   OH235370   5.070   1.411   1.833 -0.8875  0.7059 -1.2033
 4604TIP3    H135371   5.128   1.482   1.807  1.7195 -1.5443 -2.0473
 4604TIP3    H235372   5.102   1.385   1.920 -1.7216  0.4464 -0.9627
 4605TIP3   OH235373   0.475   3.404   1.314  0.5204 -0.5461 -0.0550
 4605TIP3    H135374   0.438   3.320   1.290  1.9546 -1.1579 -0.2690
 4605TIP3    H235375   0.570   3.392   1.304  0.8322  0.7506  0.9783
 4606TIP3   OH235376   3.647   6.042   7.416  0.5592  0.0642 -0.1266
 4606TIP3    H135377   3.615   6.073   7.501 -0.8106 -0.6602 -0.3529
 4606TIP3    H235378   3.743   6.048   7.423  0.4259  1.9414  0.7101
 4607TIP3   OH235379   4.980   1.906   0.062 -0.2199 -0.4728 -0.0517
 4607TIP3    H135380   5.042   1.845   0.103  1.0116  0.9331  0.2875
 4607TIP3    H235381   4.996   1.897  -0.032  1.1949  0.5103  0.0618
 4608TIP3   OH235382   1.742   2.180   2.208  0.3465  0.1986  0.2342
 4608TIP3    H135383   1.688   2.232   2.267  0.7107 -0.3874  1.1079
 4608TIP3    H235384   1.734   2.090   2.242  0.9056 -0.0807 -0.3535
 4609TIP3   OH235385   1.817   4.877   8.028  0.1088  0.1449 -0.2500
 4609TIP3    H135386   1.876   4.846   7.960 -1.4124  0.6747 -1.9050
 4609TIP3    H235387   1.797   4.968   8.003 -0.5653  0.3117  0.8363
 4610TIP3   OH235388   2.863   5.607   8.538 -0.6356  0.1884 -0.4889
 4610TIP3    H135389   2.884   5.555   8.615  0.0198  1.3649  0.1575
 4610TIP3    H235390   2.919   5.571   8.469 -1.3563 -0.9844 -0.4901
 4611TIP3   OH235391   1.926   3.420   0.151  0.2663  0.2554  0.3075
 4611TIP3    H135392   2.010   3.455   0.179  0.3068  0.4018  0.0118
 4611TIP3    H235393   1.917   3.449   0.060  0.3147 -0.5337  0.0472
 4612TIP3   OH235394   1.408   0.572   2.144  0.2125  0.3070 -0.0852
 4612TIP3    H135395   1.421   0.517   2.066 -0.2387  0.2455 -0.1205
 4612TIP3    H235396   1.462   0.649   2.128  0.7641 -0.0698 -0.0908
 4613TIP3   OH235397   5.825   1.148   2.148 -0.6632  0.3314 -0.6635
 4613TIP3    H135398   5.880   1.227   2.145 -0.6412  0.4040  1.0171
 4613TIP3    H235399   5.885   1.078   2.171 -0.8754 -0.0121 -1.1397
 4614TIP3   OH235400   0.249   4.040   7.466 -0.0205  0.5455  0.0914
 4614TIP3    H135401   0.210   4.064   7.381  0.5553  0.2007 -0.2737
 4614TIP3    H235402   0.216   3.952   7.483  2.5688 -0.8405 -1.4702
 4615TIP3   OH235403   4.097   6.076   0.297  0.1258 -0.1384 -0.3885
 4615TIP3    H135404   4.079   6.084   0.203  1.1909  0.7296 -0.5341
 4615TIP3    H235405   4.182   6.117   0.309  0.5870 -1.3643  0.7655
 4616TIP3   OH235406   2.250   4.817   7.938 -0.1502 -0.6964 -0.5551
 4616TIP3    H135407   2.179   4.845   7.880  0.8019  0.7179 -1.1184
 4616TIP3    H235408   2.326   4.867   7.908  0.6848 -0.8918  1.1009
 4617TIP3   OH235409   1.973   4.662   8.770 -0.5114  0.3493  0.0388
 4617TIP3    H135410   1.908   4.596   8.796 -0.1790  0.3083  0.8068
 4617TIP3    H235411   2.039   4.658   8.839 -0.6928  1.7688  0.3202
 4618TIP3   OH235412   4.906   2.416   1.996  0.2670 -0.4989 -0.0306
 4618TIP3    H135413   4.923   2.373   2.080  3.1382 -0.1363 -0.3298
 4618TIP3    H235414   4.874   2.503   2.019 -2.0748 -1.4320  0.5834
 4619TIP3   OH235415   2.274   1.596   1.067 -0.1573  0.2984  0.2874
 4619TIP3    H135416   2.192   1.645   1.072 -0.5772 -0.3383 -0.1950
 4619TIP3    H235417   2.340   1.662   1.050 -0.4472  0.9220  1.4840
 4620TIP3   OH235418   5.632   6.105   1.972 -0.0028  0.4452 -0.3653
 4620TIP3    H135419   5.718   6.064   1.979 -0.1498 -0.2257 -1.9010
 4620TIP3    H235420   5.629   6.167   2.044  0.9652 -0.9374  0.9356
 4621TIP3   OH235421   2.994   4.740   0.974 -0.0816  0.0710 -0.0989
 4621TIP3    H135422   2.991   4.648   0.999 -0.0388  0.0526 -0.1631
 4621TIP3    H235423   3.054   4.743   0.899 -1.7822 -0.1785 -1.5259
 4622TIP3   OH235424   0.696   1.578   7.164 -0.2257 -0.0004 -0.5813
 4622TIP3    H135425   0.774   1.539   7.204  0.9240 -0.3412 -2.9763
 4622TIP3    H235426   0.695   1.543   7.075 -2.9087  0.3538 -0.7705
 4623TIP3   OH235427   5.418   6.253   7.462 -1.1760  0.2369 -0.3791
 4623TIP3    H135428   5.468   6.172   7.458 -0.0642  0.9315 -1.0212
 4623TIP3    H235429   5.472   6.312   7.515 -2.2903  0.3575  0.6602
 4624TIP3   OH235430   4.121   4.801   2.398  0.2722  0.0732 -0.0170
 4624TIP3    H135431   4.172   4.723   2.378 -2.3032 -1.7916  0.1186
 4624TIP3    H235432   4.116   4.802   2.494 -1.1811 -0.7384 -0.0431
 4625TIP3   OH235433   1.940   6.609   0.398  0.5400 -0.3812 -1.0205
 4625TIP3    H135434   1.973   6.633   0.485  1.7194 -0.7872 -1.3273
 4625TIP3    H235435   1.915   6.517   0.406 -0.0277 -0.2194 -0.9262
 4626TIP3   OH235436   2.126   1.329   0.112  0.5706 -0.0382  0.2587
 4626TIP3    H135437   2.191   1.335   0.041 -0.1787 -0.7432 -0.5192
 4626TIP3    H235438   2.103   1.419   0.131 -2.6292  0.2683 -3.6970
 4627TIP3   OH235439   2.980   0.889   6.807  0.3363  0.0993  0.0022
 4627TIP3    H135440   3.025   0.965   6.770  1.0536  0.0066  0.6607
 4627TIP3    H235441   2.949   0.840   6.731 -0.6112  1.3095 -0.4279
 4628TIP3   OH235442   1.876   4.412   1.302 -0.0010  0.2705 -0.6998
 4628TIP3    H135443   1.829   4.468   1.241  0.8455  2.5893  0.6244
 4628TIP3    H235444   1.872   4.459   1.386  2.1182 -0.8872  0.1337
 4629TIP3   OH235445   2.539   3.482   1.641 -0.3137 -0.4088 -0.1731
 4629TIP3    H135446   2.548   3.456   1.550  2.6416 -0.2509 -0.0263
 4629TIP3    H235447   2.519   3.401   1.688  0.1562 -0.8455 -0.7216
 4630TIP3   OH235448   4.333   3.983   1.943  0.3062  0.2818  0.4012
 4630TIP3    H135449   4.287   3.904   1.917  0.5851  0.7716 -1.7577
 4630TIP3    H235450   4.288   4.054   1.897  2.5686  0.8786 -1.0715
 4631TIP3   OH235451   0.829   5.123   8.697 -0.1777  0.3744  0.0826
 4631TIP3    H135452   0.753   5.065   8.704 -0.0568  0.3719  1.6057
 4631TIP3    H235453   0.904   5.067   8.714  0.0845  0.6283 -0.2111
 4632TIP3   OH235454   1.175   6.272   1.575  0.3556  0.0081 -0.1809
 4632TIP3    H135455   1.133   6.191   1.545  1.4218 -0.2771 -0.9521
 4632TIP3    H235456   1.105   6.338   1.569 -0.8573 -1.0303  1.5361
 4633TIP3   OH235457   2.575   5.811   0.221  0.0329  0.0708  0.5222
 4633TIP3    H135458   2.519   5.887   0.206  0.3380 -0.0047 -1.2235
 4633TIP3    H235459   2.532   5.762   0.291  0.0480  2.0445  1.9980
 4634TIP3   OH235460   6.750   1.844   2.255  0.1718  0.4941  0.6108
 4634TIP3    H135461   6.771   1.758   2.291 -1.0237 -0.5795 -1.0808
 4634TIP3    H235462   6.764   1.905   2.327  2.0372 -0.9657  1.5838
 4635TIP3   OH235463   0.050   0.314   1.094  0.0007  0.1748  0.3306
 4635TIP3    H135464   0.141   0.330   1.071 -0.6158 -0.4544 -3.0707
 4635TIP3    H235465   0.015   0.400   1.116  0.5292  1.1135 -2.1786
 4636TIP3   OH235466   4.494   2.047   7.372  0.2875 -0.7514 -0.4256
 4636TIP3    H135467   4.555   2.073   7.303 -0.5714 -0.1494 -0.9780
 4636TIP3    H235468   4.520   2.100   7.448 -0.6737  0.8684 -1.1894
 4637TIP3   OH235469   0.636   5.058   0.159  0.1094  0.3296  0.2072
 4637TIP3    H135470   0.551   5.015   0.147  0.1508  0.5330 -0.9321
 4637TIP3    H235471   0.645   5.114   0.082  2.4861 -1.7000 -1.0999
 4638TIP3   OH235472   1.608   2.191   0.796 -0.4339  0.1594  0.0020
 4638TIP3    H135473   1.618   2.153   0.709  0.0982 -1.4485  0.7248
 4638TIP3    H235474   1.696   2.220   0.820 -0.3291 -0.5117  0.4673
 4639TIP3   OH235475   1.032   4.863   7.704 -0.2951  0.3287  0.4207
 4639TIP3    H135476   0.964   4.924   7.677 -1.0734  0.2716  2.1778
 4639TIP3    H235477   0.986   4.781   7.721  0.5630 -0.4123 -0.6745
 4640TIP3   OH235478   4.214   6.141   0.646  0.2955  0.0210 -0.3674
 4640TIP3    H135479   4.248   6.214   0.698 -1.5551  0.5893  0.1157
 4640TIP3    H235480   4.189   6.075   0.712 -0.4760  0.0361 -0.6447
 4641TIP3   OH235481   3.372   5.435   0.802 -0.1478 -0.0370 -0.8380
 4641TIP3    H135482   3.386   5.473   0.715  0.6498  2.0057  0.1063
 4641TIP3    H235483   3.310   5.494   0.844  0.6796 -0.0807  0.4998
 4642TIP3   OH235484   5.988   4.170   0.359  0.2145  0.2422  0.1075
 4642TIP3    H135485   6.037   4.130   0.288 -0.6629  0.6755 -0.7586
 4642TIP3    H235486   5.967   4.258   0.328  1.2294  1.0409  1.5701
 4643TIP3   OH235487   2.190   5.438   8.260  0.3249  0.2801  0.8854
 4643TIP3    H135488   2.172   5.348   8.288  1.2529 -0.0368  0.5106
 4643TIP3    H235489   2.267   5.430   8.204 -0.3427  1.1413 -0.2132
 4644TIP3   OH235490   6.701   0.400   7.282  0.1316 -0.0070  0.0819
 4644TIP3    H135491   6.676   0.310   7.304 -0.7301  0.5308  1.4627
 4644TIP3    H235492   6.619   0.448   7.281  0.5395  0.6947 -1.0979
 4645TIP3   OH235493   3.197   5.938   6.290 -0.4482 -0.3886 -0.0863
 4645TIP3    H135494   3.237   5.863   6.246 -2.3272 -1.7728  0.4183
 4645TIP3    H235495   3.225   5.930   6.381 -1.6387 -1.2667  0.2338
 4646TIP3   OH235496   4.176   2.151   0.007 -0.1490 -0.0351  0.4469
 4646TIP3    H135497   4.233   2.204   0.064  0.8674 -1.9790  1.3411
 4646TIP3    H235498   4.221   2.067   0.001 -1.1162 -0.4475 -1.9022
 4647TIP3   OH235499   1.834   0.736   7.517  0.0513 -0.1388 -0.5176
 4647TIP3    H135500   1.893   0.676   7.472  0.8599  0.7775 -0.7177
 4647TIP3    H235501   1.746   0.701   7.501  0.4762 -0.9896 -1.0260
 4648TIP3   OH235502   0.194   3.968   2.431  0.1170 -0.3756  0.3947
 4648TIP3    H135503   0.117   3.969   2.374  1.2412 -3.3078 -1.4436
 4648TIP3    H235504   0.187   3.885   2.479  1.8969 -0.5350  0.4419
 4649TIP3   OH235505   0.159   4.325   8.786  0.3423 -0.2456  0.5435
 4649TIP3    H135506   0.180   4.414   8.759  1.2501 -0.1411  1.5228
 4649TIP3    H235507   0.098   4.336   8.859  1.9238 -0.3099  1.9549
 4650TIP3   OH235508   0.320   2.798   2.332 -0.2286  0.2544 -0.0377
 4650TIP3    H135509   0.279   2.712   2.328  3.3214 -1.5691 -1.9462
 4650TIP3    H235510   0.382   2.792   2.405 -1.0674  1.8567  0.8718
 4651TIP3   OH235511   6.493   4.475   8.095 -0.2302 -0.2255 -0.5554
 4651TIP3    H135512   6.563   4.539   8.091 -1.7210  1.8131  2.4058
 4651TIP3    H235513   6.526   4.407   8.154 -0.2405  0.0605 -0.2172
 4652TIP3   OH235514   3.636   1.734   1.640 -0.1155  0.0680 -0.1178
 4652TIP3    H135515   3.613   1.827   1.652 -0.6354 -0.0546 -0.1347
 4652TIP3    H235516   3.623   1.695   1.726  0.4766  0.0861 -0.0195
 4653TIP3   OH235517   0.038   3.790   0.556  0.2334  0.1124  0.0326
 4653TIP3    H135518  -0.057   3.788   0.554  0.1022 -4.3272  0.3140
 4653TIP3    H235519   0.064   3.788   0.464  0.0432  0.6545 -0.0339
 4654TIP3   OH235520   2.746   0.792   7.428  0.6212  0.3258  0.2435
 4654TIP3    H135521   2.673   0.809   7.488  0.9868 -2.9650  1.8240
 4654TIP3    H235522   2.724   0.709   7.386  2.1810  0.6875 -1.4283
 4655TIP3   OH235523   0.259   2.444   0.565  0.6239  0.1348  0.0081
 4655TIP3    H135524   0.251   2.539   0.558  0.3509  0.2243  1.3018
 4655TIP3    H235525   0.169   2.412   0.562  0.7413 -0.1393 -0.9201
 4656TIP3   OH235526   4.753   1.664   1.390 -0.2505 -0.3831 -0.2141
 4656TIP3    H135527   4.817   1.657   1.319 -1.1015 -2.1619 -0.8745
 4656TIP3    H235528   4.724   1.755   1.387  0.6879 -0.0906 -1.2744
 4657TIP3   OH235529   2.165   4.504   7.954  0.4191  0.0746  0.2316
 4657TIP3    H135530   2.244   4.461   7.988  0.0304 -0.2923  0.6825
 4657TIP3    H235531   2.196   4.588   7.922  0.8472  0.3262  1.2735
 4658TIP3   OH235532   0.143   2.894   2.673 -0.0511  0.3524  0.3338
 4658TIP3    H135533   0.124   2.800   2.681  1.6253  0.0507  1.2593
 4658TIP3    H235534   0.228   2.904   2.714  0.1915  2.1606 -0.5439
 4659TIP3   OH235535   3.766   2.464   6.290 -0.0844 -0.0117  0.1698
 4659TIP3    H135536   3.841   2.516   6.261 -0.4745 -0.4111 -1.7047
 4659TIP3    H235537   3.803   2.379   6.313  0.0281 -0.3641 -1.2099
 4660TIP3   OH235538   4.916   0.987   6.490  0.4659 -0.0387 -0.0321
 4660TIP3    H135539   4.836   1.040   6.499  0.8294  0.4324  0.4253
 4660TIP3    H235540   4.901   0.936   6.410  0.9527  2.2250 -1.6441
 4661TIP3   OH235541   4.916   4.582   1.527  0.2386  0.0348  0.1776
 4661TIP3    H135542   4.843   4.520   1.520 -0.7898  1.2348 -0.0804
 4661TIP3    H235543   4.946   4.593   1.437 -1.5424  2.1259 -0.2484
 4662TIP3   OH235544   0.939   0.738   6.486  0.0815  0.1088  0.0043
 4662TIP3    H135545   0.847   0.737   6.514  0.1591 -0.6307  0.2460
 4662TIP3    H235546   0.951   0.825   6.447 -0.8096  0.0849 -0.3412
 4663TIP3   OH235547   0.080   3.092   0.948 -0.2733 -0.0816  0.3892
 4663TIP3    H135548   0.175   3.084   0.949 -0.2247  0.4729  0.6791
 4663TIP3    H235549   0.057   3.114   1.038 -0.7295 -0.7225  0.4364
 4664TIP3   OH235550   1.311   2.851   6.857  0.0259  0.5332 -0.3952
 4664TIP3    H135551   1.290   2.815   6.943 -1.3747 -0.8082 -1.2367
 4664TIP3    H235552   1.277   2.940   6.859  0.6574  0.7614  0.6686
 4665TIP3   OH235553   6.418   0.664   2.491 -0.0042 -0.0582 -0.0682
 4665TIP3    H135554   6.471   0.659   2.412  0.5541 -0.7406  0.3348
 4665TIP3    H235555   6.345   0.605   2.474 -0.0901  0.0906 -0.2216
 4666TIP3   OH235556   0.606   5.077   8.345 -0.1386  0.0305  0.9969
 4666TIP3    H135557   0.682   5.021   8.329 -1.0755 -0.9689 -0.1152
 4666TIP3    H235558   0.627   5.123   8.426  1.7942  0.0361  0.5416
 4667TIP3   OH235559   2.034   2.450   8.699  0.3141  0.0365 -0.5859
 4667TIP3    H135560   1.990   2.535   8.690 -1.8366 -0.8067  1.1235
 4667TIP3    H235561   1.991   2.394   8.634 -0.5405 -0.5254  0.4200
 4668TIP3   OH235562   2.080   2.198   7.391  0.2220 -0.4591 -0.2498
 4668TIP3    H135563   2.090   2.292   7.378  3.1945 -0.6049  0.3310
 4668TIP3    H235564   2.020   2.191   7.466  2.9551  1.2116  2.2974
 4669TIP3   OH235565   2.408   4.352   0.531  0.0818  0.1316 -0.3880
 4669TIP3    H135566   2.328   4.332   0.482 -0.1639  0.5544 -0.1688
 4669TIP3    H235567   2.404   4.293   0.607  0.0915 -0.0069 -0.4955
 4670TIP3   OH235568   4.692   1.987   2.307 -0.5558  0.3380  0.0114
 4670TIP3    H135569   4.768   2.034   2.272  0.9698  0.0175  2.6977
 4670TIP3    H235570   4.677   1.917   2.244  0.3862  1.3010 -1.3596
 4671TIP3   OH235571   3.202   3.628   8.602 -0.0286  1.1139  0.1643
 4671TIP3    H135572   3.197   3.704   8.660 -0.1640 -0.7026  2.7057
 4671TIP3    H235573   3.119   3.629   8.555 -0.7296  1.6844  1.3594
 4672TIP3   OH235574   1.358   3.564   8.181  0.3186  0.0564 -0.2685
 4672TIP3    H135575   1.276   3.591   8.140  0.9229  0.5717 -1.1831
 4672TIP3    H235576   1.355   3.468   8.182 -0.3831  0.0788 -0.0891
 4673TIP3   OH235577   1.196   2.251   7.392  0.1662  0.0532  0.0035
 4673TIP3    H135578   1.175   2.220   7.304 -0.3084 -0.4177  0.2829
 4673TIP3    H235579   1.248   2.181   7.431 -0.1654 -0.0169  0.3245
 4674TIP3   OH235580   1.802   5.084   1.937 -0.2208 -0.1742  0.0237
 4674TIP3    H135581   1.866   5.156   1.942  0.9418 -1.0283 -1.6109
 4674TIP3    H235582   1.824   5.028   2.012  1.8936 -1.1212 -1.1918
 4675TIP3   OH235583   5.867   1.559   7.854 -0.1532  0.0628  0.3074
 4675TIP3    H135584   5.956   1.563   7.820 -0.2075  1.0444  0.2275
 4675TIP3    H235585   5.821   1.629   7.807 -0.8986 -0.2693  0.5283
 4676TIP3   OH235586   3.140   1.555   0.538  0.5525 -0.5032  0.6978
 4676TIP3    H135587   3.147   1.460   0.525 -0.7978 -0.7618  1.5993
 4676TIP3    H235588   3.147   1.593   0.451 -1.8513 -1.6675 -0.0992
 4677TIP3   OH235589   5.193   0.085   1.443 -0.3707 -0.7841  0.2690
 4677TIP3    H135590   5.102   0.080   1.470 -1.1674  0.4825 -1.8982
 4677TIP3    H235591   5.224   0.169   1.477 -0.3281 -0.7588  0.1690
 4678TIP3   OH235592   5.881   0.801   0.514 -0.0556 -0.1038 -0.6026
 4678TIP3    H135593   5.875   0.894   0.491  0.0190 -0.0280 -0.3192
 4678TIP3    H235594   5.877   0.800   0.609  0.3247 -0.3647 -0.5879
 4679TIP3   OH235595   6.082   4.187   8.437 -0.3199  0.0022  0.3090
 4679TIP3    H135596   6.091   4.266   8.384 -0.0811  0.2858  0.7725
 4679TIP3    H235597   6.164   4.181   8.486 -0.8823  0.2250  1.2991
 4680TIP3   OH235598   2.646   6.239   7.811  0.0183  0.2981 -0.6597
 4680TIP3    H135599   2.601   6.203   7.734 -1.0642 -0.0407  0.1111
 4680TIP3    H235600   2.734   6.203   7.806 -0.1318  0.0287 -1.5821
 4681TIP3   OH235601   6.567   4.545   7.811 -0.2723 -0.1520  0.3732
 4681TIP3    H135602   6.549   4.474   7.872  2.7565 -0.1623  1.3751
 4681TIP3    H235603   6.480   4.576   7.785 -1.7295 -3.6584  0.4709
 4682TIP3   OH235604   0.007   0.149   7.734  0.1115  0.3092 -0.4171
 4682TIP3    H135605   0.057   0.069   7.747 -0.9322  0.0235  2.5741
 4682TIP3    H235606   0.069   0.219   7.753  0.8482  0.2414 -2.3987
 4683TIP3   OH235607   1.283   6.199   7.754 -0.5414  0.2145  0.1714
 4683TIP3    H135608   1.301   6.205   7.848 -1.2411 -0.6868  0.3841
 4683TIP3    H235609   1.265   6.289   7.727  2.5029  0.9657  0.2611
 4684TIP3   OH235610   1.085   4.407   0.901 -0.2430  0.3766 -0.0510
 4684TIP3    H135611   1.139   4.328   0.904 -1.2231 -0.3341 -0.2559
 4684TIP3    H235612   1.009   4.381   0.849 -1.8680  0.6052  2.0455
 4685TIP3   OH235613   1.874   5.055   1.675  0.1025  0.7740 -0.4524
 4685TIP3    H135614   1.863   5.045   1.770  1.3682 -2.3253 -0.5132
 4685TIP3    H235615   1.790   5.089   1.645 -0.4438  1.5445  1.7224
 4686TIP3   OH235616   2.101   1.841   6.459 -0.0881 -0.0582 -0.1881
 4686TIP3    H135617   2.177   1.835   6.401  0.2816 -0.6739  0.3562
 4686TIP3    H235618   2.138   1.853   6.546 -0.5018 -3.1980  0.5050
 4687TIP3   OH235619   1.418   1.497   2.183  0.0224 -0.3756 -0.0131
 4687TIP3    H135620   1.373   1.512   2.267  0.0818  1.5262 -0.2723
 4687TIP3    H235621   1.506   1.531   2.197  0.1399 -0.3714 -0.7465
 4688TIP3   OH235622   4.884   6.647   7.030  0.3581  0.1821 -0.1170
 4688TIP3    H135623   4.920   6.562   7.055  1.7392  0.4652 -1.0129
 4688TIP3    H235624   4.831   6.629   6.953  0.3206  0.0703 -0.0656
 4689TIP3   OH235625   3.489   4.155   8.105 -0.0992 -0.0129  0.0572
 4689TIP3    H135626   3.564   4.195   8.063 -0.1050  0.6984  0.7077
 4689TIP3    H235627   3.474   4.207   8.184  0.1334 -1.5119  1.1467
 4690TIP3   OH235628   4.293   5.541   6.883  0.2360  0.5693  0.3262
 4690TIP3    H135629   4.284   5.633   6.907 -0.4298  0.1542  1.8092
 4690TIP3    H235630   4.271   5.538   6.790 -3.2007  1.4333  1.0033
 4691TIP3   OH235631   5.166   1.254   2.617 -0.6267  0.1009 -0.1145
 4691TIP3    H135632   5.183   1.171   2.660 -1.2739 -0.5621 -1.0821
 4691TIP3    H235633   5.248   1.302   2.623  0.3910 -1.4118 -1.2632
 4692TIP3   OH235634   1.122   1.977   1.599 -0.2629 -0.4535 -0.3261
 4692TIP3    H135635   1.136   1.899   1.545 -0.2799 -0.5647 -0.1743
 4692TIP3    H235636   1.029   1.996   1.589 -0.4359 -0.9343  0.2630
 4693TIP3   OH235637   6.247   1.227   2.629  0.2010  0.6615  0.2901
 4693TIP3    H135638   6.214   1.181   2.706 -0.2964  0.7484  0.1362
 4693TIP3    H235639   6.189   1.199   2.558 -0.8426  2.3861  0.4113
 4694TIP3   OH235640   5.040   4.856   2.567 -0.3218 -0.1371 -0.4916
 4694TIP3    H135641   5.119   4.812   2.534 -1.7994 -1.7165 -2.1865
 4694TIP3    H235642   4.969   4.820   2.513 -2.2803  0.8536  1.3026
 4695TIP3   OH235643   1.744   6.000   1.697  0.1199 -0.3964  0.0725
 4695TIP3    H135644   1.801   6.069   1.731  0.2872 -0.7805  0.5974
 4695TIP3    H235645   1.774   5.920   1.742 -0.8092 -0.6087  0.3429
 4696TIP3   OH235646   5.097   1.016   7.966 -0.2188 -0.0411  0.1243
 4696TIP3    H135647   5.005   0.993   7.951  0.0497 -1.0673  0.0142
 4696TIP3    H235648   5.093   1.095   8.020 -1.1683 -0.0380  0.0614
 4697TIP3   OH235649   2.059   4.912   0.362  0.5076 -0.5094 -0.6992
 4697TIP3    H135650   2.040   4.837   0.418 -0.5202  0.2781  0.0269
 4697TIP3    H235651   1.974   4.940   0.329  0.9542 -0.0906 -1.5349
 4698TIP3   OH235652   0.740   2.595   8.589  0.1456  0.6086 -0.0860
 4698TIP3    H135653   0.649   2.619   8.604  0.4171  1.6778 -0.0771
 4698TIP3    H235654   0.788   2.636   8.660  0.2915 -2.9618  2.1242
 4699TIP3   OH235655   3.699   0.012   8.029 -0.2012 -0.1322 -0.0326
 4699TIP3    H135656   3.767   0.039   7.967  0.6110 -0.7208  0.5908
 4699TIP3    H235657   3.685   0.089   8.084  0.7146 -0.3266  0.4954
 4700TIP3   OH235658   2.662   6.201   1.854  0.6063 -0.1581  0.2400
 4700TIP3    H135659   2.711   6.283   1.846  0.1376  0.0223 -0.9348
 4700TIP3    H235660   2.729   6.136   1.878  1.8775 -0.3099 -3.1708
 4701TIP3   OH235661   2.264   2.409   1.488  0.1414  0.2685 -0.0729
 4701TIP3    H135662   2.317   2.331   1.471 -0.6906 -0.0862 -1.2006
 4701TIP3    H235663   2.325   2.471   1.528  0.3173 -1.7125  3.0463
 4702TIP3   OH235664   2.484   0.538   0.452 -0.1524 -0.0631 -0.4070
 4702TIP3    H135665   2.420   0.476   0.487  0.0889 -0.5126 -0.7497
 4702TIP3    H235666   2.541   0.558   0.527  1.1168 -1.9630 -0.7692
 4703TIP3   OH235667   6.080   4.698   8.414 -0.3249 -0.2918 -0.3706
 4703TIP3    H135668   6.073   4.613   8.457  3.0076 -0.0339  0.9840
 4703TIP3    H235669   6.105   4.758   8.484  0.7656  1.0677 -1.8572
 4704TIP3   OH235670   3.333   1.117   0.144 -0.2730  0.2084 -0.0912
 4704TIP3    H135671   3.264   1.078   0.091 -0.5698  0.7585 -0.1203
 4704TIP3    H235672   3.406   1.131   0.084  0.6735 -2.2602  0.3397
 4705TIP3   OH235673   0.953   3.110   1.342 -0.1502  0.5061 -0.1286
 4705TIP3    H135674   0.950   3.029   1.291 -0.2546  1.8083 -2.2934
 4705TIP3    H235675   1.019   3.164   1.299  1.6216  0.7853  2.6352
 4706TIP3   OH235676   4.945   4.285   2.011 -0.1335  0.2848  0.2481
 4706TIP3    H135677   5.033   4.265   2.041  1.6822 -0.6936 -4.8416
 4706TIP3    H235678   4.910   4.200   1.982 -3.2139  0.5103  2.7107
 4707TIP3   OH235679   0.963   3.692   8.385 -0.3022 -0.4474 -0.2094
 4707TIP3    H135680   1.024   3.634   8.431 -0.8659 -1.4857 -0.7224
 4707TIP3    H235681   0.969   3.775   8.431 -0.5859 -1.3393  1.5245
 4708TIP3   OH235682   6.764   5.022   1.314 -0.1277 -0.3659  0.2227
 4708TIP3    H135683   6.799   5.091   1.370  0.2943 -0.3497 -0.0523
 4708TIP3    H235684   6.776   4.942   1.365  2.3064 -0.6741 -0.6686
 4709TIP3   OH235685   3.793   4.043   7.917 -0.1496  0.3401 -0.5427
 4709TIP3    H135686   3.783   4.043   8.012  2.7775  0.0965 -0.1507
 4709TIP3    H235687   3.717   3.994   7.885  0.0778 -1.8067  1.8793
 4710TIP3   OH235688   3.696   2.750   7.996 -0.2965  0.3672 -0.4575
 4710TIP3    H135689   3.649   2.823   7.957 -0.8991  0.2580  0.0564
 4710TIP3    H235690   3.770   2.735   7.937  0.4428  2.0702 -0.0136
 4711TIP3   OH235691   6.541   3.475   8.101  0.5963 -0.3237 -1.0294
 4711TIP3    H135692   6.555   3.380   8.098  0.6054 -0.4169  0.8217
 4711TIP3    H235693   6.574   3.502   8.187  1.2791  1.4933 -1.8065
 4712TIP3   OH235694   3.113   0.489   2.513  0.1382  0.2657  0.0824
 4712TIP3    H135695   3.159   0.571   2.492 -0.7969  0.6264 -0.6415
 4712TIP3    H235696   3.139   0.429   2.443 -0.4238  0.4525 -0.2952
 4713TIP3   OH235697   2.734   0.331   0.677 -0.1061  0.5455  0.4257
 4713TIP3    H135698   2.667   0.275   0.639 -0.7367  0.1622  2.0072
 4713TIP3    H235699   2.743   0.404   0.615  0.1387 -0.8493 -1.2424
 4714TIP3   OH235700   0.967   4.603   6.661 -0.3363 -0.0370 -0.0811
 4714TIP3    H135701   0.915   4.556   6.597 -1.3308  0.4874  0.3161
 4714TIP3    H235702   0.937   4.694   6.654  0.2926  0.2156  0.3836
 4715TIP3   OH235703   5.918   1.889   2.201  0.1611 -0.6162  0.0864
 4715TIP3    H135704   5.914   1.797   2.225 -0.4769  0.0391  2.8200
 4715TIP3    H235705   5.997   1.921   2.245 -1.7442  0.9328  2.6646
 4716TIP3   OH235706   6.545   4.914   1.621 -0.2950 -0.6677 -0.2704
 4716TIP3    H135707   6.611   4.965   1.668 -0.0814 -0.1776 -1.0889
 4716TIP3    H235708   6.464   4.964   1.632 -0.5319 -1.2378  0.6826
 4717TIP3   OH235709   4.215   0.420   8.034 -0.2666 -0.7645  0.3371
 4717TIP3    H135710   4.272   0.369   7.977  0.2655  0.3032 -0.1084
 4717TIP3    H235711   4.126   0.399   8.005 -0.0673 -1.6322  0.3434
 4718TIP3   OH235712   1.902   3.750   0.587 -0.3027 -0.3559 -0.4355
 4718TIP3    H135713   1.942   3.680   0.536 -0.1796 -0.7777  0.2222
 4718TIP3    H235714   1.916   3.724   0.678 -1.1690  0.0018 -0.1883
 4719TIP3   OH235715   6.020   3.465   8.241  0.1701  0.2152  0.4616
 4719TIP3    H135716   6.060   3.379   8.251 -2.0925 -0.7640  1.7663
 4719TIP3    H235717   5.953   3.452   8.173  0.4875  1.2308 -0.0682
 4720TIP3   OH235718   6.137   1.498   8.437  0.6022 -0.7539  0.0262
 4720TIP3    H135719   6.079   1.426   8.411 -0.8759  0.2048  0.5242
 4720TIP3    H235720   6.084   1.576   8.428  1.9198  0.2052  0.2786
 4721TIP3   OH235721   1.247   2.701   0.559 -0.1547 -0.3742 -0.1897
 4721TIP3    H135722   1.273   2.620   0.513  0.3431 -1.3730  1.7370
 4721TIP3    H235723   1.160   2.682   0.593 -0.2653  0.1280 -0.1872
 4722TIP3   OH235724   4.356   6.143   0.349  0.1748 -0.2587 -0.7107
 4722TIP3    H135725   4.349   6.119   0.441  0.3573  0.9148 -0.3623
 4722TIP3    H235726   4.404   6.227   0.350 -0.1534 -0.0338 -1.8404
 4723TIP3   OH235727   0.466   3.508   0.709  0.2156  0.3910  0.5680
 4723TIP3    H135728   0.380   3.509   0.751  0.1663  0.1416  0.4749
 4723TIP3    H235729   0.526   3.541   0.776  0.3343 -1.2095  1.2897
 4724TIP3   OH235730   2.317   3.474   0.514  0.0001  0.3523 -0.2762
 4724TIP3    H135731   2.326   3.412   0.441  0.9001  0.2176 -0.0616
 4724TIP3    H235732   2.236   3.522   0.495 -0.5107 -0.6219 -0.6503
 4725TIP3   OH235733   0.808   4.377   8.842 -0.2069 -0.7997 -0.5401
 4725TIP3    H135734   0.827   4.423   8.924  0.7267 -0.5603 -0.8848
 4725TIP3    H235735   0.785   4.446   8.780  0.6242 -0.8283 -0.8969
 4726TIP3   OH235736   0.648   3.625   0.883  0.4831 -0.1751  0.7651
 4726TIP3    H135737   0.610   3.659   0.964 -0.1817  0.7828  0.0761
 4726TIP3    H235738   0.737   3.601   0.906 -0.1275 -1.2652  2.1153
 4727TIP3   OH235739   1.489   4.475   0.546  0.2933 -0.0521  0.3907
 4727TIP3    H135740   1.451   4.479   0.634 -0.1612 -2.8846  0.4393
 4727TIP3    H235741   1.424   4.427   0.495  0.3962  1.8301 -1.6470
 4728TIP3   OH235742   5.528   1.493   0.685  0.6787 -0.5496  0.1104
 4728TIP3    H135743   5.473   1.493   0.763  0.5827  1.7500  0.1274
 4728TIP3    H235744   5.525   1.403   0.653 -1.6388 -0.8998  1.1052
 4729TIP3   OH235745   2.441   0.444   0.192  0.0878  0.4132 -0.0878
 4729TIP3    H135746   2.450   0.466   0.285 -0.2520 -0.1003  0.0733
 4729TIP3    H235747   2.384   0.367   0.192  1.4177 -0.6119 -0.5968
 4730TIP3   OH235748   2.023   3.577   1.605 -0.6598  0.1997  0.1681
 4730TIP3    H135749   2.099   3.635   1.593 -1.2010  1.3870  2.0046
 4730TIP3    H235750   2.060   3.490   1.617  0.4255  0.7773  1.1004
 4731TIP3   OH235751   0.588   0.898   1.928 -0.3092  0.3661  0.2403
 4731TIP3    H135752   0.505   0.857   1.950 -0.4107  0.1980 -0.4695
 4731TIP3    H235753   0.586   0.910   1.833 -1.4739  4.4595  0.5808
 4732TIP3   OH235754   0.768   1.245   7.164  0.2324 -0.0034  0.0431
 4732TIP3    H135755   0.768   1.213   7.254 -0.3402  1.0640  0.4312
 4732TIP3    H235756   0.676   1.266   7.145  0.6126  1.6990 -0.0767
 4733TIP3   OH235757   5.647   6.000   8.457  0.1598 -0.0077  0.5064
 4733TIP3    H135758   5.565   6.001   8.507 -0.0200  0.2296  0.2050
 4733TIP3    H235759   5.621   6.018   8.367  0.6248  0.8617  0.5316
 4734TIP3   OH235760   5.187   4.358   1.666  0.4186 -0.5398  0.3455
 4734TIP3    H135761   5.189   4.315   1.752  1.0069  1.7868  1.5879
 4734TIP3    H235762   5.223   4.445   1.683  1.0060 -0.1836 -2.3979
 4735TIP3   OH235763   2.167   1.730   0.257  0.1744 -0.8566 -0.2665
 4735TIP3    H135764   2.089   1.701   0.210  0.1300 -1.8660  0.4084
 4735TIP3    H235765   2.180   1.664   0.324  1.5272 -0.6084 -0.2685
 4736TIP3   OH235766   5.688   5.144   1.017  0.7225  0.7448  0.2210
 4736TIP3    H135767   5.757   5.185   1.069 -0.1994  0.9954  1.3032
 4736TIP3    H235768   5.734   5.088   0.955  1.9610  2.3647 -0.3866
 4737TIP3   OH235769   6.702   2.282   1.143 -0.8186  0.4828  0.2733
 4737TIP3    H135770   6.720   2.362   1.191  0.3580 -0.3981  1.3673
 4737TIP3    H235771   6.769   2.279   1.075 -1.0233  0.5464  0.0662
 4738TIP3   OH235772   1.983   6.445   2.115  0.0551 -0.2466 -0.0348
 4738TIP3    H135773   2.014   6.402   2.035  1.7898  1.1472 -0.1577
 4738TIP3    H235774   2.014   6.388   2.186  0.0028 -0.5847 -0.2785
 4739TIP3   OH235775   4.591   4.643   1.135  0.1761 -0.3683 -0.5429
 4739TIP3    H135776   4.632   4.657   1.221  0.2470 -0.9373 -0.4790
 4739TIP3    H235777   4.515   4.700   1.136  0.5437  0.1289 -0.3625
 4740TIP3   OH235778   1.588   4.476   2.625 -0.1273  0.0934  0.1226
 4740TIP3    H135779   1.512   4.423   2.600  0.4762 -0.6938 -0.0779
 4740TIP3    H235780   1.661   4.415   2.623  0.8379  1.2357 -1.5141
 4741TIP3   OH235781   3.146   0.045   7.290  0.4951  0.0841 -0.5188
 4741TIP3    H135782   3.120  -0.007   7.366  2.5650  1.3514  1.2055
 4741TIP3    H235783   3.213  -0.007   7.247  0.4948  0.0610 -0.4912
 4742TIP3   OH235784   0.248   5.829   1.815  0.5147  0.2149 -0.2008
 4742TIP3    H135785   0.285   5.852   1.730  0.3246  1.0019 -0.0722
 4742TIP3    H235786   0.324   5.821   1.873  0.6082  0.1110 -0.3355
 4743TIP3   OH235787   6.763   0.243   8.744  1.1913 -0.6209  0.6920
 4743TIP3    H135788   6.733   0.333   8.731 -1.4097 -1.0633  2.8364
 4743TIP3    H235789   6.710   0.192   8.682 -0.6786 -1.0892  2.5647
 4744TIP3   OH235790   0.724   6.234   8.143  0.0703  0.0222 -0.2200
 4744TIP3    H135791   0.747   6.146   8.174 -0.5385 -0.0718 -0.0183
 4744TIP3    H235792   0.757   6.238   8.054 -0.2401 -0.5487 -0.3595
 4745TIP3   OH235793   1.787   4.215   8.362  0.3742  0.0571 -1.1425
 4745TIP3    H135794   1.777   4.230   8.456 -0.7742 -0.3260 -1.1805
 4745TIP3    H235795   1.744   4.290   8.320  0.8223  0.1932 -1.3597
 4746TIP3   OH235796   6.201   0.177   8.301  0.1881  0.1364  0.0069
 4746TIP3    H135797   6.223   0.126   8.223  1.2584 -0.5658  0.7519
 4746TIP3    H235798   6.135   0.240   8.270 -0.6014 -1.1702 -1.1074
 4747TIP3   OH235799   1.666   0.644   8.113  0.1121 -0.3563  0.1596
 4747TIP3    H135800   1.675   0.702   8.037  2.1399 -1.0417 -0.1835
 4747TIP3    H235801   1.732   0.577   8.099 -1.1160 -1.8772  1.3529
 4748TIP3   OH235802   5.629   2.009   1.807  0.1859 -0.2390 -0.0012
 4748TIP3    H135803   5.644   2.103   1.819  2.1561 -0.5054 -0.0819
 4748TIP3    H235804   5.637   1.972   1.895 -0.3232 -0.3713 -0.0069
 4749TIP3   OH235805   2.229   5.162   0.820  0.2986  0.2562  0.1673
 4749TIP3    H135806   2.221   5.154   0.725  1.5680  0.0513  0.0564
 4749TIP3    H235807   2.308   5.215   0.833  1.0534 -1.0384  1.0978
 4750TIP3   OH235808   0.649   2.945   2.225  0.4008 -0.3651 -0.3955
 4750TIP3    H135809   0.732   2.983   2.254  0.0337  1.0435 -1.0863
 4750TIP3    H235810   0.587   2.966   2.295  0.4891 -0.8475 -0.1744
 4751TIP3   OH235811   2.279   3.231   1.621  0.2151  0.2585 -0.2899
 4751TIP3    H135812   2.332   3.267   1.692  0.6804  2.8198 -1.7883
 4751TIP3    H235813   2.295   3.137   1.623  1.2615  0.4318  2.1077
 4752TIP3   OH235814   2.361   0.514   1.821  0.4987  0.4127 -0.0690
 4752TIP3    H135815   2.325   0.482   1.903  2.1024 -1.7500 -0.1262
 4752TIP3    H235816   2.454   0.496   1.826  0.5770 -0.3400 -2.5708
 4753TIP3   OH235817   4.621   0.967   0.685  0.3202  0.5684  0.4568
 4753TIP3    H135818   4.637   1.054   0.722 -2.2318  0.9542  0.8634
 4753TIP3    H235819   4.624   0.909   0.761  4.6080 -0.2583 -0.1122
 4754TIP3   OH235820   0.702   0.822   6.580  0.5620 -0.0721  0.1729
 4754TIP3    H135821   0.675   0.799   6.669  0.5727  1.2454  0.5324
 4754TIP3    H235822   0.632   0.877   6.547  1.0002  0.2108 -0.2982
 4755TIP3   OH235823   6.618   0.615   0.838  0.5264  0.0433 -0.6235
 4755TIP3    H135824   6.676   0.690   0.841 -0.1705  0.5842 -0.4874
 4755TIP3    H235825   6.543   0.639   0.893 -0.3103 -0.2183 -1.5953
 4756TIP3   OH235826   4.561   2.118   0.643 -0.5071 -0.3604 -0.2967
 4756TIP3    H135827   4.484   2.174   0.643  0.9543  2.0493  3.3369
 4756TIP3    H235828   4.557   2.071   0.726  3.0244  1.8565  1.3911
 4757TIP3   OH235829   6.467   0.713   1.039  0.0945  0.2096  0.2257
 4757TIP3    H135830   6.483   0.783   1.102 -0.1095  0.7431 -0.3108
 4757TIP3    H235831   6.447   0.636   1.093 -1.0876  0.8981  0.7971
 4758TIP3   OH235832   6.702   4.759   0.842  0.1095  0.2553 -0.2065
 4758TIP3    H135833   6.657   4.774   0.759  1.6065  1.0537 -0.9097
 4758TIP3    H235834   6.666   4.825   0.901  0.2610  0.8194 -0.7318
 4759TIP3   OH235835   6.164   4.028   8.840 -0.3550  0.1556 -0.2174
 4759TIP3    H135836   6.086   3.988   8.878  0.1164 -0.5410  0.0510
 4759TIP3    H235837   6.182   4.103   8.896 -1.1732  0.6834 -0.6435
 4760TIP3   OH235838   0.043   2.970   1.890  0.4515  0.3863  0.7132
 4760TIP3    H135839   0.050   3.065   1.882  0.7641  0.5177  2.2228
 4760TIP3    H235840  -0.052   2.953   1.893  0.2854  0.3494 -2.1358
 4761TIP3   OH235841   1.800   1.702   1.413  0.0192 -0.8542 -0.0951
 4761TIP3    H135842   1.777   1.609   1.416 -0.3335 -0.8010 -1.0317
 4761TIP3    H235843   1.856   1.715   1.490 -0.5525 -1.6673  0.4769
 4762TIP3   OH235844   6.549   6.753   1.356  0.0032 -0.4100 -0.1469
 4762TIP3    H135845   6.471   6.808   1.352 -1.1299 -1.9649 -0.8960
 4762TIP3    H235846   6.622   6.813   1.343 -1.0364  1.1376  0.8081
 4763TIP3   OH235847   2.529   1.391   6.862 -0.6365 -0.1175  0.5950
 4763TIP3    H135848   2.497   1.352   6.943  1.1019 -2.6098  0.1945
 4763TIP3    H235849   2.509   1.326   6.795 -2.2793  1.9978 -1.1297
 4764TIP3   OH235850   1.033   5.799   0.572  0.1897 -0.4676 -0.3839
 4764TIP3    H135851   1.110   5.741   0.575  2.4185  2.2087 -1.5992
 4764TIP3    H235852   0.968   5.750   0.521  2.0540 -1.7920 -1.6092
 4765TIP3   OH235853   2.676   1.156   7.662 -0.0198 -0.0785  0.2695
 4765TIP3    H135854   2.618   1.217   7.617  1.2993 -0.0955 -1.5960
 4765TIP3    H235855   2.621   1.113   7.727 -0.9135  3.3401  1.9854
 4766TIP3   OH235856   5.368   3.882   0.310 -0.2735  0.0344 -0.7493
 4766TIP3    H135857   5.429   3.810   0.295  0.2412  0.3184 -0.0430
 4766TIP3    H235858   5.292   3.841   0.353  0.3603  0.0250  0.4028
 4767TIP3   OH235859   1.785   2.868   8.601 -0.1848  0.3217 -0.1150
 4767TIP3    H135860   1.783   2.938   8.666 -0.0322  1.1072 -0.9423
 4767TIP3    H235861   1.697   2.867   8.563 -0.7175 -1.0936  1.0758
 4768TIP3   OH235862   4.583   0.395   2.172  0.1619  0.5001  0.7540
 4768TIP3    H135863   4.580   0.299   2.162 -0.7191  0.5826  0.0969
 4768TIP3    H235864   4.646   0.410   2.242  0.4698 -0.5565  0.7197
 4769TIP3   OH235865   4.519   3.312   7.723 -0.3479  0.2284  0.0759
 4769TIP3    H135866   4.585   3.307   7.792  0.1229 -1.0404 -0.4234
 4769TIP3    H235867   4.520   3.225   7.683 -2.2108  0.2303 -0.0736
 4770TIP3   OH235868   1.366   3.393   0.551 -0.2976  0.0964  0.0958
 4770TIP3    H135869   1.298   3.404   0.485  0.6770  0.5364 -0.8605
 4770TIP3    H235870   1.370   3.478   0.595 -1.7260 -0.5272  1.5367
 4771TIP3   OH235871   0.051   3.104   1.226  0.0646 -0.4530  0.0780
 4771TIP3    H135872   0.057   3.009   1.241 -1.7573 -0.5569  0.3245
 4771TIP3    H235873  -0.040   3.126   1.244  0.7213  1.5838  1.2545
 4772TIP3   OH235874   4.872   2.896   8.832  0.4853  0.3879  0.4426
 4772TIP3    H135875   4.821   2.815   8.840  2.5163 -0.9250  1.1412
 4772TIP3    H235876   4.867   2.936   8.918 -1.5317  1.7302 -0.2354
 4773TIP3   OH235877   4.103   2.008   8.030  0.8391  0.4852 -0.1189
 4773TIP3    H135878   4.099   1.912   8.032  0.9690  0.4598 -0.9096
 4773TIP3    H235879   4.035   2.036   8.091 -0.0828 -0.0927 -0.8544
 4774TIP3   OH235880   0.563   5.643   1.478  0.1064 -0.0864  0.3546
 4774TIP3    H135881   0.525   5.679   1.398 -0.3429 -0.8638  0.2138
 4774TIP3    H235882   0.499   5.660   1.546 -0.1395 -0.6717  0.2744
 4775TIP3   OH235883   3.929   2.156   1.432  0.2142 -0.0614 -0.6567
 4775TIP3    H135884   3.981   2.232   1.458 -1.0337  0.4435  0.4502
 4775TIP3    H235885   3.847   2.192   1.400 -1.1003 -0.9414  1.5273
 4776TIP3   OH235886   1.375   0.865   7.631  0.4630  1.0526  0.0040
 4776TIP3    H135887   1.310   0.932   7.611  0.4286  0.1821 -3.6798
 4776TIP3    H235888   1.324   0.788   7.655  0.5026  2.1072  4.2178
 4777TIP3   OH235889   4.849   6.465   0.755 -0.3850 -1.1294  0.5851
 4777TIP3    H135890   4.921   6.402   0.747 -0.0375 -0.6414 -0.2171
 4777TIP3    H235891   4.892   6.550   0.757 -1.0212 -0.5076 -3.7776
 4778TIP3   OH235892   0.710   5.953   7.557 -0.2104  0.0593  0.6214
 4778TIP3    H135893   0.631   5.956   7.503  1.0512 -0.4497 -1.3557
 4778TIP3    H235894   0.757   6.033   7.536 -0.7914  1.0754  2.8638
 4779TIP3   OH235895   1.275   3.583   7.365 -0.3784  0.4932  0.4742
 4779TIP3    H135896   1.340   3.537   7.312 -2.4873 -0.6334 -1.2942
 4779TIP3    H235897   1.256   3.522   7.437 -2.8444 -1.4741 -1.6242
 4780TIP3   OH235898   3.275   3.522   7.851 -0.0431  0.2903  0.2967
 4780TIP3    H135899   3.363   3.541   7.883 -0.2250  1.7520 -0.0047
 4780TIP3    H235900   3.235   3.471   7.921  0.3673  1.3699  1.3602
 4781TIP3   OH235901   6.639   3.457   2.231  0.5588  0.5002 -0.3714
 4781TIP3    H135902   6.570   3.460   2.297  0.4914 -1.1313 -0.3284
 4781TIP3    H235903   6.674   3.547   2.228 -0.5466  0.9877  0.6718
 4782TIP3   OH235904   1.215   5.909   1.740  0.7180 -0.3195  0.2748
 4782TIP3    H135905   1.221   5.864   1.825 -0.4144 -0.6590  0.1912
 4782TIP3    H235906   1.305   5.934   1.720  0.9504  0.1665  1.7972
 4783TIP3   OH235907   1.699   2.145   6.302 -0.1070  0.2041  0.1698
 4783TIP3    H135908   1.619   2.194   6.283 -0.2893 -0.3751 -0.6375
 4783TIP3    H235909   1.691   2.120   6.394 -1.0266 -0.1624 -0.0044
 4784TIP3   OH235910   3.594   6.497   8.151 -0.0233 -0.1445 -0.6113
 4784TIP3    H135911   3.524   6.557   8.125 -1.3198 -2.2583 -2.3560
 4784TIP3    H235912   3.599   6.506   8.246 -3.5891 -0.8174 -0.2344
 4785TIP3   OH235913   0.205   6.766   1.473 -0.0628  0.0487  0.0462
 4785TIP3    H135914   0.174   6.856   1.471  0.3444  0.1917 -0.0521
 4785TIP3    H235915   0.137   6.717   1.520  1.1326  0.9815  2.9836
 4786TIP3   OH235916   1.295   1.074   1.751  0.0417 -0.5369  0.1137
 4786TIP3    H135917   1.221   1.041   1.701 -0.0298 -1.4602  0.7922
 4786TIP3    H235918   1.311   1.007   1.818 -0.5879  1.1423  2.0468
 4787TIP3   OH235919   1.922   2.325   0.068  0.0418  0.6001 -0.2324
 4787TIP3    H135920   2.007   2.358   0.039  0.3303  0.1499  0.1008
 4787TIP3    H235921   1.941   2.240   0.107 -0.4583  0.8271  0.5227
 4788TIP3   OH235922   6.153   4.580   7.352 -0.0692  0.2023 -0.1802
 4788TIP3    H135923   6.203   4.508   7.313 -1.6874 -0.3529 -1.3387
 4788TIP3    H235924   6.217   4.648   7.367  1.0965 -0.5794 -1.3591
 4789TIP3   OH235925   3.534   2.968   6.676  0.6370 -0.4805  0.4274
 4789TIP3    H135926   3.509   2.888   6.631  1.5253 -1.0645  0.9497
 4789TIP3    H235927   3.452   3.001   6.714  0.1556 -0.7904 -0.3319
 4790TIP3   OH235928   4.253   2.164   1.649  0.2302  0.0953 -0.3475
 4790TIP3    H135929   4.288   2.193   1.565  2.2879  0.5989  0.6314
 4790TIP3    H235930   4.215   2.078   1.630 -0.4977  0.7316 -2.0241
 4791TIP3   OH235931   2.875   4.428   8.140  0.0264  0.3297  0.5098
 4791TIP3    H135932   2.936   4.486   8.185  1.2742 -0.1922 -0.4466
 4791TIP3    H235933   2.853   4.474   8.059 -0.9365  0.5494  0.8810
 4792TIP3   OH235934   6.753   1.864   7.927  0.3778  0.4347  0.0095
 4792TIP3    H135935   6.793   1.781   7.954  1.2436  0.6530 -0.5612
 4792TIP3    H235936   6.808   1.895   7.856  0.0621  1.5095  0.2160
 4793TIP3   OH235937   6.325   4.069   1.339 -0.1350  0.1495 -0.1196
 4793TIP3    H135938   6.236   4.063   1.304 -0.3109  0.4612  0.2639
 4793TIP3    H235939   6.356   4.156   1.311  0.8316 -0.7476 -2.0372
 4794TIP3   OH235940   6.634   3.331   1.066  0.1891  0.4824  0.4397
 4794TIP3    H135941   6.589   3.368   1.142 -1.5430  0.7113 -0.6298
 4794TIP3    H235942   6.649   3.406   1.008 -1.7788 -0.1272 -0.9782
 4795TIP3   OH235943   6.259   5.823   0.430 -0.2847  0.0516  0.3538
 4795TIP3    H135944   6.316   5.829   0.354 -0.6599 -1.8557 -0.1267
 4795TIP3    H235945   6.170   5.830   0.394 -0.4385  0.4221  0.7871
 4796TIP3   OH235946   5.088   4.838   6.687  0.2923  0.0259 -0.6380
 4796TIP3    H135947   4.992   4.835   6.685  0.3164 -1.9148 -0.9573
 4796TIP3    H235948   5.115   4.750   6.660  2.1814  0.7032 -1.0957
 4797TIP3   OH235949   2.207   4.045   1.256 -0.8675 -0.2732  0.5790
 4797TIP3    H135950   2.279   4.072   1.199  0.4455 -1.3833  1.6411
 4797TIP3    H235951   2.132   4.095   1.224  0.5686  1.7011  0.0437
 4798TIP3   OH235952   6.546   3.086   0.468 -0.2529  0.0457 -0.8862
 4798TIP3    H135953   6.603   3.043   0.405  1.0000 -0.0656  0.2762
 4798TIP3    H235954   6.586   3.068   0.553 -2.3746 -0.5603  0.0429
 4799TIP3   OH235955   2.098   2.304   8.336  0.5820 -0.0060  0.3715
 4799TIP3    H135956   2.168   2.304   8.401 -0.4265 -1.0503  1.5197
 4799TIP3    H235957   2.018   2.318   8.387 -0.3089 -1.5428 -0.5188
 4800TIP3   OH235958   6.268   6.308   1.068 -0.6248  1.0746 -0.5785
 4800TIP3    H135959   6.238   6.398   1.054  1.2110  1.9711  0.7392
 4800TIP3    H235960   6.340   6.297   1.006 -2.0067 -0.1960 -2.0376
 4801TIP3   OH235961   5.731   2.262   6.795 -0.5399  0.0318 -0.4316
 4801TIP3    H135962   5.754   2.316   6.870 -0.7727  1.6360 -1.4775
 4801TIP3    H235963   5.636   2.252   6.801 -0.7505  1.3066 -1.2079
 4802TIP3   OH235964   2.491   2.457   2.463  0.1356 -0.2351 -0.1249
 4802TIP3    H135965   2.421   2.516   2.491  0.5376  0.8757 -1.3766
 4802TIP3    H235966   2.462   2.371   2.492 -1.1623  0.3682  0.4669
 4803TIP3   OH235967   4.681   2.206   6.881 -0.1705  0.2083 -1.0358
 4803TIP3    H135968   4.666   2.296   6.851 -0.5911  0.0563 -1.2848
 4803TIP3    H235969   4.672   2.153   6.802 -0.9489 -0.1595 -0.7071
 4804TIP3   OH235970   1.736   6.507   0.121 -0.2027  0.5324 -0.0954
 4804TIP3    H135971   1.801   6.541   0.060  0.9664 -0.0444  0.7802
 4804TIP3    H235972   1.774   6.522   0.208 -0.6642 -0.9674  0.3927
 4805TIP3   OH235973   1.558   1.684   8.575  0.3189  0.4303  0.5264
 4805TIP3    H135974   1.474   1.731   8.568  0.3452  0.5212  0.8228
 4805TIP3    H235975   1.536   1.603   8.622  0.3651  0.3664  0.4397
 4806TIP3   OH235976   4.546   5.051   7.379 -0.3230  0.3874  0.1813
 4806TIP3    H135977   4.592   5.130   7.409  0.0307 -0.0046  0.6860
 4806TIP3    H235978   4.615   4.997   7.341 -0.6919  0.6594 -0.8967
 4807TIP3   OH235979   0.845   2.688   1.782  0.3491  0.3085 -0.3592
 4807TIP3    H135980   0.854   2.599   1.749 -0.3601 -0.1464  0.6268
 4807TIP3    H235981   0.921   2.735   1.747  1.4193 -0.9973  0.1380
 4808TIP3   OH235982   2.373   5.020   0.311 -0.0004  0.3936  0.9989
 4808TIP3    H135983   2.417   5.100   0.282 -0.1306 -0.0867 -0.6446
 4808TIP3    H235984   2.343   4.978   0.230  2.1358 -2.5480  1.5522
 4809TIP3   OH235985   4.326   4.128   0.251 -0.6199  0.6193 -0.3607
 4809TIP3    H135986   4.284   4.207   0.285  1.8404  1.4406  1.0132
 4809TIP3    H235987   4.419   4.140   0.270 -0.1778 -2.8022  0.2920
 4810TIP3   OH235988   0.307   6.287   7.297  0.0544  0.1322  0.3464
 4810TIP3    H135989   0.261   6.216   7.253 -0.2906  0.3445  0.3656
 4810TIP3    H235990   0.248   6.314   7.367  1.5322 -1.7795  2.4835
 4811TIP3   OH235991   2.404   3.128   7.596  0.1881  0.2108 -0.2433
 4811TIP3    H135992   2.448   3.044   7.604  0.6866  0.3796 -1.0576
 4811TIP3    H235993   2.459   3.178   7.536 -0.3794  0.9327 -0.1798
 4812TIP3   OH235994   5.416   6.533   8.134  0.8830 -0.6824  0.1256
 4812TIP3    H135995   5.491   6.500   8.182  0.1954  1.0964  2.6292
 4812TIP3    H235996   5.340   6.507   8.186 -0.0019  0.3717 -0.5607
 4813TIP3   OH235997   5.120   2.339   1.859  0.0248  0.1158  0.5610
 4813TIP3    H135998   5.037   2.371   1.895  0.3331  1.2824  0.2866
 4813TIP3    H235999   5.184   2.405   1.886  1.5155 -2.2793  3.4909
 4814TIP3   OH236000   1.773   4.502   8.864  0.2098  0.4052 -0.1089
 4814TIP3    H136001   1.712   4.429   8.874  0.5151 -0.0097 -1.1107
 4814TIP3    H236002   1.829   4.497   8.941 -1.2862  1.0842  1.0758
 4815TIP3   OH236003   2.927   2.050   7.501  0.1183 -0.4665 -0.0440
 4815TIP3    H136004   3.007   1.997   7.490  0.7239  0.3831  0.1233
 4815TIP3    H236005   2.862   2.008   7.445  1.5181  0.5094 -2.5372
 4816TIP3   OH236006   0.964   5.160   8.394  0.1351  0.0748 -0.6722
 4816TIP3    H136007   0.980   5.109   8.474 -1.2536 -0.1912 -0.5401
 4816TIP3    H236008   0.942   5.247   8.425 -2.0501 -0.4373 -0.6310
 4817TIP3   OH236009   6.176   4.900   0.212  0.5149  0.0434 -0.1447
 4817TIP3    H136010   6.242   4.968   0.197  1.8480 -1.3261 -0.7489
 4817TIP3    H236011   6.151   4.872   0.124 -0.8867  0.5136  0.0798
 4818TIP3   OH236012   3.251   6.608   8.842 -0.5429 -0.6355 -0.3037
 4818TIP3    H136013   3.276   6.590   8.752 -1.5022  1.2577 -1.0076
 4818TIP3    H236014   3.210   6.694   8.839 -1.4864 -0.9376  1.7873
 4819TIP3   OH236015   3.430   1.974   1.368 -0.2949  0.1915 -0.2469
 4819TIP3    H136016   3.353   1.922   1.393 -0.3749  0.7446  0.6782
 4819TIP3    H236017   3.438   1.960   1.274 -1.3332 -0.1424 -0.3005
 4820TIP3   OH236018   4.743   6.674   6.420  0.5040 -0.3029  0.0203
 4820TIP3    H136019   4.715   6.706   6.334  1.2525  1.2835  0.3241
 4820TIP3    H236020   4.749   6.753   6.474  4.1224 -0.6667  0.3854
 4821TIP3   OH236021   6.718   3.467   1.586 -0.3492  0.1918 -0.2221
 4821TIP3    H136022   6.797   3.510   1.621 -1.5416  1.8226  0.5929
 4821TIP3    H236023   6.694   3.403   1.653 -2.3477  2.9687  1.9361
 4822TIP3   OH236024   5.962   6.085   1.885 -0.2349  0.1087  0.3755
 4822TIP3    H136025   5.992   6.100   1.974  0.6063  1.8875 -0.1490
 4822TIP3    H236026   5.937   6.172   1.853  0.0594 -0.3790 -1.3080
 4823TIP3   OH236027   2.069   6.249   1.278  0.5306 -0.5915 -0.0696
 4823TIP3    H136028   1.992   6.267   1.332  2.1201  3.1914  1.3278
 4823TIP3    H236029   2.034   6.242   1.189 -1.4976  1.3258  0.4636
 4824TIP3   OH236030   1.891   2.530   1.711  0.4614  0.0207 -0.7571
 4824TIP3    H136031   1.927   2.589   1.777 -0.4350  1.7683 -1.7483
 4824TIP3    H236032   1.874   2.586   1.636 -1.6675 -1.2568 -1.3033
 4825TIP3   OH236033   4.023   4.514   8.511 -0.8368  0.1011 -0.3919
 4825TIP3    H136034   3.987   4.582   8.454 -0.7441  0.7011  0.2515
 4825TIP3    H236035   4.109   4.547   8.537 -0.9303 -0.0966  0.1937
 4826TIP3   OH236036   6.756   6.312   8.086 -0.2450  0.1164 -0.0094
 4826TIP3    H136037   6.693   6.250   8.050  0.2716 -0.7239  0.4905
 4826TIP3    H236038   6.829   6.258   8.114 -0.2684  0.8251  1.5149
 4827TIP3   OH236039   3.658   1.674   1.044  0.1563 -0.3072  0.7932
 4827TIP3    H136040   3.700   1.660   0.959 -1.8045 -0.8505 -0.1654
 4827TIP3    H236041   3.613   1.591   1.063  0.6660 -0.2382  2.4486
 4828TIP3   OH236042   6.182   4.320   2.205 -0.0455 -0.3153  0.6701
 4828TIP3    H136043   6.225   4.236   2.193 -0.9620 -0.3533 -4.1843
 4828TIP3    H236044   6.247   4.385   2.177 -0.5776  0.2941  0.8140
 4829TIP3   OH236045   3.561   3.229   1.255 -0.1331 -0.5604 -0.1687
 4829TIP3    H136046   3.609   3.303   1.293 -0.7031 -0.5930  0.6347
 4829TIP3    H236047   3.518   3.187   1.330 -1.1342 -0.7389 -0.8303
 4830TIP3   OH236048   1.226   2.473   7.172 -0.3363  0.0722  0.1579
 4830TIP3    H136049   1.139   2.482   7.134 -1.2095 -0.5480  1.9225
 4830TIP3    H236050   1.212   2.435   7.258  1.7630 -0.8321  0.1741
 4831TIP3   OH236051   6.118   0.191   6.522 -0.7271 -0.0100 -0.9326
 4831TIP3    H136052   6.049   0.151   6.575 -1.5141  2.2968 -0.1003
 4831TIP3    H236053   6.199   0.154   6.556 -1.1048  1.9523  2.5779
 4832TIP3   OH236054   1.808   2.483   0.269 -0.5181 -0.3780 -0.3911
 4832TIP3    H136055   1.779   2.564   0.228  2.5821  0.9816 -0.1264
 4832TIP3    H236056   1.843   2.430   0.197  0.1134 -0.2352 -0.1923
 4833TIP3   OH236057   1.353   6.697   0.552 -0.1441  0.2081  0.5901
 4833TIP3    H136058   1.315   6.633   0.611  0.3958 -0.3989  0.2881
 4833TIP3    H236059   1.354   6.655   0.466  1.3932  0.0942  0.6237
 4834TIP3   OH236060   4.542   1.195   2.409 -0.0656 -0.1082  0.3671
 4834TIP3    H136061   4.598   1.246   2.350  0.5091  0.0636  1.0553
 4834TIP3    H236062   4.493   1.137   2.350 -0.9642  1.4221 -0.4489
 4835TIP3   OH236063   2.976   4.362   0.489 -0.3326  0.1762  0.3158
 4835TIP3    H136064   2.948   4.398   0.405 -0.3586 -1.5497 -0.4613
 4835TIP3    H236065   3.030   4.431   0.528  1.5009  0.2434 -2.0871
 4836TIP3   OH236066   4.109   1.875   0.657  0.4769  0.5468 -0.7067
 4836TIP3    H136067   4.037   1.928   0.691  0.0508 -1.3697  1.6575
 4836TIP3    H236068   4.067   1.797   0.622  1.3172 -0.0897 -0.3320
 4837TIP3   OH236069   5.232   1.109   1.890  0.8914 -0.2807  0.3278
 4837TIP3    H136070   5.236   1.029   1.943 -2.5835  0.1244  1.4317
 4837TIP3    H236071   5.294   1.169   1.931 -2.1003  0.2880  4.6757
 4838TIP3   OH236072   0.571   1.825   6.900  0.1978  0.1607 -0.3505
 4838TIP3    H136073   0.601   1.855   6.986 -0.5729 -0.2746  0.0810
 4838TIP3    H236074   0.649   1.832   6.844  1.1122 -0.8861  0.7324
 4839TIP3   OH236075   1.115   3.871   1.998 -0.0241  0.1212 -0.2400
 4839TIP3    H136076   1.036   3.819   1.981  0.5848 -0.9922  0.2216
 4839TIP3    H236077   1.095   3.957   1.962 -2.1036  0.3838  1.3738
 4840TIP3   OH236078   0.550   5.840   0.727  0.4501  0.4169  0.4936
 4840TIP3    H136079   0.553   5.879   0.639  1.9139  0.7507  0.6613
 4840TIP3    H236080   0.497   5.761   0.716 -0.8367  1.3488 -0.3042
 4841TIP3   OH236081   2.696   2.879   6.873  0.9658  0.3961  0.3641
 4841TIP3    H136082   2.662   2.799   6.913 -2.1981  1.3254 -0.1344
 4841TIP3    H236083   2.739   2.850   6.793  1.1544 -0.9012  0.9171
 4842TIP3   OH236084   5.832   6.447   7.545 -0.4094 -0.1176  0.8575
 4842TIP3    H136085   5.858   6.419   7.457  1.2573 -0.2575  1.3515
 4842TIP3    H236086   5.738   6.463   7.539 -0.1795  0.7789 -1.1954
 4843TIP3   OH236087   3.677   2.763   6.419  0.0560  0.1308  0.2329
 4843TIP3    H136088   3.627   2.830   6.466  0.7113 -0.6003  2.0710
 4843TIP3    H236089   3.756   2.808   6.389 -0.2524  0.5498  0.0380
 4844TIP3   OH236090   4.951   1.801   7.838 -0.4459  0.1121 -0.2704
 4844TIP3    H136091   4.945   1.814   7.933 -4.6650 -1.0920 -0.1494
 4844TIP3    H236092   4.952   1.889   7.801  3.2170  0.6564  0.7638
 4845TIP3   OH236093   0.365   5.458   0.108 -0.0412 -0.0343 -0.0676
 4845TIP3    H136094   0.418   5.526   0.150  0.7925 -0.5906 -0.1876
 4845TIP3    H236095   0.283   5.458   0.156  0.1255  0.7433  0.2323
 4846TIP3   OH236096   6.548   2.462   2.236  0.2434  0.0665 -0.7225
 4846TIP3    H136097   6.503   2.541   2.266 -0.9916 -0.3121 -1.4759
 4846TIP3    H236098   6.631   2.494   2.199  0.7895  0.7489  1.0047
 4847TIP3   OH236099   1.656   1.922   7.012 -0.0088 -0.0705 -0.0931
 4847TIP3    H136100   1.720   1.862   6.974  0.4028  0.0927  0.3337
 4847TIP3    H236101   1.632   1.980   6.939  0.5048  0.0157 -0.1946
 4848TIP3   OH236102   2.114   1.317   7.033 -0.4704 -0.7141 -0.3411
 4848TIP3    H136103   2.154   1.367   7.104 -0.1718 -2.4416  0.7802
 4848TIP3    H236104   2.025   1.350   7.028  0.6144  2.3504 -2.0577
 4849TIP3   OH236105   5.787   0.678   7.572 -0.7219  0.1912 -0.5093
 4849TIP3    H136106   5.777   0.772   7.587 -0.4127  0.0144  0.9686
 4849TIP3    H236107   5.882   0.664   7.574 -0.8036 -0.2921  0.2900
 4850TIP3   OH236108   6.556   0.556   1.797  0.1839  0.1545 -0.3273
 4850TIP3    H136109   6.644   0.540   1.765  0.3301  0.0815  0.1088
 4850TIP3    H236110   6.561   0.543   1.892  0.0906  1.7777 -0.0663
 4851TIP3   OH236111   4.405   0.717   8.750 -0.3880 -0.1398  0.3413
 4851TIP3    H136112   4.372   0.758   8.830  0.5026 -0.6363  0.9734
 4851TIP3    H236113   4.332   0.662   8.720 -0.4278 -0.6133  1.2822
 4852TIP3   OH236114   5.084   5.026   1.531  0.0056  0.2739  0.2543
 4852TIP3    H136115   5.124   5.093   1.586  1.5427 -0.7777  0.4651
 4852TIP3    H236116   5.143   5.017   1.456 -1.6860  1.1785 -1.2823
 4853TIP3   OH236117   2.062   0.402   2.339  0.6106  0.6242 -0.0924
 4853TIP3    H136118   2.136   0.461   2.322 -0.3945  1.6283 -1.1155
 4853TIP3    H236119   2.021   0.437   2.418  1.3220 -0.0557  0.5966
 4854TIP3   OH236120   4.007   0.231   1.516 -0.0096 -0.2359 -0.8722
 4854TIP3    H136121   3.999   0.167   1.586  2.0584  0.2979 -0.0691
 4854TIP3    H236122   3.953   0.197   1.445 -0.4841 -1.8536  0.2246
 4855TIP3   OH236123   5.158   6.722   6.405 -0.1757  0.4108  0.1869
 4855TIP3    H136124   5.113   6.650   6.359 -0.4663  1.1894 -0.7951
 4855TIP3    H236125   5.095   6.793   6.404  1.2332  1.7576 -1.8083
 4856TIP3   OH236126   0.084   6.760   8.792 -0.3438  0.3695 -0.3288
 4856TIP3    H136127   0.037   6.833   8.834 -1.0788  1.5070 -2.9032
 4856TIP3    H236128   0.015   6.706   8.754  0.2802 -0.5698 -0.1469
 4857TIP3   OH236129   1.858   1.178   7.610  0.3814 -0.7156 -0.6539
 4857TIP3    H136130   1.786   1.160   7.549 -1.7021  1.0963  1.1161
 4857TIP3    H236131   1.905   1.251   7.572 -0.5378  0.0050 -0.4444
 4858TIP3   OH236132   0.436   5.604   0.647 -0.8362 -0.2284 -0.6429
 4858TIP3    H136133   0.349   5.569   0.632 -1.8385  0.7981  2.0463
 4858TIP3    H236134   0.493   5.555   0.588 -2.5992 -3.9041  0.4173
 4859TIP3   OH236135   6.513   4.979   8.770 -0.3541 -0.3230 -0.2127
 4859TIP3    H136136   6.508   5.072   8.791 -1.1028 -0.4851  0.4087
 4859TIP3    H236137   6.600   4.952   8.800 -0.2583  0.1131 -0.0976
 4860TIP3   OH236138   0.443   2.174   6.922 -0.4145 -0.2283 -0.2126
 4860TIP3    H136139   0.373   2.196   6.984 -0.1281  0.4921 -0.1374
 4860TIP3    H236140   0.403   2.184   6.836 -0.0246  1.6483 -0.2220
 4861TIP3   OH236141   0.332   5.060   1.947 -0.1254  0.4559  0.1391
 4861TIP3    H136142   0.353   5.070   2.040 -0.8747  1.7010  0.1907
 4861TIP3    H236143   0.284   5.139   1.924  0.3258  0.3138 -1.4040
 4862TIP3   OH236144   4.017   6.349   0.906  0.0192 -0.4986 -0.0391
 4862TIP3    H136145   4.016   6.314   0.995 -1.9990  0.5008  0.3914
 4862TIP3    H236146   4.093   6.408   0.904  0.3607 -0.8931  0.8595
 4863TIP3   OH236147   2.492   3.461   7.196  0.6541  0.5629  0.1022
 4863TIP3    H136148   2.518   3.395   7.131  1.9391  0.9939  0.1471
 4863TIP3    H236149   2.462   3.410   7.271  0.1456  0.0515 -0.4406
 4864TIP3   OH236150   3.201   1.453   0.203 -0.4099 -0.2654 -0.2790
 4864TIP3    H136151   3.203   1.376   0.146  1.8897  0.1999 -0.9432
 4864TIP3    H236152   3.282   1.500   0.182 -0.3498  0.8577  2.1425
 4865TIP3   OH236153   5.177   5.325   1.884  0.2937  0.6131 -0.2145
 4865TIP3    H136154   5.246   5.261   1.866  0.2495  0.3122  0.6387
 4865TIP3    H236155   5.150   5.356   1.797 -0.7108 -1.6215 -0.7895
 4866TIP3   OH236156   6.310   2.570   7.796  0.1398  0.2076  0.1699
 4866TIP3    H136157   6.270   2.630   7.733  0.4865 -0.0542 -0.2998
 4866TIP3    H236158   6.283   2.604   7.881 -2.6345 -0.9850 -0.1272
 4867TIP3   OH236159   0.218   6.098   2.802 -0.0890 -0.0477 -0.5978
 4867TIP3    H136160   0.194   6.016   2.845 -1.1738  1.0682  1.0508
 4867TIP3    H236161   0.311   6.088   2.782  0.1778 -1.0840  0.9771
 4868TIP3   OH236162   1.419   5.474   1.992 -0.1687 -0.4248 -0.2538
 4868TIP3    H136163   1.442   5.384   2.015  0.7307 -1.2395 -3.7821
 4868TIP3    H236164   1.503   5.519   1.985 -0.6103  0.8119  1.5709
 4869TIP3   OH236165   5.272   6.533   1.504  0.3684  0.0430 -0.9389
 4869TIP3    H136166   5.187   6.492   1.515  0.5427 -0.3560 -1.0589
 4869TIP3    H236167   5.332   6.479   1.554  0.9861 -1.1510 -2.8438
 4870TIP3   OH236168   1.454   1.858   1.565  0.2750 -0.1855  0.4051
 4870TIP3    H136169   1.542   1.895   1.567  0.8933 -1.6005  0.7633
 4870TIP3    H236170   1.396   1.934   1.556  1.5268  0.7564  0.0149
 4871TIP3   OH236171   1.957   1.113   6.660 -0.0062 -0.9485  0.6690
 4871TIP3    H136172   1.870   1.100   6.698 -0.3034  1.5306  0.9891
 4871TIP3    H236173   1.960   1.053   6.585 -1.6238 -1.7445  1.2012
 4872TIP3   OH236174   2.598   1.164   6.470  0.1439 -0.0691  0.1454
 4872TIP3    H136175   2.515   1.117   6.476  0.8590 -1.4388 -0.1731
 4872TIP3    H236176   2.637   1.155   6.557  1.0644 -1.6403 -0.3886
 4873TIP3   OH236177   5.386   0.549   7.282 -0.4241  0.3056 -0.3753
 4873TIP3    H136178   5.413   0.516   7.197 -2.4709  1.1671 -1.4464
 4873TIP3    H236179   5.331   0.625   7.262 -1.8082 -0.0646  1.6362
 4874TIP3   OH236180   5.912   4.474   7.331 -0.4665 -0.1063 -0.8072
 4874TIP3    H136181   5.863   4.512   7.258 -0.2155 -1.3130 -1.6300
 4874TIP3    H236182   5.995   4.521   7.331 -0.4879 -0.0686 -1.2681
 4875TIP3   OH236183   1.108   6.540   8.729 -0.2953  0.2341 -0.6078
 4875TIP3    H136184   1.037   6.580   8.678 -0.3798 -0.3940 -1.0072
 4875TIP3    H236185   1.127   6.458   8.682  0.1068 -0.0180 -0.0174
 4876TIP3   OH236186   1.388   3.554   0.944 -0.6070  0.2111 -0.0598
 4876TIP3    H136187   1.457   3.571   0.879  0.6876 -1.9211  0.6280
 4876TIP3    H236188   1.433   3.508   1.014 -2.8726 -2.0664  0.0406
 4877TIP3   OH236189   1.260   4.889   8.275 -0.6298  0.6357 -0.4390
 4877TIP3    H136190   1.348   4.900   8.309 -0.9560 -0.1239  0.7382
 4877TIP3    H236191   1.233   4.976   8.248 -0.1228  1.1779  0.7415
 4878TIP3   OH236192   6.519   4.451   6.561 -0.1510 -0.4291  0.3558
 4878TIP3    H136193   6.614   4.454   6.571 -0.2671  0.4228  1.3782
 4878TIP3    H236194   6.490   4.539   6.584 -1.0614 -0.1535 -1.6480
 4879TIP3   OH236195   4.951   1.592   1.176 -1.0481 -0.2664  0.3704
 4879TIP3    H136196   4.998   1.538   1.113  0.2668  2.8285 -1.5763
 4879TIP3    H236197   4.865   1.606   1.138 -2.0199 -2.1945  1.6953
 4880TIP3   OH236198   1.672   4.282   8.655  0.2641 -0.2552  0.0215
 4880TIP3    H136199   1.639   4.275   8.744  3.4405  0.2021  1.3544
 4880TIP3    H236200   1.618   4.350   8.615 -0.5101  0.3363  1.9494
 4881TIP3   OH236201   0.566   2.924   6.846  0.2069 -0.6186 -0.2376
 4881TIP3    H136202   0.493   2.971   6.806  0.3057 -1.4948 -1.5051
 4881TIP3    H236203   0.643   2.977   6.823  0.0347  0.1143  0.7972
 4882TIP3   OH236204   4.617   3.897   0.835 -0.2077  0.0648  0.2472
 4882TIP3    H136205   4.703   3.911   0.874 -0.6809 -0.6068  1.6012
 4882TIP3    H236206   4.615   3.956   0.759  1.7728 -0.5771 -0.3526
 4883TIP3   OH236207   3.683   5.393   0.947  0.3253  0.4190 -0.2096
 4883TIP3    H136208   3.590   5.382   0.970  0.8347 -0.2304  1.7810
 4883TIP3    H236209   3.695   5.336   0.871 -1.2930  1.9913 -1.7558
 4884TIP3   OH236210   5.128   0.997   6.658 -0.1476  0.2270  0.0068
 4884TIP3    H136211   5.053   1.006   6.599 -0.6670  0.1192  0.6445
 4884TIP3    H236212   5.137   0.902   6.671 -0.6982  0.2824  0.9195
 4885TIP3   OH236213   5.840   0.886   7.252  0.1444 -0.0526  0.1950
 4885TIP3    H136214   5.911   0.888   7.316 -0.2552 -1.5158  0.7374
 4885TIP3    H236215   5.762   0.909   7.304 -0.1307 -0.8959  0.1599
 4886TIP3   OH236216   3.529   2.465   7.116 -0.2966  0.3316  0.2161
 4886TIP3    H136217   3.614   2.500   7.142  0.4590 -1.0881 -0.2598
 4886TIP3    H236218   3.502   2.409   7.189  0.2055 -0.9168 -0.5282
 4887TIP3   OH236219   0.749   6.578   2.167 -0.6723 -0.7463 -0.4731
 4887TIP3    H136220   0.824   6.616   2.213  0.0270 -1.4883 -0.9893
 4887TIP3    H236221   0.678   6.640   2.184 -0.0632 -0.2582  0.3877
 4888TIP3   OH236222   5.194   3.472   7.119  0.5179 -0.2668 -0.3983
 4888TIP3    H136223   5.228   3.475   7.209  0.4279 -0.2822 -0.3630
 4888TIP3    H236224   5.105   3.437   7.129  0.5650 -0.4231 -0.5102
 4889TIP3   OH236225   3.968   2.680   1.003  0.3243 -0.6185  0.4887
 4889TIP3    H136226   4.022   2.601   1.010  0.7237 -0.4086 -0.1526
 4889TIP3    H236227   4.026   2.745   0.964 -1.1904 -1.2207 -3.1606
 4890TIP3   OH236228   6.394   2.038   8.360 -0.1501  0.4996 -0.0136
 4890TIP3    H136229   6.330   1.998   8.302 -0.6701  2.5158 -0.9336
 4890TIP3    H236230   6.477   1.994   8.340 -0.5762  0.2895 -1.3742
 4891TIP3   OH236231   1.380   5.397   7.852 -0.3862  0.4494 -0.1694
 4891TIP3    H136232   1.301   5.446   7.828 -0.7555  0.5679  1.1693
 4891TIP3    H236233   1.439   5.464   7.888 -1.1464 -0.1164  2.2869
 4892TIP3   OH236234   0.891   2.634   1.040 -0.3469 -0.2356  0.0119
 4892TIP3    H136235   0.972   2.684   1.026 -0.7858  1.0644  1.7266
 4892TIP3    H236236   0.829   2.670   0.976 -0.2587  0.5074  0.3312
 4893TIP3   OH236237   3.960   4.809   8.128 -0.1183 -0.3880  0.2062
 4893TIP3    H136238   3.939   4.758   8.207  0.4683 -1.2102 -0.1520
 4893TIP3    H236239   4.054   4.826   8.135 -0.1860  0.0946 -0.0034
 4894TIP3   OH236240   6.032   5.653   6.891  0.0165  0.3450 -0.4243
 4894TIP3    H136241   6.015   5.639   6.798 -1.9391 -1.8007  0.1848
 4894TIP3    H236242   6.119   5.616   6.905  0.4551  0.9515 -1.4200
 4895TIP3   OH236243   6.743   5.582   6.727  0.3266  0.1665 -0.4814
 4895TIP3    H136244   6.804   5.532   6.673 -0.1227 -0.0661 -0.7819
 4895TIP3    H236245   6.770   5.673   6.715 -0.1041  0.1796 -1.5736
 4896TIP3   OH236246   2.350   2.162   7.423  0.2521  0.3788 -0.4301
 4896TIP3    H136247   2.255   2.172   7.413  0.3621  1.1241 -0.8203
 4896TIP3    H236248   2.387   2.230   7.367  1.0487 -0.9824 -1.6589
 4897TIP3   OH236249   5.250   4.074   7.980  0.3146 -0.8588 -0.2923
 4897TIP3    H136250   5.160   4.094   7.954  0.5173  1.3835  0.4940
 4897TIP3    H236251   5.297   4.066   7.898 -0.8223 -3.7140 -0.7969
 4898TIP3   OH236252   2.584   2.002   0.070  0.3742 -0.5675 -0.7336
 4898TIP3    H136253   2.536   2.036  -0.005  0.0373  0.1222 -0.2243
 4898TIP3    H236254   2.614   2.080   0.117  2.0746 -0.9741 -1.0756
 4899TIP3   OH236255   1.024   2.067   0.549  0.1934 -0.7063 -0.0632
 4899TIP3    H136256   0.988   2.030   0.629  0.9451 -1.6120 -0.1291
 4899TIP3    H236257   0.950   2.070   0.489 -0.7245  1.3106  1.0669
 4900TIP3   OH236258   4.151   5.481   7.876 -0.4187 -0.2384 -0.3864
 4900TIP3    H136259   4.216   5.546   7.902  0.0445 -0.3241 -1.3129
 4900TIP3    H236260   4.068   5.516   7.909 -0.2587  1.0949 -1.3230
 4901TIP3   OH236261   4.420   2.423   6.240  0.4655 -0.2570  0.1189
 4901TIP3    H136262   4.432   2.455   6.329 -1.5395  0.9318  0.0345
 4901TIP3    H236263   4.418   2.502   6.186  0.8591 -0.9012 -0.8701
 4902TIP3   OH236264   6.725   4.523   0.709 -0.7286  0.3992 -0.2277
 4902TIP3    H136265   6.813   4.559   0.706 -0.1263 -0.9829  0.0954
 4902TIP3    H236266   6.700   4.530   0.801 -0.6939  0.1953 -0.2023
 4903TIP3   OH236267   0.102   6.284   0.280 -0.7288 -0.0037  0.0709
 4903TIP3    H136268   0.148   6.201   0.294 -0.3969  0.0143 -0.8599
 4903TIP3    H236269   0.171   6.345   0.253 -0.9984  0.5321  0.5630
 4904TIP3   OH236270   4.538   0.362   0.397 -0.4292  0.0215 -0.0026
 4904TIP3    H136271   4.558   0.352   0.304 -2.7760 -0.4259 -0.5283
 4904TIP3    H236272   4.575   0.447   0.421 -0.0316  0.2736 -1.4145
 4905TIP3   OH236273   0.705   4.140   0.082  0.0174 -0.1136  0.7966
 4905TIP3    H136274   0.672   4.133   0.172 -0.6571 -0.6928  0.5125
 4905TIP3    H236275   0.729   4.232   0.072 -1.6299  0.3648  0.9880
 4906TIP3   OH236276   3.236   3.273   8.447  0.6658  0.2401  0.5039
 4906TIP3    H136277   3.297   3.207   8.413  0.5107  0.6630 -0.6514
 4906TIP3    H236278   3.293   3.345   8.476  0.8138 -0.2244  1.3973
 4907TIP3   OH236279   0.314   6.177   1.238 -0.2102  0.1258  0.4952
 4907TIP3    H136280   0.280   6.088   1.235  2.0407 -0.7727 -0.8195
 4907TIP3    H236281   0.267   6.223   1.169 -0.1933 -0.5171  0.0501
 4908TIP3   OH236282   3.835   1.433   0.574 -0.0314  0.5545  0.0968
 4908TIP3    H136283   3.860   1.352   0.529  0.8737 -0.5105  2.3914
 4908TIP3    H236284   3.742   1.444   0.552 -0.2385 -1.2417 -0.0842
 4909TIP3   OH236285   4.618   0.009   0.591 -0.1010 -0.2045  0.1289
 4909TIP3    H136286   4.601  -0.054   0.661 -0.2504  0.5282  0.7598
 4909TIP3    H236287   4.624  -0.045   0.512 -2.6229 -0.8174  0.2620
 4910TIP3   OH236288   3.608   2.790   8.565 -0.2868 -0.5228  0.0441
 4910TIP3    H136289   3.579   2.873   8.603 -0.2081 -1.8283  3.3007
 4910TIP3    H236290   3.626   2.811   8.474 -1.9242  2.6123  0.2851
 4911TIP3   OH236291   6.306   4.448   1.954 -0.2828 -0.1112  0.2308
 4911TIP3    H136292   6.376   4.385   1.972  0.1935  0.0278 -0.9934
 4911TIP3    H236293   6.272   4.422   1.868  0.6876  1.9313 -0.8393
 4912TIP3   OH236294   0.481   0.930   1.273 -0.2472 -0.3813 -0.2593
 4912TIP3    H136295   0.460   1.010   1.223  0.2753 -0.0614  0.0225
 4912TIP3    H236296   0.554   0.956   1.329  0.3743 -1.2425 -0.6437
 4913TIP3   OH236297   4.845   3.374   1.880 -0.5169  0.1291 -0.5460
 4913TIP3    H136298   4.792   3.312   1.831 -0.4585 -1.5758  1.4304
 4913TIP3    H236299   4.787   3.448   1.896  0.1807  2.0494 -5.2418
 4914TIP3   OH236300   6.219   4.724   6.957  0.4777 -0.0007  0.0900
 4914TIP3    H136301   6.148   4.712   6.895  0.6477 -0.3867 -0.0335
 4914TIP3    H236302   6.256   4.810   6.935  0.1144  0.1594  0.0956
 4915TIP3   OH236303   3.980   2.218   7.901  0.0165  0.3355  0.0028
 4915TIP3    H136304   3.901   2.223   7.955 -0.8583 -1.5080 -1.0380
 4915TIP3    H236305   4.023   2.137   7.927 -0.0843 -0.2596 -1.6022
 4916TIP3   OH236306   6.387   1.762   8.078 -0.3063  0.1960  0.1497
 4916TIP3    H136307   6.385   1.730   8.168  0.3622 -0.4948 -0.0719
 4916TIP3    H236308   6.307   1.814   8.069 -1.1453 -0.9536  0.6967
 4917TIP3   OH236309   0.918   2.107   1.141 -0.5224 -0.4109  0.3191
 4917TIP3    H136310   0.858   2.120   1.068 -2.2254 -1.0454  1.5502
 4917TIP3    H236311   0.997   2.155   1.116 -1.9590  1.4839 -0.8158
 4918TIP3   OH236312   6.585   3.756   7.356 -0.1382 -0.0763  0.2973
 4918TIP3    H136313   6.509   3.737   7.412 -1.6202 -1.2249 -1.9184
 4918TIP3    H236314   6.630   3.672   7.349 -0.6887 -0.2763 -1.1606
 4919TIP3   OH236315   5.758   6.089   0.834  0.1361 -0.0973 -0.0982
 4919TIP3    H136316   5.779   6.041   0.754 -1.3625 -0.5961 -0.2195
 4919TIP3    H236317   5.829   6.153   0.843  3.3696 -3.5048  1.1296
 4920TIP3   OH236318   1.223   6.474   0.977  0.1459  0.0199 -0.3368
 4920TIP3    H136319   1.156   6.410   1.002 -0.8706  1.1935  0.0664
 4920TIP3    H236320   1.305   6.436   1.008 -0.1394 -1.9280 -1.7055
 4921TIP3   OH236321   1.894   3.080   7.020  0.5585  0.2259  0.3535
 4921TIP3    H136322   1.939   3.083   7.104  0.9206 -1.4041  0.2461
 4921TIP3    H236323   1.872   3.171   7.002  3.1344  1.0149  0.7849
 4922TIP3   OH236324   5.022   1.057   6.936 -0.1186  0.5627  0.5936
 4922TIP3    H136325   5.051   1.079   6.847  0.5325 -0.2916  0.5830
 4922TIP3    H236326   5.102   1.027   6.980  0.0093  2.8137  2.0890
 4923TIP3   OH236327   4.676   6.267   8.089  0.2711 -0.4104 -0.2173
 4923TIP3    H136328   4.764   6.273   8.050  0.6840 -0.5181  0.6587
 4923TIP3    H236329   4.640   6.186   8.056  1.0771 -1.0885  0.5150
 4924TIP3   OH236330   2.201   5.997   0.947  0.6417  0.0093  0.4199
 4924TIP3    H136331   2.163   5.924   0.898  0.3754 -0.5608  1.4443
 4924TIP3    H236332   2.266   6.035   0.888  2.6175 -2.6176  0.6917
 4925TIP3   OH236333   0.871   2.278   2.238  0.2245  0.1201 -0.3535
 4925TIP3    H136334   0.874   2.313   2.327  0.5949  0.3624 -0.4600
 4925TIP3    H236335   0.961   2.287   2.205 -0.1396  1.0475 -1.1364
 4926TIP3   OH236336   4.710   1.351   8.330 -0.1347 -0.1486 -0.2082
 4926TIP3    H136337   4.673   1.417   8.388  1.3625  1.4545 -1.0019
 4926TIP3    H236338   4.637   1.329   8.271 -0.3159  1.8989 -0.8456
 4927TIP3   OH236339   1.028   4.060   0.054  0.2314 -0.1385 -0.7814
 4927TIP3    H136340   1.037   4.154   0.072  0.7507  0.3778 -3.3472
 4927TIP3    H236341   1.092   4.043  -0.015 -1.2813 -1.9313 -1.8226
 4928TIP3   OH236342   6.694   3.618   0.177 -0.6633 -0.1314 -0.0619
 4928TIP3    H136343   6.724   3.529   0.195 -0.1403 -0.0618 -0.5960
 4928TIP3    H236344   6.756   3.674   0.224 -0.0244  0.0070 -1.0564
 4929TIP3   OH236345   0.622   6.348   2.075 -0.3270 -0.8235 -0.2267
 4929TIP3    H136346   0.658   6.429   2.111 -0.8586 -1.4544  1.8268
 4929TIP3    H236347   0.571   6.377   1.999 -1.4517  0.9302  1.1156
 4930TIP3   OH236348   4.776   5.515   2.801 -0.5931 -0.0241  0.2061
 4930TIP3    H136349   4.730   5.433   2.821 -0.6053 -0.1909 -0.5048
 4930TIP3    H236350   4.862   5.487   2.769 -0.5036  0.2536  0.2071
 4931TIP3   OH236351   4.104   0.509   7.454  0.5043  0.4198 -0.1777
 4931TIP3    H136352   4.180   0.492   7.509 -0.2052  0.1194  0.7481
 4931TIP3    H236353   4.044   0.559   7.510 -0.4764 -0.3817 -0.4690
 4932TIP3   OH236354   1.173   2.374   1.712 -0.1853  0.1499 -0.5412
 4932TIP3    H136355   1.227   2.338   1.642 -0.7290 -1.4481 -0.2062
 4932TIP3    H236356   1.090   2.325   1.706  0.0548 -0.6845  1.6974
 4933TIP3   OH236357   2.021   0.631   1.372 -0.5628 -0.8098 -0.1236
 4933TIP3    H136358   2.068   0.591   1.446 -0.5217 -0.0087  0.2896
 4933TIP3    H236359   2.058   0.588   1.295  0.7326 -0.3188  0.2054
 4934TIP3   OH236360   1.306   3.807   7.520 -0.2514  0.5470  0.4019
 4934TIP3    H136361   1.270   3.740   7.461 -2.9753  1.6311  0.6756
 4934TIP3    H236362   1.398   3.813   7.495 -0.1898 -2.3233 -0.5308
 4935TIP3   OH236363   2.552   5.897   7.689  0.0251 -0.0549  0.3006
 4935TIP3    H136364   2.630   5.855   7.724  1.0439  1.3889 -0.1217
 4935TIP3    H236365   2.523   5.956   7.759  0.3067  0.6317 -0.1489
 4936TIP3   OH236366   4.953   0.480   8.307 -0.0114 -0.3778  0.0824
 4936TIP3    H136367   4.873   0.487   8.257 -0.8728 -0.2236  1.4284
 4936TIP3    H236368   4.933   0.522   8.391  1.0673 -1.4641  0.9183
 4937TIP3   OH236369   4.234   5.076   0.045  0.2280 -0.3133  0.2620
 4937TIP3    H136370   4.207   5.159   0.084  0.9666 -0.1244  0.3786
 4937TIP3    H236371   4.320   5.058   0.083  0.1881 -1.0020  0.0426
 4938TIP3   OH236372   6.020   0.641   0.305 -0.2697 -0.5341  0.4202
 4938TIP3    H136373   6.066   0.716   0.267  1.0044 -1.2389  0.5079
 4938TIP3    H236374   5.983   0.675   0.386 -1.1085  0.4083 -0.3268
 4939TIP3   OH236375   1.113   6.607   1.339 -1.3135  0.1547  0.3729
 4939TIP3    H136376   1.198   6.565   1.353  0.1538  1.9174 -2.5039
 4939TIP3    H236377   1.085   6.634   1.426  1.5508  0.3804  1.3174
 4940TIP3   OH236378   4.174   1.368   7.780  0.1922 -0.0624 -0.5879
 4940TIP3    H136379   4.088   1.325   7.787  0.5646 -0.8516 -0.7242
 4940TIP3    H236380   4.186   1.411   7.865  0.6175 -1.8009  0.2740
 4941TIP3   OH236381   6.343   1.390   0.728 -0.5928  0.3415 -0.0942
 4941TIP3    H136382   6.382   1.336   0.796  0.3937  0.4675 -0.5372
 4941TIP3    H236383   6.358   1.341   0.647  1.8288  1.9614 -0.7482
 4942TIP3   OH236384   2.429   0.423   2.416  0.1443 -0.6137  0.1646
 4942TIP3    H136385   2.381   0.432   2.499 -1.5498 -1.9384 -0.6047
 4942TIP3    H236386   2.379   0.474   2.353  0.1206 -1.4561 -0.5155
 4943TIP3   OH236387   3.955   1.429   1.783 -0.0378 -0.6700 -0.1696
 4943TIP3    H136388   3.973   1.512   1.739 -0.2367  0.2556  1.4209
 4943TIP3    H236389   3.901   1.453   1.859  1.3717 -1.9825  1.3427
 4944TIP3   OH236390   1.171   2.831   8.467 -0.5616  0.5081 -0.3167
 4944TIP3    H136391   1.092   2.815   8.416 -0.5866  1.1356 -0.4824
 4944TIP3    H236392   1.141   2.832   8.558 -0.4744 -0.8780 -0.2500
 4945TIP3   OH236393   3.950   0.809   6.211  0.4128 -0.1676  0.1253
 4945TIP3    H136394   3.889   0.815   6.285 -1.8998 -0.1886 -1.6697
 4945TIP3    H236395   3.984   0.720   6.215 -0.9550 -0.7064  0.2436
 4946TIP3   OH236396   1.365   3.276   0.816 -0.5388 -0.0071 -0.6585
 4946TIP3    H136397   1.355   3.357   0.767  0.5791  0.8066  0.4207
 4946TIP3    H236398   1.459   3.266   0.829 -0.7097 -1.0523 -0.0822
 4947TIP3   OH236399   0.001   2.521   1.222 -0.1886 -0.3956 -0.3023
 4947TIP3    H136400  -0.027   2.579   1.151 -0.2200 -1.4168 -1.1496
 4947TIP3    H236401   0.094   2.540   1.235 -0.5971  1.1216  0.6995
 4948TIP3   OH236402   6.466   0.635   7.602  0.7736 -0.0901 -0.1049
 4948TIP3    H136403   6.501   0.686   7.529 -3.3919  2.2715 -0.7846
 4948TIP3    H236404   6.445   0.550   7.564  2.0556 -0.2087 -0.6107
 4949TIP3   OH236405   2.157   4.730   2.273  0.4146 -0.6082  0.2715
 4949TIP3    H136406   2.073   4.766   2.299  0.2690 -1.2452  0.7301
 4949TIP3    H236407   2.135   4.646   2.231  0.7550 -0.3077 -0.5280
 4950TIP3   OH236408   0.951   5.185   0.961  0.0385  0.6204  0.0457
 4950TIP3    H136409   1.023   5.139   0.919  2.1544  2.5481  1.3452
 4950TIP3    H236410   0.933   5.135   1.041  0.9360  0.9047  0.4331
 4951TIP3   OH236411   2.452   4.270   7.417  0.4220  0.0843  0.0249
 4951TIP3    H136412   2.494   4.189   7.448  2.6543  1.0017 -0.4164
 4951TIP3    H236413   2.452   4.327   7.494  0.4065  0.2520 -0.1012
 4952TIP3   OH236414   3.176   2.091   1.765 -0.2112 -0.2035  0.0583
 4952TIP3    H136415   3.192   2.036   1.841  2.4993  0.1375 -0.1639
 4952TIP3    H236416   3.163   2.179   1.800 -2.4511 -0.5534  0.2710
 4953TIP3   OH236417   5.506   5.193   7.169  0.0840  0.4565 -0.0836
 4953TIP3    H136418   5.538   5.134   7.238  0.7078  1.9947  1.0023
 4953TIP3    H236419   5.509   5.140   7.089 -0.5610 -1.3540  1.0288
 4954TIP3   OH236420   6.197   0.476   0.745 -0.0216  0.4419  0.1630
 4954TIP3    H136421   6.167   0.386   0.752 -0.5827  0.6455  0.4146
 4954TIP3    H236422   6.175   0.516   0.829  1.1080  0.5610  0.4194
 4955TIP3   OH236423   6.554   2.340   0.388 -0.3945 -0.3759 -0.1380
 4955TIP3    H136424   6.545   2.247   0.365  0.4971 -0.1803 -1.4037
 4955TIP3    H236425   6.516   2.347   0.476 -0.4138 -1.9451  0.0089
 4956TIP3   OH236426   4.975   6.419   7.213  0.2713  0.5599 -0.1723
 4956TIP3    H136427   4.932   6.336   7.233 -1.6745  1.4421 -0.4824
 4956TIP3    H236428   5.061   6.412   7.254 -0.0679 -1.3694  0.2971
 4957TIP3   OH236429   4.632   4.232   7.267  0.3891 -0.2502 -0.1126
 4957TIP3    H136430   4.672   4.220   7.181  1.8986 -2.6186  0.8329
 4957TIP3    H236431   4.620   4.144   7.301 -3.1740  0.4506  0.8751
 4958TIP3   OH236432   2.812   3.472   8.185 -0.1697 -0.1342  0.5879
 4958TIP3    H136433   2.791   3.551   8.135 -0.2054 -1.1635 -1.1143
 4958TIP3    H236434   2.897   3.490   8.226 -0.1905  0.7829  0.2354
 4959TIP3   OH236435   1.849   5.810   0.852 -0.4628 -0.2266 -0.1110
 4959TIP3    H136436   1.936   5.823   0.815 -0.2179  0.2009  0.5949
 4959TIP3    H236437   1.804   5.756   0.788 -0.1629  0.7555 -1.1967
 4960TIP3   OH236438   3.392   4.551   0.768 -0.4065 -0.6841  0.0190
 4960TIP3    H136439   3.426   4.553   0.857 -0.9859  1.6745  0.2672
 4960TIP3    H236440   3.297   4.554   0.778 -0.4800  2.5910 -0.5568
 4961TIP3   OH236441   4.646   0.293   1.145  0.0142  0.1686 -0.2050
 4961TIP3    H136442   4.581   0.227   1.168 -1.0487  1.2297 -0.0384
 4961TIP3    H236443   4.623   0.368   1.201  0.2572  1.1860 -1.4366
 4962TIP3   OH236444   0.790   1.291   0.507 -0.3327 -0.3997 -0.6010
 4962TIP3    H136445   0.864   1.307   0.566  0.5236  1.7926 -2.1300
 4962TIP3    H236446   0.820   1.219   0.452 -0.2269 -0.9443  0.1465
 4963TIP3   OH236447   3.918   5.571   7.970  0.4772 -0.1937 -0.2888
 4963TIP3    H136448   3.834   5.525   7.967  1.0782 -1.5683  1.7170
 4963TIP3    H236449   3.895   5.663   7.981 -0.7538 -0.3315 -1.4926
 4964TIP3   OH236450   3.275   0.193   7.620 -0.5999 -0.1858 -0.1756
 4964TIP3    H136451   3.188   0.187   7.579  0.0815 -0.2182 -1.6887
 4964TIP3    H236452   3.259   0.175   7.713 -2.3395  0.7600 -0.2470
 4965TIP3   OH236453   3.393   1.682   7.057 -0.9516 -0.3293  0.0444
 4965TIP3    H136454   3.429   1.597   7.080  0.3606  0.6860  2.0014
 4965TIP3    H236455   3.461   1.745   7.081 -2.6060  1.4049  0.4683
 4966TIP3   OH236456   0.223   1.761   7.855 -0.4481 -0.7845 -0.4241
 4966TIP3    H136457   0.300   1.712   7.884  0.6505  0.3992 -1.2355
 4966TIP3    H236458   0.228   1.758   7.759 -0.5126  0.6453 -0.4899
 4967TIP3   OH236459   1.799   1.571   8.485 -0.1739  0.3140 -0.1283
 4967TIP3    H136460   1.765   1.495   8.438  0.5988  0.2945 -0.6631
 4967TIP3    H236461   1.723   1.604   8.534 -1.0591  0.4772 -1.5633
 4968TIP3   OH236462   0.500   1.837   1.896 -0.0983  0.0509  0.1229
 4968TIP3    H136463   0.582   1.869   1.857  0.0160 -0.0449  0.2817
 4968TIP3    H236464   0.463   1.779   1.830  0.6610 -1.0008  0.5985
 4969TIP3   OH236465   6.574   1.467   1.821  0.5951  0.5007  0.0265
 4969TIP3    H136466   6.615   1.514   1.748 -0.5618  1.5021 -0.0081
 4969TIP3    H236467   6.531   1.392   1.780 -0.9151  1.6124 -0.5056
 4970TIP3   OH236468   2.717   3.788   8.445  0.5247  0.4993 -0.2999
 4970TIP3    H136469   2.711   3.866   8.389 -1.2497 -0.7335 -1.9613
 4970TIP3    H236470   2.679   3.718   8.392 -1.3729 -0.7610  2.4922
 4971TIP3   OH236471   3.963   3.752   8.336  0.1380  0.7867 -0.1325
 4971TIP3    H136472   4.037   3.701   8.371  0.1040  0.3425 -0.7070
 4971TIP3    H236473   3.945   3.816   8.405  0.0916 -0.0554  0.6673
 4972TIP3   OH236474   1.628   3.377   2.183  0.1976 -0.0947  0.3513
 4972TIP3    H136475   1.573   3.439   2.231 -0.3141 -1.8147  2.1246
 4972TIP3    H236476   1.711   3.376   2.231  0.2885 -0.5700  0.1962
 4973TIP3   OH236477   1.634   1.333   0.881 -0.1508  0.2148  0.4793
 4973TIP3    H136478   1.556   1.342   0.826  1.4179 -1.4643 -2.2462
 4973TIP3    H236479   1.678   1.255   0.848  0.5795 -1.4725  4.7345
 4974TIP3   OH236480   6.157   3.689   0.672 -0.1039 -0.4782 -0.0161
 4974TIP3    H136481   6.247   3.689   0.704 -0.8455 -0.8897  2.2847
 4974TIP3    H236482   6.146   3.775   0.632  2.0153 -1.3326 -2.7864
 4975TIP3   OH236483   6.506   4.850   0.667 -0.0643  0.2011 -0.3484
 4975TIP3    H136484   6.466   4.828   0.751 -0.2760 -0.2312 -0.5587
 4975TIP3    H236485   6.442   4.905   0.622 -0.3102 -0.2484 -0.5627
 4976TIP3   OH236486   2.648   1.641   0.098 -0.4733  0.0190  0.5296
 4976TIP3    H136487   2.709   1.691   0.153 -0.5692 -0.1885  0.8226
 4976TIP3    H236488   2.568   1.693   0.099 -0.2721  0.3500  0.0539
 4977TIP3   OH236489   5.999   0.061   2.300 -0.8976  0.0758  0.0789
 4977TIP3    H136490   6.024  -0.001   2.369  2.9435  0.5856 -0.6078
 4977TIP3    H236491   6.075   0.119   2.291 -2.3767  1.8312 -2.6447
 4978TIP3   OH236492   2.645   2.407   7.318 -0.1881  0.0007 -0.2047
 4978TIP3    H136493   2.637   2.348   7.243  1.0225  0.4693 -0.7255
 4978TIP3    H236494   2.686   2.485   7.283  1.3546 -0.1636  1.1382
 4979TIP3   OH236495   4.228   3.011   1.675  0.4700  0.0926 -0.3166
 4979TIP3    H136496   4.174   3.066   1.733  1.0257 -1.1119  1.4239
 4979TIP3    H236497   4.313   3.055   1.673 -0.0725  1.1847 -1.8666
 4980TIP3   OH236498   3.195   1.123   8.292 -0.2525 -0.3778 -0.1799
 4980TIP3    H136499   3.121   1.147   8.346  0.0374  0.6711 -0.2339
 4980TIP3    H236500   3.175   1.158   8.205  1.2889  2.0162  0.3202
 4981TIP3   OH236501   0.354   1.380   0.365 -0.3949 -0.4046 -0.5467
 4981TIP3    H136502   0.404   1.443   0.312 -0.6751  0.3162  0.0193
 4981TIP3    H236503   0.386   1.294   0.338 -0.8067 -0.0845 -2.1754
 4982TIP3   OH236504   6.652   5.078   1.972 -0.5003  0.0061  0.0684
 4982TIP3    H136505   6.699   5.075   1.889 -3.4746  0.4532 -1.7586
 4982TIP3    H236506   6.653   5.170   1.998  0.0973 -0.0784  0.3785
 4983TIP3   OH236507   3.859   3.333   1.091 -0.0075 -0.0317 -0.4221
 4983TIP3    H136508   3.927   3.377   1.039  0.9264 -0.6531  0.2279
 4983TIP3    H236509   3.860   3.243   1.060  0.2420 -0.2995  0.3440
 4984TIP3   OH236510   3.823   5.634   2.526  1.1956  0.7407  0.1422
 4984TIP3    H136511   3.861   5.559   2.570 -1.8478 -0.8906  0.2492
 4984TIP3    H236512   3.805   5.604   2.437  0.8063  1.6441 -0.1037
 4985TIP3   OH236513   6.394   4.016   1.682 -0.5451  0.0998  0.4095
 4985TIP3    H136514   6.357   4.097   1.716 -0.0598  1.3643 -1.8726
 4985TIP3    H236515   6.323   3.952   1.689 -1.5414  1.2012  0.5954
 4986TIP3   OH236516   5.273   2.907   7.984 -0.2277  0.0523 -0.2110
 4986TIP3    H136517   5.207   2.936   8.048 -0.8649  0.3160 -0.9582
 4986TIP3    H236518   5.242   2.943   7.901 -0.6098 -2.0963 -1.0666
 4987TIP3   OH236519   4.224   4.696   8.562 -0.0183  0.5062 -0.1149
 4987TIP3    H136520   4.160   4.716   8.631  0.6960 -1.4519  1.2000
 4987TIP3    H236521   4.308   4.723   8.598  0.1906  0.9473 -0.9029
 4988TIP3   OH236522   3.412   4.700   0.444  0.4924  0.1731 -0.2246
 4988TIP3    H136523   3.374   4.751   0.373  0.1007  0.2310  0.0233
 4988TIP3    H236524   3.464   4.633   0.400 -2.8127 -2.3163 -0.7879
 4989TIP3   OH236525   6.620   4.160   1.576 -0.4724 -0.2007 -0.7594
 4989TIP3    H136526   6.621   4.226   1.645  1.2221 -0.0116 -0.9177
 4989TIP3    H236527   6.542   4.108   1.594 -2.1503  2.1191 -0.9290
 4990TIP3   OH236528   0.695   4.554   1.240 -0.2704 -0.0347 -0.3578
 4990TIP3    H136529   0.779   4.600   1.240 -0.1801 -0.1956 -0.0587
 4990TIP3    H236530   0.711   4.476   1.294  0.0259 -1.2254 -2.0870
 4991TIP3   OH236531   1.530   1.183   7.292 -0.4491 -0.4826 -0.1638
 4991TIP3    H136532   1.607   1.172   7.235 -0.5885 -0.4054 -0.3699
 4991TIP3    H236533   1.558   1.150   7.377 -0.7882 -2.3405 -0.7107
 4992TIP3   OH236534   4.370   6.528   0.661 -0.8167  0.1404 -0.6440
 4992TIP3    H136535   4.322   6.609   0.676  0.0840  0.5133  0.4549
 4992TIP3    H236536   4.447   6.535   0.718 -0.0598 -0.9302 -1.4782
 4993TIP3   OH236537   5.724   6.541   8.212 -0.4886 -0.3968  0.2652
 4993TIP3    H136538   5.817   6.532   8.193 -1.0200 -1.8139 -2.0417
 4993TIP3    H236539   5.720   6.562   8.306  2.1342  0.1897  0.3091
 4994TIP3   OH236540   0.106   5.921   0.104  0.4447 -0.3530 -0.1156
 4994TIP3    H136541   0.162   5.903   0.029  0.8271  1.4858 -0.3293
 4994TIP3    H236542   0.026   5.957   0.066  1.0619  1.6541  0.3097
 4995TIP3   OH236543   4.928   1.371   0.764  0.2213 -0.3986  0.2324
 4995TIP3    H136544   4.945   1.465   0.762  0.6000 -0.4772 -0.7087
 4995TIP3    H236545   5.013   1.332   0.786 -0.2010 -0.4776  1.8761
 4996TIP3   OH236546   6.220   1.884   2.288  0.2889 -0.0961 -0.1981
 4996TIP3    H136547   6.312   1.859   2.290  0.7451  1.5256  0.8518
 4996TIP3    H236548   6.189   1.868   2.378  0.3054  1.8498  0.2062
 4997TIP3   OH236549   5.085   3.174   1.870 -0.5106  0.1626 -0.4579
 4997TIP3    H136550   5.018   3.242   1.880  0.1114  0.8437 -0.8259
 4997TIP3    H236551   5.098   3.166   1.776 -0.5296 -0.4270 -0.4167
 4998TIP3   OH236552   6.682   0.486   8.640  0.4859 -0.2030  0.3454
 4998TIP3    H136553   6.639   0.479   8.555 -0.7477 -0.7339  0.9877
 4998TIP3    H236554   6.703   0.579   8.649  0.4395 -0.1113 -0.4414
 4999TIP3   OH236555   2.796   1.302   1.470  0.1571 -0.3264 -0.1546
 4999TIP3    H136556   2.775   1.385   1.513  3.4611  0.5967 -0.0311
 4999TIP3    H236557   2.823   1.327   1.382 -0.1164 -1.4534 -0.5760
 5000TIP3   OH236558   0.644   4.223   7.941  0.1889 -0.0459 -0.4644
 5000TIP3    H136559   0.549   4.207   7.948  0.2225 -1.0529 -2.0689
 5000TIP3    H236560   0.669   4.186   7.857  1.7377  1.6567 -0.8149
 5001TIP3   OH236561   5.871   3.397   7.773 -0.3045  0.3363  0.5146
 5001TIP3    H136562   5.942   3.359   7.721  0.0189  0.3519  0.9413
 5001TIP3    H236563   5.839   3.324   7.825  0.4912  0.6849  1.5306
 5002TIP3   OH236564   3.591   1.836   8.394 -0.4533 -0.1054 -0.4860
 5002TIP3    H136565   3.622   1.762   8.340 -0.1579 -0.6748  0.4423
 5002TIP3    H236566   3.671   1.870   8.435 -0.8813 -0.9158  1.0977
 5003TIP3   OH236567   0.543   0.149   8.169 -0.3313  0.1192 -0.0454
 5003TIP3    H136568   0.470   0.114   8.118  1.4620 -0.9839 -2.0211
 5003TIP3    H236569   0.561   0.235   8.131  0.0805 -0.0804 -0.3095
 5004TIP3   OH236570   6.410   0.782   1.760 -0.2041  0.1736  0.4198
 5004TIP3    H136571   6.439   0.697   1.791 -1.8599 -1.2366 -1.6341
 5004TIP3    H236572   6.381   0.828   1.840 -0.6249 -1.7283  1.4239
 5005TIP3   OH236573   3.898   3.025   8.387 -0.3627 -0.4120 -0.5429
 5005TIP3    H136574   3.987   2.992   8.370  0.0370 -1.0430  2.2781
 5005TIP3    H236575   3.842   2.948   8.378 -0.5004 -0.2253 -1.3361
 5006TIP3   OH236576   2.983   3.759   8.826  0.1148 -1.1233  0.0306
 5006TIP3    H136577   2.912   3.767   8.762  0.0815 -2.6662 -0.1569
 5006TIP3    H236578   3.058   3.800   8.784 -0.6785  0.7757  0.3350
 5007TIP3   OH236579   5.907   2.998   0.318  0.1704 -0.2883 -0.3977
 5007TIP3    H136580   5.892   2.997   0.224 -1.7975  2.3390 -0.2028
 5007TIP3    H236581   5.824   2.971   0.357  0.6656 -0.4022  0.6307
 5008TIP3   OH236582   6.777   5.794   2.627  0.2599 -0.4359 -0.2455
 5008TIP3    H136583   6.855   5.794   2.571  0.1642 -1.6351 -0.4057
 5008TIP3    H236584   6.725   5.720   2.596 -0.8140  0.1662  0.0529
 5009TIP3   OH236585   0.093   6.270   7.838 -0.0796 -0.0198 -0.2508
 5009TIP3    H136586   0.181   6.232   7.845 -0.2980 -0.3638  0.7312
 5009TIP3    H236587   0.108   6.365   7.841  0.4032 -0.0136 -1.9513
 5010TIP3   OH236588   1.603   3.925   2.796 -0.4085  0.3983  0.0035
 5010TIP3    H136589   1.637   3.941   2.708 -0.4782  0.1350 -0.0729
 5010TIP3    H236590   1.572   3.835   2.793  0.6592 -0.0128  0.6436
 5011TIP3   OH236591   6.316   1.805   0.731  0.6734 -0.0072  0.1440
 5011TIP3    H136592   6.405   1.829   0.758  1.0421 -1.4609  0.3009
 5011TIP3    H236593   6.316   1.710   0.732 -1.2139 -0.0454  1.2242
 5012TIP3   OH236594   4.053   4.306   0.498  0.3844  0.0047  0.1929
 5012TIP3    H136595   4.005   4.304   0.581  0.4290  0.1032  0.2224
 5012TIP3    H236596   4.131   4.358   0.518 -0.5768  1.7608 -0.4127
 5013TIP3   OH236597   3.089   3.350   0.650  0.0012  0.1464  0.0555
 5013TIP3    H136598   3.138   3.269   0.634  2.0897  1.1065  1.2489
 5013TIP3    H236599   3.035   3.361   0.571  1.7004 -0.9787 -1.3538
 5014TIP3   OH236600   4.401   6.328   8.144 -0.3334 -0.7066  0.5672
 5014TIP3    H136601   4.494   6.306   8.148 -0.1582 -0.1935 -0.5226
 5014TIP3    H236602   4.362   6.260   8.090 -0.3706 -0.2301 -0.0144
 5015TIP3   OH236603   0.336   1.840   0.125  0.1134 -0.3038  0.7095
 5015TIP3    H136604   0.283   1.800   0.056 -2.1984  0.3018  2.0116
 5015TIP3    H236605   0.306   1.931   0.129  1.5395  0.1746  1.2964
 5016TIP3   OH236606   2.695   6.645   7.605 -0.2629  0.0791  0.2554
 5016TIP3    H136607   2.758   6.593   7.654 -0.6754 -0.5468  0.1292
 5016TIP3    H236608   2.705   6.734   7.640 -0.1632 -0.2507  1.0883
 5017TIP3   OH236609   3.809   2.509   8.382 -0.8275 -0.1142 -0.3151
 5017TIP3    H136610   3.753   2.463   8.445  0.0055 -0.9865 -0.2026
 5017TIP3    H236611   3.767   2.494   8.297  0.4064 -2.7254 -0.5590
 5018TIP3   OH236612   1.652   5.623   1.988  0.5006  0.3589 -0.5525
 5018TIP3    H136613   1.727   5.650   1.934 -1.4030  0.5320 -3.3375
 5018TIP3    H236614   1.612   5.706   2.015  0.8248  0.2659  0.2266
 5019TIP3   OH236615   3.498   2.993   8.748  0.3743  0.5659  0.0496
 5019TIP3    H136616   3.489   3.088   8.752  2.7532  0.8091  1.7449
 5019TIP3    H236617   3.559   2.972   8.819  0.5107 -2.1545 -0.7724
 5020TIP3   OH236618   5.815   4.133   8.014  0.8582  0.7035 -0.0108
 5020TIP3    H136619   5.812   4.119   8.109 -1.1018  1.1690  0.0335
 5020TIP3    H236620   5.723   4.143   7.989  1.2704 -0.3517 -2.1191
 5021TIP3   OH236621   5.857   6.169   2.158  0.5748  0.2781  0.4280
 5021TIP3    H136622   5.801   6.197   2.230  0.3734 -0.0597  0.4074
 5021TIP3    H236623   5.929   6.121   2.200 -0.2606 -1.1237  0.3432
 5022TIP3   OH236624   4.377   5.346   8.575 -0.2547  0.1783 -0.4526
 5022TIP3    H136625   4.311   5.277   8.584  0.4526 -0.4261  0.2629
 5022TIP3    H236626   4.347   5.398   8.501 -1.4723 -0.1534 -0.2146
 5023TIP3   OH236627   3.609   5.213   1.264  0.0232 -0.2807 -0.3896
 5023TIP3    H136628   3.687   5.263   1.238 -0.7070  0.1346 -1.8601
 5023TIP3    H236629   3.541   5.240   1.202 -1.9999  1.1203  2.1805
 5024TIP3   OH236630   3.626   6.158   0.234  0.0605 -0.3876  0.3609
 5024TIP3    H136631   3.642   6.138   0.326 -0.3509  1.0449  0.7602
 5024TIP3    H236632   3.705   6.130   0.189  1.1198  0.7820  1.4414
 5025TIP3   OH236633   1.311   2.958   7.626  0.8422  0.1228 -0.1418
 5025TIP3    H136634   1.263   2.895   7.573 -0.2190  0.4703  0.3678
 5025TIP3    H236635   1.275   2.947   7.714 -0.3807  2.3630 -0.2848
 5026TIP3   OH236636   3.390   2.052   6.829  0.2714  0.6191  0.2424
 5026TIP3    H136637   3.446   2.020   6.758  0.0173  3.3519 -1.3197
 5026TIP3    H236638   3.301   2.046   6.794  0.2385  3.1825 -0.2798
 5027TIP3   OH236639   2.701   5.049   7.709  0.3287 -0.3289 -0.1292
 5027TIP3    H136640   2.780   4.996   7.719  1.3961  1.1224 -0.4300
 5027TIP3    H236641   2.734   5.138   7.695 -1.3763  0.3569 -0.0307
 5028TIP3   OH236642   1.739   2.684   0.094  0.3612 -0.2705  0.5225
 5028TIP3    H136643   1.658   2.641   0.066  0.4169  0.1214 -0.2497
 5028TIP3    H236644   1.714   2.776   0.105  0.4984 -0.3014  1.1410
 5029TIP3   OH236645   5.148   3.966   1.198 -0.1792 -0.1453  0.2847
 5029TIP3    H136646   5.212   3.904   1.163  0.3117  0.4090  0.1807
 5029TIP3    H236647   5.189   4.052   1.185 -0.5010  0.1476  1.1634
 5030TIP3   OH236648   6.285   1.490   2.579 -0.9139  0.0847  0.2500
 5030TIP3    H136649   6.290   1.396   2.596  0.4928  0.2034  0.6385
 5030TIP3    H236650   6.210   1.520   2.630 -1.6466 -0.8844 -0.2282
 5031TIP3   OH236651   1.327   4.639   1.393  0.4667 -0.7634 -0.0065
 5031TIP3    H136652   1.381   4.617   1.316  0.5124 -1.3198  0.1843
 5031TIP3    H236653   1.260   4.699   1.358  0.5677 -0.9049 -0.4557
 5032TIP3   OH236654   5.972   3.250   8.767 -0.0654  0.1560 -0.0033
 5032TIP3    H136655   6.005   3.269   8.679 -0.2406  0.6221  0.0294
 5032TIP3    H236656   6.041   3.281   8.826  0.0539 -0.1604  0.0221
 5033TIP3   OH236657   6.572   3.845   7.793 -0.4511  0.1409 -0.2065
 5033TIP3    H136658   6.526   3.769   7.829  3.0958 -2.2962 -0.2452
 5033TIP3    H236659   6.593   3.899   7.869  0.8785 -1.3211  0.5126
 5034TIP3   OH236660   1.582   5.817   2.766 -0.3229  0.1379 -0.3849
 5034TIP3    H136661   1.516   5.887   2.760  0.0318  0.4410 -0.7860
 5034TIP3    H236662   1.548   5.748   2.708 -0.3529  0.2452 -0.4969
 5035TIP3   OH236663   5.964   0.054   0.703  0.1655  0.6798  0.2141
 5035TIP3    H136664   5.974   0.034   0.796  0.0233  0.4501  0.1815
 5035TIP3    H236665   6.053   0.055   0.669  0.1247 -1.5142 -0.1019
 5036TIP3   OH236666   0.213   1.802   8.764 -0.5110  0.7370 -0.2396
 5036TIP3    H136667   0.215   1.897   8.752  1.6006  0.7067 -0.5279
 5036TIP3    H236668   0.297   1.772   8.731 -1.1018 -1.2427 -0.0676
 5037TIP3   OH236669   0.142   4.344   1.776 -0.4440  0.9303  0.6265
 5037TIP3    H136670   0.226   4.390   1.785 -0.8629  1.8044  0.2330
 5037TIP3    H236671   0.076   4.410   1.798 -1.0334  0.2895  0.8034
 5038TIP3   OH236672   4.773   6.056   1.680  0.1790 -0.4965  0.7556
 5038TIP3    H136673   4.747   6.141   1.643  1.2633 -0.7419 -0.6573
 5038TIP3    H236674   4.784   6.074   1.774  0.0784  0.8428  0.5391
 5039TIP3   OH236675   1.930   6.181   7.965 -0.3754  0.8487 -0.2576
 5039TIP3    H136676   1.909   6.211   8.053  0.4627 -1.8066  0.9372
 5039TIP3    H236677   2.022   6.158   7.969 -0.5072 -0.0072 -1.6242
 5040TIP3   OH236678   4.130   2.438   7.839  0.5229 -0.8654  0.2055
 5040TIP3    H136679   4.123   2.450   7.745 -3.7510  0.8161  0.4927
 5040TIP3    H236680   4.103   2.348   7.855 -1.2486 -0.4212 -0.1102
 5041TIP3   OH236681   0.322   2.731   8.595  0.0915  0.1557  0.4902
 5041TIP3    H136682   0.388   2.748   8.528 -0.6499  1.2191 -0.0013
 5041TIP3    H236683   0.301   2.638   8.585  0.3154  0.2019 -0.4614
 5042TIP3   OH236684   5.973   2.760   7.702  0.2489  0.4899  0.0764
 5042TIP3    H136685   5.958   2.716   7.618 -0.2241  1.0272 -0.1333
 5042TIP3    H236686   5.959   2.853   7.682  1.9143  0.8165  0.3484
 5043TIP3   OH236687   5.047   1.845   8.652 -0.1712 -1.2033  0.2654
 5043TIP3    H136688   5.080   1.774   8.707 -1.3584 -1.7338  0.3286
 5043TIP3    H236689   5.113   1.914   8.658  0.5638 -1.9529  0.9253
 5044TIP3   OH236690   4.765   2.083   8.358 -0.2149  0.0906 -0.7237
 5044TIP3    H136691   4.760   2.031   8.438  1.2850 -2.0104 -1.9016
 5044TIP3    H236692   4.814   2.161   8.383 -0.9049  0.1166  0.6704
 5045TIP3   OH236693   1.955   0.535   0.187  0.2292  0.2965 -0.2661
 5045TIP3    H136694   2.009   0.605   0.224 -0.0059  0.2025  0.2575
 5045TIP3    H236695   1.888   0.582   0.137 -2.0349  0.6485  2.8483
 5046TIP3   OH236696   1.645   4.689   1.792 -0.5737 -0.3923  0.0131
 5046TIP3    H136697   1.642   4.784   1.784 -1.8531 -0.4221 -0.0192
 5046TIP3    H236698   1.617   4.656   1.706 -0.9960 -0.7883  0.2982
 5047TIP3   OH236699   5.935   3.015   7.345 -0.2516 -0.2738 -0.3067
 5047TIP3    H136700   5.927   2.972   7.259 -1.7387 -0.7895  0.0517
 5047TIP3    H236701   5.887   3.097   7.334  0.0272 -0.0881 -0.1264
 5048TIP3   OH236702   6.247   4.885   8.103 -0.7773  0.0246 -0.1341
 5048TIP3    H136703   6.266   4.844   8.018 -1.1626 -2.7346  1.0000
 5048TIP3    H236704   6.160   4.854   8.126 -0.9886  1.3311  0.9683
 5049TIP3   OH236705   1.138   2.614   8.868 -0.4994  0.3489  0.3053
 5049TIP3    H136706   1.128   2.538   8.810  1.2865 -0.6091  1.1567
 5049TIP3    H236707   1.148   2.576   8.955 -0.0937  1.6061  0.8194
 5050TIP3   OH236708   4.232   1.400   8.381 -0.7806  0.5849  0.2046
 5050TIP3    H136709   4.293   1.327   8.387 -1.8220 -0.3797 -0.4713
 5050TIP3    H236710   4.258   1.448   8.302  1.2569  2.2972  1.7719
 5051TIP3   OH236711   4.210   6.109   7.812  0.9628 -0.3075 -0.3295
 5051TIP3    H136712   4.132   6.052   7.812 -0.0158  0.9239 -2.6676
 5051TIP3    H236713   4.227   6.127   7.720  4.0472 -0.4496  0.1095
 5052TIP3   OH236714   1.150   1.346   7.664 -0.2571 -0.2414  0.5571
 5052TIP3    H136715   1.173   1.425   7.712  0.6333 -0.8845  1.2158
 5052TIP3    H236716   1.106   1.377   7.585 -0.5066  0.8787  1.1273
 5053TIP3   OH236717   4.459   0.695   6.866 -0.3525  0.1555  0.1371
 5053TIP3    H136718   4.507   0.633   6.811 -1.0693  0.7083 -1.1457
 5053TIP3    H236719   4.503   0.690   6.951  1.0426 -0.4263 -0.5859
 5054TIP3   OH236720   3.024   0.083   1.601  0.0565 -0.2148  0.2136
 5054TIP3    H136721   3.014   0.055   1.692  0.2729  1.5022  0.8164
 5054TIP3    H236722   3.043   0.177   1.608  1.5596 -0.3348 -1.5352
 5055TIP3   OH236723   1.693   1.229   2.866  0.1171  0.2686  0.0196
 5055TIP3    H136724   1.605   1.218   2.831  0.0357  0.3339  0.2033
 5055TIP3    H236725   1.682   1.286   2.942  0.0474 -1.2861  1.2259
 5056TIP3   OH236726   3.002   1.675   6.295  0.2624  0.2943  0.1424
 5056TIP3    H136727   3.079   1.621   6.277 -0.3196 -1.0927  1.5691
 5056TIP3    H236728   2.928   1.614   6.290 -0.7716  1.5656 -1.0493
 5057TIP3   OH236729   4.663   2.191   0.041  0.0682 -0.0893  0.6554
 5057TIP3    H136730   4.666   2.105   0.083 -1.5840 -1.4338 -1.7590
 5057TIP3    H236731   4.751   2.203   0.003  0.5358 -0.3315  1.6288
 5058TIP3   OH236732   1.130   2.983   7.361 -0.2801  0.3000 -0.0634
 5058TIP3    H136733   1.064   2.985   7.430 -1.0990  1.4136 -0.8390
 5058TIP3    H236734   1.194   2.919   7.391 -0.7803  0.5204  1.5719
 5059TIP3   OH236735   5.829   4.791   7.389  0.2384 -0.1418 -0.0698
 5059TIP3    H136736   5.900   4.826   7.444  0.6033  3.4121 -2.4583
 5059TIP3    H236737   5.871   4.775   7.304 -1.6103  1.3371 -1.3261
 5060TIP3   OH236738   4.259   5.612   1.525  0.1114  0.3679  0.4804
 5060TIP3    H136739   4.352   5.593   1.538  0.3019 -0.4050 -1.6807
 5060TIP3    H236740   4.250   5.624   1.431 -2.3990 -2.0643  0.3050
 5061TIP3   OH236741   3.168   3.662   7.636  0.0457 -0.2828  0.2803
 5061TIP3    H136742   3.213   3.641   7.717 -0.7235 -0.4466  0.6737
 5061TIP3    H236743   3.184   3.585   7.580  2.2497  0.6523 -0.4900
 5062TIP3   OH236744   5.665   6.420   1.190  0.1252 -0.6368 -0.5053
 5062TIP3    H136745   5.669   6.484   1.261  1.6217 -0.0619 -1.0559
 5062TIP3    H236746   5.610   6.350   1.224 -1.4573  0.8459  0.1758
 5063TIP3   OH236747   5.604   3.577   8.712  0.3782  0.5012  0.1090
 5063TIP3    H136748   5.536   3.616   8.658  1.6849  2.1356 -0.4296
 5063TIP3    H236749   5.634   3.647   8.770  2.5887  0.3052 -0.6802
 5064TIP3   OH236750   4.911   4.469   7.785 -0.3132  0.4674 -0.3526
 5064TIP3    H136751   4.842   4.536   7.793 -1.6068 -0.8877  0.3520
 5064TIP3    H236752   4.973   4.491   7.854 -0.6866  0.9948 -0.1795
 5065TIP3   OH236753   3.274   1.404   0.816  0.2656  0.1249 -0.1797
 5065TIP3    H136754   3.361   1.435   0.839  0.0941  0.6978 -0.2728
 5065TIP3    H236755   3.258   1.439   0.728  0.6653 -1.5022 -0.9464
 5066TIP3   OH236756   1.964   1.091   6.136  0.7380 -0.1597 -0.0997
 5066TIP3    H136757   1.957   1.039   6.056  0.7841  0.2079 -0.3415
 5066TIP3    H236758   1.874   1.118   6.155  0.4595 -1.6963  0.9429
 5067TIP3   OH236759   3.879   2.990   8.887 -1.3089  0.0042 -0.1029
 5067TIP3    H136760   3.971   2.968   8.902 -1.3980  0.8719  2.1426
 5067TIP3    H236761   3.873   3.010   8.794  0.6756 -0.5135 -0.3712
 5068TIP3   OH236762   1.596   1.171   0.173  0.2605 -0.0021 -0.7316
 5068TIP3    H136763   1.621   1.264   0.169  0.7418 -0.0610  0.4723
 5068TIP3    H236764   1.501   1.171   0.162  0.2905  0.6047 -1.0465
 5069TIP3   OH236765   1.442   5.419   0.039  0.4045 -0.1458 -0.8466
 5069TIP3    H136766   1.489   5.502   0.031 -1.2804  1.2956  2.4830
 5069TIP3    H236767   1.363   5.431  -0.014  0.6969 -0.1093 -1.2847
 5070TIP3   OH236768   3.861   1.552   7.734  0.4685 -0.1332 -0.0968
 5070TIP3    H136769   3.852   1.558   7.638 -1.1516 -0.0260  0.0275
 5070TIP3    H236770   3.887   1.462   7.750 -1.7503 -0.9330 -0.5567
 5071TIP3   OH236771   3.536   3.411   2.115 -0.0601  0.6281  0.0222
 5071TIP3    H136772   3.452   3.452   2.133 -1.6111 -2.3261 -0.0312
 5071TIP3    H236773   3.562   3.371   2.198  0.0248 -0.5672 -0.5587
 5072TIP3   OH236774   2.671   3.713   8.106  0.4627 -0.1158  0.0095
 5072TIP3    H136775   2.755   3.756   8.091  0.7954 -0.7606 -0.0350
 5072TIP3    H236776   2.627   3.714   8.021  1.9738 -2.9900 -0.9333
 5073TIP3   OH236777   4.558   6.016   8.006  0.3113  0.1310 -0.3816
 5073TIP3    H136778   4.466   6.043   8.005  0.5450  1.0777  0.9371
 5073TIP3    H236779   4.567   5.964   8.085  0.6973 -0.8220 -1.0378
 5074TIP3   OH236780   2.708   1.962   0.967 -0.3543  0.0099 -0.0271
 5074TIP3    H136781   2.626   2.006   0.944 -1.1210 -0.0198  2.4092
 5074TIP3    H236782   2.690   1.920   1.051  1.9742 -0.5602  0.2502
 5075TIP3   OH236783   1.413   5.352   8.265 -0.2394  0.2042 -0.1153
 5075TIP3    H136784   1.499   5.388   8.242  0.0402  0.2402  0.9310
 5075TIP3    H236785   1.377   5.415   8.327 -0.4885 -0.4319  0.3970
 5076TIP3   OH236786   5.815   5.926   7.244  0.1376  0.5254 -0.5836
 5076TIP3    H136787   5.903   5.938   7.208  0.3535  0.6057 -0.0430
 5076TIP3    H236788   5.817   5.840   7.287  0.7208  1.5136  1.5330
 5077TIP3   OH236789   1.286   3.727   1.174 -0.0083 -0.5240  0.5119
 5077TIP3    H136790   1.320   3.644   1.209  1.4400  0.4086  1.3906
 5077TIP3    H236791   1.276   3.783   1.251 -0.3568  0.3492 -0.1608
 5078TIP3   OH236792   1.645   4.165   1.826  0.0963  0.3972 -1.0986
 5078TIP3    H136793   1.687   4.079   1.835  1.0715  1.0646  1.6350
 5078TIP3    H236794   1.709   4.219   1.781  0.9262  0.5758  0.2581
 5079TIP3   OH236795   4.160   2.863   0.921  0.4554 -0.6069 -0.1996
 5079TIP3    H136796   4.175   2.892   1.011  0.6335 -0.5335 -0.2538
 5079TIP3    H236797   4.187   2.936   0.866 -1.2212  0.0099 -0.2716
 5080TIP3   OH236798   3.558   4.531   0.984 -0.3787  0.2536 -0.8115
 5080TIP3    H136799   3.607   4.577   1.052 -0.2437 -0.3356 -0.5022
 5080TIP3    H236800   3.624   4.480   0.938 -0.7576 -1.0031 -0.0238
 5081TIP3   OH236801   0.614   3.071   1.384 -0.2613 -0.2788 -0.2117
 5081TIP3    H136802   0.599   3.013   1.458  0.0068 -0.5519 -0.3665
 5081TIP3    H236803   0.548   3.140   1.393 -0.2971 -0.3673  0.2194
 5082TIP3   OH236804   1.932   2.352   7.757  0.7043  0.4926  0.1540
 5082TIP3    H136805   1.886   2.295   7.696  1.5974  0.6040 -0.6570
 5082TIP3    H236806   1.908   2.441   7.729  0.2329  0.5376  0.6824
 5083TIP3   OH236807   2.664   4.730   0.782 -0.3782  0.1483  0.3944
 5083TIP3    H136808   2.687   4.731   0.875 -1.5957 -1.9823  0.7851
 5083TIP3    H236809   2.685   4.641   0.753 -0.7102  0.5597 -1.2019
 5084TIP3   OH236810   6.445   0.351   1.676 -0.8725  0.9947 -0.2641
 5084TIP3    H136811   6.501   0.429   1.681  0.1892  0.3805 -1.8525
 5084TIP3    H236812   6.406   0.344   1.764  1.7029  1.3373  0.9989
 5085TIP3   OH236813   6.076   1.122   8.181 -0.1733  0.3262 -0.1237
 5085TIP3    H136814   6.130   1.129   8.103 -1.6174  0.8649 -1.1277
 5085TIP3    H236815   6.045   1.211   8.197  1.2635  0.5150  1.9733
 5086TIP3   OH236816   3.147   1.943   6.673 -0.4600 -0.0562 -0.2461
 5086TIP3    H136817   3.208   1.942   6.599 -1.1552 -1.2135 -0.8200
 5086TIP3    H236818   3.074   1.996   6.643  0.0895  1.0522  0.3220
 5087TIP3   OH236819   0.670   2.652   2.216  0.2313 -0.3802 -0.4000
 5087TIP3    H136820   0.667   2.748   2.222 -0.1451 -0.3777 -0.5374
 5087TIP3    H236821   0.591   2.630   2.166 -0.9478 -0.9286  1.5936
 5088TIP3   OH236822   1.963   3.411   7.396  0.0350  0.0548  0.2967
 5088TIP3    H136823   1.972   3.452   7.483  1.6248 -1.5333  0.9530
 5088TIP3    H236824   1.869   3.409   7.380 -0.3924 -0.5646  2.4929
 5089TIP3   OH236825   1.285   4.725   7.736  0.2655  0.1847 -0.6228
 5089TIP3    H136826   1.353   4.782   7.772 -0.4507  1.0459 -0.5871
 5089TIP3    H236827   1.210   4.783   7.724 -0.7512 -0.9234  0.1781
 5090TIP3   OH236828   0.823   5.555   1.559  0.0202 -0.0836  0.4005
 5090TIP3    H136829   0.870   5.634   1.586  0.5627  0.2162 -1.3077
 5090TIP3    H236830   0.735   5.587   1.535  0.0775 -0.0706  0.2035
 5091TIP3   OH236831   3.772   5.592   6.843  0.4328 -0.1119  0.2396
 5091TIP3    H136832   3.789   5.685   6.825 -0.4205  0.1726  0.8320
 5091TIP3    H236833   3.714   5.593   6.918 -0.2976 -1.1077 -0.2921
 5092TIP3   OH236834   3.700   1.436   0.273 -0.0310  0.1678  0.0200
 5092TIP3    H136835   3.705   1.522   0.314  1.0797  0.1159  0.0294
 5092TIP3    H236836   3.743   1.447   0.188  2.2724 -0.8606  0.9512
 5093TIP3   OH236837   4.724   0.894   6.872  0.3921 -0.3130 -1.1496
 5093TIP3    H136838   4.637   0.860   6.890  0.2601  0.7138  0.2674
 5093TIP3    H236839   4.741   0.868   6.781 -1.6768  0.0986 -1.7088
 5094TIP3   OH236840   1.863   4.568   1.000  0.0915  0.3194  0.1966
 5094TIP3    H136841   1.954   4.588   1.019 -0.0864  1.6836 -0.3012
 5094TIP3    H236842   1.838   4.631   0.932 -1.3152  0.2042  0.5829
 5095TIP3   OH236843   6.513   1.837   1.799  0.7998  0.1870 -0.2951
 5095TIP3    H136844   6.424   1.859   1.769  0.1784 -1.4133  0.2662
 5095TIP3    H236845   6.527   1.894   1.875  0.2402  0.4508 -0.3838
 5096TIP3   OH236846   0.108   5.203   6.849 -0.1099 -0.0451 -0.1066
 5096TIP3    H136847   0.202   5.199   6.866 -0.4907 -0.4471  2.2104
 5096TIP3    H236848   0.099   5.181   6.756  2.0940  0.4261 -0.4692
 5097TIP3   OH236849   5.274   5.512   0.634 -1.0772 -0.4868 -0.0798
 5097TIP3    H136850   5.320   5.434   0.666 -0.5939 -0.6890 -1.1994
 5097TIP3    H236851   5.244   5.487   0.546 -1.4887  0.3693 -0.1871
 5098TIP3   OH236852   0.074   1.468   0.384  0.1423  0.3211  0.1321
 5098TIP3    H136853   0.166   1.447   0.366  0.3519  0.7981  0.6273
 5098TIP3    H236854   0.045   1.516   0.306 -0.2303 -1.4110 -0.8376
 5099TIP3   OH236855   0.160   5.124   0.363  0.4605 -0.0284  0.4431
 5099TIP3    H136856   0.123   5.054   0.310 -2.1802  1.2046  0.4957
 5099TIP3    H236857   0.085   5.161   0.410  1.8240  2.4004  0.8833
 5100TIP3   OH236858   6.264   5.493   6.885 -0.3458 -0.6736  0.1604
 5100TIP3    H136859   6.359   5.504   6.896 -0.4573  0.0419  0.4655
 5100TIP3    H236860   6.243   5.416   6.938 -0.0298 -0.4402  0.6390
 5101TIP3   OH236861   5.927   3.996   2.208 -0.3820 -0.5429  0.0551
 5101TIP3    H136862   5.840   3.958   2.200  0.2915 -2.5236  1.3841
 5101TIP3    H236863   5.923   4.050   2.287  0.1752 -2.5865  1.5626
 5102TIP3   OH236864   2.455   5.248   0.701  0.2438  0.0042 -0.0819
 5102TIP3    H136865   2.490   5.303   0.771  1.2983  0.6945 -1.1185
 5102TIP3    H236866   2.500   5.277   0.622 -0.6687 -0.9854 -1.0093
 5103TIP3   OH236867   4.410   2.077   8.041  0.0299 -0.4398  0.4167
 5103TIP3    H136868   4.501   2.104   8.034  0.1423 -1.0040 -0.5360
 5103TIP3    H236869   4.362   2.158   8.055  0.5550  0.0374 -0.4457
 5104TIP3   OH236870   2.392   2.824   8.410  0.2709 -0.2047 -0.1262
 5104TIP3    H136871   2.429   2.773   8.338  0.8127 -1.4203  0.9694
 5104TIP3    H236872   2.336   2.763   8.457 -0.5277  0.7267  0.1641
 5105TIP3   OH236873   5.651   4.230   8.555  0.2208 -0.3328  0.3655
 5105TIP3    H136874   5.592   4.275   8.616  0.8197 -0.0960  0.7770
 5105TIP3    H236875   5.593   4.176   8.501 -0.3213 -0.5853  1.1739
 5106TIP3   OH236876   1.723   5.728   7.497  0.5409 -0.3352 -0.0628
 5106TIP3    H136877   1.688   5.715   7.585  0.2312 -0.9684 -0.2730
 5106TIP3    H236878   1.671   5.800   7.461 -0.1413 -0.8613 -0.1497
 5107TIP3   OH236879   5.145   2.431   7.935  0.3193  0.3937 -0.1018
 5107TIP3    H136880   5.192   2.349   7.954 -0.1299  0.1312 -0.1014
 5107TIP3    H236881   5.133   2.471   8.021 -0.5163 -0.1317  0.0364
 5108TIP3   OH236882   3.762   1.767   6.286 -0.6067  0.9320 -0.0757
 5108TIP3    H136883   3.799   1.702   6.345 -1.1043  1.6603  1.0780
 5108TIP3    H236884   3.755   1.722   6.202 -1.6138 -0.7373  0.8517
 5109TIP3   OH236885   0.695   3.152   7.576 -0.0058 -0.2402  0.0020
 5109TIP3    H136886   0.662   3.214   7.641  1.6983 -0.6063  1.2805
 5109TIP3    H236887   0.698   3.201   7.495 -1.6009  0.4181  0.3025
 5110TIP3   OH236888   3.626   3.276   7.444 -0.1018 -0.2966  0.4863
 5110TIP3    H136889   3.645   3.231   7.526  1.5100  1.2909  1.0423
 5110TIP3    H236890   3.710   3.313   7.416 -0.6871 -0.4593 -1.6952
 5111TIP3   OH236891   2.520   1.464   8.425  0.0811 -0.2203  0.2727
 5111TIP3    H136892   2.560   1.492   8.507 -1.1451  1.5709  0.3020
 5111TIP3    H236893   2.594   1.460   8.363  0.5433  2.0134  0.5773
 5112TIP3   OH236894   2.113   3.621   0.422  0.4249  0.0509 -0.1083
 5112TIP3    H136895   2.035   3.572   0.395  1.2726 -0.2482 -2.2032
 5112TIP3    H236896   2.106   3.704   0.375 -0.8354  1.9713  3.1664
 5113TIP3   OH236897   3.584   1.700   0.360  0.1006  0.1042 -0.0277
 5113TIP3    H136898   3.568   1.792   0.338  0.2925  0.2206  0.3060
 5113TIP3    H236899   3.528   1.651   0.301  2.2677  0.2814 -2.3855
 5114TIP3   OH236900   0.769   5.513   7.750  0.1227  0.7123  0.2412
 5114TIP3    H136901   0.768   5.438   7.809  2.3034  0.7148  0.3549
 5114TIP3    H236902   0.723   5.582   7.798 -0.3601 -0.0271  0.8569
 5115TIP3   OH236903   6.540   1.386   7.049 -0.0215  0.2314  0.1964
 5115TIP3    H136904   6.454   1.376   7.006 -0.5652 -1.9611  1.6595
 5115TIP3    H236905   6.603   1.364   6.980 -0.6865  0.5813 -0.5458
 5116TIP3   OH236906   5.832   6.554   0.131 -0.3094  0.4509 -0.1913
 5116TIP3    H136907   5.785   6.493   0.187  1.6552 -0.6294  0.3954
 5116TIP3    H236908   5.915   6.570   0.176  1.6174 -0.8844 -2.9110
 5117TIP3   OH236909   3.918   3.923   0.166  0.1495 -0.4254  0.3074
 5117TIP3    H136910   3.916   3.833   0.134 -0.4433 -0.7849  1.3250
 5117TIP3    H236911   3.985   3.966   0.113 -0.9193 -0.9340 -1.5369
 5118TIP3   OH236912   0.241   5.603   0.957 -0.3850 -0.2824  0.0626
 5118TIP3    H136913   0.333   5.601   0.934  0.4975  1.0733  2.9794
 5118TIP3    H236914   0.217   5.696   0.955 -1.5621 -0.5647 -0.1727
 5119TIP3   OH236915   0.354   1.689   0.342  0.3643  1.1200  0.0074
 5119TIP3    H136916   0.264   1.660   0.326  0.2783  1.8447 -0.9273
 5119TIP3    H236917   0.375   1.745   0.267  0.6163  3.2023  1.5238
 5120TIP3   OH236918   2.497   3.387   8.530  0.1874 -0.5588  0.3479
 5120TIP3    H136919   2.432   3.397   8.460  0.1215  3.1466  0.7639
 5120TIP3    H236920   2.581   3.380   8.484  0.4797  4.4077 -0.4112
 5121TIP3   OH236921   1.408   6.597   1.458  0.3245  0.0751  0.2542
 5121TIP3    H136922   1.383   6.624   1.547 -0.7441  0.8784 -0.2604
 5121TIP3    H236923   1.469   6.665   1.429 -0.1002  0.3671  0.0254
 5122TIP3   OH236924   3.491   0.332   7.721  0.5216 -0.4150 -0.4483
 5122TIP3    H136925   3.413   0.300   7.677 -0.7972  0.4792  1.1426
 5122TIP3    H236926   3.547   0.255   7.730 -0.4635 -1.2193 -1.0165
 5123TIP3   OH236927   0.937   1.414   8.332 -0.0089  0.0009  0.1992
 5123TIP3    H136928   0.890   1.495   8.351  0.9474  0.5060  0.4621
 5123TIP3    H236929   1.007   1.411   8.398 -0.8207 -1.7063  1.0490
 5124TIP3   OH236930   1.776   5.112   8.857 -0.2214 -0.6559 -1.0168
 5124TIP3    H136931   1.843   5.170   8.821 -0.2797 -0.2227 -0.4424
 5124TIP3    H236932   1.818   5.073   8.934 -0.1074 -1.5489 -1.5133
 5125TIP3   OH236933   1.873   6.629   8.146 -0.1955 -0.1657  0.3412
 5125TIP3    H136934   1.917   6.691   8.204 -0.8274  0.4390  0.1966
 5125TIP3    H236935   1.811   6.683   8.096  1.4893 -0.3707 -2.1218
 5126TIP3   OH236936   5.769   3.414   0.691  0.3721  0.1221 -0.2967
 5126TIP3    H136937   5.858   3.445   0.704 -0.0439  1.1387  0.2909
 5126TIP3    H236938   5.717   3.494   0.681 -0.3900 -0.4728 -1.2166
 5127TIP3   OH236939   4.022   4.744   8.745  0.7720  0.0445 -0.7474
 5127TIP3    H136940   3.969   4.665   8.753  0.6654  0.0475 -1.4373
 5127TIP3    H236941   4.047   4.765   8.836  0.3715 -0.4794 -0.5126
 5128TIP3   OH236942   6.656   6.634   0.254  0.3118  0.3370 -0.6478
 5128TIP3    H136943   6.687   6.589   0.175 -0.5217  0.2886 -0.9617
 5128TIP3    H236944   6.726   6.622   0.318  0.2704 -1.1074 -0.8356
 5129TIP3   OH236945   5.362   3.283   0.524 -0.7730  0.0963 -0.4136
 5129TIP3    H136946   5.453   3.268   0.549 -0.7347  0.2816 -0.4417
 5129TIP3    H236947   5.346   3.375   0.543 -1.1601 -0.0982  0.2305
 5130TIP3   OH236948   1.150   3.571   8.007 -0.0065  0.1101  0.4094
 5130TIP3    H136949   1.147   3.506   7.937 -1.8686  1.3695 -0.7880
 5130TIP3    H236950   1.183   3.650   7.964  1.4677  0.2282  1.6539
 5131TIP3   OH236951   6.096   0.609   8.345 -0.4191 -0.0175  0.0401
 5131TIP3    H136952   6.034   0.571   8.283 -0.4380 -0.2248  0.1855
 5131TIP3    H236953   6.171   0.549   8.345  0.0609  0.5532 -0.6012
 5132TIP3   OH236954   5.149   6.281   1.321 -0.2446  0.3999 -0.0873
 5132TIP3    H136955   5.145   6.361   1.270  0.0728 -0.6477 -1.8272
 5132TIP3    H236956   5.161   6.211   1.257  1.5607 -0.8625  1.5097
 5133TIP3   OH236957   3.347   1.519   2.160  0.4778  0.5018  0.3317
 5133TIP3    H136958   3.441   1.504   2.150  0.8500  2.4278  0.6587
 5133TIP3    H236959   3.327   1.590   2.099 -1.4740 -1.9549 -2.2041
 5134TIP3   OH236960   2.504   2.681   0.876 -0.0166 -0.0288 -0.3581
 5134TIP3    H136961   2.499   2.593   0.839  0.9688 -0.5049  0.5530
 5134TIP3    H236962   2.425   2.725   0.845 -0.1782 -1.0008 -1.4117
 5135TIP3   OH236963   1.490   1.548   6.904 -0.2287 -0.5761  0.1173
 5135TIP3    H136964   1.438   1.565   6.825  1.3754 -1.9469 -1.3080
 5135TIP3    H236965   1.545   1.626   6.913 -0.6356 -0.2789  0.0719
 5136TIP3   OH236966   0.472   5.684   0.233  0.0776  0.2355 -0.7083
 5136TIP3    H136967   0.398   5.728   0.274  0.1216  0.1156 -0.4998
 5136TIP3    H236968   0.515   5.752   0.182 -0.7791  0.0901 -1.6861
 5137TIP3   OH236969   0.531   4.757   1.252 -0.1640 -0.0792 -0.0563
 5137TIP3    H136970   0.587   4.680   1.239  0.4625  0.5082 -0.9220
 5137TIP3    H236971   0.523   4.764   1.347  0.2904 -0.8472  0.0538
 5138TIP3   OH236972   6.721   2.373   8.034 -0.3234 -0.0961  0.3602
 5138TIP3    H136973   6.706   2.344   8.124 -0.7243 -0.4902  0.1734
 5138TIP3    H236974   6.645   2.340   7.986 -0.1649  0.2043 -0.1021
 5139TIP3   OH236975   0.274   5.333   0.843  0.4537  0.1673 -0.0164
 5139TIP3    H136976   0.336   5.400   0.813 -1.2691  0.9623 -2.0299
 5139TIP3    H236977   0.308   5.251   0.806  0.7170  0.4588 -0.4291
 5140TIP3   OH236978   3.568   4.818   0.880  0.3811  0.1549  0.1104
 5140TIP3    H136979   3.537   4.803   0.969  1.8841  0.3362  0.6982
 5140TIP3    H236980   3.629   4.891   0.888  0.7364  0.0032 -1.0291
 5141TIP3   OH236981   0.148   2.547   8.072  0.1000  0.0354 -0.0905
 5141TIP3    H136982   0.208   2.489   8.025 -1.3885 -1.6749  0.0199
 5141TIP3    H236983   0.067   2.497   8.081 -0.9550  1.7875  0.8749
 5142TIP3   OH236984   6.775   4.343   0.135  0.0169  0.3889 -0.1256
 5142TIP3    H136985   6.707   4.298   0.186 -0.1009  1.6489  0.8978
 5142TIP3    H236986   6.807   4.412   0.194 -0.1181  1.9110 -1.7473
 5143TIP3   OH236987   5.787   4.628   8.711  0.8430 -0.2575 -0.1084
 5143TIP3    H136988   5.772   4.580   8.630 -1.9853  1.8786 -1.0219
 5143TIP3    H236989   5.847   4.573   8.762 -1.1355 -4.0748 -1.5534
 5144TIP3   OH236990   6.059   0.926   1.833  0.6962 -0.2847  0.2297
 5144TIP3    H136991   6.028   0.840   1.862 -0.3602  0.7888  2.6299
 5144TIP3    H236992   5.985   0.985   1.850  1.3000  1.0930 -1.5646
 5145TIP3   OH236993   3.604   2.739   7.272 -0.2770  0.4590  0.5112
 5145TIP3    H136994   3.568   2.653   7.294 -3.9769  1.5644 -0.5138
 5145TIP3    H236995   3.588   2.793   7.350  0.5230  0.6530  0.5521
 5146TIP3   OH236996   4.802   6.233   6.851 -0.0960 -0.0796 -0.3926
 5146TIP3    H136997   4.720   6.271   6.883  0.1390  0.3352 -0.2846
 5146TIP3    H236998   4.779   6.143   6.827 -0.0013 -0.8540  2.1593
 5147TIP3   OH236999   1.817   0.962   0.963 -0.3086  0.0685  0.0897
 5147TIP3    H137000   1.834   1.029   1.030 -1.4772 -1.6781  2.2466
 5147TIP3    H237001   1.900   0.914   0.956  0.0721  0.7704 -0.3689
 5148TIP3   OH237002   1.227   3.929   8.779  0.4210 -0.4106  0.4919
 5148TIP3    H137003   1.183   3.853   8.817  0.5066 -0.5189  0.3775
 5148TIP3    H237004   1.277   3.893   8.705 -0.3837 -0.0905 -0.2240
 5149TIP3   OH237005   0.296   1.960   8.041 -0.1196  0.2102 -0.0249
 5149TIP3    H137006   0.289   1.897   7.969  2.8115  1.5312 -1.6523
 5149TIP3    H237007   0.240   2.033   8.014  1.1144  0.7829 -1.1432
 5150TIP3   OH237008   3.932   0.090   0.151  0.1030  0.0715 -0.5229
 5150TIP3    H137009   3.996   0.086   0.222 -1.3639 -0.9664  0.8033
 5150TIP3    H237010   3.904   0.182   0.149 -0.1133  0.0441  0.5292
 5151TIP3   OH237011   6.723   4.921   6.792 -0.8589 -0.2500 -0.2769
 5151TIP3    H137012   6.649   4.868   6.820 -0.7964  1.1739  2.9776
 5151TIP3    H237013   6.799   4.863   6.802 -1.1966 -0.8188 -0.8906
 5152TIP3   OH237014   5.015   3.167   2.670 -0.0810 -0.0991  0.0102
 5152TIP3    H137015   5.038   3.244   2.722  1.7039 -1.2161  0.9897
 5152TIP3    H237016   4.937   3.131   2.711  0.2031  0.1177  0.7564
 5153TIP3   OH237017   1.243   0.832   8.275 -0.2009 -0.0726  0.1505
 5153TIP3    H137018   1.264   0.911   8.326  2.3632 -0.8909  0.5139
 5153TIP3    H237019   1.292   0.842   8.193  0.1490 -1.2413  0.1924
 5154TIP3   OH237020   5.171   1.563   7.937  0.1228 -0.1058 -0.0487
 5154TIP3    H137021   5.184   1.499   8.007  1.4798 -2.1947 -2.1009
 5154TIP3    H237022   5.244   1.624   7.948  0.7272 -0.8187 -0.0346
 5155TIP3   OH237023   3.368   5.993   0.102 -0.2795 -0.0641 -0.7095
 5155TIP3    H137024   3.343   5.909   0.141  2.4123 -0.1473  1.1050
 5155TIP3    H237025   3.323   6.059   0.155  1.8901 -0.2610  1.5813
 5156TIP3   OH237026   0.496   6.462   6.945  0.3155  0.4240  0.5459
 5156TIP3    H137027   0.576   6.453   6.995  0.0749 -1.1283  0.7010
 5156TIP3    H237028   0.506   6.544   6.897  1.7852  0.4735  0.9122
 5157TIP3   OH237029   2.388   2.103   6.989  0.4622 -0.3689  0.3260
 5157TIP3    H137030   2.340   2.098   6.906  1.9683  2.6809 -0.8948
 5157TIP3    H237031   2.428   2.017   6.999  1.6529 -0.3660 -3.0889
 5158TIP3   OH237032   0.189   3.874   7.968 -0.2181 -0.3492 -0.7793
 5158TIP3    H137033   0.133   3.879   8.045  0.7243  0.7159 -0.1458
 5158TIP3    H237034   0.161   3.947   7.913  1.8225  1.4460  0.4510
 5159TIP3   OH237035   3.795   0.973   8.130  0.6826  0.5885  0.2992
 5159TIP3    H137036   3.877   0.927   8.146  0.5475  0.3952  0.4477
 5159TIP3    H237037   3.759   0.988   8.218  1.0958  1.6634  0.3057
 5160TIP3   OH237038   4.153   6.588   1.152 -0.0032  0.2106 -0.1686
 5160TIP3    H137039   4.131   6.583   1.245 -3.0326 -0.1023 -0.8097
 5160TIP3    H237040   4.204   6.509   1.135 -3.3632 -2.3099  0.4094
 5161TIP3   OH237041   0.211   2.987   8.495 -0.9159  0.8221  0.3520
 5161TIP3    H137042   0.216   3.077   8.463 -0.4797  0.6067 -0.1961
 5161TIP3    H237043   0.279   2.940   8.447 -1.3105  0.1393  0.4434
 5162TIP3   OH237044   2.976   4.115   8.071 -0.2756  0.3490  0.4328
 5162TIP3    H137045   3.040   4.162   8.018  1.1006 -1.7502  0.1297
 5162TIP3    H237046   3.004   4.131   8.162 -0.9547  1.5991  0.4539
 5163TIP3   OH237047   1.957   2.082   1.103 -0.0084  0.3825  0.3404
 5163TIP3    H137048   1.965   2.167   1.146 -0.3050  0.1521  0.8616
 5163TIP3    H237049   2.006   2.091   1.022 -1.1312  1.4653 -0.2375
 5164TIP3   OH237050   5.432   4.149   0.705 -0.5467  0.1564  0.1806
 5164TIP3    H137051   5.351   4.107   0.734 -0.3742 -0.3452 -0.0559
 5164TIP3    H237052   5.433   4.137   0.611 -0.0247 -0.1491  0.2195
 5165TIP3   OH237053   4.226   5.214   0.675 -0.0016  0.0316  0.0670
 5165TIP3    H137054   4.300   5.194   0.732 -0.4147 -0.3775  0.4687
 5165TIP3    H237055   4.214   5.309   0.683 -0.7114 -0.1587  1.4781
 5166TIP3   OH237056   4.505   4.987   2.055  0.3586  0.2083 -0.4254
 5166TIP3    H137057   4.412   4.965   2.064  0.3276  0.5231  0.0812
 5166TIP3    H237058   4.533   5.009   2.144  1.1940 -0.9418 -0.3804
 5167TIP3   OH237059   3.656   1.239   7.179 -0.7838  0.6403 -0.4420
 5167TIP3    H137060   3.744   1.231   7.142 -0.5207  1.4983 -0.0317
 5167TIP3    H237061   3.667   1.216   7.271 -1.2316 -0.4549 -0.6575
 5168TIP3   OH237062   2.673   0.282   2.433 -0.1758 -0.5561 -0.2668
 5168TIP3    H137063   2.713   0.266   2.519 -0.1365 -1.3970 -0.4268
 5168TIP3    H237064   2.581   0.300   2.453 -0.6998 -2.9611 -0.1402
 5169TIP3   OH237065   4.023   0.081   0.574  0.4689 -0.0408 -0.6287
 5169TIP3    H137066   4.015   0.170   0.607  1.1734  0.4616 -1.7927
 5169TIP3    H237067   3.966   0.029   0.632  0.8489  0.9762  0.6980
 5170TIP3   OH237068   4.449   4.896   6.816  0.0142 -0.3032  0.3776
 5170TIP3    H137069   4.439   4.862   6.727  1.5363 -0.6397  0.3193
 5170TIP3    H237070   4.418   4.987   6.809 -0.5892 -0.5476 -0.3146
 5171TIP3   OH237071   0.257   2.299   7.186 -0.0253 -0.2075  0.1317
 5171TIP3    H137072   0.189   2.256   7.237 -0.5382  0.3931 -0.0264
 5171TIP3    H237073   0.232   2.391   7.185 -0.1185 -0.2189 -1.3229
 5172TIP3   OH237074   5.221   1.389   0.191  0.7634 -0.2418  0.0358
 5172TIP3    H137075   5.288   1.419   0.252  1.9880 -0.6220 -1.0768
 5172TIP3    H237076   5.166   1.330   0.244  1.7290 -0.4869  0.8087
 5173TIP3   OH237077   2.995   1.700   6.679 -0.1003  0.3868  0.0661
 5173TIP3    H137078   2.917   1.726   6.629  0.2391  0.4651 -0.4240
 5173TIP3    H237079   3.062   1.764   6.656  0.1838  0.1770  0.2965
 5174TIP3   OH237080   5.529   3.547   8.165  0.1937 -0.3878  0.6048
 5174TIP3    H137081   5.447   3.500   8.146  0.3428 -0.1831 -0.6155
 5174TIP3    H237082   5.556   3.583   8.080  1.0961  0.2794  1.1625
 5175TIP3   OH237083   4.065   5.913   8.143  0.1447 -0.2270  0.7214
 5175TIP3    H137084   3.980   5.870   8.142  0.1074 -0.1615  0.9929
 5175TIP3    H237085   4.047   6.002   8.175  0.1139  0.2158 -0.4755
 5176TIP3   OH237086   3.627   4.627   1.268 -0.7696 -0.7760 -0.0066
 5176TIP3    H137087   3.693   4.620   1.338 -2.0334 -1.0742  1.2048
 5176TIP3    H237088   3.643   4.713   1.229 -0.2073 -0.4795  0.8439
 5177TIP3   OH237089   1.680   6.536   8.472 -0.0108  0.0216 -0.4190
 5177TIP3    H137090   1.759   6.504   8.515 -1.6688 -1.0677  2.0777
 5177TIP3    H237091   1.705   6.621   8.437  2.4307 -0.5791 -0.3325
 5178TIP3   OH237092   2.953   6.155   1.198 -0.0015  0.1542 -0.1915
 5178TIP3    H137093   3.010   6.231   1.192  0.8385 -0.3192  1.2347
 5178TIP3    H237094   2.867   6.191   1.220  0.4849  0.6793  0.9118
 5179TIP3   OH237095   3.995   5.931   7.819 -0.3550 -0.0069  0.3882
 5179TIP3    H137096   3.903   5.946   7.794 -0.1098  1.0792  0.0829
 5179TIP3    H237097   4.025   5.863   7.759 -0.7353  0.2098 -0.0628
 5180TIP3   OH237098   5.346   0.013   8.002  0.2731  0.3893  0.3032
 5180TIP3    H137099   5.438   0.035   7.988  0.7905 -0.7226  1.6962
 5180TIP3    H237100   5.348  -0.071   8.048 -1.4593  0.1542  0.0254
 5181TIP3   OH237101   6.702   5.584   7.925  0.3060 -0.5006  0.4489
 5181TIP3    H137102   6.785   5.621   7.956  0.6317 -0.8747  0.0358
 5181TIP3    H237103   6.644   5.660   7.917  0.6439 -0.2184  0.6287
 5182TIP3   OH237104   2.917   4.464   7.377 -0.8309 -0.2558  0.5606
 5182TIP3    H137105   2.940   4.492   7.289 -2.7108 -1.5471 -0.4221
 5182TIP3    H237106   2.871   4.539   7.415  2.5450  1.4453  1.6726
 5183TIP3   OH237107   4.765   5.451   7.721 -0.7913  0.1001 -0.2424
 5183TIP3    H137108   4.781   5.416   7.808  0.6241  2.1699  0.3825
 5183TIP3    H237109   4.832   5.411   7.666 -1.1100 -0.4913 -0.2136
 5184TIP3   OH237110   1.361   4.133   0.228 -0.1950 -0.4214 -0.1565
 5184TIP3    H137111   1.455   4.135   0.243 -0.5277  2.7418  2.7879
 5184TIP3    H237112   1.352   4.119   0.134  3.2837  0.8883 -0.8335
 5185TIP3   OH237113   6.016   5.456   1.978  0.0029  0.1531 -0.1927
 5185TIP3    H137114   5.959   5.520   2.020  0.5183  0.2838  0.3354
 5185TIP3    H237115   6.006   5.472   1.884 -0.7747  0.2112 -0.1068
 5186TIP3   OH237116   2.969   6.521   1.458  0.6013 -0.2776 -0.1559
 5186TIP3    H137117   2.906   6.592   1.444  1.2467  0.0253 -1.7309
 5186TIP3    H237118   2.916   6.449   1.492 -0.3366  0.4494 -0.0201
 5187TIP3   OH237119   3.058   6.753   8.541 -0.6292  0.1505  0.2332
 5187TIP3    H137120   3.063   6.816   8.612 -0.3917 -0.7651  1.0448
 5187TIP3    H237121   2.994   6.791   8.480 -1.0126  0.8335  1.0362
 5188TIP3   OH237122   3.203   5.096   7.646 -0.0505  0.2419  0.3714
 5188TIP3    H137123   3.243   5.088   7.559 -0.2812  1.3682  0.1383
 5188TIP3    H237124   3.206   5.190   7.665 -0.1633  0.0304  1.5107
 5189TIP3   OH237125   4.064   1.009   7.889  0.2366  0.1184  0.2395
 5189TIP3    H137126   4.039   0.996   7.980 -0.0347 -0.7266  0.0632
 5189TIP3    H237127   4.071   0.920   7.854 -0.5737  0.4426 -0.7980
 5190TIP3   OH237128   1.293   6.755   8.794  0.1506  0.0273 -0.1002
 5190TIP3    H137129   1.369   6.696   8.798 -0.1339 -0.2752  1.3184
 5190TIP3    H237130   1.219   6.697   8.776  0.0709  0.1462 -0.1568
 5191TIP3   OH237131   3.817   1.574   7.989  0.3080 -0.4383 -0.3092
 5191TIP3    H137132   3.866   1.494   8.009 -0.2709 -0.9482 -0.8641
 5191TIP3    H237133   3.773   1.554   7.906  1.7250  1.1676 -1.5047
 5192TIP3   OH237134   5.721   0.385   1.148 -0.1853  0.0041  0.0696
 5192TIP3    H137135   5.714   0.440   1.070  0.2902  0.8080  0.5779
 5192TIP3    H237136   5.782   0.432   1.205 -0.7731 -0.4031  1.0619
 5193TIP3   OH237137   1.117   3.973   7.002  0.6029  0.1045  0.0653
 5193TIP3    H137138   1.168   3.994   6.924 -0.1805 -1.0375 -0.7899
 5193TIP3    H237139   1.026   3.988   6.976  0.2223 -1.6216  0.2700
 5194TIP3   OH237140   1.816   2.450   7.063  0.1348 -0.3696 -0.2274
 5194TIP3    H137141   1.763   2.413   6.992 -1.8932 -1.1024  1.5706
 5194TIP3    H237142   1.812   2.545   7.047 -1.3157 -0.4359 -0.4488
 5195TIP3   OH237143   1.212   1.696   7.044 -0.5096  0.4787 -0.3698
 5195TIP3    H137144   1.228   1.738   6.960  0.1136  0.6167 -0.1846
 5195TIP3    H237145   1.185   1.607   7.021  2.3401 -0.3889 -0.6811
 5196TIP3   OH237146   4.001   1.189   8.258  0.0452  0.1158 -0.4844
 5196TIP3    H137147   3.972   1.140   8.335  0.3333  0.2658 -0.2780
 5196TIP3    H237148   4.083   1.146   8.233 -0.1613 -0.0743 -0.8436
 5197TIP3   OH237149   3.922   3.754   1.243 -0.5326  0.2876  0.6514
 5197TIP3    H137150   3.868   3.832   1.229 -0.1681  0.1931 -1.5840
 5197TIP3    H237151   4.007   3.778   1.206 -0.5787 -1.3489 -0.6013
 5198TIP3   OH237152   1.894   2.312   1.218  0.3570  0.3117  0.2980
 5198TIP3    H137153   1.800   2.329   1.214  0.2503 -0.1147  0.8908
 5198TIP3    H237154   1.935   2.396   1.201 -0.1431  0.8353  1.5675
 5199TIP3   OH237155   5.194   3.425   1.685  0.0085 -0.5711  0.4698
 5199TIP3    H137156   5.180   3.504   1.634 -3.6531 -1.3509 -0.0085
 5199TIP3    H237157   5.220   3.456   1.771 -0.1874  1.0847 -0.0370
 5200TIP3   OH237158   4.660   5.944   0.212  0.4243  0.3805  0.2031
 5200TIP3    H137159   4.648   5.921   0.304 -0.2573  1.3726  0.3707
 5200TIP3    H237160   4.724   5.880   0.180  0.1984 -0.3707  1.1961
 5201TIP3   OH237161   6.160   2.161   2.016  0.0072 -0.1456 -0.0293
 5201TIP3    H137162   6.176   2.160   1.922 -0.5329  2.1164 -0.2094
 5201TIP3    H237163   6.068   2.188   2.025  0.7758  2.4051  1.1131
 5202TIP3   OH237164   2.085   5.461   6.929  0.1393 -0.5319 -0.3039
 5202TIP3    H137165   2.067   5.555   6.923 -0.0958 -0.4996  0.7255
 5202TIP3    H237166   2.173   5.451   6.893  0.5351  0.2212  0.4328
 5203TIP3   OH237167   5.927   3.833   1.134  0.0834  0.4506 -0.2361
 5203TIP3    H137168   5.942   3.881   1.053  0.1526 -0.5814 -0.8560
 5203TIP3    H237169   5.836   3.804   1.129  0.0300  0.5399  0.1522
 5204TIP3   OH237170   6.575   0.305   7.956  0.1211 -0.6441  0.0156
 5204TIP3    H137171   6.667   0.280   7.959  0.1779 -0.5254 -0.7326
 5204TIP3    H237172   6.558   0.324   7.864 -0.6421 -0.6292  0.1562
 5205TIP3   OH237173   0.715   2.832   7.933 -0.1386 -0.3057 -0.4675
 5205TIP3    H137174   0.806   2.858   7.922 -0.1772  0.5785  0.9778
 5205TIP3    H237175   0.668   2.915   7.944 -0.7226 -0.8226  1.2846
 5206TIP3   OH237176   5.238   3.823   8.860 -0.1172 -0.3332 -0.2154
 5206TIP3    H137177   5.296   3.771   8.916 -0.1860  0.5799  0.7422
 5206TIP3    H237178   5.265   3.801   8.771  3.8769  2.3190  0.0961
 5207TIP3   OH237179   4.081   3.074   7.668 -0.0372  0.4134  0.0723
 5207TIP3    H137180   4.076   3.156   7.717 -0.2529  0.7164 -0.4390
 5207TIP3    H237181   4.151   3.089   7.604 -1.3218  0.9207 -1.2789
 5208TIP3   OH237182   4.887   1.447   0.185  0.1650 -0.2843 -0.0280
 5208TIP3    H137183   4.857   1.359   0.165 -0.2124 -0.2360  0.3137
 5208TIP3    H237184   4.828   1.504   0.136  0.4241 -0.2212 -0.2682
 5209TIP3   OH237185   5.764   4.881   8.816  0.2771  0.4453  0.2011
 5209TIP3    H137186   5.669   4.889   8.825  0.1521 -1.9525  1.8118
 5209TIP3    H237187   5.777   4.798   8.770  1.5989  0.4774  0.4747
 5210TIP3   OH237188   4.459   5.385   7.049  0.0850 -0.0658 -0.5383
 5210TIP3    H137189   4.411   5.435   6.984  0.0990 -0.1009 -0.5753
 5210TIP3    H237190   4.416   5.406   7.132 -0.3818 -0.5732 -0.6501
 5211TIP3   OH237191   3.418   1.595   1.532  0.0632  0.2460  0.1929
 5211TIP3    H137192   3.438   1.520   1.589  4.2934  0.7527 -0.3107
 5211TIP3    H237193   3.452   1.671   1.580 -0.2022  1.2461 -1.1543
 5212TIP3   OH237194   2.837   1.667   8.799  0.1768  0.3532 -0.2201
 5212TIP3    H137195   2.817   1.748   8.752  0.0026 -0.5533 -1.7767
 5212TIP3    H237196   2.756   1.645   8.846  0.7479  1.9495  1.6417
 5213TIP3   OH237197   3.055   4.269   8.322 -0.6982 -0.0074  0.9883
 5213TIP3    H137198   3.145   4.236   8.316  0.4239  2.9444 -0.5794
 5213TIP3    H237199   3.058   4.336   8.389  0.4380  5.3246 -3.6329
 5214TIP3   OH237200   3.830   4.729   7.500 -0.1909 -0.0700  0.1554
 5214TIP3    H137201   3.783   4.794   7.448 -1.2979 -0.6923  0.3523
 5214TIP3    H237202   3.914   4.771   7.519 -0.2427  0.6678 -1.0632
 5215TIP3   OH237203   5.704   5.292   1.836  0.0091  0.6512  0.3461
 5215TIP3    H137204   5.793   5.260   1.827  0.5233  1.7486  1.2514
 5215TIP3    H237205   5.653   5.216   1.864  0.3093 -0.3716 -1.7457
 5216TIP3   OH237206   1.853   5.316   8.553  0.3595  0.3903  0.2993
 5216TIP3    H137207   1.855   5.226   8.522 -0.2650  0.2598  0.6137
 5216TIP3    H237208   1.763   5.329   8.583  0.5174  1.0281  0.5152
 5217TIP3   OH237209   2.463   1.587   1.499  0.1696 -0.2658  0.5944
 5217TIP3    H137210   2.425   1.504   1.527 -1.3776  0.3651  0.4725
 5217TIP3    H237211   2.401   1.622   1.436  1.8482  0.0086 -1.0124
 5218TIP3   OH237212   0.048   1.975   0.446 -0.6608  0.4658  0.2341
 5218TIP3    H137213   0.034   2.055   0.498 -0.8558  0.1084  0.7380
 5218TIP3    H237214   0.107   2.002   0.377 -0.5074  0.9893  0.5625
 5219TIP3   OH237215   3.493   4.365   0.589  0.0564 -0.2857  0.2471
 5219TIP3    H137216   3.494   4.413   0.507  0.6619  0.2603  0.5596
 5219TIP3    H237217   3.447   4.423   0.651 -0.7240 -0.8490  0.2098
 5220TIP3   OH237218   5.287   3.588   1.905 -0.1131  0.0669 -0.2071
 5220TIP3    H137219   5.374   3.626   1.921  0.7737 -1.9365  0.0263
 5220TIP3    H237220   5.272   3.531   1.980 -1.6878  0.4485 -0.2172
 5221TIP3   OH237221   6.533   5.706   8.606 -0.1079 -0.7993 -0.4201
 5221TIP3    H137222   6.613   5.710   8.553  1.9516 -2.9604  2.1879
 5221TIP3    H237223   6.514   5.612   8.614 -2.9808 -0.3350 -0.9504
 5222TIP3   OH237224   4.730   4.845   0.241  0.0073  0.1393 -0.3998
 5222TIP3    H137225   4.702   4.795   0.317 -0.9407  1.1389 -0.0507
 5222TIP3    H237226   4.824   4.857   0.253  0.2273 -1.3904 -0.4243
 5223TIP3   OH237227   1.680   5.404   8.195 -0.1146 -0.9329 -0.2442
 5223TIP3    H137228   1.745   5.382   8.128  0.7364  1.1332 -0.1726
 5223TIP3    H237229   1.726   5.463   8.255 -2.1748  1.1887 -0.5654
 5224TIP3   OH237230   1.644   1.121   6.877 -0.1280 -0.8144 -0.0956
 5224TIP3    H137231   1.682   1.138   6.964  1.0229 -0.0120 -0.7272
 5224TIP3    H237232   1.599   1.037   6.887 -1.1381 -0.1101  1.6235
 5225TIP3   OH237233   0.398   3.118   2.099 -0.1141  0.3505 -0.5861
 5225TIP3    H137234   0.449   3.142   2.022  0.3422  1.2968 -0.0138
 5225TIP3    H237235   0.387   3.023   2.093  0.0721  0.3907 -1.7048
 5226TIP3   OH237236   3.181   2.208   7.986  0.1713  0.4671 -0.0682
 5226TIP3    H137237   3.124   2.187   7.912  1.4992 -1.7350 -0.5705
 5226TIP3    H237238   3.127   2.192   8.064 -0.3597 -0.1255 -0.5444
 5227TIP3   OH237239   1.686   4.202   1.277  0.4997  0.5576 -0.2754
 5227TIP3    H137240   1.602   4.183   1.318 -0.1247 -1.0837 -2.1771
 5227TIP3    H237241   1.700   4.295   1.294 -1.4042  0.7471  0.5614
 5228TIP3   OH237242   3.665   0.849   7.186 -0.4387  0.3042  0.9031
 5228TIP3    H137243   3.736   0.890   7.136  0.5454 -1.1767  1.0309
 5228TIP3    H237244   3.586   0.891   7.152  0.3237  0.5219 -0.7366
 5229TIP3   OH237245   1.664   6.368   1.966 -0.6171 -0.1409  0.5802
 5229TIP3    H137246   1.677   6.462   1.955 -0.5271 -0.3032 -0.9987
 5229TIP3    H237247   1.602   6.344   1.896 -0.0507 -1.3777  0.4742
 5230TIP3   OH237248   3.615   6.698   8.796 -0.1426  0.5605 -0.0271
 5230TIP3    H137249   3.659   6.696   8.881  0.9104 -0.3901 -0.5722
 5230TIP3    H237250   3.531   6.740   8.814  0.3505  1.0154  1.3420
 5231TIP3   OH237251   2.305   2.407   0.982  0.1026  0.4091 -0.1135
 5231TIP3    H137252   2.373   2.426   0.918 -1.1455  0.6757 -1.4054
 5231TIP3    H237253   2.258   2.490   0.993  0.9102  0.6589  1.9678
 5232TIP3   OH237254   1.323   4.784   8.577 -0.0759  0.0908 -0.2151
 5232TIP3    H137255   1.379   4.805   8.503 -1.4626  0.9990 -1.0589
 5232TIP3    H237256   1.371   4.717   8.626  1.1546 -0.0549 -1.5663
 5233TIP3   OH237257   4.271   5.788   7.179 -0.5839  0.3583 -0.5434
 5233TIP3    H137258   4.306   5.701   7.200 -0.5290  0.3602 -0.6303
 5233TIP3    H237259   4.176   5.779   7.192 -0.4920  0.5322  0.3265
 5234TIP3   OH237260   5.425   1.655   7.214  0.5411 -0.1841  0.4348
 5234TIP3    H137261   5.515   1.638   7.242  0.9996 -2.5673 -2.0416
 5234TIP3    H237262   5.392   1.718   7.277  4.1477  1.3489  1.0354
 5235TIP3   OH237263   2.769   2.022   7.247 -0.0609 -0.5511  0.5332
 5235TIP3    H137264   2.683   1.997   7.280 -0.0750  0.5563  1.3903
 5235TIP3    H237265   2.754   2.102   7.197  0.3577 -0.7876  0.0134
 5236TIP3   OH237266   1.304   2.759   7.106 -0.6889  0.4563  0.3661
 5236TIP3    H137267   1.260   2.693   7.159 -2.0554  1.5778  0.7181
 5236TIP3    H237268   1.371   2.796   7.163 -0.3349 -0.1896  0.3742
 5237TIP3   OH237269   1.339   6.155   8.435  0.4588 -0.0656 -0.0363
 5237TIP3    H137270   1.416   6.144   8.491  0.0207  2.3813  1.1861
 5237TIP3    H237271   1.267   6.172   8.496 -1.0639 -1.9628 -1.1641
 5238TIP3   OH237272   5.991   5.100   7.900  0.4639 -0.3810  0.3540
 5238TIP3    H137273   6.086   5.109   7.895  0.2403  1.6720 -1.8119
 5238TIP3    H237274   5.973   5.013   7.864  1.5027 -0.7778  0.7575
 5239TIP3   OH237275   3.710   0.111   6.373 -0.5614 -0.9705  0.0854
 5239TIP3    H137276   3.691   0.066   6.456 -1.3099  0.2595  0.6039
 5239TIP3    H237277   3.805   0.121   6.372 -0.7170  1.7076  2.3093
 5240TIP3   OH237278   0.667   4.914   8.707  0.4299 -0.2680 -0.3240
 5240TIP3    H137279   0.702   4.839   8.755  0.6799 -1.4374 -2.2521
 5240TIP3    H237280   0.604   4.877   8.645 -1.7255  1.4473  0.6817
 5241TIP3   OH237281   4.381   5.649   7.797  0.2339 -0.4335  0.1173
 5241TIP3    H137282   4.420   5.565   7.774 -0.4506 -0.7201 -0.0087
 5241TIP3    H237283   4.451   5.713   7.782  0.4895 -0.8733 -0.6187
 5242TIP3   OH237284   1.165   4.566   0.410  0.7316  0.4492 -0.1346
 5242TIP3    H137285   1.195   4.482   0.444  2.5062  0.7734 -0.8298
 5242TIP3    H237286   1.202   4.571   0.322 -1.6099  0.7869 -1.1879
 5243TIP3   OH237287   2.709   3.379   7.445 -0.1380 -0.1526  0.1806
 5243TIP3    H137288   2.729   3.395   7.353 -0.3589  0.3700  0.2183
 5243TIP3    H237289   2.669   3.292   7.446 -0.8951  0.1735 -0.3322
 5244TIP3   OH237290   2.095   3.415   2.127  0.0801 -0.3384 -0.4519
 5244TIP3    H137291   2.088   3.364   2.208 -1.2716 -0.0750 -0.3707
 5244TIP3    H237292   2.186   3.444   2.125 -0.1572  0.8121  1.7180
 5245TIP3   OH237293   6.033   4.226   7.282  0.2667 -0.3512  0.0956
 5245TIP3    H137294   6.076   4.255   7.201  0.1163 -2.0040 -0.6025
 5245TIP3    H237295   6.020   4.307   7.332  2.3715  0.4454 -0.5401
 5246TIP3   OH237296   3.885   2.019   0.771 -0.2610  0.6470 -0.3106
 5246TIP3    H137297   3.888   1.982   0.859  0.2789  1.3700 -0.0132
 5246TIP3    H237298   3.840   2.103   0.781 -0.6904  0.4851 -0.8213
 5247TIP3   OH237299   0.255   0.733   2.257  0.1890 -0.7531  0.6542
 5247TIP3    H137300   0.197   0.751   2.331  0.9360 -1.1700  1.3579
 5247TIP3    H237301   0.338   0.706   2.298  0.5099 -1.2947 -0.3404
 5248TIP3   OH237302   2.403   1.776   0.121  0.1434  0.4237 -0.2249
 5248TIP3    H137303   2.440   1.856   0.156  0.7815  1.1662 -2.4352
 5248TIP3    H237304   2.322   1.764   0.170  0.3068  2.1119  0.5343
 5249TIP3   OH237305   4.871   3.763   1.253 -0.6002 -0.0815 -0.2162
 5249TIP3    H137306   4.878   3.823   1.326 -0.9914  1.3530 -1.3158
 5249TIP3    H237307   4.777   3.757   1.235 -0.4760  0.0148 -0.9429
 5250TIP3   OH237308   1.876   6.088   0.057  0.2321  0.1983  0.1470
 5250TIP3    H137309   1.810   6.150   0.026 -1.1062 -1.1093  0.2860
 5250TIP3    H237310   1.881   6.104   0.152 -1.1649 -0.8102  0.4284
 5251TIP3   OH237311   4.358   0.555   0.179  0.7534 -0.6251 -0.2635
 5251TIP3    H137312   4.409   0.549   0.099  0.2728 -2.4913 -0.4609
 5251TIP3    H237313   4.297   0.481   0.175 -1.1111  0.7685  0.5588
 5252TIP3   OH237314   5.004   2.759   1.882  0.1360 -0.2553 -0.0123
 5252TIP3    H137315   4.961   2.694   1.937 -0.6050 -0.6325 -1.0303
 5252TIP3    H237316   5.069   2.799   1.940  1.8049 -3.0345  0.2077
 5253TIP3   OH237317   6.262   4.659   1.138  0.6150 -0.2772  0.1039
 5253TIP3    H137318   6.342   4.707   1.159  0.2445  0.9794 -1.1856
 5253TIP3    H237319   6.193   4.706   1.183  0.3667 -0.1567 -0.3953
 5254TIP3   OH237320   3.309   3.324   0.374 -0.4907  0.3882 -0.4716
 5254TIP3    H137321   3.400   3.310   0.348 -0.0324  0.8825  0.7675
 5254TIP3    H237322   3.260   3.257   0.326  0.9646 -2.1884  1.3537
 5255TIP3   OH237323   4.596   0.134   2.134 -0.3863  0.1723  0.6483
 5255TIP3    H137324   4.573   0.116   2.225 -0.3306 -1.2645  0.4081
 5255TIP3    H237325   4.681   0.091   2.122  0.0904  1.2269  0.1935
 5256TIP3   OH237326   5.341   3.696   8.369 -0.0405  0.4627  0.0819
 5256TIP3    H137327   5.265   3.713   8.314 -1.7102 -2.4374  1.2630
 5256TIP3    H237328   5.416   3.708   8.311 -1.5728  0.1583 -2.0880
 5257TIP3   OH237329   1.288   4.445   0.132 -0.0232 -0.1147  0.0916
 5257TIP3    H137330   1.380   4.455   0.107  1.0502 -2.2949  2.6243
 5257TIP3    H237331   1.246   4.408   0.055  1.5629 -0.4762 -0.6484
 5258TIP3   OH237332   2.557   4.292   7.154  0.2963 -0.6274 -0.4952
 5258TIP3    H137333   2.564   4.198   7.139  0.1681 -0.7954  0.4205
 5258TIP3    H237334   2.523   4.300   7.243 -1.2882  0.2659 -1.1311
 5259TIP3   OH237335   4.962   5.313   7.511 -0.4817  0.1755  0.8381
 5259TIP3    H137336   4.937   5.224   7.536  0.2355 -0.3730 -0.3327
 5259TIP3    H237337   5.008   5.348   7.588  1.1719 -1.2669  0.5614
 5260TIP3   OH237338   3.424   0.220   1.372 -0.4614  0.5605 -0.3736
 5260TIP3    H137339   3.331   0.201   1.365 -0.3573 -0.8433  1.4299
 5260TIP3    H237340   3.430   0.291   1.436 -0.2943  0.7749 -0.6230
 5261TIP3   OH237341   4.177   3.715   1.149  0.2815  0.2133 -0.0491
 5261TIP3    H137342   4.259   3.732   1.104 -0.6996  1.0226 -1.6222
 5261TIP3    H237343   4.147   3.631   1.113  0.3509 -0.0224  0.4318
 5262TIP3   OH237344   4.347   6.130   7.554  0.2950  0.4138 -0.1118
 5262TIP3    H137345   4.306   6.088   7.479 -4.1749  0.8518  1.7917
 5262TIP3    H237346   4.374   6.216   7.522  3.5534 -1.2501 -2.3813
 5263TIP3   OH237347   6.365   0.173   0.086 -0.2711  0.2874 -0.6018
 5263TIP3    H137348   6.339   0.233   0.156  1.1507 -0.7414  0.8853
 5263TIP3    H237349   6.458   0.155   0.103 -0.4750 -1.7805 -1.4010
 5264TIP3   OH237350   4.358   1.252   0.808 -0.1315  0.4663 -0.2054
 5264TIP3    H137351   4.406   1.263   0.890  0.5346  2.5898 -0.8259
 5264TIP3    H237352   4.266   1.249   0.835  0.1615 -2.5479  0.8906
 5265TIP3   OH237353   1.023   3.413   0.519  0.2943 -0.0609 -0.1101
 5265TIP3    H137354   1.002   3.506   0.509 -0.6173 -0.3509 -0.9918
 5265TIP3    H237355   1.031   3.400   0.614  0.1647  0.8526  0.0319
 5266TIP3   OH237356   0.844   4.862   0.945  0.5273 -0.1238  0.0551
 5266TIP3    H137357   0.816   4.935   1.000  0.9687 -0.3071  0.5223
 5266TIP3    H237358   0.787   4.867   0.868 -1.4143 -0.9994  1.3560
 5267TIP3   OH237359   5.010   4.959   8.111  0.0453  0.1697  0.2846
 5267TIP3    H137360   4.947   4.964   8.183 -0.4064  0.4469 -0.1180
 5267TIP3    H237361   4.956   4.943   8.033  0.5328 -0.1915  0.0165
 5268TIP3   OH237362   3.912   2.034   0.207 -0.3197  0.0691 -0.2240
 5268TIP3    H137363   3.944   2.015   0.119 -3.0439 -1.1918 -1.0665
 5268TIP3    H237364   3.980   2.088   0.247  1.4425 -0.1345 -2.7435
 5269TIP3   OH237365   5.761   4.929   0.236  0.1853  0.1491 -0.1663
 5269TIP3    H137366   5.810   5.001   0.195 -1.2443  1.2816  0.0498
 5269TIP3    H237367   5.827   4.862   0.251  1.6987  1.6299  0.1640
 5270TIP3   OH237368   5.814   4.038   0.537 -0.5039  0.3034 -0.0592
 5270TIP3    H137369   5.822   4.113   0.596  2.5022 -1.0173  1.4553
 5270TIP3    H237370   5.844   4.070   0.453 -0.4339  1.0856  0.2533
 5271TIP3   OH237371   2.483   5.232   0.188 -0.5898  0.0377 -0.0068
 5271TIP3    H137372   2.533   5.208   0.109 -0.4656  3.0817 -0.9619
 5271TIP3    H237373   2.416   5.292   0.157 -2.4704 -0.9786  1.8492
 5272TIP3   OH237374   5.946   3.218   0.495 -0.2329 -0.7161  0.0644
 5272TIP3    H137375   5.939   3.153   0.426 -2.4326  0.1597 -0.6199
 5272TIP3    H237376   5.872   3.200   0.553  2.2355 -2.2248  3.0003
 5273TIP3   OH237377   2.664   0.811   6.545  0.2665  0.6576 -0.0774
 5273TIP3    H137378   2.756   0.791   6.560  0.1756 -1.2398 -1.5613
 5273TIP3    H237379   2.623   0.806   6.631  1.5881  1.9304  0.6536
 5274TIP3   OH237380   1.229   3.561   0.102  0.7679  0.2605  0.1717
 5274TIP3    H137381   1.163   3.618   0.063  0.4926 -0.8192 -1.0121
 5274TIP3    H237382   1.279   3.619   0.160 -0.3069  1.4064  0.0128
 5275TIP3   OH237383   2.502   5.320   8.215  0.4737  0.5366 -0.1919
 5275TIP3    H137384   2.479   5.410   8.238  2.1346  0.9411 -0.0062
 5275TIP3    H237385   2.556   5.290   8.287 -2.8464 -1.9016  1.5394
 5276TIP3   OH237386   0.809   4.418   7.251 -0.2760 -0.5428 -0.3424
 5276TIP3    H137387   0.801   4.362   7.174 -1.7354 -1.0548  0.1415
 5276TIP3    H237388   0.893   4.393   7.290  0.2502 -0.6138 -1.4854
 5277TIP3   OH237389   5.114   0.475   6.967  0.0405  0.2663 -0.0033
 5277TIP3    H137390   5.180   0.502   6.902  0.0955  0.8211  0.2777
 5277TIP3    H237391   5.154   0.402   7.013  0.1001  0.0244 -0.4281
 5278TIP3   OH237392   6.353   0.758   0.518 -0.4148 -0.4641  0.0481
 5278TIP3    H137393   6.340   0.795   0.606  0.5339 -1.5996  0.6922
 5278TIP3    H237394   6.388   0.670   0.534  0.2810 -0.4864 -1.4777
 5279TIP3   OH237395   2.298   1.735   7.825  0.4846  0.4627 -0.6218
 5279TIP3    H137396   2.283   1.824   7.794 -0.7405  1.1597  1.7464
 5279TIP3    H237397   2.352   1.744   7.903  2.2870 -1.1110 -1.5886
 5280TIP3   OH237398   6.028   5.875   0.314  1.0158  0.1719  0.1236
 5280TIP3    H137399   5.962   5.836   0.371  1.7283  1.7342  2.1409
 5280TIP3    H237400   6.035   5.815   0.240 -2.5515 -0.1030 -0.1385
 5281TIP3   OH237401   5.372   1.181   6.805  0.0716 -0.5912 -0.0213
 5281TIP3    H137402   5.375   1.085   6.808  0.0139 -0.7038 -2.0927
 5281TIP3    H237403   5.354   1.202   6.713 -1.0282  1.3900  0.5737
 5282TIP3   OH237404   5.491   3.617   7.884 -0.4695  0.2563 -0.5873
 5282TIP3    H137405   5.550   3.647   7.814 -1.4621 -1.4560 -2.2451
 5282TIP3    H237406   5.411   3.668   7.871 -0.7728 -0.2998 -0.9446
 5283TIP3   OH237407   4.916   6.294   2.440 -0.0251 -0.0062  0.0263
 5283TIP3    H137408   4.822   6.299   2.457 -0.2418 -0.3201 -1.0209
 5283TIP3    H237409   4.924   6.233   2.366  0.7069  2.4302 -2.0497
 5284TIP3   OH237410   4.470   5.895   7.657  0.4629  0.1398  0.4151
 5284TIP3    H137411   4.398   5.833   7.646  2.0660 -1.4510 -1.9447
 5284TIP3    H237412   4.433   5.980   7.632 -0.4938 -0.7160 -1.2315
 5285TIP3   OH237413   2.462   4.533   0.885 -0.3214  0.4036  0.4556
 5285TIP3    H137414   2.412   4.460   0.848  0.6667 -0.2886  0.4511
 5285TIP3    H237415   2.504   4.496   0.962 -1.1840  1.4481  1.4625
 5286TIP3   OH237416   4.988   1.359   2.134  0.5161  0.1195  0.0999
 5286TIP3    H137417   5.017   1.450   2.128  2.3645 -0.4549 -0.1564
 5286TIP3    H237418   5.052   1.317   2.191 -1.7351 -0.5025  2.3803
 5287TIP3   OH237419   4.559   1.661   7.083  0.6744 -0.3005 -0.6068
 5287TIP3    H137420   4.601   1.746   7.067 -0.4301  0.8358  1.8724
 5287TIP3    H237421   4.621   1.614   7.139  0.3632 -0.1965 -0.1628
 5288TIP3   OH237422   2.213   3.252   8.504  0.1233  0.5993  0.9229
 5288TIP3    H137423   2.234   3.204   8.424 -1.6678 -0.1525  0.8731
 5288TIP3    H237424   2.273   3.216   8.569  1.0449  0.6509  0.1324
 5289TIP3   OH237425   1.613   3.486   1.614  0.2412  1.0843  0.2052
 5289TIP3    H137426   1.658   3.486   1.698  0.6973 -0.3337 -0.0150
 5289TIP3    H237427   1.682   3.499   1.549  0.3000 -0.4685 -0.0910
 5290TIP3   OH237428   2.021   0.616   8.194 -0.0750  0.3299 -0.3883
 5290TIP3    H137429   2.108   0.633   8.159  1.3005 -1.7845  1.6649
 5290TIP3    H237430   1.990   0.702   8.223  1.8418  1.0053 -0.1644
 5291TIP3   OH237431   0.376   2.879   1.011  0.5916 -0.5847 -0.4843
 5291TIP3    H137432   0.376   2.974   1.008  0.7362 -0.5983 -1.3545
 5291TIP3    H237433   0.397   2.857   1.102  2.9958  0.2196 -0.7650
 5292TIP3   OH237434   0.311   3.973   0.309  0.3741 -0.0912 -0.5750
 5292TIP3    H137435   0.369   3.951   0.237  1.9904  1.6057  0.1254
 5292TIP3    H237436   0.303   4.069   0.305 -0.4711 -0.0773  0.7611
 5293TIP3   OH237437   2.830   2.699   0.127  0.7717 -0.0168 -0.0505
 5293TIP3    H137438   2.795   2.642   0.059 -2.2605  1.3096  0.2201
 5293TIP3    H237439   2.823   2.787   0.090 -1.1890  0.7596  1.9227
 5294TIP3   OH237440   4.780   1.018   7.165 -0.5058  0.0343  0.1564
 5294TIP3    H137441   4.860   1.025   7.217 -0.1089  1.5306 -0.6077
 5294TIP3    H237442   4.710   1.012   7.229  0.0539  0.8363  0.8560
 5295TIP3   OH237443   3.020   0.642   0.254  0.1384 -0.0320  0.1203
 5295TIP3    H137444   3.006   0.588   0.177 -1.5123 -1.2723  1.2157
 5295TIP3    H237445   2.939   0.692   0.264  0.8137  1.0559  0.3548
 5296TIP3   OH237446   1.826   1.559   6.166  0.4088  0.0801  0.8893
 5296TIP3    H137447   1.893   1.494   6.187  1.0498  0.2152 -0.6038
 5296TIP3    H237448   1.866   1.643   6.189  0.7050  0.1450  0.1792
 5297TIP3   OH237449   4.429   0.315   2.423 -0.0561 -0.0153  0.0914
 5297TIP3    H137450   4.380   0.363   2.357  0.7100  1.2629  0.4233
 5297TIP3    H237451   4.508   0.367   2.438 -0.1159 -0.3658  1.8771
 5298TIP3   OH237452   1.016   0.869   1.937  0.1948 -0.3476  0.0089
 5298TIP3    H137453   1.096   0.819   1.923 -0.3504 -1.2958  0.1830
 5298TIP3    H237454   1.046   0.960   1.945  1.3478 -0.7793  0.9719
 5299TIP3   OH237455   1.070   1.157   1.967  0.0247  0.4946  0.2073
 5299TIP3    H137456   1.062   1.183   2.059  1.3657 -0.4093  0.6196
 5299TIP3    H237457   1.147   1.203   1.935  0.4241 -0.3045 -0.0259
 5300TIP3   OH237458   4.013   0.358   1.169 -0.2307  0.1221 -0.0124
 5300TIP3    H137459   4.036   0.337   1.078  0.5510  1.2814 -0.1004
 5300TIP3    H237460   3.960   0.438   1.162 -0.4556  0.0195  0.5267
 5301TIP3   OH237461   1.678   0.325   0.928 -0.3560 -0.7563  0.5628
 5301TIP3    H137462   1.726   0.364   0.855 -0.5780 -0.5402  0.5325
 5301TIP3    H237463   1.608   0.387   0.947 -0.2457 -0.7673  1.0214
 5302TIP3   OH237464   6.582   1.199   6.662  0.7346 -0.0681 -0.0275
 5302TIP3    H137465   6.490   1.221   6.675  0.0625 -3.3140  1.4626
 5302TIP3    H237466   6.598   1.218   6.569 -1.9617 -1.0806 -0.7850
 5303TIP3   OH237467   2.541   2.306   0.140 -0.4721  0.0150  0.2378
 5303TIP3    H137468   2.537   2.322   0.234  0.6386 -1.2861  0.5367
 5303TIP3    H237469   2.452   2.321   0.110 -0.9285  0.1187  1.5634
 5304TIP3   OH237470   2.194   3.120   8.260 -0.4398  0.3938 -0.5543
 5304TIP3    H137471   2.172   3.149   8.172 -0.7101 -0.9859 -0.9673
 5304TIP3    H237472   2.281   3.079   8.251  0.3078  1.7382  0.1727
 5305TIP3   OH237473   2.587   2.384   8.497  0.1059 -0.1461 -0.5746
 5305TIP3    H137474   2.608   2.457   8.555  2.8930 -1.3289  0.0322
 5305TIP3    H237475   2.645   2.396   8.422 -1.8161  0.0747 -2.0941
 5306TIP3   OH237476   6.455   4.022   0.755 -0.5346 -0.4893 -0.0829
 5306TIP3    H137477   6.509   3.957   0.709  2.1646  0.1708  1.8980
 5306TIP3    H237478   6.370   3.979   0.766 -0.5531 -1.5772 -3.3852
 5307TIP3   OH237479   5.593   0.697   7.770 -0.3781  0.4584  0.4316
 5307TIP3    H137480   5.661   0.734   7.714  0.5834 -1.4557  0.2512
 5307TIP3    H237481   5.578   0.763   7.837  0.6974  1.4746 -0.2909
 5308TIP3   OH237482   0.246   4.163   0.940  0.0767 -0.5483 -0.2412
 5308TIP3    H137483   0.174   4.223   0.955  0.4896 -0.2942  0.8535
 5308TIP3    H237484   0.212   4.099   0.877 -0.0470  1.3670 -2.2226
 5309TIP3   OH237485   1.338   3.745   1.893 -0.0092 -0.0843 -0.1397
 5309TIP3    H137486   1.308   3.833   1.874 -1.4825 -0.8102 -1.3908
 5309TIP3    H237487   1.287   3.718   1.970  0.2282  0.0414  0.0633
 5310TIP3   OH237488   6.732   3.513   0.851 -0.5043  0.1915 -0.5133
 5310TIP3    H137489   6.770   3.470   0.774 -0.0866 -0.6521  0.1338
 5310TIP3    H237490   6.736   3.606   0.832  2.0027  0.1604 -0.4671
 5311TIP3   OH237491   4.861   4.235   0.246  0.2969 -0.1127 -0.0545
 5311TIP3    H137492   4.875   4.188   0.164 -2.0556 -0.2752 -0.4395
 5311TIP3    H237493   4.943   4.224   0.295  1.8410  0.1692 -2.4313
 5312TIP3   OH237494   0.544   5.797   8.313  0.2744 -0.0218  0.5519
 5312TIP3    H137495   0.475   5.806   8.379 -0.0024  2.4067  0.0361
 5312TIP3    H237496   0.625   5.815   8.360  0.5369 -2.0547  0.9758
 5313TIP3   OH237497   2.394   1.365   1.129  0.1127 -0.7651  0.3353
 5313TIP3    H137498   2.410   1.338   1.039  0.0423 -1.7075  0.6006
 5313TIP3    H237499   2.357   1.453   1.121  1.9751  0.0182 -0.4650
 5314TIP3   OH237500   1.138   6.667   7.434 -0.3771 -0.3780 -0.6055
 5314TIP3    H137501   1.222   6.652   7.478 -0.1441  0.4621 -0.7591
 5314TIP3    H237502   1.084   6.710   7.500 -0.3705 -0.0528 -0.8143
 5315TIP3   OH237503   3.971   1.434   6.798  0.4143 -0.6893 -0.7261
 5315TIP3    H137504   4.019   1.352   6.789  2.3409 -0.3036  3.5395
 5315TIP3    H237505   4.016   1.495   6.740 -1.0879 -2.4345 -4.0170
 5316TIP3   OH237506   4.313   1.100   7.563  0.4433  0.1326  0.0708
 5316TIP3    H137507   4.394   1.101   7.512  0.7416 -0.8650  0.5050
 5316TIP3    H237508   4.311   1.186   7.606  0.8995  0.4395 -0.5058
 5317TIP3   OH237509   2.022   5.580   2.952  0.1616 -0.4760  0.2729
 5317TIP3    H137510   2.105   5.584   2.905  0.5042  0.6321  0.9378
 5317TIP3    H237511   1.959   5.619   2.892  0.0434 -1.6039 -0.3598
 5318TIP3   OH237512   2.600   0.741   7.786  0.4536  0.1125  0.0265
 5318TIP3    H137513   2.692   0.766   7.785  0.2696  0.8086 -0.9715
 5318TIP3    H237514   2.600   0.647   7.769  1.0185 -0.0978  1.1050
 5319TIP3   OH237515   4.744   3.302   7.197 -0.3715 -0.0010 -0.1328
 5319TIP3    H137516   4.804   3.338   7.131 -0.8640  1.2975  0.1092
 5319TIP3    H237517   4.665   3.280   7.148  0.7084 -3.0306 -0.7182
 5320TIP3   OH237518   4.015   4.273   0.005 -0.1737  0.3842  0.4350
 5320TIP3    H137519   4.089   4.331  -0.015 -0.1395  0.3591  0.4899
 5320TIP3    H237520   4.024   4.254   0.098  0.0015  0.0244  0.3444
 5321TIP3   OH237521   5.767   4.022   1.557  0.0244 -0.3594  0.2509
 5321TIP3    H137522   5.824   4.077   1.610  1.4485  0.2556 -1.7923
 5321TIP3    H237523   5.814   3.939   1.550  0.9682  0.3008 -1.8195
 5322TIP3   OH237524   4.946   6.601   8.431  0.4564 -0.1049 -0.0914
 5322TIP3    H137525   4.906   6.649   8.358 -0.4503 -0.7021 -0.0024
 5322TIP3    H237526   4.935   6.659   8.506  0.0175 -0.1315 -0.1301
 5323TIP3   OH237527   2.686   6.583   1.256  0.0828 -0.0925 -0.4018
 5323TIP3    H137528   2.668   6.588   1.162  0.9212 -0.1638 -0.5736
 5323TIP3    H237529   2.747   6.655   1.273  0.9600 -0.8696 -0.1648
 5324TIP3   OH237530   4.830   5.159   2.339  0.1876 -0.9453  0.0953
 5324TIP3    H137531   4.834   5.147   2.434 -0.3392  0.2186  0.2854
 5324TIP3    H237532   4.916   5.193   2.315  0.0959 -0.5746  0.2756
 5325TIP3   OH237533   0.635   4.461   8.589  0.3908 -0.0467  0.3967
 5325TIP3    H137534   0.597   4.384   8.631  0.5920  1.2077  3.0904
 5325TIP3    H237535   0.625   4.445   8.495 -0.6576 -2.7673  0.8883
 5326TIP3   OH237536   0.104   0.008   8.482 -0.3307 -0.5314  0.2061
 5326TIP3    H137537   0.013  -0.019   8.490 -0.8562  0.6804 -1.1268
 5326TIP3    H237538   0.125   0.050   8.565 -1.2613 -0.1269  0.2502
 5327TIP3   OH237539   5.719   1.291   7.655 -0.0203 -1.1881  0.8524
 5327TIP3    H137540   5.812   1.308   7.665  0.5046 -2.0717 -1.7487
 5327TIP3    H237541   5.705   1.205   7.695  0.5801 -1.6758  0.0307
 5328TIP3   OH237542   1.607   1.538   7.727 -0.7258 -0.1835  0.4405
 5328TIP3    H137543   1.584   1.445   7.734  1.6044 -0.8102  0.5975
 5328TIP3    H237544   1.586   1.561   7.636 -2.1784 -0.5937  0.6545
 5329TIP3   OH237545   2.230   4.204   6.722 -0.2249 -0.2860 -0.5537
 5329TIP3    H137546   2.282   4.129   6.693  1.2460  0.4714  0.0133
 5329TIP3    H237547   2.167   4.167   6.784 -0.3722 -1.2269 -1.2386
 5330TIP3   OH237548   0.035   5.728   0.314 -0.4221  0.0651 -0.5109
 5330TIP3    H137549   0.045   5.797   0.249 -0.9155  1.0918  0.4603
 5330TIP3    H237550   0.115   5.732   0.367 -1.1520  1.0315  0.5680
 5331TIP3   OH237551   1.439   4.886   1.502 -0.1058 -0.3256  0.1936
 5331TIP3    H137552   1.350   4.907   1.528 -0.6620  3.3841 -3.6200
 5331TIP3    H237553   1.443   4.790   1.503 -4.2856 -0.6850  0.0652
 5332TIP3   OH237554   4.454   0.814   7.380  0.0614  0.1947 -0.0543
 5332TIP3    H137555   4.491   0.786   7.464 -1.6814  2.4667  1.6055
 5332TIP3    H237556   4.360   0.824   7.398 -0.1190  2.2413 -1.8128
 5333TIP3   OH237557   6.087   1.434   1.368 -0.3996  0.4611 -0.2374
 5333TIP3    H137558   6.081   1.370   1.439 -0.7449 -0.0842 -0.7495
 5333TIP3    H237559   6.129   1.510   1.408 -0.1804 -0.0032  0.4365
 5334TIP3   OH237560   5.032   3.462   0.943  0.0794 -0.7173  0.1154
 5334TIP3    H137561   5.060   3.372   0.956 -1.7631 -1.2162  0.9720
 5334TIP3    H237562   4.959   3.456   0.881 -0.6608  0.0566  0.8732
 5335TIP3   OH237563   6.531   4.566   1.802  0.4072 -0.0503 -0.2705
 5335TIP3    H137564   6.460   4.537   1.860  0.7498 -1.5577 -0.5697
 5335TIP3    H237565   6.506   4.532   1.716  0.3354  1.4376 -0.8513
 5336TIP3   OH237566   2.474   1.966   8.490  0.1643 -0.1040  0.1988
 5336TIP3    H137567   2.421   2.025   8.436  1.9374  1.3368 -0.0759
 5336TIP3    H237568   2.424   1.956   8.571 -1.4436 -0.4096 -0.7857
 5337TIP3   OH237569   0.890   6.128   8.352 -0.7875 -0.0677 -0.0552
 5337TIP3    H137570   0.971   6.128   8.300  0.4466  0.1963  1.7551
 5337TIP3    H237571   0.859   6.218   8.348 -1.1615 -0.2280 -0.9781
 5338TIP3   OH237572   5.053   1.304   6.788  0.4183  0.3160 -0.0284
 5338TIP3    H137573   5.081   1.388   6.823 -0.5103  1.2259 -1.3593
 5338TIP3    H237574   5.134   1.252   6.781  1.2481  1.6490 -0.6312
 5339TIP3   OH237575   4.712   1.078   8.233 -0.0399  0.1599 -0.3104
 5339TIP3    H137576   4.732   1.168   8.258  0.5597 -0.0027 -0.1730
 5339TIP3    H237577   4.732   1.027   8.311 -2.6303  0.1429  0.4281
 5340TIP3   OH237578   1.777   0.170   7.769 -0.6018 -0.2195  0.4442
 5340TIP3    H137579   1.826   0.164   7.687 -1.9749  0.6173 -0.4878
 5340TIP3    H237580   1.843   0.158   7.837  0.5826 -0.9343 -0.7701
 5341TIP3   OH237581   5.168   3.314   1.259  0.2110 -0.2300 -0.1169
 5341TIP3    H137582   5.177   3.311   1.354  2.2733  3.8613  0.0494
 5341TIP3    H237583   5.089   3.367   1.244  1.0858  0.9804 -0.5813
 5342TIP3   OH237584   5.210   2.573   6.578  0.3545  0.3555 -0.2171
 5342TIP3    H137585   5.283   2.591   6.520  0.0774 -0.4267 -0.8304
 5342TIP3    H237586   5.228   2.486   6.613 -1.0376 -0.5500 -1.6107
 5343TIP3   OH237587   3.547   3.544   7.660 -0.1495 -0.1276  0.2082
 5343TIP3    H137588   3.490   3.468   7.673  0.9009 -1.3404 -1.7465
 5343TIP3    H237589   3.538   3.565   7.567  1.6026  0.4311  0.1343
 5344TIP3   OH237590   2.676   1.503   1.684  0.3137 -0.0193  0.6364
 5344TIP3    H137591   2.584   1.479   1.668  0.2104  0.4245  0.5464
 5344TIP3    H237592   2.687   1.586   1.638  1.5192 -1.3605 -1.6983
 5345TIP3   OH237593   3.344   2.689   8.325 -0.3293 -0.2717  0.5285
 5345TIP3    H137594   3.425   2.722   8.286  0.6394 -3.4723 -0.4782
 5345TIP3    H237595   3.368   2.666   8.415 -0.2270 -0.7206  0.3920
 5346TIP3   OH237596   6.529   4.267   0.266 -0.6921  0.4341  0.0776
 5346TIP3    H137597   6.434   4.272   0.260 -0.5971  1.4072 -0.9842
 5346TIP3    H237598   6.555   4.351   0.306 -0.2973  0.0679  0.6015
 5347TIP3   OH237599   4.357   5.695   8.547  0.4296 -0.4172  0.0962
 5347TIP3    H137600   4.329   5.766   8.490 -1.7395 -1.9394 -0.8497
 5347TIP3    H237601   4.291   5.691   8.616  0.9807 -0.9958  0.6105
 5348TIP3   OH237602   3.000   2.623   1.671 -0.0650 -0.4380 -0.0150
 5348TIP3    H137603   2.979   2.672   1.592  1.6864 -1.0882 -0.9173
 5348TIP3    H237604   2.920   2.629   1.724 -0.3835  2.2378 -0.6407
 5349TIP3   OH237605   1.341   6.282   6.978 -0.1706  0.2295  0.5328
 5349TIP3    H137606   1.420   6.252   6.932  0.7729  1.3020  1.3791
 5349TIP3    H237607   1.341   6.234   7.061 -2.4733 -2.5420 -0.8796
 5350TIP3   OH237608   6.349   4.101   7.373 -0.2714 -0.5657 -0.0347
 5350TIP3    H137609   6.440   4.087   7.399  1.2353  1.8810 -3.2335
 5350TIP3    H237610   6.314   4.162   7.438  1.0425 -0.0188  0.1914
 5351TIP3   OH237611   0.219   3.141   7.728  0.0486  0.1344  0.4938
 5351TIP3    H137612   0.263   3.225   7.719 -2.1423  1.1891 -0.9651
 5351TIP3    H237613   0.147   3.157   7.789 -1.8750  0.0293 -1.6203
 5352TIP3   OH237614   1.701   1.382   0.529 -0.0019  0.1773  0.3162
 5352TIP3    H137615   1.636   1.446   0.556 -1.3923 -0.3871 -1.4980
 5352TIP3    H237616   1.774   1.435   0.497 -0.3800  0.8372  0.5219
 5353TIP3   OH237617   4.961   4.451   8.879  0.0110 -0.0226 -0.2121
 5353TIP3    H137618   5.027   4.383   8.896 -2.5051 -3.0283 -1.5999
 5353TIP3    H237619   4.971   4.471   8.786 -0.7040 -0.1352 -0.3154
 5354TIP3   OH237620   4.877   2.023   7.324  0.0111  0.5646 -0.2967
 5354TIP3    H137621   4.867   2.075   7.245 -1.1925  2.2427  0.8648
 5354TIP3    H237622   4.899   2.087   7.392  0.0491 -0.6715  0.9065
 5355TIP3   OH237623   6.260   4.828   1.413 -0.6326  0.2155 -0.6918
 5355TIP3    H137624   6.342   4.778   1.410 -0.3796  0.3292  1.8184
 5355TIP3    H237625   6.288   4.919   1.421 -1.0614  0.4454 -1.6519
 5356TIP3   OH237626   6.328   0.158   2.087 -0.1727 -0.7116  0.4212
 5356TIP3    H137627   6.271   0.179   2.160  1.3137 -0.9191  1.7058
 5356TIP3    H237628   6.353   0.066   2.101  2.1093 -0.0662  1.1590
 5357TIP3   OH237629   2.799   1.865   0.183  0.4812 -0.7664 -0.2621
 5357TIP3    H137630   2.716   1.911   0.193  0.9099 -0.1621  0.6253
 5357TIP3    H237631   2.834   1.897   0.099 -0.0363 -0.8094 -0.4980
 5358TIP3   OH237632   0.490   4.561   1.035 -0.1282 -0.4615  0.1740
 5358TIP3    H137633   0.404   4.560   1.077  0.1300 -0.5479  0.7039
 5358TIP3    H237634   0.550   4.524   1.100  0.2472 -0.7729 -0.3367
 5359TIP3   OH237635   5.020   1.160   1.236  0.0046 -0.3944 -0.0518
 5359TIP3    H137636   5.012   1.066   1.251  1.4207 -0.3923  0.9332
 5359TIP3    H237637   5.037   1.197   1.323 -0.8017  0.8203 -0.3804
 5360TIP3   OH237638   0.728   5.867   6.969  0.3947 -0.3614  0.1788
 5360TIP3    H137639   0.658   5.812   7.003 -0.1325  0.2786  0.1389
 5360TIP3    H237640   0.803   5.849   7.026  0.0065 -0.5482  0.6326
 5361TIP3   OH237641   5.713   1.278   1.939  0.2784  0.0608  0.5827
 5361TIP3    H137642   5.776   1.346   1.963  1.9499 -0.9073 -0.8059
 5361TIP3    H237643   5.746   1.199   1.981 -0.7781 -0.2115  0.9242
 5362TIP3   OH237644   1.303   1.993   8.875 -0.0993 -0.1534  0.1381
 5362TIP3    H137645   1.277   1.912   8.831  0.2029  0.7498 -1.8048
 5362TIP3    H237646   1.381   2.021   8.829 -0.1065  1.1719  0.8843
 5363TIP3   OH237647   2.560   6.554   8.851 -0.1606 -0.0636 -0.3003
 5363TIP3    H137648   2.532   6.472   8.810 -0.5001  0.5967 -1.4317
 5363TIP3    H237649   2.479   6.596   8.879  0.0546 -0.4259  0.9519
 5364TIP3   OH237650   4.033   4.231   8.253  0.1042 -0.3476 -0.3107
 5364TIP3    H137651   4.028   4.144   8.212  1.6312 -0.9485  0.6976
 5364TIP3    H237652   4.082   4.217   8.334  0.7494  1.5270 -0.3228
 5365TIP3   OH237653   1.328   2.964   0.483 -0.3524  0.2052 -0.3331
 5365TIP3    H137654   1.316   2.877   0.521  0.1810 -1.1958 -3.1236
 5365TIP3    H237655   1.378   3.013   0.549 -0.7146 -1.5734  1.3157
 5366TIP3   OH237656   5.416   5.080   8.167 -0.2624  0.1651 -0.8514
 5366TIP3    H137657   5.362   5.114   8.096 -0.4168 -1.2581 -1.4383
 5366TIP3    H237658   5.415   4.985   8.156  1.0216  0.0067  0.1041
 5367TIP3   OH237659   0.325   4.321   2.217 -0.2544 -0.0727 -0.2458
 5367TIP3    H137660   0.364   4.356   2.136  1.7665 -0.2439  0.5991
 5367TIP3    H237661   0.272   4.393   2.251  1.2367  1.0573 -0.2323
 5368TIP3   OH237662   2.387   2.608   1.289  0.1421  0.0654 -0.4042
 5368TIP3    H137663   2.477   2.599   1.258  0.6046 -1.5122  1.2505
 5368TIP3    H237664   2.349   2.521   1.278 -0.5659  0.2189  0.6986
 5369TIP3   OH237665   5.226   4.248   8.591  0.2911  0.2593  0.3794
 5369TIP3    H137666   5.235   4.339   8.620  0.6719 -0.5419  3.0347
 5369TIP3    H237667   5.132   4.232   8.591 -0.0335  1.3427 -2.8097
 5370TIP3   OH237668   4.984   3.201   1.599 -0.5918 -0.6120  0.5261
 5370TIP3    H137669   4.905   3.182   1.650  0.4084 -0.4484  2.2172
 5370TIP3    H237670   4.981   3.296   1.584 -1.8021 -0.9103 -1.3633
 5371TIP3   OH237671   2.737   4.172   7.941 -0.5771 -0.3724  0.2177
 5371TIP3    H137672   2.741   4.158   7.847  0.3259  1.5006 -0.0738
 5371TIP3    H237673   2.823   4.147   7.974 -1.2454 -2.0788  0.7424
 5372TIP3   OH237674   4.863   4.305   0.916 -0.2482  0.2594  0.1251
 5372TIP3    H137675   4.794   4.269   0.972 -1.3993  0.5025 -1.0793
 5372TIP3    H237676   4.931   4.332   0.977 -0.1601 -2.1362  1.2120
 5373TIP3   OH237677   6.028   1.752   8.436 -0.8542  0.0023 -0.2883
 5373TIP3    H137678   5.956   1.811   8.457 -0.3439  1.0542 -1.3937
 5373TIP3    H237679   6.089   1.805   8.385  1.5999 -0.2923  2.0780
 5374TIP3   OH237680   2.020   4.203   1.153 -0.0631  0.2506 -0.3071
 5374TIP3    H137681   1.950   4.187   1.089  0.2576 -0.1254 -0.5640
 5374TIP3    H237682   1.995   4.286   1.194 -0.3041  0.4657 -0.8772
 5375TIP3   OH237683   3.978   3.976   7.711  0.4763  0.0766 -0.2452
 5375TIP3    H137684   3.937   4.035   7.775 -0.9587 -1.1120  0.0047
 5375TIP3    H237685   4.015   4.034   7.645 -0.1547  1.2789  0.4153
 5376TIP3   OH237686   6.270   2.550   2.089 -0.0771  1.0543  0.1745
 5376TIP3    H137687   6.319   2.631   2.079 -0.7299  1.4531  0.1879
 5376TIP3    H237688   6.251   2.522   2.000 -1.8577  2.1517  0.1721
 5377TIP3   OH237689   2.904   0.964   6.397 -0.0000  0.2906  0.2227
 5377TIP3    H137690   2.844   0.922   6.336 -0.4548  0.6962  0.3833
 5377TIP3    H237691   2.902   0.909   6.475 -0.0022  0.1921  0.1527
 5378TIP3   OH237692   4.159   1.904   1.620 -0.4663 -0.3410  0.4206
 5378TIP3    H137693   4.207   1.837   1.669  0.7573  0.0683 -0.1625
 5378TIP3    H237694   4.146   1.867   1.533  1.1679  0.5376 -0.2428
 5379TIP3   OH237695   4.714   5.999   2.202  0.6917 -0.2295 -0.1323
 5379TIP3    H137696   4.784   5.949   2.243 -1.5703 -1.0383  3.1518
 5379TIP3    H237697   4.634   5.949   2.220 -1.0445  1.7996 -1.6031
 5380TIP3   OH237698   3.382   3.565   8.174 -0.4005 -0.3108  0.3658
 5380TIP3    H137699   3.452   3.566   8.108 -1.6023  1.4057 -0.9566
 5380TIP3    H237700   3.345   3.477   8.167  0.1303 -0.4773 -0.5579
 5381TIP3   OH237701   3.529   5.532   6.686  0.1501  0.5371  0.0459
 5381TIP3    H137702   3.523   5.478   6.606 -0.4208 -0.7160  0.8985
 5381TIP3    H237703   3.621   5.529   6.710  0.3367  0.9616 -0.5786
 5382TIP3   OH237704   2.231   2.804   1.457  0.0784 -0.0924 -0.0858
 5382TIP3    H137705   2.227   2.898   1.436  2.1727  0.0844  0.1170
 5382TIP3    H237706   2.290   2.768   1.392  0.0411 -1.1062  0.4331
 5383TIP3   OH237707   6.636   2.014   1.251  0.4896  0.1822 -0.2672
 5383TIP3    H137708   6.652   2.107   1.236  1.8743  0.1470  0.7450
 5383TIP3    H237709   6.660   2.001   1.343  1.9739 -1.4927 -0.8513
 5384TIP3   OH237710   4.997   4.042   7.165 -1.1458  0.5041  0.2571
 5384TIP3    H137711   5.027   3.996   7.087  0.4924 -0.4679  1.3982
 5384TIP3    H237712   5.049   4.122   7.167  0.1784 -0.3486  1.3003
 5385TIP3   OH237713   4.447   5.888   1.751  0.4010 -0.1737 -0.0030
 5385TIP3    H137714   4.425   5.886   1.844  1.2958  0.2990  0.2338
 5385TIP3    H237715   4.494   5.971   1.740  0.7732 -0.4769 -0.7600
 5386TIP3   OH237716   5.265   3.040   2.574  0.3423 -0.3550  0.0261
 5386TIP3    H137717   5.266   3.092   2.494  0.0578  0.4838  0.5529
 5386TIP3    H237718   5.186   3.068   2.620  1.9021  1.3077  1.9423
 5387TIP3   OH237719   2.953   0.474   1.315 -0.2915 -0.4470  0.6557
 5387TIP3    H137720   2.893   0.402   1.299 -0.5449 -0.4563  1.6050
 5387TIP3    H237721   2.928   0.541   1.251  0.8327 -1.6899 -1.1643
 5388TIP3   OH237722   3.597   3.910   8.277  0.5940 -0.5990 -0.3064
 5388TIP3    H137723   3.577   3.951   8.361 -1.8957 -0.1123 -1.0600
 5388TIP3    H237724   3.664   3.967   8.238  0.0033  0.5477  0.3138
 5389TIP3   OH237725   6.108   0.240   7.873  0.1505 -0.1725  0.1298
 5389TIP3    H137726   6.142   0.321   7.911  0.8070 -0.7305  0.7688
 5389TIP3    H237727   6.013   0.252   7.871  0.2616  0.7465 -0.1226
 5390TIP3   OH237728   4.138   1.694   7.273  0.9289  0.1350 -0.2176
 5390TIP3    H137729   4.216   1.748   7.264  1.4886 -0.5176  0.5870
 5390TIP3    H237730   4.120   1.693   7.367 -0.1400  0.4017 -0.4062
 5391TIP3   OH237731   0.377   3.259   0.668 -0.4250  0.0174 -0.0329
 5391TIP3    H137732   0.293   3.303   0.655  0.0234  0.5585 -1.2344
 5391TIP3    H237733   0.438   3.331   0.688 -0.5123 -0.5001  2.4478
 5392TIP3   OH237734   2.412   0.230   6.845  0.7484 -0.0114  0.2370
 5392TIP3    H137735   2.420   0.304   6.786 -3.9851  0.0032 -0.7209
 5392TIP3    H237736   2.481   0.169   6.817  0.9069  1.4577 -2.9910
 5393TIP3   OH237737   5.947   5.793   7.713  0.4484  0.8185  0.0627
 5393TIP3    H137738   5.962   5.722   7.775  0.5634 -0.8382 -1.7508
 5393TIP3    H237739   5.868   5.766   7.665  0.9009  1.5661 -1.1416
 5394TIP3   OH237740   1.181   5.077   0.821 -0.5672  0.8368 -0.3463
 5394TIP3    H137741   1.200   4.988   0.850 -0.2895  0.5228 -1.4569
 5394TIP3    H237742   1.225   5.133   0.885  1.4657  0.1447 -1.0846
 5395TIP3   OH237743   0.273   2.381   8.392 -0.1850 -0.3127 -0.5436
 5395TIP3    H137744   0.284   2.445   8.322  1.1349 -2.0032 -1.9711
 5395TIP3    H237745   0.293   2.430   8.472 -0.2978  1.3077 -1.4513
 5396TIP3   OH237746   4.063   4.517   2.431  0.3474  0.1101 -0.6707
 5396TIP3    H137747   4.076   4.508   2.526 -0.5003  1.1675 -0.4429
 5396TIP3    H237748   3.988   4.461   2.412  1.6374 -1.5899 -1.0673
 5397TIP3   OH237749   3.700   5.387   8.032  0.0295  0.3296 -0.6446
 5397TIP3    H137750   3.635   5.432   8.085  0.2703 -0.8494  0.7137
 5397TIP3    H237751   3.648   5.341   7.966 -0.4504  0.1933 -0.1824
 5398TIP3   OH237752   5.212   1.011   0.849 -0.1922 -0.1518  0.2121
 5398TIP3    H137753   5.283   1.009   0.784  0.0357  0.8794  0.4013
 5398TIP3    H237754   5.154   0.940   0.823  0.1433 -0.0677 -0.8429
 5399TIP3   OH237755   2.207   6.114   8.563 -0.1649 -0.8768 -0.1992
 5399TIP3    H137756   2.277   6.049   8.561 -0.7331 -1.4889 -1.1750
 5399TIP3    H237757   2.175   6.112   8.653  0.6298 -1.0614  0.0864
 5400TIP3   OH237758   0.491   0.992   8.565  0.1412  0.0238 -0.0201
 5400TIP3    H137759   0.480   0.957   8.477  1.0222 -0.1947 -0.0520
 5400TIP3    H237760   0.505   0.915   8.620 -0.3037  0.1659  0.2955
 5401TIP3   OH237761   0.002   5.886   7.300  0.0809  1.1131 -0.4465
 5401TIP3    H137762  -0.056   5.870   7.226 -0.2719  0.7231 -0.0878
 5401TIP3    H237763   0.086   5.909   7.260 -0.7208  3.3563 -1.0130
 5402TIP3   OH237764   0.371   6.579   2.393 -0.1101 -0.1888  0.0142
 5402TIP3    H137765   0.441   6.558   2.455  0.9754 -1.5639 -1.5743
 5402TIP3    H237766   0.364   6.502   2.337 -1.9520  0.4820 -0.7680
 5403TIP3   OH237767   1.169   2.596   2.422 -0.1086 -0.4081 -0.3186
 5403TIP3    H137768   1.161   2.631   2.333  0.1388  0.8126  0.1169
 5403TIP3    H237769   1.254   2.552   2.423  0.1030 -0.0115 -0.5584
 5404TIP3   OH237770   2.550   4.528   8.784  0.2095 -0.4243 -0.2703
 5404TIP3    H137771   2.621   4.570   8.735 -1.5583  0.8976 -1.8041
 5404TIP3    H237772   2.562   4.434   8.767  2.3068 -0.3872  0.5879
 5405TIP3   OH237773   2.137   4.320   0.123  0.7897 -0.4328  0.9467
 5405TIP3    H137774   2.228   4.327   0.094  0.6182  0.0718  0.5215
 5405TIP3    H237775   2.086   4.333   0.043  0.2977  1.3329  1.5159
 5406TIP3   OH237776   1.062   0.360   0.295 -0.4108  0.1438 -0.0387
 5406TIP3    H137777   1.079   0.271   0.326 -0.6547 -0.1364 -0.6980
 5406TIP3    H237778   1.122   0.372   0.222 -0.8255  0.2874 -0.3601
 5407TIP3   OH237779   6.675   1.571   7.214 -0.5198  0.2517 -0.0467
 5407TIP3    H137780   6.609   1.640   7.203  0.0056  0.5460 -1.6324
 5407TIP3    H237781   6.630   1.491   7.185 -1.0438 -0.0584  1.5403
 5408TIP3   OH237782   2.119   0.002   0.818  0.1069 -0.6384 -0.0598
 5408TIP3    H137783   2.125   0.072   0.754  0.0675 -0.3889  0.2044
 5408TIP3    H237784   2.027   0.001   0.845  0.0535 -0.9670 -0.2565
 5409TIP3   OH237785   1.908   4.368   7.637 -0.0652  0.1588 -0.4227
 5409TIP3    H137786   1.937   4.344   7.725 -0.7945 -0.9521 -0.4675
 5409TIP3    H237787   1.817   4.397   7.649  0.4410  1.9608 -0.5369
 5410TIP3   OH237788   2.190   3.015   7.054  0.0742 -1.0833 -0.1275
 5410TIP3    H137789   2.117   3.068   7.020 -0.7748 -2.5651 -0.7065
 5410TIP3    H237790   2.234   3.072   7.116  1.1924  1.5070 -3.0485
 5411TIP3   OH237791   3.040   1.548   8.401  0.0113  0.1610 -0.4427
 5411TIP3    H137792   2.953   1.587   8.413 -1.1648 -2.4948  0.5571
 5411TIP3    H237793   3.052   1.545   8.306 -1.3675 -0.1466 -0.6252
 5412TIP3   OH237794   2.335   6.691   0.030  0.5885  0.1966 -0.1837
 5412TIP3    H137795   2.303   6.714  -0.058 -0.2450 -0.6662 -0.1189
 5412TIP3    H237796   2.281   6.744   0.089  0.1192 -0.3377 -0.1300
 5413TIP3   OH237797   2.532   0.685   0.082 -0.3111 -0.0317 -0.0143
 5413TIP3    H137798   2.487   0.606   0.111  0.6922 -0.9295 -0.8013
 5413TIP3    H237799   2.466   0.735   0.034 -0.5714 -1.2017 -0.9165
 5414TIP3   OH237800   4.772   6.327   1.565 -0.2826  0.3628 -0.1945
 5414TIP3    H137801   4.684   6.362   1.580  0.1179  0.0703  3.8494
 5414TIP3    H237802   4.825   6.405   1.545 -1.2174  0.6477 -1.7373
 5415TIP3   OH237803   5.297   5.969   7.187 -0.1718 -0.0694  0.1449
 5415TIP3    H137804   5.303   6.048   7.132 -2.1378 -0.7163 -1.1312
 5415TIP3    H237805   5.306   6.001   7.276  1.5693  1.2374 -0.4273
 5416TIP3   OH237806   0.645   1.399   0.301 -0.1919 -0.1934 -0.2982
 5416TIP3    H137807   0.692   1.383   0.383  0.0336 -0.7838 -0.5450
 5416TIP3    H237808   0.710   1.386   0.233 -0.4747 -0.0574 -0.5963
 5417TIP3   OH237809   4.460   2.044   8.624 -0.1984 -0.0408 -0.3426
 5417TIP3    H137810   4.523   2.088   8.568 -1.4429  0.7369 -1.1822
 5417TIP3    H237811   4.410   2.115   8.664  0.9530 -0.5369  2.1910
 5418TIP3   OH237812   6.625   0.137   1.669 -0.3786 -0.0852 -0.1869
 5418TIP3    H137813   6.605   0.125   1.762 -1.3439 -1.7977 -0.5635
 5418TIP3    H237814   6.562   0.202   1.639 -0.4090  0.0885  0.2402
 5419TIP3   OH237815   1.636   1.704   0.123 -0.3999 -0.3956 -0.5049
 5419TIP3    H137816   1.686   1.732   0.046  1.5681 -2.3628 -0.0527
 5419TIP3    H237817   1.677   1.751   0.196 -1.6413  0.7470 -0.5221
 5420TIP3   OH237818   0.786   4.315   0.528  0.4819 -0.1769 -0.4378
 5420TIP3    H137819   0.728   4.270   0.467 -1.3690 -1.9893  2.3999
 5420TIP3    H237820   0.731   4.379   0.572  1.0933 -0.5594  0.9485
 5421TIP3   OH237821   4.160   3.373   0.952 -0.1992 -0.1328 -0.3141
 5421TIP3    H137822   4.115   3.445   0.908  0.3278  0.5282  0.2135
 5421TIP3    H237823   4.252   3.386   0.929  0.0617  0.1160  0.8265
 5422TIP3   OH237824   0.415   1.664   0.620 -0.9942  0.3550 -0.1349
 5422TIP3    H137825   0.379   1.585   0.660  0.1990 -0.1333  0.0163
 5422TIP3    H237826   0.401   1.651   0.526  1.4394 -1.2648 -0.3572
 5423TIP3   OH237827   4.120   5.900   0.002  0.0695  0.5876  0.3116
 5423TIP3    H137828   4.194   5.914   0.061  0.4571 -1.5891  0.4341
 5423TIP3    H237829   4.078   5.985  -0.005  0.6627  1.1731  2.8580
 5424TIP3   OH237830   6.255   3.175   1.071 -0.1618 -0.3664  0.0605
 5424TIP3    H137831   6.234   3.130   1.152  0.2535  2.9626  2.1998
 5424TIP3    H237832   6.334   3.131   1.039  0.9728 -0.4095  2.6999
 5425TIP3   OH237833   5.701   5.690   0.304 -0.5198  0.5016  0.0701
 5425TIP3    H137834   5.708   5.644   0.220 -0.3938  0.6492 -0.0012
 5425TIP3    H237835   5.640   5.638   0.355  1.5810 -1.2527  0.9641
 5426TIP3   OH237836   6.527   1.786   0.483  0.5751  0.0443 -0.3438
 5426TIP3    H137837   6.555   1.736   0.559  0.2581  0.2096 -0.1160
 5426TIP3    H237838   6.564   1.739   0.408 -0.2151 -0.8740 -0.1768
 5427TIP3   OH237839   0.649   3.412   2.266 -0.1617 -0.2379 -0.3166
 5427TIP3    H137840   0.709   3.357   2.315  0.0384 -1.7600 -2.1173
 5427TIP3    H237841   0.645   3.371   2.179 -2.2159  0.9822 -0.8786
 5428TIP3   OH237842   1.301   2.730   8.101 -0.5344 -0.3202  0.5715
 5428TIP3    H137843   1.304   2.646   8.147  2.3502 -0.2944  0.5879
 5428TIP3    H237844   1.392   2.759   8.098 -1.3741  2.5325  0.0043
 5429TIP3   OH237845   0.058   1.291   8.279  0.2834  0.3402  0.5347
 5429TIP3    H137846   0.022   1.228   8.342 -3.0693 -0.2353 -1.6543
 5429TIP3    H237847   0.005   1.370   8.292 -0.5529  0.1840 -1.4541
 5430TIP3   OH237848   1.144   3.278   7.828 -0.3816  0.1236 -0.0334
 5430TIP3    H137849   1.158   3.192   7.787  0.0342  0.6147 -0.9621
 5430TIP3    H237850   1.193   3.274   7.910 -1.7427 -1.1097  0.7778
 5431TIP3   OH237851   0.489   4.546   0.277 -0.4372 -0.2408  0.3746
 5431TIP3    H137852   0.471   4.543   0.371  1.2731  0.5279  0.7704
 5431TIP3    H237853   0.455   4.463   0.244 -0.1262 -1.0132  1.8741
 5432TIP3   OH237854   3.050   2.463   7.167  0.2302 -0.1059 -0.3125
 5432TIP3    H137855   3.004   2.393   7.213  1.1288  0.5306  1.6728
 5432TIP3    H237856   3.138   2.464   7.206 -0.4227  3.5838  1.5059
 5433TIP3   OH237857   1.835   2.164   7.574  0.1046  0.3238 -0.6929
 5433TIP3    H137858   1.744   2.134   7.566  0.0428  0.2737  0.1532
 5433TIP3    H237859   1.881   2.089   7.612  0.1168  0.9936  0.6677
 5434TIP3   OH237860   4.132   6.608   7.430 -0.1871  0.0045 -0.5701
 5434TIP3    H137861   4.091   6.569   7.353 -1.0243 -1.4906  0.5934
 5434TIP3    H237862   4.072   6.678   7.456 -0.5097 -0.2655 -0.5812
 5435TIP3   OH237863   4.039   5.251   2.025 -0.3518 -0.3452 -0.4068
 5435TIP3    H137864   3.961   5.276   2.075 -0.8733 -0.9770 -0.8892
 5435TIP3    H237865   4.105   5.315   2.050 -0.8778 -0.1053  0.3971
 5436TIP3   OH237866   1.419   6.266   1.102  0.1620  0.0704  0.8193
 5436TIP3    H137867   1.387   6.280   1.191  2.1774 -2.5440  2.0884
 5436TIP3    H237868   1.390   6.178   1.080 -2.0441  1.3327 -2.0582
 5437TIP3   OH237869   1.474   2.497   6.849  0.1454  0.3781 -0.0995
 5437TIP3    H137870   1.509   2.423   6.800  1.5185 -0.3846  1.8997
 5437TIP3    H237871   1.379   2.489   6.840  0.3139 -0.4896 -1.4762
 5438TIP3   OH237872   6.658   4.283   7.824 -0.0655 -0.0841 -0.4625
 5438TIP3    H137873   6.753   4.269   7.823 -0.3274 -2.3087 -0.1992
 5438TIP3    H237874   6.638   4.314   7.736  0.6394 -2.2058 -1.4552
 5439TIP3   OH237875   2.725   5.508   0.380 -0.4751  0.0822 -0.7908
 5439TIP3    H137876   2.756   5.575   0.319  0.5227  0.1705 -0.2057
 5439TIP3    H237877   2.729   5.550   0.466 -0.3922 -0.5407 -0.4858
 5440TIP3   OH237878   1.938   5.043   7.245 -0.4548  0.3785 -0.3141
 5440TIP3    H137879   1.966   5.132   7.223 -0.8530  0.4400 -0.5749
 5440TIP3    H237880   1.962   4.991   7.169  0.7848  0.0426  0.2764
 5441TIP3   OH237881   1.059   0.193   1.204  0.2470  0.0104  0.0036
 5441TIP3    H137882   1.109   0.135   1.147  0.6109 -0.0564  0.3855
 5441TIP3    H237883   1.095   0.178   1.291 -1.3565 -1.0826  0.5359
 5442TIP3   OH237884   2.049   3.349   1.147  0.4214  0.5620  0.4065
 5442TIP3    H137885   1.986   3.294   1.099  0.4621  1.0117 -0.1759
 5442TIP3    H237886   2.134   3.322   1.111  0.8739 -1.8327  2.9168
 5443TIP3   OH237887   5.228   6.682   0.083 -0.3525 -0.4047  0.1862
 5443TIP3    H137888   5.156   6.690   0.146  0.2327  1.4343  0.6659
 5443TIP3    H237889   5.278   6.606   0.113  0.2459  0.7705  2.3410
 5444TIP3   OH237890   4.124   3.000   8.685 -0.1604  0.8602 -0.7020
 5444TIP3    H137891   4.177   2.965   8.756 -5.1228 -1.3074  2.5172
 5444TIP3    H237892   4.137   2.940   8.612  2.9131  1.4858 -0.7947
 5445TIP3   OH237893   0.926   2.037   2.382 -0.2058 -0.1345  0.2588
 5445TIP3    H137894   0.864   2.041   2.455  0.8999 -0.3711  1.2468
 5445TIP3    H237895   0.896   2.105   2.322 -0.5432  0.7858  1.4238
 5446TIP3   OH237896   2.568   5.951   8.195  0.3059  0.0344 -0.3264
 5446TIP3    H137897   2.552   6.035   8.237 -0.6315 -0.4848  0.3832
 5446TIP3    H237898   2.620   5.973   8.117 -0.7461  1.3715 -0.6928
 5447TIP3   OH237899   5.062   4.626   7.598 -0.4193  0.6396  0.6341
 5447TIP3    H137900   4.990   4.564   7.582  1.1789 -0.5543 -3.0620
 5447TIP3    H237901   5.128   4.575   7.645 -0.3696  0.5089  0.4221
 5448TIP3   OH237902   2.672   2.796   1.051  0.3136  0.3914  0.2281
 5448TIP3    H137903   2.603   2.768   0.990  0.3593 -2.3252  1.2673
 5448TIP3    H237904   2.684   2.889   1.032 -3.0945  0.8378 -0.5168
 5449TIP3   OH237905   0.440   5.061   1.309  0.2246 -0.5351 -0.0734
 5449TIP3    H137906   0.416   5.122   1.239 -0.2382  0.6920  1.1185
 5449TIP3    H237907   0.481   4.988   1.263 -1.6394 -0.5937 -1.7849
 5450TIP3   OH237908   1.039   6.303   1.090 -0.0390  0.4850  0.3222
 5450TIP3    H137909   0.971   6.264   1.034  1.9149 -2.2425 -0.3926
 5450TIP3    H237910   1.067   6.231   1.147  1.9898  1.6048  0.8357
 5451TIP3   OH237911   1.166   0.424   0.016  0.6291  0.1138  0.0903
 5451TIP3    H137912   1.232   0.358  -0.005  1.3447  0.9463 -0.3340
 5451TIP3    H237913   1.216   0.497   0.051  0.0580  1.1823 -1.2410
 5452TIP3   OH237914   5.518   4.360   1.699  0.6045  0.2542 -0.0085
 5452TIP3    H137915   5.423   4.368   1.692  0.6886  1.6995  0.2530
 5452TIP3    H237916   5.550   4.367   1.609  0.4869  0.0731 -0.0646
 5453TIP3   OH237917   3.724   0.373   1.291  0.4563 -0.6814  0.2478
 5453TIP3    H137918   3.629   0.369   1.296  0.5077 -0.5214  2.6020
 5453TIP3    H237919   3.754   0.322   1.366  2.2481 -0.8249 -0.5088
 5454TIP3   OH237920   3.966   4.163   0.991 -0.4932  0.6650 -0.3895
 5454TIP3    H137921   3.989   4.224   0.920 -0.0880  0.8503 -0.1031
 5454TIP3    H237922   3.875   4.186   1.013 -0.9532 -0.0305 -1.4871
 5455TIP3   OH237923   3.275   3.128   0.713 -0.3411 -0.2255  0.4063
 5455TIP3    H137924   3.370   3.122   0.716 -0.2033  1.7121  1.1825
 5455TIP3    H237925   3.252   3.096   0.626  0.8591 -2.1645  0.7416
 5456TIP3   OH237926   5.272   6.726   8.694  0.5662  0.2783  0.1829
 5456TIP3    H137927   5.214   6.721   8.770  0.8851  2.4010  0.6288
 5456TIP3    H237928   5.269   6.818   8.668  1.9042 -0.0497 -1.2464
 5457TIP3   OH237929   3.075   0.134   8.780  0.3731  0.5721 -0.4478
 5457TIP3    H137930   2.998   0.186   8.801 -0.7264 -0.8394 -0.8691
 5457TIP3    H237931   3.108   0.105   8.865 -0.5027 -0.1203 -0.3321
 5458TIP3   OH237932   1.188   5.464   7.380 -0.0425  0.0010  0.2465
 5458TIP3    H137933   1.165   5.440   7.470 -0.2394  1.3574  0.5873
 5458TIP3    H237934   1.210   5.557   7.385 -0.5358  0.2260 -1.2014
 5459TIP3   OH237935   0.212   0.428   2.156 -0.4901  0.0369 -0.0330
 5459TIP3    H137936   0.299   0.462   2.178 -1.0517  0.1713  2.2378
 5459TIP3    H237937   0.157   0.455   2.229 -2.1081 -1.3679 -0.6723
 5460TIP3   OH237938   6.255   3.256   8.099 -0.2011  0.3828 -0.2657
 5460TIP3    H137939   6.260   3.349   8.080 -2.5415  0.4881 -0.6578
 5460TIP3    H237940   6.322   3.216   8.042  1.6930  1.8722  0.8174
 5461TIP3   OH237941   6.381   6.001   7.959  0.0704  0.1315 -0.0432
 5461TIP3    H137942   6.456   6.056   7.935  0.2410 -0.0886 -0.0172
 5461TIP3    H237943   6.324   6.004   7.882  0.8723 -1.0138 -0.7092
 5462TIP3   OH237944   4.644   0.734   2.526  0.7034  0.2550  0.0844
 5462TIP3    H137945   4.563   0.686   2.539 -0.3944  1.8469 -0.5613
 5462TIP3    H237946   4.713   0.671   2.546 -0.6671 -1.2791  0.1592
 5463TIP3   OH237947   5.162   2.731   1.142  0.3432 -0.1905 -0.5584
 5463TIP3    H137948   5.152   2.672   1.067  0.6561  0.9292 -1.4974
 5463TIP3    H237949   5.079   2.724   1.189  0.9389 -2.6356  0.3262
 5464TIP3   OH237950   5.502   0.788   1.757 -0.0887  0.4854  0.6606
 5464TIP3    H137951   5.528   0.827   1.840 -0.1227 -1.0762  1.4262
 5464TIP3    H237952   5.413   0.822   1.742 -1.2288 -1.3185  2.6997
 5465TIP3   OH237953   6.361   4.676   6.670  0.2247 -0.0982  0.9569
 5465TIP3    H137954   6.284   4.624   6.645  1.4404 -0.3203 -3.0671
 5465TIP3    H237955   6.329   4.766   6.674 -0.3643 -0.2097 -0.5142
 5466TIP3   OH237956   2.569   4.090   0.082 -0.2752  0.4467 -0.7341
 5466TIP3    H137957   2.655   4.051   0.100 -0.5937 -0.9337 -2.0039
 5466TIP3    H237958   2.516   4.016   0.051 -2.6583  0.7499  2.2333
 5467TIP3   OH237959   2.312   6.009   0.375  0.0833 -0.4905 -0.5004
 5467TIP3    H137960   2.351   5.923   0.390  0.7638  0.0909  1.3582
 5467TIP3    H237961   2.221   6.000   0.402  0.5383 -0.2555  1.1831
 5468TIP3   OH237962   6.528   3.091   1.015  0.0497 -0.2347 -0.1734
 5468TIP3    H137963   6.552   3.181   1.037  1.6114 -0.6509 -0.0429
 5468TIP3    H237964   6.541   3.042   1.096 -1.2569 -0.5033 -0.1139
 5469TIP3   OH237965   5.955   2.066   1.424 -0.6899 -0.0106 -0.5622
 5469TIP3    H137966   5.899   2.081   1.348  0.9984 -0.9434 -2.0472
 5469TIP3    H237967   6.043   2.054   1.388  0.0543 -1.1623  1.4830
 5470TIP3   OH237968   3.272   2.513   7.305 -0.4356 -0.2211  0.0425
 5470TIP3    H137969   3.328   2.485   7.377  0.4293 -1.4900 -1.0641
 5470TIP3    H237970   3.296   2.604   7.290 -0.6174  0.0595  1.3269
 5471TIP3   OH237971   1.877   2.503   8.356  0.2050  0.3790  0.4167
 5471TIP3    H137972   1.812   2.500   8.427 -0.9549 -1.7051 -0.6373
 5471TIP3    H237973   1.902   2.595   8.350 -1.1533  0.9247  2.1841
 5472TIP3   OH237974   5.603   2.987   7.492  0.3651 -0.0316 -0.1993
 5472TIP3    H137975   5.578   2.992   7.584 -1.3387 -1.0043 -0.5793
 5472TIP3    H237976   5.632   3.076   7.470  1.1292  0.1230  1.3383
 5473TIP3   OH237977   6.628   5.106   0.806  0.2807 -0.7949  0.4948
 5473TIP3    H137978   6.720   5.079   0.803  0.2265 -1.2954  2.3020
 5473TIP3    H237979   6.586   5.040   0.861 -0.5446  1.0668  2.2147
 5474TIP3   OH237980   3.775   6.677   1.312  0.5018 -0.3063 -0.2038
 5474TIP3    H137981   3.707   6.702   1.250  1.0010  1.3235 -0.1242
 5474TIP3    H237982   3.848   6.736   1.293  1.3004 -0.9351  0.7914
 5475TIP3   OH237983   6.044   3.057   7.953 -0.5205  0.1841 -0.0038
 5475TIP3    H137984   6.110   3.125   7.954 -1.3680  1.0272  1.0551
 5475TIP3    H237985   6.057   3.011   7.870 -0.0321  1.7359 -0.8144
 5476TIP3   OH237986   0.130   5.526   1.732  0.3387  0.1246 -0.6570
 5476TIP3    H137987   0.060   5.518   1.668 -0.8554 -0.7032  0.6842
 5476TIP3    H237988   0.090   5.573   1.806  0.9286 -1.0197  0.4426
 5477TIP3   OH237989   1.642   5.755   8.199  0.9114  0.0606  0.0829
 5477TIP3    H137990   1.588   5.834   8.198  2.1496  0.9777 -2.2138
 5477TIP3    H237991   1.641   5.726   8.290  1.0626  3.2211  1.2129
 5478TIP3   OH237992   5.248   2.412   8.598 -0.2059 -0.3430 -0.1386
 5478TIP3    H137993   5.213   2.500   8.614  0.4082 -0.4572  2.2324
 5478TIP3    H237994   5.254   2.373   8.685  3.7770 -1.0931 -0.5773
 5479TIP3   OH237995   3.634   5.545   7.640 -0.0674 -0.2757 -0.6565
 5479TIP3    H137996   3.727   5.541   7.619  0.3029 -0.0253  0.8207
 5479TIP3    H237997   3.606   5.630   7.606  1.0393  1.1277  1.6651
 5480TIP3   OH237998   6.581   4.036   0.125  0.2127 -0.0247  0.2489
 5480TIP3    H137999   6.539   4.111   0.167 -0.5538  0.6321 -1.5773
 5480TIP3    H238000   6.544   3.960   0.170 -0.2915  0.6357  0.9934
 5481TIP3   OH238001   1.970   1.722   7.140  0.1878 -0.4737  0.0567
 5481TIP3    H138002   2.051   1.759   7.175  0.3865  0.6203 -1.4727
 5481TIP3    H238003   1.903   1.788   7.158  0.3704  0.3068 -1.8963
 5482TIP3   OH238004   3.911   0.040   8.600 -0.4005 -0.2383  0.2581
 5482TIP3    H138005   3.908  -0.025   8.529 -0.3999 -0.6244  0.6083
 5482TIP3    H238006   3.837   0.098   8.582  1.5002  1.7500 -2.0099
 5483TIP3   OH238007   1.050   6.262   0.716 -0.8822  0.1211  0.0889
 5483TIP3    H138008   1.011   6.191   0.665 -1.9952  1.4188 -0.9501
 5483TIP3    H238009   1.037   6.236   0.807 -1.3632 -0.9372 -0.2607
 5484TIP3   OH238010   2.135   2.126   0.878  0.2524  0.6615 -0.4244
 5484TIP3    H138011   2.074   2.178   0.825  0.0316 -0.0635 -0.9076
 5484TIP3    H238012   2.185   2.190   0.928 -0.4523  1.2998 -0.5244
 5485TIP3   OH238013   3.432   6.120   0.476  0.1035  0.7842  0.8098
 5485TIP3    H138014   3.443   6.179   0.550  2.6381 -0.6485  1.6899
 5485TIP3    H238015   3.520   6.087   0.458 -0.6027  0.1836 -2.1146
 5486TIP3   OH238016   3.321   3.074   7.649 -0.8325 -0.4995 -0.1803
 5486TIP3    H138017   3.269   3.070   7.569 -1.3536  2.3108 -0.0710
 5486TIP3    H238018   3.266   3.033   7.716 -2.4255  1.3119 -0.3286
 5487TIP3   OH238019   0.458   6.007   2.405  0.9331  0.5946  0.4512
 5487TIP3    H138020   0.441   5.988   2.313  0.3476  0.6074  0.5526
 5487TIP3    H238021   0.516   5.937   2.435  1.2920  0.7061  0.0200
 5488TIP3   OH238022   6.508   1.971   7.963  0.2117  0.0010  0.2287
 5488TIP3    H138023   6.600   1.947   7.959 -0.4969 -2.8798 -2.1116
 5488TIP3    H238024   6.466   1.899   8.009 -0.9769  1.0514  0.8681
 5489TIP3   OH238025   5.022   6.715   0.647 -0.4581 -0.2422  0.3292
 5489TIP3    H138026   5.085   6.756   0.707  1.9725 -1.4560 -1.2645
 5489TIP3    H238027   5.064   6.634   0.619 -2.6517 -0.9890 -1.0460
 5490TIP3   OH238028   3.685   3.924   8.702  0.6197 -0.2362 -0.4569
 5490TIP3    H138029   3.703   3.977   8.780  1.2707 -0.9797 -0.0828
 5490TIP3    H238030   3.743   3.959   8.635  0.6916 -0.1633 -0.3562
 5491TIP3   OH238031   0.673   0.733   1.283  0.0097 -1.0631  0.0285
 5491TIP3    H138032   0.578   0.740   1.272 -0.0169 -0.1613  0.7209
 5491TIP3    H238033   0.709   0.767   1.201 -0.2542  1.0427  0.7084
 5492TIP3   OH238034   6.613   5.728   7.063  0.2497  0.1197 -0.0503
 5492TIP3    H138035   6.623   5.661   6.995  2.1914 -0.0408  0.3220
 5492TIP3    H238036   6.625   5.811   7.017  3.0532 -0.0286  0.1959
 5493TIP3   OH238037   2.047   2.930   7.576  0.1102  0.4823  0.7386
 5493TIP3    H138038   1.990   3.007   7.565 -1.1424 -0.2088  2.0185
 5493TIP3    H238039   1.993   2.857   7.547  0.9465 -0.0317  0.4586
 5494TIP3   OH238040   4.169   5.168   8.649  0.4885  0.4073 -0.3689
 5494TIP3    H138041   4.205   5.146   8.735 -1.2708 -1.1906  0.0213
 5494TIP3    H238042   4.102   5.234   8.668  0.9340  0.9555 -0.6790
 5495TIP3   OH238043   2.884   4.965   1.373 -0.5948 -0.4841  0.1784
 5495TIP3    H138044   2.844   5.051   1.385  0.0746 -0.0931 -0.3308
 5495TIP3    H238045   2.928   4.946   1.455  0.0809  0.1026 -0.0450
 5496TIP3   OH238046   3.146   0.720   0.553 -0.5033 -0.2458 -0.2863
 5496TIP3    H138047   3.103   0.801   0.582 -1.4734 -0.9743  0.3871
 5496TIP3    H238048   3.150   0.727   0.458 -0.1392  0.7937 -0.2114
 5497TIP3   OH238049   3.694   4.236   1.085 -0.5327  0.5203 -0.7068
 5497TIP3    H138050   3.606   4.271   1.099 -0.3700  1.0123 -0.9060
 5497TIP3    H238051   3.752   4.312   1.095 -0.0008 -0.0745  0.9177
 5498TIP3   OH238052   0.282   3.241   0.316  0.2846 -0.0323  0.2272
 5498TIP3    H138053   0.232   3.209   0.391  0.3553  0.7694  0.6191
 5498TIP3    H238054   0.373   3.225   0.339  0.2332 -3.2009 -1.2470
 5499TIP3   OH238055   1.372   1.594   0.134  0.0143  0.0882 -0.3324
 5499TIP3    H138056   1.453   1.643   0.129  0.7794 -0.7764  1.9950
 5499TIP3    H238057   1.303   1.660   0.134  0.7349  0.8626 -1.7533
 5500TIP3   OH238058   1.915   3.138   2.159  0.0602 -0.6109 -0.1116
 5500TIP3    H138059   1.974   3.067   2.186  1.9918  1.0157  0.1619
 5500TIP3    H238060   1.923   3.204   2.228 -0.0138  0.7997 -1.3940
 5501TIP3   OH238061   1.365   1.920   0.763  0.2337 -0.0908  0.0695
 5501TIP3    H138062   1.366   2.011   0.734 -0.1905 -0.1594 -0.1698
 5501TIP3    H238063   1.275   1.905   0.793 -0.3019 -1.0407 -1.8865
 5502TIP3   OH238064   5.381   2.776   2.544  0.3029 -0.0396  0.0497
 5502TIP3    H138065   5.389   2.862   2.585 -0.6865 -1.2565  3.1105
 5502TIP3    H238066   5.462   2.731   2.567 -0.9720 -1.3297  2.4523
 5503TIP3   OH238067   4.700   6.129   7.616 -0.3364  0.5240 -0.4854
 5503TIP3    H138068   4.784   6.159   7.583  0.6843 -2.1788 -0.5800
 5503TIP3    H238069   4.643   6.206   7.610  1.9017  2.2438 -1.0608
 5504TIP3   OH238070   6.430   0.157   0.435 -0.7339  0.8978 -0.1486
 5504TIP3    H138071   6.409   0.070   0.402  2.3356  0.4328 -1.1911
 5504TIP3    H238072   6.392   0.217   0.371 -1.7076  0.3174 -0.1412
 5505TIP3   OH238073   0.407   2.396   7.646 -0.6363  0.0352 -0.1124
 5505TIP3    H138074   0.388   2.452   7.571 -1.0656 -1.1245 -0.8941
 5505TIP3    H238075   0.490   2.354   7.624  0.6821  1.7288  1.3109
 5506TIP3   OH238076   6.683   5.473   0.673  0.4071 -0.4714 -0.4631
 5506TIP3    H138077   6.685   5.436   0.762 -0.7909  1.2760  0.3482
 5506TIP3    H238078   6.718   5.561   0.682 -0.7279  0.1250 -1.4852
 5507TIP3   OH238079   6.299   2.075   0.345  0.1728  0.1210 -0.1138
 5507TIP3    H138080   6.392   2.090   0.327 -0.0773  2.2045  0.0954
 5507TIP3    H238081   6.293   2.081   0.440  0.2011 -2.8553  0.1959
 5508TIP3   OH238082   1.635   4.634   2.324  0.5489  0.5526  0.2008
 5508TIP3    H138083   1.592   4.551   2.302 -2.5691  1.6924  1.3942
 5508TIP3    H238084   1.622   4.689   2.246  2.1114  0.1613 -0.3714
 5509TIP3   OH238085   4.953   2.254   0.507 -0.0201  0.3137 -0.0785
 5509TIP3    H138086   4.979   2.184   0.567 -0.5311  0.1450 -0.0441
 5509TIP3    H238087   4.864   2.230   0.481  0.4226  0.0466 -1.3905
 5510TIP3   OH238088   3.323   2.412   1.768  0.4767  1.0293 -0.4681
 5510TIP3    H138089   3.239   2.416   1.813  1.5578  1.1380  1.6916
 5510TIP3    H238090   3.301   2.418   1.675 -1.9174  0.3992 -0.0108
 5511TIP3   OH238091   6.130   4.383   8.262  0.3435  0.0121 -0.0278
 5511TIP3    H138092   6.197   4.446   8.235  0.2378 -0.4239 -1.4223
 5511TIP3    H238093   6.100   4.344   8.180  0.4475 -1.8990  0.7883
 5512TIP3   OH238094   1.121   0.462   0.765 -0.4791  0.0722  0.0562
 5512TIP3    H138095   1.070   0.406   0.707  1.0160  0.2393 -1.4979
 5512TIP3    H238096   1.205   0.416   0.775  0.1749  1.2417  0.0793
 5513TIP3   OH238097   5.394   4.115   7.722  0.1967  0.0197  0.7103
 5513TIP3    H138098   5.487   4.095   7.718  0.0994 -0.3018 -1.2572
 5513TIP3    H238099   5.379   4.173   7.647 -1.1248  0.2985  1.1690
 5514TIP3   OH238100   1.998   3.823   2.523  0.3064 -0.3336 -0.7024
 5514TIP3    H138101   2.018   3.734   2.497  0.0268 -0.5228 -0.2887
 5514TIP3    H238102   2.053   3.878   2.467 -0.0104 -0.7319 -1.4175
 5515TIP3   OH238103   5.338   3.573   0.583  0.3266  0.8566 -0.7314
 5515TIP3    H138104   5.354   3.602   0.673 -0.6570  0.8368 -0.5356
 5515TIP3    H238105   5.408   3.613   0.532  1.8275 -0.3791  0.2523
 5516TIP3   OH238106   5.192   0.719   7.281 -0.2762  0.4670 -0.3124
 5516TIP3    H138107   5.146   0.740   7.362 -0.2450  0.7506 -0.3687
 5516TIP3    H238108   5.124   0.681   7.224  0.4554 -4.0970  1.3981
 5517TIP3   OH238109   4.636   4.414   8.426 -0.0216  0.3790  0.1029
 5517TIP3    H138110   4.609   4.463   8.348  0.6757  0.9713  0.2194
 5517TIP3    H238111   4.556   4.407   8.479 -0.3839  0.4158 -0.4281
 5518TIP3   OH238112   2.202   0.757   8.625  0.2106 -0.0746 -0.4768
 5518TIP3    H138113   2.109   0.774   8.612 -0.0255 -0.4034  0.6719
 5518TIP3    H238114   2.216   0.767   8.719  0.7239 -2.7544 -0.1832
 5519TIP3   OH238115   1.902   0.223   1.819 -0.5877  0.1086  0.5439
 5519TIP3    H138116   1.847   0.181   1.753 -1.3682  1.4578  0.2934
 5519TIP3    H238117   1.840   0.255   1.885 -0.0550  1.0052  0.6341
 5520TIP3   OH238118   2.259   2.685   8.791  0.2725 -0.1894  0.2400
 5520TIP3    H138119   2.291   2.775   8.782  0.4667 -0.0999  1.6930
 5520TIP3    H238120   2.194   2.677   8.722  1.7262  0.3783 -1.2907
 5521TIP3   OH238121   5.804   4.444   8.504 -0.0177  0.0431  0.4179
 5521TIP3    H138122   5.744   4.370   8.511  0.9016 -0.6527  1.0989
 5521TIP3    H238123   5.890   4.408   8.524  0.5167  1.2064  0.3207
 5522TIP3   OH238124   3.130   1.861   8.086  0.2830 -0.2683 -0.1281
 5522TIP3    H138125   3.167   1.877   8.173  0.1169 -1.0595  0.1043
 5522TIP3    H238126   3.051   1.914   8.083  1.3329  1.3202 -0.5732
 5523TIP3   OH238127   0.196   2.109   0.206 -0.2420  0.1471 -0.1261
 5523TIP3    H138128   0.256   2.134   0.277  2.3711 -0.0215 -2.0968
 5523TIP3    H238129   0.200   2.183   0.146  2.2798 -1.9427 -2.8067
 5524TIP3   OH238130   5.933   2.145   8.399  0.8140  0.6329  0.1753
 5524TIP3    H138131   5.921   2.063   8.448  2.2179  0.4896  0.3207
 5524TIP3    H238132   5.929   2.119   8.307 -0.4403  0.6873  0.1947
 5525TIP3   OH238133   2.958   2.121   6.478 -0.2077 -0.0650 -0.0121
 5525TIP3    H138134   2.886   2.058   6.484 -1.1699  0.8910 -1.1696
 5525TIP3    H238135   3.023   2.078   6.421 -0.5401 -0.2977 -0.2169
 5526TIP3   OH238136   5.537   2.582   1.033  0.1740  0.1714  0.4056
 5526TIP3    H138137   5.467   2.634   1.072 -0.7987 -0.6714 -0.1564
 5526TIP3    H238138   5.535   2.499   1.081  0.6633  0.0768  0.2676
 5527TIP3   OH238139   0.036   0.937   8.576  0.3455 -0.2278  0.1782
 5527TIP3    H138140   0.113   0.949   8.631  1.7637 -0.3959 -1.6617
 5527TIP3    H238141   0.037   0.845   8.552 -1.3819 -0.6118  1.4025
 5528TIP3   OH238142   0.378   5.055   0.818 -0.3978 -0.0476 -0.1193
 5528TIP3    H138143   0.410   5.016   0.899 -0.1821 -0.9869 -0.6414
 5528TIP3    H238144   0.446   5.038   0.754 -0.5591  0.7023 -0.5078
 5529TIP3   OH238145   3.078   4.921   1.176 -0.0406  0.4765 -0.4184
 5529TIP3    H138146   3.033   4.863   1.115 -1.5427  2.1156 -0.9592
 5529TIP3    H238147   3.016   4.933   1.248  1.2299 -0.4755  0.9094
 5530TIP3   OH238148   1.528   2.279   7.330 -0.4528  0.0896 -0.1972
 5530TIP3    H138149   1.591   2.216   7.293  0.2737  0.9213 -0.4167
 5530TIP3    H238150   1.521   2.347   7.263  0.1424  1.1370  0.7796
 5531TIP3   OH238151   4.169   0.296   0.335  0.0335  0.9895  0.0529
 5531TIP3    H138152   4.114   0.311   0.258  1.3133  2.6792 -0.6020
 5531TIP3    H238153   4.155   0.374   0.389  0.4373  0.5928  0.7425
 5532TIP3   OH238154   2.506   5.527   1.622  0.4801  0.3458 -0.6960
 5532TIP3    H138155   2.449   5.603   1.629 -1.0302 -0.9000  1.8177
 5532TIP3    H238156   2.480   5.485   1.540 -0.9269  0.7834 -0.4927
 5533TIP3   OH238157   6.566   1.895   0.828 -0.1126  0.1310 -0.2408
 5533TIP3    H138158   6.661   1.895   0.817 -0.0496  0.4975  0.2591
 5533TIP3    H238159   6.544   1.986   0.849 -0.7730  0.4039 -1.9618
 5534TIP3   OH238160   3.194   4.557   1.038 -0.0280 -0.6993  0.3270
 5534TIP3    H138161   3.255   4.626   1.065  0.2007 -1.3756  1.6395
 5534TIP3    H238162   3.121   4.564   1.099 -0.8582 -0.4764 -0.6722
 5535TIP3   OH238163   4.913   4.933   0.026  0.4925 -0.3108  0.2469
 5535TIP3    H138164   4.834   4.971  -0.012  0.7363  0.6172  0.6444
 5535TIP3    H238165   4.896   4.839   0.027 -0.0082 -0.2436 -1.0149
 5536TIP3   OH238166   0.376   4.492   6.812  0.6268 -0.3841 -0.1183
 5536TIP3    H138167   0.323   4.506   6.734  0.5238 -0.3371 -0.0405
 5536TIP3    H238168   0.394   4.580   6.846  0.9992 -0.3834 -0.3053
 5537TIP3   OH238169   5.893   5.651   7.956 -0.6633  0.5256  0.0565
 5537TIP3    H138170   5.981   5.687   7.965  0.3298 -1.5556 -0.6664
 5537TIP3    H238171   5.898   5.563   7.993 -1.6466 -0.7128 -2.4387
 5538TIP3   OH238172   2.838   3.018   7.535  0.0175 -0.0943  0.3775
 5538TIP3    H138173   2.886   3.075   7.594 -1.6381 -0.7391  2.4749
 5538TIP3    H238174   2.896   2.944   7.520  0.4199  0.0227  1.3162
 5539TIP3   OH238175   5.475   6.316   8.699 -0.2886 -0.4759  0.5370
 5539TIP3    H138176   5.549   6.263   8.669  0.2034 -0.1223  1.1001
 5539TIP3    H238177   5.514   6.382   8.755 -0.8834  0.5381 -0.2060
 5540TIP3   OH238178   4.377   1.814   7.253 -0.0901  0.3778  0.0173
 5540TIP3    H138179   4.432   1.861   7.316 -0.0586 -1.7681  1.6934
 5540TIP3    H238180   4.437   1.786   7.184  0.8339 -1.1779  1.3817
 5541TIP3   OH238181   6.560   5.908   1.350 -0.3493 -0.6000  0.3357
 5541TIP3    H138182   6.640   5.960   1.344 -0.6297 -0.1956  0.0099
 5541TIP3    H238183   6.554   5.885   1.443  0.1358 -0.6220  0.3662
 5542TIP3   OH238184   1.051   2.617   2.156 -0.4742 -0.3128  0.2260
 5542TIP3    H138185   1.106   2.618   2.078 -0.2176  0.6212  0.4069
 5542TIP3    H238186   1.050   2.525   2.184 -1.1713 -0.8042 -1.2878
 5543TIP3   OH238187   5.714   1.829   8.755 -0.0774 -0.2966  0.5848
 5543TIP3    H138188   5.628   1.860   8.785  0.2821 -0.9291  2.3622
 5543TIP3    H238189   5.776   1.863   8.820  0.7709 -1.5145  0.4407
 5544TIP3   OH238190   6.086   0.619   1.553 -0.2594  0.2457  0.1562
 5544TIP3    H138191   6.012   0.586   1.503 -0.1146 -0.8569  0.6525
 5544TIP3    H238192   6.062   0.710   1.574 -0.9096  0.2957 -0.7310
 5545TIP3   OH238193   2.293   6.167   1.130 -0.1246  0.2895 -0.1246
 5545TIP3    H138194   2.215   6.194   1.178 -0.8110 -1.5818 -0.1109
 5545TIP3    H238195   2.264   6.093   1.076  1.6276 -0.4610 -0.1077
 5546TIP3   OH238196   4.064   5.081   7.324 -0.3037  0.0615  0.2803
 5546TIP3    H138197   4.008   5.158   7.327 -0.3214  0.0172  1.2543
 5546TIP3    H238198   4.152   5.117   7.313  0.0485  0.4342  3.4475
 5547TIP3   OH238199   0.565   2.904   0.025 -0.2937  0.1910  0.0336
 5547TIP3    H138200   0.561   2.903   0.121 -1.8677  1.6280  0.0200
 5547TIP3    H238201   0.526   2.988   0.000 -0.7877 -0.5642 -1.9082
 5548TIP3   OH238202   2.333   4.895   1.786  1.2491  0.1663 -0.0034
 5548TIP3    H138203   2.412   4.946   1.806  0.9855  0.2834  0.7852
 5548TIP3    H238204   2.359   4.839   1.713  1.8819  0.6344 -0.1506
 5549TIP3   OH238205   2.392   5.697   8.804  0.6798  0.7641 -0.2366
 5549TIP3    H138206   2.469   5.670   8.755 -0.3153  0.5828 -1.7809
 5549TIP3    H238207   2.328   5.626   8.790  0.6568  0.2578  2.1225
 5550TIP3   OH238208   1.953   6.272   1.028  0.1033  0.3145  0.3567
 5550TIP3    H138209   2.005   6.231   0.958  0.0019 -1.9894  1.5520
 5550TIP3    H238210   1.864   6.274   0.994  0.3527  0.9554 -0.2903
 5551TIP3   OH238211   5.765   1.791   7.730  0.1056  0.0422  0.3786
 5551TIP3    H138212   5.685   1.826   7.768  0.2187 -0.2289  0.8796
 5551TIP3    H238213   5.761   1.816   7.638 -0.3022  0.4777  0.5112
 5552TIP3   OH238214   2.171   6.055   7.910  0.2042  0.1776 -0.2768
 5552TIP3    H138215   2.174   5.981   7.970 -1.1351  0.0011 -0.3978
 5552TIP3    H238216   2.260   6.090   7.910  0.5224 -0.5932  0.8333
 5553TIP3   OH238217   5.906   5.681   0.496  0.4113 -0.4531  0.5469
 5553TIP3    H138218   5.846   5.662   0.424  0.8222 -0.4162  0.1939
 5553TIP3    H238219   5.985   5.630   0.477  0.7921  0.1015  0.5916
 5554TIP3   OH238220   0.660   1.948   7.706  0.1018 -0.2277 -0.0222
 5554TIP3    H138221   0.697   1.950   7.618  0.5291 -0.2487  0.1546
 5554TIP3    H238222   0.709   1.879   7.751 -0.7075 -0.8250 -0.0248
 5555TIP3   OH238223   3.194   4.499   0.362 -0.4881 -0.7328  0.5280
 5555TIP3    H138224   3.180   4.574   0.305 -1.6138 -0.4523  1.1494
 5555TIP3    H238225   3.272   4.521   0.412  0.7439 -1.1365 -1.1029
 5556TIP3   OH238226   0.169   2.725   0.605  0.0055  0.0592 -0.0275
 5556TIP3    H138227   0.141   2.812   0.576  0.7734 -0.2828 -2.0222
 5556TIP3    H238228   0.251   2.740   0.651  0.9024  0.3227 -1.6229
 5557TIP3   OH238229   6.015   6.657   2.518  0.0471  0.2408  0.3733
 5557TIP3    H138230   5.922   6.658   2.542  0.3376 -0.2421  1.6146
 5557TIP3    H238231   6.049   6.576   2.557  0.9910  0.4265 -0.0454
 5558TIP3   OH238232   2.712   1.102   8.072  0.5070 -0.2251  0.3585
 5558TIP3    H138233   2.635   1.102   8.015  1.9447 -0.1084 -1.6830
 5558TIP3    H238234   2.749   1.014   8.061  2.0372  0.5170 -0.7021
 5559TIP3   OH238235   1.658   1.483   1.120 -0.0185  0.0867 -0.6582
 5559TIP3    H138236   1.669   1.425   1.044  0.1959  2.8727 -2.9043
 5559TIP3    H238237   1.741   1.530   1.128 -0.5452  0.8946  0.3948
 5560TIP3   OH238238   5.954   1.968   8.798 -0.3072 -0.1938 -0.4113
 5560TIP3    H138239   6.007   2.008   8.867 -1.3058  1.2122 -0.4254
 5560TIP3    H238240   6.018   1.924   8.741  0.5353 -1.4818  1.4175
 5561TIP3   OH238241   3.353   3.075   2.054 -0.4922 -0.1487  0.2117
 5561TIP3    H138242   3.295   3.150   2.069 -1.4050 -0.4977 -1.3300
 5561TIP3    H238243   3.423   3.109   1.999  0.0379 -0.0538  0.9282
 5562TIP3   OH238244   3.748   0.552   0.400  0.2768 -0.0029  0.3805
 5562TIP3    H138245   3.775   0.616   0.466 -1.4359  0.7874  0.3652
 5562TIP3    H238246   3.730   0.604   0.322 -0.6091 -0.5631  0.2044
 5563TIP3   OH238247   2.532   1.861   1.521 -0.4860  0.0691  0.1680
 5563TIP3    H138248   2.497   1.772   1.516 -2.9379  1.0196 -1.2559
 5563TIP3    H238249   2.500   1.894   1.605 -2.6571  0.7330 -0.8656
 5564TIP3   OH238250   3.798   3.889   0.659 -0.6957  0.1010  0.1465
 5564TIP3    H138251   3.764   3.964   0.609 -0.1179 -0.4822 -1.1932
 5564TIP3    H238252   3.723   3.855   0.707 -1.8849 -0.6819 -2.1122
 5565TIP3   OH238253   3.119   1.222   1.028 -0.0293 -0.5747  0.5608
 5565TIP3    H138254   3.120   1.289   0.960  1.8533 -2.1284 -1.0680
 5565TIP3    H238255   3.075   1.264   1.102 -2.7383  0.9999 -1.7238
 5566TIP3   OH238256   0.023   0.612   7.604 -0.3662  0.1170  0.2258
 5566TIP3    H138257   0.045   0.656   7.686 -2.8369  0.5875  0.7199
 5566TIP3    H238258  -0.036   0.541   7.631  0.5798 -1.1529 -0.9402
 5567TIP3   OH238259   5.632   5.106   8.602 -0.2252  0.2145  0.5651
 5567TIP3    H138260   5.556   5.105   8.544 -0.5513  0.1203  0.9882
 5567TIP3    H238261   5.703   5.141   8.548 -0.8113  1.2829  0.4673
 5568TIP3   OH238262   2.293   0.570   7.086  0.0380  0.0411 -0.2259
 5568TIP3    H138263   2.295   0.536   7.175 -0.6705 -0.0758 -0.2544
 5568TIP3    H238264   2.309   0.493   7.031 -0.3051 -0.0221 -0.2356
 5569TIP3   OH238265   1.335   5.992   1.096 -0.9561 -0.3931 -0.5089
 5569TIP3    H138266   1.349   5.910   1.049  0.0285 -1.0427  0.8393
 5569TIP3    H238267   1.241   6.008   1.088 -1.1152 -1.5047 -1.0434
 5570TIP3   OH238268   5.321   6.601   7.630  0.1924  0.0093  0.1568
 5570TIP3    H138269   5.280   6.658   7.695 -0.8994  0.9617 -1.3029
 5570TIP3    H238270   5.341   6.658   7.556 -0.6054 -1.4103 -1.2292
 5571TIP3   OH238271   4.099   3.068   7.313 -0.5476  0.6538 -0.2419
 5571TIP3    H138272   4.143   3.078   7.398 -0.5452  0.7256 -0.2517
 5571TIP3    H238273   4.051   2.986   7.321  0.0549  0.2716 -0.4344
 5572TIP3   OH238274   0.799   4.814   8.374 -0.6163 -0.2789 -0.5621
 5572TIP3    H138275   0.880   4.834   8.422 -0.9956  2.6427 -0.9842
 5572TIP3    H238276   0.809   4.723   8.348  2.0049 -0.3574  0.4292
 5573TIP3   OH238277   0.600   1.884   0.091 -0.4691  0.4022 -0.1994
 5573TIP3    H138278   0.504   1.878   0.096 -0.6095  1.6856 -1.0555
 5573TIP3    H238279   0.619   1.977   0.099  0.7915  0.0845  0.8597
 5574TIP3   OH238280   5.099   6.386   0.414  1.0316  0.0224  0.1139
 5574TIP3    H138281   5.173   6.403   0.472  0.9629 -1.0145  0.5258
 5574TIP3    H238282   5.038   6.334   0.466  0.2271  0.4487 -0.3746
 5575TIP3   OH238283   1.659   2.705   1.246 -0.4346  0.0131 -0.1032
 5575TIP3    H138284   1.569   2.680   1.226 -0.8541  1.6267 -0.3953
 5575TIP3    H238285   1.659   2.719   1.341 -0.1170 -1.3243  0.1104
 5576TIP3   OH238286   5.854   2.962   8.123 -0.5961 -0.0989  0.4865
 5576TIP3    H138287   5.794   2.919   8.063  0.9574 -0.5107 -0.8337
 5576TIP3    H238288   5.918   3.005   8.067  0.4473  0.1861  1.8365
 5577TIP3   OH238289   6.046   1.789   0.836  0.2568  1.0053  0.0205
 5577TIP3    H138290   6.113   1.790   0.768  0.9160  0.7578  0.6452
 5577TIP3    H238291   5.982   1.725   0.806  0.0938  1.5305 -0.7729
 5578TIP3   OH238292   2.349   6.598   8.303 -0.1298  0.2488  0.5157
 5578TIP3    H138293   2.307   6.537   8.243  0.4032 -0.7743  1.1553
 5578TIP3    H238294   2.330   6.685   8.267  1.0982 -0.3467 -1.7606
 5579TIP3   OH238295   0.354   3.480   0.995 -0.7161 -0.6989 -0.2871
 5579TIP3    H138296   0.331   3.572   1.007  1.0522 -0.1200 -0.9760
 5579TIP3    H238297   0.289   3.432   1.046 -1.7997  0.9118 -0.0802
 5580TIP3   OH238298   3.588   1.994   1.594 -0.2125 -0.7253  0.3270
 5580TIP3    H138299   3.648   2.068   1.583  1.3390 -1.6857  1.7411
 5580TIP3    H238300   3.522   2.007   1.526  1.6285  0.3526 -1.4034
 5581TIP3   OH238301   1.697   5.608   1.444 -0.5082 -0.1572  0.2362
 5581TIP3    H138302   1.749   5.597   1.524  0.7714 -0.2168 -0.5687
 5581TIP3    H238303   1.739   5.681   1.399 -1.8636  0.5591  0.0909
 5582TIP3   OH238304   4.240   2.239   6.147 -0.1823  0.1096 -0.4807
 5582TIP3    H138305   4.159   2.283   6.120 -0.1213  1.0833  0.8371
 5582TIP3    H238306   4.302   2.310   6.161 -0.0652 -0.3589  1.6304
 5583TIP3   OH238307   5.624   1.089   1.680 -0.2708  0.5918 -0.1546
 5583TIP3    H138308   5.569   1.086   1.602 -0.5481 -0.7804  0.0763
 5583TIP3    H238309   5.605   1.175   1.718 -2.2760  0.1763 -0.0852
 5584TIP3   OH238310   5.324   0.172   0.156 -0.1982 -0.4895 -0.4141
 5584TIP3    H138311   5.269   0.235   0.109  0.0528 -1.3167 -1.8480
 5584TIP3    H238312   5.302   0.087   0.118 -0.0259 -1.2147  1.0209
 5585TIP3   OH238313   1.975   4.048   7.599  0.6834  0.8151 -0.1750
 5585TIP3    H138314   2.002   4.011   7.683 -0.2634  0.1061 -0.1803
 5585TIP3    H238315   1.888   4.012   7.583 -0.4177  3.2185 -0.0602
 5586TIP3   OH238316   5.922   0.617   7.951 -0.1506 -0.4225  0.2415
 5586TIP3    H138317   5.893   0.541   7.901 -2.1300  0.1318  0.4525
 5586TIP3    H238318   5.841   0.661   7.977  0.8684  0.4152  2.2314
 5587TIP3   OH238319   3.917   1.234   7.003 -0.0477  0.0831 -0.1411
 5587TIP3    H138320   3.963   1.214   6.922 -1.3188 -0.5290 -0.7387
 5587TIP3    H238321   3.850   1.297   6.978 -1.2812 -1.0588  0.1365
 5588TIP3   OH238322   3.983   0.921   7.206  0.2460  0.6032 -0.1806
 5588TIP3    H138323   4.059   0.958   7.161 -1.1181  0.3631 -2.9321
 5588TIP3    H238324   3.986   0.828   7.184  0.4537  0.1271  1.7479
 5589TIP3   OH238325   0.864   5.850   1.996 -0.1190  0.3530  0.5030
 5589TIP3    H138326   0.889   5.774   1.943 -0.6052  0.5301  0.0082
 5589TIP3    H238327   0.811   5.814   2.067 -1.4818  0.3516 -0.4811
 5590TIP3   OH238328   6.486   4.008   1.977 -0.4899 -0.4843  0.4074
 5590TIP3    H138329   6.547   3.938   1.999  0.8596  0.2491 -0.8761
 5590TIP3    H238330   6.449   3.983   1.892  0.3066  0.5292 -0.2578
 5591TIP3   OH238331   4.387   4.679   2.255 -0.6015 -0.3470  0.1708
 5591TIP3    H138332   4.466   4.636   2.290 -0.4509 -0.3192 -0.1346
 5591TIP3    H238333   4.386   4.655   2.163 -1.1551 -0.6542  0.2529
 5592TIP3   OH238334   2.626   2.140   7.761 -0.2482  0.1343 -0.0275
 5592TIP3    H138335   2.692   2.190   7.713 -0.1864  0.7294  0.6622
 5592TIP3    H238336   2.565   2.207   7.794  0.3385 -0.1328  1.6941
 5593TIP3   OH238337   3.779   4.404   7.270  0.3070  0.2533  0.1910
 5593TIP3    H138338   3.791   4.427   7.363  2.3813  1.3209 -0.2814
 5593TIP3    H238339   3.853   4.348   7.250 -1.3911 -1.9785 -0.2973
 5594TIP3   OH238340   0.952   3.075   1.639 -0.1598  0.3491 -0.3787
 5594TIP3    H138341   0.984   3.081   1.549  0.7111 -0.1612 -0.1220
 5594TIP3    H238342   1.001   3.001   1.676  0.0108  0.9919  0.7110
 5595TIP3   OH238343   1.880   3.973   0.419 -0.1960  0.1708 -0.0368
 5595TIP3    H138344   1.886   3.895   0.473  0.1571  1.7206  2.3058
 5595TIP3    H238345   1.888   3.941   0.329  1.3059 -2.3288  0.8913
 5596TIP3   OH238346   1.352   2.648   2.225 -0.2130  0.0003 -0.1484
 5596TIP3    H138347   1.361   2.565   2.272  0.4178  0.5910  0.8191
 5596TIP3    H238348   1.440   2.687   2.228 -0.4563  0.6130 -0.7585
 5597TIP3   OH238349   6.347   6.431   7.249  0.2137 -0.4538  0.5790
 5597TIP3    H138350   6.414   6.369   7.222  1.6831  1.4373 -0.3303
 5597TIP3    H238351   6.266   6.396   7.213  0.4746 -3.1999  2.3331
 5598TIP3   OH238352   0.596   2.041   6.484 -0.3567  0.0747  0.3585
 5598TIP3    H138353   0.516   1.993   6.508  1.5971 -2.1817  2.9710
 5598TIP3    H238354   0.667   1.986   6.517  2.1789  3.9589  1.9936
 5599TIP3   OH238355   4.869   4.094   0.017  0.2098 -0.0627 -0.3445
 5599TIP3    H138356   4.775   4.079   0.015  0.4161 -1.5034 -0.9905
 5599TIP3    H238357   4.907   4.008   0.038  1.3981  0.3125 -0.8351
 5600TIP3   OH238358   4.126   5.610   0.503 -0.3087  0.1023 -0.0715
 5600TIP3    H138359   4.133   5.646   0.414  0.7242 -0.0056 -0.0466
 5600TIP3    H238360   4.073   5.531   0.492  1.0123 -0.7222 -0.8702
 5601TIP3   OH238361   1.182   0.171   7.162  0.4871 -0.1613  0.1434
 5601TIP3    H138362   1.121   0.098   7.157  0.7722 -0.5051  1.3194
 5601TIP3    H238363   1.191   0.202   7.072 -0.6299 -0.7528 -0.1836
 5602TIP3   OH238364   3.798   6.059   0.005  0.0492  0.1284  0.1366
 5602TIP3    H138365   3.866   6.125  -0.006  0.1414 -0.0039 -0.1047
 5602TIP3    H238366   3.738   6.075  -0.068  1.4186 -1.6701 -1.5029
 5603TIP3   OH238367   3.994   3.239   1.764  0.0931  0.5637 -0.6263
 5603TIP3    H138368   3.949   3.183   1.700  0.4989 -0.3013 -0.1664
 5603TIP3    H238369   3.986   3.328   1.728 -0.5983  0.2191 -1.3422
 5604TIP3   OH238370   5.732   2.919   7.081  0.0270  0.3248 -0.3772
 5604TIP3    H138371   5.670   2.846   7.079 -0.3975  0.5591  1.6491
 5604TIP3    H238372   5.748   2.940   6.989 -2.7286  0.0871 -0.9894
 5605TIP3   OH238373   6.399   5.167   7.449 -0.7656  0.1307 -0.7091
 5605TIP3    H138374   6.343   5.228   7.496 -2.4857 -0.5335 -1.8030
 5605TIP3    H238375   6.487   5.202   7.459 -1.1445  0.4831  2.2011
 5606TIP3   OH238376   2.799   3.928   0.120 -0.0387  0.1018 -0.3089
 5606TIP3    H138377   2.890   3.955   0.129 -0.2267  0.3217  1.1869
 5606TIP3    H238378   2.804   3.843   0.076  0.8003  0.6438 -1.3141
 5607TIP3   OH238379   2.265   2.192   1.656  0.1401  0.4372 -0.9355
 5607TIP3    H138380   2.185   2.146   1.681 -0.6627  1.5514 -1.3367
 5607TIP3    H238381   2.234   2.265   1.602  1.4832  0.5605 -1.5820
 5608TIP3   OH238382   5.401   0.201   8.679 -0.3260  0.9059 -0.1369
 5608TIP3    H138383   5.412   0.251   8.760  0.6670  1.5948 -0.6697
 5608TIP3    H238384   5.459   0.125   8.689  0.0907  1.1885 -0.3336
 5609TIP3   OH238385   1.605   2.778   2.293  0.1685  0.6263 -0.0050
 5609TIP3    H138386   1.630   2.864   2.260  1.9473  0.2021  0.1634
 5609TIP3    H238387   1.588   2.793   2.386 -0.0111  0.8864 -0.0784
 5610TIP3   OH238388   2.333   4.852   7.576 -0.0502  0.1830  1.0299
 5610TIP3    H138389   2.304   4.765   7.548  1.6366  0.0978 -0.6776
 5610TIP3    H238390   2.271   4.912   7.534  0.1852 -0.1217  0.2202
 5611TIP3   OH238391   0.052   6.383   1.382  0.1485 -0.4551 -0.0098
 5611TIP3    H138392   0.012   6.404   1.467 -0.1969 -0.5559 -0.1481
 5611TIP3    H238393   0.056   6.287   1.380 -0.0784 -0.4618 -0.2139
 5612TIP3   OH238394   0.027   0.619   8.020 -0.8235  0.1673 -0.8865
 5612TIP3    H138395   0.065   0.638   8.106 -0.4048 -0.4188 -0.9386
 5612TIP3    H238396   0.030   0.524   8.013 -0.2151  0.2394 -1.8305
 5613TIP3   OH238397   5.769   6.216   7.208 -0.3324 -0.2370 -0.3472
 5613TIP3    H138398   5.696   6.201   7.148 -1.8812 -0.4657  1.4846
 5613TIP3    H238399   5.799   6.128   7.233 -0.3866 -0.1612 -0.0040
 5614TIP3   OH238400   6.768   1.506   7.506  0.4329 -0.5955 -0.3053
 5614TIP3    H138401   6.772   1.531   7.413  0.4505  1.4435  0.1933
 5614TIP3    H238402   6.691   1.449   7.512 -0.8532  0.9621 -1.2304
 5615TIP3   OH238403   3.728   3.103   1.790  0.1810 -0.0998 -0.2577
 5615TIP3    H138404   3.648   3.152   1.810 -0.2800 -0.3752 -1.3621
 5615TIP3    H238405   3.772   3.156   1.724  0.3920 -0.4612 -0.4070
 5616TIP3   OH238406   2.917   1.425   0.202  0.7495 -0.3372  0.2673
 5616TIP3    H138407   3.008   1.453   0.205 -0.0486  2.6010  0.1441
 5616TIP3    H238408   2.897   1.416   0.109  0.8557 -0.7466  0.2848
 5617TIP3   OH238409   0.976   6.082   1.515 -0.0751  0.3944  0.5910
 5617TIP3    H138410   0.933   5.999   1.496 -0.6122  0.5213  1.2302
 5617TIP3    H238411   0.906   6.147   1.514  0.0859  0.5952  1.6921
 5618TIP3   OH238412   5.931   3.014   7.603 -0.5405 -0.0173 -0.4314
 5618TIP3    H138413   5.935   3.106   7.629 -1.4985 -0.4485  1.4867
 5618TIP3    H238414   5.910   3.016   7.510  0.7743  1.6866 -0.7373
 5619TIP3   OH238415   0.207   4.505   8.000  0.1344  0.3950  0.3511
 5619TIP3    H138416   0.175   4.571   7.939  1.1257 -0.0676 -0.7036
 5619TIP3    H238417   0.205   4.423   7.950  1.8528  0.1607  0.5967
 5620TIP3   OH238418   1.851   1.579   8.125 -0.3376  0.1444  0.5437
 5620TIP3    H138419   1.872   1.671   8.142  0.2820  0.2442 -0.6682
 5620TIP3    H238420   1.852   1.572   8.030 -0.5321 -1.0886  0.6261
 5621TIP3   OH238421   5.569   5.442   7.234  0.2712  0.5203 -0.1834
 5621TIP3    H138422   5.614   5.398   7.306 -3.0784 -0.6256  1.4041
 5621TIP3    H238423   5.547   5.371   7.173 -0.6103  0.8211 -0.2198
 5622TIP3   OH238424   1.605   0.994   7.535  0.1653 -0.0528 -0.2444
 5622TIP3    H138425   1.655   0.914   7.521 -0.5060 -0.3088 -1.2106
 5622TIP3    H238426   1.518   0.964   7.563  0.1854  0.3645  0.2926
 5623TIP3   OH238427   2.168   2.466   7.410  0.7611 -0.4830 -0.1115
 5623TIP3    H138428   2.160   2.487   7.503 -0.0614 -1.1473 -0.0154
 5623TIP3    H238429   2.147   2.548   7.365 -4.0221 -1.2071  0.2081
 5624TIP3   OH238430   5.274   1.782   0.637  0.1099  0.0600  0.1750
 5624TIP3    H138431   5.265   1.693   0.670 -0.6846 -0.1758 -0.6141
 5624TIP3    H238432   5.357   1.813   0.672 -0.2557 -0.4879  1.5972
 5625TIP3   OH238433   3.738   5.176   1.886  0.0639 -0.6539  0.4240
 5625TIP3    H138434   3.751   5.260   1.929  0.1850 -0.9319  0.9378
 5625TIP3    H238435   3.754   5.194   1.793 -1.4705  0.2286  0.3038
 5626TIP3   OH238436   3.866   0.289   0.370 -0.0361  0.5381 -0.2396
 5626TIP3    H138437   3.824   0.372   0.344 -0.2708  0.6906  0.5930
 5626TIP3    H238438   3.914   0.311   0.450 -1.5903 -0.5363  1.0440
 5627TIP3   OH238439   6.071   3.537   1.672  0.5230 -0.7019  0.0321
 5627TIP3    H138440   6.065   3.443   1.685  0.6326 -0.7563 -0.2780
 5627TIP3    H238441   5.991   3.573   1.710  1.1117 -0.7796  1.3736
 5628TIP3   OH238442   3.246   2.303   0.437  0.0041 -0.7451  0.2137
 5628TIP3    H138443   3.271   2.392   0.459 -0.3397 -0.1662 -1.5605
 5628TIP3    H238444   3.311   2.248   0.480  1.1833  0.4518  0.0018
 5629TIP3   OH238445   4.414   5.011   7.720  0.3970  0.1659  0.4669
 5629TIP3    H138446   4.391   4.997   7.628  0.5548  0.7577  0.3308
 5629TIP3    H238447   4.339   5.059   7.756  1.3729  2.1427  0.0089
 5630TIP3   OH238448   5.848   2.949   0.973  0.4058  0.3752 -0.0503
 5630TIP3    H138449   5.894   3.028   0.944  0.4055  0.0780 -0.8770
 5630TIP3    H238450   5.757   2.963   0.947 -0.0728  1.1017  1.8634
 5631TIP3   OH238451   1.575   1.606   0.607  0.6624  0.4597 -0.2445
 5631TIP3    H138452   1.579   1.676   0.672 -0.1513 -0.2019  0.5431
 5631TIP3    H238453   1.508   1.635   0.545  1.1991  0.9346 -0.6145
 5632TIP3   OH238454   5.589   0.419   2.383 -0.1538  0.0075 -0.0939
 5632TIP3    H138455   5.558   0.359   2.451 -1.8966  0.7845 -0.1646
 5632TIP3    H238456   5.551   0.503   2.406 -1.2147  0.1934 -2.2827
 5633TIP3   OH238457   2.445   0.004   6.333  0.3923 -0.4550  0.2569
 5633TIP3    H138458   2.532   0.041   6.316  0.3011 -0.6820 -0.7862
 5633TIP3    H238459   2.463  -0.079   6.377  0.6471  0.0697  1.1824
 5634TIP3   OH238460   3.539   4.720   8.205  0.5486 -0.4798  0.5874
 5634TIP3    H138461   3.562   4.776   8.131  2.0285 -1.2776  0.4020
 5634TIP3    H238462   3.501   4.779   8.269 -0.2059  0.3276 -0.5589
 5635TIP3   OH238463   5.311   4.946   7.650 -0.0165  0.8081 -0.3195
 5635TIP3    H138464   5.395   4.926   7.609 -0.4131  0.9953 -1.2483
 5635TIP3    H238465   5.321   5.035   7.683  0.8277  0.1099  1.3975
 5636TIP3   OH238466   6.762   2.939   7.829 -0.3792  0.1420 -0.4201
 5636TIP3    H138467   6.688   2.883   7.805 -0.6666  0.2842  0.1258
 5636TIP3    H238468   6.834   2.906   7.776 -1.0589  0.6142 -1.6856
 5637TIP3   OH238469   6.313   1.124   0.461  0.0941 -0.0547  1.0528
 5637TIP3    H138470   6.251   1.104   0.531 -1.6781 -1.9998 -0.9386
 5637TIP3    H238471   6.258   1.150   0.387  1.3740 -3.4317 -1.3119
 5638TIP3   OH238472   0.043   4.262   7.345  0.0821  0.1112  0.3052
 5638TIP3    H138473   0.001   4.284   7.262 -0.5251 -0.3249  0.4865
 5638TIP3    H238474   0.132   4.296   7.337  0.6616 -1.6024 -1.2818
 5639TIP3   OH238475   1.598   2.956   7.636  0.2081 -0.0156  0.7976
 5639TIP3    H138476   1.503   2.969   7.630  0.3470  0.4927 -0.8568
 5639TIP3    H238477   1.609   2.878   7.689 -1.0912  0.5555  1.9705
 5640TIP3   OH238478   5.184   0.207   0.490  0.5027  0.4445  0.1833
 5640TIP3    H138479   5.192   0.191   0.584  0.4420 -0.7680 -0.0035
 5640TIP3    H238480   5.237   0.139   0.450  2.2611  2.2037 -0.6361
 5641TIP3   OH238481   4.175   0.734   7.319  0.4190 -0.0252 -0.4327
 5641TIP3    H138482   4.126   0.668   7.368 -0.3661 -0.2093 -1.4430
 5641TIP3    H238483   4.130   0.817   7.340  1.0181  0.1135  0.3403
 5642TIP3   OH238484   4.055   6.403   0.208  0.2905 -0.8303  0.1494
 5642TIP3    H138485   3.960   6.411   0.214  0.2347 -1.7067  0.4885
 5642TIP3    H238486   4.086   6.413   0.298  0.5918  0.1895 -0.0513
 5643TIP3   OH238487   1.192   5.848   7.858  0.3730 -0.7518  0.3378
 5643TIP3    H138488   1.130   5.918   7.837 -1.0394 -1.8757  0.5536
 5643TIP3    H238489   1.258   5.890   7.912 -1.0896  0.1831  1.4817
 5644TIP3   OH238490   4.212   6.443   8.872 -0.4852 -0.1577  0.2138
 5644TIP3    H138491   4.175   6.418   8.957 -2.7134 -0.5151 -0.8051
 5644TIP3    H238492   4.211   6.539   8.873  0.6184 -0.1441  1.0368
 5645TIP3   OH238493   1.262   6.129   7.491  0.0441  0.1364 -0.4779
 5645TIP3    H138494   1.290   6.039   7.507  1.3467  0.7197  0.6817
 5645TIP3    H238495   1.253   6.168   7.578 -0.5026  1.1361 -0.9613
 5646TIP3   OH238496   6.467   3.619   7.890  0.0403 -0.0841  0.2780
 5646TIP3    H138497   6.532   3.581   7.831  0.1507 -0.6752  0.7669
 5646TIP3    H238498   6.486   3.579   7.975  0.6594  1.6601  0.9961
 5647TIP3   OH238499   6.042   1.531   1.792 -0.6644  0.1439 -0.3273
 5647TIP3    H138500   6.119   1.495   1.749 -1.5987  1.3248 -3.2162
 5647TIP3    H238501   6.069   1.546   1.883  1.3196 -2.8458 -0.2850
 5648TIP3   OH238502   2.056   2.605   1.392  0.0364  0.3148  0.3185
 5648TIP3    H138503   2.094   2.686   1.425 -0.3532  1.0473 -0.9718
 5648TIP3    H238504   2.121   2.537   1.414  0.6382  1.0540  0.8737
 5649TIP3   OH238505   3.171   5.772   8.770 -0.1537  0.2882 -0.1214
 5649TIP3    H138506   3.140   5.826   8.697 -0.0047  1.5670  0.7344
 5649TIP3    H238507   3.211   5.834   8.831  3.1261 -1.0944 -0.6143
 5650TIP3   OH238508   3.083   2.054   0.110  0.4510 -0.2082 -0.1010
 5650TIP3    H138509   3.037   2.048   0.027  2.6941  1.5552 -1.5825
 5650TIP3    H238510   3.137   1.975   0.113  2.2836  0.8990 -1.6538
 5651TIP3   OH238511   5.166   0.216   0.785 -0.5083 -0.0817  0.3057
 5651TIP3    H138512   5.169   0.242   0.877 -1.1064 -1.8811  0.8652
 5651TIP3    H238513   5.073   0.212   0.764 -0.3987 -0.6299 -0.0962
 5652TIP3   OH238514   1.854   0.783   8.331 -0.5586  0.1533 -0.0867
 5652TIP3    H138515   1.768   0.741   8.320 -0.5337  0.3964 -1.4766
 5652TIP3    H238516   1.853   0.855   8.268 -0.1728  1.5731  1.4553
 5653TIP3   OH238517   1.197   3.938   1.683  0.0052 -0.3492  0.3108
 5653TIP3    H138518   1.274   3.990   1.708  0.2990  0.0008 -1.2179
 5653TIP3    H238519   1.122   3.994   1.705  0.2939  0.4013 -0.5072
 5654TIP3   OH238520   0.406   5.510   2.608 -0.7120  0.1202 -0.3393
 5654TIP3    H138521   0.449   5.429   2.633  1.1603 -0.0005 -3.4307
 5654TIP3    H238522   0.333   5.483   2.552 -0.6996  0.5081 -0.5494
 5655TIP3   OH238523   0.959   6.304   2.159  0.0187  0.1243 -0.7546
 5655TIP3    H138524   0.913   6.388   2.159  0.1810  0.2216 -0.0215
 5655TIP3    H238525   0.991   6.295   2.249 -0.9624 -1.2505 -0.5234
 5656TIP3   OH238526   1.411   6.485   7.329  0.2143  0.1883  0.3018
 5656TIP3    H138527   1.410   6.475   7.233  0.7079  1.1888  0.1754
 5656TIP3    H238528   1.320   6.502   7.352  0.2598  1.1482 -0.1563
 5657TIP3   OH238529   4.820   3.706   0.477  0.4185  0.0603 -0.0082
 5657TIP3    H138530   4.909   3.727   0.503  0.8324 -1.7286  0.1526
 5657TIP3    H238531   4.819   3.611   0.467 -1.6603 -0.0520  0.7032
 5658TIP3   OH238532   0.263   4.644   8.775  0.2741 -0.0027 -0.0603
 5658TIP3    H138533   0.212   4.632   8.695 -0.5595  0.8277  0.3315
 5658TIP3    H238534   0.348   4.675   8.745  0.6341 -1.5205 -0.7320
 5659TIP3   OH238535   2.748   2.637   7.658 -0.8456 -0.5815  0.2971
 5659TIP3    H138536   2.787   2.550   7.661  0.5275 -0.1589 -2.3055
 5659TIP3    H238537   2.821   2.696   7.638 -2.1704  0.7683 -0.8144
 5660TIP3   OH238538   0.946   1.449   7.160  0.2314  0.2586  0.2214
 5660TIP3    H138539   0.930   1.442   7.065 -0.2980 -1.0681  0.3807
 5660TIP3    H238540   0.928   1.361   7.193 -0.0311  0.8248  1.6307
 5661TIP3   OH238541   2.661   1.096   1.805 -0.1261 -0.5294  0.7096
 5661TIP3    H138542   2.752   1.121   1.822  0.4973 -3.0056  1.3776
 5661TIP3    H238543   2.610   1.146   1.869  0.8252  0.3692  0.7840
 5662TIP3   OH238544   6.484   5.838   1.620  0.1682  0.0215  0.0736
 5662TIP3    H138545   6.521   5.891   1.691  0.2935  0.7729 -0.5362
 5662TIP3    H238546   6.399   5.877   1.602  0.4352  0.2941 -0.6588
 5663TIP3   OH238547   4.512   1.308   1.033  0.3692  0.0620  0.1803
 5663TIP3    H138548   4.602   1.315   1.002  0.0992  1.8611 -0.3221
 5663TIP3    H238549   4.519   1.298   1.128  1.0970 -0.1862  0.1030
 5664TIP3   OH238550   3.470   6.139   8.753  0.4391  0.4273 -0.4430
 5664TIP3    H138551   3.433   6.206   8.810  0.3932 -1.6695  2.1812
 5664TIP3    H238552   3.395   6.097   8.713  0.1673 -0.6263  1.0799
 5665TIP3   OH238553   0.942   3.780   1.759  0.7506 -0.0065 -0.3591
 5665TIP3    H138554   0.874   3.731   1.714  1.1060  1.3463 -2.5286
 5665TIP3    H238555   1.019   3.772   1.703  1.8789  0.0288  1.1000
 5666TIP3   OH238556   6.099   0.092   7.644  0.0578 -0.3940  0.2641
 5666TIP3    H138557   6.113   0.162   7.708  0.5071 -1.5482  1.4613
 5666TIP3    H238558   6.025   0.042   7.678 -0.9455  0.0704 -1.1229
 5667TIP3   OH238559   5.549   1.636   7.522  0.5614 -0.5447  0.3647
 5667TIP3    H138560   5.575   1.694   7.594  0.3620 -1.9351  1.6027
 5667TIP3    H238561   5.455   1.649   7.513  0.7393  0.3832 -0.3718
 5668TIP3   OH238562   3.489   1.423   7.068 -0.4836  0.1125  0.2343
 5668TIP3    H138563   3.533   1.401   6.986 -0.1266 -0.9990  0.7063
 5668TIP3    H238564   3.521   1.358   7.131 -1.0251  0.7237  1.1676
 5669TIP3   OH238565   0.616   4.077   7.675 -0.0391  0.2202  0.5343
 5669TIP3    H138566   0.555   4.011   7.641 -0.2898  0.8436 -0.2671
 5669TIP3    H238567   0.693   4.070   7.618 -0.6370  1.5751 -0.5172
 5670TIP3   OH238568   5.247   6.191   0.190  0.0679  0.4097  0.4515
 5670TIP3    H138569   5.231   6.099   0.209  0.7355  0.2153  0.0887
 5670TIP3    H238570   5.313   6.218   0.253 -1.0432  0.9950  1.4043
 5671TIP3   OH238571   1.781   3.547   7.647  0.3619 -0.5927  0.3120
 5671TIP3    H138572   1.771   3.460   7.685 -0.1076 -0.6316  0.1125
 5671TIP3    H238573   1.741   3.540   7.560  2.4408 -0.8242 -0.6830
 5672TIP3   OH238574   3.948   6.426   1.919  0.4777 -0.1401  0.4820
 5672TIP3    H138575   4.015   6.444   1.853 -0.0210 -0.4971 -0.1431
 5672TIP3    H238576   3.996   6.414   2.001  1.1176  0.2185  0.1648
 5673TIP3   OH238577   2.623   3.211   0.484 -0.3596  0.1658  0.1497
 5673TIP3    H138578   2.670   3.159   0.420 -1.6315  0.6188 -1.2144
 5673TIP3    H238579   2.571   3.147   0.533 -0.3199 -0.0646 -0.1054
 5674TIP3   OH238580   2.640   4.084   1.673 -0.1034 -0.1586 -0.1568
 5674TIP3    H138581   2.608   4.064   1.761  0.8752  1.5386  0.6195
 5674TIP3    H238582   2.633   4.001   1.626 -0.8958 -1.0384  1.4301
 5675TIP3   OH238583   5.396   4.647   0.279  0.2051  0.1696  0.1906
 5675TIP3    H138584   5.399   4.591   0.357 -1.0500  2.2881  1.8936
 5675TIP3    H238585   5.485   4.644   0.244  0.6463 -1.3326  1.3401
 5676TIP3   OH238586   1.305   5.601   2.221  0.1633 -0.1762 -0.1289
 5676TIP3    H138587   1.284   5.553   2.301 -2.7412  0.8096 -0.1845
 5676TIP3    H238588   1.318   5.533   2.155  0.9606 -0.9578  0.8026
 5677TIP3   OH238589   4.062   5.702   1.119 -0.2638  0.1975  0.2507
 5677TIP3    H138590   3.995   5.643   1.084  0.7013 -1.6234  1.2971
 5677TIP3    H238591   4.124   5.713   1.047 -0.5423  0.0872 -0.0080
 5678TIP3   OH238592   6.497   6.644   7.593 -0.0578 -0.4455 -0.0716
 5678TIP3    H138593   6.486   6.711   7.661  0.2492  1.0690 -1.4524
 5678TIP3    H238594   6.506   6.693   7.511 -0.1106 -2.1940 -1.1979
 5679TIP3   OH238595   1.103   4.805   7.366  0.2014  0.4456 -0.5036
 5679TIP3    H138596   1.166   4.820   7.296  0.1845 -0.5192 -0.7309
 5679TIP3    H238597   1.135   4.727   7.411 -0.0970  0.7317  0.2124
 5680TIP3   OH238598   0.228   0.035   2.497 -0.1074 -0.4404  0.4099
 5680TIP3    H138599   0.295   0.101   2.515 -1.3651  0.5578  1.5690
 5680TIP3    H238600   0.272  -0.028   2.440  1.5799  0.5914  0.5054
 5681TIP3   OH238601   2.563   2.854   8.832  0.2698 -0.3203 -0.0422
 5681TIP3    H138602   2.554   2.897   8.747  0.9243 -3.3839 -1.8377
 5681TIP3    H238603   2.498   2.897   8.888 -0.0664  1.9316 -2.0165
 5682TIP3   OH238604   3.567   0.106   8.297 -0.7657  0.3672  0.0925
 5682TIP3    H138605   3.490   0.054   8.322 -1.3416  1.0321 -0.2628
 5682TIP3    H238606   3.533   0.171   8.235  0.5263 -0.8129 -1.9152
 5683TIP3   OH238607   5.667   5.560   8.111 -0.6551  0.8659  0.4076
 5683TIP3    H138608   5.652   5.649   8.144  1.8031  0.7251  2.1832
 5683TIP3    H238609   5.740   5.568   8.051 -0.7155  0.1066  0.2164
 5684TIP3   OH238610   6.257   2.615   0.257  0.1455 -0.2839  0.5626
 5684TIP3    H138611   6.293   2.659   0.334 -0.1365 -0.5456  0.8479
 5684TIP3    H238612   6.334   2.589   0.206  0.3445 -0.3097  0.8697
 5685TIP3   OH238613   6.290   1.528   7.951  0.7363 -0.0506  0.3243
 5685TIP3    H138614   6.336   1.612   7.954 -0.0874  0.4276 -0.2492
 5685TIP3    H238615   6.212   1.541   8.004  0.0127 -0.0780 -0.7075
 5686TIP3   OH238616   6.019   0.365   7.461 -0.3432  0.3902 -0.7617
 5686TIP3    H138617   5.937   0.330   7.495 -0.0796  0.6764  0.1837
 5686TIP3    H238618   6.079   0.364   7.535  1.3544 -2.2545 -1.9991
 5687TIP3   OH238619   0.342   1.878   2.347  0.5777 -0.0508 -0.3830
 5687TIP3    H138620   0.302   1.811   2.402  0.4000 -0.0329 -0.4898
 5687TIP3    H238621   0.402   1.828   2.290  2.9657  0.2005  1.7196
 5688TIP3   OH238622   1.897   5.528   7.388 -0.3748  0.1296 -0.0555
 5688TIP3    H138623   1.838   5.603   7.392 -0.9955 -0.3887  0.8690
 5688TIP3    H238624   1.893   5.490   7.475  1.6680  0.3106  0.1624
 5689TIP3   OH238625   2.327   5.309   1.169 -0.5224  0.5828 -0.1320
 5689TIP3    H138626   2.240   5.291   1.134 -0.6664 -0.8438  0.9018
 5689TIP3    H238627   2.315   5.310   1.264  0.7237 -0.3900  0.0503
 5690TIP3   OH238628   3.352   1.253   7.308 -0.4597 -0.4905  0.2875
 5690TIP3    H138629   3.274   1.251   7.364 -0.0951 -0.0717  0.8233
 5690TIP3    H238630   3.337   1.184   7.243 -0.8871 -0.9860  0.8996
 5691TIP3   OH238631   5.410   4.818   8.023 -0.4195  0.0665  0.4303
 5691TIP3    H138632   5.473   4.874   7.978 -1.1136 -0.4362 -1.2373
 5691TIP3    H238633   5.422   4.732   7.982 -2.0749 -0.0674  0.1770
 5692TIP3   OH238634   6.728   1.169   8.511 -0.7477  0.6030  0.4508
 5692TIP3    H138635   6.752   1.086   8.551  0.8763  0.4327 -0.7678
 5692TIP3    H238636   6.645   1.152   8.467  0.2157 -0.8247 -0.9471
 5693TIP3   OH238637   5.359   4.003   8.579 -0.0859  0.4073 -0.0624
 5693TIP3    H138638   5.281   3.948   8.591  0.5557 -0.7800 -1.0444
 5693TIP3    H238639   5.326   4.093   8.581 -1.0311  0.0984  2.6530
 5694TIP3   OH238640   1.878   0.285   0.439 -0.2477  0.3683 -0.2932
 5694TIP3    H138641   1.888   0.300   0.345  0.4805 -1.0329 -0.4694
 5694TIP3    H238642   1.851   0.194   0.446  1.8517 -0.2245  0.9168
 5695TIP3   OH238643   1.318   4.274   6.817 -1.5450 -0.3200  0.1245
 5695TIP3    H138644   1.229   4.309   6.816 -1.1389  0.7382 -0.6623
 5695TIP3    H238645   1.306   4.179   6.818 -2.7202 -0.2399 -1.4885
 5696TIP3   OH238646   0.142   4.428   1.309 -0.1470  1.1342  0.2052
 5696TIP3    H138647   0.110   4.491   1.374  2.2603  1.3453  1.2732
 5696TIP3    H238648   0.235   4.418   1.329 -0.0658 -1.3788 -1.1194
 5697TIP3   OH238649   4.724   1.570   0.501  0.3468 -0.3394 -0.0847
 5697TIP3    H138650   4.810   1.529   0.493  0.1682 -0.9971  1.1352
 5697TIP3    H238651   4.690   1.538   0.585 -0.8501  0.3548 -0.2859
 5698TIP3   OH238652   0.598   3.340   0.972 -0.5095 -0.3159 -0.2179
 5698TIP3    H138653   0.533   3.410   0.967 -0.9832 -0.7433 -0.1592
 5698TIP3    H238654   0.623   3.337   1.064 -0.1201  0.1047 -0.3093
 5699TIP3   OH238655   0.261   6.503   0.099 -0.5065 -0.1731 -0.3754
 5699TIP3    H138656   0.303   6.419   0.083 -0.2900  0.1199 -1.3788
 5699TIP3    H238657   0.324   6.569   0.070 -1.2458  0.2930 -0.9898
 5700TIP3   OH238658   3.316   5.086   0.467  0.1623  0.0690  0.8410
 5700TIP3    H138659   3.220   5.090   0.465 -0.0491 -2.4751  1.7966
 5700TIP3    H238660   3.340   5.126   0.551  0.1088  2.1250 -0.0756
 5701TIP3   OH238661   0.590   2.652   8.799 -0.0529  0.5254  0.2447
 5701TIP3    H138662   0.497   2.632   8.813  0.5494 -0.4677  3.8637
 5701TIP3    H238663   0.600   2.742   8.831  0.3959  0.1946  1.0735
 5702TIP3   OH238664   5.967   1.952   1.062 -0.1972  0.0488  0.3795
 5702TIP3    H138665   5.988   1.896   0.987  1.1768 -0.5473  1.1844
 5702TIP3    H238666   5.908   1.898   1.116 -0.4237  0.1174  0.2021
 5703TIP3   OH238667   3.490   0.587   8.169  0.3756  0.3784 -0.0186
 5703TIP3    H138668   3.528   0.608   8.254  0.4707  0.7114 -0.1400
 5703TIP3    H238669   3.550   0.627   8.105  1.2609 -1.3442 -0.3255
 5704TIP3   OH238670   6.235   2.339   1.815  0.0929  0.6874  0.0755
 5704TIP3    H138671   6.305   2.316   1.875  0.3448 -0.7734 -0.7173
 5704TIP3    H238672   6.262   2.424   1.778  0.4043  1.1284  1.2604
 5705TIP3   OH238673   4.010   5.408   0.335  0.0318  0.0768 -0.7514
 5705TIP3    H138674   4.045   5.375   0.252  2.7974 -0.3817  0.4660
 5705TIP3    H238675   4.023   5.335   0.396 -2.6048  0.1417 -0.0136
 5706TIP3   OH238676   4.265   4.475   7.295 -0.2386 -0.1302  0.1266
 5706TIP3    H138677   4.346   4.476   7.347  0.5209  0.9665 -1.0269
 5706TIP3    H238678   4.254   4.566   7.266 -0.5690 -0.7278 -1.7153
 5707TIP3   OH238679   1.236   6.705   1.789 -0.4391  0.0444 -0.6529
 5707TIP3    H138680   1.210   6.621   1.828  0.2106  0.8646  1.7320
 5707TIP3    H238681   1.154   6.753   1.780 -0.5091  0.3109  1.0242
 5708TIP3   OH238682   6.299   5.564   2.302  0.6281  0.0681  0.0689
 5708TIP3    H138683   6.387   5.527   2.299  1.0567  0.9742  1.0203
 5708TIP3    H238684   6.241   5.488   2.297  1.4759 -0.8305  2.4587
 5709TIP3   OH238685   4.580   0.496   7.865  0.2256 -0.3341 -0.3855
 5709TIP3    H138686   4.645   0.430   7.842 -0.5053 -2.2375  2.4441
 5709TIP3    H238687   4.497   0.448   7.872 -0.7870  1.3151 -0.3854
 5710TIP3   OH238688   5.540   6.509   0.979  0.1940  0.2434  0.1720
 5710TIP3    H138689   5.553   6.603   0.985  0.6990  0.2047 -0.2495
 5710TIP3    H238690   5.598   6.473   1.046 -0.3790  0.2551  0.6820
 5711TIP3   OH238691   2.885   0.828   8.667 -0.2444 -0.1703  0.2157
 5711TIP3    H138692   2.976   0.857   8.661 -0.3677  0.0045 -1.4263
 5711TIP3    H238693   2.842   0.895   8.720  0.3543  0.4097 -0.0126
 5712TIP3   OH238694   3.852   1.955   6.092 -0.5770 -0.2052  0.9143
 5712TIP3    H138695   3.807   1.912   6.165 -0.5962 -0.8890  0.5039
 5712TIP3    H238696   3.939   1.975   6.127 -0.3111 -1.2519  0.8799
 5713TIP3   OH238697   2.388   3.832   0.598  0.6455  0.0449  0.1850
 5713TIP3    H138698   2.383   3.819   0.503 -1.7565 -0.3990  0.3231
 5713TIP3    H238699   2.313   3.888   0.618  1.5162  0.7052  1.7595
 5714TIP3   OH238700   4.472   2.029   1.319 -0.2342 -0.0645  0.1257
 5714TIP3    H138701   4.466   1.978   1.238  0.1884 -1.7030  1.0732
 5714TIP3    H238702   4.559   2.068   1.316  0.4593 -1.5124  0.5400
 5715TIP3   OH238703   5.697   5.799   1.849  0.3253 -0.0699  0.1730
 5715TIP3    H138704   5.694   5.823   1.942 -1.0472 -0.0568  0.1515
 5715TIP3    H238705   5.664   5.709   1.847  2.0179 -0.7093 -0.1338
 5716TIP3   OH238706   5.806   1.930   8.491 -0.1035  0.3358 -0.4060
 5716TIP3    H138707   5.791   1.914   8.584  1.6266  0.5381 -0.0758
 5716TIP3    H238708   5.749   2.005   8.471  0.3681  1.0313  0.7685
 5717TIP3   OH238709   4.657   6.320   2.225 -0.1687  0.2537 -0.0204
 5717TIP3    H138710   4.653   6.299   2.318 -0.6434 -0.4230 -0.1879
 5717TIP3    H238711   4.631   6.240   2.180  1.1616  0.2188 -0.7919
 5718TIP3   OH238712   4.751   3.371   8.513 -0.2633  0.2331  0.0916
 5718TIP3    H138713   4.699   3.447   8.540 -0.0653 -0.0942  1.4828
 5718TIP3    H238714   4.732   3.304   8.579 -0.2905 -0.8765 -1.0092
 5719TIP3   OH238715   4.011   3.102   1.161  0.2079 -0.3385  0.3268
 5719TIP3    H138716   4.088   3.139   1.204 -1.3468  2.1410  1.2349
 5719TIP3    H238717   3.961   3.063   1.233  0.2393 -1.2419 -0.1364
 5720TIP3   OH238718   4.729   3.718   7.943 -0.4000  0.0740  0.6910
 5720TIP3    H138719   4.714   3.772   8.020  0.2184  1.3319 -0.0505
 5720TIP3    H238720   4.646   3.721   7.895 -0.5740 -0.1864  0.9680
 5721TIP3   OH238721   1.397   1.268   1.282 -0.2900  0.0126  0.1974
 5721TIP3    H138722   1.386   1.348   1.231  1.8587  0.9266  1.0357
 5721TIP3    H238723   1.431   1.204   1.220  1.2925  0.8068  0.1970
 5722TIP3   OH238724   1.443   4.596   1.134 -0.3431 -0.3205  0.0129
 5722TIP3    H138725   1.468   4.533   1.067  2.0588  0.9594 -0.4163
 5722TIP3    H238726   1.347   4.594   1.135 -0.4208 -1.2383 -2.5968
 5723TIP3   OH238727   0.378   0.631   2.482  0.5887 -0.5613  0.1771
 5723TIP3    H138728   0.450   0.644   2.545 -0.6696  1.9205  1.2406
 5723TIP3    H238729   0.319   0.570   2.525  1.0782 -1.0551  0.1611
 5724TIP3   OH238730   5.444   1.597   1.012  0.0196 -0.1275  0.7583
 5724TIP3    H138731   5.378   1.528   1.015 -1.5025  1.2768  1.1034
 5724TIP3    H238732   5.505   1.576   1.083 -1.4636 -0.1513  2.0897
 5725TIP3   OH238733   5.809   4.124   8.293  0.2337 -0.0750  0.0750
 5725TIP3    H138734   5.866   4.148   8.365 -0.3800  1.2183  0.1481
 5725TIP3    H238735   5.739   4.073   8.334  0.9862 -1.1470  0.0694
 5726TIP3   OH238736   4.479   0.660   7.609  0.2895  0.0562 -0.3074
 5726TIP3    H138737   4.541   0.612   7.554 -0.7921 -1.6897 -0.0807
 5726TIP3    H238738   4.484   0.616   7.694 -0.6759  0.3961 -0.0624
 5727TIP3   OH238739   6.614   3.292   1.785  0.3408 -0.1192  0.2602
 5727TIP3    H138740   6.520   3.306   1.797 -0.0514 -1.1196 -1.3348
 5727TIP3    H238741   6.653   3.324   1.866 -1.5838 -1.9517  2.0386
 5728TIP3   OH238742   5.020   4.886   7.700 -0.1602  0.2079  0.0033
 5728TIP3    H138743   5.021   4.800   7.657  0.2731  0.1305  0.1547
 5728TIP3    H238744   5.110   4.917   7.691 -0.3727  0.7492 -0.2530
 5729TIP3   OH238745   4.301   5.648   1.843  0.3696 -0.0811 -0.3109
 5729TIP3    H138746   4.341   5.719   1.893 -0.7992 -0.5724  1.4099
 5729TIP3    H238747   4.366   5.578   1.845  0.7380  0.2545 -0.3645
 5730TIP3   OH238748   1.308   1.210   2.166 -0.2431  0.3094 -0.3896
 5730TIP3    H138749   1.219   1.220   2.198  0.0745  0.0621  0.6072
 5730TIP3    H238750   1.338   1.300   2.150 -0.9389  0.3561 -1.5363
 5731TIP3   OH238751   1.688   3.909   1.925  0.3799  0.2051  0.0016
 5731TIP3    H138752   1.774   3.890   1.888  1.3156 -0.3662  2.2672
 5731TIP3    H238753   1.630   3.842   1.889  1.2202 -0.3078 -0.4163
 5732TIP3   OH238754   3.544   2.182   8.675  0.2015  0.6570  0.3012
 5732TIP3    H138755   3.451   2.164   8.665  0.3237  0.2634 -0.1449
 5732TIP3    H238756   3.559   2.177   8.770 -0.0803 -0.0668  0.3167
 5733TIP3   OH238757   1.334   5.623   8.343  0.7811 -0.1843 -1.0773
 5733TIP3    H138758   1.244   5.623   8.311  1.0647 -1.0466 -1.9509
 5733TIP3    H238759   1.370   5.706   8.313  0.1539  0.3767 -0.3131
 5734TIP3   OH238760   2.455   3.774   1.189  0.0881 -0.5881  0.1556
 5734TIP3    H138761   2.375   3.738   1.228 -0.2111 -0.0514  0.0486
 5734TIP3    H238762   2.497   3.700   1.145 -0.0337 -1.0052  0.7320
 5735TIP3   OH238763   3.229   2.847   1.972 -0.0627  0.2913  0.3184
 5735TIP3    H138764   3.266   2.934   1.985  0.1290  0.4444 -1.1525
 5735TIP3    H238765   3.261   2.797   2.048  2.3019  0.7074 -0.2997
 5736TIP3   OH238766   6.561   6.524   8.107  0.0886  0.2793 -1.1504
 5736TIP3    H138767   6.584   6.589   8.039  0.6445 -2.7625 -4.1505
 5736TIP3    H238768   6.625   6.454   8.095 -0.3011 -0.7769  2.1238
 5737TIP3   OH238769   2.643   2.227   7.096  0.0944 -0.1142 -0.3335
 5737TIP3    H138770   2.558   2.183   7.089 -0.3021  0.2752  1.5782
 5737TIP3    H238771   2.635   2.305   7.041 -2.0184  1.6577  2.2106
 5738TIP3   OH238772   6.240   4.646   1.607  0.2287 -0.1782  0.0924
 5738TIP3    H138773   6.295   4.696   1.667  0.1915 -1.2420  1.0450
 5738TIP3    H238774   6.236   4.699   1.527  0.3991  1.1801  0.9740
 5739TIP3   OH238775   1.586   4.978   1.741  0.0219  0.2856 -0.3919
 5739TIP3    H138776   1.600   5.061   1.696  0.2403  0.5852  0.2268
 5739TIP3    H238777   1.546   4.921   1.674  0.7268  0.5914 -1.0831
 5740TIP3   OH238778   4.302   2.919   1.135  0.5103  0.3209 -0.5198
 5740TIP3    H138779   4.380   2.955   1.093  1.7859 -0.9410  0.6532
 5740TIP3    H238780   4.285   2.979   1.208  1.4220 -0.3143  0.2310
 5741TIP3   OH238781   3.269   1.970   7.085 -0.3622  0.2516 -0.2831
 5741TIP3    H138782   3.320   1.984   7.005  2.5717 -0.8104  1.2583
 5741TIP3    H238783   3.251   2.058   7.118  0.1092  0.6665 -1.1050
 5742TIP3   OH238784   1.925   0.933   7.038  0.4319 -0.6242  0.5165
 5742TIP3    H138785   1.978   0.993   6.985 -0.1245 -0.4843  0.1032
 5742TIP3    H238786   1.959   0.846   7.016  0.2106 -0.5677 -0.0843
 5743TIP3   OH238787   0.732   5.989   8.021  0.1123  0.6518 -0.1034
 5743TIP3    H138788   0.731   5.893   8.013 -0.0391  0.5894  0.5846
 5743TIP3    H238789   0.705   6.021   7.935  1.2122  0.0962 -0.6797
 5744TIP3   OH238790   2.876   5.503   7.947  0.2049 -0.2676  0.7211
 5744TIP3    H138791   2.809   5.440   7.973 -0.3524 -0.7217 -1.6059
 5744TIP3    H238792   2.957   5.453   7.947  0.2271 -0.2413  1.5930
 5745TIP3   OH238793   1.592   4.708   7.639  0.0263  0.1948  0.4454
 5745TIP3    H138794   1.529   4.674   7.703 -1.7434  0.1935 -1.2231
 5745TIP3    H238795   1.591   4.803   7.653  3.1540  0.0012  3.4496
 5746TIP3   OH238796   6.381   3.478   0.823 -0.2577 -0.4928  0.5242
 5746TIP3    H138797   6.470   3.444   0.820 -0.0565  0.0609 -0.3579
 5746TIP3    H238798   6.333   3.426   0.758  0.1586  1.1059 -1.1669
 5747TIP3   OH238799   2.682   5.022   2.286  0.5985 -0.3211  0.0729
 5747TIP3    H138800   2.626   5.100   2.281  0.1174 -0.6860 -0.4190
 5747TIP3    H238801   2.695   5.007   2.379  1.4361  0.8674  0.1630
 5748TIP3   OH238802   1.334   1.875   0.277 -0.0441 -0.6857  0.2213
 5748TIP3    H138803   1.351   1.942   0.211 -1.7771  1.2669  1.5988
 5748TIP3    H238804   1.254   1.832   0.246 -0.1218 -0.6581  0.3828
 5749TIP3   OH238805   0.828   0.392   1.223 -0.1553  0.0611  0.1734
 5749TIP3    H138806   0.791   0.333   1.158 -1.4518  0.5368  0.4496
 5749TIP3    H238807   0.903   0.344   1.260  1.1722  0.1237 -2.2328
 5750TIP3   OH238808   6.118   3.740   1.312  0.1702 -0.1948  0.0208
 5750TIP3    H138809   6.099   3.654   1.351 -0.8212 -0.2243 -0.5006
 5750TIP3    H238810   6.063   3.743   1.234  1.8706  0.0004 -1.2130
 5751TIP3   OH238811   6.005   0.475   6.665  0.0919  0.0860  0.4192
 5751TIP3    H138812   6.000   0.390   6.622  1.0747 -0.7413  1.8649
 5751TIP3    H238813   6.097   0.484   6.690  0.5175  2.5989 -1.6665
 5752TIP3   OH238814   3.108   2.291   6.788  0.4767  0.0286  0.5082
 5752TIP3    H138815   3.172   2.319   6.853  0.9627  1.3524 -0.4974
 5752TIP3    H238816   3.061   2.219   6.830  1.5035  0.1306  1.8931
 5753TIP3   OH238817   2.488   3.282   1.822 -0.4322 -0.8415 -0.1772
 5753TIP3    H138818   2.472   3.220   1.894 -0.1666 -1.6902 -0.8248
 5753TIP3    H238819   2.564   3.333   1.851 -1.3435 -0.0349  0.8505
 5754TIP3   OH238820   1.959   6.743   8.501 -0.5858  0.5950  0.4670
 5754TIP3    H138821   2.053   6.751   8.517 -0.0105 -0.0865 -2.2484
 5754TIP3    H238822   1.928   6.834   8.500  0.2831  0.9026  0.1499
 5755TIP3   OH238823   5.988   0.422   0.121 -0.1461 -0.2550 -0.1970
 5755TIP3    H138824   5.892   0.423   0.110 -0.3957 -1.1636  1.4985
 5755TIP3    H238825   6.006   0.496   0.179 -0.2044 -1.6657  1.7139
 5756TIP3   OH238826   4.881   2.622   8.281 -0.5365  0.0425 -0.2813
 5756TIP3    H138827   4.922   2.672   8.211 -1.4139  0.0599 -0.7981
 5756TIP3    H238828   4.939   2.547   8.295  0.8481  1.2004  0.5644
 5757TIP3   OH238829   5.265   0.471   7.517  0.2264 -0.0208 -0.0136
 5757TIP3    H138830   5.277   0.533   7.590  0.1187 -1.5071  1.3236
 5757TIP3    H238831   5.297   0.519   7.440  0.1154  1.7014  0.9456
 5758TIP3   OH238832   3.953   0.703   7.557  0.0274 -0.0707  0.8231
 5758TIP3    H138833   4.032   0.752   7.579  0.8140 -1.3501  0.8967
 5758TIP3    H238834   3.881   0.763   7.580  0.9212  0.5127  2.2271
 5759TIP3   OH238835   1.589   1.303   1.973  0.1515  0.2951  0.5290
 5759TIP3    H138836   1.561   1.394   1.966  0.9093  0.4944  0.0266
 5759TIP3    H238837   1.651   1.303   2.046  0.9926  0.3976 -0.1764
 5760TIP3   OH238838   1.489   2.514   0.047 -0.4212  0.0786 -0.5225
 5760TIP3    H138839   1.472   2.524  -0.047 -1.5320  0.3987 -0.3031
 5760TIP3    H238840   1.416   2.559   0.089 -0.6202 -1.1406  0.5008
 5761TIP3   OH238841   4.085   4.759   2.667 -0.5211 -0.2728 -0.1598
 5761TIP3    H138842   4.060   4.668   2.682 -1.3088  0.2484  2.0530
 5761TIP3    H238843   4.149   4.778   2.736  0.6890  0.4880 -1.4309
 5762TIP3   OH238844   0.251   2.515   1.917  0.2302  0.3491  0.0156
 5762TIP3    H138845   0.319   2.572   1.951  0.2981  0.5021 -0.3731
 5762TIP3    H238846   0.171   2.543   1.962  0.3309  0.5022  0.0976
 5763TIP3   OH238847   2.125   1.059   0.816 -0.0729  0.2881  0.6308
 5763TIP3    H138848   2.083   1.126   0.870 -0.5362  0.5997 -0.0874
 5763TIP3    H238849   2.189   1.108   0.763  1.3353 -0.2043  1.8181
 5764TIP3   OH238850   1.035   6.102   1.799 -0.6130 -0.2695 -0.2814
 5764TIP3    H138851   0.978   6.126   1.726 -1.7029 -1.3442  0.1899
 5764TIP3    H238852   1.091   6.033   1.764 -1.4453 -1.1075  0.0049
 5765TIP3   OH238853   2.077   0.343   7.135 -0.5179 -0.4793 -0.1717
 5765TIP3    H138854   2.093   0.379   7.047 -0.8393 -0.0786 -0.0719
 5765TIP3    H238855   2.001   0.286   7.124 -1.8569  1.1502  0.2215
 5766TIP3   OH238856   4.404   6.344   8.655  0.5692 -0.4898 -0.2592
 5766TIP3    H138857   4.381   6.251   8.649  0.1751 -0.2861 -3.9323
 5766TIP3    H238858   4.331   6.383   8.703 -0.5786 -1.6831 -0.9593
 5767TIP3   OH238859   0.980   4.619   8.181  0.2656  0.0047  0.0719
 5767TIP3    H138860   0.895   4.623   8.138  0.5800 -0.1061 -0.5849
 5767TIP3    H238861   1.022   4.542   8.142  0.8058  0.2736  0.1137
 5768TIP3   OH238862   5.196   2.658   2.158  0.0689  0.2089  0.2005
 5768TIP3    H138863   5.106   2.692   2.154 -0.6331 -1.5500  0.3177
 5768TIP3    H238864   5.206   2.609   2.077  1.3739  1.3637 -0.3714
 5769TIP3   OH238865   0.813   4.573   1.755 -0.7375  0.2769  0.2025
 5769TIP3    H138866   0.848   4.553   1.841 -0.7507 -0.3181  0.0789
 5769TIP3    H238867   0.839   4.498   1.701 -2.0120 -0.0940  0.0640
 5770TIP3   OH238868   5.588   4.669   1.177 -0.7350 -0.2479 -0.1070
 5770TIP3    H138869   5.501   4.633   1.195 -0.7862 -0.7862 -1.3350
 5770TIP3    H238870   5.639   4.595   1.145 -0.5591  0.5361 -1.7666
 5771TIP3   OH238871   4.358   5.545   7.273 -0.0448  0.0089 -0.0541
 5771TIP3    H138872   4.442   5.590   7.276 -1.7900  3.5753  0.7906
 5771TIP3    H238873   4.343   5.516   7.363  0.5988 -1.4849 -0.3883
 5772TIP3   OH238874   4.595   1.547   8.450 -0.2123  0.2202  0.0815
 5772TIP3    H138875   4.516   1.568   8.500 -0.1564  1.5462 -0.3648
 5772TIP3    H238876   4.606   1.620   8.390 -0.1184 -1.1724 -1.6982
 5773TIP3   OH238877   1.400   0.355   8.134  0.1766 -0.6396  0.4948
 5773TIP3    H138878   1.349   0.431   8.163  2.1552  0.5993  0.9831
 5773TIP3    H238879   1.340   0.281   8.141 -2.4950  1.0733 -1.8232
 5774TIP3   OH238880   1.073   3.574   1.382  0.3565 -0.0809 -0.2523
 5774TIP3    H138881   1.157   3.544   1.350 -0.0625 -0.8975 -0.6103
 5774TIP3    H238882   1.088   3.595   1.474  1.0146  0.0704 -0.3916
 5775TIP3   OH238883   6.094   1.474   0.781  0.0768 -0.3305 -0.4928
 5775TIP3    H138884   6.159   1.426   0.730  0.5536  0.2083 -0.3967
 5775TIP3    H238885   6.145   1.528   0.841 -0.3753  2.0702 -2.1473
 5776TIP3   OH238886   5.126   5.652   1.013  0.9217 -0.2965 -0.1734
 5776TIP3    H138887   5.077   5.572   1.031  0.5311 -0.3639 -1.4560
 5776TIP3    H238888   5.107   5.710   1.087  1.3700 -1.4439  0.8750
 5777TIP3   OH238889   4.736   6.195   0.310  0.1962  0.1951 -0.0772
 5777TIP3    H138890   4.685   6.113   0.312  0.6281 -0.1128 -1.0589
 5777TIP3    H238891   4.678   6.260   0.350 -0.3892 -0.4605  0.1679
 5778TIP3   OH238892   3.589   1.721   7.546 -0.1385  0.1998  0.0252
 5778TIP3    H138893   3.547   1.636   7.531 -0.4216  0.2166  0.6784
 5778TIP3    H238894   3.680   1.699   7.566 -0.1562  0.0645 -0.0384
 5779TIP3   OH238895   2.668   0.933   6.285  0.4848  0.8286 -0.8994
 5779TIP3    H138896   2.663   0.911   6.378  1.2522  0.4582 -0.9343
 5779TIP3    H238897   2.627   1.019   6.278 -1.3356  0.0269 -0.5392
 5780TIP3   OH238898   3.980   0.134   8.073 -0.5224  0.1891 -0.1929
 5780TIP3    H138899   3.965   0.115   7.981 -0.7973 -3.5666  0.4634
 5780TIP3    H238900   4.069   0.103   8.090 -1.0595 -0.7124  1.1185
 5781TIP3   OH238901   2.006   5.229   8.756  0.4375  0.2277 -0.3066
 5781TIP3    H138902   1.967   5.303   8.710  1.0431  0.6839 -0.0910
 5781TIP3    H238903   2.098   5.231   8.731  0.0574 -1.8912 -2.2319
 5782TIP3   OH238904   6.533   4.051   8.004 -0.5557 -0.0912 -0.4294
 5782TIP3    H138905   6.562   4.142   7.996 -0.6496 -0.0934 -0.8180
 5782TIP3    H238906   6.461   4.043   7.942  0.9818 -1.0484 -2.2032
 5783TIP3   OH238907   1.521   0.113   7.648 -0.0275 -0.5104 -0.6853
 5783TIP3    H138908   1.533   0.154   7.562  2.3656 -0.5428 -0.4293
 5783TIP3    H238909   1.598   0.141   7.699 -1.8909  0.4236  1.8466
 5784TIP3   OH238910   3.798   6.401   1.683  0.1456 -0.7593  0.3581
 5784TIP3    H138911   3.850   6.398   1.763  0.9073 -1.0307 -0.1443
 5784TIP3    H238912   3.736   6.473   1.698  0.8412 -0.2567  0.8478
 5785TIP3   OH238913   5.303   3.201   0.806 -0.3625  0.3924  0.3626
 5785TIP3    H138914   5.318   3.200   0.712 -0.2119  1.0539  0.3787
 5785TIP3    H238915   5.389   3.219   0.844 -0.6163  1.1531  0.5809
 5786TIP3   OH238916   5.108   1.887   7.540 -0.1358 -0.5827  0.6096
 5786TIP3    H138917   5.099   1.948   7.614  0.9132  0.9960 -0.4992
 5786TIP3    H238918   5.019   1.855   7.525 -0.9991  1.7132  0.4216
 5787TIP3   OH238919   5.863   2.562   7.879 -0.0415 -0.7558  0.4868
 5787TIP3    H138920   5.908   2.630   7.829 -0.5828  0.3978  1.5139
 5787TIP3    H238921   5.933   2.506   7.913  0.4733 -0.1634  0.4072
 5788TIP3   OH238922   5.112   5.260   8.428  0.0372  0.1154  0.3500
 5788TIP3    H138923   5.132   5.167   8.414  0.1526  0.3242 -1.0720
 5788TIP3    H238924   5.120   5.273   8.522  3.8147 -0.4655  0.2543
 5789TIP3   OH238925   3.352   5.789   1.266 -0.3658  0.1117  0.8990
 5789TIP3    H138926   3.424   5.768   1.326 -0.5515 -1.4959  0.6024
 5789TIP3    H238927   3.306   5.861   1.308  1.1648  0.8896  1.3029
 5790TIP3   OH238928   5.941   4.562   7.982 -0.1832  0.9146  1.0000
 5790TIP3    H138929   5.904   4.569   8.070 -0.5913  0.3056  0.8747
 5790TIP3    H238930   6.031   4.535   7.996  0.0799  1.8936  1.2790
 5791TIP3   OH238931   2.760   1.457   2.444  0.1152 -0.2198  0.1606
 5791TIP3    H138932   2.761   1.377   2.391  0.8875 -0.2669  0.2298
 5791TIP3    H238933   2.682   1.504   2.415  1.5883  0.7638 -2.5276
 5792TIP3   OH238934   3.707   4.898   8.033  0.3393 -0.0145  0.4302
 5792TIP3    H138935   3.793   4.861   8.053  0.1538 -0.0457  1.1638
 5792TIP3    H238936   3.726   4.975   7.980  0.7803 -0.4900 -0.1164
 5793TIP3   OH238937   2.653   2.547   1.243 -0.0867  0.0189  0.0051
 5793TIP3    H138938   2.699   2.601   1.179  0.8039 -0.6654  0.0498
 5793TIP3    H238939   2.704   2.466   1.247 -1.1696 -0.6658  0.2370
 5794TIP3   OH238940   5.040   5.670   7.398 -0.2193  0.5715 -0.3433
 5794TIP3    H138941   4.956   5.634   7.371 -0.2985 -0.5744  1.3257
 5794TIP3    H238942   5.105   5.627   7.341 -0.6312  0.4898 -0.7541
 5795TIP3   OH238943   4.382   2.351   7.120  0.8770 -0.0467 -0.4192
 5795TIP3    H138944   4.339   2.270   7.145  1.2762 -0.1494 -0.0397
 5795TIP3    H238945   4.358   2.365   7.029  2.8639 -1.9652 -1.3224
 5796TIP3   OH238946   4.927   5.068   7.215  0.3237  0.6696  0.4053
 5796TIP3    H138947   4.919   5.018   7.134 -3.0169  1.8166 -0.1376
 5796TIP3    H238948   4.935   5.159   7.185 -0.4739  1.0541  1.3103
 5797TIP3   OH238949   1.022   6.509   1.609 -0.1722  0.0848 -0.2614
 5797TIP3    H138950   0.966   6.582   1.583 -0.9818 -0.6249 -0.5583
 5797TIP3    H238951   1.027   6.516   1.704 -0.8921  0.0779 -0.2158
 5798TIP3   OH238952   0.931   0.627   0.650 -0.1842  0.1430 -0.3041
 5798TIP3    H138953   1.011   0.584   0.679 -0.8333 -0.4018  0.7253
 5798TIP3    H238954   0.961   0.707   0.607  0.8464  0.9876  1.8293
 5799TIP3   OH238955   4.397   3.662   0.970 -0.5579  0.5348 -0.2832
 5799TIP3    H138956   4.321   3.664   0.912  0.2617  0.0699 -1.4362
 5799TIP3    H238957   4.408   3.570   0.993  1.4514  0.0487 -2.7175
 5800TIP3   OH238958   3.410   5.177   0.703  0.4513 -0.6592 -0.9585
 5800TIP3    H138959   3.409   5.267   0.736  1.6161 -0.3186 -1.7831
 5800TIP3    H238960   3.376   5.125   0.776 -0.7338  0.4858 -0.6432
 5801TIP3   OH238961   1.789   6.233   0.658  0.3023 -0.2792  0.0067
 5801TIP3    H138962   1.767   6.167   0.723 -0.8904 -1.2277 -1.2982
 5801TIP3    H238963   1.884   6.245   0.666  0.1534 -0.1015  2.1104
 5802TIP3   OH238964   3.935   0.702   1.511  0.0281  0.4156  0.7189
 5802TIP3    H138965   3.926   0.615   1.550  0.7099  0.7603  1.6584
 5802TIP3    H238966   3.845   0.726   1.487 -0.1638 -0.5667  0.3646
 5803TIP3   OH238967   6.778   0.128   1.269  0.2933 -0.2620  0.0820
 5803TIP3    H138968   6.810   0.175   1.347 -1.1633  0.5186  0.2402
 5803TIP3    H238969   6.778   0.193   1.200  1.8634 -1.0309 -0.6923
 5804TIP3   OH238970   2.997   2.627   7.951 -0.6687 -0.1711 -0.3624
 5804TIP3    H138971   3.033   2.625   8.040 -0.7773 -1.6368 -0.3292
 5804TIP3    H238972   3.068   2.594   7.896 -1.5964 -2.2709 -0.4007
 5805TIP3   OH238973   5.054   3.177   0.916  0.2986  0.1029 -0.8104
 5805TIP3    H138974   5.122   3.168   0.849  0.7871  0.3213 -0.3611
 5805TIP3    H238975   5.074   3.106   0.978  0.5387  0.5851 -0.3255
 5806TIP3   OH238976   0.548   1.427   1.240  0.6224  0.2629 -0.1446
 5806TIP3    H138977   0.514   1.355   1.292  1.6483  0.4964  0.8851
 5806TIP3    H238978   0.636   1.400   1.216 -0.0588 -0.1447 -2.4058
 5807TIP3   OH238979   5.563   1.094   2.203  0.9076 -0.3764 -0.2938
 5807TIP3    H138980   5.653   1.124   2.187  0.4970 -0.0323 -2.2373
 5807TIP3    H238981   5.515   1.173   2.228  0.4275  0.2189 -2.7562
 5808TIP3   OH238982   2.067   1.342   7.927  0.4504 -0.0036 -0.4209
 5808TIP3    H138983   2.048   1.248   7.926 -0.4754  0.1692  0.0541
 5808TIP3    H238984   2.126   1.353   8.001 -1.3078  0.1038  1.0355
 5809TIP3   OH238985   6.430   0.482   1.189  0.0398  0.0335 -0.1849
 5809TIP3    H138986   6.516   0.477   1.232  0.8897  2.9218 -1.3716
 5809TIP3    H238987   6.368   0.483   1.262  1.1869  0.6372  0.8265
 5810TIP3   OH238988   1.884   4.150   8.093 -0.1107 -0.0635 -0.1232
 5810TIP3    H138989   1.881   4.164   8.188  2.0222  0.8008 -0.1306
 5810TIP3    H238990   1.798   4.112   8.072 -0.5410 -0.5364  2.1723
 5811TIP3   OH238991   2.591   0.447   6.926  0.0881 -0.5810 -0.2957
 5811TIP3    H138992   2.522   0.494   6.879  0.5173 -0.3059 -0.6632
 5811TIP3    H238993   2.642   0.516   6.969 -0.6363 -0.8685  1.0552
 5812TIP3   OH238994   1.301   5.822   0.311 -0.0918  0.2489  0.1792
 5812TIP3    H138995   1.388   5.860   0.325 -0.3412  1.9301 -2.1606
 5812TIP3    H238996   1.241   5.881   0.357 -0.1081  0.0619  0.3942
 5813TIP3   OH238997   3.739   3.765   8.056 -0.1272 -0.1567  0.4490
 5813TIP3    H138998   3.687   3.819   8.115 -0.1771  1.0024 -0.6258
 5813TIP3    H238999   3.818   3.745   8.106 -0.3782  0.4042  1.0873
 5814TIP3   OH239000   2.866   3.647   7.685 -0.4850  1.4231  0.6621
 5814TIP3    H139001   2.961   3.656   7.672 -0.5271  0.4875 -0.4465
 5814TIP3    H239002   2.833   3.737   7.684  0.3509  1.7417  0.7096
 5815TIP3   OH239003   3.023   4.894   7.977  0.1014 -0.5018  0.2640
 5815TIP3    H139004   3.086   4.961   7.951  0.1890 -0.7301 -0.1273
 5815TIP3    H239005   3.025   4.830   7.905 -0.0712 -0.8601  0.5709
 5816TIP3   OH239006   1.982   6.743   2.856  0.2982  0.1361 -0.4066
 5816TIP3    H139007   2.072   6.759   2.885 -0.4249  2.1777  0.9830
 5816TIP3    H239008   1.942   6.692   2.926  0.2684 -0.4556 -0.8496
 5817TIP3   OH239009   3.326   6.099   7.435 -0.4013 -0.0477 -0.4136
 5817TIP3    H139010   3.261   6.169   7.446 -0.5123 -0.0065 -1.2855
 5817TIP3    H239011   3.396   6.140   7.385  0.4218 -0.0290  0.6982
 5818TIP3   OH239012   6.505   6.030   7.294  0.1797 -0.3418 -0.1223
 5818TIP3    H139013   6.457   5.951   7.270 -0.2610  0.7865 -3.4733
 5818TIP3    H239014   6.444   6.102   7.278  1.0745  0.8119  1.3452
 5819TIP3   OH239015   2.238   6.209   7.675  0.2396 -0.4866  0.1844
 5819TIP3    H139016   2.213   6.130   7.723  0.2057  0.4089  1.7097
 5819TIP3    H239017   2.208   6.281   7.731  1.5585  0.6057 -0.4569
 5820TIP3   OH239018   2.754   2.285   8.840 -0.5091 -0.0672  0.1053
 5820TIP3    H139019   2.673   2.290   8.890 -1.0685 -0.4798 -0.7430
 5820TIP3    H239020   2.753   2.362   8.784 -0.3943 -0.1580 -0.0227
 5821TIP3   OH239021   2.042   0.383   6.648 -0.2621  0.0472 -0.6502
 5821TIP3    H139022   2.096   0.332   6.587  1.2171  0.2004  0.4820
 5821TIP3    H239023   2.049   0.473   6.616  1.7022  0.3644  0.4836
 5822TIP3   OH239024   0.284   4.053   8.837  0.1594  0.6922 -0.3648
 5822TIP3    H139025   0.255   4.144   8.829 -0.2249  0.5211 -1.0347
 5822TIP3    H239026   0.205   4.005   8.863  0.3307  0.5309 -0.1445
 5823TIP3   OH239027   4.314   5.659   1.247 -0.3158  0.6463  0.0473
 5823TIP3    H139028   4.405   5.687   1.233 -0.2129  0.1806 -0.2431
 5823TIP3    H239029   4.266   5.697   1.174 -0.4234  1.2042  0.4059
 5824TIP3   OH239030   0.492   2.692   8.006  0.6897 -0.2185 -0.1044
 5824TIP3    H139031   0.569   2.735   7.969 -0.0922  0.4603 -1.0041
 5824TIP3    H239032   0.442   2.663   7.930 -0.7401  0.8178  0.3965
 5825TIP3   OH239033   4.475   2.949   6.522  0.1043 -0.0540  0.6763
 5825TIP3    H139034   4.385   2.969   6.547 -0.1868  0.3465 -0.5801
 5825TIP3    H239035   4.520   3.033   6.524 -0.1653  0.1672 -0.9528
 5826TIP3   OH239036   6.428   3.434   1.210 -0.0705 -0.0902  0.6264
 5826TIP3    H139037   6.353   3.482   1.176 -0.1290 -1.6058 -1.6032
 5826TIP3    H239038   6.396   3.393   1.291 -0.1615  2.9800  2.3071
 5827TIP3   OH239039   5.417   3.635   0.084  0.1307  0.3351 -0.5947
 5827TIP3    H139040   5.429   3.576   0.009 -0.9149 -2.0025  0.9293
 5827TIP3    H239041   5.330   3.612   0.118  1.2312  0.0660  2.3138
 5828TIP3   OH239042   0.690   0.714   8.479 -0.1884  0.4261 -0.2533
 5828TIP3    H139043   0.683   0.704   8.574  0.3411 -0.4940 -0.2966
 5828TIP3    H239044   0.775   0.675   8.457 -0.2349  0.7699 -1.0891
 5829TIP3   OH239045   4.043   5.430   2.375 -0.2838 -0.4128  0.5951
 5829TIP3    H139046   3.960   5.436   2.328  0.2926 -1.3103 -0.5898
 5829TIP3    H239047   4.023   5.461   2.463 -1.4554  1.1588 -0.1672
 5830TIP3   OH239048   6.419   6.315   8.281  0.3001 -0.3246 -0.3455
 5830TIP3    H139049   6.448   6.380   8.218  0.6124 -1.8337 -1.8240
 5830TIP3    H239050   6.387   6.366   8.355  3.2430  1.4876 -0.1645
 5831TIP3   OH239051   0.744   4.634   8.032  0.4205 -0.5006  0.5049
 5831TIP3    H139052   0.751   4.676   7.946 -0.5435 -0.2594  0.5267
 5831TIP3    H239053   0.671   4.679   8.075 -0.1873 -1.7152  0.8034
 5832TIP3   OH239054   2.934   1.229   0.692  0.2759 -0.3998  0.7775
 5832TIP3    H139055   2.861   1.272   0.647  0.1887 -1.4667 -0.1343
 5832TIP3    H239056   3.012   1.267   0.652  0.2017 -0.4851  0.5461
 5833TIP3   OH239057   1.188   5.995   6.933  0.6589  0.3290  0.5547
 5833TIP3    H139058   1.122   5.947   6.882  0.3651  0.8395  0.4551
 5833TIP3    H239059   1.154   6.084   6.940  0.9275  0.3908  1.2319
 5834TIP3   OH239060   1.592   4.960   8.633 -0.0365  0.5954  0.4219
 5834TIP3    H139061   1.559   5.046   8.609  0.1547  1.2083  2.2425
 5834TIP3    H239062   1.555   4.942   8.719  0.3469 -0.9203  0.3111
 5835TIP3   OH239063   4.122   3.720   7.648 -0.3852  0.2172 -0.1958
 5835TIP3    H139064   4.076   3.802   7.668 -0.6101  0.2889 -0.9714
 5835TIP3    H239065   4.118   3.670   7.729 -1.1537  0.5475 -0.0206
 5836TIP3   OH239066   2.799   3.890   7.567  0.4279  0.5880  0.0942
 5836TIP3    H139067   2.743   3.849   7.500  1.4724 -0.8664  0.0729
 5836TIP3    H239068   2.871   3.929   7.518  1.9685 -1.7043  0.3635
 5837TIP3   OH239069   4.004   1.146   0.098 -0.0666  0.2936  0.5452
 5837TIP3    H139070   3.914   1.159   0.129 -0.3831 -1.4488  0.4429
 5837TIP3    H239071   4.011   1.052   0.085  1.2302  0.5970 -1.1691
 5838TIP3   OH239072   4.576   0.548   0.867  0.3768  0.1268  0.1278
 5838TIP3    H139073   4.537   0.569   0.783  0.2874 -0.5353 -0.0021
 5838TIP3    H239074   4.502   0.516   0.920  0.3485  0.9487  0.6091
 5839TIP3   OH239075   1.011   1.529   7.466  0.3400 -0.0866 -0.8783
 5839TIP3    H139076   0.986   1.613   7.505 -1.1947 -0.3440 -1.2483
 5839TIP3    H239077   1.009   1.544   7.372 -1.1268 -0.8035 -1.0013
 5840TIP3   OH239078   1.154   4.104   1.014  0.2841 -0.2960 -0.2830
 5840TIP3    H139079   1.121   4.087   0.926 -0.5876  0.0089 -0.0275
 5840TIP3    H239080   1.242   4.138   1.001 -0.0637  0.3430 -1.0822
 5841TIP3   OH239081   6.562   0.732   8.622  0.1547 -0.1033  0.0281
 5841TIP3    H139082   6.512   0.802   8.580  0.8307  1.0841  1.1152
 5841TIP3    H239083   6.496   0.667   8.648 -0.7606  1.1317  0.8704
 5842TIP3   OH239084   3.500   6.570   2.175  0.0013 -0.6122  0.3088
 5842TIP3    H139085   3.592   6.557   2.155  0.4188  0.1212  1.6225
 5842TIP3    H239086   3.468   6.483   2.199  0.7849 -0.6041  1.4483
 5843TIP3   OH239087   3.133   1.652   1.101  0.1127  0.4296 -0.1987
 5843TIP3    H139088   3.207   1.612   1.147  1.2352  1.6819 -0.8412
 5843TIP3    H239089   3.144   1.746   1.116 -1.1401  0.6597 -0.6398
 5844TIP3   OH239090   3.390   6.614   7.215 -0.3716  0.2139 -0.0602
 5844TIP3    H139091   3.358   6.559   7.286  0.7056  0.0313  0.3119
 5844TIP3    H239092   3.370   6.565   7.135  0.0379 -0.4413  0.2348
 5845TIP3   OH239093   4.606   3.047   0.749 -0.2227  0.3724 -0.3612
 5845TIP3    H139094   4.573   3.026   0.837 -0.9089  0.1650 -0.6649
 5845TIP3    H239095   4.689   3.092   0.765  0.0794 -0.4192  0.3729
 5846TIP3   OH239096   2.200   0.778   1.076 -0.1931  0.1500 -0.8791
 5846TIP3    H139097   2.148   0.845   1.120  1.2275 -0.7056  2.4125
 5846TIP3    H239098   2.157   0.695   1.098 -0.2725 -0.2677 -2.4509
 5847TIP3   OH239099   3.159   2.864   7.792 -0.0993 -0.1149 -0.2036
 5847TIP3    H139100   3.117   2.785   7.758 -0.5603  0.9778 -2.3401
 5847TIP3    H239101   3.088   2.915   7.829 -0.3147  0.5815 -1.5062
 5848TIP3   OH239102   5.742   2.100   0.282  0.1004  0.5185 -0.0814
 5848TIP3    H139103   5.752   2.011   0.317 -1.3732  0.8392  1.3201
 5848TIP3    H239104   5.816   2.148   0.318  1.2338 -0.2435 -1.3189
 5849TIP3   OH239105   6.766   5.860   7.838 -0.2377  0.1320  0.5360
 5849TIP3    H139106   6.757   5.900   7.752  0.5436 -0.1865  0.2947
 5849TIP3    H239107   6.860   5.863   7.856 -0.2340 -0.9933  0.7943
 5850TIP3   OH239108   6.221   4.533   7.979 -0.3158  0.5913 -0.0083
 5850TIP3    H139109   6.243   4.567   7.892  0.3372  0.8940  0.2658
 5850TIP3    H239110   6.305   4.525   8.023 -0.6331  0.3245  0.5570
 5851TIP3   OH239111   4.424   6.680   7.431  0.3942 -0.2783 -0.3153
 5851TIP3    H139112   4.440   6.718   7.517  0.7794  1.0362 -0.9377
 5851TIP3    H239113   4.329   6.672   7.425  0.2165  1.5049 -0.5076
 5852TIP3   OH239114   5.016   4.697   0.221  0.5581 -0.1333  0.0859
 5852TIP3    H139115   5.070   4.659   0.152  1.3186  1.2261 -0.1097
 5852TIP3    H239116   5.061   4.677   0.302  0.7587  0.0313  0.0153
 5853TIP3   OH239117   3.042   5.904   0.113 -0.5072  0.3839 -0.8079
 5853TIP3    H139118   3.032   5.912   0.208 -0.1196 -0.9650 -0.6285
 5853TIP3    H239119   3.001   5.819   0.093  1.0092 -0.1889 -1.5793
 5854TIP3   OH239120   1.781   3.917   1.277 -0.6667  0.5030 -0.1345
 5854TIP3    H139121   1.745   3.914   1.366 -0.2690 -0.7408 -0.0030
 5854TIP3    H239122   1.746   3.998   1.240  0.2195  1.7609  1.6088
 5855TIP3   OH239123   5.554   6.455   7.911  0.3850 -0.5938 -0.3311
 5855TIP3    H139124   5.500   6.491   7.982  1.1481 -0.7186  0.3224
 5855TIP3    H239125   5.642   6.489   7.928  0.5615 -0.5673 -1.2636
 5856TIP3   OH239126   5.471   1.298   6.317  0.2150  0.2576 -0.1933
 5856TIP3    H139127   5.482   1.373   6.375 -1.0390 -0.2157  0.7143
 5856TIP3    H239128   5.450   1.335   6.232  2.4392  0.9771 -0.5009
 5857TIP3   OH239129   3.247   2.738   1.704 -0.2535 -0.1334  0.0988
 5857TIP3    H139130   3.178   2.676   1.680  1.1662 -2.3796  1.5197
 5857TIP3    H239131   3.230   2.759   1.796  0.3233  0.1612  0.1431
 5858TIP3   OH239132   4.394   1.608   7.518 -0.1058 -0.4382 -0.2903
 5858TIP3    H139133   4.417   1.521   7.549  0.6921 -0.1017  0.1022
 5858TIP3    H239134   4.349   1.593   7.435 -0.6487 -1.2516  0.1398
 5859TIP3   OH239135   5.608   5.060   1.943  0.4026 -0.3462  0.1140
 5859TIP3    H139136   5.658   4.980   1.926  0.8984 -0.2609  1.0878
 5859TIP3    H239137   5.559   5.040   2.023  0.7767  0.4226  0.5502
 5860TIP3   OH239138   2.585   5.932   2.625  0.2184 -0.5413 -0.3332
 5860TIP3    H139139   2.536   5.851   2.613  1.6316 -1.7371  1.3642
 5860TIP3    H239140   2.542   5.975   2.699 -0.3761  0.1533 -1.0718
 5861TIP3   OH239141   5.014   0.415   8.716 -0.7155  0.2833  0.8046
 5861TIP3    H139142   5.071   0.348   8.679 -1.2322  0.7636 -0.9283
 5861TIP3    H239143   5.026   0.491   8.660 -0.4975  1.5347  2.4569
 5862TIP3   OH239144   0.456   0.206   0.198  0.1653  0.5446 -0.1078
 5862TIP3    H139145   0.509   0.213   0.118 -0.1650  1.1884 -0.2845
 5862TIP3    H239146   0.478   0.121   0.235  0.8509  0.5405 -0.5145
 5863TIP3   OH239147   0.005   3.680   8.778  0.2949 -0.1047 -0.1797
 5863TIP3    H139148  -0.058   3.640   8.838  0.5730 -0.2262  0.0309
 5863TIP3    H239149   0.023   3.766   8.816  0.2080 -0.0423 -0.2768
 5864TIP3   OH239150   1.575   2.203   1.492 -0.1893  0.7680 -0.6332
 5864TIP3    H139151   1.499   2.151   1.468 -0.8680  1.0271  0.8377
 5864TIP3    H239152   1.552   2.293   1.468  0.3911  0.6206 -1.8159
 5865TIP3   OH239153   6.213   1.257   1.147  0.4271  0.3089 -0.1834
 5865TIP3    H139154   6.236   1.201   1.221  0.3395 -0.3728 -0.6623
 5865TIP3    H239155   6.123   1.232   1.125  0.5506  0.3041 -0.6955
 5866TIP3   OH239156   2.544   3.996   7.973 -0.0794  0.3752 -0.0437
 5866TIP3    H139157   2.587   3.916   7.941  1.5443  0.7620  1.0629
 5866TIP3    H239158   2.598   4.067   7.940 -1.3213  1.0337 -0.7190
 5867TIP3   OH239159   1.162   5.311   8.889  0.0007 -0.1490  0.0077
 5867TIP3    H139160   1.160   5.296   8.984 -1.8066 -0.9490 -0.1177
 5867TIP3    H239161   1.158   5.406   8.880  0.2946 -0.0580  0.7334
 5868TIP3   OH239162   2.046   5.693   2.190  0.4531 -0.1168  0.0795
 5868TIP3    H139163   2.108   5.695   2.117 -1.0044 -1.5170 -1.2840
 5868TIP3    H239164   2.080   5.626   2.249  0.4833 -0.5849 -0.4569
 5869TIP3   OH239165   3.102   2.115   1.513  0.6540 -0.1362  0.8489
 5869TIP3    H139166   3.147   2.092   1.595 -0.0872 -1.5008  0.9079
 5869TIP3    H239167   3.093   2.032   1.467 -1.5763  0.1067  0.7380
 5870TIP3   OH239168   0.663   0.459   1.846  0.1429 -0.5524 -0.7085
 5870TIP3    H139169   0.587   0.508   1.814 -0.5873 -0.6287  0.8388
 5870TIP3    H239170   0.733   0.524   1.853 -0.5035  0.0579  0.2765
 5871TIP3   OH239171   2.495   2.167   8.761  0.1560  0.1414  0.3121
 5871TIP3    H139172   2.550   2.187   8.685 -0.5199 -0.6588 -0.4023
 5871TIP3    H239173   2.461   2.251   8.790  1.4691  0.6097  0.5495
 5872TIP3   OH239174   0.249   0.658   7.834 -0.2598 -0.2666  0.4303
 5872TIP3    H139175   0.325   0.650   7.892 -0.8637 -1.5088  1.0961
 5872TIP3    H239176   0.175   0.672   7.894 -0.5594  1.0918 -0.2199
 5873TIP3   OH239177   2.458   5.099   1.049 -0.0973  0.2257  0.5810
 5873TIP3    H139178   2.425   5.169   1.104  0.5490  1.4386 -0.5294
 5873TIP3    H239179   2.381   5.044   1.031 -0.4965  0.3103  1.8923
 5874TIP3   OH239180   4.591   1.131   7.877 -0.5809 -0.2191 -0.2003
 5874TIP3    H139181   4.663   1.193   7.862 -1.1866  0.2790 -1.1164
 5874TIP3    H239182   4.513   1.186   7.884 -1.2128 -0.8909 -1.6053
 5875TIP3   OH239183   0.237   0.383   0.223 -1.2190 -0.0896 -1.0634
 5875TIP3    H139184   0.307   0.321   0.239 -0.3451  1.4375  1.6035
 5875TIP3    H239185   0.260   0.424   0.139  1.1386  0.3869 -0.2520
 5876TIP3   OH239186   5.383   4.753   2.057  0.5493 -0.3082 -0.6506
 5876TIP3    H139187   5.433   4.833   2.043  0.9137 -0.1818  1.1063
 5876TIP3    H239188   5.449   4.685   2.070  0.2666 -0.4170  0.2691
 5877TIP3   OH239189   4.246   1.570   0.897 -0.3338  0.0843 -0.2238
 5877TIP3    H139190   4.177   1.544   0.837 -0.0173  1.7660 -1.3837
 5877TIP3    H239191   4.242   1.506   0.968 -2.4614 -0.3788 -0.7087
 5878TIP3   OH239192   4.732   0.321   0.880 -0.3742  0.2242  0.3249
 5878TIP3    H139193   4.689   0.404   0.859 -1.4242 -0.2930  0.3764
 5878TIP3    H239194   4.740   0.321   0.975 -0.0750  0.4056  0.3014
 5879TIP3   OH239195   0.536   6.153   1.538 -0.2469  0.1998  0.6328
 5879TIP3    H139196   0.578   6.111   1.463 -3.3970 -0.5649 -0.8710
 5879TIP3    H239197   0.540   6.247   1.517  1.5365  0.2493  1.0545
 5880TIP3   OH239198   2.730   5.674   1.229  0.0467 -0.0855 -0.1800
 5880TIP3    H139199   2.774   5.598   1.192 -0.7041 -0.4668 -0.3148
 5880TIP3    H239200   2.637   5.659   1.212 -0.3356 -0.2938  1.8737
 5881TIP3   OH239201   4.580   3.273   7.425 -0.0039  0.1205  0.3947
 5881TIP3    H139202   4.605   3.332   7.496 -0.4958  1.0650 -0.1869
 5881TIP3    H239203   4.658   3.265   7.370  0.7382 -1.5123  1.5962
 5882TIP3   OH239204   4.599   5.001   8.432  0.5325  0.5981 -0.0627
 5882TIP3    H139205   4.553   5.007   8.349 -0.0730 -1.1268  0.1235
 5882TIP3    H239206   4.533   5.024   8.498  0.8819  1.4877 -0.0075
 5883TIP3   OH239207   6.145   1.563   8.734  0.2283 -0.6418 -0.2064
 5883TIP3    H139208   6.168   1.518   8.653 -1.5513 -1.2492 -0.4370
 5883TIP3    H239209   6.063   1.609   8.713  0.7005  0.6920  0.7375
 5884TIP3   OH239210   0.763   4.070   7.398  0.3438  0.3418  0.2293
 5884TIP3    H139211   0.846   4.035   7.363  0.8814  0.2832  1.5000
 5884TIP3    H239212   0.696   4.011   7.363  0.8218  0.3912 -0.8224
 5885TIP3   OH239213   5.641   4.906   7.903 -0.1704 -0.3690  0.2623
 5885TIP3    H139214   5.726   4.872   7.878  0.8970  0.8694  2.0150
 5885TIP3    H239215   5.659   4.990   7.945 -2.4056  0.7188 -0.7597
 5886TIP3   OH239216   1.844   0.826   0.555  0.1286 -0.1717  0.2829
 5886TIP3    H139217   1.803   0.804   0.471 -1.1574  0.8543  0.6019
 5886TIP3    H239218   1.908   0.757   0.570 -1.7285 -2.0841 -0.1053
 5887TIP3   OH239219   2.707   1.067   7.058 -0.8600 -0.0853  0.4037
 5887TIP3    H139220   2.746   1.149   7.026 -1.5684 -0.0630 -0.4725
 5887TIP3    H239221   2.778   1.004   7.057 -0.4566  0.3638  0.4632
 5888TIP3   OH239222   1.061   0.955   8.041 -0.2170 -0.6947  0.1281
 5888TIP3    H139223   1.051   1.036   7.990  0.9664 -1.0666 -0.7329
 5888TIP3    H239224   1.098   0.984   8.124 -0.8239 -0.2378  0.2505
 5889TIP3   OH239225   0.448   1.157   0.647 -0.1757 -0.1790 -0.0114
 5889TIP3    H139226   0.491   1.072   0.656  1.2996  0.5096 -0.2611
 5889TIP3    H239227   0.512   1.220   0.680 -0.1896  1.0682 -2.1830
 5890TIP3   OH239228   3.314   1.061   2.049  0.7643  0.5222 -0.6822
 5890TIP3    H139229   3.317   1.067   2.145 -1.6837 -0.1318 -0.5033
 5890TIP3    H239230   3.382   0.997   2.027  0.2821 -0.5545  0.7807
 5891TIP3   OH239231   5.607   2.972   0.835 -0.4118 -0.1207  0.1524
 5891TIP3    H139232   5.545   2.989   0.907 -0.1483  1.4146  0.0495
 5891TIP3    H239233   5.559   2.914   0.776 -2.0844  1.6025 -0.2944
 5892TIP3   OH239234   4.616   6.050   7.127  0.3345 -0.1684 -0.5425
 5892TIP3    H139235   4.591   6.142   7.116 -2.5656 -0.6807  0.7827
 5892TIP3    H239236   4.609   6.012   7.039  2.1046  0.9282 -1.2044
 5893TIP3   OH239237   5.356   6.476   0.203  0.1946 -0.0036 -0.0531
 5893TIP3    H139238   5.371   6.446   0.293 -0.9380 -1.4947 -0.3185
 5893TIP3    H239239   5.428   6.439   0.153  0.9370  0.9939  0.2541
 5894TIP3   OH239240   0.557   3.736   2.474 -0.4266 -0.0100  0.1183
 5894TIP3    H139241   0.585   3.825   2.492 -0.0782 -0.4094  1.6857
 5894TIP3    H239242   0.472   3.746   2.429  0.9460  1.1448 -2.4539
 5895TIP3   OH239243   3.547   1.035   1.811 -0.1452  0.2879  0.0372
 5895TIP3    H139244   3.530   0.971   1.880  1.0885 -1.3609 -1.0854
 5895TIP3    H239245   3.547   1.119   1.855 -2.1936 -0.4231  1.5282
 5896TIP3   OH239246   6.222   3.534   8.048 -0.5226 -0.3914 -0.7060
 5896TIP3    H139247   6.287   3.603   8.060  0.3783 -1.2910 -0.3001
 5896TIP3    H239248   6.177   3.529   8.132 -0.5457 -0.3477 -0.7157
 5897TIP3   OH239249   4.148   3.026   0.671 -0.0599 -0.0379  0.2457
 5897TIP3    H139250   4.114   3.097   0.725 -0.8552 -0.2941  0.0888
 5897TIP3    H239251   4.178   3.068   0.591  0.7532  0.2922  0.7116
 5898TIP3   OH239252   4.742   1.954   1.425 -0.4673 -0.6467 -0.7079
 5898TIP3    H139253   4.664   1.951   1.480 -1.9800  0.2689 -2.7080
 5898TIP3    H239254   4.771   2.045   1.429  1.1237 -1.1464  0.7344
 5899TIP3   OH239255   2.152   1.061   6.969 -0.5132  0.6111  0.2656
 5899TIP3    H139256   2.152   1.156   6.985  0.4847  0.7974 -0.7576
 5899TIP3    H239257   2.181   1.023   7.052  0.3110  1.2809  0.3015
 5900TIP3   OH239258   0.299   5.591   6.884  0.0139 -0.5094 -0.1997
 5900TIP3    H139259   0.245   5.670   6.890 -1.6091 -1.6531  2.8514
 5900TIP3    H239260   0.264   5.544   6.809 -0.9567  0.3782 -0.3328
 5901TIP3   OH239261   2.435   2.452   7.495 -0.3363  0.1969  0.2093
 5901TIP3    H139262   2.497   2.422   7.428 -0.2352  0.2951  0.2593
 5901TIP3    H239263   2.352   2.458   7.449 -0.3613 -0.1713  0.1997
 5902TIP3   OH239264   4.483   3.102   1.651 -0.3986 -0.3553 -0.0047
 5902TIP3    H139265   4.454   3.126   1.563 -1.6155 -1.3625  0.0884
 5902TIP3    H239266   4.503   3.009   1.645 -0.0276 -0.3251  0.6717
 5903TIP3   OH239267   3.490   1.422   1.049  0.6129  0.6520  0.2707
 5903TIP3    H139268   3.436   1.387   1.119 -1.4125  1.1538 -0.9785
 5903TIP3    H239269   3.544   1.348   1.021  0.9240  0.2613  1.8273
 5904TIP3   OH239270   4.277   0.553   1.077 -0.1146  0.7796  0.2507
 5904TIP3    H139271   4.204   0.494   1.059 -0.9020  1.6911  0.4154
 5904TIP3    H239272   4.250   0.637   1.040 -0.3234  1.8364  2.6283
 5905TIP3   OH239273   1.930   1.069   0.428  0.3202 -0.0671 -0.2265
 5905TIP3    H139274   2.020   1.038   0.419  0.1447 -1.1516  1.3376
 5905TIP3    H239275   1.884   0.996   0.471 -0.8297  1.2264  0.8032
 5906TIP3   OH239276   1.573   6.458   7.739  0.5357 -0.5026 -0.1925
 5906TIP3    H139277   1.586   6.435   7.647 -0.7607 -0.2787 -0.4540
 5906TIP3    H239278   1.659   6.450   7.779  1.2606  0.0865 -1.5831
 5907TIP3   OH239279   1.607   2.974   6.717  0.0916  0.2345  0.0908
 5907TIP3    H139280   1.611   2.908   6.647 -1.2451  1.0509 -0.7989
 5907TIP3    H239281   1.585   2.923   6.795 -1.9142 -0.3185 -0.7618
 5908TIP3   OH239282   4.590   1.841   8.326 -0.2579 -0.3575 -0.4765
 5908TIP3    H139283   4.641   1.922   8.331  0.6507 -0.8258 -1.6465
 5908TIP3    H239284   4.510   1.860   8.375  1.1671  0.2808  1.7919
 5909TIP3   OH239285   3.873   0.455   1.601  1.1879  0.3232 -0.8319
 5909TIP3    H139286   3.906   0.366   1.586  0.3772 -0.2794  0.7058
 5909TIP3    H239287   3.779   0.443   1.614  1.1877  1.2995  0.1786
 5910TIP3   OH239288   5.304   2.056   0.317 -0.4357 -0.8455 -0.0053
 5910TIP3    H139289   5.382   2.108   0.340 -0.4437 -0.7145 -0.2762
 5910TIP3    H239290   5.252   2.056   0.397 -1.3911  1.2598 -0.5662
 5911TIP3   OH239291   3.814   2.114   8.623  0.5428  0.0171  0.2893
 5911TIP3    H139292   3.719   2.122   8.620  0.1327 -3.3562  1.2013
 5911TIP3    H239293   3.843   2.194   8.668 -1.7580  1.3411 -0.4157
 5912TIP3   OH239294   0.199   5.298   7.799  0.1804  0.2365 -0.4668
 5912TIP3    H139295   0.187   5.390   7.776  2.6897  0.4625 -1.1681
 5912TIP3    H239296   0.117   5.273   7.841 -0.3971  2.9325  0.2112
 5913TIP3   OH239297   0.698   0.596   6.889 -0.1316 -0.0363 -0.6119
 5913TIP3    H139298   0.772   0.645   6.854 -1.6721  2.1830 -0.9817
 5913TIP3    H239299   0.657   0.556   6.812 -0.5912  0.6244 -0.7209
 5914TIP3   OH239300   0.852   6.727   1.570 -0.3140  0.3376  0.4118
 5914TIP3    H139301   0.892   6.790   1.629 -2.8059  0.2684  2.3328
 5914TIP3    H239302   0.830   6.779   1.492  0.0713  1.2261  0.8728
 5915TIP3   OH239303   0.607   3.295   7.819  0.0101  0.3033 -0.2467
 5915TIP3    H139304   0.523   3.341   7.828 -1.1368 -1.8290  0.6006
 5915TIP3    H239305   0.673   3.364   7.825 -1.5991  1.7821  1.3890
 5916TIP3   OH239306   1.959   1.839   6.808 -0.2583  0.0569  0.2342
 5916TIP3    H139307   2.038   1.838   6.862 -0.0970  1.3590  0.0450
 5916TIP3    H239308   1.954   1.928   6.774 -2.4496  0.3690  1.1809
 5917TIP3   OH239309   4.424   2.261   7.723  0.3326  0.4492 -0.3876
 5917TIP3    H139310   4.376   2.180   7.741 -1.1626  0.6779 -2.8158
 5917TIP3    H239311   4.423   2.308   7.806  0.3046 -1.5281  0.8087
 5918TIP3   OH239312   5.898   3.811   6.893  0.0043 -0.0634 -0.0625
 5918TIP3    H139313   5.859   3.874   6.832 -0.8026 -0.4394  0.0559
 5918TIP3    H239314   5.881   3.847   6.979  0.3122 -0.0081 -0.0233
 5919TIP3   OH239315   2.965   4.100   0.323  0.3113 -0.1939  0.2862
 5919TIP3    H139316   3.056   4.096   0.294 -0.2375 -1.1931 -1.4508
 5919TIP3    H239317   2.966   4.163   0.395  2.2877  0.1896 -0.0064
 5920TIP3   OH239318   3.428   4.338   1.158 -0.1757  0.2181  0.4071
 5920TIP3    H139319   3.438   4.410   1.095  0.9410 -0.7243 -0.5291
 5920TIP3    H239320   3.371   4.276   1.114  0.1383 -0.1794  0.5567
 5921TIP3   OH239321   2.158   2.590   0.671  0.3160  0.2683  0.0484
 5921TIP3    H139322   2.069   2.577   0.640 -0.5802  1.3689  1.9523
 5921TIP3    H239323   2.160   2.548   0.757  1.7705 -0.0753 -0.1188
 5922TIP3   OH239324   0.099   2.012   7.724 -0.0179 -0.7366 -0.3600
 5922TIP3    H139325   0.182   2.013   7.677  0.2000 -1.3530 -0.0051
 5922TIP3    H239326   0.105   2.085   7.786 -0.5506  0.4638 -1.6632
 5923TIP3   OH239327   4.750   6.657   0.141  0.0578  0.1496 -0.4759
 5923TIP3    H139328   4.666   6.699   0.159  0.5676  0.7812  0.5254
 5923TIP3    H239329   4.755   6.653   0.046 -1.3465 -0.4117 -0.5531
 5924TIP3   OH239330   0.915   5.000   0.692 -0.3368  0.1426 -0.3237
 5924TIP3    H139331   0.913   5.014   0.598  0.8564  1.1168 -0.2411
 5924TIP3    H239332   0.999   4.956   0.708 -0.9793 -0.9227  0.1841
 5925TIP3   OH239333   4.679   2.367   0.820  0.3029  0.2568 -0.4710
 5925TIP3    H139334   4.632   2.286   0.802 -0.4837  1.2016 -3.2472
 5925TIP3    H239335   4.761   2.340   0.860 -0.4326 -1.8117 -0.2765
 5926TIP3   OH239336   0.441   5.269   7.956  0.3260 -0.2751  0.1842
 5926TIP3    H139337   0.419   5.181   7.988 -0.0722 -0.3213 -0.2090
 5926TIP3    H239338   0.366   5.295   7.904  1.3332 -0.5865 -1.5032
 5927TIP3   OH239339   3.008   6.696   0.961  0.1740 -0.0298  0.7343
 5927TIP3    H139340   2.999   6.791   0.969  2.6344  0.2911  0.4126
 5927TIP3    H239341   3.046   6.683   0.874  3.3341 -0.9522  2.1034
 5928TIP3   OH239342   4.983   1.076   1.812  0.4413  0.1991  0.3923
 5928TIP3    H139343   5.066   1.090   1.857 -0.9285 -1.8524  3.9432
 5928TIP3    H239344   4.918   1.123   1.864 -0.9636 -0.0965 -0.9976
 5929TIP3   OH239345   3.807   4.505   1.816 -0.0746  0.1357 -0.3375
 5929TIP3    H139346   3.806   4.544   1.729 -2.3224 -1.4148 -1.0951
 5929TIP3    H239347   3.845   4.573   1.873  1.5674  1.1248 -2.4839
 5930TIP3   OH239348   5.009   3.173   2.408  0.5426  0.1514 -0.5295
 5930TIP3    H139349   4.995   3.179   2.502 -2.0031 -0.6162 -0.7779
 5930TIP3    H239350   4.982   3.258   2.374  2.6029  0.8564 -0.5052
 5931TIP3   OH239351   2.209   2.933   8.005 -0.4519 -0.1346  0.1283
 5931TIP3    H139352   2.252   2.910   7.922  1.3143 -0.8466  1.1729
 5931TIP3    H239353   2.241   3.021   8.025  0.6408 -0.6810  0.9273
 5932TIP3   OH239354   3.320   4.086   7.590  0.3853 -0.5932 -0.2619
 5932TIP3    H139355   3.378   4.110   7.517 -0.6624  0.5505 -0.7453
 5932TIP3    H239356   3.357   4.130   7.666  1.8242 -2.2541  0.0910
 5933TIP3   OH239357   6.036   0.335   8.760 -0.0685 -0.4150 -0.3158
 5933TIP3    H139358   6.003   0.368   8.843  0.5746 -1.1328  0.2420
 5933TIP3    H239359   6.131   0.345   8.766  0.0487 -1.2516 -0.6098
 5934TIP3   OH239360   5.856   1.996   7.904  0.3204 -0.2589  0.4456
 5934TIP3    H139361   5.760   1.993   7.907  0.2809 -0.9688 -0.7820
 5934TIP3    H239362   5.876   2.023   7.814  1.2726 -0.8500  0.4714
 5935TIP3   OH239363   3.459   1.563   0.168 -1.2328  0.4517  0.3220
 5935TIP3    H139364   3.474   1.476   0.204 -0.2904  0.4092 -0.1592
 5935TIP3    H239365   3.510   1.565   0.088 -1.5039  1.3413  0.1621
 5936TIP3   OH239366   0.955   0.573   7.645 -0.4801 -0.5748  0.3881
 5936TIP3    H139367   0.955   0.478   7.631 -0.4951 -0.5978  0.5430
 5936TIP3    H239368   0.911   0.584   7.729  0.0494 -0.4710  0.6506
 5937TIP3   OH239369   5.703   4.535   1.762 -0.6848  0.2185 -0.3347
 5937TIP3    H139370   5.739   4.567   1.678  1.7065 -0.9402  0.1546
 5937TIP3    H239371   5.625   4.486   1.737  0.8961 -1.5898 -2.2066
 5938TIP3   OH239372   2.898   0.653   1.526  0.3857 -0.0948 -0.0398
 5938TIP3    H139373   2.918   0.586   1.461 -0.3386  0.6414 -1.0484
 5938TIP3    H239374   2.960   0.723   1.509  1.7691 -0.8592  1.6244
 5939TIP3   OH239375   5.949   0.941   7.908 -1.0383  0.3668 -1.3154
 5939TIP3    H139376   5.890   0.991   7.963  0.9177  0.2651  1.0560
 5939TIP3    H239377   6.030   0.993   7.905 -0.1462 -0.9681 -1.7297
 5940TIP3   OH239378   0.556   0.452   1.353  0.4902  0.1633 -0.3253
 5940TIP3    H139379   0.523   0.498   1.430  2.1433  0.8522  0.0227
 5940TIP3    H239380   0.613   0.516   1.310  1.7198 -1.0806 -0.6141
 5941TIP3   OH239381   3.033   4.626   8.233 -0.8796 -0.5193 -0.2582
 5941TIP3    H139382   3.073   4.671   8.307 -2.2697 -1.4163  1.0837
 5941TIP3    H239383   3.098   4.633   8.163  0.3388  0.6154  0.9290
 5942TIP3   OH239384   5.836   1.691   1.184 -0.7224 -0.2549 -0.2993
 5942TIP3    H139385   5.852   1.682   1.278  3.5810  1.6866 -0.6171
 5942TIP3    H239386   5.841   1.602   1.150 -0.5182 -0.8073  1.0997
 5943TIP3   OH239387   1.957   1.533   0.231  0.3096  0.2438 -1.0879
 5943TIP3    H139388   1.934   1.447   0.266 -0.6771  0.1763 -1.8491
 5943TIP3    H239389   1.893   1.593   0.270  0.6742  0.5487 -0.9521
 5944TIP3   OH239390   2.348   3.365   7.436 -0.1599 -0.2218 -0.2695
 5944TIP3    H139391   2.272   3.415   7.406 -0.8437  0.4528  2.3242
 5944TIP3    H239392   2.322   3.274   7.425 -1.5605 -0.0107  0.9751
 5945TIP3   OH239393   2.454   0.226   7.765  0.6379 -0.1458 -0.8244
 5945TIP3    H139394   2.487   0.137   7.761  1.1829  0.0761 -1.2893
 5945TIP3    H239395   2.531   0.281   7.776  0.2019  0.1743  1.1465
 5946TIP3   OH239396   5.814   1.479   8.110 -0.7095  0.2057  0.5122
 5946TIP3    H139397   5.816   1.508   8.019  0.1426 -0.4419  0.3093
 5946TIP3    H239398   5.769   1.395   8.108  2.3207 -1.5753  0.0935
 5947TIP3   OH239399   1.096   3.400   6.447  0.5151  0.6589  0.0085
 5947TIP3    H139400   1.140   3.485   6.450  0.8508  0.4600  0.8579
 5947TIP3    H239401   1.129   3.353   6.523  1.9005 -1.0289 -1.5641
 5948TIP3   OH239402   0.430   5.246   0.364  0.3844  0.2678 -0.5354
 5948TIP3    H139403   0.334   5.247   0.363  0.3511 -0.5258  0.0645
 5948TIP3    H239404   0.452   5.153   0.358  1.1676  0.5546 -2.5638
 5949TIP3   OH239405   3.271   0.892   8.402 -0.1164  0.7362 -0.1482
 5949TIP3    H139406   3.251   0.830   8.332 -3.7885 -1.8968  2.8638
 5949TIP3    H239407   3.261   0.978   8.362 -2.3291 -0.6264 -2.8031
 5950TIP3   OH239408   1.548   4.942   1.259 -0.0415 -0.0551  0.4331
 5950TIP3    H139409   1.639   4.913   1.254 -0.8737 -3.0172  0.0594
 5950TIP3    H239410   1.520   4.917   1.348 -0.8231 -0.4521  0.0903
 5951TIP3   OH239411   3.538   5.774   7.517 -0.3752  0.2508  0.7160
 5951TIP3    H139412   3.538   5.857   7.470  0.9581  0.9444  1.8567
 5951TIP3    H239413   3.470   5.785   7.584 -2.7525 -0.9850 -1.3097
 5952TIP3   OH239414   3.396   4.912   0.254  0.0157 -0.4591  0.5939
 5952TIP3    H139415   3.386   4.983   0.190 -2.2124 -0.7051  0.5960
 5952TIP3    H239416   3.380   4.954   0.339  0.3708 -0.6330  0.7456
 5953TIP3   OH239417   4.539   3.224   8.107 -0.1142  0.1785 -0.2842
 5953TIP3    H139418   4.528   3.303   8.055 -1.3251  0.8017  0.8521
 5953TIP3    H239419   4.551   3.154   8.042  1.1529  1.2833 -1.2965
 5954TIP3   OH239420   1.803   5.034   0.254  0.4092  0.3001  0.1708
 5954TIP3    H139421   1.733   5.071   0.308  0.4925  0.2171  0.3382
 5954TIP3    H239422   1.768   4.952   0.221  0.3420  0.3722  0.0647
 5955TIP3   OH239423   2.256   0.915   7.169  0.0005  0.4235 -0.2979
 5955TIP3    H139424   2.249   0.918   7.264 -1.3479  2.2690 -0.4146
 5955TIP3    H239425   2.226   0.827   7.146  2.3240 -0.8256  1.0490
 5956TIP3   OH239426   4.064   1.646   8.705 -0.0708  0.3142  0.1612
 5956TIP3    H139427   4.039   1.631   8.614 -2.1687  3.0102  0.1852
 5956TIP3    H239428   4.101   1.734   8.707 -1.8659  1.1214  2.1687
 5957TIP3   OH239429   3.181   3.383   7.492  0.1918 -0.1846 -0.3494
 5957TIP3    H139430   3.171   3.314   7.558  1.1513 -0.4300 -0.4441
 5957TIP3    H239431   3.141   3.347   7.413 -0.2639 -0.1994 -0.1150
 5958TIP3   OH239432   3.001   4.692   1.482 -0.3740 -0.1570  0.0509
 5958TIP3    H139433   3.079   4.745   1.499  0.1353 -1.0956  0.7790
 5958TIP3    H239434   2.986   4.644   1.564 -0.3928 -1.6260 -0.7709
 5959TIP3   OH239435   4.190   6.696   8.457 -0.2311 -0.4222  0.7050
 5959TIP3    H139436   4.127   6.624   8.459  0.1321 -0.8155 -0.7339
 5959TIP3    H239437   4.271   6.656   8.423  0.1217  0.5453  0.3721
 5960TIP3   OH239438   3.825   4.790   1.876 -0.2741 -0.1273 -0.6353
 5960TIP3    H139439   3.744   4.831   1.846  0.1795  1.5842  0.3538
 5960TIP3    H239440   3.884   4.864   1.896  0.3255 -1.2005  1.9382
 5961TIP3   OH239441   5.540   1.309   7.434 -0.1946  0.4615 -0.2754
 5961TIP3    H139442   5.625   1.283   7.469 -0.2958  2.3798  1.6251
 5961TIP3    H239443   5.560   1.381   7.374 -0.3046 -0.8321 -1.9455
 5962TIP3   OH239444   1.805   6.062   8.406  0.1398  0.4718  0.3237
 5962TIP3    H139445   1.854   6.143   8.388  0.0570  0.0469 -2.0579
 5962TIP3    H239446   1.871   5.993   8.406 -0.3430 -0.2480 -3.8876
 5963TIP3   OH239447   4.793   3.353   0.153  0.2326  0.2955  0.6131
 5963TIP3    H139448   4.851   3.325   0.083 -0.4981 -1.3679  0.6378
 5963TIP3    H239449   4.825   3.309   0.231 -1.5061 -1.3349  0.4710
 5964TIP3   OH239450   3.103   2.594   8.226 -0.2615 -0.4340  0.0353
 5964TIP3    H139451   3.088   2.514   8.276 -0.9466  0.2008  0.8834
 5964TIP3    H239452   3.191   2.623   8.251 -1.5104  1.2871  3.0251
 5965TIP3   OH239453   1.005   6.097   6.647 -0.0357  0.3641 -0.1204
 5965TIP3    H139454   0.967   6.146   6.719 -0.3641 -0.2023  0.1009
 5965TIP3    H239455   0.985   6.005   6.667  1.2731  0.0673 -0.0977
 5966TIP3   OH239456   3.066   1.548   7.171 -0.8696 -0.2747 -0.2881
 5966TIP3    H139457   2.995   1.504   7.219  1.1214 -0.6164  2.6198
 5966TIP3    H239458   3.110   1.478   7.123 -0.0605 -0.8549  1.2287
 5967TIP3   OH239459   5.308   5.489   8.816 -0.6864 -0.2051 -0.1806
 5967TIP3    H139460   5.218   5.481   8.847 -0.6783 -0.9975 -0.3526
 5967TIP3    H239461   5.346   5.402   8.826  0.1905  0.1994  0.2529
 5968TIP3   OH239462   6.490   1.249   1.665 -0.2667 -0.3091  0.1611
 5968TIP3    H139463   6.496   1.181   1.733  2.6580  0.1024  0.4306
 5968TIP3    H239464   6.562   1.231   1.606 -2.2664 -0.1726 -2.5226
 5969TIP3   OH239465   1.655   6.457   1.616 -0.5959 -0.0467 -1.0232
 5969TIP3    H139466   1.612   6.526   1.666  0.5513 -0.2722  0.3423
 5969TIP3    H239467   1.606   6.377   1.638  0.8332 -0.4395  1.1282
 5970TIP3   OH239468   4.142   4.057   1.182  0.0178 -0.0075  0.4333
 5970TIP3    H139469   4.197   4.016   1.116  0.1897  0.2489  0.4174
 5970TIP3    H239470   4.085   4.115   1.132  0.5209  0.6007  0.5636
 5971TIP3   OH239471   2.386   5.760   0.795 -0.1872 -0.0201  0.3631
 5971TIP3    H139472   2.332   5.713   0.731  0.0901 -1.1331  0.9083
 5971TIP3    H239473   2.374   5.852   0.775  0.3066 -0.3536 -1.6245
 5972TIP3   OH239474   3.149   0.592   1.770 -0.2762  0.6633  0.4258
 5972TIP3    H139475   3.203   0.661   1.731  0.6947 -0.5493 -0.4766
 5972TIP3    H239476   3.117   0.630   1.852  0.5256  2.0449  0.1345
 5973TIP3   OH239477   1.768   4.556   0.491  0.7477 -0.1160  0.0503
 5973TIP3    H139478   1.684   4.567   0.535 -0.0616  1.1824 -1.7077
 5973TIP3    H239479   1.822   4.627   0.525  0.4765  0.2489 -0.2800
 5974TIP3   OH239480   2.803   1.392   8.565 -0.6239  0.1588  0.0268
 5974TIP3    H139481   2.807   1.488   8.562 -0.8265  0.1895  0.5366
 5974TIP3    H239482   2.800   1.365   8.474 -1.3058  0.6771 -0.1147
 5975TIP3   OH239483   1.745   5.437   7.093  0.1362  0.1982  0.1608
 5975TIP3    H139484   1.694   5.473   7.021  0.0736 -0.3683 -0.0832
 5975TIP3    H239485   1.761   5.512   7.151  0.7028  0.7973 -0.7351
 5976TIP3   OH239486   3.237   6.539   8.574 -0.1141 -0.0036 -0.2705
 5976TIP3    H139487   3.168   6.481   8.606  1.0061 -0.5798  1.1958
 5976TIP3    H239488   3.189   6.610   8.529 -1.6530 -0.3671  0.7079
 5977TIP3   OH239489   3.136   3.473   7.002  0.2521  0.0955  0.5125
 5977TIP3    H139490   3.209   3.483   7.064  1.1480 -2.0970 -0.0717
 5977TIP3    H239491   3.114   3.380   7.008 -2.9388  0.7900  1.0817
 5978TIP3   OH239492   3.529   4.168   7.385 -0.0590 -0.2730  0.1803
 5978TIP3    H139493   3.567   4.131   7.305 -0.5406 -0.5079  0.0592
 5978TIP3    H239494   3.590   4.238   7.409 -1.1232  1.4281 -1.7527
 5979TIP3   OH239495   1.718   6.131   2.163 -1.0719  0.2575  0.2476
 5979TIP3    H139496   1.786   6.124   2.230 -1.4339  0.6516  0.6612
 5979TIP3    H239497   1.750   6.198   2.103  0.8089 -2.2941 -1.8454
 5980TIP3   OH239498   5.561   2.750   7.340  0.0840 -0.6640 -0.3445
 5980TIP3    H139499   5.512   2.773   7.261  1.0588  0.0377 -0.7668
 5980TIP3    H239500   5.586   2.834   7.378  0.8356 -1.0072 -0.0670
 5981TIP3   OH239501   1.783   0.007   7.328 -0.4126 -0.4312  0.2033
 5981TIP3    H139502   1.708  -0.011   7.271 -0.3799 -2.2393  0.6698
 5981TIP3    H239503   1.860  -0.015   7.274 -0.2525  0.2663  0.1312
 5982TIP3   OH239504   0.288   2.949   1.489 -0.7258 -0.4170 -0.0538
 5982TIP3    H139505   0.309   2.903   1.570  1.2442  1.1352  0.3821
 5982TIP3    H239506   0.242   3.028   1.517 -1.9159 -0.8732 -0.6336
 5983TIP3   OH239507   5.025   3.904   0.750  0.1226  0.2531  0.2466
 5983TIP3    H139508   4.999   3.902   0.842  0.1804 -1.9850  0.2730
 5983TIP3    H239509   4.992   3.988   0.717 -1.8058  0.1494  1.7561
 5984TIP3   OH239510   5.703   2.846   7.927  0.1119  0.6277  0.3103
 5984TIP3    H139511   5.656   2.892   7.857 -0.2903  0.5959  0.5559
 5984TIP3    H239512   5.741   2.770   7.884 -0.5924  0.3080  0.2319
 5985TIP3   OH239513   0.952   3.760   6.732  0.5465  0.0477  0.2380
 5985TIP3    H139514   0.895   3.774   6.656  1.7810  2.2010 -0.3818
 5985TIP3    H239515   1.040   3.761   6.695  1.1721  1.0732  1.6874
 5986TIP3   OH239516   2.791   1.608   0.392  0.0508  0.6299  0.2454
 5986TIP3    H139517   2.797   1.547   0.319  1.3037  0.7352  0.2413
 5986TIP3    H239518   2.795   1.553   0.470 -0.0290  0.6132  0.2375
 5987TIP3   OH239519   4.733   6.609   6.802  0.2346 -0.0133  0.3139
 5987TIP3    H139520   4.752   6.695   6.764 -1.2990  0.9440  1.5984
 5987TIP3    H239521   4.705   6.555   6.728  0.3401  0.8532 -0.3673
 5988TIP3   OH239522   2.781   0.843   8.085  0.2422 -0.3624  0.1912
 5988TIP3    H139523   2.857   0.789   8.110  0.3977  0.2137  0.9942
 5988TIP3    H239524   2.715   0.822   8.151 -0.0315 -0.3023 -0.0673
 5989TIP3   OH239525   6.526   0.141   7.284  0.1897 -0.2683  0.4275
 5989TIP3    H139526   6.511   0.046   7.282 -0.9685 -0.1210  0.9089
 5989TIP3    H239527   6.506   0.170   7.195 -2.2738 -0.1377  0.9462
 5990TIP3   OH239528   1.980   4.843   8.450 -0.0788  0.2945 -0.7450
 5990TIP3    H139529   1.936   4.902   8.510  0.9318 -1.3462  1.8017
 5990TIP3    H239530   2.073   4.849   8.473  0.2771 -0.8823 -1.6924
 5991TIP3   OH239531   1.722   0.480   7.754 -0.6422 -0.8003  0.3974
 5991TIP3    H139532   1.639   0.514   7.722 -0.1449 -0.5769 -0.7167
 5991TIP3    H239533   1.710   0.385   7.758 -0.2453 -1.0398 -2.1046
 5992TIP3   OH239534   2.837   2.334   1.200  0.2102  0.0544  0.5849
 5992TIP3    H139535   2.873   2.252   1.166  0.5862  0.6567 -0.5138
 5992TIP3    H239536   2.872   2.341   1.289 -3.3182 -3.1553  2.5072
 5993TIP3   OH239537   6.705   6.683   0.547  0.2921  0.0163  0.3145
 5993TIP3    H139538   6.646   6.721   0.612  0.7149 -1.1266  1.4158
 5993TIP3    H239539   6.726   6.597   0.582  2.3865  0.2737 -0.1971
 5994TIP3   OH239540   0.979   5.376   2.698 -0.2026 -0.4566  0.3328
 5994TIP3    H139541   0.909   5.436   2.675  1.3756  2.0393  1.5141
 5994TIP3    H239542   1.055   5.432   2.713  1.1891 -2.6466  2.4099
 5995TIP3   OH239543   6.718   5.365   7.012  0.6571  0.0118  0.1527
 5995TIP3    H139544   6.780   5.437   7.027  1.3108 -0.8548  1.8942
 5995TIP3    H239545   6.770   5.298   6.968  0.9253 -0.6126  1.3800
 5996TIP3   OH239546   5.756   4.432   7.807 -0.5596 -0.0783 -0.1209
 5996TIP3    H139547   5.818   4.468   7.872 -1.1714  0.7414  0.0181
 5996TIP3    H239548   5.710   4.363   7.855 -0.9087  0.4277  0.2862
 5997TIP3   OH239549   4.440   4.766   0.477 -0.4517 -0.8384  0.1484
 5997TIP3    H139550   4.497   4.786   0.551 -1.5960 -1.0761  1.1223
 5997TIP3    H239551   4.434   4.848   0.429 -0.0680 -0.5585  0.5644
 5998TIP3   OH239552   4.970   4.144   8.103 -0.4173  0.3343 -0.0818
 5998TIP3    H139553   5.009   4.122   8.019  0.9616 -0.5039  0.7381
 5998TIP3    H239554   4.889   4.092   8.106  0.8552 -1.7363  0.1794
 5999TIP3   OH239555   4.545   4.958   0.103  0.2754 -0.3059  0.3139
 5999TIP3    H139556   4.616   4.934   0.162  2.4954 -1.9827 -2.6962
 5999TIP3    H239557   4.589   4.997   0.027 -2.1442 -0.1950 -1.1422
 6000TIP3   OH239558   2.740   6.171   8.122 -0.2211 -0.2980  0.1100
 6000TIP3    H139559   2.671   6.233   8.146  0.5615  0.1918  1.1872
 6000TIP3    H239560   2.803   6.223   8.072 -0.2028 -0.5418 -0.1251
 6001TIP3   OH239561   1.162   0.871   0.664 -0.2596  0.3321 -0.7662
 6001TIP3    H139562   1.251   0.836   0.666 -0.7152 -0.8623 -0.5580
 6001TIP3    H239563   1.152   0.915   0.749 -0.5586 -1.3858  0.1344
 6002TIP3   OH239564   4.047   3.205   6.525  0.6263  0.1838 -0.0537
 6002TIP3    H139565   3.975   3.157   6.566 -0.3556  2.0710  0.5509
 6002TIP3    H239566   4.011   3.291   6.506  2.4617  0.8735 -0.6354
 6003TIP3   OH239567   2.962   5.188   2.026  0.1811 -0.7339  0.1071
 6003TIP3    H139568   2.919   5.137   2.095 -0.7249  1.3589  1.1937
 6003TIP3    H239569   3.041   5.223   2.068  0.4986 -0.7853 -0.4429
 6004TIP3   OH239570   0.528   2.388   0.621  0.5873 -0.2245  0.4757
 6004TIP3    H139571   0.438   2.420   0.614  1.6945  3.0833 -0.2832
 6004TIP3    H239572   0.523   2.318   0.686 -2.5450 -0.3838  0.2351
 6005TIP3   OH239573   1.833   4.821   0.846  0.3488  0.4251  0.1306
 6005TIP3    H139574   1.760   4.849   0.792 -0.8073 -1.3322  0.6889
 6005TIP3    H239575   1.901   4.886   0.830 -0.6691  1.0892 -1.8362
 6006TIP3   OH239576   0.065   6.377   2.248 -0.2554  0.4258  0.3480
 6006TIP3    H139577   0.080   6.283   2.246 -0.7442  0.3525 -0.2031
 6006TIP3    H239578   0.100   6.409   2.165 -1.8195  0.4398 -0.3491
 6007TIP3   OH239579   1.471   4.631   8.882 -0.3589  0.3300  0.3512
 6007TIP3    H139580   1.408   4.697   8.908 -1.9515 -1.2164  0.5826
 6007TIP3    H239581   1.508   4.599   8.965 -1.3489 -0.7153  0.4016
 6008TIP3   OH239582   6.322   0.666   2.112  0.3839 -0.2321 -0.7224
 6008TIP3    H139583   6.279   0.680   2.028 -0.3708  0.7530 -0.1984
 6008TIP3    H239584   6.269   0.715   2.175 -0.1498 -2.4014  0.6576
 6009TIP3   OH239585   3.211   1.353   7.053  0.2314  0.4110 -0.2632
 6009TIP3    H139586   3.219   1.377   6.961  1.8941  1.2138  0.0472
 6009TIP3    H239587   3.293   1.383   7.093 -0.2063 -0.4224  1.3704
 6010TIP3   OH239588   2.764   5.944   8.445 -0.3725 -0.0753 -0.3498
 6010TIP3    H139589   2.709   5.873   8.477  0.6816 -0.7164  0.0698
 6010TIP3    H239590   2.718   5.977   8.367 -0.7715 -1.3488 -0.6692
 6011TIP3   OH239591   0.399   6.358   2.259 -0.2521 -0.7106  0.1289
 6011TIP3    H139592   0.429   6.373   2.169  0.4032  1.6443  0.6536
 6011TIP3    H239593   0.415   6.265   2.275  1.0349 -0.8564 -1.7001
 6012TIP3   OH239594   6.611   0.842   7.988 -0.4589  0.0930  0.0763
 6012TIP3    H139595   6.602   0.882   8.074 -0.0064  0.3961 -0.0088
 6012TIP3    H239596   6.678   0.775   7.999 -0.5082  0.0296 -0.0053
 6013TIP3   OH239597   3.271   1.151   8.605  0.1486 -0.7762  0.6031
 6013TIP3    H139598   3.249   1.066   8.645 -0.3129 -0.0162  2.0327
 6013TIP3    H239599   3.190   1.180   8.563 -0.9933  0.7622  3.5576
 6014TIP3   OH239600   1.750   0.780   0.277  0.1673  0.0009  0.2867
 6014TIP3    H139601   1.679   0.813   0.222 -0.1400 -3.6494 -1.8043
 6014TIP3    H239602   1.830   0.802   0.228  0.3975  1.9180  1.4224
 6015TIP3   OH239603   1.587   4.615   1.512 -0.1291  0.0433 -0.1805
 6015TIP3    H139604   1.516   4.587   1.454 -0.4782 -1.6926  0.9946
 6015TIP3    H239605   1.666   4.611   1.458 -0.4494 -1.4990 -0.5793
 6016TIP3   OH239606   5.316   2.180   8.413  0.4523  0.6964 -0.1387
 6016TIP3    H139607   5.380   2.180   8.342 -0.3490  2.0613 -0.9015
 6016TIP3    H239608   5.369   2.188   8.492  1.3209 -0.1997 -0.5961
 6017TIP3   OH239609   6.730   6.314   8.442  0.0954  0.6047  0.0729
 6017TIP3    H139610   6.733   6.227   8.402 -1.1935  1.0713 -1.1157
 6017TIP3    H239611   6.729   6.374   8.368  2.2687  1.7503  0.8714
 6018TIP3   OH239612   5.772   1.233   8.285  0.3673 -0.0337  0.3999
 6018TIP3    H139613   5.793   1.142   8.267  1.6346  0.0461  1.3222
 6018TIP3    H239614   5.837   1.260   8.350 -0.5016  1.2860  0.7579
 6019TIP3   OH239615   4.388   4.805   8.797 -0.3797 -0.3893  0.2606
 6019TIP3    H139616   4.441   4.725   8.808  0.1657  0.0612  1.0492
 6019TIP3    H239617   4.432   4.870   8.853 -2.4563 -0.3325  1.9452
 6020TIP3   OH239618   6.553   0.842   2.213  0.4255  0.4206 -0.4530
 6020TIP3    H139619   6.462   0.846   2.184  0.8505  1.0809 -1.7681
 6020TIP3    H239620   6.575   0.748   2.213  0.3278  0.3600 -2.1202
 6021TIP3   OH239621   2.640   6.252   2.439  0.1614  0.5822  0.5409
 6021TIP3    H139622   2.685   6.314   2.496 -1.1014  1.9504  0.1057
 6021TIP3    H239623   2.550   6.284   2.434 -1.0483 -2.3077  1.7356
 6022TIP3   OH239624   4.703   2.620   1.865 -0.8789 -0.1156 -0.3360
 6022TIP3    H139625   4.709   2.586   1.776 -1.9254  0.5549 -0.6847
 6022TIP3    H239626   4.647   2.557   1.911 -1.3420  0.1711 -0.4960
 6023TIP3   OH239627   2.127   5.490   7.954 -0.1856  0.1445 -0.1945
 6023TIP3    H139628   2.104   5.495   7.862 -2.2930 -3.8132 -0.1022
 6023TIP3    H239629   2.064   5.547   7.998 -0.1547  0.8638 -1.0549
 6024TIP3   OH239630   5.004   0.824   0.840 -0.4781  0.4852 -0.1803
 6024TIP3    H139631   4.913   0.853   0.852 -0.3729  0.4391  0.7963
 6024TIP3    H239632   5.022   0.769   0.916  0.3007  0.3099 -0.4816
 6025TIP3   OH239633   3.737   5.039   7.600 -0.0956 -0.2374 -0.0616
 6025TIP3    H139634   3.803   5.106   7.615  0.7893 -1.0234 -0.3509
 6025TIP3    H239635   3.674   5.080   7.540  1.0939 -0.0782 -1.2276
 6026TIP3   OH239636   0.818   2.348   8.077  0.8413  0.1285  0.2783
 6026TIP3    H139637   0.755   2.347   8.005  1.9144  0.2167 -0.7087
 6026TIP3    H239638   0.779   2.294   8.145 -0.2711  0.1687 -0.3106
 6027TIP3   OH239639   5.156   2.017   0.543  0.2902 -0.0118  0.2622
 6027TIP3    H139640   5.152   2.051   0.633 -0.3854 -0.2514  0.3338
 6027TIP3    H239641   5.193   1.929   0.553  0.1782 -0.0533  0.3086
 6028TIP3   OH239642   4.048   1.922   7.536 -0.3786  0.0272  0.0025
 6028TIP3    H139643   3.976   1.895   7.480  0.0488 -0.3056 -0.3988
 6028TIP3    H239644   4.097   1.986   7.484 -0.3734  0.2381  0.2627
 6029TIP3   OH239645   5.639   4.015   7.650 -0.2214 -0.7585 -0.6282
 6029TIP3    H139646   5.723   3.982   7.680 -0.5752  0.3312  1.7877
 6029TIP3    H239647   5.661   4.095   7.600  0.1918 -0.5279 -0.0853
 6030TIP3   OH239648   2.453   0.733   7.291  0.2355 -0.2811  0.5813
 6030TIP3    H139649   2.470   0.776   7.375 -0.7845 -1.2895  1.3323
 6030TIP3    H239650   2.358   0.739   7.279  0.5796  2.1529 -1.8114
 6031TIP3   OH239651   6.549   4.599   8.854 -0.5283 -0.8082 -0.2378
 6031TIP3    H139652   6.569   4.508   8.832  1.2578 -0.8038  1.1193
 6031TIP3    H239653   6.556   4.646   8.771  0.7188 -1.5882 -0.6044
 6032TIP3   OH239654   4.733   3.590   7.569  0.9084 -0.0408  0.0814
 6032TIP3    H139655   4.647   3.557   7.595  0.7094  0.7953  0.5340
 6032TIP3    H239656   4.720   3.621   7.479  0.9380 -0.6166 -0.1224
 6033TIP3   OH239657   5.497   2.361   1.257  1.0658 -0.3607  0.2994
 6033TIP3    H139658   5.505   2.423   1.329  0.1282 -0.4654  0.5041
 6033TIP3    H239659   5.567   2.297   1.273  2.8151  1.2419 -0.5685
 6034TIP3   OH239660   0.957   1.889   8.331 -0.4142 -0.5112  0.6258
 6034TIP3    H139661   0.920   1.894   8.243 -0.7341  1.3355  0.8402
 6034TIP3    H239662   1.032   1.830   8.322  0.2365  0.5273 -1.1311
 6035TIP3   OH239663   2.279   0.295   8.015 -0.2335 -0.5473 -0.0422
 6035TIP3    H139664   2.262   0.384   8.047 -0.9807 -0.9234  0.6473
 6035TIP3    H239665   2.374   0.291   8.004  0.0642 -0.3333  2.0080
 6036TIP3   OH239666   0.608   5.746   8.732  0.1556  0.4103 -0.2940
 6036TIP3    H139667   0.573   5.756   8.821 -1.2339  2.2122 -0.9891
 6036TIP3    H239668   0.634   5.834   8.707  0.3840 -0.0492 -1.7477
 6037TIP3   OH239669   0.642   3.055   8.605  0.2590 -0.4645  0.3865
 6037TIP3    H139670   0.725   3.020   8.638  0.1436 -0.9436  0.1698
 6037TIP3    H239671   0.662   3.146   8.584  0.9488 -0.7989 -0.4369
 6038TIP3   OH239672   1.641   4.461   6.646  0.0516 -0.8516  0.0775
 6038TIP3    H139673   1.583   4.463   6.570  0.0962 -2.3791 -0.0427
 6038TIP3    H239674   1.729   4.473   6.609 -0.0346 -0.3394  0.0393
 6039TIP3   OH239675   4.193   3.358   1.209 -0.2797 -0.0205  0.3207
 6039TIP3    H139676   4.181   3.334   1.117 -1.0151  0.1537  0.3649
 6039TIP3    H239677   4.252   3.291   1.244 -0.5861 -0.5162 -0.0982
 6040TIP3   OH239678   1.260   4.730   0.168 -0.0487 -0.6000  0.0160
 6040TIP3    H139679   1.166   4.742   0.179 -0.7811 -2.9389 -2.5464
 6040TIP3    H239680   1.272   4.635   0.158  2.2063 -0.2233 -2.0912
 6041TIP3   OH239681   0.258   5.881   7.868 -0.0721  0.1862  0.0291
 6041TIP3    H139682   0.333   5.848   7.918 -1.1830  0.3620  1.9098
 6041TIP3    H239683   0.278   5.974   7.854  0.1497  0.1915  0.3619
 6042TIP3   OH239684   1.449   5.354   0.293 -0.0943 -0.0317  0.2050
 6042TIP3    H139685   1.426   5.381   0.204  0.5804 -0.0532  0.0127
 6042TIP3    H239686   1.505   5.425   0.326  0.1362 -0.2961  0.3917
 6043TIP3   OH239687   1.991   1.880   0.844  0.1455  0.3395 -0.1333
 6043TIP3    H139688   1.948   1.930   0.775 -1.0039  0.7011  0.8112
 6043TIP3    H239689   1.929   1.809   0.865 -1.0981  2.0770  2.7057
 6044TIP3   OH239690   4.634   5.915   7.361 -0.1420 -0.0023 -0.2590
 6044TIP3    H139691   4.607   5.829   7.328  0.4228 -0.0284 -0.6616
 6044TIP3    H239692   4.630   5.973   7.284 -1.5227  0.5747  0.2261
 6045TIP3   OH239693   2.903   1.546   6.909 -0.2112 -0.2106  0.0138
 6045TIP3    H139694   2.986   1.554   6.955  0.3569 -0.7853 -0.8767
 6045TIP3    H239695   2.921   1.579   6.821 -0.7095 -1.0544 -0.4196
 6046TIP3   OH239696   0.200   0.970   8.019  0.1650  0.6853  0.4790
 6046TIP3    H139697   0.138   1.044   8.019 -0.5288  0.1123  1.0491
 6046TIP3    H239698   0.194   0.935   7.930 -0.7297  0.3154  0.6738
 6047TIP3   OH239699   0.546   1.782   2.629  0.2110 -0.1975 -0.0963
 6047TIP3    H139700   0.502   1.702   2.657  1.1504 -0.1045  1.7548
 6047TIP3    H239701   0.478   1.850   2.635  0.1329 -0.3563  1.1076
 6048TIP3   OH239702   5.343   6.433   0.549  0.3187  0.6515 -0.4370
 6048TIP3    H139703   5.394   6.356   0.524  2.3064  2.0436 -0.9607
 6048TIP3    H239704   5.373   6.455   0.637 -0.7108  0.4732 -0.0302
 6049TIP3   OH239705   1.114   3.988   8.408 -0.2678  0.1839  0.6720
 6049TIP3    H139706   1.175   3.918   8.431 -0.0127  0.3178  0.4131
 6049TIP3    H239707   1.037   3.973   8.463 -0.0455 -0.0524  0.9161
 6050TIP3   OH239708   5.107   6.676   7.809  0.1805 -0.4367 -0.1871
 6050TIP3    H139709   5.074   6.689   7.898  0.2833  1.5604 -0.3994
 6050TIP3    H239710   5.031   6.692   7.753  0.3632 -0.6769 -0.5059
 6051TIP3   OH239711   0.868   3.659   2.068  0.1960 -0.3679  0.0764
 6051TIP3    H139712   0.907   3.600   2.133 -1.2351 -1.8809 -0.3649
 6051TIP3    H239713   0.785   3.617   2.045  0.4553  0.3658 -2.4043
 6052TIP3   OH239714   6.035   3.732   8.294  0.1753  0.1650  0.3694
 6052TIP3    H139715   6.060   3.642   8.273 -1.3236  0.0042 -0.9552
 6052TIP3    H239716   6.117   3.780   8.296  0.9923 -1.1946  0.9895
 6053TIP3   OH239717   3.826   3.489   8.339  0.0667 -0.4517  0.1300
 6053TIP3    H139718   3.778   3.515   8.417 -0.6370 -1.7987  0.1752
 6053TIP3    H239719   3.864   3.570   8.306  0.5000  0.1245  1.9352
 6054TIP3   OH239720   3.634   1.961   0.223 -0.1769  0.4379  0.3259
 6054TIP3    H139721   3.729   1.966   0.228 -0.2499  1.9806  0.6117
 6054TIP3    H239722   3.611   2.008   0.143 -0.7086  0.1748  0.3160
 6055TIP3   OH239723   5.618   6.687   0.294 -0.3616  0.5207  0.9751
 6055TIP3    H139724   5.665   6.769   0.280  2.8782 -1.3167 -0.2054
 6055TIP3    H239725   5.635   6.666   0.386 -0.6936  0.8809  1.1203
 6056TIP3   OH239726   4.361   3.882   8.147  0.2514  0.9934  0.8039
 6056TIP3    H139727   4.332   3.917   8.063 -1.4522  1.6724  1.6247
 6056TIP3    H239728   4.455   3.866   8.135 -0.5458 -2.5373 -2.4062
 6057TIP3   OH239729   1.089   2.544   1.205  0.3698 -0.4507  0.0008
 6057TIP3    H139730   1.046   2.500   1.279 -1.0788  0.4765 -0.2498
 6057TIP3    H239731   1.018   2.564   1.144  1.3828 -0.1726 -1.1303
 6058TIP3   OH239732   1.337   1.372   8.071  0.1417 -0.4831  0.8427
 6058TIP3    H139733   1.414   1.426   8.055 -0.9024  0.4382 -1.4408
 6058TIP3    H239734   1.335   1.360   8.166  1.8323  1.3434  1.1618
 6059TIP3   OH239735   4.758   4.244   7.742  0.0799 -0.3502 -0.1103
 6059TIP3    H139736   4.762   4.176   7.675  2.7660 -1.2959  0.8724
 6059TIP3    H239737   4.834   4.300   7.724  0.4141 -0.1810  1.6630
 6060TIP3   OH239738   0.827   1.848   1.156 -0.3964  0.0673  0.0458
 6060TIP3    H139739   0.854   1.939   1.146  1.0646 -0.2772  0.5173
 6060TIP3    H239740   0.909   1.799   1.163 -1.0333 -1.6675 -2.9511
 6061TIP3   OH239741   4.438   6.386   7.556 -0.6500  0.0235  0.0459
 6061TIP3    H139742   4.372   6.416   7.618 -4.5197 -0.3771 -3.4382
 6061TIP3    H239743   4.468   6.466   7.512  0.1674  0.0640  0.6557
 6062TIP3   OH239744   4.172   0.423   1.711  0.5009  0.0592  0.1664
 6062TIP3    H139745   4.129   0.397   1.630 -0.2190 -1.3588  0.9545
 6062TIP3    H239746   4.205   0.341   1.748 -1.1304  0.3003  2.3616
 6063TIP3   OH239747   6.171   5.793   8.000 -0.2596 -0.5922 -0.2035
 6063TIP3    H139748   6.126   5.877   8.003 -0.2119 -0.5552 -0.4843
 6063TIP3    H239749   6.263   5.816   7.984  0.1311 -0.5795  1.7381
 6064TIP3   OH239750   0.391   1.620   8.100 -0.1201  0.6201 -0.1070
 6064TIP3    H139751   0.407   1.672   8.179 -0.2925  1.5348 -0.6598
 6064TIP3    H239752   0.402   1.529   8.129 -2.8098  0.7283  1.6334
 6065TIP3   OH239753   4.616   1.185   8.581  0.3200 -0.5457 -0.5195
 6065TIP3    H139754   4.710   1.204   8.586  0.5303 -1.2574 -1.4258
 6065TIP3    H239755   4.581   1.216   8.664  1.3443 -0.1787 -0.2062
 6066TIP3   OH239756   0.827   0.843   0.020  0.0631 -0.1336 -0.0278
 6066TIP3    H139757   0.818   0.795   0.102 -0.8486  1.0499  0.6062
 6066TIP3    H239758   0.780   0.790  -0.044 -0.6632 -0.2623  0.5918
 6067TIP3   OH239759   2.928   1.009   1.245  0.7531  0.5871 -0.3012
 6067TIP3    H139760   2.929   1.007   1.341 -1.8658 -0.2110 -0.2110
 6067TIP3    H239761   2.969   0.927   1.219  1.2320  0.6789  0.1470
 6068TIP3   OH239762   5.301   4.211   1.855 -0.1066 -0.2782  0.0858
 6068TIP3    H139763   5.280   4.134   1.908  1.6306 -2.7646 -2.5452
 6068TIP3    H239764   5.369   4.257   1.905  0.9417 -2.1002  0.4285
 6069TIP3   OH239765   1.449   4.500   7.797 -0.2454  0.1790  0.8567
 6069TIP3    H139766   1.367   4.452   7.806 -1.8970  2.2506 -1.6579
 6069TIP3    H239767   1.474   4.522   7.887 -1.4918 -1.9614  1.7776
 6070TIP3   OH239768   0.035   3.825   1.595 -0.2851 -0.1539  0.2732
 6070TIP3    H139769   0.095   3.751   1.605 -0.0515 -0.1444 -0.8833
 6070TIP3    H239770  -0.038   3.804   1.653  0.7160 -0.2626  1.5698
 6071TIP3   OH239771   0.129   2.780   0.900  0.2278  0.1952  0.2507
 6071TIP3    H139772   0.123   2.840   0.826  0.3744 -2.2441 -1.9061
 6071TIP3    H239773   0.215   2.795   0.937 -0.1004  1.9100  0.3736
 6072TIP3   OH239774   2.961   3.652   8.487  0.1904  0.2639 -0.6236
 6072TIP3    H139775   2.901   3.722   8.458  0.1821  0.4434 -0.1817
 6072TIP3    H239776   2.905   3.592   8.537  0.2943  0.2023 -0.5822
 6073TIP3   OH239777   1.222   0.824   0.162 -0.3485 -0.9435 -0.5232
 6073TIP3    H139778   1.287   0.762   0.193 -1.7581 -2.0333  0.3616
 6073TIP3    H239779   1.214   0.806   0.068  0.9786 -0.4287 -0.7515
 6074TIP3   OH239780   4.546   0.664   8.172 -0.0967 -0.1582 -0.1547
 6074TIP3    H139781   4.605   0.628   8.106  0.2235 -0.6817  0.4078
 6074TIP3    H239782   4.552   0.759   8.161  0.2348 -0.2294 -0.6231
 6075TIP3   OH239783   1.204   0.663   7.699  0.3519  0.0559 -0.3787
 6075TIP3    H139784   1.198   0.703   7.786  1.2100  0.4555 -0.4916
 6075TIP3    H239785   1.118   0.624   7.685  0.5359 -0.9778  1.1083
 6076TIP3   OH239786   3.428   1.967   0.681  0.5866  0.6079 -0.4277
 6076TIP3    H139787   3.489   1.995   0.612  1.3394  1.8058  0.6848
 6076TIP3    H239788   3.344   1.956   0.636  1.2924  0.3011 -1.7258
 6077TIP3   OH239789   5.224   4.239   8.244 -0.4279 -0.0851 -0.0762
 6077TIP3    H139790   5.218   4.223   8.339 -2.4201 -1.9947 -0.4432
 6077TIP3    H239791   5.166   4.174   8.205  1.1885 -0.0966 -2.7197
 6078TIP3   OH239792   1.297   5.257   8.658  0.1253  0.4772  1.2458
 6078TIP3    H139793   1.231   5.251   8.726 -2.3501 -1.2391 -1.0615
 6078TIP3    H239794   1.264   5.323   8.597 -0.3544 -1.3845 -0.6667
 6079TIP3   OH239795   1.884   5.740   3.174  0.0958 -0.2384  0.2869
 6079TIP3    H139796   1.933   5.670   3.132 -0.4085  0.6487 -1.8993
 6079TIP3    H239797   1.900   5.817   3.119  2.1832  1.9726  3.5671
 6080TIP3   OH239798   3.669   0.956   7.748 -0.3034  0.0557  0.5280
 6080TIP3    H139799   3.662   0.898   7.673 -1.9022 -0.1055  0.7669
 6080TIP3    H239800   3.704   1.038   7.712  2.0426 -1.0195  0.2099
 6081TIP3   OH239801   2.630   1.522   0.864 -0.2282  0.3037 -0.2239
 6081TIP3    H139802   2.711   1.540   0.911  1.8239  1.7953 -3.8959
 6081TIP3    H239803   2.625   1.591   0.798 -3.1067 -1.2816 -1.8572
 6082TIP3   OH239804   3.447   0.663   8.553  0.5075  0.1032  0.3004
 6082TIP3    H139805   3.403   0.696   8.474  0.8051  0.1163  0.1411
 6082TIP3    H239806   3.424   0.570   8.556 -0.4373  0.3412  0.8170
 6083TIP3   OH239807   5.086   0.325   0.071 -0.5738  0.6155  0.1969
 6083TIP3    H139808   5.057   0.354  -0.015  0.2544  1.2347  0.1155
 6083TIP3    H239809   5.148   0.392   0.100 -0.7033  0.3221  1.1967
 6084TIP3   OH239810   1.208   3.348   0.318  0.0762 -0.5174 -0.8972
 6084TIP3    H139811   1.150   3.373   0.389  1.0443  1.4172 -0.7277
 6084TIP3    H239812   1.170   3.390   0.240  0.4924 -0.4160 -1.0453
 6085TIP3   OH239813   6.012   2.745   0.377 -0.7772  0.0119 -0.6712
 6085TIP3    H139814   6.093   2.757   0.427 -0.5136 -0.6691 -0.9230
 6085TIP3    H239815   6.025   2.798   0.298 -0.2701 -0.6503 -1.0444
 6086TIP3   OH239816   6.545   5.530   6.896  0.4433 -0.0438 -0.6567
 6086TIP3    H139817   6.609   5.550   6.828  0.9473  0.2421 -0.1103
 6086TIP3    H239818   6.578   5.450   6.937  1.8033  1.4035  1.2230
 6087TIP3   OH239819   3.808   2.581   1.581 -0.1624 -0.1883  0.3675
 6087TIP3    H139820   3.771   2.512   1.636  0.1583 -0.9610 -0.3628
 6087TIP3    H239821   3.782   2.662   1.624  0.3672 -0.7631  1.8464
 6088TIP3   OH239822   1.940   0.941   7.680  0.4428 -0.1130 -0.0416
 6088TIP3    H139823   1.898   0.867   7.637  0.3894 -0.0039 -0.1753
 6088TIP3    H239824   1.877   1.012   7.674  0.2177 -0.2414  0.6767
 6089TIP3   OH239825   4.418   3.804   1.557 -0.0862  0.3751 -0.4871
 6089TIP3    H139826   4.340   3.806   1.501  0.4121  1.8625 -1.1859
 6089TIP3    H239827   4.409   3.882   1.612  1.1220  0.8566 -0.9291
 6090TIP3   OH239828   3.061   3.469   8.298 -0.1740 -0.2191  0.6579
 6090TIP3    H139829   3.123   3.409   8.337  0.1557  0.8300  1.8319
 6090TIP3    H239830   3.039   3.530   8.369 -0.0285  1.3951 -0.6224
 6091TIP3   OH239831   3.233   6.247   8.441 -0.0113  0.1257  0.1099
 6091TIP3    H139832   3.269   6.328   8.478 -1.2794  0.3470  0.9291
 6091TIP3    H239833   3.163   6.276   8.382 -1.6802 -0.3468  1.7319
 6092TIP3   OH239834   2.277   1.630   6.853 -0.3602 -0.1193  0.2368
 6092TIP3    H139835   2.195   1.582   6.844 -0.1004 -0.5793  0.2859
 6092TIP3    H239836   2.255   1.719   6.828 -1.2379  0.1106  1.6508
 6093TIP3   OH239837   0.805   1.733   8.731  0.1531 -0.1109 -0.1080
 6093TIP3    H139838   0.817   1.827   8.725  0.9551 -0.2439 -0.7184
 6093TIP3    H239839   0.723   1.722   8.779  0.6576  0.8866  1.0206
 6094TIP3   OH239840   5.088   3.911   7.595 -0.0030  0.4870  0.4213
 6094TIP3    H139841   5.077   3.882   7.505 -0.2629  0.3085  0.5110
 6094TIP3    H239842   5.020   3.864   7.645 -0.0214  0.7709  0.6679
 6095TIP3   OH239843   3.625   0.889   7.477  0.1068  0.1618  0.6216
 6095TIP3    H139844   3.616   0.864   7.386  0.5680  1.9027  0.0635
 6095TIP3    H239845   3.535   0.890   7.511 -0.0345 -0.8458  0.3264
 6096TIP3   OH239846   1.747   3.848   8.093 -0.1652 -0.1723 -0.1568
 6096TIP3    H139847   1.695   3.850   8.174 -0.2374  0.1608 -0.2108
 6096TIP3    H239848   1.711   3.919   8.040  0.9297  0.6458  0.1696
 6097TIP3   OH239849   3.832   4.006   1.253  0.0191 -0.0261  0.2034
 6097TIP3    H139850   3.795   4.094   1.253  0.6447  0.2580 -1.0044
 6097TIP3    H239851   3.912   4.014   1.305  1.1771  0.6474 -1.5871
 6098TIP3   OH239852   3.189   2.779   7.220 -0.3099  0.5581 -0.3644
 6098TIP3    H139853   3.172   2.824   7.137  0.3038  2.9437  0.7122
 6098TIP3    H239854   3.105   2.781   7.266 -0.4033  0.1736 -0.5233
 6099TIP3   OH239855   0.302   2.458   8.647 -0.1056 -0.0189  0.2105
 6099TIP3    H139856   0.264   2.376   8.676  0.6644 -0.2395  0.6283
 6099TIP3    H239857   0.368   2.479   8.713 -0.3941  1.0113  0.1859
 6100TIP3   OH239858   3.162   4.312   8.873 -0.1003 -0.4248 -0.7119
 6100TIP3    H139859   3.226   4.382   8.888  0.3904 -0.9563 -0.2786
 6100TIP3    H239860   3.097   4.351   8.814 -0.5464  0.8100  0.5409
 6101TIP3   OH239861   1.009   2.807   6.851 -0.9861 -0.5689  0.3818
 6101TIP3    H139862   1.021   2.880   6.912 -1.8848 -0.6655  0.6874
 6101TIP3    H239863   1.094   2.798   6.808 -0.9878  0.9362  0.0090
 6102TIP3   OH239864   5.855   3.668   1.792 -0.0154 -0.3224  0.4574
 6102TIP3    H139865   5.812   3.664   1.877 -0.4311 -0.2723  0.2556
 6102TIP3    H239866   5.818   3.745   1.750 -1.7561 -1.7408 -0.7751
 6103TIP3   OH239867   3.608   4.985   0.643 -0.3384  0.0382  0.3429
 6103TIP3    H139868   3.553   5.063   0.654 -0.0858  0.1216  1.0889
 6103TIP3    H239869   3.669   5.009   0.574 -1.2598 -0.0764 -0.5423
 6104TIP3   OH239870   2.048   3.467   8.551  0.2256  0.3402  0.6013
 6104TIP3    H139871   2.106   3.537   8.522  1.7388 -1.1791 -0.1825
 6104TIP3    H239872   2.096   3.386   8.532 -1.6823 -0.9439  0.9724
 6105TIP3   OH239873   5.057   5.386   7.781 -0.6023  0.8423 -0.5731
 6105TIP3    H139874   5.126   5.428   7.832  0.1160 -0.5007 -0.3964
 6105TIP3    H239875   5.007   5.335   7.845 -0.4112  0.0827 -1.0150
 6106TIP3   OH239876   1.177   6.231   0.057 -0.1060  0.1022  0.7249
 6106TIP3    H139877   1.115   6.226  -0.016  1.2683  0.0968 -0.4821
 6106TIP3    H239878   1.168   6.320   0.090  0.3415  0.6109 -0.4653
 6107TIP3   OH239879   0.398   0.867   2.819 -0.3948 -0.1415  0.2332
 6107TIP3    H139880   0.314   0.879   2.775 -0.3098 -0.0817  0.0868
 6107TIP3    H239881   0.445   0.804   2.764  0.0084  0.5025 -0.1735
 6108TIP3   OH239882   4.321   6.506   7.794  0.1149  0.2127  1.0119
 6108TIP3    H139883   4.282   6.593   7.784  0.1067 -0.0791 -3.5326
 6108TIP3    H239884   4.248   6.451   7.824 -0.8783  1.1694  0.4395
 6109TIP3   OH239885   6.351   3.213   7.856  0.3755 -0.1792  0.1191
 6109TIP3    H139886   6.300   3.153   7.802 -1.0800 -0.6454  1.8754
 6109TIP3    H239887   6.328   3.300   7.823  1.2061 -0.4871 -1.3629
 6110TIP3   OH239888   6.529   4.753   6.865  0.1435  0.2696  0.1245
 6110TIP3    H139889   6.530   4.661   6.891 -3.1120  0.7034  2.4720
 6110TIP3    H239890   6.485   4.754   6.780 -0.7585 -0.3321  0.5586
 6111TIP3   OH239891   4.040   3.920   0.819  0.4565 -0.3228 -0.8251
 6111TIP3    H139892   4.005   3.924   0.730 -1.1313 -0.2597 -0.2364
 6111TIP3    H239893   3.998   3.993   0.865 -0.6240 -1.7465  0.5728
 6112TIP3   OH239894   1.870   1.091   0.090  0.0623 -0.6823 -0.1920
 6112TIP3    H139895   1.816   1.112   0.166  0.0374  0.8051 -0.5876
 6112TIP3    H239896   1.945   1.151   0.096  0.5658 -1.2253 -0.8125
 6113TIP3   OH239897   0.473   2.335   1.541  0.3041  0.1789 -0.1564
 6113TIP3    H139898   0.390   2.341   1.587  0.2292  1.6699 -0.4311
 6113TIP3    H239899   0.526   2.407   1.576  0.7978  0.3925 -1.2777
 6114TIP3   OH239900   2.513   4.741   8.509 -0.1474 -0.1560  0.7545
 6114TIP3    H139901   2.571   4.703   8.443 -0.6742 -0.1440  0.2722
 6114TIP3    H239902   2.570   4.760   8.583  0.6947  0.9228 -0.1316
 6115TIP3   OH239903   5.993   3.891   0.178 -0.3464 -0.5861 -0.4401
 6115TIP3    H139904   5.925   3.875   0.111  1.1274 -0.3458 -2.0669
 6115TIP3    H239905   6.002   3.806   0.222  0.2570 -1.4733 -2.1497
 6116TIP3   OH239906   1.118   5.949   8.463  0.0530 -0.2855 -0.0145
 6116TIP3    H139907   1.068   5.902   8.396 -0.7862  1.2316 -0.5155
 6116TIP3    H239908   1.147   6.029   8.419 -0.7329  0.8710  1.4579
 6117TIP3   OH239909   1.527   0.808   8.641 -0.3606  0.2688  0.4764
 6117TIP3    H139910   1.536   0.861   8.562 -1.5769 -1.2813 -0.7610
 6117TIP3    H239911   1.479   0.865   8.702 -0.7989  0.9304 -0.4653
 6118TIP3   OH239912   4.127   5.798   0.713  0.4100 -0.0392  0.3260
 6118TIP3    H139913   4.088   5.733   0.654 -0.7799 -1.6615  2.7446
 6118TIP3    H239914   4.052   5.849   0.746  0.7924 -0.4079  1.8284
 6119TIP3   OH239915   3.153   5.502   1.877  0.1268  0.0243 -0.1902
 6119TIP3    H139916   3.160   5.564   1.804  2.7953 -1.4573 -1.3367
 6119TIP3    H239917   3.130   5.419   1.835 -1.3030 -0.2688  1.0764
 6120TIP3   OH239918   3.428   2.627   6.193 -0.4254 -0.3435 -0.4797
 6120TIP3    H139919   3.488   2.689   6.149 -1.8679 -0.1331 -2.2754
 6120TIP3    H239920   3.342   2.649   6.159 -1.2447 -2.1003  0.3362
 6121TIP3   OH239921   4.991   2.571   0.419 -0.4457  0.2655  0.2181
 6121TIP3    H139922   5.051   2.567   0.344 -2.8717 -1.2666 -1.7709
 6121TIP3    H239923   4.987   2.482   0.452 -2.5073  0.0807 -0.4484
 6122TIP3   OH239924   5.993   2.392   1.264  0.2503 -0.1252  0.3618
 6122TIP3    H139925   6.076   2.440   1.261 -0.6168  1.6742  2.2676
 6122TIP3    H239926   5.954   2.407   1.178  1.6813 -0.6536 -0.4151
 6123TIP3   OH239927   2.051   0.269   0.160 -0.5409  0.4274 -0.2460
 6123TIP3    H139928   2.048   0.259   0.064 -1.5799  1.4192 -0.3362
 6123TIP3    H239929   1.999   0.347   0.177 -0.0046  0.5056  1.1098
 6124TIP3   OH239930   1.846   0.387   1.480  0.0487  0.2397 -0.1507
 6124TIP3    H139931   1.877   0.346   1.400  1.9657  1.4716 -0.1157
 6124TIP3    H239932   1.913   0.366   1.545 -1.3641 -0.5557  1.0990
 6125TIP3   OH239933   4.877   4.934   0.478  0.4229 -0.5288 -0.3395
 6125TIP3    H139934   4.948   4.913   0.539  0.0496  1.4947  0.8855
 6125TIP3    H239935   4.911   5.006   0.424 -0.7717  0.7756  0.5611
 6126TIP3   OH239936   3.884   0.299   7.235 -0.5004  0.0589 -0.0983
 6126TIP3    H139937   3.793   0.328   7.243 -0.1785  1.8892 -2.0020
 6126TIP3    H239938   3.882   0.229   7.170 -0.6725 -0.8409  0.8480
 6127TIP3   OH239939   1.577   5.152   0.428 -0.1157  0.5229 -0.2127
 6127TIP3    H139940   1.527   5.218   0.379 -0.1876  0.6619  0.0419
 6127TIP3    H239941   1.524   5.073   0.423 -0.6009  0.7932  0.4490
 6128TIP3   OH239942   3.654   0.635   7.966  0.4504  0.2672 -0.1644
 6128TIP3    H139943   3.730   0.681   7.931  0.5577 -0.3816 -0.8192
 6128TIP3    H239944   3.580   0.669   7.917  0.4736  0.0851 -0.3312
 6129TIP3   OH239945   4.056   5.250   0.922 -0.2487  0.2647 -0.1178
 6129TIP3    H139946   4.107   5.237   0.842  1.2620  2.6527  0.3525
 6129TIP3    H239947   4.060   5.166   0.968  1.7948 -0.1419 -0.9578
 6130TIP3   OH239948   6.661   5.543   8.868  0.4283  0.5187  0.4786
 6130TIP3    H139949   6.622   5.564   8.952  0.3257 -2.3170  1.2324
 6130TIP3    H239950   6.586   5.522   8.812  0.6385 -2.2778  1.1401
 6131TIP3   OH239951   2.618   2.889   2.222 -0.1697 -0.0026  0.4291
 6131TIP3    H139952   2.532   2.864   2.190 -1.0005  2.1940  0.7701
 6131TIP3    H239953   2.618   2.864   2.314 -0.2523 -0.4030  0.3230
 6132TIP3   OH239954   5.811   4.278   0.709 -0.0400  0.0781 -0.7279
 6132TIP3    H139955   5.880   4.316   0.762 -0.7061  1.1596 -0.5970
 6132TIP3    H239956   5.760   4.354   0.679 -1.5843 -0.7282 -0.2238
 6133TIP3   OH239957   2.010   2.663   6.766 -0.1003 -0.6110  0.0911
 6133TIP3    H139958   2.083   2.661   6.827  1.3790  0.4511 -1.5585
 6133TIP3    H239959   2.000   2.755   6.743 -1.2512 -0.8707 -0.5591
 6134TIP3   OH239960   2.751   4.708   1.324  0.2233  0.1968  0.1105
 6134TIP3    H139961   2.809   4.767   1.372  1.2425 -0.5880 -0.1116
 6134TIP3    H239962   2.776   4.621   1.355 -1.7405 -0.1051  0.9744
 6135TIP3   OH239963   3.657   4.646   0.128  0.0018 -0.9114 -0.1107
 6135TIP3    H139964   3.676   4.729   0.086 -1.3784 -0.3193  0.3572
 6135TIP3    H239965   3.741   4.602   0.136  0.5008 -0.4127 -2.1152
 6136TIP3   OH239966   4.706   1.185   0.800 -0.1992  0.1501 -0.3967
 6136TIP3    H139967   4.783   1.233   0.768 -0.0272  1.2165  1.5028
 6136TIP3    H239968   4.737   1.141   0.879 -1.0172 -1.1699 -0.7737
 6137TIP3   OH239969   5.082   2.961   8.643 -0.0049 -0.4347  0.2903
 6137TIP3    H139970   5.006   2.961   8.700 -0.0858  0.6308  0.2141
 6137TIP3    H239971   5.155   2.987   8.699  0.4993 -2.3212  0.5675
 6138TIP3   OH239972   5.040   4.320   1.164 -0.4035  0.3599  0.1115
 6138TIP3    H139973   5.063   4.303   1.256  0.9910  1.0695 -0.0812
 6138TIP3    H239974   5.058   4.237   1.119 -0.3442  0.2478  0.3399
 6139TIP3   OH239975   0.065   1.501   0.854 -0.5072  0.4737  0.0863
 6139TIP3    H139976   0.106   1.431   0.906 -2.2769 -0.0879  0.8365
 6139TIP3    H239977   0.122   1.577   0.866  1.5739 -0.8475 -0.9013
 6140TIP3   OH239978   4.668   0.739   7.830  0.1585  0.1349  0.9013
 6140TIP3    H139979   4.643   0.651   7.858 -1.2246  0.6745  1.4382
 6140TIP3    H239980   4.655   0.794   7.908 -0.5693  1.0952  0.1269
 6141TIP3   OH239981   4.058   5.006   8.430 -0.5638  0.4068 -0.3761
 6141TIP3    H139982   4.097   5.049   8.506 -0.5141  0.4461 -0.4250
 6141TIP3    H239983   4.046   5.076   8.366  0.2488  0.2030 -0.7572
 6142TIP3   OH239984   0.741   3.252   0.736  0.3305  0.2139 -0.1451
 6142TIP3    H139985   0.670   3.263   0.799  0.4296 -1.1604  0.2413
 6142TIP3    H239986   0.807   3.315   0.763  0.5111 -0.5698  1.3628
 6143TIP3   OH239987   6.345   0.096   8.527 -0.6047  0.1473  0.5041
 6143TIP3    H139988   6.350   0.013   8.480 -1.9446  0.3421 -0.0261
 6143TIP3    H239989   6.267   0.139   8.493  1.1149  2.5778 -0.7346
 6144TIP3   OH239990   0.744   5.173   1.521  0.5191  0.6614 -0.0116
 6144TIP3    H139991   0.656   5.179   1.483 -0.2118  0.5994  1.6242
 6144TIP3    H239992   0.792   5.246   1.481  0.6985 -0.9824 -3.1929
 6145TIP3   OH239993   2.810   1.461   6.260 -0.2542 -0.4586 -0.2268
 6145TIP3    H139994   2.852   1.375   6.257 -1.3171 -0.9776 -0.9844
 6145TIP3    H239995   2.718   1.443   6.244 -0.3554  0.9263 -1.3675
 6146TIP3   OH239996   1.286   0.160   8.576 -0.1904  0.0948 -0.3834
 6146TIP3    H139997   1.361   0.136   8.522  1.2038  0.2146  1.4164
 6146TIP3    H239998   1.258   0.077   8.616  0.2485  0.3292  0.4469
 6147TIP3   OH239999   6.465   0.329   0.929 -0.6517  0.0257 -0.4754
 6147TIP3    H140000   6.531   0.349   0.863 -1.0598  0.4748 -0.7490
 6147TIP3    H240001   6.487   0.387   1.002  3.0450 -3.9113  2.0611
 6148TIP3   OH240002   6.451   3.118   2.096  0.4495 -0.0776 -0.0652
 6148TIP3    H140003   6.450   3.068   2.015  1.2296 -1.2366  0.6058
 6148TIP3    H240004   6.438   3.052   2.165 -0.5512  0.9174  0.7363
 6149TIP3   OH240005   6.062   2.523   1.558 -0.3250 -0.3908  0.0470
 6149TIP3    H140006   6.066   2.430   1.580  1.5975 -0.5363 -0.7562
 6149TIP3    H240007   6.029   2.525   1.468  1.2262 -0.4404 -0.5532
 6150TIP3   OH240008   2.508   0.096   8.071  0.2985  0.9718 -0.3713
 6150TIP3    H140009   2.489   0.038   7.998  2.4613  1.3241 -1.2756
 6150TIP3    H240010   2.576   0.155   8.039  2.1862  0.4142  2.2610
 6151TIP3   OH240011   1.743   4.799   0.125  0.0593  0.2104  0.2479
 6151TIP3    H140012   1.698   4.725   0.167 -1.4593  0.3947 -0.9442
 6151TIP3    H240013   1.769   4.766   0.040  0.0903  0.8084  0.0196
 6152TIP3   OH240014   0.122   2.082   1.845  0.1534  0.4490 -0.4246
 6152TIP3    H140015   0.186   2.049   1.908  0.2357 -0.8748 -1.1697
 6152TIP3    H240016   0.063   2.136   1.897  0.4121 -0.3583  0.7423
 6153TIP3   OH240017   0.070   1.096   6.963 -0.0275  0.1129  0.0134
 6153TIP3    H140018   0.096   1.083   7.054  0.9800 -0.9650 -0.3992
 6153TIP3    H240019   0.145   1.065   6.912  0.8469  3.6412 -1.2039
 6154TIP3   OH240020   1.557   0.402   1.378 -0.4064 -0.4209 -0.1759
 6154TIP3    H140021   1.647   0.394   1.410 -0.9910  0.6425  1.9237
 6154TIP3    H240022   1.541   0.496   1.373 -1.6352 -0.5747  0.2907
 6155TIP3   OH240023   3.920   5.526   0.967  0.0509  0.6385 -0.8206
 6155TIP3    H140024   3.827   5.513   0.947  0.1483 -0.7174 -0.4611
 6155TIP3    H240025   3.963   5.448   0.932  1.0683  1.2745 -1.0202
 6156TIP3   OH240026   1.679   3.001   2.123 -0.7030 -1.0105  0.0247
 6156TIP3    H140027   1.768   3.035   2.133 -0.2663 -1.9621 -0.4777
 6156TIP3    H240028   1.691   2.912   2.091 -1.8580 -0.6803 -1.4368
 6157TIP3   OH240029   6.772   4.907   8.798 -0.4542 -0.2526 -0.1663
 6157TIP3    H140030   6.763   4.818   8.830  0.6174  0.1265  1.3383
 6157TIP3    H240031   6.864   4.913   8.771 -0.7642  0.1226 -1.1722
 6158TIP3   OH240032   6.752   1.468   0.017 -0.6689  0.4311 -0.5508
 6158TIP3    H140033   6.755   1.374  -0.002 -2.1213  0.3636 -0.5678
 6158TIP3    H240034   6.844   1.494   0.023 -0.2375 -1.0711 -0.1185
 6159TIP3   OH240035   6.691   5.873   8.140 -0.2165  0.1227 -0.1492
 6159TIP3    H140036   6.663   5.785   8.165 -2.6187  0.4533 -1.3474
 6159TIP3    H240037   6.690   5.872   8.044 -0.1548  1.3911 -0.1803
 6160TIP3   OH240038   5.441   2.812   1.889 -0.9765 -0.0465 -0.8929
 6160TIP3    H140039   5.489   2.880   1.842  0.5572 -0.3188  0.2204
 6160TIP3    H240040   5.358   2.854   1.914  0.2421  1.7163  0.4642
 6161TIP3   OH240041   0.660   0.598   0.507 -0.0294 -0.6839  0.0337
 6161TIP3    H140042   0.740   0.622   0.554  0.4831 -1.1265 -0.5721
 6161TIP3    H240043   0.598   0.573   0.575  1.1579 -2.7129  0.4838
 6162TIP3   OH240044   4.309   3.484   0.023  0.4752 -0.4968 -0.6163
 6162TIP3    H140045   4.396   3.460  -0.009  0.7596  0.7625 -0.8403
 6162TIP3    H240046   4.248   3.439  -0.036  0.9904  0.1629 -1.6761
 6163TIP3   OH240047   1.766   0.325   7.402 -0.0793  0.1225 -0.2035
 6163TIP3    H140048   1.766   0.233   7.377  1.0286  0.2313 -0.6782
 6163TIP3    H240049   1.754   0.324   7.497 -1.5348 -0.4325 -0.3794
 6164TIP3   OH240050   2.538   5.297   0.443 -0.4313 -0.5848 -0.1475
 6164TIP3    H140051   2.518   5.245   0.365  1.5652 -0.9708 -0.4767
 6164TIP3    H240052   2.624   5.336   0.424 -0.1979 -0.1557  1.5989
 6165TIP3   OH240053   1.088   0.885   2.454  0.3152  0.3306  0.2203
 6165TIP3    H140054   1.139   0.846   2.383 -1.6252 -0.8168 -0.6276
 6165TIP3    H240055   1.053   0.966   2.416 -0.6949 -0.2661 -0.1418
 6166TIP3   OH240056   1.086   4.399   6.791 -0.7491 -0.2551  0.2452
 6166TIP3    H140057   1.003   4.352   6.780 -0.6391 -0.5456  0.6235
 6166TIP3    H240058   1.069   4.487   6.757 -2.0018  0.5360  2.6890
 6167TIP3   OH240059   0.776   4.521   0.222 -0.4226 -0.7538 -0.2907
 6167TIP3    H140060   0.682   4.533   0.235 -0.4743 -0.2659 -1.1027
 6167TIP3    H240061   0.815   4.542   0.307 -0.8095  1.8136 -0.6736
 6168TIP3   OH240062   2.867   6.278   6.840 -0.0836 -0.5362 -0.1065
 6168TIP3    H140063   2.953   6.320   6.849 -1.1272  1.3599  2.0128
 6168TIP3    H240064   2.881   6.188   6.870  1.3431 -0.5209 -0.6735
 6169TIP3   OH240065   0.290   5.424   8.182  0.6133 -0.1135 -0.5005
 6169TIP3    H140066   0.380   5.392   8.189  0.6092 -0.3731 -1.5319
 6169TIP3    H240067   0.242   5.352   8.141  0.4208  0.8567 -2.0828
 6170TIP3   OH240068   1.858   5.408   7.637  0.3394  0.2121  0.1894
 6170TIP3    H140069   1.868   5.466   7.712  1.0536 -2.0107  1.9359
 6170TIP3    H240070   1.764   5.389   7.633  0.3485  0.0116  0.8165
 6171TIP3   OH240071   6.188   3.461   1.019 -0.5199  0.2740  0.0585
 6171TIP3    H140072   6.250   3.488   0.952 -0.6557  1.5278  0.4117
 6171TIP3    H240073   6.218   3.373   1.045  0.2247  0.2575 -0.7994
 6172TIP3   OH240074   2.654   5.969   7.955  0.1345  0.8547  0.3832
 6172TIP3    H140075   2.689   5.881   7.939 -1.4532 -0.1857  2.1966
 6172TIP3    H240076   2.729   6.027   7.945  1.0292 -0.5719 -1.7958
 6173TIP3   OH240077   2.432   1.030   7.773  0.5808 -0.1200 -0.0765
 6173TIP3    H140078   2.371   1.104   7.769  0.9933  0.1559 -2.5073
 6173TIP3    H240079   2.387   0.966   7.828 -1.6706  0.3221 -1.2673
 6174TIP3   OH240080   0.733   2.594   1.276  0.4528  0.2589  0.2690
 6174TIP3    H140081   0.762   2.612   1.187 -2.6610  1.6699 -0.5700
 6174TIP3    H240082   0.745   2.678   1.322 -1.5524  0.7142  0.0476
 6175TIP3   OH240083   1.297   0.252   1.801  0.6832  0.6318  0.2747
 6175TIP3    H140084   1.310   0.179   1.741 -1.2418 -0.1705  0.7692
 6175TIP3    H240085   1.371   0.247   1.862 -0.3873 -2.1584  1.5184
 6176TIP3   OH240086   2.485   5.796   1.397 -0.4400  0.9253  0.2202
 6176TIP3    H140087   2.429   5.769   1.324 -0.1043  0.3874  0.1642
 6176TIP3    H240088   2.565   5.827   1.356  0.6820 -1.5160  0.4263
 6177TIP3   OH240089   4.744   3.166   1.734  0.1589 -0.1420 -0.2973
 6177TIP3    H140090   4.660   3.173   1.688  0.0513  1.0223  0.0232
 6177TIP3    H240091   4.750   3.074   1.759 -1.9349  0.0678  1.2902
 6178TIP3   OH240092   3.623   5.276   7.103  0.3053 -0.0393 -0.5142
 6178TIP3    H140093   3.585   5.325   7.031  1.0112 -0.7575 -1.4069
 6178TIP3    H240094   3.582   5.190   7.098  0.7166 -0.2482 -0.3766
 6179TIP3   OH240095   0.025   5.739   8.434 -0.5354 -0.0665 -0.3023
 6179TIP3    H140096   0.029   5.802   8.505  1.1967  0.5479 -0.9153
 6179TIP3    H240097   0.002   5.790   8.357 -0.5288 -0.4203 -0.5434
 6180TIP3   OH240098   2.844   4.281   0.101  0.6970  0.0801  0.2673
 6180TIP3    H140099   2.769   4.254   0.154 -0.6739  0.8677 -1.1660
 6180TIP3    H240100   2.920   4.268   0.158 -0.6349  0.4485  2.2384
 6181TIP3   OH240101   6.178   2.076   7.946  0.1628 -0.2010 -0.6655
 6181TIP3    H140102   6.124   2.051   7.871  1.7294 -1.0884 -1.5524
 6181TIP3    H240103   6.260   2.107   7.907  0.5082  0.6297  0.6592
 6182TIP3   OH240104   1.822   4.864   1.148 -0.4599  0.1587  0.4257
 6182TIP3    H140105   1.911   4.828   1.148 -0.7033 -0.4562  0.6010
 6182TIP3    H240106   1.804   4.883   1.056  0.0947  0.8991  0.4636
 6183TIP3   OH240107   0.132   0.686   0.698 -0.0208 -0.1465 -0.1804
 6183TIP3    H140108   0.078   0.746   0.749 -0.2527  0.7053 -1.3873
 6183TIP3    H240109   0.183   0.742   0.640  1.0365 -1.0274 -0.1334
 6184TIP3   OH240110   1.641   4.560   8.393 -0.1432  0.0298  0.2344
 6184TIP3    H140111   1.666   4.630   8.333 -0.2991  0.9667  1.2528
 6184TIP3    H240112   1.722   4.536   8.438 -0.4308  0.8384  1.2079
 6185TIP3   OH240113   1.790   2.916   7.267 -0.0249  0.8087  0.0767
 6185TIP3    H140114   1.875   2.945   7.300  0.2476  1.5543 -1.2294
 6185TIP3    H240115   1.793   2.933   7.173 -1.6637  0.9656  0.0236
 6186TIP3   OH240116   6.201   1.432   7.296 -0.0870 -0.0839  0.2647
 6186TIP3    H140117   6.268   1.368   7.318  0.2508  0.0840 -0.2533
 6186TIP3    H240118   6.239   1.484   7.225  0.2908  1.7079  1.6762
 6187TIP3   OH240119   1.154   1.641   8.296 -0.1186  0.3646  0.8892
 6187TIP3    H140120   1.237   1.686   8.279  0.1671 -0.0980  1.0120
 6187TIP3    H240121   1.179   1.568   8.354 -0.6456  0.3479  1.0947
 6188TIP3   OH240122   0.295   3.815   0.797 -0.3192 -0.3284  0.4585
 6188TIP3    H140123   0.255   3.729   0.786  1.4814 -1.2667  0.8623
 6188TIP3    H240124   0.257   3.868   0.727 -2.8362 -0.8793  1.2984
 6189TIP3   OH240125   1.555   0.509   1.799 -0.5017 -0.5719 -0.1748
 6189TIP3    H140126   1.562   0.416   1.782  0.0718 -0.3395 -1.2638
 6189TIP3    H240127   1.644   0.543   1.785 -0.9350  0.3043 -0.8766
 6190TIP3   OH240128   4.676   0.980   2.609  0.3123  0.0262  0.9023
 6190TIP3    H140129   4.611   1.029   2.560  0.3043  0.8543  1.7075
 6190TIP3    H240130   4.655   0.888   2.591 -0.0000  0.2991 -0.2052
 6191TIP3   OH240131   6.119   5.055   7.254 -0.3952  0.2960  0.1670
 6191TIP3    H140132   6.122   5.009   7.170 -1.1122  2.4385 -1.1027
 6191TIP3    H240133   6.030   5.090   7.259 -0.2619  0.4690  1.6851
 6192TIP3   OH240134   1.232   6.650   8.281  0.1595 -0.0947 -0.5260
 6192TIP3    H140135   1.151   6.618   8.321  0.5488 -0.5058 -0.0473
 6192TIP3    H240136   1.300   6.630   8.345  0.3366  2.4553  0.1709
 6193TIP3   OH240137   5.315   3.342   8.355  0.2063  0.0427  0.2209
 6193TIP3    H140138   5.272   3.425   8.378  1.8344  1.1471 -0.6002
 6193TIP3    H240139   5.329   3.347   8.261  1.8554 -0.3991  0.4171
 6194TIP3   OH240140   1.141   6.525   0.421  0.3976  0.1618 -0.3726
 6194TIP3    H140141   1.143   6.494   0.330 -0.4904 -0.2000 -0.2782
 6194TIP3    H240142   1.053   6.560   0.432  0.7798  0.9912  0.1022
 6195TIP3   OH240143   0.801   1.189   8.106  0.2626  0.7897 -0.1411
 6195TIP3    H140144   0.757   1.270   8.078  1.7452  1.3751 -0.8898
 6195TIP3    H240145   0.875   1.181   8.047  0.8464 -0.4680  0.7285
 6196TIP3   OH240146   0.137   0.810   1.832 -0.3206  0.2614 -0.0177
 6196TIP3    H140147   0.148   0.887   1.776  0.6589  0.5731  0.5990
 6196TIP3    H240148   0.116   0.739   1.770 -3.0754  1.3308 -0.4656
 6197TIP3   OH240149   3.199   0.447   1.204 -0.3307  0.0730 -0.1010
 6197TIP3    H140150   3.181   0.371   1.149 -1.4869 -0.0308  0.3825
 6197TIP3    H240151   3.117   0.462   1.251  0.0309  1.3213  0.1761
 6198TIP3   OH240152   6.055   0.704   1.971  0.3017  0.5824 -0.5616
 6198TIP3    H140153   6.019   0.646   1.903  1.1104 -0.0073 -0.5071
 6198TIP3    H240154   5.981   0.720   2.030 -1.0896  3.0177 -2.7837
 6199TIP3   OH240155   5.240   0.258   8.177  0.5003  0.0626  0.5318
 6199TIP3    H140156   5.286   0.215   8.104  0.9797 -0.7460  1.2877
 6199TIP3    H240157   5.207   0.185   8.230  0.5199  0.6370  1.3383
 6200TIP3   OH240158   2.724   0.533   7.223 -0.2922 -0.0206 -0.3138
 6200TIP3    H140159   2.756   0.571   7.141 -0.4865  2.3124  0.6467
 6200TIP3    H240160   2.654   0.592   7.252  1.2342  0.4911  2.6544
 6201TIP3   OH240161   2.433   5.341   1.861  0.4360  0.3113  0.2913
 6201TIP3    H140162   2.461   5.403   1.794  1.6151  0.2984  0.7439
 6201TIP3    H240163   2.414   5.395   1.938  1.9269  0.1110  0.8354
 6202TIP3   OH240164   3.063   4.719   7.772 -0.5087  0.5123 -0.4508
 6202TIP3    H140165   3.152   4.684   7.773 -0.9495 -0.7693  1.9911
 6202TIP3    H240166   3.042   4.729   7.679  1.4444 -1.0483 -1.1232
 6203TIP3   OH240167   6.327   3.876   7.597 -0.7638 -0.2566  0.1763
 6203TIP3    H140168   6.393   3.824   7.643  1.9549  2.4709 -0.3249
 6203TIP3    H240169   6.330   3.844   7.507 -1.3373 -1.1919  0.4702
 6204TIP3   OH240170   1.371   1.351   8.334  0.0491  0.2186 -0.3919
 6204TIP3    H140171   1.319   1.394   8.402  0.4920 -0.3273  0.3082
 6204TIP3    H240172   1.335   1.262   8.330 -2.1034  1.0855 -3.1125
 6205TIP3   OH240173   3.180   0.123   0.782  0.1244 -0.4180  0.0601
 6205TIP3    H140174   3.240   0.140   0.854 -0.0385 -0.4073  0.1934
 6205TIP3    H240175   3.154   0.210   0.751 -1.7984 -0.3571  1.6429
 6206TIP3   OH240176   4.024   0.387   0.104 -0.2639 -0.6043  0.2264
 6206TIP3    H140177   4.071   0.372   0.022 -1.3843  0.3148 -0.6243
 6206TIP3    H240178   3.935   0.411   0.076 -0.6176 -0.0987  1.7082
 6207TIP3   OH240179   0.825   0.359   2.129  0.2917 -0.0610 -0.2991
 6207TIP3    H140180   0.890   0.389   2.066 -0.6847 -2.4350 -2.6120
 6207TIP3    H240181   0.743   0.357   2.080 -0.8742 -0.4409  1.5603
 6208TIP3   OH240182   3.846   2.957   6.547 -0.1146  0.7072  0.2345
 6208TIP3    H140183   3.886   2.944   6.461  0.2075  1.1364  0.3173
 6208TIP3    H240184   3.879   2.885   6.600 -1.8258 -0.7096 -0.5118
 6209TIP3   OH240185   6.443   6.550   0.651  0.1851  0.0214 -0.3285
 6209TIP3    H140186   6.365   6.592   0.614  0.7308  1.1391 -0.2537
 6209TIP3    H240187   6.462   6.600   0.730 -0.3098 -1.6479  0.8929
 6210TIP3   OH240188   4.681   5.283   7.416  0.1692  0.5984 -0.0673
 6210TIP3    H140189   4.694   5.377   7.400 -0.6370  0.4727 -1.6639
 6210TIP3    H240190   4.765   5.253   7.452  0.5707  1.8488  0.0848
 6211TIP3   OH240191   5.467   1.088   0.152  0.0243  0.2760  0.0842
 6211TIP3    H140192   5.515   1.068   0.233  1.0082 -0.2836 -0.6108
 6211TIP3    H240193   5.383   1.124   0.182  0.0845 -0.5706  1.3565
 6212TIP3   OH240194   0.228   2.721   8.302 -0.3475  0.2179  0.2219
 6212TIP3    H140195   0.317   2.686   8.311 -0.2180  0.0936 -1.3555
 6212TIP3    H240196   0.190   2.673   8.228 -1.1518  1.4208 -0.1724
 6213TIP3   OH240197   4.977   0.007   7.228 -0.1628 -0.6490 -0.0632
 6213TIP3    H140198   5.058  -0.043   7.214  0.3060 -0.2463  1.1260
 6213TIP3    H240199   4.920  -0.021   7.157  1.7508  0.6281 -2.2392
 6214TIP3   OH240200   1.565   5.561   7.997  0.0387  0.2033 -0.2438
 6214TIP3    H140201   1.557   5.643   8.047  0.5071  0.2444 -0.2283
 6214TIP3    H240202   1.604   5.499   8.059 -1.6421 -0.4598  0.1932
 6215TIP3   OH240203   5.597   0.699   0.656  0.0823 -0.2122  0.1130
 6215TIP3    H140204   5.627   0.619   0.699 -0.8798 -0.3051  0.6435
 6215TIP3    H240205   5.519   0.671   0.607 -0.3154  0.4106  0.3748
 6216TIP3   OH240206   2.736   5.335   7.040  0.1927 -0.5141  0.2922
 6216TIP3    H140207   2.803   5.379   6.987  0.8648 -0.1423  1.4072
 6216TIP3    H240208   2.760   5.242   7.037  1.2761 -0.2929  1.3561
 6217TIP3   OH240209   5.078   6.164   1.075 -0.7296 -0.1179 -0.0040
 6217TIP3    H140210   4.993   6.194   1.042 -0.4776  0.8253  0.1765
 6217TIP3    H240211   5.140   6.192   1.009 -0.3872  0.5046  0.5781
 6218TIP3   OH240212   0.204   4.749   0.460  0.4295 -0.0719  0.0370
 6218TIP3    H140213   0.122   4.795   0.480 -0.3225 -1.0469 -0.7433
 6218TIP3    H240214   0.217   4.763   0.366  1.7188  0.9228  0.3296
 6219TIP3   OH240215   0.160   3.239   1.832  0.1362  0.2666  0.0292
 6219TIP3    H140216   0.102   3.296   1.884  0.4611 -1.7091  2.8216
 6219TIP3    H240217   0.248   3.270   1.851  0.2342 -0.1519  0.2746
 6220TIP3   OH240218   4.822   1.423   8.782  0.7093 -0.0290  0.2130
 6220TIP3    H140219   4.818   1.335   8.819 -0.4874 -0.5512 -1.0704
 6220TIP3    H240220   4.755   1.472   8.829 -1.2421 -0.8557 -1.5243
 6221TIP3   OH240221   2.580   2.958   8.595 -0.4993  0.5006  0.2039
 6221TIP3    H140222   2.499   2.949   8.545  0.3403 -1.5453 -0.9051
 6221TIP3    H240223   2.649   2.961   8.528  0.5294 -0.4883  1.1839
 6222TIP3   OH240224   6.775   4.541   8.632 -0.8218 -0.3842  0.2634
 6222TIP3    H140225   6.735   4.543   8.545  0.1242 -0.9111 -0.1907
 6222TIP3    H240226   6.727   4.473   8.679 -0.9286 -0.5231 -0.0462
 6223TIP3   OH240227   0.997   5.706   1.286  0.3474 -0.0618 -0.4206
 6223TIP3    H140228   1.038   5.691   1.371 -1.2333  1.1655  0.6192
 6223TIP3    H240229   1.066   5.688   1.223  2.2219  1.0274  1.1996
 6224TIP3   OH240230   6.219   0.832   8.751 -0.2363  0.2888 -0.4230
 6224TIP3    H140231   6.261   0.751   8.723 -0.6680 -0.9304  2.2095
 6224TIP3    H240232   6.281   0.872   8.811 -1.5711 -0.1208  1.3128
 6225TIP3   OH240233   5.282   4.801   1.261  0.4973  0.0643  0.4171
 6225TIP3    H140234   5.228   4.727   1.290 -0.4354  0.4603 -0.2623
 6225TIP3    H240235   5.266   4.807   1.167  1.5617  0.3407  0.2505
 6226TIP3   OH240236   6.694   1.173   7.501 -0.0305  0.6831 -0.1828
 6226TIP3    H140237   6.619   1.232   7.509  0.3783  1.0817  0.9703
 6226TIP3    H240238   6.673   1.100   7.560  1.0580  1.4596  1.2372
 6227TIP3   OH240239   4.710   1.397   7.918 -0.3962  0.7403 -0.2026
 6227TIP3    H140240   4.768   1.459   7.963  0.9592 -0.0193 -0.8254
 6227TIP3    H240241   4.646   1.372   7.984  0.0734  1.4940  0.5618
 6228TIP3   OH240242   5.803   4.020   6.767  0.1025 -0.1559 -0.2982
 6228TIP3    H140243   5.798   4.069   6.685  0.6819 -1.4551 -1.1532
 6228TIP3    H240244   5.808   4.087   6.835  1.2537  0.9612 -1.4332
 6229TIP3   OH240245   4.331   0.355   7.254  0.4745 -0.2132 -0.1533
 6229TIP3    H140246   4.421   0.340   7.282  0.0014 -0.5841  1.2184
 6229TIP3    H240247   4.281   0.368   7.335 -1.2606 -2.9947 -0.6196
 6230TIP3   OH240248   3.037   2.202   8.552 -0.0285 -0.3507  0.3400
 6230TIP3    H140249   3.110   2.179   8.493  1.1626  1.0197  1.1982
 6230TIP3    H240250   3.050   2.296   8.569 -1.9870 -0.0901  0.5736
 6231TIP3   OH240251   1.418   1.669   8.267  0.0363 -0.4220  0.4740
 6231TIP3    H140252   1.457   1.608   8.329  3.1730 -0.8454 -1.6797
 6231TIP3    H240253   1.452   1.754   8.293 -0.7243 -0.2006  0.7904
 6232TIP3   OH240254   1.551   1.926   8.355  0.1093 -0.5623  0.0518
 6232TIP3    H140255   1.633   1.876   8.353  0.4514  0.0065 -1.0510
 6232TIP3    H240256   1.544   1.956   8.446  0.5189 -1.5785  0.4405
 6233TIP3   OH240257   2.498   2.381   0.404  0.0975 -0.3820 -0.1847
 6233TIP3    H140258   2.473   2.300   0.448  0.9862  0.6158  2.3837
 6233TIP3    H240259   2.439   2.447   0.440  2.5245  0.9578  1.6334
 6234TIP3   OH240260   2.395   0.526   6.691  0.6738 -0.5066 -0.0601
 6234TIP3    H140261   2.411   0.620   6.677  0.8069 -0.1261  2.3044
 6234TIP3    H240262   2.352   0.497   6.610 -0.9198  1.9783 -0.2057
 6235TIP3   OH240263   3.510   2.971   0.667  0.0586  0.0909  0.4124
 6235TIP3    H140264   3.578   3.037   0.650  0.9539 -1.1597 -1.1687
 6235TIP3    H240265   3.546   2.916   0.737  0.6063 -0.4220 -0.2546
 6236TIP3   OH240266   2.173   4.219   0.378 -0.3327 -0.4343 -0.0799
 6236TIP3    H140267   2.143   4.188   0.292 -0.6079 -1.1564  0.2641
 6236TIP3    H240268   2.092   4.238   0.425 -0.2136 -0.9631  0.3437
 6237TIP3   OH240269   1.699   1.174   6.128 -0.1041  0.1723  0.8281
 6237TIP3    H140270   1.719   1.261   6.163  0.8675  0.0789  0.5418
 6237TIP3    H240271   1.605   1.176   6.111 -0.0515  1.2655  0.5833
 6238TIP3   OH240272   1.835   1.656   0.849  0.4132  0.2442 -0.1062
 6238TIP3    H140273   1.846   1.566   0.819  1.5206  0.2289  0.2916
 6238TIP3    H240274   1.760   1.689   0.799  1.7221 -0.0010 -2.3777
 6239TIP3   OH240275   0.939   3.139   0.925 -0.0896 -0.5594 -0.2732
 6239TIP3    H140276   0.958   3.227   0.956  0.1362 -0.4154 -0.8216
 6239TIP3    H240277   0.856   3.147   0.878  0.5065 -0.4034 -1.3263
 6240TIP3   OH240278   3.227   3.881   7.847 -0.4954 -0.3180  0.8716
 6240TIP3    H140279   3.268   3.857   7.764 -0.5486 -1.4817  1.1663
 6240TIP3    H240280   3.140   3.842   7.844 -0.6902  0.0673  1.2703
 6241TIP3   OH240281   3.087   0.278   8.418  0.1397 -0.3056  0.0654
 6241TIP3    H140282   3.010   0.308   8.369  1.1300  2.6312  0.1059
 6241TIP3    H240283   3.126   0.211   8.362 -0.0461  1.2966 -2.0877
 6242TIP3   OH240284   2.687   3.639   7.375 -0.7370 -0.3442 -0.4660
 6242TIP3    H140285   2.720   3.559   7.416  0.5767 -1.1562 -2.8814
 6242TIP3    H240286   2.659   3.611   7.288  1.4161  2.0405 -2.0824
 6243TIP3   OH240287   2.947   5.505   1.160  0.3438 -0.2677 -0.8680
 6243TIP3    H140288   2.902   5.421   1.164  0.3872 -0.2922 -0.8875
 6243TIP3    H240289   2.995   5.503   1.078  1.2700 -0.6947 -0.3326
 6244TIP3   OH240290   5.192   2.923   2.008  0.3539 -0.8646  0.8292
 6244TIP3    H140291   5.187   3.010   1.969 -1.7016 -0.5777  1.6027
 6244TIP3    H240292   5.153   2.933   2.095  0.7053 -2.4215  1.2087
 6245TIP3   OH240293   1.070   4.696   8.426  0.8357 -0.0412  0.1541
 6245TIP3    H140294   1.055   4.686   8.332  0.5349  1.1805  0.0650
 6245TIP3    H240295   1.114   4.780   8.435  1.0808 -0.2524  1.0983
 6246TIP3   OH240296   5.272   3.060   8.852 -0.3768 -0.3735  0.0570
 6246TIP3    H140297   5.341   3.064   8.786 -0.1447 -0.0427  0.3188
 6246TIP3    H240298   5.314   3.088   8.933 -0.5416 -1.1986  0.4471
 6247TIP3   OH240299   0.586   2.931   0.288  0.3274 -0.1692 -0.4292
 6247TIP3    H140300   0.669   2.976   0.275 -0.6148  1.9089  0.2872
 6247TIP3    H240301   0.554   2.963   0.372 -0.5251 -2.0529  0.0105
 6248TIP3   OH240302   5.409   0.980   2.493  0.2414 -0.2244 -0.0718
 6248TIP3    H140303   5.332   0.981   2.550  0.2175 -0.0633 -0.1059
 6248TIP3    H240304   5.375   1.002   2.406  0.0108 -2.1422 -0.5054
 6249TIP3   OH240305   6.067   4.918   7.500  0.2368  0.5033 -0.0408
 6249TIP3    H140306   6.145   4.875   7.534 -0.5642 -1.6472 -0.8028
 6249TIP3    H240307   6.101   4.983   7.439  1.4597  0.6383  0.7328
 6250TIP3   OH240308   5.351   2.542   1.916 -0.0251 -0.0233 -0.2338
 6250TIP3    H140309   5.368   2.634   1.898 -0.3994  0.5579  2.0633
 6250TIP3    H240310   5.434   2.498   1.899  0.2719  0.8061 -0.9626
 6251TIP3   OH240311   6.743   6.096   0.571  0.5433  0.4091  0.1212
 6251TIP3    H140312   6.695   6.175   0.596  0.3138  0.4564 -0.4373
 6251TIP3    H240313   6.676   6.040   0.531  1.2394  1.2406 -2.4271
 6252TIP3   OH240314   4.230   0.045   8.102  0.4572 -0.5297 -0.0564
 6252TIP3    H140315   4.243  -0.045   8.132 -0.4757 -0.3949  0.8010
 6252TIP3    H240316   4.301   0.060   8.040  1.7061 -1.2753  1.1279
 6253TIP3   OH240317   5.095   2.510   1.583 -0.2356 -0.3035  0.0893
 6253TIP3    H140318   5.102   2.473   1.495 -0.7613 -1.5447  0.5499
 6253TIP3    H240319   5.111   2.436   1.641 -1.1851  0.2258  1.0483
 6254TIP3   OH240320   3.509   3.254   1.879  0.1224  0.1894 -0.5200
 6254TIP3    H140321   3.550   3.304   1.949 -1.1647  0.4210  0.1087
 6254TIP3    H240322   3.448   3.315   1.838 -2.5974 -1.1471  1.2158
 6255TIP3   OH240323   0.525   1.345   8.841  0.3849  0.6669  0.1590
 6255TIP3    H140324   0.613   1.351   8.803  0.3128 -1.2457 -0.4051
 6255TIP3    H240325   0.526   1.265   8.893 -0.6680  1.2833  1.1921
 6256TIP3   OH240326   3.558   6.695   6.840 -1.1006  0.3914  0.0065
 6256TIP3    H140327   3.521   6.682   6.927  0.0335  1.7454  0.7346
 6256TIP3    H240328   3.498   6.757   6.798 -0.2249  1.8583  0.8433
 6257TIP3   OH240329   5.806   1.161   1.107 -0.2368 -1.0702  0.2187
 6257TIP3    H140330   5.719   1.121   1.108 -1.7779  1.9278 -0.7948
 6257TIP3    H240331   5.821   1.184   1.016 -0.0977  1.7508  0.8739
 6258TIP3   OH240332   3.251   4.852   1.552 -0.4717  0.1322 -0.1153
 6258TIP3    H140333   3.295   4.824   1.632  1.1561  1.0587 -0.6450
 6258TIP3    H240334   3.289   4.798   1.483  0.2526  1.2895 -0.6544
 6259TIP3   OH240335   3.338   1.565   1.843  0.0426  0.8762  0.1594
 6259TIP3    H140336   3.280   1.607   1.906 -0.4190  0.3285  0.0987
 6259TIP3    H240337   3.424   1.604   1.861 -0.1069  0.8129  1.0383
 6260TIP3   OH240338   4.267   4.392   2.283  0.2674 -0.2871  0.1722
 6260TIP3    H140339   4.184   4.435   2.306 -1.2065 -2.1195 -1.3140
 6260TIP3    H240340   4.307   4.372   2.367 -1.0602  0.2084  0.9604
 6261TIP3   OH240341   2.241   3.097   7.354  0.0080  0.2220 -0.1630
 6261TIP3    H140342   2.304   3.132   7.291  1.5380 -0.2674  1.0039
 6261TIP3    H240343   2.278   3.013   7.380 -1.0085  0.0308  0.7543
 6262TIP3   OH240344   4.504   1.636   0.929  0.3337  0.1085  0.0670
 6262TIP3    H140345   4.553   1.609   0.851  1.2134 -1.5892  1.1438
 6262TIP3    H240346   4.415   1.604   0.913  0.1285  1.0763 -0.8493
 6263TIP3   OH240347   0.734   3.279   1.211  0.3739 -0.3783 -0.2038
 6263TIP3    H140348   0.759   3.195   1.250  2.4386 -0.4349 -1.4975
 6263TIP3    H240349   0.785   3.344   1.258  0.5418 -0.1061 -0.7575
 6264TIP3   OH240350   5.636   2.806   8.756  0.1746 -0.2920 -0.2397
 6264TIP3    H140351   5.647   2.769   8.843 -0.5197  0.5274  0.2019
 6264TIP3    H240352   5.651   2.731   8.697 -0.2204 -1.0487  0.5957
 6265TIP3   OH240353   1.316   2.199   2.031  0.5527  0.0062 -0.3440
 6265TIP3    H140354   1.363   2.241   1.960 -0.2471 -0.1986 -1.0063
 6265TIP3    H240355   1.376   2.132   2.064  0.5613 -0.5713 -1.4942
 6266TIP3   OH240356   1.179   3.030   0.885  0.2397 -0.4522 -0.4352
 6266TIP3    H140357   1.217   3.104   0.837 -0.3456 -0.9628 -1.7186
 6266TIP3    H240358   1.087   3.054   0.897  0.4327 -0.2250  0.6671
 6267TIP3   OH240359   4.529   4.410   0.967  0.1527  0.2236 -0.1945
 6267TIP3    H140360   4.453   4.371   0.924  0.5367  0.3095 -0.9618
 6267TIP3    H240361   4.493   4.476   1.026 -0.3526  0.4238 -0.7273
 6268TIP3   OH240362   2.772   1.758   1.626 -0.3252  0.3121 -0.4411
 6268TIP3    H140363   2.851   1.810   1.612 -0.2317  0.1126 -0.6634
 6268TIP3    H240364   2.700   1.815   1.598 -0.2360  0.3813 -0.5299
 6269TIP3   OH240365   3.139   1.930   1.120 -0.6585  0.0107  0.2429
 6269TIP3    H140366   3.085   2.005   1.095 -0.2961 -0.4151 -1.9480
 6269TIP3    H240367   3.195   1.914   1.045  0.0061 -1.8255  1.0768
 6270TIP3   OH240368   3.989   0.901   0.474  0.2458  0.5114  0.4721
 6270TIP3    H140369   3.983   0.991   0.507  1.9125  0.0949  2.0722
 6270TIP3    H240370   3.935   0.850   0.534  0.1009  0.2978  0.1625
 6271TIP3   OH240371   2.675   3.262   0.764 -0.7335  0.1659 -0.3032
 6271TIP3    H140372   2.586   3.234   0.787 -0.9631 -0.1463 -1.4825
 6271TIP3    H240373   2.670   3.283   0.670 -0.1777  2.6770  0.1619
 6272TIP3   OH240374   5.168   4.210   1.404 -0.0592  0.0207  0.3219
 6272TIP3    H140375   5.136   4.250   1.484  1.0755  0.9040  0.3632
 6272TIP3    H240376   5.146   4.117   1.413  0.3853  0.0339  1.8309
 6273TIP3   OH240377   2.575   1.119   1.484  0.1852 -0.3457  0.2368
 6273TIP3    H140378   2.596   1.071   1.404 -1.2267 -0.4709 -0.0755
 6273TIP3    H240379   2.659   1.156   1.512  0.9122 -1.2337 -0.6699
 6274TIP3   OH240380   4.224   5.501   8.387  0.5243  0.1347  0.3989
 6274TIP3    H140381   4.283   5.575   8.372  1.6626 -0.4848  1.5992
 6274TIP3    H240382   4.138   5.533   8.361  1.2170  1.4074 -0.4314
 6275TIP3   OH240383   5.533   6.350   0.750  0.0759  0.1151 -0.3588
 6275TIP3    H140384   5.576   6.266   0.763  1.4873  0.8250 -0.2227
 6275TIP3    H240385   5.523   6.386   0.838  0.1994  0.4275 -0.4702
 6276TIP3   OH240386   0.520   1.248   2.087 -0.1888  0.4853  0.4140
 6276TIP3    H140387   0.614   1.231   2.100 -0.1848  1.3613  1.6984
 6276TIP3    H240388   0.515   1.343   2.075 -0.8466  0.3545 -0.3596
 6277TIP3   OH240389   1.476   5.663   7.244  0.2497 -0.2075 -0.0337
 6277TIP3    H140390   1.467   5.749   7.285  0.5928 -0.0325 -0.3261
 6277TIP3    H240391   1.397   5.654   7.191 -0.3752 -0.5832  0.9229
 6278TIP3   OH240392   5.149   4.377   0.779  0.1850 -0.5422 -0.0224
 6278TIP3    H140393   5.222   4.381   0.717  0.9240 -0.9644  0.7900
 6278TIP3    H240394   5.174   4.437   0.849 -1.2208  0.8948 -0.7008
 6279TIP3   OH240395   1.252   6.294   1.905 -0.1220  0.5320  0.4127
 6279TIP3    H140396   1.248   6.311   1.811 -1.7474  0.0362  0.3561
 6279TIP3    H240397   1.168   6.251   1.925  1.0107 -1.2141  1.7179
 6280TIP3   OH240398   1.487   4.172   7.654  0.0309  0.5926 -0.3585
 6280TIP3    H140399   1.403   4.191   7.612  0.1633 -1.0768 -1.4630
 6280TIP3    H240400   1.541   4.249   7.635 -0.5574  0.7391 -1.5374
 6281TIP3   OH240401   1.576   0.248   1.776 -0.1322  0.0970 -0.3409
 6281TIP3    H140402   1.609   0.236   1.865 -1.5229 -0.5248  0.1123
 6281TIP3    H240403   1.625   0.185   1.723  0.5335  0.3051  0.0173
 6282TIP3   OH240404   6.097   1.496   7.713  0.1205 -0.1547 -0.1379
 6282TIP3    H140405   6.116   1.494   7.620 -0.4430 -2.2303 -0.2596
 6282TIP3    H240406   6.164   1.553   7.751 -0.4464  1.8480 -1.9383
 6283TIP3   OH240407   3.277   6.272   0.291 -0.1938  0.1604  0.0365
 6283TIP3    H140408   3.340   6.208   0.323 -0.9072 -0.9382 -0.6772
 6283TIP3    H240409   3.204   6.268   0.353 -1.0044 -1.0235 -0.9405
 6284TIP3   OH240410   4.001   5.004   1.919  0.1599  0.0080 -0.1971
 6284TIP3    H140411   3.974   5.049   1.839  2.4851  0.6666 -0.6708
 6284TIP3    H240412   4.011   5.074   1.984  0.1700 -0.2828  0.1193
 6285TIP3   OH240413   4.896   4.304   1.613 -0.0323  0.6014 -0.2995
 6285TIP3    H140414   4.974   4.358   1.619 -0.4127  1.0772  0.6642
 6285TIP3    H240415   4.921   4.221   1.654 -0.8267  1.7514  2.8028
 6286TIP3   OH240416   4.023   2.429   1.552 -0.3781  0.1015  0.1041
 6286TIP3    H140417   3.976   2.512   1.550  0.2851  0.4761 -0.4621
 6286TIP3    H240418   4.098   2.446   1.609  0.0707  0.0695 -0.4713
 6287TIP3   OH240419   2.505   5.384   0.934  0.2377  0.0797  0.2961
 6287TIP3    H140420   2.578   5.446   0.938 -0.2141  0.5780  2.7908
 6287TIP3    H240421   2.539   5.306   0.980 -0.2678 -0.3078  0.0191
 6288TIP3   OH240422   2.325   0.830   7.964 -0.2018 -0.7189 -0.0744
 6288TIP3    H140423   2.275   0.748   7.965  0.0439 -0.8655  0.1932
 6288TIP3    H240424   2.414   0.804   7.986 -0.3997 -0.1954  1.4535
 6289TIP3   OH240425   0.886   3.670   8.119 -0.0342  0.4534  0.7040
 6289TIP3    H140426   0.878   3.681   8.213  0.3094  0.1683  0.7710
 6289TIP3    H240427   0.979   3.681   8.101  0.0081 -0.1822  0.4955
 6290TIP3   OH240428   0.836   3.916   0.714 -0.8482  0.0842  0.6934
 6290TIP3    H140429   0.898   3.934   0.643 -1.9261 -0.6796 -0.4771
 6290TIP3    H240430   0.857   3.981   0.781  0.6282  0.4072 -0.0450
 6291TIP3   OH240431   4.858   4.478   7.418 -0.4110 -0.4374  0.5247
 6291TIP3    H140432   4.852   4.452   7.326  0.3835  1.6056 -0.1572
 6291TIP3    H240433   4.900   4.404   7.462 -0.3552 -1.2424 -0.8413
 6292TIP3   OH240434   1.672   3.424   7.389  0.3529 -0.0788 -0.1562
 6292TIP3    H140435   1.656   3.339   7.430 -0.1482 -0.2436 -0.6866
 6292TIP3    H240436   1.584   3.458   7.368  0.5675  0.3779 -0.3366
 6293TIP3   OH240437   1.052   3.007   7.074  0.5220  0.7094 -0.3258
 6293TIP3    H140438   1.082   3.027   7.163  0.9393 -1.8407  0.1972
 6293TIP3    H240439   1.121   3.039   7.017  0.0667  2.7349  0.2005
 6294TIP3   OH240440   2.852   2.125   6.921  1.2319 -0.0965  0.3521
 6294TIP3    H140441   2.841   2.036   6.955 -2.1942 -0.5978 -1.6219
 6294TIP3    H240442   2.834   2.182   6.995  0.0763 -1.1034  0.8806
 6295TIP3   OH240443   5.554   5.939   0.335 -0.5652 -0.0990 -0.2399
 6295TIP3    H140444   5.529   5.988   0.257  0.1804  0.8227  0.0668
 6295TIP3    H240445   5.598   5.861   0.302 -0.7565  0.0013 -0.7359
 6296TIP3   OH240446   4.505   6.091   6.693 -0.3606  0.3887  0.1759
 6296TIP3    H140447   4.410   6.085   6.684 -0.1121 -1.7574 -1.8774
 6296TIP3    H240448   4.528   6.025   6.758 -0.2123  0.7712  0.5253
 6297TIP3   OH240449   1.303   1.359   1.890  0.0841  0.3095 -0.6548
 6297TIP3    H140450   1.312   1.340   1.796 -0.1406 -0.6527 -0.4944
 6297TIP3    H240451   1.330   1.278   1.933 -1.4940  0.1247  0.0670
 6298TIP3   OH240452   6.704   2.944   0.750  0.2978 -0.4599  0.1036
 6298TIP3    H140453   6.765   2.966   0.680 -0.4464  0.4415 -0.2852
 6298TIP3    H240454   6.725   3.006   0.820 -0.9629  0.7047 -0.5062
 6299TIP3   OH240455   3.965   3.355   1.356  0.2334  0.4553 -0.5097
 6299TIP3    H140456   4.046   3.379   1.310  0.7922  1.0518  0.7561
 6299TIP3    H240457   3.897   3.364   1.289  1.0582  1.0395 -1.2993
 6300TIP3   OH240458   1.136   5.563   0.335  0.2005  0.3133 -0.4661
 6300TIP3    H140459   1.190   5.605   0.402 -0.6942  0.5547  0.1194
 6300TIP3    H240460   1.157   5.609   0.254  1.5259 -0.1836 -0.4294
 6301TIP3   OH240461   2.093   4.062   1.649 -0.7830  0.0128 -0.4079
 6301TIP3    H140462   2.181   4.085   1.621  0.3172 -1.1453  1.8589
 6301TIP3    H240463   2.038   4.082   1.573  1.6353 -0.8663 -2.5196
 6302TIP3   OH240464   3.575   3.379   0.312  0.8827 -0.1980 -0.4135
 6302TIP3    H140465   3.538   3.466   0.328  0.8587  0.2238 -2.5168
 6302TIP3    H240466   3.664   3.384   0.348  1.0526  0.8695 -0.9397
 6303TIP3   OH240467   4.889   6.304   7.914 -0.9256  0.2443 -0.2397
 6303TIP3    H140468   4.956   6.365   7.945 -1.7272  0.7928  0.4605
 6303TIP3    H240469   4.934   6.249   7.851 -0.3750  2.1254 -1.5611
 6304TIP3   OH240470   0.119   3.948   8.409 -0.3892 -0.1215  0.1292
 6304TIP3    H140471   0.149   3.867   8.450 -1.0925  0.4437  1.8509
 6304TIP3    H240472   0.089   4.002   8.482 -0.4631  1.4765 -1.0371
 6305TIP3   OH240473   2.057   0.760   6.326  0.2504  0.2051 -0.3828
 6305TIP3    H140474   1.980   0.773   6.382  1.8732  0.5525  1.9351
 6305TIP3    H240475   2.022   0.726   6.244 -2.5617  2.5027 -0.2714
 6306TIP3   OH240476   3.359   4.398   6.686 -0.0727  0.1910 -0.1062
 6306TIP3    H140477   3.392   4.463   6.625 -0.1358 -0.4770 -0.8658
 6306TIP3    H240478   3.328   4.326   6.631  0.4369 -0.6938  0.7279
 6307TIP3   OH240479   0.922   0.564   8.483  0.6702 -0.2743 -0.0257
 6307TIP3    H140480   0.987   0.553   8.553  2.0357  1.2956 -0.9620
 6307TIP3    H240481   0.922   0.479   8.437  1.3226 -0.6206  0.5926
 6308TIP3   OH240482   2.881   2.591   1.413  0.2394  0.2772 -0.2214
 6308TIP3    H140483   2.793   2.580   1.450 -1.5335 -1.6441 -4.3253
 6308TIP3    H240484   2.926   2.508   1.433 -0.9472 -1.0379 -2.5493
 6309TIP3   OH240485   1.289   0.786   1.956  0.3188 -0.5567  0.1747
 6309TIP3    H140486   1.336   0.829   2.027  2.0443 -2.5852  0.3507
 6309TIP3    H240487   1.355   0.768   1.889 -0.2861 -2.7500  0.0680
 6310TIP3   OH240488   0.767   4.372   1.019 -0.5453 -0.0270 -0.0820
 6310TIP3    H140489   0.784   4.294   1.072  2.7669  0.0036 -0.8940
 6310TIP3    H240490   0.765   4.444   1.082 -1.6617 -0.5141  0.4645
 6311TIP3   OH240491   0.340   3.413   7.815 -0.0565 -0.0925  0.2668
 6311TIP3    H140492   0.342   3.508   7.809  1.4752 -0.1392 -0.7338
 6311TIP3    H240493   0.330   3.394   7.908 -0.8164  1.0367  0.4239
 6312TIP3   OH240494   4.509   3.696   7.807  0.1913  0.5844 -0.0821
 6312TIP3    H140495   4.473   3.654   7.728 -0.4554  1.6498 -0.3759
 6312TIP3    H240496   4.450   3.769   7.824  1.0911  1.1656  0.6226
 6313TIP3   OH240497   2.236   5.398   2.601  0.2317 -0.0306  0.5011
 6313TIP3    H140498   2.191   5.314   2.616 -1.1646  0.5126 -0.4424
 6313TIP3    H240499   2.325   5.374   2.577 -0.3447 -1.2841 -0.4687
 6314TIP3   OH240500   1.837   5.322   0.200  0.7815  0.2813 -0.2101
 6314TIP3    H140501   1.803   5.234   0.214  2.4322 -0.5000 -0.7833
 6314TIP3    H240502   1.843   5.360   0.287  0.8010 -0.4734  0.1265
 6315TIP3   OH240503   4.326   3.314   8.290 -0.1442 -0.0332  0.5060
 6315TIP3    H140504   4.371   3.274   8.216  0.0445 -1.6026  1.4307
 6315TIP3    H240505   4.248   3.355   8.252  2.0583  2.9705 -1.1895
 6316TIP3   OH240506   3.329   6.702   0.653 -0.4214  0.0104  0.4931
 6316TIP3    H140507   3.411   6.697   0.702  0.1687  0.3044 -0.4348
 6316TIP3    H240508   3.281   6.774   0.695  0.2698  0.5576  0.3717
 6317TIP3   OH240509   2.228   3.606   1.217 -0.1033 -0.4299  0.0492
 6317TIP3    H140510   2.146   3.653   1.234  0.4278  0.0152  1.5753
 6317TIP3    H240511   2.265   3.590   1.304 -0.2614 -3.7631 -0.3317
 6318TIP3   OH240512   3.588   5.368   0.583  0.2226 -0.6019 -0.1391
 6318TIP3    H140513   3.648   5.317   0.530  0.9617 -2.0673  1.9695
 6318TIP3    H240514   3.523   5.305   0.614 -1.9558  0.7681 -1.6185
 6319TIP3   OH240515   2.674   6.376   8.408  0.2353  0.2814 -0.2547
 6319TIP3    H140516   2.631   6.298   8.445  0.7743  0.1698  0.1542
 6319TIP3    H240517   2.656   6.445   8.472  2.0147 -0.1422  0.7697
 6320TIP3   OH240518   6.535   2.627   7.965 -0.4671  0.3580  0.0754
 6320TIP3    H140519   6.481   2.570   7.910 -0.3984  0.9662 -0.6315
 6320TIP3    H240520   6.520   2.715   7.931  1.3902  0.4929 -0.4760
 6321TIP3   OH240521   2.823   1.126   0.923  0.0917  0.3434  0.6608
 6321TIP3    H140522   2.846   1.168   0.840 -2.4299 -0.3291 -0.4706
 6321TIP3    H240523   2.839   1.193   0.989  0.8941  1.3524 -0.5155
 6322TIP3   OH240524   4.456   2.268   8.780  0.3658  0.0334 -0.2880
 6322TIP3    H140525   4.530   2.247   8.838  0.6704 -0.2940 -0.7825
 6322TIP3    H240526   4.391   2.307   8.838  0.8088  0.0537  0.2130
 6323TIP3   OH240527   3.465   6.407   8.510  0.3432 -0.2269 -0.4221
 6323TIP3    H140528   3.539   6.468   8.508  1.2446 -1.2661 -0.0146
 6323TIP3    H240529   3.390   6.461   8.534  0.9968  0.8174 -0.6358
 6324TIP3   OH240530   1.355   2.348   0.910  0.1083  0.4267 -0.2920
 6324TIP3    H140531   1.417   2.289   0.953 -0.6629 -0.8350 -0.8425
 6324TIP3    H240532   1.404   2.429   0.897  1.5831 -0.4668 -0.5356
 6325TIP3   OH240533   6.712   4.631   8.124  0.1609  0.3232  0.0823
 6325TIP3    H140534   6.757   4.705   8.164 -1.0365  2.3390 -2.0530
 6325TIP3    H240535   6.780   4.585   8.076  0.4090  2.0328 -1.3000
 6326TIP3   OH240536   0.066   6.641   2.627  0.8928 -0.0936  0.5241
 6326TIP3    H140537   0.112   6.707   2.576  1.2383  0.5518  1.6253
 6326TIP3    H240538  -0.027   6.663   2.616  0.9323 -0.2650 -0.2035
 6327TIP3   OH240539   6.219   2.827   7.983  0.5221 -0.1510 -0.9556
 6327TIP3    H140540   6.178   2.761   8.039  3.7594  0.9687  3.2382
 6327TIP3    H240541   6.157   2.899   7.980 -0.3277 -0.8226 -0.0552
 6328TIP3   OH240542   4.772   6.387   8.831 -0.0783  0.1707  0.2405
 6328TIP3    H140543   4.733   6.474   8.841  0.7376  0.8352 -1.8493
 6328TIP3    H240544   4.827   6.394   8.753 -0.7284 -2.4957 -0.5581
 6329TIP3   OH240545   6.562   3.038   1.313 -0.0153 -0.3067 -0.3222
 6329TIP3    H140546   6.494   3.094   1.350  0.2660 -0.3246  0.2274
 6329TIP3    H240547   6.603   2.995   1.388  3.1073  2.4733 -0.2180
 6330TIP3   OH240548   2.633   2.606   8.804 -0.4002 -0.5770  0.6969
 6330TIP3    H140549   2.601   2.690   8.836 -0.6315 -0.9722  1.5261
 6330TIP3    H240550   2.690   2.628   8.730 -0.2480  0.3247  1.0786
 6331TIP3   OH240551   3.646   6.620   8.507  0.4806 -0.1021 -0.2167
 6331TIP3    H140552   3.638   6.655   8.596 -2.1871  1.0788 -0.8107
 6331TIP3    H240553   3.712   6.676   8.465 -0.1984  1.1081  0.2722
 6332TIP3   OH240554   6.318   3.046   0.001 -0.6769 -0.1562 -0.4585
 6332TIP3    H140555   6.231   3.007  -0.011 -1.8474  2.0651  0.3290
 6332TIP3    H240556   6.322   3.117  -0.064  1.7116 -1.8616 -2.4071
 6333TIP3   OH240557   6.665   3.724   1.804  0.6084  0.3319 -0.0090
 6333TIP3    H140558   6.598   3.668   1.766  0.3998  0.8071 -0.3450
 6333TIP3    H240559   6.633   3.744   1.892  0.1650  0.7983 -0.2741
 6334TIP3   OH240560   4.056   1.815   1.350  0.0766  0.3578 -0.2901
 6334TIP3    H140561   4.052   1.736   1.297 -0.7132  0.5002 -0.4532
 6334TIP3    H240562   3.964   1.834   1.372  0.2359  1.3770 -0.4749
 6335TIP3   OH240563   3.142   0.726   7.783  0.3107 -0.4990  0.3172
 6335TIP3    H140564   3.149   0.806   7.732  2.0562 -0.8858 -0.1156
 6335TIP3    H240565   3.091   0.666   7.727 -0.4613  0.0778  0.3838
 6336TIP3   OH240566   4.556   3.452   0.243  0.0668 -0.3712 -0.0253
 6336TIP3    H140567   4.635   3.432   0.194  0.0597  1.2437 -0.7703
 6336TIP3    H240568   4.585   3.465   0.333  0.6389  0.0444 -0.2651
 6337TIP3   OH240569   0.694   4.074   1.341  1.0557  0.4395  0.6911
 6337TIP3    H140570   0.781   4.052   1.373  1.0987 -0.9068 -0.2520
 6337TIP3    H240571   0.635   4.014   1.387  1.1129 -1.4759 -1.5420
 6338TIP3   OH240572   1.028   6.685   8.058 -0.1423  0.0311  0.4913
 6338TIP3    H140573   0.944   6.726   8.081 -0.3244  0.4804 -0.9331
 6338TIP3    H240574   1.070   6.671   8.143 -1.1215  0.9371  1.1687
 6339TIP3   OH240575   3.971   5.812   7.528  0.5018  0.4540  0.2677
 6339TIP3    H140576   3.899   5.766   7.485  0.6671  0.0275  0.4395
 6339TIP3    H240577   4.036   5.743   7.545  1.3376  0.9699 -0.7047
 6340TIP3   OH240578   2.199   5.179   1.820 -0.2040  0.7004 -0.2259
 6340TIP3    H140579   2.221   5.088   1.842 -1.2788  0.7146  1.0479
 6340TIP3    H240580   2.284   5.224   1.819  0.4952 -0.5491 -2.2341
 6341TIP3   OH240581   4.418   5.548   0.450 -0.6129 -0.1281 -0.1798
 6341TIP3    H140582   4.342   5.594   0.414 -0.9069 -0.2404  0.2878
 6341TIP3    H240583   4.392   5.524   0.539  0.3616  0.7705  0.3685
 6342TIP3   OH240584   3.413   4.480   8.303 -0.2871  0.1672 -0.3178
 6342TIP3    H140585   3.349   4.502   8.236  0.0576  2.5799  0.0788
 6342TIP3    H240586   3.474   4.553   8.304  1.4014 -1.1593  0.6461
 6343TIP3   OH240587   1.821   6.379   7.850  0.0248 -0.0971 -0.4837
 6343TIP3    H140588   1.885   6.451   7.844 -0.5822  0.6671  1.5174
 6343TIP3    H240589   1.865   6.312   7.901 -0.2058 -0.2294 -0.4572
 6344TIP3   OH240590   0.451   0.562   8.409  0.1320 -0.0613 -0.0025
 6344TIP3    H140591   0.536   0.601   8.387  0.1505  0.2765  0.6437
 6344TIP3    H240592   0.399   0.573   8.330  0.8914 -0.8417 -0.6211
 6345TIP3   OH240593   3.204   3.820   0.580 -0.0188 -0.1243 -0.7167
 6345TIP3    H140594   3.290   3.780   0.571 -0.5148 -0.8970 -2.2757
 6345TIP3    H240595   3.164   3.813   0.494 -1.3063  1.0397 -0.2563
 6346TIP3   OH240596   6.202   5.290   2.279  0.0938 -0.2643 -0.3217
 6346TIP3    H140597   6.199   5.198   2.307 -0.4456  0.0981  0.8911
 6346TIP3    H240598   6.129   5.299   2.219  0.4509 -0.7467 -0.8359
 6347TIP3   OH240599   5.767   0.830   0.180 -0.3604  0.1066 -0.0533
 6347TIP3    H140600   5.794   0.780   0.103  0.1196  0.8211 -0.3690
 6347TIP3    H240601   5.799   0.919   0.162 -2.3516  0.8411 -0.1344
 6348TIP3   OH240602   4.575   1.483   0.718 -0.1361  0.0905 -0.3161
 6348TIP3    H140603   4.589   1.390   0.731 -0.2878  0.1903  0.6736
 6348TIP3    H240604   4.493   1.489   0.668 -1.0114 -0.2897  1.0037
 6349TIP3   OH240605   6.398   4.947   0.922  0.1002 -0.0559  0.1362
 6349TIP3    H140606   6.443   4.899   0.992  1.4120 -0.7689 -1.1551
 6349TIP3    H240607   6.321   4.984   0.965  0.6660 -0.7808  1.8746
 6350TIP3   OH240608   5.991   3.555   0.149 -0.5799 -0.1686 -0.1791
 6350TIP3    H140609   6.063   3.555   0.087  0.2306 -0.5185  0.7454
 6350TIP3    H240610   6.028   3.518   0.230 -1.3667  1.0541  0.7801
 6351TIP3   OH240611   0.583   6.300   7.313 -0.3392  0.4479  0.4185
 6351TIP3    H140612   0.491   6.282   7.335 -0.6923  1.0549 -0.5076
 6351TIP3    H240613   0.588   6.395   7.303  0.2038  0.3582 -0.2917
 6352TIP3   OH240614   4.258   3.585   2.674 -0.3516 -0.1196  0.3183
 6352TIP3    H140615   4.202   3.644   2.623 -0.7493 -0.3884  0.4410
 6352TIP3    H240616   4.254   3.502   2.627  0.5594  0.0608 -0.1012
 6353TIP3   OH240617   6.316   2.628   1.516  0.2151 -0.5877  0.2433
 6353TIP3    H140618   6.233   2.584   1.539  0.2407 -0.4899  0.5170
 6353TIP3    H240619   6.345   2.582   1.437 -0.7031  0.1475 -0.5542
 6354TIP3   OH240620   4.597   3.990   0.019 -0.0171  0.5026  0.6658
 6354TIP3    H140621   4.522   4.043   0.045  0.9849  1.4814  1.6859
 6354TIP3    H240622   4.560   3.904  -0.000 -1.6168  1.3893 -0.4959
 6355TIP3   OH240623   3.172   3.727   6.876  0.0077 -0.7168 -0.0612
 6355TIP3    H140624   3.150   3.789   6.947  1.4867 -1.2948  0.9457
 6355TIP3    H240625   3.167   3.779   6.796 -0.6411  0.2207  0.5657
 6356TIP3   OH240626   0.713   0.433   0.888 -0.2522 -0.4534 -0.5778
 6356TIP3    H140627   0.756   0.380   0.955 -0.0710  0.8668  0.3909
 6356TIP3    H240628   0.732   0.389   0.805  2.2540 -0.3657 -0.0990
 6357TIP3   OH240629   6.017   2.631   7.448  0.3616 -0.5187 -0.5016
 6357TIP3    H140630   6.040   2.662   7.360  0.6172  0.0425 -0.2418
 6357TIP3    H240631   5.922   2.615   7.443  0.1748  0.5125 -0.5963
 6358TIP3   OH240632   4.055   0.312   8.708  0.1712 -0.4260  0.0017
 6358TIP3    H140633   4.138   0.281   8.672  0.0933  0.5113 -1.0150
 6358TIP3    H240634   4.000   0.233   8.711  0.8495 -0.9127  0.0114
 6359TIP3   OH240635   1.618   1.825   0.756  0.1293 -0.1303 -0.1102
 6359TIP3    H140636   1.676   1.892   0.720 -0.0440  0.4178  0.6168
 6359TIP3    H240637   1.531   1.864   0.754  0.1039 -0.0992  0.8269
 6360TIP3   OH240638   4.433   3.016   8.361  0.7455  0.4943 -0.0297
 6360TIP3    H140639   4.479   3.098   8.381 -0.2233  1.0159  0.1131
 6360TIP3    H240640   4.503   2.953   8.343  1.6372  0.5845  2.7217
 6361TIP3   OH240641   5.924   5.399   7.726  0.1501 -0.0383 -0.2758
 6361TIP3    H140642   5.877   5.482   7.734  1.4223  0.6259  0.7137
 6361TIP3    H240643   5.937   5.371   7.816 -0.0272 -1.1960 -0.5991
 6362TIP3   OH240644   6.495   2.582   7.424  0.3191 -0.5309 -0.1662
 6362TIP3    H140645   6.474   2.509   7.366 -1.0817  0.6819 -1.2848
 6362TIP3    H240646   6.411   2.607   7.462  0.7869  0.4165  0.2852
 6363TIP3   OH240647   6.403   3.221   8.400 -0.1653  0.1350  0.1535
 6363TIP3    H140648   6.468   3.192   8.464 -0.1698  1.5562  0.8532
 6363TIP3    H240649   6.443   3.296   8.357 -0.0761 -0.9382 -1.7279
 6364TIP3   OH240650   4.698   0.343   6.500  0.0024 -0.8879  0.5587
 6364TIP3    H140651   4.718   0.265   6.552  0.3610  0.0671  1.9239
 6364TIP3    H240652   4.656   0.310   6.421 -2.5420 -2.3330  2.3596
 6365TIP3   OH240653   4.024   3.838   7.983 -0.4210  0.5768 -0.1810
 6365TIP3    H140654   4.026   3.871   8.073 -1.9754 -2.9573  1.3416
 6365TIP3    H240655   3.938   3.864   7.950 -2.3912 -2.8466  1.6291
 6366TIP3   OH240656   3.090   2.267   7.507  0.4673  0.1194  0.5366
 6366TIP3    H140657   3.026   2.199   7.529  1.4020  0.1164  3.7891
 6366TIP3    H240658   3.175   2.225   7.519  1.0845  0.9610 -0.7355
 6367TIP3   OH240659   2.533   6.293   1.491  0.0051 -1.1443 -0.6236
 6367TIP3    H140660   2.460   6.276   1.431 -0.6685  2.6655 -1.1670
 6367TIP3    H240661   2.493   6.294   1.578 -0.3410 -0.5115 -0.7813
 6368TIP3   OH240662   3.077   5.355   0.708  0.0971  0.6961  0.1110
 6368TIP3    H140663   2.986   5.384   0.717 -0.9423 -2.2539  0.1372
 6368TIP3    H240664   3.128   5.436   0.703 -2.5392  2.4471 -0.1562
 6369TIP3   OH240665   1.413   1.795   1.035 -0.0931  0.1567  0.2525
 6369TIP3    H140666   1.326   1.774   1.002 -0.3691  0.9278  0.4718
 6369TIP3    H240667   1.452   1.851   0.968 -0.2138  0.7775  0.6994
 6370TIP3   OH240668   6.383   1.066   1.264 -0.2336  0.0285  0.0471
 6370TIP3    H140669   6.441   0.991   1.275 -1.5125 -0.8803  0.8136
 6370TIP3    H240670   6.437   1.142   1.288  0.5987 -0.7935  0.8343
 6371TIP3   OH240671   2.039   6.766   1.531 -0.0106 -0.4594  0.0311
 6371TIP3    H140672   2.047   6.726   1.617 -0.0601  0.9040  0.6996
 6371TIP3    H240673   1.959   6.728   1.494 -1.0139  0.2617  1.3553
 6372TIP3   OH240674   1.695   0.193   0.219 -0.1297  0.0885 -0.0906
 6372TIP3    H140675   1.660   0.127   0.160  1.6045 -2.9601  2.0101
 6372TIP3    H240676   1.693   0.152   0.305  4.7838  1.0540  0.7797
 6373TIP3   OH240677   1.007   1.232   1.457  0.1234  0.8073  0.5897
 6373TIP3    H140678   0.960   1.159   1.497 -0.0468  1.2265  1.1646
 6373TIP3    H240679   1.078   1.191   1.408  0.2368  0.2788  1.1855
 6374TIP3   OH240680   3.132   5.589   2.588 -0.0644  0.4664 -0.1747
 6374TIP3    H140681   3.172   5.548   2.664 -0.2300  0.3836 -0.1320
 6374TIP3    H240682   3.113   5.516   2.528 -1.4211  0.3308  0.3849
 6375TIP3   OH240683   2.258   4.972   1.245 -0.1437  0.3281  0.5997
 6375TIP3    H140684   2.268   5.009   1.333  1.3122 -0.2954  0.7295
 6375TIP3    H240685   2.346   4.942   1.222  0.3793  3.5861 -2.4880
 6376TIP3   OH240686   1.812   1.616   1.705  0.8588 -0.1350 -0.3938
 6376TIP3    H140687   1.723   1.596   1.676  0.2319  0.6651  0.8960
 6376TIP3    H240688   1.804   1.699   1.752  2.6689  1.1138 -2.0983
 6377TIP3   OH240689   1.900   3.709   7.927 -0.3510 -0.0297 -0.0998
 6377TIP3    H140690   1.932   3.787   7.882  0.7874  1.4127  2.9327
 6377TIP3    H240691   1.839   3.743   7.993  1.0655 -1.4794  2.0999
 6378TIP3   OH240692   2.733   4.753   1.052  0.1554  0.1252 -0.2744
 6378TIP3    H140693   2.730   4.715   1.140 -0.2586 -0.3301 -0.4809
 6378TIP3    H240694   2.825   4.754   1.029  0.3153  0.6773  0.3496
 6379TIP3   OH240695   3.667   5.242   0.067  0.1656  0.0741 -0.5108
 6379TIP3    H140696   3.705   5.314   0.117 -2.5188  0.1247  1.6633
 6379TIP3    H240697   3.738   5.213   0.009  2.4820  2.0246  1.1585
 6380TIP3   OH240698   6.066   2.586   8.101  0.3313  0.1696 -0.4791
 6380TIP3    H140699   6.098   2.572   8.190  0.7131 -1.5125 -0.8536
 6380TIP3    H240700   5.972   2.565   8.105  0.0579  1.3758 -0.2101
 6381TIP3   OH240701   6.707   3.771   0.798  0.7878  0.2107  0.2601
 6381TIP3    H140702   6.755   3.841   0.842  0.2155  0.5461  0.3726
 6381TIP3    H240703   6.737   3.774   0.707 -1.6987  2.9626 -0.6437
 6382TIP3   OH240704   0.694   3.405   8.228  0.6823  0.1982 -0.0987
 6382TIP3    H140705   0.695   3.311   8.243 -1.9155  0.0019 -0.7544
 6382TIP3    H240706   0.740   3.416   8.144  0.2063 -0.6066 -0.4802
 6383TIP3   OH240707   2.907   6.641   8.035 -0.2910  0.4090 -0.8106
 6383TIP3    H140708   2.845   6.618   7.966 -1.2210 -0.7415  0.3430
 6383TIP3    H240709   2.858   6.627   8.116  1.3555 -0.1346  0.1315
 6384TIP3   OH240710   4.159   0.474   8.347 -0.0235  0.2320  0.3068
 6384TIP3    H140711   4.169   0.379   8.357  1.1619  0.3050 -0.0283
 6384TIP3    H240712   4.105   0.483   8.268  1.0478 -0.1627 -0.4983
 6385TIP3   OH240713   3.330   6.141   1.233  1.0200  0.2236 -0.4001
 6385TIP3    H140714   3.250   6.112   1.276  0.5425 -1.3715 -2.2332
 6385TIP3    H240715   3.314   6.232   1.208 -0.0746  0.0209 -0.4434
 6386TIP3   OH240716   3.185   5.869   7.501  0.0519 -0.0949 -0.3973
 6386TIP3    H140717   3.109   5.851   7.446  0.0694 -0.2279 -0.3778
 6386TIP3    H240718   3.220   5.952   7.468 -0.5184  0.3316  0.0548
 6387TIP3   OH240719   1.703   1.198   8.130  0.5288 -0.6904 -0.5526
 6387TIP3    H140720   1.693   1.203   8.035 -0.3230  0.4227 -0.4269
 6387TIP3    H240721   1.656   1.274   8.163  2.6188  0.1600  0.6437
 6388TIP3   OH240722   0.293   2.841   1.762 -0.4768  0.1055 -0.1648
 6388TIP3    H140723   0.246   2.884   1.833 -0.6451  0.7482 -0.6526
 6388TIP3    H240724   0.364   2.793   1.805 -0.3576  0.7798  0.3996
 6389TIP3   OH240725   6.512   2.858   0.131 -0.1449 -0.2747  0.1580
 6389TIP3    H140726   6.485   2.857   0.039  1.6666  0.0771 -0.4230
 6389TIP3    H240727   6.449   2.915   0.174 -2.2541 -2.0496 -0.4193
 6390TIP3   OH240728   0.755   2.010   7.480 -0.6274 -0.2397  0.5638
 6390TIP3    H140729   0.727   2.082   7.424 -0.7102  0.8696  1.9867
 6390TIP3    H240730   0.840   1.984   7.445  0.4286  2.0127  1.3103
 6391TIP3   OH240731   4.487   5.119   1.149 -0.3452 -0.0448 -0.3528
 6391TIP3    H140732   4.411   5.123   1.207 -1.9002 -1.1028 -2.1922
 6391TIP3    H240733   4.492   5.205   1.109  0.2863  0.4532  0.7519
 6392TIP3   OH240734   3.499   6.070   6.663  0.0250 -0.3260  0.3436
 6392TIP3    H140735   3.408   6.081   6.690  0.2173 -0.4118  1.0527
 6392TIP3    H240736   3.547   6.062   6.746  0.6036 -0.8377 -0.0349
 6393TIP3   OH240737   2.734   5.742   1.595 -0.3085  0.2387 -0.8941
 6393TIP3    H140738   2.674   5.675   1.627 -0.1498  0.9365  1.0110
 6393TIP3    H240739   2.687   5.824   1.607  0.0974  0.6017 -1.7245
 6394TIP3   OH240740   1.787   4.992   6.954  0.6854 -0.4261 -0.2442
 6394TIP3    H140741   1.772   4.941   6.875  0.6333 -0.4809 -0.1986
 6394TIP3    H240742   1.868   4.956   6.991  0.3520 -0.8550  0.0877
 6395TIP3   OH240743   1.994   4.130   0.859  0.2093 -0.7025  0.0956
 6395TIP3    H140744   1.916   4.184   0.871 -0.5879 -1.4671 -1.4082
 6395TIP3    H240745   2.051   4.181   0.803 -0.2028 -1.0754 -0.6735
 6396TIP3   OH240746   2.085   3.522   7.631 -0.5663 -0.0737  0.2425
 6396TIP3    H140747   2.145   3.448   7.641 -1.0830 -0.5801 -0.3449
 6396TIP3    H240748   2.020   3.509   7.700 -0.0727  0.4126  0.8066
 6397TIP3   OH240749   0.291   0.128   0.913 -0.0825  0.5403 -0.5225
 6397TIP3    H140750   0.215   0.070   0.913  1.3961 -1.5213 -1.0849
 6397TIP3    H240751   0.306   0.148   0.820  1.7123 -1.4958 -0.7575
 6398TIP3   OH240752   3.375   3.071   8.287  0.3190 -0.8629  0.0205
 6398TIP3    H140753   3.443   3.079   8.353 -0.2453  0.2159  0.4875
 6398TIP3    H240754   3.422   3.069   8.204  0.8917  1.2354  0.2381
 6399TIP3   OH240755   0.052   4.937   7.347 -0.6970 -0.2258 -0.2229
 6399TIP3    H140756   0.031   4.994   7.273 -0.1393  1.4917  0.8705
 6399TIP3    H240757   0.144   4.958   7.368 -0.9944 -0.2701  1.2579
 6400TIP3   OH240758   3.311   0.133   8.627  0.4728 -0.5801 -0.7018
 6400TIP3    H140759   3.233   0.161   8.676  0.6844  0.5757 -1.0018
 6400TIP3    H240760   3.379   0.126   8.693  0.0006 -2.1854 -0.3360
 6401TIP3   OH240761   3.723   2.884   1.613 -0.3986  0.1221 -0.3779
 6401TIP3    H140762   3.726   2.963   1.668 -1.5563 -1.9243  2.9549
 6401TIP3    H240763   3.629   2.871   1.597 -0.1473 -0.0559 -1.7484
 6402TIP3   OH240764   4.912   6.718   0.917  0.1578  0.3877 -0.1111
 6402TIP3    H140765   4.917   6.788   0.982 -0.7162  0.7121 -0.3784
 6402TIP3    H240766   4.930   6.762   0.834  0.3381  0.1550 -0.1942
 6403TIP3   OH240767   5.967   0.820   0.814 -0.0348  0.2624  0.1532
 6403TIP3    H140768   5.931   0.771   0.888 -0.8230  1.6058  0.7123
 6403TIP3    H240769   6.041   0.767   0.783 -0.1053 -0.6608  1.4737
 6404TIP3   OH240770   2.318   1.825   6.281 -0.9904  0.2357  0.0075
 6404TIP3    H140771   2.408   1.805   6.307 -1.4411 -0.5559  1.0292
 6404TIP3    H240772   2.313   1.921   6.284 -0.8415  0.2251  2.3524
 6405TIP3   OH240773   5.240   0.847   1.965  0.2017 -0.1340 -0.0328
 6405TIP3    H140774   5.287   0.794   1.900  0.2468 -1.5493  1.1197
 6405TIP3    H240775   5.220   0.786   2.036 -0.7414  1.1519  0.8427
 6406TIP3   OH240776   0.802   2.515   0.145 -0.1026 -0.0037  0.3461
 6406TIP3    H140777   0.733   2.562   0.191 -1.3079 -1.3209 -0.0342
 6406TIP3    H240778   0.770   2.506   0.056  1.7434  1.6056 -0.5528
 6407TIP3   OH240779   2.425   4.864   2.445  0.0376  0.2697  0.0801
 6407TIP3    H140780   2.513   4.876   2.480  0.2753  1.2605 -0.8184
 6407TIP3    H240781   2.407   4.944   2.397 -0.1917 -1.0868 -2.2582
 6408TIP3   OH240782   3.582   4.618   8.675 -0.2736 -0.4997  0.3348
 6408TIP3    H140783   3.539   4.698   8.706 -0.2703  0.5218 -2.0805
 6408TIP3    H240784   3.511   4.561   8.649 -0.4010  0.9926 -3.1781
 6409TIP3   OH240785   1.069   5.975   1.150  0.1498 -0.4450  0.1750
 6409TIP3    H140786   0.980   6.009   1.139  1.0092  1.7059 -0.9091
 6409TIP3    H240787   1.058   5.890   1.192 -2.4536 -0.6704 -0.7874
 6410TIP3   OH240788   1.816   1.421   6.921  0.5164 -0.3135  0.0767
 6410TIP3    H140789   1.765   1.382   6.992  0.3706  1.4292  0.9748
 6410TIP3    H240790   1.793   1.370   6.843 -1.6851 -0.3382  0.6866
 6411TIP3   OH240791   0.884   1.252   7.483  0.1064 -1.3684  0.2788
 6411TIP3    H140792   0.834   1.331   7.461  1.0129 -0.5416  1.1028
 6411TIP3    H240793   0.939   1.237   7.406 -0.2200 -1.3297  0.0317
 6412TIP3   OH240794   5.390   6.538   6.313 -0.1639 -0.0488  0.2480
 6412TIP3    H140795   5.321   6.592   6.352  0.5826  0.3869  0.9792
 6412TIP3    H240796   5.443   6.599   6.263  0.3089 -0.2123  0.5471
 6413TIP3   OH240797   6.553   5.837   1.068  0.1968  0.6461 -0.4313
 6413TIP3    H140798   6.541   5.866   1.158 -1.0007 -0.2012 -0.2944
 6413TIP3    H240799   6.577   5.916   1.020  0.7171  1.1360  0.5969
 6414TIP3   OH240800   1.826   0.525   6.456 -0.9006  0.7082  0.1424
 6414TIP3    H140801   1.863   0.610   6.480  2.3230  0.5596 -3.4353
 6414TIP3    H240802   1.752   0.545   6.399 -0.2327  1.1565 -0.5784
 6415TIP3   OH240803   3.078   1.353   6.474 -0.1830 -0.3445 -0.1236
 6415TIP3    H140804   3.127   1.280   6.436  1.2265 -0.4337  1.7239
 6415TIP3    H240805   2.992   1.349   6.432  0.7246 -1.4311 -1.9893
 6416TIP3   OH240806   5.268   5.913   7.463 -0.0640 -0.3002  0.1356
 6416TIP3    H140807   5.354   5.883   7.494 -0.6481 -0.0537  2.0870
 6416TIP3    H240808   5.211   5.837   7.473  0.2561 -1.1277 -3.0503
 6417TIP3   OH240809   6.387   3.698   8.448 -0.4986 -0.5516 -0.4773
 6417TIP3    H140810   6.324   3.717   8.517 -1.3251 -2.1427 -0.7526
 6417TIP3    H240811   6.353   3.742   8.371  0.3631  1.1290  0.0533
 6418TIP3   OH240812   1.736   0.285   8.492  0.2671  0.0180  0.0882
 6418TIP3    H140813   1.739   0.270   8.587  0.6871  0.9862  0.2426
 6418TIP3    H240814   1.649   0.321   8.477  0.4674  0.5774  0.2314
 6419TIP3   OH240815   5.499   5.767   7.211  0.3998 -0.7078  0.2373
 6419TIP3    H140816   5.533   5.801   7.294  0.0502 -0.3231  0.2294
 6419TIP3    H240817   5.435   5.833   7.183  1.4558 -0.1858 -1.0055
 6420TIP3   OH240818   0.610   1.367   7.938 -0.0797 -0.2716 -0.6023
 6420TIP3    H140819   0.645   1.423   8.007  0.7427 -0.3323 -0.9665
 6420TIP3    H240820   0.653   1.396   7.858 -1.4638  0.1919 -1.2118
 6421TIP3   OH240821   5.925   3.502   1.005 -0.0670 -0.5350 -0.1692
 6421TIP3    H140822   6.009   3.491   1.051 -0.8988 -2.1836  1.0583
 6421TIP3    H240823   5.949   3.501   0.913  1.4654  1.0882  0.1526
 6422TIP3   OH240824   2.675   3.835   6.868 -0.6740 -0.0526 -0.0599
 6422TIP3    H140825   2.759   3.828   6.824 -0.1574  1.0790  0.7069
 6422TIP3    H240826   2.640   3.746   6.867  0.7302 -0.6278 -0.0054
 6423TIP3   OH240827   4.909   0.303   0.675  0.0258  0.4149 -0.7489
 6423TIP3    H140828   4.871   0.285   0.589  0.9608 -0.0978 -1.0770
 6423TIP3    H240829   4.842   0.275   0.738 -0.5459  0.5206 -1.3048
 6424TIP3   OH240830   4.188   4.258   1.459  0.0106 -0.0759  0.2266
 6424TIP3    H140831   4.195   4.290   1.549 -1.7360  2.4401 -0.4454
 6424TIP3    H240832   4.108   4.205   1.459  0.8761 -1.4411  0.4635
 6425TIP3   OH240833   4.311   3.855   0.656 -0.2661 -0.6573  0.4376
 6425TIP3    H140834   4.276   3.767   0.668  1.7808 -1.5167  0.5944
 6425TIP3    H240835   4.312   3.868   0.561  0.0908 -1.1000  0.3806
 6426TIP3   OH240836   0.630   0.029   2.192  0.4945  0.4787 -0.6114
 6426TIP3    H140837   0.689   0.077   2.134 -0.4961  0.5189 -1.6037
 6426TIP3    H240838   0.646   0.067   2.278  1.9877  0.4160 -0.8280
 6427TIP3   OH240839   1.817   3.068   7.552 -0.1200 -0.0731  0.4837
 6427TIP3    H140840   1.738   3.025   7.583  0.7081 -1.7793  0.3334
 6427TIP3    H240841   1.785   3.142   7.500 -1.6278 -1.2446 -0.3323
 6428TIP3   OH240842   5.978   6.682   7.415  0.0434  0.7103  1.1613
 6428TIP3    H140843   6.050   6.727   7.370 -1.3514  2.7967  0.8931
 6428TIP3    H240844   6.008   6.591   7.423  2.0013  1.1544 -0.3928
 6429TIP3   OH240845   6.386   6.714   0.302  0.1804  0.2092 -0.0925
 6429TIP3    H140846   6.476   6.684   0.289  0.2069  0.1036  0.3419
 6429TIP3    H240847   6.336   6.669   0.234  0.4807  0.3881 -0.4353
 6430TIP3   OH240848   4.709   3.345   2.471  0.3955  0.4016  0.1068
 6430TIP3    H140849   4.703   3.290   2.549 -1.2820 -2.4890 -1.8816
 6430TIP3    H240850   4.619   3.370   2.452  0.7049  0.6555 -1.1367
 6431TIP3   OH240851   2.700   3.046   0.932 -0.2309  0.4830 -0.3120
 6431TIP3    H140852   2.750   3.063   0.852  0.1785  1.9523  0.2248
 6431TIP3    H240853   2.631   3.112   0.931 -1.4365 -0.7491 -0.4258
 6432TIP3   OH240854   2.318   2.649   0.448  0.0594  0.2853  0.4146
 6432TIP3    H140855   2.354   2.667   0.535  0.4779 -1.7687  0.7025
 6432TIP3    H240856   2.239   2.598   0.466 -0.1026  0.2426 -0.4148
 6433TIP3   OH240857   0.512   5.575   0.951  0.0790  0.4176  0.2661
 6433TIP3    H140858   0.531   5.577   0.858  0.2269  1.2604  0.3101
 6433TIP3    H240859   0.587   5.619   0.992  1.0520 -1.7528  0.9684
 6434TIP3   OH240860   6.302   1.144   7.130 -0.2406 -0.3129  0.2112
 6434TIP3    H140861   6.310   1.215   7.067  0.4321 -2.1097 -1.8670
 6434TIP3    H240862   6.392   1.118   7.149 -0.4858 -1.6060 -0.2960
 6435TIP3   OH240863   5.420   1.158   7.207  0.1832 -0.5591  0.1175
 6435TIP3    H140864   5.494   1.127   7.154  0.3609 -0.5146  0.3389
 6435TIP3    H240865   5.457   1.172   7.294  0.0887  0.2142  0.0394
 6436TIP3   OH240866   4.173   6.477   1.752  0.0067 -0.0125 -0.0104
 6436TIP3    H140867   4.188   6.571   1.741  0.1628 -0.0678 -0.2629
 6436TIP3    H240868   4.186   6.440   1.665 -2.9333  0.1134 -0.6185
 6437TIP3   OH240869   2.032   3.950   7.858  0.1761 -0.0424 -0.1562
 6437TIP3    H140870   2.002   3.987   7.941  0.8481  1.3515 -0.5041
 6437TIP3    H240871   2.124   3.977   7.851  0.6372 -1.6215 -0.5456
 6438TIP3   OH240872   0.386   2.976   8.714 -0.1066 -0.0682  0.2663
 6438TIP3    H140873   0.363   2.893   8.673 -0.6438 -0.3783  1.1734
 6438TIP3    H240874   0.471   2.999   8.676  0.8048 -1.7973  1.1186
 6439TIP3   OH240875   3.275   0.491   0.224  0.3165  0.5617  0.9091
 6439TIP3    H140876   3.351   0.437   0.245 -0.3610 -0.7100  0.2086
 6439TIP3    H240877   3.201   0.442   0.261 -0.2900  1.1599  0.5037
 6440TIP3   OH240878   4.766   5.204   8.193  0.0896  0.1930 -0.1580
 6440TIP3    H140879   4.751   5.110   8.188 -0.1529  0.1136  1.5075
 6440TIP3    H240880   4.679   5.242   8.205  0.4481  0.2402  3.2225
 6441TIP3   OH240881   4.126   1.402   0.701  0.2742 -0.3546  0.2733
 6441TIP3    H140882   4.033   1.397   0.721  0.4368 -0.4405  1.0121
 6441TIP3    H240883   4.141   1.329   0.640 -0.2510  0.0164 -0.3043
 6442TIP3   OH240884   0.844   3.362   1.601  0.3888 -0.0314 -0.0669
 6442TIP3    H140885   0.902   3.348   1.676 -0.9708  1.3423  1.3123
 6442TIP3    H240886   0.847   3.280   1.553  1.5679 -0.8425  1.3163
 6443TIP3   OH240887   2.641   4.871   8.210  0.1983 -0.1277 -0.2633
 6443TIP3    H140888   2.668   4.886   8.120  0.9577  1.1362  0.1476
 6443TIP3    H240889   2.643   4.776   8.220  0.4528 -0.2645 -1.4683
 6444TIP3   OH240890   2.432   1.305   7.414 -0.1472  0.0211  0.2252
 6444TIP3    H140891   2.523   1.276   7.413  0.6366  2.2372 -1.7717
 6444TIP3    H240892   2.424   1.354   7.495  0.2359 -0.6785  0.7042
 6445TIP3   OH240893   5.925   3.322   1.300 -0.0514  0.6100  0.6991
 6445TIP3    H140894   5.929   3.251   1.364 -2.1968  1.2862  1.6409
 6445TIP3    H240895   6.004   3.374   1.317 -0.0442  0.1806  2.0932
 6446TIP3   OH240896   1.149   2.154   0.213  0.5390  0.1302 -0.1894
 6446TIP3    H140897   1.141   2.104   0.294  0.5766  2.3899  1.2675
 6446TIP3    H240898   1.228   2.119   0.171  0.8878 -0.6242  1.0576
 6447TIP3   OH240899   3.714   1.803   0.685  0.3467  0.0452  0.2453
 6447TIP3    H140900   3.737   1.895   0.701 -0.2300  0.2309  0.0505
 6447TIP3    H240901   3.618   1.804   0.679  0.4452 -0.1483 -2.2107
 6448TIP3   OH240902   4.507   5.234   1.698 -0.3741 -0.7472 -0.2366
 6448TIP3    H140903   4.588   5.227   1.749  0.1583  1.0851 -0.7363
 6448TIP3    H240904   4.438   5.211   1.760  0.4048 -0.5204  0.7524
 6449TIP3   OH240905   4.965   0.062   0.057 -0.2229 -0.6974  0.3437
 6449TIP3    H140906   4.978   0.031   0.146 -2.7598  0.5409  1.2248
 6449TIP3    H240907   4.986   0.155   0.059  0.5096 -0.8274 -0.5648
 6450TIP3   OH240908   0.227   3.497   1.366 -0.5013 -0.9335 -0.1578
 6450TIP3    H140909   0.313   3.461   1.343  0.0369  0.5357 -0.5807
 6450TIP3    H240910   0.180   3.502   1.283 -0.1709  0.2940 -0.2920
 6451TIP3   OH240911   4.650   3.900   2.068  0.3756  0.5357 -0.1953
 6451TIP3    H140912   4.598   3.910   1.988  0.8364 -1.3072 -0.7716
 6451TIP3    H240913   4.588   3.869   2.134  0.2591  0.8103 -0.1714
 6452TIP3   OH240914   1.226   6.429   8.035  0.0770  0.3847 -0.1600
 6452TIP3    H140915   1.258   6.482   7.962  2.3335 -0.1269  0.3755
 6452TIP3    H240916   1.287   6.448   8.107 -1.0832 -0.3910  1.0868
 6453TIP3   OH240917   1.477   0.535   0.967  0.0972  0.4038 -0.0014
 6453TIP3    H140918   1.418   0.601   0.930  0.9894  2.0007  1.2492
 6453TIP3    H240919   1.476   0.554   1.061  2.7307  0.6603  0.0489
 6454TIP3   OH240920   3.702   2.471   8.129  0.2812  0.4610  0.2299
 6454TIP3    H140921   3.642   2.525   8.078  1.6750  1.3434 -0.5488
 6454TIP3    H240922   3.779   2.462   8.074  1.6788  1.0756  1.9910
 6455TIP3   OH240923   4.031   0.130   7.047 -0.5675 -0.0010  0.3848
 6455TIP3    H140924   3.976   0.066   7.001 -0.3984  0.7996 -1.0112
 6455TIP3    H240925   4.081   0.173   6.976 -1.8925  2.8504  1.0556
 6456TIP3   OH240926   2.730   4.670   0.097  0.0690 -0.0980  0.2856
 6456TIP3    H140927   2.669   4.599   0.074  3.2598 -2.9857 -0.1271
 6456TIP3    H240928   2.734   4.724   0.018 -3.3958  1.4844  1.0356
 6457TIP3   OH240929   5.819   4.261   0.086 -0.9782 -0.0229 -0.0156
 6457TIP3    H140930   5.859   4.343   0.114 -2.3693  0.5841  0.3105
 6457TIP3    H240931   5.870   4.233   0.010 -0.3265  1.0091  0.0312
 6458TIP3   OH240932   0.545   0.749   7.085 -0.3369 -0.1437  0.2735
 6458TIP3    H140933   0.496   0.687   7.139 -2.2768  0.5208 -0.6555
 6458TIP3    H240934   0.601   0.693   7.031  0.4179 -0.8892  1.7523
 6459TIP3   OH240935   4.725   5.321   0.466 -0.2965  0.5613  0.2259
 6459TIP3    H140936   4.657   5.285   0.523  0.3226 -0.4055  0.3773
 6459TIP3    H240937   4.778   5.375   0.525  0.3763 -0.4827  0.6068
 6460TIP3   OH240938   1.867   1.861   8.375  0.1650  0.3725  0.0237
 6460TIP3    H140939   1.959   1.875   8.352 -0.1594  1.0548 -0.9677
 6460TIP3    H240940   1.855   1.766   8.373  0.6849  0.3165 -0.5524
 6461TIP3   OH240941   6.271   0.812   7.198 -0.3976  0.4758  0.3848
 6461TIP3    H140942   6.206   0.772   7.140 -1.5739  0.9497  1.3266
 6461TIP3    H240943   6.273   0.904   7.171 -3.2153  1.4480  2.9190
 6462TIP3   OH240944   2.600   2.944   1.650  0.0205  0.4294 -0.4896
 6462TIP3    H140945   2.608   3.038   1.633 -1.9640  0.4844 -1.3906
 6462TIP3    H240946   2.506   2.929   1.661  0.3536 -1.3436  0.3735
 6463TIP3   OH240947   5.260   4.533   7.747  0.0690  0.2092  0.2828
 6463TIP3    H140948   5.349   4.558   7.723 -1.0907  2.0787 -2.6528
 6463TIP3    H240949   5.227   4.605   7.801  0.1090 -0.1492  0.7902
 6464TIP3   OH240950   4.698   5.262   7.144  0.5178 -0.0855 -0.6685
 6464TIP3    H140951   4.713   5.251   7.237  1.3730 -0.0293 -0.7911
 6464TIP3    H240952   4.614   5.308   7.138  0.9287  0.8022  0.1175
 6465TIP3   OH240953   5.502   4.443   0.107 -0.1767  0.2300  0.0496
 6465TIP3    H140954   5.556   4.513   0.143 -0.3911  0.0071  0.8474
 6465TIP3    H240955   5.547   4.362   0.134 -0.3755  0.0527 -0.1449
 6466TIP3   OH240956   4.195   0.972   8.657 -0.3757  0.1140 -0.0463
 6466TIP3    H140957   4.117   1.016   8.623 -0.3380  1.4595  1.4863
 6466TIP3    H240958   4.161   0.893   8.699 -1.1738  1.4943  2.0391
 6467TIP3   OH240959   3.569   6.193   7.985 -0.2100 -0.5679 -0.5740
 6467TIP3    H140960   3.633   6.244   7.935 -0.9578 -0.9562 -1.9835
 6467TIP3    H240961   3.575   6.228   8.074  1.0520  0.2577 -0.9508
 6468TIP3   OH240962   2.442   4.634   0.628 -0.6079 -0.1763 -0.2298
 6468TIP3    H140963   2.433   4.558   0.571  1.4073  0.4959 -1.5524
 6468TIP3    H240964   2.461   4.596   0.714 -0.5878 -1.1917 -0.6638
 6469TIP3   OH240965   0.376   6.649   1.280  0.5809  0.2492  0.0552
 6469TIP3    H140966   0.295   6.697   1.297  1.1491  1.0001  0.6842
 6469TIP3    H240967   0.410   6.627   1.366  1.3000  0.3739 -0.1880
 6470TIP3   OH240968   2.964   6.023   0.395 -0.4402 -0.4286  0.2817
 6470TIP3    H140969   2.877   6.060   0.406 -1.3297 -2.3322  0.0414
 6470TIP3    H240970   3.022   6.085   0.440 -1.8062  1.1868 -0.0591
 6471TIP3   OH240971   2.110   2.466   0.343  0.5021  0.1483 -0.0982
 6471TIP3    H140972   2.023   2.486   0.307  0.3779 -1.1933 -0.6076
 6471TIP3    H240973   2.171   2.484   0.271  0.3984 -1.1129 -0.5274
 6472TIP3   OH240974   0.625   6.117   8.633 -0.9184  0.1369 -0.1638
 6472TIP3    H140975   0.691   6.048   8.629 -1.7442 -0.6123 -1.8028
 6472TIP3    H240976   0.639   6.159   8.718  0.6333 -1.0089  0.1869
 6473TIP3   OH240977   6.576   0.931   7.607 -0.4324 -0.0262 -1.2965
 6473TIP3    H140978   6.595   0.999   7.672 -1.4574  1.5187 -2.5514
 6473TIP3    H240979   6.489   0.898   7.631 -0.9215  0.7238 -2.0078
 6474TIP3   OH240980   1.487   2.560   1.937 -0.1157  0.2300 -0.2239
 6474TIP3    H140981   1.495   2.474   1.894 -1.9332 -0.8129  1.3682
 6474TIP3    H240982   1.513   2.543   2.028 -1.2658  1.1727  0.3050
 6475TIP3   OH240983   0.165   0.433   0.547  0.4914  0.3039  0.2213
 6475TIP3    H140984   0.248   0.471   0.517  0.4060  0.6223  0.3842
 6475TIP3    H240985   0.131   0.496   0.610 -0.8002  1.1062 -1.2260
 6476TIP3   OH240986   1.807   4.306   2.641 -0.0563  0.2450 -0.2309
 6476TIP3    H140987   1.777   4.239   2.702 -0.2802  1.2896  0.8570
 6476TIP3    H240988   1.889   4.273   2.606  1.8585  1.0173  3.1579
 6477TIP3   OH240989   4.126   5.759   6.825  0.6103  0.2774 -0.2733
 6477TIP3    H140990   4.084   5.816   6.761  0.8538  0.8838  0.1057
 6477TIP3    H240991   4.206   5.805   6.851  0.7807 -0.2041  0.0825
 6478TIP3   OH240992   0.375   5.184   7.004 -0.4349  0.4072  0.2101
 6478TIP3    H140993   0.454   5.236   6.989  0.0625  0.1770  1.8408
 6478TIP3    H240994   0.408   5.098   7.029 -1.2241  0.0109 -0.0911
 6479TIP3   OH240995   6.235   5.569   8.815 -0.4544 -0.5767  0.0656
 6479TIP3    H140996   6.143   5.550   8.836 -0.0274 -2.0907  0.6870
 6479TIP3    H240997   6.249   5.525   8.730 -0.6206  0.6845 -0.6317
 6480TIP3   OH240998   3.367   3.009   7.164 -0.0728  0.4674 -0.0838
 6480TIP3    H140999   3.409   2.940   7.216  1.6684  1.8848  0.4920
 6480TIP3    H241000   3.436   3.039   7.105 -1.1988  0.8272 -1.2551
 6481TIP3   OH241001   5.014   0.480   1.549  0.3075 -0.3929 -0.2122
 6481TIP3    H141002   4.991   0.519   1.633 -0.8696 -0.8789 -0.2903
 6481TIP3    H241003   5.084   0.418   1.570  0.8769  0.3806  0.2066
 6482TIP3   OH241004   1.049   5.362   2.343  0.5382 -0.2687  0.3100
 6482TIP3    H141005   1.110   5.435   2.358  1.7325 -1.3697  1.0275
 6482TIP3    H241006   0.994   5.361   2.422 -0.3737  0.6312 -0.2727
 6483TIP3   OH241007   2.595   0.466   8.313 -0.1965 -0.0253  0.3220
 6483TIP3    H141008   2.620   0.552   8.280  0.9784 -0.7554 -0.7780
 6483TIP3    H241009   2.511   0.480   8.356  0.3926  1.8405  0.9753
 6484TIP3   OH241010   0.099   1.718   0.602  0.1660 -0.2210 -0.3653
 6484TIP3    H141011   0.181   1.752   0.568  0.5555 -0.7390  0.0430
 6484TIP3    H241012   0.039   1.793   0.600  0.5333  0.0643 -1.0109
 6485TIP3   OH241013   1.001   6.341   8.168 -0.9558 -0.5116  0.0650
 6485TIP3    H141014   0.931   6.406   8.168  0.1528  0.7296 -0.5530
 6485TIP3    H241015   1.058   6.367   8.096 -0.9496 -2.7359 -0.8014
 6486TIP3   OH241016   5.306   6.677   1.271  0.8282 -0.2356  0.2003
 6486TIP3    H141017   5.246   6.749   1.290  0.4125 -0.3417 -0.6620
 6486TIP3    H241018   5.305   6.623   1.350 -1.6613 -1.2498 -0.4336
 6487TIP3   OH241019   3.678   4.898   7.266 -0.6494 -0.4771  0.6116
 6487TIP3    H141020   3.649   4.965   7.204  1.4726  1.1846  1.3136
 6487TIP3    H241021   3.619   4.906   7.340 -2.1917 -1.3883 -0.4576
 6488TIP3   OH241022   0.268   6.543   7.098  0.0885  0.0336  0.2744
 6488TIP3    H141023   0.298   6.602   7.167 -0.2690 -0.8246  1.1830
 6488TIP3    H241024   0.344   6.490   7.076  0.0115 -0.1767  0.5161
 6489TIP3   OH241025   0.766   6.635   1.847  0.5019  0.5351 -0.2695
 6489TIP3    H141026   0.789   6.682   1.928  0.8592  0.2355 -0.1932
 6489TIP3    H241027   0.800   6.690   1.777  1.3009  0.1930 -0.1651
 6490TIP3   OH241028   2.508   2.753   2.429  0.1217 -0.0154 -0.1708
 6490TIP3    H141029   2.427   2.726   2.471  0.3036  0.5565  0.5672
 6490TIP3    H241030   2.576   2.700   2.471  0.4848  1.5769  1.3137
 6491TIP3   OH241031   2.158   2.628   0.969 -0.0624  0.4870  0.3811
 6491TIP3    H141032   2.195   2.709   1.004 -1.6311  0.9897  0.9858
 6491TIP3    H241033   2.094   2.601   1.035 -1.1638 -0.0172 -0.8520
 6492TIP3   OH241034   1.887   6.358   8.179  0.4236  0.0190  0.2446
 6492TIP3    H141035   1.894   6.350   8.275  2.1874  1.1458  0.2580
 6492TIP3    H241036   1.886   6.452   8.163  0.7506 -0.1594 -0.8743
 6493TIP3   OH241037   3.766   2.720   7.676 -0.0955  0.7523 -0.1732
 6493TIP3    H141038   3.849   2.733   7.721 -0.7373  1.6905  0.7905
 6493TIP3    H241039   3.719   2.803   7.688 -1.2421  0.1749 -0.5212
 6494TIP3   OH241040   3.751   2.320   1.319  0.3451  0.1997  0.0439
 6494TIP3    H141041   3.672   2.348   1.271 -0.2463  0.5801  1.2089
 6494TIP3    H241042   3.801   2.400   1.331 -1.2731  0.9099  3.2404
 6495TIP3   OH241043   5.601   2.691   7.618 -0.3909 -0.4457 -0.6234
 6495TIP3    H141044   5.576   2.750   7.689  1.7310  0.5172 -0.6028
 6495TIP3    H241045   5.572   2.736   7.539 -1.8411 -1.0413 -0.4645
 6496TIP3   OH241046   3.285   6.128   0.821  0.0656 -0.3923  0.2357
 6496TIP3    H141047   3.249   6.180   0.894  0.8194 -1.1827  1.2025
 6496TIP3    H241048   3.221   6.058   0.807  1.4285 -2.2130  2.4228
 6497TIP3   OH241049   4.147   3.810   6.796 -0.3361  0.3189 -0.1276
 6497TIP3    H141050   4.107   3.897   6.797  0.0319  0.4856  1.1691
 6497TIP3    H241051   4.237   3.826   6.766 -0.0536  0.4984  0.7810
 6498TIP3   OH241052   2.010   3.230   7.918  0.1351 -0.0056 -1.0749
 6498TIP3    H141053   1.975   3.156   7.870 -1.3436  1.9451 -3.2031
 6498TIP3    H241054   2.057   3.282   7.853 -0.2671  1.7498 -0.0489
 6499TIP3   OH241055   2.717   0.475   8.854  0.0402 -0.1652 -0.7863
 6499TIP3    H141056   2.661   0.423   8.796 -0.3971  0.1692 -0.6684
 6499TIP3    H241057   2.670   0.557   8.866  0.6419  0.1930 -0.8233
 6500TIP3   OH241058   1.978   2.935   6.770  0.2039  0.2427 -0.1171
 6500TIP3    H141059   1.957   2.971   6.856 -0.0089  1.3658 -0.6237
 6500TIP3    H241060   1.931   2.991   6.708  1.0494 -0.0128 -1.0142
 6501TIP3   OH241061   2.801   0.137   8.844  0.2220  0.6125 -0.0652
 6501TIP3    H141062   2.715   0.177   8.859 -0.0226 -0.2502  1.0035
 6501TIP3    H241063   2.797   0.104   8.755 -0.5662  0.5735 -0.0263
 6502TIP3   OH241064   1.508   1.171   6.426 -0.1669 -0.4701  0.1608
 6502TIP3    H141065   1.465   1.253   6.452 -1.9031 -0.4962 -2.2956
 6502TIP3    H241066   1.554   1.193   6.344  0.8032 -1.5624  0.3832
 6503TIP3   OH241067   6.180   0.046   8.041  0.6605 -0.3950  0.0051
 6503TIP3    H141068   6.257   0.001   8.007  1.1500 -0.7908  1.5299
 6503TIP3    H241069   6.155   0.107   7.972  1.8478 -0.8424 -0.8533
 6504TIP3   OH241070   0.396   3.936   7.665  0.7761 -0.2194 -0.0263
 6504TIP3    H141071   0.333   3.943   7.737  2.2743  1.0467  1.2186
 6504TIP3    H241072   0.355   3.983   7.592  0.0540  0.0952  0.5732
 6505TIP3   OH241073   5.972   5.213   1.860 -0.3051 -0.0304 -0.2068
 6505TIP3    H141074   6.005   5.128   1.889 -0.1396  0.0658 -0.1118
 6505TIP3    H241075   6.000   5.274   1.928 -2.7911 -0.3257  1.1855
 6506TIP3   OH241076   2.078   1.171   8.728 -0.5084 -1.1102  1.0030
 6506TIP3    H141077   2.120   1.252   8.754  1.7238 -1.8892  0.1004
 6506TIP3    H241078   2.097   1.164   8.634 -4.4548 -0.5582 -0.0361
 6507TIP3   OH241079   0.371   5.687   7.400 -0.3592 -0.0196  0.4985
 6507TIP3    H141080   0.318   5.736   7.336  0.9748  0.6834 -0.1040
 6507TIP3    H241081   0.308   5.631   7.445 -1.2647 -0.9926 -1.8310
 6508TIP3   OH241082   3.500   5.028   7.832 -0.4020 -0.4749 -0.0322
 6508TIP3    H141083   3.551   4.977   7.770 -0.2286 -1.3813  0.8268
 6508TIP3    H241084   3.516   5.119   7.808  2.9153 -0.6201  1.1802
 6509TIP3   OH241085   6.173   2.499   8.656  0.2367  0.3919 -0.2234
 6509TIP3    H141086   6.269   2.507   8.649  0.2989 -0.2973 -0.2337
 6509TIP3    H241087   6.157   2.490   8.750  0.2584 -0.3178 -0.2825
 6510TIP3   OH241088   1.009   4.241   7.723  0.3341 -0.5112  0.7119
 6510TIP3    H141089   1.059   4.188   7.661  0.3670 -0.1340  0.4121
 6510TIP3    H241090   0.935   4.273   7.672  1.7198  1.9632  0.0923
 6511TIP3   OH241091   1.177   5.051   8.861  0.3184 -0.3324 -0.0826
 6511TIP3    H141092   1.208   5.142   8.865 -0.5845 -0.0096 -0.3251
 6511TIP3    H241093   1.178   5.030   8.768  1.0331 -0.7611  0.0118
 6512TIP3   OH241094   0.613   1.745   1.010 -0.1421 -1.2353  0.0505
 6512TIP3    H141095   0.686   1.789   1.053 -0.7981  1.5146 -1.4011
 6512TIP3    H241096   0.563   1.706   1.081  0.8507 -0.1461  1.3970
 6513TIP3   OH241097   6.308   6.497   6.946  0.5130  0.1126  0.0313
 6513TIP3    H141098   6.393   6.455   6.961  0.0870 -0.2761  1.6109
 6513TIP3    H241099   6.312   6.578   6.998 -0.5446 -0.5875  1.2859
 6514TIP3   OH241100   2.012   1.447   1.694 -0.2285 -0.2676 -1.1923
 6514TIP3    H141101   1.945   1.515   1.696  0.4878  0.4311  0.1452
 6514TIP3    H241102   2.005   1.403   1.779  1.2125  0.0509 -0.8802
 6515TIP3   OH241103   1.291   2.923   7.913  0.0991 -0.4945  0.0303
 6515TIP3    H141104   1.300   3.015   7.936 -1.2588 -0.4250  0.4039
 6515TIP3    H241105   1.279   2.878   7.997 -0.3909 -0.8544 -0.2238
 6516TIP3   OH241106   0.649   6.223   0.819 -0.1428 -0.8486 -0.3028
 6516TIP3    H141107   0.603   6.244   0.738  1.1351 -0.2429 -0.8971
 6516TIP3    H241108   0.618   6.135   0.841 -1.4395 -0.5340 -0.7566
 6517TIP3   OH241109   2.194   1.345   8.176  0.1511  0.1480  0.1697
 6517TIP3    H141110   2.266   1.295   8.215  0.0053  0.1640  0.4597
 6517TIP3    H241111   2.116   1.317   8.224 -0.0384  0.1385 -0.1350
 6518TIP3   OH241112   2.362   3.946   8.825 -0.1493 -0.0062  0.1436
 6518TIP3    H141113   2.336   4.032   8.792 -0.7890 -0.0931  0.3891
 6518TIP3    H241114   2.395   3.900   8.748 -0.0974  0.3494 -0.0527
 6519TIP3   OH241115   2.028   3.796   1.275  0.1361  0.4496  0.0486
 6519TIP3    H141116   2.099   3.853   1.306  0.5466  0.2666 -0.5425
 6519TIP3    H241117   1.950   3.851   1.279  0.5936  1.1812 -0.8917
 6520TIP3   OH241118   3.250   4.176   8.637 -0.3534  0.2834 -0.2511
 6520TIP3    H141119   3.220   4.149   8.551 -0.3597 -3.3339  0.7519
 6520TIP3    H241120   3.188   4.137   8.698  0.8277  0.9723  1.4864
 6521TIP3   OH241121   4.462   1.043   7.197  0.4819 -0.3864  0.1698
 6521TIP3    H141122   4.500   1.115   7.246  0.2014  0.4127 -0.7773
 6521TIP3    H241123   4.474   0.967   7.255 -0.2074  0.5898  1.6712
 6522TIP3   OH241124   2.004   6.555   1.079 -0.3011 -0.0719  0.3276
 6522TIP3    H141125   2.043   6.558   1.167  1.4432 -0.0013 -0.4049
 6522TIP3    H241126   1.990   6.462   1.062 -0.8160 -0.0756  0.7310
 6523TIP3   OH241127   3.925   2.609   7.441  0.0595 -0.8564 -0.2845
 6523TIP3    H141128   3.913   2.662   7.363 -4.0173  0.6169  1.0818
 6523TIP3    H241129   3.920   2.671   7.514 -3.1403 -2.7117  1.3196
 6524TIP3   OH241130   6.150   5.575   0.453  0.4237  0.8324  0.2403
 6524TIP3    H141131   6.181   5.530   0.374 -0.2617 -1.9046  1.4018
 6524TIP3    H241132   6.217   5.641   0.471  2.2705 -0.6531 -0.8425
 6525TIP3   OH241133   5.957   5.438   8.834  0.0550 -0.0213 -0.3712
 6525TIP3    H141134   5.947   5.432   8.739  0.2372  3.5091 -0.7486
 6525TIP3    H241135   5.868   5.449   8.866  0.0187 -0.9640 -0.1014
 6526TIP3   OH241136   3.459   1.055   0.578  0.0403 -0.2013 -0.4319
 6526TIP3    H141137   3.379   1.069   0.628 -0.0406 -1.0588 -0.2913
 6526TIP3    H241138   3.471   0.960   0.579  2.1286 -0.0052  1.2672
 6527TIP3   OH241139   1.844   5.768   1.873 -0.0184  0.0705 -0.3847
 6527TIP3    H141140   1.868   5.803   1.959 -1.0740 -1.4436  0.5717
 6527TIP3    H241141   1.926   5.737   1.836  0.2871 -0.3747  0.6271
 6528TIP3   OH241142   6.315   4.431   6.927 -0.4001 -0.0658  0.2774
 6528TIP3    H141143   6.396   4.473   6.957 -0.1473 -0.9823  0.9377
 6528TIP3    H241144   6.248   4.498   6.938 -0.0340  0.1318  1.4307
 6529TIP3   OH241145   0.025   1.563   6.732 -0.5013  0.0378  0.1259
 6529TIP3    H141146  -0.068   1.578   6.749 -0.4271 -0.2026  0.7994
 6529TIP3    H241147   0.031   1.468   6.717 -0.4973  0.1853 -0.8602
 6530TIP3   OH241148   0.065   4.311   2.548  0.1791 -0.0468 -0.1407
 6530TIP3    H141149   0.124   4.244   2.513 -0.5425 -0.0700 -1.3575
 6530TIP3    H241150  -0.005   4.261   2.590  0.5502 -0.0301  0.5006
 6531TIP3   OH241151   0.770   2.576   8.322  0.4261 -0.0224 -0.2979
 6531TIP3    H141152   0.865   2.566   8.313  0.5250  0.4555  0.1593
 6531TIP3    H241153   0.756   2.584   8.416 -0.0762 -0.1501 -0.3635
 6532TIP3   OH241154   5.496   2.872   8.145 -0.0151  0.1863 -0.0538
 6532TIP3    H141155   5.574   2.863   8.090 -1.0149 -1.3659 -1.3319
 6532TIP3    H241156   5.426   2.892   8.082 -1.2830 -2.0862  0.5497
 6533TIP3   OH241157   5.140   0.215   1.852 -0.2410  0.1266 -0.1620
 6533TIP3    H141158   5.100   0.229   1.938  0.2271 -0.2528  0.1235
 6533TIP3    H241159   5.204   0.145   1.867 -0.5624 -0.3410 -0.9422
 6534TIP3   OH241160   2.221   4.028   8.240 -0.2501 -0.0839 -0.3097
 6534TIP3    H141161   2.218   3.937   8.212  1.2968 -0.0586 -0.6518
 6534TIP3    H241162   2.130   4.051   8.259 -0.7229 -1.5252 -0.7465
 6535TIP3   OH241163   4.837   5.428   0.248  0.3772  0.0259 -0.1245
 6535TIP3    H141164   4.924   5.395   0.268  0.1796 -1.6889 -1.7797
 6535TIP3    H241165   4.795   5.441   0.333  0.7471 -3.4029  0.7142
 6536TIP3   OH241166   4.861   2.313   7.234  0.3167  0.3715  0.3575
 6536TIP3    H141167   4.890   2.323   7.325  1.6676  1.8076 -0.1828
 6536TIP3    H241168   4.804   2.387   7.218 -0.2788 -0.1242  0.1480
 6537TIP3   OH241169   1.570   3.646   0.769 -0.4790 -0.2091 -0.6274
 6537TIP3    H141170   1.662   3.625   0.782 -0.5197  0.2546  0.5663
 6537TIP3    H241171   1.561   3.736   0.800 -1.3573 -0.2966 -0.5763
 6538TIP3   OH241172   3.929   2.295   8.808 -0.0753  0.0134 -0.0145
 6538TIP3    H141173   3.982   2.368   8.774  0.6377 -0.8552 -0.8230
 6538TIP3    H241174   3.991   2.243   8.860 -0.8930  0.6961  1.7333
 6539TIP3   OH241175   2.043   1.065   7.916  0.6411  0.5207  0.1043
 6539TIP3    H141176   1.970   1.021   7.961  1.0573 -0.3308 -0.0439
 6539TIP3    H241177   2.041   1.030   7.827  0.0263  1.9568 -0.4671
 6540TIP3   OH241178   1.311   1.935   7.930 -0.5002  0.7999 -0.2596
 6540TIP3    H141179   1.343   2.010   7.979 -1.6134  0.3417  1.2450
 6540TIP3    H241180   1.381   1.871   7.934 -0.9087  0.4198  1.5818
 6541TIP3   OH241181   6.364   5.891   0.195 -0.5319 -0.2326  0.6378
 6541TIP3    H141182   6.371   5.866   0.103  0.9502  0.1050  0.6268
 6541TIP3    H241183   6.370   5.987   0.194  2.4450 -0.3162  1.2277
 6542TIP3   OH241184   4.027   5.420   1.550  0.1897  0.7975  0.0770
 6542TIP3    H141185   3.932   5.426   1.543 -0.0309  0.5331  2.2852
 6542TIP3    H241186   4.053   5.497   1.600  1.2598  1.2264 -1.0660
 6543TIP3   OH241187   4.498   5.263   0.600  0.0267  0.1146 -0.4398
 6543TIP3    H141188   4.430   5.226   0.543  0.0083  0.6724 -0.7892
 6543TIP3    H241189   4.490   5.214   0.681 -0.1580 -0.4828 -0.8086
 6544TIP3   OH241190   0.224   5.073   7.648 -0.0166  0.4969  0.4590
 6544TIP3    H141191   0.237   5.150   7.705 -0.4359  1.0763 -0.2169
 6544TIP3    H241192   0.268   5.096   7.566 -0.0748 -0.0208  0.2785
 6545TIP3   OH241193   4.570   0.178   7.328 -0.3227 -0.0768 -0.4209
 6545TIP3    H141194   4.630   0.244   7.362  0.1249  0.9111 -2.9400
 6545TIP3    H241195   4.621   0.097   7.325  0.9842  0.7351 -2.4858
 6546TIP3   OH241196   1.184   5.404   8.459 -0.2930  0.6632 -0.2747
 6546TIP3    H141197   1.181   5.480   8.401 -0.5137  0.7116 -0.1994
 6546TIP3    H241198   1.092   5.384   8.478 -0.3042 -0.5303 -1.4749
 6547TIP3   OH241199   6.606   1.894   8.335  0.0380 -0.1133  0.4053
 6547TIP3    H141200   6.692   1.889   8.292  1.1199 -1.8414  2.5225
 6547TIP3    H241201   6.591   1.805   8.368 -2.8504  0.0141 -0.3164
 6548TIP3   OH241202   2.526   4.804   0.351 -0.3424  0.4179  0.0871
 6548TIP3    H141203   2.471   4.880   0.331 -3.3957 -0.8323  2.8240
 6548TIP3    H241204   2.476   4.729   0.319  1.0022 -0.6709  0.4522
 6549TIP3   OH241205   1.634   4.403   7.623 -0.0803  0.5641  0.5200
 6549TIP3    H141206   1.577   4.444   7.688 -0.1630  2.3448 -0.6025
 6549TIP3    H241207   1.635   4.465   7.550 -0.4325 -1.6211 -1.4407
 6550TIP3   OH241208   0.420   5.818   8.560  0.1788 -0.3317  0.3494
 6550TIP3    H141209   0.377   5.747   8.512  1.2405 -1.2493  0.7172
 6550TIP3    H241210   0.487   5.775   8.613  2.2585  1.1074 -0.9391
 6551TIP3   OH241211   5.584   0.365   1.544  0.5923 -0.1275  0.4966
 6551TIP3    H141212   5.666   0.322   1.521  0.5046  0.5294 -1.1484
 6551TIP3    H241213   5.517   0.318   1.495  0.3481  1.0621 -0.3724
 6552TIP3   OH241214   3.512   6.381   0.085  0.3533  0.0737 -0.0956
 6552TIP3    H141215   3.576   6.383   0.015 -0.4200 -0.4562 -0.8476
 6552TIP3    H241216   3.532   6.300   0.134 -0.2865 -0.5821 -0.8858
 6553TIP3   OH241217   0.247   3.323   2.210  0.7589  0.3790  0.1579
 6553TIP3    H141218   0.294   3.347   2.290  0.9641  1.1514 -0.1846
 6553TIP3    H241219   0.302   3.256   2.168  0.4998 -0.2493  0.8043
 6554TIP3   OH241220   1.709   1.955   7.879  0.8958 -0.0308  0.7566
 6554TIP3    H141221   1.660   2.011   7.939  0.2332 -0.0678  0.2622
 6554TIP3    H241222   1.653   1.948   7.802  1.0857 -1.1556  0.7047
 6555TIP3   OH241223   6.733   0.057   7.438  0.5669  0.1035  0.1192
 6555TIP3    H141224   6.670   0.052   7.365  1.8156 -2.2765 -0.8771
 6555TIP3    H241225   6.678   0.074   7.515 -0.9218  1.4687 -1.1562
 6556TIP3   OH241226   4.334   6.051   8.721  0.1587  0.0803  0.0316
 6556TIP3    H141227   4.353   6.037   8.813 -0.0991 -1.5218 -0.1375
 6556TIP3    H241228   4.248   6.013   8.707  1.4878 -2.6797 -1.5000
 6557TIP3   OH241229   4.834   0.999   7.983  0.5226 -0.2555  0.3702
 6557TIP3    H141230   4.828   1.029   8.074  0.9701 -0.1330  0.3612
 6557TIP3    H241231   4.744   1.004   7.951  0.5167  0.6848  0.4906
 6558TIP3   OH241232   6.740   1.229   1.579 -0.0968 -0.7470  0.2492
 6558TIP3    H141233   6.784   1.291   1.637 -1.0607 -0.1968  0.4153
 6558TIP3    H241234   6.795   1.151   1.580 -0.4275 -1.0058  2.4437
 6559TIP3   OH241235   2.803   6.077   0.735  0.0441 -0.0037 -0.5341
 6559TIP3    H141236   2.752   6.023   0.675 -1.6577 -0.7489  1.4608
 6559TIP3    H241237   2.837   6.015   0.800  1.3361  0.8546 -0.3445
 6560TIP3   OH241238   4.903   2.673   1.233 -0.3931  0.3939 -0.1554
 6560TIP3    H141239   4.850   2.648   1.308 -1.5248 -1.9228 -1.6118
 6560TIP3    H241240   4.845   2.729   1.181 -0.3232  0.3521 -0.2774
 6561TIP3   OH241241   3.015   3.268   1.430  0.1966  0.2521 -0.1132
 6561TIP3    H141242   2.999   3.264   1.335  0.2675  0.8660 -0.1526
 6561TIP3    H241243   3.101   3.310   1.438 -0.6680  2.0198  0.2785
 6562TIP3   OH241244   0.815   1.159   6.613 -0.0788  0.2653 -0.8309
 6562TIP3    H141245   0.780   1.236   6.657 -1.0361 -0.3891 -0.4111
 6562TIP3    H241246   0.741   1.098   6.609  0.8947 -0.9870 -0.3384
 6563TIP3   OH241247   2.129   5.667   2.660  0.2036 -0.6401  0.0712
 6563TIP3    H141248   2.081   5.717   2.595  2.7195  1.2415 -0.4811
 6563TIP3    H241249   2.110   5.575   2.638 -1.4608 -0.0224 -1.3231
 6564TIP3   OH241250   5.155   1.718   0.165  0.1319 -0.1754  0.1227
 6564TIP3    H141251   5.241   1.750   0.194  0.3056  0.9784 -1.4962
 6564TIP3    H241252   5.154   1.626   0.189  1.9716 -0.2908 -0.0942
 6565TIP3   OH241253   2.258   1.896   7.488  0.3641  0.1279  0.1927
 6565TIP3    H141254   2.165   1.920   7.491  0.2603 -0.2416  0.0501
 6565TIP3    H241255   2.300   1.951   7.554 -0.2815 -1.1358  1.7210
 6566TIP3   OH241256   4.556   6.593   8.159  0.5494 -0.5507 -0.1325
 6566TIP3    H141257   4.491   6.530   8.188 -0.3868  0.4310 -0.0229
 6566TIP3    H241258   4.548   6.593   8.063 -0.2700  0.2359 -0.0701
 6567TIP3   OH241259   5.261   5.701   1.310 -0.1233  0.4829 -0.4320
 6567TIP3    H141260   5.201   5.743   1.371 -1.6815 -0.6560 -1.0849
 6567TIP3    H241261   5.347   5.707   1.351 -1.1483 -0.5641  2.0678
 6568TIP3   OH241262   2.293   2.072   1.359  0.1557 -0.0687  0.4146
 6568TIP3    H141263   2.211   2.068   1.409 -0.8375 -2.6918 -1.1756
 6568TIP3    H241264   2.354   2.018   1.409  0.0586 -0.3033  0.2847
 6569TIP3   OH241265   6.269   4.815   8.653  0.7146 -0.3541  0.3839
 6569TIP3    H141266   6.233   4.783   8.735  0.5555  0.6948  0.7379
 6569TIP3    H241267   6.354   4.853   8.676  2.0190 -2.5784 -0.4026
 6570TIP3   OH241268   1.160   4.907   1.629  0.5592 -0.1940 -0.5054
 6570TIP3    H141269   1.201   4.971   1.687 -1.4601  1.0276 -0.3517
 6570TIP3    H241270   1.067   4.911   1.650  0.2338 -2.4948 -1.1947
 6571TIP3   OH241271   0.971   1.618   0.429 -0.3977  0.1468  0.4338
 6571TIP3    H141272   0.886   1.661   0.421 -1.5795 -1.9342  1.0614
 6571TIP3    H241273   0.991   1.622   0.523  1.0269  1.9925  0.1204
 6572TIP3   OH241274   0.124   4.215   8.123 -0.1094 -0.2042 -0.4257
 6572TIP3    H141275   0.104   4.126   8.154 -1.1452 -0.2087 -1.0805
 6572TIP3    H241276   0.056   4.270   8.163 -0.2513  0.0914 -1.0646
 6573TIP3   OH241277   0.016   1.876   6.764 -0.3137  0.5126  0.6265
 6573TIP3    H141278   0.010   1.781   6.751  0.2945  0.7010 -1.1760
 6573TIP3    H241279   0.109   1.893   6.778 -0.2069  1.0112 -0.6102
 6574TIP3   OH241280   2.165   2.414   7.856 -0.7908 -0.4259 -0.2865
 6574TIP3    H141281   2.165   2.422   7.952 -0.0102  0.0995 -0.3211
 6574TIP3    H241282   2.073   2.398   7.834 -1.2024  0.7803  0.4512
 6575TIP3   OH241283   0.506   3.877   1.638 -0.3700  0.6100 -0.4002
 6575TIP3    H141284   0.488   3.790   1.602  0.7970  0.8022 -1.5182
 6575TIP3    H241285   0.467   3.875   1.726 -0.5626 -0.9504 -0.4932
 6576TIP3   OH241286   3.061   5.072   0.651  0.4976 -0.2244 -0.1588
 6576TIP3    H141287   3.065   5.167   0.660 -2.2409 -0.0774  0.3161
 6576TIP3    H241288   3.050   5.057   0.557  0.5567 -0.0307 -0.1961
 6577TIP3   OH241289   3.482   0.146   6.993 -0.0774  0.6426  0.4406
 6577TIP3    H141290   3.445   0.204   7.060 -0.6242  0.2711  0.4692
 6577TIP3    H241291   3.566   0.186   6.971 -0.4743  1.4840  0.4049
 6578TIP3   OH241292   1.189   3.482   7.614  0.0471 -0.0565 -0.0193
 6578TIP3    H141293   1.141   3.559   7.646 -0.0937 -0.1432 -0.0177
 6578TIP3    H241294   1.149   3.409   7.661  0.4290 -0.0922  0.2501
 6579TIP3   OH241295   4.939   5.463   0.982 -0.1976  0.1484  0.3096
 6579TIP3    H141296   4.919   5.402   1.053  2.3844  0.0988  1.1215
 6579TIP3    H241297   4.855   5.485   0.944 -1.4190 -2.1280  1.4947
 6580TIP3   OH241298   5.937   0.362   0.730  0.3610  0.1039  0.4095
 6580TIP3    H141299   5.924   0.318   0.646 -3.7057  1.6550  0.0076
 6580TIP3    H241300   5.937   0.291   0.795  1.2055 -0.9446 -0.7050
 6581TIP3   OH241301   0.880   1.864   0.739  0.7432  0.9279  0.6974
 6581TIP3    H141302   0.836   1.826   0.664  1.4890  0.1278  0.6571
 6581TIP3    H241303   0.821   1.934   0.769 -0.4589  0.0013  0.5426
 6582TIP3   OH241304   6.464   3.386   2.023 -0.0532  0.3819 -0.2565
 6582TIP3    H141305   6.534   3.397   2.086  0.7579  1.2236 -1.2553
 6582TIP3    H241306   6.435   3.296   2.033  0.3609  0.3786  0.9861
 6583TIP3   OH241307   5.238   0.581   0.126  0.0553  0.2354 -0.1363
 6583TIP3    H141308   5.299   0.646   0.160  0.7280 -1.0654  1.2296
 6583TIP3    H241309   5.215   0.527   0.201  0.4069 -1.8224 -1.4231
 6584TIP3   OH241310   3.520   0.232   0.866  0.0221 -0.1457  0.3236
 6584TIP3    H141311   3.464   0.159   0.893  0.9867 -1.4119 -0.9291
 6584TIP3    H241312   3.600   0.221   0.918  0.3834 -0.3320 -0.2572
 6585TIP3   OH241313   5.868   2.731   1.429 -0.5049  0.7602 -0.7870
 6585TIP3    H141314   5.827   2.723   1.343  0.0953  0.5284 -1.0560
 6585TIP3    H241315   5.799   2.767   1.485 -0.9778  0.6675 -1.3012
 6586TIP3   OH241316   1.011   3.659   7.329 -0.0731  0.2424  0.1152
 6586TIP3    H141317   0.969   3.576   7.353  0.6764 -0.4352 -0.8659
 6586TIP3    H241318   1.103   3.647   7.355  0.0237  0.7951  0.0283
 6587TIP3   OH241319   1.139   6.637   0.742 -0.5167 -0.5260  0.6439
 6587TIP3    H141320   1.170   6.553   0.777 -0.4023 -0.9065 -0.3307
 6587TIP3    H241321   1.046   6.622   0.724 -0.9583  0.1601  2.2102
 6588TIP3   OH241322   3.522   0.502   0.759 -0.1776  0.0354  0.5597
 6588TIP3    H141323   3.528   0.429   0.821 -0.3845  0.1005  0.6567
 6588TIP3    H241324   3.444   0.483   0.707  1.7350 -1.7599 -1.9133
 6589TIP3   OH241325   5.578   2.353   1.979  0.0804 -0.0769  0.3944
 6589TIP3    H141326   5.634   2.419   2.019 -1.0877  1.6025 -0.6104
 6589TIP3    H241327   5.635   2.306   1.919  1.1709 -0.7213  1.8664
 6590TIP3   OH241328   2.226   5.109   6.831  0.1604 -0.0492  0.4072
 6590TIP3    H141329   2.185   5.027   6.855 -0.0432 -0.2343 -0.5073
 6590TIP3    H241330   2.315   5.104   6.866  0.6475 -1.3181 -0.8933
 6591TIP3   OH241331   3.328   2.708   1.398 -0.0042  0.6336  0.3661
 6591TIP3    H141332   3.252   2.650   1.413 -0.5387  0.2928 -2.9921
 6591TIP3    H241333   3.396   2.650   1.365  0.4652  1.4961 -0.2063
 6592TIP3   OH241334   3.085   1.606   2.281 -0.1589 -0.3244  0.3800
 6592TIP3    H141335   3.154   1.550   2.245 -1.5236 -1.9148  0.1329
 6592TIP3    H241336   3.105   1.693   2.246  0.1192 -1.2828 -2.0196
 6593TIP3   OH241337   4.020   4.160   7.505 -0.1286  0.3379 -0.2087
 6593TIP3    H141338   3.976   4.098   7.447  1.9134 -2.2902  0.8325
 6593TIP3    H241339   4.105   4.176   7.463  0.4225  0.2660  0.8258
 6594TIP3   OH241340   5.841   1.200   2.582  0.2234 -0.0216 -0.2130
 6594TIP3    H141341   5.923   1.211   2.534  0.3616 -1.6237 -0.3987
 6594TIP3    H241342   5.787   1.145   2.525 -0.8138  0.6479  0.1044
 6595TIP3   OH241343   0.926   5.834   7.689 -0.4785 -0.3889 -0.0172
 6595TIP3    H141344   0.888   5.877   7.612  1.6568 -0.4232 -1.1522
 6595TIP3    H241345   0.952   5.907   7.746 -0.2620 -0.2999 -0.2301
 6596TIP3   OH241346   5.186   3.437   7.416  0.2610 -0.4765 -0.3373
 6596TIP3    H141347   5.121   3.477   7.474  0.5105  0.0836 -0.4412
 6596TIP3    H241348   5.134   3.385   7.355 -0.0671 -0.3053 -0.2067
 6597TIP3   OH241349   3.020   3.951   0.797  0.1101  0.3086 -0.3713
 6597TIP3    H141350   3.101   3.944   0.848  0.8671 -0.1246 -1.5780
 6597TIP3    H241351   3.029   4.034   0.750 -0.2295  0.3442 -0.3725
 6598TIP3   OH241352   4.695   4.784   7.197 -0.1513 -0.6479  0.0069
 6598TIP3    H141353   4.703   4.722   7.124 -2.3490 -0.6864 -0.2736
 6598TIP3    H241354   4.690   4.869   7.154 -0.3845 -0.5801  0.1687
 6599TIP3   OH241355   6.740   4.863   0.525  0.0403  0.1119  0.3027
 6599TIP3    H141356   6.726   4.955   0.546  0.3462  0.3995 -0.6819
 6599TIP3    H241357   6.659   4.819   0.553 -0.8429  0.9597 -0.8118
 6600TIP3   OH241358   4.602   1.832   7.687  0.3485 -0.0429 -1.0961
 6600TIP3    H141359   4.506   1.827   7.695  0.3848  1.5365  1.1366
 6600TIP3    H241360   4.630   1.741   7.692 -0.9651 -0.4392 -0.2525
 6601TIP3   OH241361   4.528   5.378   8.843 -0.1715  0.2688 -0.0013
 6601TIP3    H141362   4.547   5.472   8.854  1.1837  0.0339 -0.2263
 6601TIP3    H241363   4.484   5.372   8.758 -0.3975  0.7034  0.0782
 6602TIP3   OH241364   2.899   2.527   0.352 -0.1573 -0.0299 -0.4668
 6602TIP3    H141365   2.862   2.592   0.293 -1.0503 -0.5611 -0.4989
 6602TIP3    H241366   2.914   2.450   0.298 -0.6542 -0.4045 -0.0801
 6603TIP3   OH241367   4.052   2.576   8.774 -1.0032 -0.5603 -0.1133
 6603TIP3    H141368   3.974   2.629   8.753 -0.0160  0.3792 -1.6048
 6603TIP3    H241369   4.082   2.610   8.858  0.3995  2.3826 -1.6357
 6604TIP3   OH241370   2.283   0.773   8.278 -0.1232  0.2821 -0.1814
 6604TIP3    H141371   2.294   0.707   8.347  1.2554  1.3948  0.7315
 6604TIP3    H241372   2.303   0.856   8.321 -1.0490  1.2242 -1.4930
 6605TIP3   OH241373   2.238   2.735   6.965 -0.1843 -0.2175 -0.3111
 6605TIP3    H141374   2.239   2.700   7.054  1.3045  1.4461  0.3755
 6605TIP3    H241375   2.227   2.829   6.976  4.2849  0.6853 -1.5544
 6606TIP3   OH241376   0.972   5.592   6.801 -0.7256 -0.2981  0.4285
 6606TIP3    H141377   0.877   5.586   6.808 -0.6765  0.3868  2.5484
 6606TIP3    H241378   1.000   5.504   6.775 -1.8947 -0.7441  0.6302
 6607TIP3   OH241379   3.398   3.496   2.449 -0.8872 -0.1651  0.2089
 6607TIP3    H141380   3.403   3.407   2.482  2.6517 -0.6948 -1.3391
 6607TIP3    H241381   3.350   3.489   2.366 -2.3709 -0.1973  1.0217
 6608TIP3   OH241382   4.447   5.585   8.215 -0.0650 -0.1819 -0.0565
 6608TIP3    H141383   4.374   5.634   8.178 -1.1667 -0.7284  1.3141
 6608TIP3    H241384   4.518   5.649   8.222 -1.4151  1.2034  1.5486
 6609TIP3   OH241385   0.839   3.039   0.307 -0.4023  0.6307 -0.5151
 6609TIP3    H141386   0.835   3.104   0.377 -0.8525  0.6780 -0.5810
 6609TIP3    H241387   0.921   2.992   0.322 -0.1640  1.0942 -0.3624
 6610TIP3   OH241388   1.590   0.015   1.368 -0.4132  0.0671 -0.2921
 6610TIP3    H141389   1.555   0.059   1.291  1.2851 -1.1571 -1.8733
 6610TIP3    H241390   1.674  -0.020   1.339  0.9059  0.6358  2.5140
 6611TIP3   OH241391   6.523   2.855   7.285 -0.2194 -0.6332 -0.1050
 6611TIP3    H141392   6.484   2.861   7.197  1.4301 -1.3337 -0.9140
 6611TIP3    H241393   6.534   2.762   7.300 -1.1999 -0.5582  1.2044
 6612TIP3   OH241394   4.915   4.659   0.930 -0.0990 -0.1734  0.5073
 6612TIP3    H141395   4.826   4.684   0.955 -0.0741  0.4407  0.0027
 6612TIP3    H241396   4.904   4.577   0.881 -0.3262 -0.3921  0.9193
 6613TIP3   OH241397   2.812   3.247   0.102 -0.1937  0.3479 -0.6787
 6613TIP3    H141398   2.775   3.332   0.122 -1.2888  0.2048 -1.9728
 6613TIP3    H241399   2.804   3.239   0.007  0.0537 -1.1222 -0.6004
 6614TIP3   OH241400   1.373   4.663   2.448  0.0771 -0.3518  0.6748
 6614TIP3    H141401   1.405   4.745   2.410 -2.8968  1.3810  1.5173
 6614TIP3    H241402   1.388   4.597   2.381 -0.6214  1.6297 -1.5566
 6615TIP3   OH241403   4.626   0.530   8.396 -0.6226 -0.2394  0.5401
 6615TIP3    H141404   4.606   0.585   8.320  0.3444  0.3513  0.6921
 6615TIP3    H241405   4.625   0.441   8.362 -0.2857  0.0132 -0.1472
 6616TIP3   OH241406   4.911   3.604   7.230 -0.0999 -0.3893  0.5800
 6616TIP3    H141407   4.906   3.546   7.154  0.8672 -2.1673  1.8015
 6616TIP3    H241408   4.820   3.611   7.261 -0.4250 -0.0542 -0.4021
 6617TIP3   OH241409   5.023   4.255   7.487  0.2005  0.3635  0.7124
 6617TIP3    H141410   5.071   4.263   7.570 -0.1010 -0.2748  0.9559
 6617TIP3    H241411   4.963   4.182   7.502  0.0883  0.3008 -0.0439
 6618TIP3   OH241412   4.724   3.870   8.598  0.3203  0.2905 -0.3799
 6618TIP3    H141413   4.681   3.840   8.518 -1.4884  0.3654  0.5190
 6618TIP3    H241414   4.683   3.955   8.617 -1.6809 -1.1363  2.3274
 6619TIP3   OH241415   0.535   4.230   1.952  0.0788  0.2136 -0.0873
 6619TIP3    H141416   0.538   4.162   2.019 -1.0009 -0.2305 -0.4654
 6619TIP3    H241417   0.581   4.192   1.877 -1.7381 -0.6827 -0.7837
 6620TIP3   OH241418   5.023   5.889   1.155 -0.2485  0.0497  0.6607
 6620TIP3    H141419   5.049   5.870   1.246  0.6239  0.2186  0.4579
 6620TIP3    H241420   5.058   5.976   1.137 -0.7539  0.1787  0.2829
 6621TIP3   OH241421   4.899   1.519   8.103  0.2741  0.5593 -0.1586
 6621TIP3    H141422   4.837   1.590   8.087 -0.3922  0.2865  1.0824
 6621TIP3    H241423   4.930   1.534   8.193  1.0610 -0.0241 -0.3219
 6622TIP3   OH241424   2.859   0.325   8.293 -0.0459 -0.2149 -0.6069
 6622TIP3    H141425   2.883   0.347   8.203 -2.1165  0.2597 -1.0951
 6622TIP3    H241426   2.777   0.372   8.308  0.9153  0.8427  2.0147
 6623TIP3   OH241427   5.617   0.926   1.079 -0.1624  0.0628  0.3842
 6623TIP3    H141428   5.583   0.890   0.998  0.7127  0.9484 -0.3989
 6623TIP3    H241429   5.539   0.951   1.129 -0.7285 -1.4404  0.2756
 6624TIP3   OH241430   2.171   3.415   6.591 -0.0333 -0.3771 -0.7989
 6624TIP3    H141431   2.266   3.408   6.585  0.1066  0.8233 -0.2462
 6624TIP3    H241432   2.155   3.507   6.612 -1.2027 -0.9592  1.1250
 6625TIP3   OH241433   5.455   0.858   7.966 -0.1742 -0.6559 -0.0126
 6625TIP3    H141434   5.433   0.785   8.023  0.7136 -0.0356  1.1802
 6625TIP3    H241435   5.386   0.923   7.983 -0.7006 -1.0169 -0.7230
 6626TIP3   OH241436   2.943   4.790   8.481 -0.6491 -0.3930 -0.0494
 6626TIP3    H141437   2.926   4.704   8.443  0.1365 -0.2217 -0.8393
 6626TIP3    H241438   2.878   4.800   8.550 -0.5197 -1.7723  0.2918
 6627TIP3   OH241439   1.134   1.864   0.866  0.2368 -0.1957  0.0587
 6627TIP3    H141440   1.111   1.819   0.947  0.9232 -0.0793  0.3305
 6627TIP3    H241441   1.051   1.879   0.822 -0.0574 -1.1679  0.2574
 6628TIP3   OH241442   0.010   5.306   1.363  0.6137  0.0665 -0.4020
 6628TIP3    H141443  -0.066   5.291   1.307 -0.0218  1.2215  0.1217
 6628TIP3    H241444   0.082   5.320   1.301  0.8091 -2.6238 -0.9190
 6629TIP3   OH241445   2.755   4.507   7.671  0.2494 -0.3727  0.0415
 6629TIP3    H141446   2.667   4.470   7.683  0.0363 -0.6444 -1.9803
 6629TIP3    H241447   2.811   4.432   7.657  0.2493 -0.1223 -1.5879
 6630TIP3   OH241448   1.796   3.118   0.641  0.5520  0.0958 -0.3766
 6630TIP3    H141449   1.760   3.045   0.592 -0.3027 -0.0116  0.3849
 6630TIP3    H241450   1.889   3.099   0.648 -0.0929 -2.8294  2.8536
 6631TIP3   OH241451   1.979   5.415   0.775  0.0214 -0.4378 -0.5262
 6631TIP3    H141452   1.921   5.491   0.769  0.5912  0.3193  2.2806
 6631TIP3    H241453   1.920   5.339   0.772 -0.8573  0.2293 -0.2464
 6632TIP3   OH241454   0.152   4.743   1.008 -0.0031 -0.1876  0.2719
 6632TIP3    H141455   0.192   4.658   1.023  2.5186  0.6020 -1.4096
 6632TIP3    H241456   0.089   4.728   0.937 -0.6070 -0.8779  0.9364
 6633TIP3   OH241457   1.691   4.249   0.514 -0.0722  0.2223  0.3322
 6633TIP3    H141458   1.632   4.318   0.545  0.8107  0.6528  1.0997
 6633TIP3    H241459   1.761   4.247   0.579 -1.1800 -2.9577  1.6510
 6634TIP3   OH241460   5.404   3.338   7.250 -0.4118 -0.1320 -0.1010
 6634TIP3    H141461   5.470   3.270   7.265 -0.5237 -0.8338 -2.4390
 6634TIP3    H241462   5.336   3.319   7.315 -0.1872 -1.9337 -0.3212
 6635TIP3   OH241463   1.359   4.929   1.053  0.4842  0.4184  0.6958
 6635TIP3    H141464   1.444   4.926   1.098  1.8012  1.3334 -1.5998
 6635TIP3    H241465   1.374   4.885   0.969 -1.6347 -0.3436  0.6358
 6636TIP3   OH241466   6.198   2.190   2.592 -0.2541 -0.4502  0.5329
 6636TIP3    H141467   6.130   2.252   2.617  1.1355  1.8207 -0.8829
 6636TIP3    H241468   6.185   2.176   2.498  0.4621 -0.9263  0.4952
 6637TIP3   OH241469   4.718   2.663   0.983  0.7611 -0.0709 -0.7797
 6637TIP3    H141470   4.627   2.685   0.963  0.6907  0.6175  0.2433
 6637TIP3    H241471   4.714   2.574   1.018  0.3652  0.2495  0.0210
 6638TIP3   OH241472   0.592   5.724   7.633  0.0545 -0.8145  0.0482
 6638TIP3    H141473   0.525   5.726   7.564 -0.0102  0.1787  0.1295
 6638TIP3    H241474   0.650   5.796   7.613  0.0717 -0.5454  0.9960
 6639TIP3   OH241475   5.454   5.414   7.998  0.1146 -0.0831  0.3219
 6639TIP3    H141476   5.537   5.460   8.013  0.2726 -0.5453  0.9269
 6639TIP3    H241477   5.386   5.475   8.026  0.3370 -0.3259  1.4612
 6640TIP3   OH241478   3.734   4.198   7.626  0.0500  0.6423  0.3041
 6640TIP3    H141479   3.790   4.275   7.615  1.7517 -0.7566 -1.4005
 6640TIP3    H241480   3.766   4.135   7.562 -1.0454 -1.6700  1.8941
 6641TIP3   OH241481   5.898   5.561   1.247  0.2044 -0.2206 -0.0970
 6641TIP3    H141482   5.986   5.597   1.243  0.0611  0.0648 -1.0061
 6641TIP3    H241483   5.904   5.477   1.202  0.0203 -0.2145 -0.1361
 6642TIP3   OH241484   5.915   5.269   6.978  0.2084  0.1551  0.0570
 6642TIP3    H141485   5.896   5.260   7.071  0.5094  0.2776  0.1300
 6642TIP3    H241486   6.009   5.258   6.971  0.2913  0.9410 -0.1320
 6643TIP3   OH241487   0.928   3.690   0.856 -0.3073 -0.5604 -0.4724
 6643TIP3    H141488   1.007   3.719   0.902 -0.4499  0.5515 -0.8883
 6643TIP3    H241489   0.882   3.771   0.834 -0.5716 -1.0861 -2.0087
 6644TIP3   OH241490   0.451   4.759   1.511  0.8216  0.3507  0.2073
 6644TIP3    H141491   0.468   4.841   1.556 -1.1648  0.6275  0.5185
 6644TIP3    H241492   0.375   4.722   1.555 -0.3497 -0.0466 -2.0083
 6645TIP3   OH241493   6.522   1.039   1.840 -0.0406  0.0054  0.0527
 6645TIP3    H141494   6.563   0.960   1.805  0.1254 -0.4080  1.1627
 6645TIP3    H241495   6.465   1.008   1.910 -2.0967  0.5932 -1.2672
 6646TIP3   OH241496   5.768   5.157   8.881 -0.8939 -0.1850  0.4419
 6646TIP3    H141497   5.863   5.168   8.877 -0.7279 -1.1666  1.1642
 6646TIP3    H241498   5.748   5.095   8.811 -1.2282  1.1880 -0.7230
 6647TIP3   OH241499   6.703   5.595   8.206 -0.2060  0.1742  0.4060
 6647TIP3    H141500   6.768   5.572   8.140 -0.6152 -0.7893  0.3227
 6647TIP3    H241501   6.713   5.528   8.274 -0.5592  0.4922  0.7788
 6648TIP3   OH241502   0.405   5.046   1.575 -0.2063 -0.1344 -0.2098
 6648TIP3    H141503   0.405   5.130   1.620 -3.1730 -0.5359  0.7702
 6648TIP3    H241504   0.408   5.069   1.482 -1.4536  1.1233  0.0254
 6649TIP3   OH241505   3.582   5.733   7.904  0.1551  0.5568  0.1668
 6649TIP3    H141506   3.489   5.740   7.922 -0.1913  1.4110 -1.7562
 6649TIP3    H241507   3.598   5.639   7.894 -0.3146  0.3465  1.2427
 6650TIP3   OH241508   2.876   1.200   0.365 -0.1208 -0.0357 -0.5383
 6650TIP3    H141509   2.889   1.286   0.324  1.6333 -1.2538 -2.7992
 6650TIP3    H241510   2.964   1.174   0.394 -0.7090 -0.8901  0.5612
 6651TIP3   OH241511   3.683   4.628   1.592 -0.0038 -0.6862 -0.1010
 6651TIP3    H141512   3.679   4.713   1.635  1.9448 -0.9157  0.6647
 6651TIP3    H241513   3.602   4.583   1.618 -0.0118  0.1077  1.3409
 6652TIP3   OH241514   6.477   6.422   2.604  0.0484  0.2295 -0.3416
 6652TIP3    H141515   6.406   6.364   2.578  0.6273 -0.5631 -0.2045
 6652TIP3    H241516   6.527   6.437   2.524  0.1078  0.2477 -0.3016
 6653TIP3   OH241517   5.010   2.158   8.536 -0.0738  0.2097  0.0351
 6653TIP3    H141518   4.971   2.194   8.616  1.3164  0.0263  0.8371
 6653TIP3    H241519   5.103   2.182   8.542  0.5731 -1.9884 -0.2359
 6654TIP3   OH241520   1.653   0.383   7.115  0.5205 -0.3532  0.3052
 6654TIP3    H141521   1.569   0.398   7.071 -0.8902 -4.9386  0.9425
 6654TIP3    H241522   1.641   0.423   7.202 -0.9789 -0.8088  0.3405
 6655TIP3   OH241523   2.616   4.237   0.847 -0.0583 -0.2535 -0.6278
 6655TIP3    H141524   2.570   4.254   0.930  1.0628 -0.6797  0.1091
 6655TIP3    H241525   2.558   4.177   0.800 -0.6936 -0.0387 -0.1389
 6656TIP3   OH241526   2.302   4.066   7.080  0.5126  0.2844  0.0472
 6656TIP3    H141527   2.209   4.048   7.069  0.5231 -0.3124  0.8254
 6656TIP3    H241528   2.345   4.000   7.026  0.5315 -1.7206  2.3161
 6657TIP3   OH241529   4.926   5.619   1.532 -0.3173  0.2088  0.4788
 6657TIP3    H141530   4.868   5.547   1.559 -0.1852  0.0710  0.4004
 6657TIP3    H241531   4.887   5.651   1.450 -0.9074  0.8499  1.0043
 6658TIP3   OH241532   5.544   5.525   0.456  0.2832 -0.7679 -0.7926
 6658TIP3    H141533   5.618   5.524   0.517  0.4672  1.4709 -0.8816
 6658TIP3    H241534   5.467   5.539   0.511  0.3765  0.6061 -0.9828
 6659TIP3   OH241535   4.061   4.820   0.123 -0.1749  0.3039  0.2187
 6659TIP3    H141536   4.011   4.843   0.201  0.1529 -0.0940  0.5460
 6659TIP3    H241537   4.132   4.883   0.120 -1.1737  1.4379 -0.7345
 6660TIP3   OH241538   3.164   1.263   0.554  0.1144  0.3962  0.1483
 6660TIP3    H141539   3.221   1.253   0.631  0.2053  2.5349  0.4305
 6660TIP3    H241540   3.194   1.196   0.493  0.8884 -0.5246  1.4946
 6661TIP3   OH241541   1.805   5.290   1.086 -0.0223 -0.2706  0.2613
 6661TIP3    H141542   1.887   5.335   1.107  1.4020 -2.2691 -0.6333
 6661TIP3    H241543   1.737   5.353   1.108  1.7239  1.3674  1.3501
 6662TIP3   OH241544   3.010   5.194   8.511 -0.3829  0.6338 -0.0281
 6662TIP3    H141545   3.029   5.287   8.501 -0.5016  0.6408 -0.1988
 6662TIP3    H241546   3.028   5.156   8.424  1.2952  0.2053  0.4676
 6663TIP3   OH241547   2.481   0.821   7.559  0.5064  0.4398  0.3747
 6663TIP3    H141548   2.506   0.808   7.651  1.2711  2.0695  0.4336
 6663TIP3    H241549   2.490   0.915   7.545 -2.0289  0.5890 -0.6940
 6664TIP3   OH241550   3.590   2.213   0.069 -0.2894 -0.0959 -0.2734
 6664TIP3    H141551   3.498   2.201   0.093 -0.0800 -1.4581 -0.0108
 6664TIP3    H241552   3.636   2.222   0.153 -0.1462  0.2078 -0.3840
 6665TIP3   OH241553   3.467   1.325   1.318 -0.6256  0.0127  0.1096
 6665TIP3    H141554   3.454   1.249   1.374  0.6536 -2.0261 -2.1865
 6665TIP3    H241555   3.558   1.351   1.334 -0.6169  0.1633 -0.1777
 6666TIP3   OH241556   3.505   4.011   1.087 -0.4553 -0.5851  0.4177
 6666TIP3    H141557   3.447   4.036   1.014 -0.2917 -2.4450 -0.3961
 6666TIP3    H241558   3.569   4.082   1.091 -0.5816 -0.3374 -1.1282
 6667TIP3   OH241559   0.945   1.760   7.639  0.1091  0.0653 -0.4007
 6667TIP3    H141560   0.887   1.748   7.714  1.2521 -0.5391  0.4254
 6667TIP3    H241561   1.015   1.816   7.672  0.6052 -0.1725 -1.0260
 6668TIP3   OH241562   4.177   3.034   8.259 -0.6727  0.6190 -0.4767
 6668TIP3    H141563   4.163   3.128   8.271 -2.3228  0.1739  1.6117
 6668TIP3    H241564   4.264   3.017   8.296 -0.7351  1.1774 -0.0698
 6669TIP3   OH241565   3.529   1.022   8.496 -0.0435 -0.0141  0.4140
 6669TIP3    H141566   3.565   1.085   8.559  0.0327  1.0602 -0.6922
 6669TIP3    H241567   3.435   1.036   8.498  0.0011  0.3550 -0.0668
 6670TIP3   OH241568   6.539   0.092   0.686  0.4951 -0.3341  0.2969
 6670TIP3    H141569   6.579   0.177   0.705  1.7703 -0.7573 -0.3883
 6670TIP3    H241570   6.484   0.108   0.610 -1.6364  0.5074  1.9033
 6671TIP3   OH241571   0.701   6.503   8.182 -0.1466  0.6253  0.0311
 6671TIP3    H141572   0.719   6.409   8.183  1.1083  0.8118  2.5020
 6671TIP3    H241573   0.606   6.510   8.185 -0.4432 -0.4653 -2.8687
 6672TIP3   OH241574   3.239   6.275   8.830  0.4982 -0.0146 -0.2696
 6672TIP3    H141575   3.194   6.218   8.892  1.9304  0.7249  1.5389
 6672TIP3    H241576   3.186   6.269   8.750 -1.3399 -1.1215  0.9394
 6673TIP3   OH241577   0.911   5.608   2.158  0.0758  0.3328  0.7460
 6673TIP3    H141578   0.933   5.541   2.223 -1.3702 -1.0513 -0.1476
 6673TIP3    H241579   0.982   5.672   2.166  0.7172 -0.5347  2.6540
 6674TIP3   OH241580   3.605   4.335   1.903 -0.1770 -0.4934 -0.1352
 6674TIP3    H141581   3.629   4.309   1.992 -0.7559  0.8156  0.4272
 6674TIP3    H241582   3.679   4.385   1.871  0.0150 -0.9314 -0.3840
 6675TIP3   OH241583   4.232   0.539   0.443  0.0935  0.0712  0.9326
 6675TIP3    H141584   4.245   0.617   0.498  0.1452 -1.0170  2.5166
 6675TIP3    H241585   4.317   0.526   0.401 -0.5689  2.2611 -1.3528
 6676TIP3   OH241586   5.630   6.105   8.169 -0.6617  0.4127  0.1150
 6676TIP3    H141587   5.550   6.148   8.199  0.1782  1.3285  1.1280
 6676TIP3    H241588   5.662   6.162   8.099  0.2034  1.2442  1.1447
 6677TIP3   OH241589   1.820   2.737   7.033 -0.0242  0.7949 -0.9211
 6677TIP3    H141590   1.728   2.761   7.022  0.5326  3.2897 -0.6880
 6677TIP3    H241591   1.859   2.749   6.946  0.2371  0.4541 -0.8549
 6678TIP3   OH241592   2.231   5.589   0.666  0.7627  0.3766  0.2572
 6678TIP3    H141593   2.185   5.513   0.701  0.3239  0.3903 -0.2687
 6678TIP3    H241594   2.270   5.558   0.584  0.6044  0.7029  0.0531
 6679TIP3   OH241595   4.474   5.336   1.456 -0.0328 -0.1501 -0.1598
 6679TIP3    H141596   4.478   5.304   1.546  0.3800 -1.0275 -0.4760
 6679TIP3    H241597   4.382   5.356   1.441 -0.3732 -1.4944 -0.0245
 6680TIP3   OH241598   5.309   0.476   1.000 -0.3729  0.3614  0.8907
 6680TIP3    H141599   5.281   0.385   1.014 -0.5687  0.3074  0.1553
 6680TIP3    H241600   5.236   0.529   1.032 -1.2136  0.2252 -0.7011
 6681TIP3   OH241601   0.164   4.323   7.732 -0.0119  0.3357  0.4682
 6681TIP3    H141602   0.256   4.297   7.721  0.1802  0.8878  0.7412
 6681TIP3    H241603   0.151   4.394   7.670 -0.5955 -0.5182 -0.4226
 6682TIP3   OH241604   0.789   0.393   0.225 -0.8523  0.0658 -0.2944
 6682TIP3    H141605   0.884   0.381   0.227 -0.7562  0.7732 -0.1649
 6682TIP3    H241606   0.756   0.315   0.182 -0.2357 -0.3342 -0.0538
 6683TIP3   OH241607   1.636   4.073   7.968 -0.4683  0.3981 -0.2494
 6683TIP3    H141608   1.598   4.141   8.022 -0.9377 -0.5710  0.6811
 6683TIP3    H241609   1.589   4.077   7.885 -0.9328  0.7715  0.0349
 6684TIP3   OH241610   1.422   6.122   0.790  0.6247 -0.3278 -0.6235
 6684TIP3    H141611   1.499   6.083   0.748  1.3268  1.3678 -1.0347
 6684TIP3    H241612   1.432   6.102   0.883  2.2078  0.7892 -0.5029
 6685TIP3   OH241613   6.552   1.874   6.905 -0.1381  0.7072  0.2845
 6685TIP3    H141614   6.558   1.969   6.903  0.5262  0.7007 -2.6942
 6685TIP3    H241615   6.642   1.844   6.892 -0.6068 -0.2742 -0.8717
 6686TIP3   OH241616   2.929   5.758   7.079  0.7444  0.4246 -0.4752
 6686TIP3    H141617   2.838   5.736   7.058  1.2754 -3.1833  0.3289
 6686TIP3    H241618   2.976   5.675   7.072  3.8843  2.0151 -0.1223
 6687TIP3   OH241619   5.702   0.166   0.306 -0.2731 -0.3111  0.1543
 6687TIP3    H141620   5.736   0.171   0.216 -0.2142 -1.6315  0.0967
 6687TIP3    H241621   5.624   0.222   0.304  0.1372  0.2711 -0.5171
 6688TIP3   OH241622   5.917   0.549   0.911 -0.2306 -0.3033 -0.2473
 6688TIP3    H141623   5.827   0.581   0.906  0.5714  1.9513 -3.1701
 6688TIP3    H241624   5.923   0.483   0.842 -0.6381 -3.8929  2.8180
 6689TIP3   OH241625   6.198   6.583   0.516  0.0347 -0.8973  0.1631
 6689TIP3    H141626   6.163   6.596   0.428  0.8783  0.7053  0.0130
 6689TIP3    H241627   6.183   6.667   0.560 -0.8230 -1.8253  1.7236
 6690TIP3   OH241628   5.461   3.939   1.759 -0.1353  0.0024 -0.2660
 6690TIP3    H141629   5.442   3.862   1.705 -0.1081  0.0126 -0.2905
 6690TIP3    H241630   5.405   3.929   1.835  1.2349 -1.0537  0.6771
 6691TIP3   OH241631   1.165   2.027   6.533  0.4782  0.1105  0.3198
 6691TIP3    H141632   1.195   2.003   6.445  1.0640 -0.1587  0.5905
 6691TIP3    H241633   1.129   1.945   6.569 -3.7213  1.0359 -1.1981
 6692TIP3   OH241634   3.704   2.355   0.482 -0.1677  0.3036 -0.4683
 6692TIP3    H141635   3.693   2.375   0.575  0.2377 -0.6751 -0.2020
 6692TIP3    H241636   3.673   2.434   0.437 -1.6448  0.2703  0.4429
 6693TIP3   OH241637   1.493   6.381   0.750 -0.3998  0.1350  0.0280
 6693TIP3    H141638   1.437   6.361   0.675 -3.1860 -1.3099  2.3238
 6693TIP3    H241639   1.513   6.296   0.789  2.3363  0.7175  0.1440
 6694TIP3   OH241640   0.762   5.530   8.729 -0.5627 -0.2533  0.5198
 6694TIP3    H141641   0.765   5.507   8.822  2.0456  0.1989  0.6234
 6694TIP3    H241642   0.700   5.603   8.724 -0.8063 -0.3435  1.8994
 6695TIP3   OH241643   3.671   1.551   1.397  0.6017  0.3815  0.1128
 6695TIP3    H141644   3.686   1.640   1.365 -0.4602  0.0439 -1.4546
 6695TIP3    H241645   3.587   1.555   1.441  0.4726  0.1308 -0.1041
 6696TIP3   OH241646   5.345   3.820   1.085 -0.1563 -0.6750 -0.2187
 6696TIP3    H141647   5.335   3.734   1.045 -1.0197 -1.0526  0.7556
 6696TIP3    H241648   5.390   3.803   1.168 -2.9503 -0.6681  1.4440
 6697TIP3   OH241649   0.740   0.169   7.905  0.0146  0.2439 -0.1992
 6697TIP3    H141650   0.784   0.136   7.983 -0.5705  1.5131  0.6932
 6697TIP3    H241651   0.680   0.236   7.937 -0.6441  0.4080 -1.6804
 6698TIP3   OH241652   1.580   1.851   0.393  0.1978 -0.0460 -0.3390
 6698TIP3    H141653   1.610   1.937   0.364  0.1773  0.4700  1.0573
 6698TIP3    H241654   1.487   1.849   0.371 -0.1807  0.9520  0.9617
 6699TIP3   OH241655   0.778   6.223   6.813 -0.3509  0.3734 -0.4778
 6699TIP3    H141656   0.781   6.234   6.908 -1.3932  1.2948 -0.5364
 6699TIP3    H241657   0.779   6.312   6.778  1.1040  0.0396 -1.4014
 6700TIP3   OH241658   0.126   2.360   7.595 -0.1815  0.1010 -0.7581
 6700TIP3    H141659   0.218   2.336   7.609 -0.2225 -0.2679 -1.1078
 6700TIP3    H241660   0.107   2.423   7.664  0.5380  0.7228 -1.1140
 6701TIP3   OH241661   2.753   0.115   7.715 -0.0626 -0.0362 -0.1581
 6701TIP3    H141662   2.766   0.100   7.809  0.8154  0.8939 -0.1149
 6701TIP3    H241663   2.753   0.210   7.706  1.4677 -0.1115 -1.2984
 6702TIP3   OH241664   6.682   4.406   2.244  0.4102 -0.3083  0.4096
 6702TIP3    H141665   6.765   4.444   2.274  0.2237 -0.3827  1.0292
 6702TIP3    H241666   6.627   4.404   2.322  0.1737 -1.1910  0.2356
 6703TIP3   OH241667   0.725   0.769   7.313  0.4650 -0.2871 -0.4288
 6703TIP3    H141668   0.653   0.711   7.288 -0.6088  1.2845 -1.1457
 6703TIP3    H241669   0.751   0.813   7.232  2.8757 -1.4219 -0.3728
 6704TIP3   OH241670   4.617   0.615   0.537 -0.0469 -0.5114 -0.5762
 6704TIP3    H141671   4.590   0.677   0.469  0.6130 -0.3448 -0.6954
 6704TIP3    H241672   4.695   0.655   0.577  0.2243 -1.1296 -0.4652
 6705TIP3   OH241673   3.525   2.136   8.324  0.2478  0.1119  0.5898
 6705TIP3    H141674   3.588   2.076   8.284  1.2530  0.9836  0.7896
 6705TIP3    H241675   3.569   2.221   8.322 -1.1751  0.8633  0.2344
 6706TIP3   OH241676   0.728   1.464   7.431  0.2489 -0.1655 -0.1829
 6706TIP3    H141677   0.754   1.556   7.435  1.2963 -0.4698  0.4854
 6706TIP3    H241678   0.663   1.460   7.360  0.2633  1.0583 -0.2856
 6707TIP3   OH241679   4.449   2.659   0.965 -0.4111  0.0197 -0.1426
 6707TIP3    H141680   4.378   2.673   0.903 -0.8915  0.9385  0.5828
 6707TIP3    H241681   4.425   2.579   1.012 -0.1830 -0.5227 -0.9366
 6708TIP3   OH241682   2.113   1.112   1.535 -0.6608  0.2705  0.5282
 6708TIP3    H141683   2.118   1.197   1.491 -0.9972 -1.4694 -3.2418
 6708TIP3    H241684   2.019   1.094   1.541 -0.6095  0.3099  1.7661
 6709TIP3   OH241685   3.938   2.841   7.220  0.0699  0.0047 -0.7759
 6709TIP3    H141686   3.938   2.838   7.124  1.7640  5.8348 -1.3502
 6709TIP3    H241687   3.864   2.896   7.243 -0.3201 -1.3020  1.3747
 6710TIP3   OH241688   4.262   0.445   0.729  0.3028  0.2823  0.4032
 6710TIP3    H141689   4.334   0.390   0.697  0.5875  0.0166  1.4612
 6710TIP3    H241690   4.298   0.534   0.729 -0.0064  0.4295 -0.8651
 6711TIP3   OH241691   4.471   2.956   7.367  0.5303 -0.6650 -0.0587
 6711TIP3    H141692   4.565   2.971   7.361  0.4700 -0.4007 -0.3582
 6711TIP3    H241693   4.462   2.860   7.369  0.6737 -0.7640 -2.4036
 6712TIP3   OH241694   2.833   6.384   0.444  0.1689 -1.1424  0.4797
 6712TIP3    H141695   2.837   6.473   0.479  1.6924 -0.2359 -1.8178
 6712TIP3    H241696   2.755   6.383   0.389 -0.2962 -1.4964  1.1358
 6713TIP3   OH241697   0.728   5.311   7.940  0.1571  0.4422 -0.4775
 6713TIP3    H141698   0.757   5.266   8.019 -0.0191 -1.1433 -1.2643
 6713TIP3    H241699   0.633   5.312   7.947  0.1958  1.5947 -0.0074
 6714TIP3   OH241700   6.195   1.812   1.667  0.7028  0.0081 -0.1672
 6714TIP3    H141701   6.257   1.755   1.621  0.5403 -0.6579  0.4198
 6714TIP3    H241702   6.124   1.754   1.694 -0.0556  0.7184 -0.5983
 6715TIP3   OH241703   1.416   4.956   0.244 -0.0509 -0.1161  0.0673
 6715TIP3    H141704   1.423   5.022   0.175 -1.0707  1.0177  0.9812
 6715TIP3    H241705   1.366   4.885   0.204  1.2989 -0.4853 -1.0238
 6716TIP3   OH241706   6.353   2.315   8.402  0.2673 -0.0617 -0.1393
 6716TIP3    H141707   6.342   2.221   8.385 -1.9032 -0.1861  1.6116
 6716TIP3    H241708   6.292   2.335   8.472  2.7124  2.0955  1.5991
 6717TIP3   OH241709   3.227   1.383   7.827 -0.5130 -0.0581  0.4103
 6717TIP3    H141710   3.306   1.331   7.817 -1.0556 -0.4872 -2.9261
 6717TIP3    H241711   3.258   1.470   7.853  1.2825  0.1530 -2.1038
 6718TIP3   OH241712   4.486   1.560   2.158  0.0706  0.6382  0.0205
 6718TIP3    H141713   4.450   1.507   2.229  1.6186 -1.5313 -0.7180
 6718TIP3    H241714   4.410   1.584   2.105 -0.7679 -0.1654  0.8349
 6719TIP3   OH241715   3.850   5.820   8.695 -0.1618  0.0488 -0.2321
 6719TIP3    H141716   3.803   5.903   8.700 -0.0321  0.1702 -0.8954
 6719TIP3    H241717   3.806   5.763   8.758 -0.2622  0.6132  0.2186
 6720TIP3   OH241718   1.101   5.619   8.222  0.7297 -0.2308 -0.0397
 6720TIP3    H141719   1.071   5.707   8.196  2.6237  0.0671 -1.3661
 6720TIP3    H241720   1.042   5.559   8.176  1.0107  0.3396 -1.1692
 6721TIP3   OH241721   0.284   5.625   8.401  0.2016  0.2385 -0.1967
 6721TIP3    H141722   0.319   5.574   8.327  0.3486 -3.1415  1.9853
 6721TIP3    H241723   0.191   5.636   8.379  0.3591 -0.1834 -1.1609
 6722TIP3   OH241724   4.515   0.033   6.626 -0.3172 -0.3900 -0.2664
 6722TIP3    H141725   4.592   0.071   6.668 -0.8030  1.0746 -0.6417
 6722TIP3    H241726   4.448   0.100   6.633 -1.6168 -1.6770  0.1364
 6723TIP3   OH241727   1.805   3.083   1.733  0.1539  0.1541  0.1100
 6723TIP3    H141728   1.746   3.142   1.780 -0.3824 -1.1410  1.1183
 6723TIP3    H241729   1.886   3.084   1.784 -0.1106 -0.5421  0.5497
 6724TIP3   OH241730   0.722   1.485   6.921  0.0778 -0.0287 -0.2232
 6724TIP3    H141731   0.699   1.407   6.870  4.0435 -1.3950 -0.2045
 6724TIP3    H241732   0.776   1.538   6.862  1.1204  0.5171  1.1684
 6725TIP3   OH241733   4.682   2.310   0.294  0.2759 -0.5419 -0.3329
 6725TIP3    H141734   4.768   2.273   0.273  0.3531 -0.3495 -0.3649
 6725TIP3    H241735   4.627   2.287   0.219  0.8907  1.2613 -1.4047
 6726TIP3   OH241736   2.183   3.634   0.775  0.1295 -0.4731  0.0529
 6726TIP3    H141737   2.193   3.697   0.704  0.4403 -1.3727 -0.7204
 6726TIP3    H241738   2.113   3.670   0.829 -0.3629  0.0550 -0.9085
 6727TIP3   OH241739   1.187   1.194   0.417 -0.1926  0.5397  0.2227
 6727TIP3    H141740   1.138   1.112   0.409 -0.4011  0.7501 -0.8528
 6727TIP3    H241741   1.273   1.168   0.448  1.2250 -0.6982 -4.0633
 6728TIP3   OH241742   1.597   6.152   8.569  0.1348 -0.3599  0.6870
 6728TIP3    H141743   1.661   6.127   8.502 -0.0784 -0.3596  0.4824
 6728TIP3    H241744   1.643   6.216   8.623  0.5521 -0.8862  0.9729
 6729TIP3   OH241745   0.058   0.798   2.458  0.3982 -0.3052  0.0606
 6729TIP3    H141746  -0.019   0.855   2.450  0.7196  0.1618  0.2751
 6729TIP3    H241747   0.090   0.813   2.546  0.1219 -1.2953  0.3447
 6730TIP3   OH241748   5.047   1.289   8.119  0.0597 -0.1636  0.3210
 6730TIP3    H141749   4.984   1.359   8.103 -0.5944 -0.5319  1.2069
 6730TIP3    H241750   5.129   1.336   8.138 -0.6442  0.4293  2.0853
 6731TIP3   OH241751   2.374   0.307   6.491 -0.4865  0.7478  0.1859
 6731TIP3    H141752   2.397   0.214   6.497  0.8093  0.9474 -1.1045
 6731TIP3    H241753   2.357   0.322   6.398  1.3632  2.1986  0.0161
 6732TIP3   OH241754   3.938   6.185   7.014 -0.0200  0.2988 -0.0201
 6732TIP3    H141755   3.957   6.190   7.108  1.2333 -0.1444 -0.2297
 6732TIP3    H241756   4.021   6.206   6.972 -1.1140  2.8239 -1.0934
 6733TIP3   OH241757   1.931   0.236   1.266  0.0308 -0.0105 -0.1336
 6733TIP3    H141758   1.904   0.146   1.245  0.9551 -0.7440  1.6170
 6733TIP3    H241759   1.994   0.258   1.197 -0.7488 -0.4108 -0.9963
 6734TIP3   OH241760   4.965   1.816   0.610  0.1669 -0.1734 -0.5765
 6734TIP3    H141761   5.049   1.827   0.654  1.1109  0.6371 -2.4702
 6734TIP3    H241762   4.925   1.903   0.611 -1.3068 -0.7929  1.4315
 6735TIP3   OH241763   2.817   2.612   8.300 -0.6162 -0.3599 -0.4521
 6735TIP3    H141764   2.826   2.527   8.258 -0.4519 -1.0711  0.9841
 6735TIP3    H241765   2.875   2.670   8.249  0.1619 -1.3629 -0.7260
 6736TIP3   OH241766   3.863   5.013   7.014  0.2291 -0.0732  0.0040
 6736TIP3    H141767   3.853   5.079   7.083 -0.5272  0.6874 -0.8200
 6736TIP3    H241768   3.852   5.061   6.932  0.5087 -1.0750 -0.6399
 6737TIP3   OH241769   3.365   4.364   7.652  0.2202 -0.1361  0.3001
 6737TIP3    H141770   3.452   4.392   7.678  0.1616  2.5828 -1.9969
 6737TIP3    H241771   3.305   4.409   7.712  0.3065  0.7081 -0.2377
 6738TIP3   OH241772   1.787   5.218   0.805  0.2739 -0.3626  0.8259
 6738TIP3    H141773   1.782   5.240   0.898  1.4951  1.1703  0.5911
 6738TIP3    H241774   1.696   5.220   0.774 -0.0940 -0.3716  1.8831
 6739TIP3   OH241775   2.420   6.154   7.215 -0.1214 -0.5164  0.2419
 6739TIP3    H141776   2.393   6.222   7.154 -1.2653  0.2650  1.5443
 6739TIP3    H241777   2.374   6.075   7.186  1.4680 -0.8711 -1.4682
 6740TIP3   OH241778   0.701   2.461   7.335  0.5758  0.0562 -0.2144
 6740TIP3    H141779   0.794   2.467   7.358  0.4962 -0.9785  0.4645
 6740TIP3    H241780   0.686   2.535   7.277  1.7025  0.5520  0.0876
 6741TIP3   OH241781   4.248   4.848   2.094 -0.1683 -0.0723 -0.0759
 6741TIP3    H141782   4.265   4.779   2.158 -0.2132 -1.7188 -1.7278
 6741TIP3    H241783   4.155   4.837   2.072  0.0882 -0.2210 -1.1404
 6742TIP3   OH241784   3.566   5.752   0.857 -0.2977  0.1528  0.3806
 6742TIP3    H141785   3.497   5.771   0.794  0.8233  1.0504 -0.6126
 6742TIP3    H241786   3.564   5.826   0.918 -0.3116  0.1018  0.4424
 6743TIP3   OH241787   1.223   5.163   2.036  0.1628  0.2518  0.0004
 6743TIP3    H141788   1.142   5.208   2.061 -0.1951 -1.4293  2.1039
 6743TIP3    H241789   1.288   5.192   2.101  0.3645 -0.9158  0.3423
 6744TIP3   OH241790   5.227   2.805   7.215 -0.3017 -0.4324  0.1891
 6744TIP3    H141791   5.155   2.817   7.154 -0.8686  3.3885  1.3879
 6744TIP3    H241792   5.306   2.811   7.161 -0.8100 -0.3531 -0.5533
 6745TIP3   OH241793   2.165   4.693   1.920  0.1489  0.0839 -0.1581
 6745TIP3    H141794   2.174   4.696   1.825  0.0674  1.9685 -0.1429
 6745TIP3    H241795   2.070   4.685   1.934 -0.0355  1.7128 -0.2653
 6746TIP3   OH241796   5.689   4.435   1.090  0.1278  0.2094  0.0966
 6746TIP3    H141797   5.609   4.405   1.047  0.4402  0.4938 -0.7214
 6746TIP3    H241798   5.738   4.355   1.108 -0.7456 -0.0375  1.4694
 6747TIP3   OH241799   4.409   1.314   1.816  0.0965  0.2405  0.1742
 6747TIP3    H141800   4.449   1.299   1.902  0.5279  0.9354  0.1059
 6747TIP3    H241801   4.317   1.294   1.829  0.1900  0.1615  0.7589
 6748TIP3   OH241802   0.773   2.638   0.484  0.5509 -0.3739  0.0643
 6748TIP3    H141803   0.856   2.624   0.438  0.1782 -1.9221 -0.1582
 6748TIP3    H241804   0.785   2.593   0.568  0.5359  0.8558  0.7626
 6749TIP3   OH241805   5.461   2.200   6.750 -0.3482  0.1535 -0.0294
 6749TIP3    H141806   5.492   2.158   6.669  2.9380 -0.3122  1.2919
 6749TIP3    H241807   5.384   2.249   6.723 -1.5180 -2.7384 -2.6937
 6750TIP3   OH241808   4.631   5.463   1.241  0.4369 -0.4601 -0.4354
 6750TIP3    H141809   4.588   5.544   1.212  1.0054 -0.0449 -0.1470
 6750TIP3    H241810   4.560   5.412   1.281 -0.1651 -0.6259 -1.6689
 6751TIP3   OH241811   4.830   3.219   0.778  0.0128  0.5750 -0.2519
 6751TIP3    H141812   4.902   3.201   0.838  0.1196  1.3677 -0.1438
 6751TIP3    H241813   4.784   3.293   0.816  0.9922  2.0949 -1.9123
 6752TIP3   OH241814   3.261   2.023   0.895 -0.8063 -0.0724 -0.1427
 6752TIP3    H141815   3.330   2.015   0.830 -0.5365 -0.4752  0.1901
 6752TIP3    H241816   3.214   2.103   0.870 -1.0921 -0.5488 -1.1878
 6753TIP3   OH241817   0.653   2.381   7.854 -0.0777  0.8484 -0.5074
 6753TIP3    H141818   0.681   2.392   7.763  0.4587 -1.0794 -0.6142
 6753TIP3    H241819   0.611   2.295   7.856 -0.7156  1.1545  0.9369
 6754TIP3   OH241820   0.469   3.819   0.113  0.0792 -0.0839  0.0571
 6754TIP3    H141821   0.529   3.846   0.044 -0.2934  1.0301  0.1532
 6754TIP3    H241822   0.414   3.752   0.072  2.3941 -2.3764  0.4276
 6755TIP3   OH241823   5.313   3.995   6.645 -0.5336 -0.8298 -0.1955
 6755TIP3    H141824   5.392   3.942   6.652  0.2406  0.1788 -0.9965
 6755TIP3    H241825   5.344   4.085   6.650 -1.8034 -0.4272  0.9673
 6756TIP3   OH241826   1.878   0.673   8.856 -0.8272  0.6691  0.1685
 6756TIP3    H141827   1.818   0.643   8.788  0.1751  0.7621 -0.7755
 6756TIP3    H241828   1.944   0.724   8.809 -0.1670  0.8123  1.2229
 6757TIP3   OH241829   1.514   6.630   1.754  0.1036  0.3001 -0.1477
 6757TIP3    H141830   1.421   6.652   1.755  0.0587  0.2178  1.7548
 6757TIP3    H241831   1.550   6.676   1.830  1.0611 -1.8020  0.7573
 6758TIP3   OH241832   6.057   4.141   2.435  0.0604  0.4446 -0.5579
 6758TIP3    H141833   6.132   4.117   2.380  0.3498  1.8739 -0.8220
 6758TIP3    H241834   6.016   4.214   2.389 -0.0154  1.3127  0.8239
 6759TIP3   OH241835   1.515   2.107   8.777  0.0313  0.0761  0.5069
 6759TIP3    H141836   1.587   2.061   8.734 -0.4069  0.5444 -0.7872
 6759TIP3    H241837   1.558   2.172   8.833  0.6250  0.6221 -0.5534
 6760TIP3   OH241838   2.212   1.222   7.652  0.6506  0.5281  0.0891
 6760TIP3    H141839   2.152   1.261   7.588 -2.1855 -0.8034  1.7642
 6760TIP3    H241840   2.225   1.132   7.620 -0.6539 -0.0941  1.2303
 6761TIP3   OH241841   1.907   4.569   8.521 -0.3000  0.6696 -0.2119
 6761TIP3    H141842   1.908   4.591   8.614 -0.7702 -0.6231  0.1273
 6761TIP3    H241843   1.933   4.649   8.476  1.0843  0.9945  1.1004
 6762TIP3   OH241844   6.305   0.923   1.971 -0.2411 -0.3143  0.0559
 6762TIP3    H141845   6.293   0.983   2.045 -0.8747  1.0641 -1.1170
 6762TIP3    H241846   6.218   0.917   1.931  0.0562 -1.1852 -0.4810
 6763TIP3   OH241847   2.629   1.598   7.036 -0.3558  0.0999  0.3161
 6763TIP3    H141848   2.712   1.580   7.080  0.7998 -0.4073 -1.9192
 6763TIP3    H241849   2.600   1.513   7.004 -0.6270  0.5788 -0.7372
 6764TIP3   OH241850   2.724   1.489   8.229  0.0084  0.1999  0.0675
 6764TIP3    H141851   2.754   1.573   8.194 -0.2927  0.4530  0.4200
 6764TIP3    H241852   2.784   1.425   8.190 -1.1102  0.3024 -1.9854
 6765TIP3   OH241853   6.189   2.593   1.177  0.2988  0.0699  0.5084
 6765TIP3    H141854   6.147   2.572   1.093  0.8198 -0.5612  0.3983
 6765TIP3    H241855   6.192   2.688   1.179 -2.0873  0.2115  0.9930
 6766TIP3   OH241856   2.577   1.775   7.537  0.9356  0.6973 -0.0920
 6766TIP3    H141857   2.540   1.844   7.483  1.9902  0.2567 -1.4447
 6766TIP3    H241858   2.563   1.695   7.486  2.3527  0.3231  0.0779
 6767TIP3   OH241859   0.644   3.035   1.066  0.5950  0.2851 -0.0677
 6767TIP3    H141860   0.591   3.086   1.005 -0.2747  0.2146  0.6048
 6767TIP3    H241861   0.613   3.061   1.152  1.3874 -0.0670  0.3339
 6768TIP3   OH241862   1.955   1.802   6.221  0.7903  0.0007 -0.0146
 6768TIP3    H141863   2.008   1.809   6.300 -0.8344  1.6519  0.9877
 6768TIP3    H241864   1.950   1.891   6.188  0.3116 -0.4639 -1.2449
 6769TIP3   OH241865   5.962   5.551   8.301 -0.3081  0.1093 -0.3188
 6769TIP3    H141866   5.966   5.502   8.219 -1.3633  0.3239 -0.5208
 6769TIP3    H241867   5.994   5.638   8.278 -0.9221  0.2682 -0.5910
 6770TIP3   OH241868   0.238   3.970   0.578  0.0300 -0.4435 -0.4264
 6770TIP3    H141869   0.175   3.898   0.573 -1.4789  0.7937 -0.0028
 6770TIP3    H241870   0.288   3.964   0.496 -1.1369 -1.0259 -1.1196
 6771TIP3   OH241871   6.171   3.648   6.450 -0.2815  0.2116  0.0252
 6771TIP3    H141872   6.200   3.559   6.471  1.9203  0.4645 -1.5434
 6771TIP3    H241873   6.118   3.674   6.526 -0.7311 -2.2754  0.6808
 6772TIP3   OH241874   4.903   2.233   0.895 -0.1830 -0.5773 -0.5799
 6772TIP3    H141875   4.928   2.289   0.969 -1.8462  0.0050 -0.4181
 6772TIP3    H241876   4.888   2.147   0.934  0.5834 -0.6903 -0.5246
 6773TIP3   OH241877   4.568   4.005   1.811  0.2758  0.9965 -0.0968
 6773TIP3    H141878   4.490   3.973   1.856 -0.1716  2.2124  0.0128
 6773TIP3    H241879   4.534   4.048   1.733  0.9927 -0.3743 -1.2127
 6774TIP3   OH241880   0.615   2.375   1.820  0.2496 -0.6952  0.1219
 6774TIP3    H141881   0.681   2.391   1.888  1.8235 -0.9249 -1.3039
 6774TIP3    H241882   0.638   2.435   1.749 -0.3161 -1.6498 -0.9004
 6775TIP3   OH241883   1.264   1.504   0.539  0.2135  0.0834  0.0853
 6775TIP3    H141884   1.286   1.483   0.448  1.0685  0.6496  0.1539
 6775TIP3    H241885   1.246   1.598   0.539 -1.3113 -0.1926  0.2193
 6776TIP3   OH241886   5.495   4.439   8.451 -0.2845  0.2929  0.0304
 6776TIP3    H141887   5.430   4.507   8.472  0.1084  0.7847 -0.3330
 6776TIP3    H241888   5.569   4.487   8.413 -0.9630 -0.5302 -2.5371
 6777TIP3   OH241889   2.298   1.875   1.076 -0.4182 -0.6805 -0.8153
 6777TIP3    H141890   2.244   1.851   1.152  0.0120 -2.5153 -1.0400
 6777TIP3    H241891   2.366   1.931   1.112 -1.2269 -0.0830 -0.1585
 6778TIP3   OH241892   5.880   0.068   6.692 -0.0663 -0.7987  0.4314
 6778TIP3    H141893   5.829   0.145   6.715 -0.3424 -0.4580 -1.1632
 6778TIP3    H241894   5.816  -0.001   6.679  0.0998 -1.0427  0.8852
 6779TIP3   OH241895   5.180   4.009   2.623  0.1258  0.0144 -0.1398
 6779TIP3    H141896   5.268   3.975   2.638  0.9830  1.4966 -1.4801
 6779TIP3    H241897   5.132   3.936   2.584  0.7205 -0.8239  0.6423
 6780TIP3   OH241898   1.350   2.706   1.092  0.2209  0.1306  0.0917
 6780TIP3    H141899   1.295   2.646   1.144  1.1316  0.7658  1.8812
 6780TIP3    H241900   1.320   2.793   1.117  1.2124  0.4626  0.1582
 6781TIP3   OH241901   3.284   1.148   1.646  0.1184 -0.3023  0.5960
 6781TIP3    H141902   3.240   1.204   1.583  0.8184  0.0866  0.4406
 6781TIP3    H241903   3.256   1.181   1.731  2.0277  1.6141  0.5713
 6782TIP3   OH241904   1.105   4.815   0.549  0.2091 -0.3468 -0.1046
 6782TIP3    H141905   1.142   4.794   0.635 -3.5978  0.0979  1.8079
 6782TIP3    H241906   1.119   4.735   0.498  2.4667 -0.6644  0.8510
 6783TIP3   OH241907   6.424   3.208   2.478  0.5113 -0.2086 -0.5389
 6783TIP3    H141908   6.351   3.191   2.418 -0.6007  0.9319  0.4447
 6783TIP3    H241909   6.396   3.170   2.561 -0.5912  3.1340  0.8057
 6784TIP3   OH241910   5.576   5.317   8.243 -0.9318  0.1141 -0.5778
 6784TIP3    H141911   5.602   5.404   8.212 -0.4070 -0.3465 -1.4663
 6784TIP3    H241912   5.526   5.281   8.170 -0.8144 -0.4836 -0.3621
 6785TIP3   OH241913   4.689   2.147   6.366 -0.2189 -0.2333 -0.8670
 6785TIP3    H141914   4.766   2.153   6.422 -0.4024  0.4156 -0.6699
 6785TIP3    H241915   4.722   2.167   6.278 -0.4510  2.0128 -0.5206
 6786TIP3   OH241916   4.944   2.226   1.493 -0.1044  0.2175 -0.3777
 6786TIP3    H141917   5.020   2.277   1.467  1.0014 -1.3492 -0.3694
 6786TIP3    H241918   4.978   2.161   1.554 -1.2471 -1.1840 -1.1604
 6787TIP3   OH241919   0.032   5.060   8.439 -0.0091 -0.6114 -0.6466
 6787TIP3    H141920   0.111   5.090   8.393 -1.7592  2.3607 -1.9872
 6787TIP3    H241921   0.044   5.090   8.529  0.1219  0.4593 -1.0074
 6788TIP3   OH241922   1.370   6.260   8.738  0.3220 -0.0007  0.4170
 6788TIP3    H141923   1.402   6.176   8.706  0.2319 -0.5156  1.6061
 6788TIP3    H241924   1.331   6.240   8.823 -0.3101  1.1391  0.4202
 6789TIP3   OH241925   3.923   6.216   8.624 -0.1678  0.2024 -0.3769
 6789TIP3    H141926   3.891   6.241   8.710 -0.6066 -0.7241 -0.2584
 6789TIP3    H241927   3.843   6.195   8.574  0.1398 -0.2570 -0.6839
 6790TIP3   OH241928   2.825   3.887   0.431 -0.1246 -0.0595  0.5176
 6790TIP3    H141929   2.777   3.938   0.496  1.2248  0.2570  1.2885
 6790TIP3    H241930   2.884   3.949   0.389 -1.9622  0.0916 -2.1136
 6791TIP3   OH241931   1.866   2.978   1.177 -0.1052  0.5319  0.0415
 6791TIP3    H141932   1.885   2.923   1.253 -0.6229  0.7760  0.3513
 6791TIP3    H241933   1.823   2.920   1.114  0.8753  0.1809 -0.3217
 6792TIP3   OH241934   4.994   1.405   7.396 -0.4792  0.8616 -0.0752
 6792TIP3    H141935   5.074   1.375   7.352 -0.6859 -0.2966  0.2883
 6792TIP3    H241936   5.024   1.429   7.484 -0.6237 -0.2561  0.2956
 6793TIP3   OH241937   4.994   3.217   8.878  0.2679 -0.3976  0.0877
 6793TIP3    H141938   5.043   3.145   8.917  1.4321  0.3318  0.0208
 6793TIP3    H241939   5.061   3.275   8.841 -0.6948  0.1468 -0.8574
 6794TIP3   OH241940   3.817   5.450   0.133  0.2658  0.0160 -0.3683
 6794TIP3    H141941   3.831   5.539   0.101 -1.9947  0.8922  0.8723
 6794TIP3    H241942   3.879   5.441   0.206  1.3989  0.0705 -1.2929
 6795TIP3   OH241943   5.170   2.964   7.444  0.4511 -0.0344  0.5197
 6795TIP3    H141944   5.091   3.017   7.450  0.2716 -0.3679  1.2570
 6795TIP3    H241945   5.159   2.914   7.363 -0.1202 -0.1139  0.6406
 6796TIP3   OH241946   5.834   0.018   1.748 -0.6286  0.2404 -0.2326
 6796TIP3    H141947   5.821   0.102   1.792  0.1803 -0.0155  0.5295
 6796TIP3    H241948   5.929   0.012   1.736 -0.8353  0.6340 -2.7227
 6797TIP3   OH241949   2.938   2.398   6.568 -0.3058  0.3035 -0.2855
 6797TIP3    H141950   2.951   2.315   6.523 -1.2490  1.0126 -1.9857
 6797TIP3    H241951   2.858   2.386   6.619 -0.4507  0.1521 -0.5441
 6798TIP3   OH241952   5.508   2.161   8.730  0.1416 -0.0963  0.0329
 6798TIP3    H141953   5.593   2.205   8.735  0.5450 -0.8695  0.1335
 6798TIP3    H241954   5.529   2.071   8.707 -0.8217  0.2844 -2.6512
 6799TIP3   OH241955   5.398   6.622   8.480  0.0038  1.0192 -0.7205
 6799TIP3    H141956   5.374   6.637   8.571  0.1749  0.4417 -0.5737
 6799TIP3    H241957   5.488   6.589   8.485 -0.3190  0.0676 -1.0248
 6800TIP3   OH241958   6.448   3.492   0.307  0.7420  0.2360  0.2556
 6800TIP3    H141959   6.405   3.574   0.330  1.8324  0.3893  1.9370
 6800TIP3    H241960   6.538   3.517   0.284  0.4783 -0.2616 -1.5053
 6801TIP3   OH241961   5.163   1.766   7.084 -0.2811  0.1929 -0.2217
 6801TIP3    H141962   5.127   1.826   7.019 -0.1993  0.8373  0.3099
 6801TIP3    H241963   5.094   1.756   7.149  0.1471  0.6962  0.3243
 6802TIP3   OH241964   2.918   4.474   8.812 -0.0847 -0.0620 -0.1052
 6802TIP3    H141965   2.886   4.413   8.878 -1.2178  0.1987 -0.3928
 6802TIP3    H241966   2.863   4.457   8.735  0.0488  0.8364 -0.4117
 6803TIP3   OH241967   0.434   6.102   0.614 -0.2731 -0.0559 -0.3387
 6803TIP3    H141968   0.358   6.064   0.658  0.1791 -0.8903 -0.2574
 6803TIP3    H241969   0.406   6.189   0.588 -1.7101 -0.8511 -1.5419
 6804TIP3   OH241970   1.584   5.632   0.098  0.0324  0.4123  0.8757
 6804TIP3    H141971   1.595   5.617   0.192  0.4072  0.4092  0.8346
 6804TIP3    H241972   1.629   5.715   0.082  0.1130  0.3302  0.6694
 6805TIP3   OH241973   5.800   1.275   7.241 -0.3942  0.1713 -0.0607
 6805TIP3    H141974   5.859   1.251   7.313  0.0566 -0.2565 -0.5620
 6805TIP3    H241975   5.762   1.359   7.268  0.0164  0.1743  0.5280
 6806TIP3   OH241976   0.084   0.242   1.515  0.5177 -0.1757 -0.1685
 6806TIP3    H141977   0.021   0.228   1.585  0.3127  0.6961 -0.1713
 6806TIP3    H241978   0.064   0.330   1.481  2.7308  0.8153  0.9023
 6807TIP3   OH241979   6.033   3.707   0.403  0.0005 -0.1538  0.5936
 6807TIP3    H141980   6.032   3.613   0.421  2.1950 -0.4617 -0.5246
 6807TIP3    H241981   5.947   3.738   0.431 -0.3425 -2.2637  2.1004
 6808TIP3   OH241982   4.013   6.157   8.241 -0.5474 -0.0419  0.0220
 6808TIP3    H141983   3.934   6.201   8.272 -0.3024  0.0091  0.5859
 6808TIP3    H241984   3.998   6.144   8.147 -1.7145 -1.0553  0.3200
 6809TIP3   OH241985   1.792   5.444   8.849 -0.6137  0.0961  0.3534
 6809TIP3    H141986   1.796   5.416   8.940 -2.6302 -0.2337  0.3788
 6809TIP3    H241987   1.738   5.378   8.806 -0.9512  1.0620 -0.7567
 6810TIP3   OH241988   2.510   4.955   7.914 -0.0324 -0.3127  0.0586
 6810TIP3    H141989   2.517   4.860   7.904  1.3535 -0.5324  2.4866
 6810TIP3    H241990   2.597   4.988   7.890  0.2580  0.0676  1.5728
 6811TIP3   OH241991   3.504   6.239   8.286 -0.4587 -0.1541  0.2047
 6811TIP3    H141992   3.510   6.288   8.368 -0.1058 -1.8281  1.2377
 6811TIP3    H241993   3.423   6.189   8.294  0.7800 -2.2353  0.7203
 6812TIP3   OH241994   1.574   2.359   8.091  0.5888 -0.0133  0.4518
 6812TIP3    H141995   1.666   2.333   8.084  1.0868  1.3014  1.6776
 6812TIP3    H241996   1.525   2.277   8.083  1.8126 -0.6728 -0.7541
 6813TIP3   OH241997   5.397   6.206   8.001 -0.1040 -0.3657 -0.1384
 6813TIP3    H141998   5.310   6.246   8.005 -0.6515 -1.5804  1.0578
 6813TIP3    H241999   5.438   6.246   7.924 -1.6236  0.4114 -0.6000
 6814TIP3   OH242000   5.448   1.340   2.639 -0.0159 -0.1931  0.0694
 6814TIP3    H142001   5.495   1.311   2.716  0.1710 -0.8262 -0.2813
 6814TIP3    H242002   5.497   1.416   2.607  0.5890 -0.6628 -0.1168
 6815TIP3   OH242003   3.751   5.155   0.813 -0.0414 -0.0268  0.0444
 6815TIP3    H142004   3.770   5.134   0.904  1.4537  1.0087  0.0141
 6815TIP3    H242005   3.718   5.073   0.776  0.5554 -0.8159  1.1919
 6816TIP3   OH242006   3.158   2.514   0.795 -0.0150 -0.1555 -0.5110
 6816TIP3    H142007   3.151   2.604   0.829  0.2744 -0.9294  1.8284
 6816TIP3    H242008   3.106   2.514   0.715  1.0912  2.4332 -1.3510
 6817TIP3   OH242009   4.325   1.960   8.310 -0.3691  0.7259 -0.8180
 6817TIP3    H142010   4.351   1.972   8.218  0.1624  1.2071 -0.6084
 6817TIP3    H242011   4.369   2.031   8.357  3.3835 -2.2123  0.5853
 6818TIP3   OH242012   0.367   5.003   0.106  0.1003  0.1321 -0.0483
 6818TIP3    H142013   0.307   5.019   0.032 -1.4983  1.0428  1.3585
 6818TIP3    H242014   0.309   4.998   0.182  1.8026  0.6242  1.3347
 6819TIP3   OH242015   5.774   1.326   8.656  0.3428  0.2646 -0.2899
 6819TIP3    H142016   5.747   1.293   8.741  2.3767 -1.6053 -0.2667
 6819TIP3    H242017   5.785   1.420   8.668 -0.9658  0.2684  1.0404
 6820TIP3   OH242018   0.094   1.144   0.846  0.2791 -0.3881 -0.1897
 6820TIP3    H142019   0.168   1.091   0.874  0.6333 -0.4296 -1.1658
 6820TIP3    H242020   0.044   1.159   0.926  0.3624 -1.8919  0.1826
 6821TIP3   OH242021   1.576   2.967   8.450  0.0362  0.2892  0.0952
 6821TIP3    H142022   1.540   2.997   8.534  0.2118  1.6880 -0.3059
 6821TIP3    H242023   1.623   3.043   8.415  1.0395 -0.6623 -0.6884
 6822TIP3   OH242024   6.209   2.686   7.220  0.3947 -0.0659 -0.1201
 6822TIP3    H142025   6.257   2.745   7.161  0.9497 -0.3067  0.0845
 6822TIP3    H242026   6.268   2.612   7.234  0.0411 -0.2760  0.2955
 6823TIP3   OH242027   0.691   6.273   1.165  0.2782  0.5577  0.3913
 6823TIP3    H142028   0.655   6.341   1.108 -1.9208 -1.1868 -0.4244
 6823TIP3    H242029   0.747   6.321   1.226  0.2945  2.8564 -1.2994
 6824TIP3   OH242030   6.725   5.225   7.883 -0.0686  0.5549  0.0075
 6824TIP3    H142031   6.636   5.261   7.889 -1.2111 -1.9028 -0.9466
 6824TIP3    H242032   6.725   5.176   7.801  1.8576 -0.3454  0.5110
 6825TIP3   OH242033   5.217   6.713   0.879 -0.5162  0.0153  0.1100
 6825TIP3    H142034   5.287   6.778   0.883 -0.0010 -0.5424  0.1548
 6825TIP3    H242035   5.239   6.649   0.946  0.5168 -1.7307 -1.7964
 6826TIP3   OH242036   4.420   4.658   7.617  0.4862  0.1989 -0.0932
 6826TIP3    H142037   4.408   4.588   7.681  1.3619  2.2545  2.5231
 6826TIP3    H242038   4.509   4.646   7.584  0.7818  0.3102  0.6588
 6827TIP3   OH242039   4.495   3.759   6.475  0.2658 -0.0817  0.1295
 6827TIP3    H142040   4.409   3.717   6.481  0.5598 -0.5236  1.7947
 6827TIP3    H242041   4.483   3.844   6.518  1.2210 -1.1852  2.7729
 6828TIP3   OH242042   0.425   6.515   8.230  0.2238  0.9095  0.3965
 6828TIP3    H142043   0.368   6.516   8.153 -0.1185 -3.3597  0.3520
 6828TIP3    H242044   0.380   6.570   8.294 -2.2368  0.3978 -0.7753
 6829TIP3   OH242045   3.273   2.718   0.975 -0.1785 -0.2856 -0.5009
 6829TIP3    H142046   3.269   2.771   1.054 -0.8665 -0.6109 -0.3148
 6829TIP3    H242047   3.307   2.634   1.004 -1.0593 -0.6251 -0.4235
 6830TIP3   OH242048   4.985   0.624   1.830 -0.1264  0.2190  0.0673
 6830TIP3    H142049   5.076   0.606   1.853 -0.0258 -0.9458 -1.1542
 6830TIP3    H242050   4.934   0.567   1.888 -0.1673  1.5095  1.3773
 6831TIP3   OH242051   0.927   0.616   1.913 -0.0244  0.1808 -0.1878
 6831TIP3    H142052   0.933   0.708   1.935  1.2250 -0.2613  1.5273
 6831TIP3    H242053   1.010   0.595   1.871 -0.6935  0.0284 -1.4975
 6832TIP3   OH242054   5.404   0.422   2.640 -0.8817 -0.0371 -0.7034
 6832TIP3    H142055   5.461   0.497   2.620 -2.1512  1.0251 -0.5286
 6832TIP3    H242056   5.346   0.414   2.564 -0.3064 -1.3181 -1.0293
 6833TIP3   OH242057   4.590   1.121   7.433  0.2045 -0.5405 -0.4700
 6833TIP3    H142058   4.629   1.057   7.492  1.0067 -0.4550 -0.8934
 6833TIP3    H242059   4.628   1.205   7.460 -0.9192 -0.2058  0.1501
 6834TIP3   OH242060   4.467   3.434   1.840 -0.8389 -0.8107 -0.6224
 6834TIP3    H142061   4.537   3.497   1.859 -0.4154 -0.9415 -1.6903
 6834TIP3    H242062   4.456   3.438   1.745 -2.5677 -0.5179 -0.4292
 6835TIP3   OH242063   5.923   4.881   0.879  0.2096 -0.0384  0.0260
 6835TIP3    H142064   5.932   4.925   0.964 -3.4441  0.9848  0.0631
 6835TIP3    H242065   5.913   4.952   0.816  0.3976 -0.8171 -0.9065
 6836TIP3   OH242066   6.483   5.737   7.751 -0.0394 -0.6449  0.3496
 6836TIP3    H142067   6.399   5.773   7.724 -0.4198 -1.7776 -0.0372
 6836TIP3    H242068   6.538   5.813   7.768 -1.0967  0.1057  0.4608
 6837TIP3   OH242069   1.072   6.359   8.451 -0.2542 -0.1156  0.2701
 6837TIP3    H142070   0.978   6.373   8.440 -0.0501  1.7302  0.6818
 6837TIP3    H242071   1.106   6.358   8.361 -0.7853 -2.1245  0.0299
 6838TIP3   OH242072   1.932   4.773   0.562 -0.7659 -0.6112 -0.1420
 6838TIP3    H142073   1.998   4.731   0.618  0.1652  1.3039  0.2750
 6838TIP3    H242074   1.911   4.855   0.607 -1.7580 -0.1372 -1.4236
 6839TIP3   OH242075   6.258   1.843   1.989 -0.0938  0.0983 -0.6317
 6839TIP3    H142076   6.273   1.927   2.031  0.9130 -0.3961  0.0347
 6839TIP3    H242077   6.194   1.799   2.045  1.2185 -0.5443  0.3954
 6840TIP3   OH242078   1.101   0.888   7.166 -0.1564  0.0858 -0.0421
 6840TIP3    H142079   1.148   0.846   7.093 -2.5848  0.1929 -1.7873
 6840TIP3    H242080   1.008   0.873   7.146 -0.9288  0.4884  2.8705
 6841TIP3   OH242081   4.891   0.960   8.876 -0.5686  0.1887 -0.0856
 6841TIP3    H142082   4.940   0.878   8.881  2.5291  1.9239  0.4804
 6841TIP3    H242083   4.799   0.934   8.886  0.3880 -3.0482  1.6685
 6842TIP3   OH242084   4.989   6.564   1.458 -0.0712 -0.7641 -0.4012
 6842TIP3    H142085   4.992   6.648   1.502  2.4763 -0.7324 -0.5034
 6842TIP3    H242086   4.977   6.586   1.366  3.0481 -0.2597 -0.7883
 6843TIP3   OH242087   4.374   4.610   0.757 -0.3536 -0.1498 -0.2629
 6843TIP3    H142088   4.351   4.702   0.744 -0.4678 -0.0461  0.5949
 6843TIP3    H242089   4.337   4.588   0.843 -0.3239 -0.9970 -0.4560
 6844TIP3   OH242090   6.072   0.099   1.884  0.4971  0.1971  0.4870
 6844TIP3    H142091   6.131   0.125   1.813 -0.7491  1.3611 -0.1739
 6844TIP3    H242092   6.097   0.009   1.905  1.6572  0.2325 -0.6261
 6845TIP3   OH242093   5.953   2.883   0.670 -0.0632  0.4620 -0.1915
 6845TIP3    H142094   6.013   2.871   0.595  0.1192 -0.2980  0.0614
 6845TIP3    H242095   5.866   2.878   0.631  0.0313  0.2566 -0.3821
 6846TIP3   OH242096   6.469   1.593   0.955 -0.1992  0.2477  0.2797
 6846TIP3    H142097   6.493   1.684   0.939 -0.3158  0.5307  1.6279
 6846TIP3    H242098   6.378   1.597   0.984 -0.7585 -0.4726 -1.2840
 6847TIP3   OH242099   4.304   1.101   8.866 -0.0014 -0.4177  0.6125
 6847TIP3    H142100   4.284   1.062   8.781 -0.0181  1.3216 -0.2364
 6847TIP3    H242101   4.366   1.171   8.846 -0.9297  0.8154  1.8609
 6848TIP3   OH242102   5.955   5.900   1.254 -0.6032  0.1394  0.1082
 6848TIP3    H142103   6.031   5.934   1.207 -0.0972  0.0028  0.8180
 6848TIP3    H242104   5.892   5.879   1.185  1.2436 -2.9792 -0.8620
 6849TIP3   OH242105   3.759   4.185   1.553  0.4298  0.0403 -0.3016
 6849TIP3    H142106   3.730   4.211   1.465  1.4348  1.8477 -0.1566
 6849TIP3    H242107   3.679   4.184   1.605 -0.2344 -1.4427 -1.3018
 6850TIP3   OH242108   6.206   5.408   7.966  0.1946  0.1713  0.4126
 6850TIP3    H142109   6.270   5.403   8.037  2.1340  0.1559 -1.2432
 6850TIP3    H242110   6.228   5.335   7.909  1.0768  2.2144 -2.0458
 6851TIP3   OH242111   3.371   4.695   7.275  0.5276 -0.0496  0.4974
 6851TIP3    H142112   3.357   4.752   7.199 -0.0540 -0.2728  0.4291
 6851TIP3    H242113   3.388   4.609   7.238 -0.1373 -0.2379  0.6231
 6852TIP3   OH242114   2.323   6.440   2.047  0.7927 -0.4171  0.0492
 6852TIP3    H142115   2.247   6.496   2.031 -0.2234 -1.4514  1.0613
 6852TIP3    H242116   2.369   6.481   2.120  0.1871 -0.7566  0.6284
 6853TIP3   OH242117   2.497   0.183   1.705  0.3575  0.1028  0.1621
 6853TIP3    H142118   2.535   0.267   1.681  2.5975 -0.5620  1.0816
 6853TIP3    H242119   2.440   0.161   1.631 -0.9609  2.7543  0.2709
 6854TIP3   OH242120   0.360   4.150   1.297 -0.3140 -0.3086  0.0544
 6854TIP3    H142121   0.395   4.213   1.360 -1.8133 -0.8893  1.5677
 6854TIP3    H242122   0.412   4.163   1.218  2.3319 -0.2089  1.6883
 6855TIP3   OH242123   1.595   0.767   2.091 -0.8685  0.5220  0.6177
 6855TIP3    H142124   1.678   0.782   2.047 -0.3390 -2.1751  0.5253
 6855TIP3    H242125   1.556   0.854   2.099  1.8575  1.8623  0.5222
 6856TIP3   OH242126   5.939   1.350   0.532  0.2046 -0.0409  0.5779
 6856TIP3    H142127   6.017   1.369   0.479 -1.3215  0.5694 -1.5850
 6856TIP3    H242128   5.938   1.419   0.599  0.7177  0.8570 -0.3135
 6857TIP3   OH242129   6.667   1.643   1.645 -0.0827 -0.2561 -0.2695
 6857TIP3    H142130   6.672   1.720   1.701  0.6061 -0.8390  0.4927
 6857TIP3    H242131   6.702   1.672   1.560  0.7138  0.1201  0.1811
 6858TIP3   OH242132   4.295   4.437   1.684 -0.3673  0.2280 -0.1166
 6858TIP3    H142133   4.349   4.446   1.763  0.7717  2.9906 -1.1023
 6858TIP3    H242134   4.213   4.481   1.706 -0.0109  1.0874 -0.5036
 6859TIP3   OH242135   1.599   1.988   7.617  0.2772  0.0273  0.3951
 6859TIP3    H142136   1.543   2.066   7.619  1.4001  0.8670 -0.0974
 6859TIP3    H242137   1.610   1.970   7.523  1.3571  0.2761  0.4649
 6860TIP3   OH242138   6.685   5.848   2.117 -0.0328  0.5774 -0.1879
 6860TIP3    H142139   6.757   5.805   2.163  0.2449  0.3540 -0.8318
 6860TIP3    H242140   6.609   5.832   2.173 -0.1151 -1.5012 -0.8195
 6861TIP3   OH242141   2.702   2.331   8.235 -0.5150  0.0461  0.2338
 6861TIP3    H142142   2.723   2.315   8.142 -0.7794  1.0891 -0.0138
 6861TIP3    H242143   2.762   2.274   8.282  0.8341  0.7667 -0.5463
 6862TIP3   OH242144   5.863   3.769   2.505  0.1660  0.2173 -0.7862
 6862TIP3    H142145   5.842   3.861   2.519 -1.8951 -0.3680  0.3493
 6862TIP3    H242146   5.864   3.731   2.593 -0.0351 -1.0375 -1.3034
 6863TIP3   OH242147   4.519   4.433   1.853 -0.1410  0.1363  0.0621
 6863TIP3    H142148   4.607   4.441   1.816  0.5476  1.0670  1.7955
 6863TIP3    H242149   4.523   4.357   1.911 -1.0462 -0.9514 -1.2301
 6864TIP3   OH242150   4.862   4.135   0.682  0.7344  0.1866  0.1055
 6864TIP3    H142151   4.773   4.125   0.651  0.4774  1.0538  0.5276
 6864TIP3    H242152   4.855   4.196   0.755  1.5066 -0.6955  0.9526
 6865TIP3   OH242153   2.608   0.085   8.624 -0.5702  0.4496  0.2553
 6865TIP3    H142154   2.529   0.113   8.578 -0.3511  0.5494 -0.0733
 6865TIP3    H242155   2.591   0.102   8.716 -0.7271  0.9764  0.1324
 6866TIP3   OH242156   1.377   4.125   1.753 -0.1082  0.1232 -0.0182
 6866TIP3    H142157   1.355   4.218   1.750 -2.0236 -0.1450  2.4667
 6866TIP3    H242158   1.462   4.122   1.798  0.5129  0.7062 -1.1277
 6867TIP3   OH242159   3.907   0.542   8.225  0.2674  0.2485  0.0362
 6867TIP3    H142160   3.884   0.611   8.287 -1.4526  0.3683 -0.6663
 6867TIP3    H242161   3.855   0.466   8.252 -0.6520  0.3613 -1.3286
 6868TIP3   OH242162   5.106   3.837   6.703  0.0120  0.6852 -0.2509
 6868TIP3    H142163   5.176   3.880   6.654 -0.3531  1.5402 -0.0550
 6868TIP3    H242164   5.031   3.836   6.642 -0.1524  0.8592 -0.0536
 6869TIP3   OH242165   3.314   1.793   7.357 -0.4207  0.2469 -0.2129
 6869TIP3    H142166   3.267   1.842   7.424 -0.1484 -0.2226  0.3266
 6869TIP3    H242167   3.380   1.854   7.324 -0.5008  0.4529  0.0064
 6870TIP3   OH242168   6.021   1.877   0.505 -0.1190 -0.3208  0.0303
 6870TIP3    H142169   6.052   1.904   0.591  0.9477  0.0838 -0.4556
 6870TIP3    H242170   6.003   1.959   0.459  1.3659 -0.4320 -0.8279
 6871TIP3   OH242171   3.848   3.699   2.187  0.0054  0.3119  0.1385
 6871TIP3    H142172   3.844   3.663   2.276 -0.1737 -2.5064 -0.9053
 6871TIP3    H242173   3.768   3.751   2.178 -1.6713 -1.9892  0.6684
 6872TIP3   OH242174   3.005   1.062   7.897 -1.1181 -0.3514 -0.4164
 6872TIP3    H142175   2.972   0.980   7.860 -1.4487  0.5192 -2.1527
 6872TIP3    H242176   2.966   1.130   7.843 -0.8943  0.9834  1.0140
 6873TIP3   OH242177   3.232   5.608   0.946 -0.8055  0.0191 -0.0028
 6873TIP3    H142178   3.316   5.609   0.991 -0.6096  1.2944 -0.3528
 6873TIP3    H242179   3.196   5.696   0.959 -0.7846  0.4128 -2.2051
 6874TIP3   OH242180   1.954   3.020   0.120 -0.4272 -0.3698  0.0261
 6874TIP3    H142181   2.030   3.072   0.148 -0.3989  0.1208 -0.9456
 6874TIP3    H242182   1.882   3.082   0.117 -0.6056 -0.5869 -0.2236
 6875TIP3   OH242183   0.568   4.872   7.608 -0.6407 -0.0827  0.0053
 6875TIP3    H142184   0.588   4.884   7.515 -0.2449  0.9361  0.2042
 6875TIP3    H242185   0.641   4.822   7.642 -0.6453 -0.2146 -0.1774
 6876TIP3   OH242186   0.464   4.748   8.616  0.9600  0.1490  0.0445
 6876TIP3    H142187   0.502   4.689   8.552 -0.6392 -1.3476  0.3990
 6876TIP3    H242188   0.387   4.785   8.572 -0.0363 -0.7362  0.9831
 6877TIP3   OH242189   3.894   0.624   1.248  0.1119  0.1373 -0.3303
 6877TIP3    H142190   3.935   0.630   1.335  0.7945 -3.5466 -0.2575
 6877TIP3    H242191   3.817   0.570   1.261 -0.2278  0.1858 -1.9067
 6878TIP3   OH242192   3.982   6.711   1.638  0.2906  0.4898 -0.2450
 6878TIP3    H142193   3.916   6.742   1.700  0.5556  2.7597 -0.9750
 6878TIP3    H242194   4.065   6.722   1.684  0.2768 -1.0021  0.1621
 6879TIP3   OH242195   0.861   4.391   8.005 -0.0181 -0.4662 -0.7031
 6879TIP3    H142196   0.789   4.328   8.013 -0.3235 -0.3014 -1.8983
 6879TIP3    H242197   0.817   4.476   8.002  0.4659  0.0684  2.8018
 6880TIP3   OH242198   3.857   0.127   1.200  0.4840 -0.3882  0.0159
 6880TIP3    H142199   3.763   0.114   1.184  0.7046 -3.1666  0.3815
 6880TIP3    H242200   3.867   0.221   1.209 -2.6901 -0.0967  2.4085
 6881TIP3   OH242201   3.764   0.484   0.073 -0.0098  0.4215 -0.5162
 6881TIP3    H142202   3.747   0.546   0.144 -0.6644 -2.3680  1.9412
 6881TIP3    H242203   3.678   0.454   0.045  0.3271 -0.3142 -0.7963
 6882TIP3   OH242204   1.758   1.259   2.577  1.1403 -0.0364 -0.3156
 6882TIP3    H142205   1.766   1.272   2.671 -0.2960 -1.8139  0.1060
 6882TIP3    H242206   1.676   1.302   2.553  0.7800 -0.7931 -0.4749
 6883TIP3   OH242207   3.236   1.266   2.293  0.7317 -0.1530  0.3231
 6883TIP3    H142208   3.273   1.178   2.284  0.5599 -0.2186  0.2591
 6883TIP3    H242209   3.310   1.320   2.323  1.3267  0.0857 -1.4546
 6884TIP3   OH242210   1.334   3.900   1.432  0.4471 -0.6711  0.3399
 6884TIP3    H142211   1.253   3.884   1.481  0.3680  0.3069  0.5489
 6884TIP3    H242212   1.403   3.899   1.499  0.5080 -0.6961  0.2772
 6885TIP3   OH242213   1.151   4.567   1.097 -0.2660 -0.0998  0.8409
 6885TIP3    H142214   1.071   4.588   1.145 -1.1290 -0.8147 -0.2170
 6885TIP3    H242215   1.123   4.502   1.032  1.0535  0.0946  0.0427
 6886TIP3   OH242216   3.545   6.444   6.697  0.6586  0.0209 -0.4476
 6886TIP3    H142217   3.585   6.498   6.765 -1.4808 -0.2701  1.1591
 6886TIP3    H242218   3.451   6.455   6.709  0.1588 -2.4910 -1.3227
 6887TIP3   OH242219   2.144   1.249   1.267  0.0659  0.1204  0.5191
 6887TIP3    H142220   2.214   1.279   1.208  0.5094  0.7472  1.3363
 6887TIP3    H242221   2.104   1.330   1.299 -0.7524 -0.2289  0.4034
 6888TIP3   OH242222   3.413   6.778   0.995 -0.0892 -0.4964  0.3342
 6888TIP3    H142223   3.420   6.683   0.983 -0.1601 -0.5472  0.6734
 6888TIP3    H242224   3.320   6.792   1.015 -0.8553  0.0221 -2.9031
 6889TIP3   OH242225   4.030   6.622   7.794 -0.2413 -0.2186  0.7130
 6889TIP3    H142226   4.113   6.670   7.795 -1.2094  1.8041 -2.5015
 6889TIP3    H242227   4.046   6.546   7.850  3.8577 -0.0945 -0.0030
 6890TIP3   OH242228   2.079   5.889   2.818  0.3126  0.0548  0.1362
 6890TIP3    H142229   2.139   5.961   2.798 -0.6168  1.4292  1.9329
 6890TIP3    H242230   2.097   5.823   2.751  2.3739  1.2510 -0.5975
 6891TIP3   OH242231   2.421   4.086   0.361  0.2128  0.1016  0.0513
 6891TIP3    H142232   2.431   4.048   0.274  0.1876  1.1701 -0.4333
 6891TIP3    H242233   2.339   4.136   0.356  0.7131  0.9753  0.3737
 6892TIP3   OH242234   1.010   2.555   7.049  0.4528 -0.9905  0.6381
 6892TIP3    H142235   1.064   2.616   6.999 -0.8086  0.7696  1.2887
 6892TIP3    H242236   0.934   2.540   6.994 -0.4495  0.1265  1.5079
 6893TIP3   OH242237   1.813   6.707   2.390 -0.0615 -0.2789  0.5610
 6893TIP3    H142238   1.893   6.743   2.352 -1.5228  3.3835  0.4997
 6893TIP3    H242239   1.821   6.726   2.484 -1.5442  2.0127  0.3237
 6894TIP3   OH242240   2.724   5.529   1.809 -0.0994 -0.1607 -0.5924
 6894TIP3    H142241   2.799   5.557   1.756  0.2605 -0.1479 -0.0841
 6894TIP3    H242242   2.655   5.509   1.745  0.6065 -0.9805 -1.1185
 6895TIP3   OH242243   3.538   2.999   0.326 -0.0868  0.4611 -0.7602
 6895TIP3    H142244   3.588   3.015   0.407 -0.3713  1.4536 -0.7608
 6895TIP3    H242245   3.604   2.972   0.262  0.3236  0.8271 -0.5025
 6896TIP3   OH242246   1.893   4.677   1.934 -0.6414 -0.2718 -0.4821
 6896TIP3    H142247   1.888   4.585   1.960 -2.7704 -0.6437 -1.9283
 6896TIP3    H242248   1.839   4.683   1.855  0.8452  1.8997 -1.4620
 6897TIP3   OH242249   3.603   6.769   7.227  0.1592  0.0158 -0.1945
 6897TIP3    H142250   3.534   6.719   7.182 -1.1608  1.6017 -0.0547
 6897TIP3    H242251   3.642   6.822   7.158 -0.4262  0.8863  0.1228
 6898TIP3   OH242252   2.621   4.030   7.096  0.3788 -0.0081  1.0168
 6898TIP3    H142253   2.589   3.988   7.016  1.0030  0.8278  0.3123
 6898TIP3    H242254   2.713   4.005   7.100  0.9491  1.7846  0.2144
 6899TIP3   OH242255   4.286   1.470   8.762 -0.1653  0.0876  0.5354
 6899TIP3    H142256   4.259   1.443   8.674  0.2786  0.6898  0.2099
 6899TIP3    H242257   4.267   1.564   8.766 -1.0194 -0.0974  1.4076
 6900TIP3   OH242258   0.320   4.341   0.176  0.4539 -0.1509  0.4547
 6900TIP3    H142259   0.325   4.297   0.260 -2.3778 -1.1512  0.1915
 6900TIP3    H242260   0.232   4.379   0.173  1.5570  2.6702 -0.7645
 6901TIP3   OH242261   1.323   5.071   1.781 -0.2881  0.2383 -0.3167
 6901TIP3    H142262   1.412   5.047   1.810 -1.5199 -2.2768  1.7772
 6901TIP3    H242263   1.293   5.134   1.846  0.1702  1.7180 -1.4779
 6902TIP3   OH242264   3.471   3.786   8.610 -0.2669  0.0243  0.0085
 6902TIP3    H142265   3.543   3.838   8.647 -0.1680  1.1005 -1.6411
 6902TIP3    H242266   3.392   3.830   8.639 -0.2123  0.3025 -0.2689
 6903TIP3   OH242267   0.912   5.444   0.457 -0.0356  0.3784  0.0704
 6903TIP3    H142268   0.947   5.382   0.522  1.3221 -0.7046 -1.6244
 6903TIP3    H242269   0.989   5.478   0.412 -0.9665  0.2988 -1.6711
 6904TIP3   OH242270   3.079   5.227   1.081 -0.1727  0.1770  0.0051
 6904TIP3    H142271   3.040   5.224   1.169  1.0221 -2.5855  0.5492
 6904TIP3    H242272   3.008   5.201   1.022 -0.2559 -0.8303  0.5236
 6905TIP3   OH242273   6.003   5.789   1.505  0.2996 -0.0765 -0.0942
 6905TIP3    H142274   6.003   5.799   1.410 -0.7071 -2.8181 -0.4696
 6905TIP3    H242275   5.966   5.872   1.538 -1.0876  0.2094 -2.1980
 6906TIP3   OH242276   1.550   0.918   0.107  0.2762  0.2479 -0.4377
 6906TIP3    H142277   1.489   0.930   0.035 -1.6705  0.8225  1.2032
 6906TIP3    H242278   1.587   1.005   0.122  1.1709 -0.0062 -1.1432
 6907TIP3   OH242279   1.619   0.020   7.926 -0.0133 -0.3074 -0.0014
 6907TIP3    H142280   1.684   0.047   7.861 -1.4554  1.6817 -0.7142
 6907TIP3    H242281   1.591   0.102   7.967 -2.5923 -0.9920 -0.2431
 6908TIP3   OH242282   2.286   1.356   8.794 -0.2803  0.0311 -0.1179
 6908TIP3    H142283   2.376   1.346   8.765 -0.1235  0.5729  0.1796
 6908TIP3    H242284   2.274   1.450   8.805 -0.2514 -0.1462  1.8217
 6909TIP3   OH242285   1.377   0.452   2.389  0.2741 -0.1562 -0.0298
 6909TIP3    H142286   1.380   0.529   2.333  0.1081 -0.5397 -0.5711
 6909TIP3    H242287   1.341   0.383   2.334 -1.6337 -0.1020  1.0657
 6910TIP3   OH242288   3.256   5.101   0.908 -0.3307 -0.2167  0.4704
 6910TIP3    H142289   3.204   5.155   0.849  1.1392 -1.0387 -1.6764
 6910TIP3    H242290   3.195   5.074   0.976 -2.0874  0.7773 -0.6468
 6911TIP3   OH242291   5.873   5.178   7.231 -0.3713 -0.1375 -0.4943
 6911TIP3    H142292   5.853   5.093   7.191  1.4752 -0.3516 -1.0871
 6911TIP3    H242293   5.814   5.184   7.306  0.7302 -2.8451  0.7056
 6912TIP3   OH242294   4.813   3.276   7.706 -0.4313  0.6291  0.5154
 6912TIP3    H142295   4.745   3.223   7.666 -0.7242  0.7674  0.8258
 6912TIP3    H242296   4.856   3.217   7.768  0.6405  0.1358 -0.6573
 6913TIP3   OH242297   5.223   5.073   1.041  0.0307  0.6588  0.1019
 6913TIP3    H142298   5.222   5.163   1.007 -0.2623  1.0088  1.0136
 6913TIP3    H242299   5.160   5.027   0.986  0.6630  0.8406 -0.8022
 6914TIP3   OH242300   2.766   4.473   1.433 -0.6988  0.3333  0.3357
 6914TIP3    H142301   2.698   4.410   1.456 -1.7106  1.3431  0.2163
 6914TIP3    H242302   2.784   4.519   1.515 -2.8112  2.5120 -0.2733
 6915TIP3   OH242303   5.622   1.913   7.239  0.6261  0.6018 -0.7275
 6915TIP3    H142304   5.656   1.985   7.186  0.0377  0.9330 -0.6573
 6915TIP3    H242305   5.532   1.902   7.211  1.1395 -1.1326 -1.8254
 6916TIP3   OH242306   6.479   2.165   2.238  0.1443  0.0105  0.1014
 6916TIP3    H142307   6.386   2.160   2.260  0.2850  1.4123  1.1358
 6916TIP3    H242308   6.513   2.237   2.290  1.6070  0.2024 -1.0311
 6917TIP3   OH242309   3.697   2.253   1.602  0.1277  0.5250  0.0441
 6917TIP3    H142310   3.672   2.322   1.664  0.7791  0.7524  0.0584
 6917TIP3    H242311   3.689   2.294   1.516  1.7822  1.0418  0.1143
 6918TIP3   OH242312   0.784   4.102   8.712  0.0787 -0.6938 -0.0116
 6918TIP3    H142313   0.754   4.189   8.684  1.9217  0.1400  0.4087
 6918TIP3    H242314   0.791   4.109   8.807  0.3819 -1.2485  0.0071
 6919TIP3   OH242315   2.075   6.677   2.019  0.0145  0.1839 -0.0206
 6919TIP3    H142316   2.026   6.755   2.045 -0.4793 -0.3961  0.8653
 6919TIP3    H242317   2.056   6.613   2.088  1.8651 -0.1417  0.2377
 6920TIP3   OH242318   0.363   3.065   7.480 -0.1138 -0.7575  0.6471
 6920TIP3    H142319   0.389   3.158   7.485 -0.1666 -0.6655 -0.4859
 6920TIP3    H242320   0.317   3.049   7.562  0.9168 -0.1036  1.3964
 6921TIP3   OH242321   3.903   3.285   7.373  0.1007 -0.0289 -0.0234
 6921TIP3    H142322   3.960   3.216   7.340 -0.1922 -0.6810  0.8143
 6921TIP3    H242323   3.959   3.337   7.430  0.3391  0.4871 -0.7076
 6922TIP3   OH242324   2.005   0.608   0.707  0.6740  0.0479 -0.4629
 6922TIP3    H142325   1.998   0.696   0.744  2.1571 -0.0377  0.0878
 6922TIP3    H242326   2.060   0.561   0.769 -0.3583 -1.3732 -0.5894
 6923TIP3   OH242327   2.686   6.115   0.318  0.4712  0.3289  0.1502
 6923TIP3    H142328   2.694   6.060   0.240 -2.3758  0.9842 -0.7337
 6923TIP3    H242329   2.714   6.202   0.290  1.0071  0.2208  0.3435
 6924TIP3   OH242330   3.339   1.853   6.495  0.6055 -0.1931 -0.2948
 6924TIP3    H142331   3.428   1.888   6.490  1.0668 -1.3323 -0.2974
 6924TIP3    H242332   3.346   1.764   6.461 -0.0447 -1.1410  1.8522
 6925TIP3   OH242333   4.992   2.980   1.087 -0.0064 -0.2344 -0.5794
 6925TIP3    H142334   5.055   2.942   1.148  1.4694  1.3270 -1.0769
 6925TIP3    H242335   4.922   3.013   1.142  0.7306  0.0820  0.1785
 6926TIP3   OH242336   4.175   5.695   0.262  0.0245  0.3936  0.4404
 6926TIP3    H142337   4.151   5.786   0.242 -2.1843 -0.5626 -1.8600
 6926TIP3    H242338   4.180   5.653   0.176 -0.6832 -2.0352  1.5133
 6927TIP3   OH242339   5.080   2.220   8.136 -0.2544  0.1465  0.4285
 6927TIP3    H142340   5.062   2.156   8.204 -2.1441 -0.4783 -0.5928
 6927TIP3    H242341   4.994   2.257   8.114  0.4152  0.9585 -0.9964
 6928TIP3   OH242342   3.351   5.001   1.223  0.3614  0.1393  0.1761
 6928TIP3    H142343   3.378   5.042   1.305 -0.8955  0.4978  0.4347
 6928TIP3    H242344   3.257   5.018   1.217  0.3155 -0.3956 -1.0498
 6929TIP3   OH242345   2.347   5.332   7.064 -0.1500  0.3539 -0.0260
 6929TIP3    H142346   2.335   5.375   6.979  3.5732  2.5658  0.3730
 6929TIP3    H242347   2.343   5.238   7.044  0.1914  0.8063 -2.5623
 6930TIP3   OH242348   4.415   1.105   0.598  0.3059 -0.0181 -0.0392
 6930TIP3    H142349   4.480   1.042   0.628 -1.1808 -1.3785  0.4643
 6930TIP3    H242350   4.418   1.175   0.663  1.4161  0.0644 -0.1607
 6931TIP3   OH242351   3.028   4.704   0.486 -0.2593 -0.1073 -0.4459
 6931TIP3    H142352   3.080   4.639   0.439  0.6737  0.4428 -0.2063
 6931TIP3    H242353   2.977   4.748   0.418  0.7452  0.3784 -0.9084
 6932TIP3   OH242354   4.805   6.049   1.940 -0.5342  0.1140  0.2803
 6932TIP3    H142355   4.874   5.983   1.928 -0.9247 -0.3240  0.4198
 6932TIP3    H242356   4.756   6.019   2.016 -1.1275  0.2078 -0.0609
 6933TIP3   OH242357   5.044   1.012   7.305 -0.0425 -0.0644  0.3245
 6933TIP3    H142358   5.074   1.059   7.383 -1.7719  1.5595  0.1134
 6933TIP3    H242359   5.111   1.030   7.239 -0.7415  2.4739  0.1792
 6934TIP3   OH242360   0.691   6.628   0.695 -0.1847  0.2053 -0.5980
 6934TIP3    H142361   0.661   6.712   0.658 -0.3236  0.3207 -0.2242
 6934TIP3    H242362   0.730   6.582   0.620 -0.1549  0.5816 -0.8182
 6935TIP3   OH242363   3.149   5.425   7.362  0.1488 -0.1836  0.5337
 6935TIP3    H142364   3.231   5.414   7.411 -0.0187 -1.8105  0.5294
 6935TIP3    H242365   3.084   5.377   7.413 -0.5260  0.0275 -0.1097
 6936TIP3   OH242366   4.999   4.038   1.654 -0.2108 -0.5547 -0.3061
 6936TIP3    H142367   5.072   4.004   1.602 -0.4136 -0.6542 -0.5299
 6936TIP3    H242368   4.987   3.972   1.723  1.8271  0.8692  1.5676
 6937TIP3   OH242369   2.074   0.222   8.790 -0.1856 -0.1175 -0.6507
 6937TIP3    H142370   2.151   0.254   8.743  0.8339 -1.5203 -0.0102
 6937TIP3    H242371   2.004   0.282   8.765  1.5079  2.3845  0.2280
 6938TIP3   OH242372   1.035   3.357   8.204 -0.3008  0.2887 -0.4741
 6938TIP3    H142373   1.126   3.345   8.232 -0.0021  1.4419 -0.9069
 6938TIP3    H242374   0.998   3.418   8.267 -1.0869 -0.9011  0.2687
 6939TIP3   OH242375   3.632   5.494   0.333  0.1983 -0.5363 -0.0625
 6939TIP3    H142376   3.602   5.564   0.390  0.4217 -0.9590  0.5858
 6939TIP3    H242377   3.724   5.516   0.315  0.2566 -0.6383  0.1078
 6940TIP3   OH242378   5.150   4.559   1.300  0.1941 -0.1949  0.0853
 6940TIP3    H142379   5.096   4.501   1.247 -1.3235  0.9170  0.3244
 6940TIP3    H242380   5.203   4.500   1.355  0.0721 -1.3266 -0.9730
 6941TIP3   OH242381   0.901   4.566   0.458  0.0813  0.0834 -0.0856
 6941TIP3    H142382   0.994   4.550   0.445  0.2609 -0.2394  1.4246
 6941TIP3    H242383   0.878   4.515   0.536 -1.4388 -0.1067 -0.6253
 6942TIP3   OH242384   2.013   5.761   7.001  0.2150  0.4853 -0.0795
 6942TIP3    H142385   1.951   5.775   6.930 -0.0784  1.7552  0.4103
 6942TIP3    H242386   1.976   5.687   7.050  1.1138 -1.2979 -1.9617
 6943TIP3   OH242387   1.321   0.253   1.025  0.5468  0.1335  0.4514
 6943TIP3    H142388   1.413   0.224   1.032  0.8500  0.4694 -1.5696
 6943TIP3    H242389   1.311   0.278   0.933 -2.0100 -1.3031  0.2644
 6944TIP3   OH242390   5.562   3.956   2.405 -0.3514  0.3368 -0.5572
 6944TIP3    H142391   5.591   3.962   2.315 -0.3807  0.7105 -0.5410
 6944TIP3    H242392   5.637   3.982   2.457 -0.3166  0.0669 -0.4706
 6945TIP3   OH242393   3.111   0.775   1.334 -0.5582  0.2013 -0.0319
 6945TIP3    H142394   3.148   0.721   1.403  1.9969  0.1109 -1.3455
 6945TIP3    H242395   3.164   0.855   1.334 -1.2101  0.6702 -1.1625
 6946TIP3   OH242396   6.602   6.274   0.124 -0.0813 -0.3194  0.1422
 6946TIP3    H142397   6.637   6.347   0.072 -0.7856  0.7517  1.1385
 6946TIP3    H242398   6.667   6.261   0.193 -0.4172  0.0168  0.5278
 6947TIP3   OH242399   1.255   3.080   1.472  0.7511 -0.1938  0.1062
 6947TIP3    H142400   1.257   3.027   1.393  0.5666 -0.1379  0.0639
 6947TIP3    H242401   1.299   3.161   1.448  0.1556  0.0660 -0.1169
 6948TIP3   OH242402   3.252   1.577   6.191  0.2891  0.2991  0.2922
 6948TIP3    H142403   3.266   1.667   6.162  0.0134 -0.7575 -3.6259
 6948TIP3    H242404   3.331   1.530   6.164 -1.1465 -1.3269 -1.2820
 6949TIP3   OH242405   0.179   6.067   2.411  0.2602 -0.0684  0.5200
 6949TIP3    H142406   0.271   6.067   2.438  1.1926 -1.5744 -2.2081
 6949TIP3    H242407   0.162   5.977   2.384 -1.2506  0.6661 -1.2370
 6950TIP3   OH242408   5.792   0.537   1.441 -0.1137  0.2538  0.1059
 6950TIP3    H142409   5.795   0.623   1.483  1.9869 -0.8784  2.5830
 6950TIP3    H242410   5.710   0.498   1.472 -0.3434  0.7949  0.1993
 6951TIP3   OH242411   0.707   1.382   1.614 -0.3711  0.2588 -0.2867
 6951TIP3    H142412   0.691   1.449   1.681  0.5515  0.5132 -0.3016
 6951TIP3    H242413   0.748   1.310   1.661  0.6292  0.5899 -0.6189
 6952TIP3   OH242414   3.825   2.941   1.359  0.3457  0.2949  0.0611
 6952TIP3    H142415   3.745   2.932   1.307  0.5388 -0.9697 -0.0340
 6952TIP3    H242416   3.798   2.921   1.449  0.5221  0.0035  0.0507
 6953TIP3   OH242417   1.463   6.017   7.985 -0.7557  0.2272 -0.2376
 6953TIP3    H142418   1.518   6.068   8.045  0.1276 -0.6373 -0.2822
 6953TIP3    H242419   1.510   6.022   7.901 -0.2315 -1.2858 -0.0558
 6954TIP3   OH242420   3.488   2.653   0.366 -0.3406  0.3982  0.0432
 6954TIP3    H142421   3.423   2.664   0.436 -0.1616  1.9972  0.0077
 6954TIP3    H242422   3.444   2.597   0.302 -1.2054  0.4041  0.6078
 6955TIP3   OH242423   2.998   3.239   7.706 -0.5589  0.3179  0.0155
 6955TIP3    H142424   2.998   3.256   7.800 -1.1533 -0.9738  0.2771
 6955TIP3    H242425   2.910   3.264   7.677 -0.3489  0.7930 -0.2116
 6956TIP3   OH242426   3.534   3.770   0.824 -0.6496 -0.0428  0.0633
 6956TIP3    H142427   3.560   3.844   0.879 -0.4435 -0.6413  0.7934
 6956TIP3    H242428   3.563   3.693   0.873 -1.1781 -0.6195 -0.5146
 6957TIP3   OH242429   3.265   1.949   0.418  0.2861  0.0443 -0.6306
 6957TIP3    H142430   3.274   1.935   0.324 -1.0731  1.5740 -1.0338
 6957TIP3    H242431   3.180   1.909   0.441  1.3393 -1.8129  0.3283
 6958TIP3   OH242432   2.655   4.100   1.299  0.2326 -0.1453 -0.4700
 6958TIP3    H142433   2.649   4.012   1.336 -1.3067  0.0595 -0.1783
 6958TIP3    H242434   2.570   4.139   1.316  1.2705  1.8598  0.4859
 6959TIP3   OH242435   5.926   3.966   0.812  0.1792  0.1151  0.3342
 6959TIP3    H142436   5.910   3.876   0.782 -0.9078  0.1363  0.7928
 6959TIP3    H242437   5.915   4.020   0.735  0.8290 -0.1422  0.0560
 6960TIP3   OH242438   5.584   4.866   2.451 -0.1889 -0.2043 -0.0284
 6960TIP3    H142439   5.663   4.873   2.503 -0.8109  0.9996  0.7869
 6960TIP3    H242440   5.518   4.833   2.512 -0.0193 -2.7066 -1.0572
 6961TIP3   OH242441   0.699   6.045   1.308 -0.0447  0.5556  0.1842
 6961TIP3    H142442   0.648   6.018   1.232 -0.1749  0.4236  0.3161
 6961TIP3    H242443   0.723   6.136   1.291  1.2809  0.0570 -0.7564
 6962TIP3   OH242444   4.756   3.486   0.813 -0.0512  0.0140 -0.4579
 6962TIP3    H142445   4.699   3.550   0.770  0.8154  1.7228  0.8121
 6962TIP3    H242446   4.750   3.506   0.906 -0.4388 -2.3885  0.1195
 6963TIP3   OH242447   3.217   3.854   8.736  0.0625 -0.4813 -0.1334
 6963TIP3    H142448   3.177   3.917   8.676 -2.4115 -1.8290 -0.0534
 6963TIP3    H242449   3.218   3.898   8.821 -1.7835 -0.5198 -0.0387
 6964TIP3   OH242450   3.753   2.080   7.501  0.1774  0.5935 -0.1534
 6964TIP3    H142451   3.816   2.138   7.544  0.8331  0.5485 -1.0289
 6964TIP3    H242452   3.797   2.052   7.421  0.6084 -2.5499  1.0424
 6965TIP3   OH242453   6.554   2.621   8.233  1.0820  0.0417  0.0259
 6965TIP3    H142454   6.565   2.616   8.138 -1.9418  0.0919 -0.4215
 6965TIP3    H242455   6.516   2.537   8.258  0.0562  0.7193  0.8502
 6966TIP3   OH242456   0.393   3.865   2.248  0.1883  0.5058 -0.5068
 6966TIP3    H142457   0.328   3.794   2.246  0.4774  0.2415 -0.7257
 6966TIP3    H242458   0.352   3.934   2.299  0.1269 -0.0417  0.1978
 6967TIP3   OH242459   5.589   4.123   8.861  0.0059 -0.1332  0.3128
 6967TIP3    H142460   5.537   4.183   8.808  0.5315 -0.4008 -0.5384
 6967TIP3    H242461   5.662   4.176   8.892  0.1706 -0.1886  0.0250
 6968TIP3   OH242462   0.864   4.227   0.798 -0.4830  0.0856 -0.3112
 6968TIP3    H142463   0.811   4.279   0.858 -0.3328  0.4725 -0.5150
 6968TIP3    H242464   0.808   4.214   0.721 -0.6215 -0.2879 -0.1504
 6969TIP3   OH242465   4.912   2.978   1.405  0.0836 -0.4081 -0.3861
 6969TIP3    H142466   4.933   3.061   1.448 -1.4361 -0.5713  0.7781
 6969TIP3    H242467   4.973   2.915   1.443 -0.9665 -0.4630  1.2705
 6970TIP3   OH242468   0.610   1.216   1.826  0.0318 -0.2134 -0.6670
 6970TIP3    H142469   0.704   1.223   1.842  0.1544 -3.3268  0.6717
 6970TIP3    H242470   0.569   1.225   1.912 -0.6737 -1.3171 -0.8695
 6971TIP3   OH242471   2.068   2.367   7.140 -0.3249 -0.0459  0.3073
 6971TIP3    H142472   2.091   2.446   7.189 -2.6016 -0.0533  1.5821
 6971TIP3    H242473   1.983   2.388   7.101 -1.0699 -1.8776  0.8369
 6972TIP3   OH242474   3.208   1.266   2.593 -0.3528 -0.2001 -0.1007
 6972TIP3    H142475   3.291   1.271   2.545 -1.2283  0.3809 -1.6327
 6972TIP3    H242476   3.152   1.331   2.550 -1.9116 -1.2335  0.3004
 6973TIP3   OH242477   0.813   5.710   0.421 -0.2972  0.2672 -0.4680
 6973TIP3    H142478   0.718   5.710   0.435  0.1032 -0.4702  3.5487
 6973TIP3    H242479   0.837   5.618   0.422  0.7755  0.3914  3.4943
 6974TIP3   OH242480   5.586   6.233   2.204  0.5114  0.1246 -0.5088
 6974TIP3    H142481   5.564   6.322   2.232  0.6027  0.0437 -0.1777
 6974TIP3    H242482   5.522   6.177   2.247  1.3086 -0.1089  0.4278
 6975TIP3   OH242483   3.309   5.528   8.792 -0.1562  0.0707 -0.2477
 6975TIP3    H142484   3.268   5.614   8.795 -2.1353 -0.8591  1.4814
 6975TIP3    H242485   3.285   5.486   8.875  3.1073 -1.1472  0.2670
 6976TIP3   OH242486   5.124   4.270   7.215  0.0387 -0.1465  0.1498
 6976TIP3    H142487   5.057   4.335   7.193 -0.9331 -0.8378  0.9378
 6976TIP3    H242488   5.195   4.320   7.254  0.5541  0.7556 -1.8246
 6977TIP3   OH242489   0.148   0.615   1.443 -0.0116  0.3640 -0.5581
 6977TIP3    H142490   0.231   0.616   1.397 -0.2514  0.3590 -0.9944
 6977TIP3    H242491   0.107   0.699   1.422  0.9814  1.5101  1.7041
 6978TIP3   OH242492   2.751   1.066   8.726 -0.7054  0.2183 -0.1974
 6978TIP3    H142493   2.807   1.141   8.744  0.9375 -1.2061  0.8887
 6978TIP3    H242494   2.707   1.048   8.809 -0.2156 -0.6985 -0.1222
 6979TIP3   OH242495   5.686   1.641   1.838  0.0161  0.3249  0.2999
 6979TIP3    H142496   5.740   1.702   1.787 -0.4089  0.1187 -0.4038
 6979TIP3    H242497   5.749   1.588   1.886  0.5031 -0.4657 -1.1386
 6980TIP3   OH242498   2.360   3.144   1.354  0.1542  0.2962 -0.2908
 6980TIP3    H142499   2.281   3.105   1.315  1.1011 -0.7840 -1.1990
 6980TIP3    H242500   2.326   3.202   1.423 -1.3858 -1.7883  0.8388
 6981TIP3   OH242501   1.521   3.164   0.597  0.3188 -0.5376 -0.1839
 6981TIP3    H142502   1.609   3.183   0.629 -0.9387  2.2318  2.0704
 6981TIP3    H242503   1.483   3.250   0.581 -1.8209 -1.6761 -1.6800
 6982TIP3   OH242504   6.064   4.276   8.021 -0.4833  0.6276  0.4431
 6982TIP3    H142505   6.085   4.315   7.936 -0.2764  0.1779  0.2818
 6982TIP3    H242506   5.997   4.210   8.002  1.6926 -1.6737  0.0854
 6983TIP3   OH242507   1.101   0.904   7.486 -0.3028  0.0943  0.3113
 6983TIP3    H142508   1.060   0.821   7.510 -0.3558 -0.2058 -0.7671
 6983TIP3    H242509   1.134   0.890   7.397  1.2077  0.6779  0.7401
 6984TIP3   OH242510   0.735   3.539   8.450  0.4015 -0.3377 -0.4721
 6984TIP3    H142511   0.695   3.510   8.368 -0.8901 -0.5944  0.2166
 6984TIP3    H242512   0.803   3.600   8.423 -0.3085 -0.0596 -1.7236
 6985TIP3   OH242513   6.436   0.116   7.743 -0.4928 -0.1556  0.0810
 6985TIP3    H142514   6.387   0.092   7.664  2.9678 -4.1997 -1.2032
 6985TIP3    H242515   6.399   0.061   7.812  0.6807 -1.6304 -0.4046
 6986TIP3   OH242516   2.383   4.565   7.160  0.1220  0.5002  0.7476
 6986TIP3    H142517   2.347   4.639   7.112 -0.1182  0.1560  0.3864
 6986TIP3    H242518   2.455   4.602   7.211 -0.7147  1.1978  1.4580
 6987TIP3   OH242519   2.797   6.638   0.571  0.0599  0.5722  0.2489
 6987TIP3    H142520   2.838   6.710   0.618  0.8224  0.7132 -0.6146
 6987TIP3    H242521   2.716   6.621   0.619  0.5736  1.0472  1.3011
 6988TIP3   OH242522   4.641   1.784   2.145  0.1656  0.2473 -0.3035
 6988TIP3    H142523   4.610   1.778   2.055 -0.3492  1.3117 -0.2198
 6988TIP3    H242524   4.613   1.702   2.186 -0.2621  0.0762 -0.9200
 6989TIP3   OH242525   0.987   1.864   1.877  0.3117 -0.1930  0.5547
 6989TIP3    H142526   1.067   1.829   1.838  0.3043  0.5081 -0.1143
 6989TIP3    H242527   1.009   1.954   1.900 -0.6834  0.4917 -0.9786
 6990TIP3   OH242528   2.933   6.027   6.910  0.2296 -0.1948  0.2510
 6990TIP3    H142529   2.972   5.941   6.893  0.9089  0.1568 -0.0196
 6990TIP3    H242530   2.846   6.008   6.945  0.1754 -0.9848 -0.2952
 6991TIP3   OH242531   1.810   3.063   8.774 -0.9097  0.1186 -0.3659
 6991TIP3    H142532   1.872   3.086   8.705 -0.4524 -0.7285 -0.2567
 6991TIP3    H242533   1.863   3.056   8.853 -1.0701 -0.9741 -0.3403
 6992TIP3   OH242534   5.052   3.364   8.546  0.5817 -0.2639 -0.1352
 6992TIP3    H142535   4.976   3.377   8.602 -0.7208  1.3462 -2.1151
 6992TIP3    H242536   5.027   3.292   8.488  1.4574 -1.1618  0.5728
 6993TIP3   OH242537   5.948   4.587   7.591  0.5289  0.5693  0.2616
 6993TIP3    H142538   5.942   4.548   7.503 -1.1372  0.1052  0.5519
 6993TIP3    H242539   5.990   4.519   7.644  1.7167  0.9230 -0.1916
 6994TIP3   OH242540   4.445   3.265   0.621  0.1718 -0.0882  0.0232
 6994TIP3    H142541   4.488   3.181   0.638  1.7525  0.6049 -0.3483
 6994TIP3    H242542   4.377   3.245   0.556 -0.2795 -1.2693  0.8264
 6995TIP3   OH242543   4.290   1.144   1.563  0.3257  0.4091 -0.1201
 6995TIP3    H142544   4.365   1.101   1.603 -0.2927  0.1851  0.8182
 6995TIP3    H242545   4.234   1.169   1.636  0.3377  2.2202 -0.6748
 6996TIP3   OH242546   5.216   0.509   8.298  0.0324 -0.5473  0.4238
 6996TIP3    H142547   5.121   0.502   8.282  0.0220 -0.3304  0.3828
 6996TIP3    H242548   5.254   0.437   8.248  0.0747  0.6004 -1.3001
 6997TIP3   OH242549   1.553   3.053   0.022 -0.0323  0.2843  0.4643
 6997TIP3    H142550   1.640   3.093   0.017  0.6606 -0.7726  2.6955
 6997TIP3    H242551   1.527   3.065   0.113 -2.2996  0.6357 -0.1748
 6998TIP3   OH242552   0.658   3.076   1.664 -0.5407 -0.4803 -0.1059
 6998TIP3    H142553   0.610   3.035   1.736 -0.1327 -1.5865 -0.4359
 6998TIP3    H242554   0.750   3.070   1.690 -0.1824 -2.8206 -1.5850
 6999TIP3   OH242555   4.387   2.152   0.359 -0.5472  0.2735  0.1360
 6999TIP3    H142556   4.313   2.129   0.415 -1.7586 -0.6206 -1.7123
 6999TIP3    H242557   4.415   2.238   0.390 -0.6865 -0.4656  2.5116
 7000TIP3   OH242558   4.156   2.296   6.842  0.0737 -0.0973  0.1585
 7000TIP3    H142559   4.221   2.328   6.779 -1.0317  1.5782 -0.2141
 7000TIP3    H242560   4.091   2.250   6.789  0.2490 -0.5782  0.3571
 7001TIP3   OH242561   1.007   3.962   7.276  0.4125  0.3229  0.4059
 7001TIP3    H142562   0.996   3.962   7.180  1.3063  0.5902  0.2884
 7001TIP3    H242563   1.002   3.870   7.301  1.6440  0.0976 -0.1017
 7002TIP3   OH242564   2.398   6.269   1.773 -0.0438 -0.1793  0.3667
 7002TIP3    H142565   2.491   6.257   1.793  0.3150 -0.4692 -1.2851
 7002TIP3    H242566   2.356   6.192   1.811  0.6338 -0.8594 -0.2173
 7003TIP3   OH242567   1.419   2.794   0.223  0.0999 -0.5231  0.0488
 7003TIP3    H142568   1.447   2.883   0.245 -0.8332 -0.4034  0.7967
 7003TIP3    H242569   1.468   2.738   0.282  1.8392 -0.6581 -1.4397
 7004TIP3   OH242570   3.506   5.808   0.367  0.3254 -0.3107 -0.2090
 7004TIP3    H142571   3.577   5.846   0.314  1.1251 -0.8472  0.4581
 7004TIP3    H242572   3.449   5.765   0.303  0.0520  0.9468 -0.8583
 7005TIP3   OH242573   0.828   4.560   0.812  0.2677  0.1045 -0.0401
 7005TIP3    H142574   0.792   4.497   0.874 -0.0284  0.0158 -0.2982
 7005TIP3    H242575   0.921   4.565   0.834  0.1117  0.3062  0.6092
 7006TIP3   OH242576   2.003   6.503   6.415  0.4075 -0.1890 -0.4706
 7006TIP3    H142577   1.948   6.553   6.476  1.5113  2.0108 -1.1636
 7006TIP3    H242578   2.030   6.567   6.349  2.0478 -1.6915 -1.3453
 7007TIP3   OH242579   1.784   4.035   8.603 -0.2628 -0.1142 -0.4309
 7007TIP3    H142580   1.716   4.098   8.628 -0.2705 -0.1974 -0.2425
 7007TIP3    H242581   1.859   4.059   8.656 -0.4652 -0.6680  0.1127
 7008TIP3   OH242582   1.153   4.542   7.894  0.4358 -0.1027 -0.1159
 7008TIP3    H142583   1.209   4.600   7.842  1.5963 -0.1877  0.9823
 7008TIP3    H242584   1.175   4.562   7.985  1.9403 -3.1728  0.3411
 7009TIP3   OH242585   5.076   1.923   6.876  0.0506 -0.1243 -0.0759
 7009TIP3    H142586   5.010   1.862   6.843  0.1434 -1.2427  1.6704
 7009TIP3    H242587   5.060   2.004   6.828 -1.9462 -0.6655 -0.4106
 7010TIP3   OH242588   4.064   5.311   6.824  0.0944  0.3328  0.1957
 7010TIP3    H142589   4.109   5.270   6.898  1.0729 -0.9813 -1.0816
 7010TIP3    H242590   4.111   5.393   6.809  0.6990 -0.0094  0.2233
 7011TIP3   OH242591   1.588   6.042   0.546 -0.4943 -0.0999 -0.0073
 7011TIP3    H142592   1.670   6.089   0.553 -0.4846 -0.2868  1.5920
 7011TIP3    H242593   1.526   6.106   0.510 -0.2335  0.8444  1.1503
 7012TIP3   OH242594   3.507   0.322   8.116  0.0729 -0.4969 -0.5028
 7012TIP3    H142595   3.569   0.310   8.044  1.4908 -0.3367  0.6456
 7012TIP3    H242596   3.486   0.415   8.114  1.0059 -0.2633 -0.0313
 7013TIP3   OH242597   2.078   0.135   2.381  0.5085 -0.3498 -0.2962
 7013TIP3    H142598   2.095   0.229   2.372  1.2229 -0.4516 -0.0765
 7013TIP3    H242599   2.031   0.127   2.464 -0.8118 -0.0498 -0.9787
 7014TIP3   OH242600   4.513   1.681   0.269  0.0692  0.1771 -0.1153
 7014TIP3    H142601   4.430   1.651   0.232  0.4970 -0.4988 -0.5324
 7014TIP3    H242602   4.513   1.647   0.359  0.1474 -0.3102 -0.2976
 7015TIP3   OH242603   0.535   0.861   8.303 -0.2286 -0.2598  0.1887
 7015TIP3    H142604   0.599   0.804   8.344 -1.9464 -1.7903  0.8620
 7015TIP3    H242605   0.491   0.807   8.238 -1.7576  0.3058  0.6877
 7016TIP3   OH242606   2.837   5.859   2.711  0.0251  0.1710 -0.4461
 7016TIP3    H142607   2.791   5.921   2.654 -3.5087  0.3535  2.2310
 7016TIP3    H242608   2.779   5.783   2.714  1.8422 -1.2619  0.2135
 7017TIP3   OH242609   4.349   1.811   8.019  0.0274 -0.3942 -0.9281
 7017TIP3    H142610   4.366   1.905   8.034  2.1965 -0.6849 -1.1625
 7017TIP3    H242611   4.340   1.804   7.924 -1.4287 -0.2630 -0.8125
 7018TIP3   OH242612   3.469   4.461   1.628  0.0828 -0.0332  0.3317
 7018TIP3    H142613   3.424   4.423   1.553  0.2565  0.0227  0.1997
 7018TIP3    H242614   3.406   4.454   1.700 -0.7638  1.4947 -0.2216
 7019TIP3   OH242615   1.113   1.477   2.092 -0.0505  0.0712  0.9362
 7019TIP3    H142616   1.049   1.530   2.138  1.1187  0.3275  2.3311
 7019TIP3    H242617   1.107   1.391   2.133 -1.5853 -0.8148 -0.9745
 7020TIP3   OH242618   3.688   6.068   8.598 -0.4501  0.0191  1.0442
 7020TIP3    H142619   3.605   6.114   8.615 -0.0633  1.1428  0.0478
 7020TIP3    H242620   3.662   5.985   8.558 -1.0894  0.8242 -0.2885
 7021TIP3   OH242621   0.701   1.544   0.844 -0.5475  0.0824  0.1509
 7021TIP3    H142622   0.659   1.592   0.773 -0.5419  0.0192  0.1054
 7021TIP3    H242623   0.707   1.608   0.915 -1.2262 -0.0588  0.3501
 7022TIP3   OH242624   4.618   1.547   7.694  0.3289 -0.3175 -0.8116
 7022TIP3    H142625   4.641   1.498   7.616  0.7767  1.3295 -1.7552
 7022TIP3    H242626   4.631   1.485   7.766  1.2548 -1.4493 -1.9116
 7023TIP3   OH242627   4.841   2.342   8.144  0.5551  0.0498 -0.5391
 7023TIP3    H142628   4.783   2.266   8.130  1.4329 -0.3701 -2.1124
 7023TIP3    H242629   4.793   2.415   8.105  1.3136 -0.4222 -2.4767
 7024TIP3   OH242630   5.638   6.022   1.215 -0.2904 -0.2031 -0.5775
 7024TIP3    H142631   5.672   5.950   1.162 -2.6855 -0.5907 -1.7562
 7024TIP3    H242632   5.625   5.985   1.302  2.1284 -0.0274 -0.0691
 7025TIP3   OH242633   3.753   5.265   6.562 -0.4637 -0.2047 -0.2466
 7025TIP3    H142634   3.772   5.359   6.558  2.3350 -0.6593  0.1119
 7025TIP3    H242635   3.839   5.223   6.553 -1.0076 -2.6377  3.5280
 7026TIP3   OH242636   1.468   0.482   0.392  0.1732  0.3372 -0.0370
 7026TIP3    H142637   1.429   0.486   0.479 -0.3399  1.0923 -0.2935
 7026TIP3    H242638   1.562   0.489   0.408  0.0955  0.2984  0.4667
 7027TIP3   OH242639   0.197   0.409   8.092  0.1985 -0.3828 -0.4117
 7027TIP3    H142640   0.250   0.485   8.116 -1.7805  0.5301  1.3387
 7027TIP3    H242641   0.189   0.359   8.173 -1.3083 -0.6531 -0.6919
 7028TIP3   OH242642   4.914   2.829   0.877 -0.3169 -0.1254 -0.2482
 7028TIP3    H142643   4.950   2.882   0.949  1.1422 -0.5024 -0.6617
 7028TIP3    H242644   4.833   2.793   0.912  0.9387 -1.2737  1.6796
 7029TIP3   OH242645   1.026   2.097   8.815 -0.0852  0.2871  0.6859
 7029TIP3    H142646   1.116   2.068   8.832  0.1532  1.0090  0.7023
 7029TIP3    H242647   1.011   2.168   8.877 -0.9091 -0.2647  1.1312
 7030TIP3   OH242648   1.499   6.467   0.247  0.1536  0.2655  0.5190
 7030TIP3    H142649   1.585   6.472   0.206 -1.2901 -0.0960 -2.9010
 7030TIP3    H242650   1.453   6.545   0.216 -2.0014 -1.5526 -1.1924
 7031TIP3   OH242651   3.855   4.459   1.101 -0.0924  0.0693 -0.4797
 7031TIP3    H142652   3.817   4.537   1.060  0.6667  0.1344 -1.0687
 7031TIP3    H242653   3.934   4.491   1.145  0.4109 -0.4308 -1.0173
 7032TIP3   OH242654   1.796   5.767   1.114  0.0781 -0.3763 -0.2808
 7032TIP3    H142655   1.749   5.840   1.154 -0.4707 -1.2422  0.7056
 7032TIP3    H242656   1.812   5.795   1.024 -0.8743  0.6110 -0.1615
 7033TIP3   OH242657   3.672   5.045   1.489 -0.0350  0.0490  0.4799
 7033TIP3    H142658   3.718   4.967   1.458 -1.8596 -0.8936 -0.0471
 7033TIP3    H242659   3.645   5.090   1.409  2.4475  2.2291  0.7460
 7034TIP3   OH242660   1.927   4.151   1.452  0.1783 -0.1962 -0.2414
 7034TIP3    H142661   1.916   4.167   1.358  1.1620  2.1961 -0.0355
 7034TIP3    H242662   1.852   4.195   1.492 -1.9212 -3.7234  0.0543
 7035TIP3   OH242663   1.117   2.851   8.762 -0.4633 -0.3010  0.3549
 7035TIP3    H142664   1.124   2.761   8.795 -0.2181 -0.3396  0.1959
 7035TIP3    H242665   1.190   2.897   8.803  1.7015 -1.0285 -2.3628
 7036TIP3   OH242666   4.576   6.521   7.883 -0.0405 -0.4319  0.5455
 7036TIP3    H142667   4.487   6.525   7.849  0.4251  0.2079 -0.6560
 7036TIP3    H242668   4.587   6.429   7.908 -1.0953 -0.4770  0.9123
 7037TIP3   OH242669   1.200   5.162   8.229 -0.0296 -0.5154 -0.3051
 7037TIP3    H142670   1.132   5.167   8.297  0.6368  0.3169  0.3224
 7037TIP3    H242671   1.253   5.240   8.242  0.4069 -0.5957 -1.4941
 7038TIP3   OH242672   0.709   6.396   1.710 -0.6297 -0.4039  0.0587
 7038TIP3    H142673   0.752   6.464   1.762 -0.8412 -2.1995  2.7690
 7038TIP3    H242674   0.620   6.429   1.697 -0.5734  0.0842  0.8651
 7039TIP3   OH242675   5.765   2.822   8.357  0.4031 -0.0587  0.2719
 7039TIP3    H142676   5.780   2.874   8.278  0.7310 -1.3844 -0.5590
 7039TIP3    H242677   5.850   2.820   8.401  0.8762 -1.3743 -0.6360
 7040TIP3   OH242678   5.652   5.446   0.693  0.2358  0.5643  0.1901
 7040TIP3    H142679   5.578   5.442   0.754 -0.4041 -0.1716 -0.6143
 7040TIP3    H242680   5.690   5.358   0.696 -0.4035  0.2023 -1.1691
 7041TIP3   OH242681   3.460   2.592   8.023  0.0616  0.2756 -0.1498
 7041TIP3    H142682   3.486   2.684   8.023 -0.9441  0.6019  1.3434
 7041TIP3    H242683   3.412   2.580   7.941  1.7656  0.5628 -1.2454
 7042TIP3   OH242684   4.495   1.562   6.816 -0.0339  0.3820 -0.0887
 7042TIP3    H142685   4.509   1.567   6.910 -0.4734 -1.3380  0.1019
 7042TIP3    H242686   4.533   1.644   6.782  1.4513  0.3797  1.4035
 7043TIP3   OH242687   2.303   2.234   0.560 -0.2870 -0.1710  0.3941
 7043TIP3    H142688   2.247   2.263   0.487 -0.7177  0.5706  0.9989
 7043TIP3    H242689   2.245   2.180   0.615  0.2768 -1.4791 -0.2600
 7044TIP3   OH242690   4.226   3.894   1.388 -0.4656  0.4958 -0.3386
 7044TIP3    H142691   4.154   3.831   1.381  0.7068 -0.7219 -2.4290
 7044TIP3    H242692   4.213   3.955   1.316 -0.7665  1.8151  0.7941
 7045TIP3   OH242693   6.777   5.370   0.893 -0.3179  0.3359  0.0025
 7045TIP3    H142694   6.869   5.390   0.876 -0.4968  1.2575  0.0519
 7045TIP3    H242695   6.779   5.303   0.961  0.3140  0.6500  0.3023
 7046TIP3   OH242696   0.498   2.117   7.896 -0.9029 -0.0099  0.4307
 7046TIP3    H142697   0.404   2.110   7.879 -0.7280  0.3924 -0.8590
 7046TIP3    H242698   0.536   2.042   7.852 -0.6359 -0.3505  1.2254
 7047TIP3   OH242699   0.242   4.554   8.276 -0.3546  0.2034 -0.1033
 7047TIP3    H142700   0.233   4.552   8.181 -0.5634  1.1162 -0.1072
 7047TIP3    H242701   0.152   4.553   8.309 -0.3894  2.6728  0.0066
 7048TIP3   OH242702   2.909   2.045   8.796 -0.0048 -0.2255  0.4624
 7048TIP3    H142703   2.851   2.115   8.824  1.1644  1.2261 -0.5839
 7048TIP3    H242704   2.952   2.079   8.718  0.1422 -2.3732 -0.4682
 7049TIP3   OH242705   4.502   2.826   1.559  0.3999 -0.5259 -0.1632
 7049TIP3    H142706   4.474   2.767   1.630 -1.1574  0.9835  0.5812
 7049TIP3    H242707   4.435   2.815   1.492 -0.8414  1.4707  0.6603
 7050TIP3   OH242708   1.458   1.690   7.903  0.0703 -0.0306  0.2337
 7050TIP3    H142709   1.508   1.634   7.844  1.3915  1.7743 -0.4649
 7050TIP3    H242710   1.458   1.643   7.987 -0.1441 -1.7213 -0.6770
 7051TIP3   OH242711   2.856   6.597   8.841  0.2538 -0.0172  0.4962
 7051TIP3    H142712   2.767   6.588   8.877  0.0414  2.4013  0.7649
 7051TIP3    H242713   2.898   6.661   8.899  1.2752  0.8757 -1.1726
 7052TIP3   OH242714   0.462   0.273   8.811 -0.1563  0.3431  0.0973
 7052TIP3    H142715   0.530   0.275   8.744  2.2003 -0.1291  2.3223
 7052TIP3    H242716   0.419   0.189   8.799  0.7050 -0.0378 -0.4115
 7053TIP3   OH242717   4.332   2.398   0.445  0.3920  0.0903 -0.0144
 7053TIP3    H142718   4.355   2.438   0.529  0.3262 -1.2293  0.6622
 7053TIP3    H242719   4.247   2.436   0.423  1.5503  2.3938 -0.8065
 7054TIP3   OH242720   5.319   3.906   2.007  0.4440 -0.2504  0.0077
 7054TIP3    H142721   5.232   3.910   2.046  0.3837  0.6999 -0.2063
 7054TIP3    H242722   5.370   3.853   2.068 -0.7577 -2.4797 -0.8109
 7055TIP3   OH242723   5.687   0.344   1.862  0.1793  0.9013  0.5351
 7055TIP3    H142724   5.606   0.317   1.820 -0.2168  2.9822 -0.1288
 7055TIP3    H242725   5.672   0.328   1.955 -0.6390  0.4414  0.3358
 7056TIP3   OH242726   1.667   5.934   2.436  0.2891  0.1133  0.3809
 7056TIP3    H142727   1.575   5.960   2.436  0.5978  1.3952 -1.3037
 7056TIP3    H242728   1.715   6.016   2.424  1.5188 -0.7727 -1.1500
 7057TIP3   OH242729   0.257   2.570   1.159  0.0251 -0.3672 -0.2276
 7057TIP3    H142730   0.318   2.498   1.175  1.7882  0.9745 -0.6066
 7057TIP3    H242731   0.250   2.576   1.063  1.1297  0.9162 -0.2551
 7058TIP3   OH242732   2.653   4.724   1.989 -0.5890  0.0058  0.1073
 7058TIP3    H142733   2.610   4.690   1.910  0.4841 -1.2472  0.0170
 7058TIP3    H242734   2.643   4.653   2.053  1.1586 -0.2552  0.1303
 7059TIP3   OH242735   2.734   3.779   8.708  0.4456 -0.4688 -0.0247
 7059TIP3    H142736   2.723   3.806   8.617  2.9420 -1.4741 -0.7052
 7059TIP3    H242737   2.652   3.736   8.731 -0.5639  0.5814 -1.4752
 7060TIP3   OH242738   6.593   6.293   6.741  0.2050  0.1035  0.0954
 7060TIP3    H142739   6.505   6.282   6.704  0.2775  0.4689 -0.1843
 7060TIP3    H242740   6.651   6.250   6.679  0.3722  1.0912 -0.4417
 7061TIP3   OH242741   0.188   2.745   7.625  0.5447 -0.3782 -0.3789
 7061TIP3    H142742   0.110   2.694   7.601 -1.1045  1.9181 -0.2141
 7061TIP3    H242743   0.217   2.785   7.543  1.0164 -0.4782 -0.2661
 7062TIP3   OH242744   1.248   0.802   7.953 -0.4576  0.1810 -0.1908
 7062TIP3    H142745   1.320   0.859   7.927 -0.4312  0.8144  1.2182
 7062TIP3    H242746   1.182   0.860   7.989 -0.7993 -0.5946  0.4676
 7063TIP3   OH242747   5.572   1.989   7.827 -0.0934 -0.3341  0.2846
 7063TIP3    H142748   5.497   1.987   7.886  0.3339  1.2853  0.9367
 7063TIP3    H242749   5.534   2.000   7.740 -0.6802  2.9781  0.7948
 7064TIP3   OH242750   0.598   2.649   1.595 -0.0149 -0.4292  0.0178
 7064TIP3    H142751   0.526   2.704   1.625 -0.2530  0.2380 -1.6912
 7064TIP3    H242752   0.658   2.709   1.552  0.9900 -1.1602  0.3540
 7065TIP3   OH242753   1.957   4.479   8.157 -0.1281  0.1888 -0.1177
 7065TIP3    H142754   1.998   4.427   8.226 -0.4436 -0.1322 -0.1731
 7065TIP3    H242755   2.029   4.530   8.120  0.8772 -2.5539 -2.2522
 7066TIP3   OH242756   4.241   5.872   8.375 -0.1065 -0.1458 -0.0358
 7066TIP3    H142757   4.168   5.886   8.435 -0.2708 -0.4068 -0.1721
 7066TIP3    H242758   4.201   5.869   8.288  0.0788 -0.1824 -0.1219
 7067TIP3   OH242759   5.521   3.318   1.346 -0.2490  0.7479 -0.2591
 7067TIP3    H142760   5.450   3.359   1.395 -1.5471 -0.5776 -0.9529
 7067TIP3    H242761   5.478   3.270   1.275  1.0457 -2.3096  0.8215
 7068TIP3   OH242762   0.837   4.701   1.499 -0.3381  0.1666  0.3865
 7068TIP3    H142763   0.858   4.794   1.503 -1.0153  0.2893  1.3547
 7068TIP3    H242764   0.806   4.679   1.587  1.4593 -1.3843  0.6895
 7069TIP3   OH242765   1.186   5.089   7.773  0.1732  0.0998 -0.2984
 7069TIP3    H142766   1.267   5.074   7.821 -0.4908 -0.0958  0.7973
 7069TIP3    H242767   1.147   5.001   7.764 -0.0094  0.2141 -0.6709
 7070TIP3   OH242768   5.632   4.330   1.436  0.0730 -0.5071 -0.5960
 7070TIP3    H142769   5.629   4.238   1.409 -0.0496 -1.5557  2.5535
 7070TIP3    H242770   5.722   4.357   1.418  0.3964 -1.5799 -0.6787
 7071TIP3   OH242771   6.347   2.746   0.478  0.2785 -0.2901  0.1270
 7071TIP3    H142772   6.304   2.832   0.473  0.8994 -0.0168 -0.9590
 7071TIP3    H242773   6.422   2.761   0.535  0.0127 -0.2860  0.4805
 7072TIP3   OH242774   0.241   2.066   8.703  0.4822 -0.4311 -0.3090
 7072TIP3    H142775   0.172   2.124   8.735  0.1467 -0.9199 -0.1353
 7072TIP3    H242776   0.322   2.104   8.738  0.1449 -0.8378  0.9812
 7073LIG     C142777   2.623   1.488   7.762 -0.1869 -0.4955 -0.2743
 7073LIG     C242778   2.489   1.426   7.796  0.1011 -0.2953 -0.2313
 7073LIG     C342779   2.488   1.345   7.930 -0.5432  0.0821 -0.6390
 7073LIG      O42780   2.464   1.346   7.676 -0.2013 -0.0351 -0.0142
 7073LIG     H142781   2.670   1.551   7.841  2.9923 -0.8115 -1.7642
 7073LIG     H242782   2.617   1.545   7.667 -0.2359  0.5119  0.3050
 7073LIG     H342783   2.699   1.408   7.746 -1.7043 -1.6566 -1.9669
 7073LIG     H442784   2.404   1.497   7.804 -2.8057 -3.5208  0.0498
 7073LIG     H542785   2.577   1.280   7.936  0.6075  1.7750  2.2411
 7073LIG     H642786   2.394   1.287   7.942 -1.4213  1.3362 -1.2214
 7073LIG     H742787   2.493   1.422   8.010  0.2105  0.5429 -1.1263
 7073LIG     H842788   2.375   1.312   7.683  0.0333 -0.6643 -0.0139
   6.77881   6.77881   8.88925
