Title
42788
    1SAPS     N    1   4.944   4.158   6.746  0.4725 -0.3720  0.0186
    1SAPS   HN1    2   4.998   4.147   6.834  0.8189 -0.3891 -0.1944
    1SAPS   HN2    3   4.905   4.254   6.744  1.0021 -0.1372  0.5436
    1SAPS   HN3    4   4.865   4.090   6.739 -0.9934  1.0116  1.9323
    1SAPS   C12    5   5.038   4.144   6.628  0.2432  0.1603  0.0008
    1SAPS  H12A    6   5.115   4.217   6.649 -0.2294  0.4534  0.7580
    1SAPS   C13    7   5.111   4.008   6.616  0.2780 -0.9329  0.6758
    1SAPS  O13A    8   5.090   3.914   6.702  0.1977 -0.5790  0.2437
    1SAPS  O13B    9   5.178   3.991   6.506  1.2355 -0.5438 -0.7009
    1SAPS   C11   10   4.961   4.183   6.495  0.1606  0.1049  0.4642
    1SAPS  H11A   11   4.886   4.102   6.486  0.3974 -0.0004 -0.7350
    1SAPS  H11B   12   5.033   4.179   6.410 -0.6791 -0.0461 -0.2470
    1SAPS     P   13   4.904   4.408   6.397  0.0847 -0.1276 -0.0312
    1SAPS   O13   14   4.812   4.525   6.411  0.2644  0.5568 -0.3043
    1SAPS   O14   15   5.044   4.433   6.377 -0.8288  0.7691  0.5106
    1SAPS   O12   16   4.886   4.307   6.512 -0.1061 -0.1856  0.1596
    1SAPS   O11   17   4.850   4.330   6.272  0.0329  0.4833  0.1686
    1SAPS    C1   18   4.736   4.234   6.265 -0.9056 -0.1004  0.2761
    1SAPS    HA   19   4.760   4.130   6.235 -1.0103  0.0610 -0.4002
    1SAPS    HB   20   4.684   4.228   6.362  0.1670  4.5303  1.3569
    1SAPS    C2   21   4.623   4.292   6.166  0.1733 -0.2328 -0.2152
    1SAPS    HS   22   4.533   4.230   6.184 -0.5082 -0.0418 -2.6009
    1SAPS   O21   23   4.650   4.273   6.028 -0.2229 -0.1719 -0.1596
    1SAPS   C21   24   4.649   4.149   5.978  0.2008  0.4650 -0.4630
    1SAPS   O22   25   4.645   4.051   6.048  0.5822  0.8649 -0.1048
    1SAPS   C22   26   4.670   4.150   5.827 -0.3897 -0.0019 -0.1140
    1SAPS   H2R   27   4.581   4.207   5.793  0.2261  0.3123 -1.2445
    1SAPS   H2S   28   4.759   4.211   5.802  1.2154 -2.4544 -0.7020
    1SAPS    C3   29   4.587   4.435   6.195  0.2625  0.6607  0.0392
    1SAPS    HX   30   4.647   4.501   6.129  1.0869 -1.5355 -1.5516
    1SAPS    HY   31   4.612   4.464   6.299  2.1352 -0.6320 -0.0031
    1SAPS   O31   32   4.447   4.459   6.185  0.2528  0.0628  0.4385
    1SAPS   C31   33   4.413   4.588   6.197 -0.4362 -0.7871 -0.5561
    1SAPS   O32   34   4.497   4.677   6.227 -0.0636  0.1457 -0.1122
    1SAPS   C32   35   4.264   4.612   6.191 -0.3509 -0.0575  0.5109
    1SAPS   H2X   36   4.251   4.721   6.174 -0.9512 -0.1554  0.3305
    1SAPS   H2Y   37   4.222   4.583   6.290  1.7496 -0.3526  1.3661
    1SAPS   C23   38   4.661   4.013   5.769  0.4649  0.7756 -0.2572
    1SAPS   H3R   39   4.562   3.964   5.782  0.4322  0.7653 -0.5454
    1SAPS   H3S   40   4.736   3.944   5.814  0.1169 -0.2057 -1.1434
    1SAPS   C24   41   4.708   4.022   5.630 -0.0815  0.2816  0.5356
    1SAPS   H4R   42   4.809   4.069   5.635 -0.5233  1.3662 -0.1926
    1SAPS   H4S   43   4.646   4.092   5.570  0.9898  0.2259 -0.6881
    1SAPS   C25   44   4.728   3.891   5.555  0.0048  0.3284 -0.1797
    1SAPS   H5R   45   4.764   3.803   5.611  1.5476  0.7280 -0.4973
    1SAPS   C26   46   4.683   3.870   5.428 -0.2487  0.4103  0.0744
    1SAPS   H6R   47   4.709   3.774   5.380  1.9650  1.3438 -0.7675
    1SAPS   C27   48   4.586   3.961   5.354 -0.3795 -0.4895  0.7649
    1SAPS   H7R   49   4.611   3.977   5.247 -0.3515 -2.6382  0.4105
    1SAPS   H7S   50   4.566   4.059   5.403 -1.1670 -0.7861  1.0641
    1SAPS   C28   51   4.450   3.894   5.351 -0.2635 -0.7308 -0.6379
    1SAPS   H8R   52   4.408   3.891   5.453  1.7523  3.4151  0.5929
    1SAPS   C29   53   4.370   3.862   5.247  0.2238 -0.3341 -0.2032
    1SAPS   H9R   54   4.279   3.805   5.270 -1.4375  1.9497 -0.7812
    1SAPS  C210   55   4.412   3.861   5.099  0.4585  0.3088  0.1050
    1SAPS  H10R   56   4.465   3.764   5.087 -0.7830 -0.5390  1.1941
    1SAPS  H10S   57   4.484   3.943   5.082 -0.0540  0.2522 -2.7473
    1SAPS  C211   58   4.310   3.859   4.989  0.1782 -0.0590 -0.1507
    1SAPS  H11R   59   4.313   3.950   4.928  0.0336 -0.2849 -0.4979
    1SAPS  C212   60   4.231   3.752   4.966  0.3431  0.1351  0.0483
    1SAPS  H12R   61   4.144   3.762   4.899 -0.3569 -0.2508  0.8898
    1SAPS  C213   62   4.229   3.626   5.052 -0.0933  0.4691  0.3643
    1SAPS  H13R   63   4.317   3.625   5.119  0.3948 -0.3949 -0.2687
    1SAPS  H13S   64   4.251   3.545   4.979  0.5389 -1.0054  2.1049
    1SAPS  C214   65   4.098   3.620   5.127 -0.0156  0.0219 -0.5275
    1SAPS  H14R   66   4.013   3.681   5.090  0.1052  0.7811  0.4121
    1SAPS  C215   67   4.071   3.549   5.240 -0.3948  0.9395  0.1912
    1SAPS  H15R   68   3.973   3.550   5.290 -0.6526 -0.0550 -0.2585
    1SAPS  C216   69   4.176   3.463   5.301 -0.3761 -0.0206  0.1466
    1SAPS  H16R   70   4.281   3.471   5.264 -0.2179 -2.4966 -0.1172
    1SAPS  H16S   71   4.146   3.357   5.291 -0.1836 -0.0965  0.3730
    1SAPS  C217   72   4.176   3.482   5.452 -1.3518  0.3525 -0.7968
    1SAPS  H17R   73   4.227   3.393   5.496  1.2851  1.9978 -0.2539
    1SAPS  H17S   74   4.077   3.493   5.500 -0.9746 -0.4029  0.1995
    1SAPS  C218   75   4.263   3.602   5.494 -0.1735  0.7207  0.6561
    1SAPS  H18R   76   4.216   3.694   5.454 -2.9425  0.0083  2.0498
    1SAPS  H18S   77   4.365   3.607   5.449  0.1899  1.7415  1.5365
    1SAPS  C219   78   4.271   3.625   5.644  0.0510  0.1138  0.7170
    1SAPS  H19R   79   4.316   3.532   5.685  3.5219  1.7062  0.8333
    1SAPS  H19S   80   4.168   3.631   5.687  0.0430 -2.4619  1.1929
    1SAPS  C220   81   4.365   3.733   5.689  0.1454 -0.3517 -0.3422
    1SAPS  H20R   82   4.336   3.828   5.639  0.4242 -0.9253 -1.6174
    1SAPS  H20S   83   4.473   3.721   5.666 -0.0850  0.1471 -1.7791
    1SAPS  H20T   84   4.349   3.743   5.799 -1.9103  0.6443 -0.6904
    1SAPS   C33   85   4.200   4.527   6.082 -0.6248  0.7645 -0.2250
    1SAPS   H3X   86   4.089   4.527   6.097 -0.7867 -0.4866 -1.2707
    1SAPS   H3Y   87   4.212   4.418   6.098 -1.2061  0.6777 -0.3573
    1SAPS   C34   88   4.241   4.572   5.942  0.1786  0.4537  0.8598
    1SAPS   H4X   89   4.330   4.515   5.911 -0.0917 -0.1928  1.2538
    1SAPS   H4Y   90   4.270   4.679   5.944 -1.4143  0.9139  1.4405
    1SAPS   C35   91   4.138   4.543   5.841 -0.1804 -0.3426 -0.1740
    1SAPS   H5X   92   4.051   4.610   5.862  0.4220  0.8953 -1.4547
    1SAPS   H5Y   93   4.098   4.444   5.871 -2.0169  0.4028 -0.0073
    1SAPS   C36   94   4.187   4.564   5.695 -0.8035 -0.1146  0.0806
    1SAPS   H6X   95   4.281   4.505   5.689 -1.3963 -0.9548 -2.9888
    1SAPS   H6Y   96   4.214   4.669   5.670  0.5223  0.0769  2.1224
    1SAPS   C37   97   4.084   4.522   5.595 -0.0179 -0.1631 -0.1716
    1SAPS   H7X   98   3.996   4.590   5.604 -0.4642 -0.8428  0.7044
    1SAPS   H7Y   99   4.053   4.421   5.626 -2.1512 -0.4138 -2.7346
    1SAPS   C38  100   4.134   4.539   5.448 -0.0828 -0.6208 -0.3295
    1SAPS   H8X  101   4.216   4.468   5.426 -0.3402 -1.5284  1.4666
    1SAPS   H8Y  102   4.179   4.639   5.433 -0.0100 -0.4950  0.6890
    1SAPS   C39  103   4.035   4.523   5.333 -0.6166 -0.1128 -0.6197
    1SAPS   H9X  104   3.953   4.598   5.345 -2.0180 -1.7382  0.5328
    1SAPS   H9Y  105   3.998   4.419   5.329 -1.7554  0.2998 -1.2691
    1SAPS  C310  106   4.095   4.558   5.196  0.0787 -0.5570 -0.3460
    1SAPS  H10X  107   4.178   4.488   5.171 -0.3819 -0.7386 -1.3882
    1SAPS  H10Y  108   4.135   4.661   5.206 -1.0423  0.0571 -1.8089
    1SAPS  C311  109   3.988   4.543   5.087  0.3178 -0.3658  0.1234
    1SAPS  H11X  110   3.898   4.604   5.111 -0.3031 -0.9458 -0.6978
    1SAPS  H11Y  111   3.946   4.441   5.074 -0.1166 -0.1912  0.1513
    1SAPS  C312  112   4.042   4.605   4.959  0.0320 -0.9037 -0.0875
    1SAPS  H12X  113   4.141   4.556   4.945  1.6373  1.9944  0.2689
    1SAPS  H12Y  114   4.058   4.714   4.971 -0.7678 -0.6387 -1.2932
    1SAPS  C313  115   3.956   4.594   4.833  0.1253 -0.2561  0.5074
    1SAPS  H13X  116   3.867   4.659   4.846  0.6880  0.3277  1.5274
    1SAPS  H13Y  117   3.912   4.494   4.812  2.3701 -0.6623 -3.1394
    1SAPS  C314  118   4.037   4.649   4.707 -0.1801 -0.2740  0.3347
    1SAPS  H14X  119   4.145   4.638   4.730 -0.2629 -1.2438  0.3068
    1SAPS  H14Y  120   4.016   4.758   4.701 -0.1865 -0.1603  1.9210
    1SAPS  C315  121   3.987   4.581   4.584  0.1356 -0.1755  0.2082
    1SAPS  H15X  122   3.879   4.565   4.601 -0.2493  1.5379 -0.4585
    1SAPS  H15Y  123   4.042   4.486   4.566  0.6234  0.1359  0.0336
    1SAPS  C316  124   4.004   4.660   4.455 -1.1710 -0.2047  0.0432
    1SAPS  H16X  125   3.984   4.768   4.472 -2.4057 -0.3612 -0.2968
    1SAPS  H16Y  126   3.934   4.638   4.372  0.7913  0.4910 -1.9007
    1SAPS  C317  127   4.155   4.649   4.391  0.5236 -0.5382  0.9255
    1SAPS  H17X  128   4.157   4.720   4.306 -1.8482 -1.5825 -0.1196
    1SAPS  H17Y  129   4.152   4.548   4.343 -0.5381  0.7100 -1.8763
    1SAPS  C318  130   4.283   4.652   4.472 -0.1029  0.5908 -0.3552
    1SAPS  H18X  131   4.273   4.589   4.563  0.3190 -0.1409 -0.8072
    1SAPS  H18Y  132   4.323   4.750   4.507  1.2289  0.1755 -0.6664
    1SAPS  H18Z  133   4.360   4.603   4.409 -0.7461  0.2035 -0.8499
    2SAPS     N  134   6.258   6.746   6.963 -0.5520 -0.2973  0.4698
    2SAPS   HN1  135   6.338   6.797   7.005  0.5658 -1.4181 -0.2261
    2SAPS   HN2  136   6.218   6.794   6.880  1.1240 -1.1056 -0.8873
    2SAPS   HN3  137   6.185   6.741   7.037  1.2011  1.0619  2.4108
    2SAPS   C12  138   6.319   6.614   6.908 -0.7324 -0.7853 -0.7240
    2SAPS  H12A  139   6.391   6.587   6.983 -0.6525  0.9797 -0.0982
    2SAPS   C13  140   6.212   6.508   6.878  0.4967  0.2910  1.0749
    2SAPS  O13A  141   6.093   6.537   6.885  0.4640  0.2571 -0.3391
    2SAPS  O13B  142   6.249   6.393   6.844  0.0919  0.5419  0.4581
    2SAPS   C11  143   6.393   6.648   6.770  0.6731 -0.3126  0.2183
    2SAPS  H11A  144   6.310   6.680   6.703  0.1808  0.4899  1.1753
    2SAPS  H11B  145   6.426   6.550   6.730 -1.1549 -1.9365  2.4044
    2SAPS     P  146   6.640   6.731   6.731  0.1336  0.0701 -0.1140
    2SAPS   O13  147   6.713   6.861   6.746 -0.1701  0.2420 -0.3047
    2SAPS   O14  148   6.707   6.619   6.795  0.1069 -0.0689  0.3836
    2SAPS   O12  149   6.494   6.745   6.790  0.2508 -0.0654 -0.0790
    2SAPS   O11  150   6.620   6.699   6.573 -0.2412  0.3188 -0.4642
    2SAPS    C1  151   6.528   6.784   6.501  0.1167 -0.0649 -0.5964
    2SAPS    HA  152   6.440   6.814   6.562 -0.2166  0.1984 -1.1987
    2SAPS    HB  153   6.575   6.884   6.486 -1.3872  0.9800  1.1299
    2SAPS    C2  154   6.478   6.720   6.372  1.1716  0.0321 -0.1935
    2SAPS    HS  155   6.422   6.629   6.401  0.4077  0.2783 -0.8313
    2SAPS   O21  156   6.587   6.682   6.301 -0.4149 -1.1193  0.6692
    2SAPS   C21  157   6.580   6.577   6.222 -0.1902  0.3352 -0.3858
    2SAPS   O22  158   6.484   6.510   6.204 -0.2740  0.2294 -0.0877
    2SAPS   C22  159   6.715   6.555   6.140 -0.4617 -0.2310 -0.0756
    2SAPS   H2R  160   6.726   6.654   6.091 -1.9051 -0.6591 -1.3490
    2SAPS   H2S  161   6.800   6.548   6.211 -1.1996  1.5889  1.0518
    2SAPS    C3  162   6.387   6.823   6.289 -0.0129  0.6027 -0.0465
    2SAPS    HX  163   6.455   6.908   6.268 -2.1513  1.9796 -1.8356
    2SAPS    HY  164   6.297   6.846   6.350 -0.5176 -2.6669  0.6667
    2SAPS   O31  165   6.342   6.770   6.157 -0.0767 -0.3940  0.9256
    2SAPS   C31  166   6.325   6.867   6.070  0.7006 -0.4162  1.3539
    2SAPS   O32  167   6.343   6.986   6.090 -0.3035  0.3374 -0.1828
    2SAPS   C32  168   6.283   6.815   5.932  0.2061 -0.8563 -0.0521
    2SAPS   H2X  169   6.173   6.796   5.934  0.3121 -1.5113 -0.5018
    2SAPS   H2Y  170   6.340   6.726   5.901 -1.4525 -1.4794 -1.4384
    2SAPS   C23  171   6.700   6.435   6.043 -0.1793 -0.5188 -0.0740
    2SAPS   H3R  172   6.642   6.350   6.085 -1.2531  0.8007  1.2432
    2SAPS   H3S  173   6.799   6.388   6.022  0.4475  1.2288 -1.2328
    2SAPS   C24  174   6.645   6.486   5.912 -0.3025 -0.8497  0.2922
    2SAPS   H4R  175   6.562   6.558   5.927  1.1989  0.7874  1.0386
    2SAPS   H4S  176   6.608   6.397   5.856  0.0994  0.0700 -1.5100
    2SAPS   C25  177   6.758   6.550   5.837  0.3466  0.1203 -0.1912
    2SAPS   H5R  178   6.858   6.557   5.883 -0.2137  0.3727  1.0243
    2SAPS   C26  179   6.735   6.594   5.718  0.5765 -0.9908 -0.2165
    2SAPS   H6R  180   6.816   6.641   5.660  1.8146  1.8310  3.4346
    2SAPS   C27  181   6.599   6.598   5.652  0.0005 -0.0265 -0.0627
    2SAPS   H7R  182   6.515   6.596   5.725 -0.1994 -0.3786 -0.3045
    2SAPS   H7S  183   6.590   6.498   5.606 -0.8293  0.0181 -0.0237
    2SAPS   C28  184   6.593   6.717   5.559 -0.3660  0.5328  0.6248
    2SAPS   H8R  185   6.632   6.811   5.602  1.1067  1.6646 -2.8001
    2SAPS   C29  186   6.561   6.720   5.429  0.4181  0.3072 -0.0746
    2SAPS   H9R  187   6.558   6.817   5.379 -1.7681  1.3237  1.8238
    2SAPS  C210  188   6.530   6.603   5.342 -0.0474 -0.1503  0.0261
    2SAPS  H10R  189   6.437   6.619   5.284  0.5600  1.0018 -0.6694
    2SAPS  H10S  190   6.513   6.516   5.409 -1.7611 -1.8965 -2.5603
    2SAPS  C211  191   6.651   6.575   5.259 -0.2611  0.2556  0.3346
    2SAPS  H11R  192   6.744   6.568   5.318 -1.0703 -1.5145  1.4801
    2SAPS  C212  193   6.654   6.536   5.129  0.2251  0.1109  0.1283
    2SAPS  H12R  194   6.754   6.510   5.092  1.4289  1.7611  2.0194
    2SAPS  C213  195   6.541   6.513   5.036  0.2957 -0.1318  0.2026
    2SAPS  H13R  196   6.441   6.495   5.081 -0.6477  0.8215 -1.4496
    2SAPS  H13S  197   6.558   6.414   4.989 -1.9059  0.5730 -2.2846
    2SAPS  C214  198   6.528   6.613   4.919 -0.1302  0.2864  0.3032
    2SAPS  H14R  199   6.465   6.701   4.937 -1.1371 -0.4623  0.5362
    2SAPS  C215  200   6.604   6.614   4.803  0.5271  1.1704  0.4494
    2SAPS  H15R  201   6.585   6.694   4.730 -1.9056  0.8963  0.6978
    2SAPS  C216  202   6.700   6.502   4.768  0.4611  0.1256 -0.2044
    2SAPS  H16R  203   6.698   6.415   4.837  2.1745 -1.8023 -2.4462
    2SAPS  H16S  204   6.804   6.539   4.762  1.3620 -2.1742  0.1704
    2SAPS  C217  205   6.670   6.446   4.627  0.6881 -0.2457  0.2398
    2SAPS  H17R  206   6.643   6.524   4.552  1.3768  0.2588  0.5048
    2SAPS  H17S  207   6.580   6.381   4.624 -0.9593  1.9459 -0.0031
    2SAPS  C218  208   6.781   6.364   4.561 -0.3205 -0.4591  0.5329
    2SAPS  H18R  209   6.785   6.271   4.622 -1.0591 -1.6599 -1.1781
    2SAPS  H18S  210   6.873   6.427   4.559 -1.9093  2.0044 -1.5690
    2SAPS  C219  211   6.765   6.310   4.417  0.5009  0.4219 -0.0008
    2SAPS  H19R  212   6.746   6.395   4.348  0.8740  1.4169  1.0723
    2SAPS  H19S  213   6.666   6.261   4.422  1.5117 -1.5953  1.7951
    2SAPS  C220  214   6.878   6.214   4.374 -0.2904 -0.2140 -0.0911
    2SAPS  H20R  215   6.881   6.119   4.432  2.4726 -0.4968 -0.5753
    2SAPS  H20S  216   6.978   6.256   4.395  0.3888 -1.7981 -0.0613
    2SAPS  H20T  217   6.880   6.192   4.265  1.1374 -1.0827  0.0849
    2SAPS   C33  218   6.295   6.922   5.815 -0.2890 -0.0739 -0.5334
    2SAPS   H3X  219   6.401   6.954   5.820  0.0257 -1.2703  1.1499
    2SAPS   H3Y  220   6.239   7.015   5.840 -0.1335 -0.5117  1.5838
    2SAPS   C34  221   6.265   6.876   5.668 -0.5332 -1.1925 -0.3462
    2SAPS   H4X  222   6.154   6.870   5.654 -0.8244  0.0460  1.1896
    2SAPS   H4Y  223   6.314   6.778   5.655  0.5987 -0.6493 -0.2498
    2SAPS   C35  224   6.314   6.988   5.570 -0.4994 -0.1396 -0.3636
    2SAPS   H5X  225   6.421   7.000   5.595 -0.2349 -2.1142 -0.4149
    2SAPS   H5Y  226   6.264   7.083   5.599 -1.4546 -0.2159 -1.6508
    2SAPS   C36  227   6.292   6.955   5.424  0.1589 -0.8339 -0.0049
    2SAPS   H6X  228   6.183   6.942   5.413  0.0279  0.6280 -0.5413
    2SAPS   H6Y  229   6.337   6.858   5.394 -1.9525 -0.7508 -4.1930
    2SAPS   C37  230   6.319   7.065   5.320  0.3066 -0.2768 -0.6077
    2SAPS   H7X  231   6.423   7.103   5.327 -0.0074  0.5525 -0.2883
    2SAPS   H7Y  232   6.262   7.157   5.346  1.5214  0.1557  0.6114
    2SAPS   C38  233   6.304   7.023   5.174  0.2636 -0.5476  0.6838
    2SAPS   H8X  234   6.198   6.991   5.160 -0.0855  0.6256  0.5284
    2SAPS   H8Y  235   6.365   6.934   5.148 -1.1511 -1.4373  0.2706
    2SAPS   C39  236   6.345   7.141   5.086  0.0465  0.3674  0.5413
    2SAPS   H9X  237   6.432   7.195   5.129  4.1179 -1.9025 -3.9445
    2SAPS   H9Y  238   6.257   7.208   5.097 -0.7453 -0.7656  1.4531
    2SAPS  C310  239   6.363   7.105   4.942  0.1273  0.2462 -0.0403
    2SAPS  H10X  240   6.330   7.186   4.873 -1.1325 -0.5880 -0.4516
    2SAPS  H10Y  241   6.290   7.027   4.913 -1.1704 -0.4517  4.4919
    2SAPS  C311  242   6.504   7.053   4.916 -0.0856 -0.7990  0.1207
    2SAPS  H11X  243   6.496   7.009   4.814 -1.5429 -0.0388 -0.1129
    2SAPS  H11Y  244   6.530   6.977   4.993 -0.3186 -1.0890 -0.0862
    2SAPS  C312  245   6.610   7.161   4.887 -0.2896  0.4326 -0.7402
    2SAPS  H12X  246   6.658   7.208   4.975  1.0199 -3.8142  1.0860
    2SAPS  H12Y  247   6.555   7.231   4.821 -0.8030  1.5324  0.8229
    2SAPS  C313  248   6.736   7.113   4.802 -0.4171 -0.5171 -0.0774
    2SAPS  H13X  249   6.704   7.061   4.709  1.6952  1.1126 -1.8167
    2SAPS  H13Y  250   6.777   7.019   4.846 -0.5285 -0.9611 -0.9100
    2SAPS  C314  251   6.830   7.226   4.764  0.3716  0.3185  0.7499
    2SAPS  H14X  252   6.924   7.174   4.738 -0.1583 -1.2877  1.8693
    2SAPS  H14Y  253   6.861   7.293   4.847 -0.8803  1.5080  0.3112
    2SAPS  C315  254   6.790   7.318   4.640 -0.1893  0.0717  0.1848
    2SAPS  H15X  255   6.696   7.371   4.667  0.9418  2.9738 -1.1843
    2SAPS  H15Y  256   6.778   7.250   4.553 -0.2043 -1.3725  1.2871
    2SAPS  C316  257   6.890   7.438   4.615  0.0661  0.1439 -0.3269
    2SAPS  H16X  258   6.997   7.410   4.625 -0.3818 -1.5431  0.0147
    2SAPS  H16Y  259   6.867   7.509   4.697  0.2490 -1.7361  1.4406
    2SAPS  C317  260   6.861   7.516   4.487  0.4800  0.1855 -0.4182
    2SAPS  H17X  261   6.768   7.574   4.501 -0.5461 -1.7684  1.2750
    2SAPS  H17Y  262   6.855   7.465   4.389 -3.2517  1.9004 -1.2591
    2SAPS  C318  263   6.977   7.623   4.471  0.8105  0.0669 -0.8613
    2SAPS  H18X  264   6.943   7.715   4.418 -1.1196  0.2794  0.6311
    2SAPS  H18Y  265   7.058   7.564   4.423  0.9024  0.0124 -0.6382
    2SAPS  H18Z  266   7.029   7.659   4.562  0.4199 -0.7547 -0.3096
    3SAPS     N  267   4.542   5.427   6.808  0.3759 -0.6086 -0.1469
    3SAPS   HN1  268   4.620   5.483   6.768  0.1683 -0.6293 -0.5895
    3SAPS   HN2  269   4.467   5.500   6.803  1.0018 -0.0159 -2.1918
    3SAPS   HN3  270   4.559   5.407   6.908 -2.5138 -1.9069  0.2100
    3SAPS   C12  271   4.524   5.308   6.723 -0.1956  0.6500  0.3271
    3SAPS  H12A  272   4.617   5.254   6.725 -0.9278 -0.6977 -0.4828
    3SAPS   C13  273   4.417   5.211   6.780  0.1759 -0.2103  0.7636
    3SAPS  O13A  274   4.362   5.243   6.887  0.5164 -0.0767 -0.4128
    3SAPS  O13B  275   4.409   5.097   6.732  0.4744 -0.6116  0.9874
    3SAPS   C11  276   4.495   5.341   6.569  0.1079  0.3077  0.5138
    3SAPS  H11A  277   4.399   5.397   6.567  0.4120  0.8139 -0.7444
    3SAPS  H11B  278   4.486   5.243   6.517  1.9633 -1.2340  2.8773
    3SAPS     P  279   4.581   5.559   6.450  0.7264  0.7837  0.1565
    3SAPS   O13  280   4.560   5.637   6.570  0.2550 -0.4220  0.8690
    3SAPS   O14  281   4.694   5.594   6.366  0.0609 -0.2262  0.3392
    3SAPS   O12  282   4.598   5.409   6.502  0.1361 -0.0094 -0.4228
    3SAPS   O11  283   4.459   5.536   6.353 -0.4826 -0.1644 -0.2256
    3SAPS    C1  284   4.329   5.579   6.395  0.2366  0.2751  0.8850
    3SAPS    HA  285   4.255   5.497   6.409 -1.0187  1.0482 -0.9476
    3SAPS    HB  286   4.329   5.645   6.485  1.3247  0.7835  0.5205
    3SAPS    C2  287   4.258   5.656   6.282 -0.1363 -0.2799 -0.5472
    3SAPS    HS  288   4.148   5.642   6.293  0.0243 -1.3605 -0.1954
    3SAPS   O21  289   4.305   5.620   6.152  0.0106  0.2874 -0.3247
    3SAPS   C21  290   4.248   5.525   6.095  0.6736  0.2355 -0.6831
    3SAPS   O22  291   4.147   5.466   6.131 -0.2806  1.2408 -0.4039
    3SAPS   C22  292   4.320   5.486   5.965 -0.1238 -0.7600 -0.6457
    3SAPS   H2R  293   4.427   5.470   5.988 -0.1234 -0.5891 -0.5240
    3SAPS   H2S  294   4.280   5.392   5.921  1.4498 -1.3290 -0.9222
    3SAPS    C3  295   4.280   5.810   6.310  0.0108 -0.2899 -0.5230
    3SAPS    HX  296   4.388   5.831   6.292  0.3876 -2.1257 -0.5673
    3SAPS    HY  297   4.251   5.826   6.416 -0.5933  1.0420 -0.8661
    3SAPS   O31  298   4.196   5.885   6.220 -0.1359 -0.2312  0.1665
    3SAPS   C31  299   4.062   5.896   6.258 -0.5244  0.2523  0.4968
    3SAPS   O32  300   4.019   5.831   6.351 -0.1388 -0.0453 -0.1667
    3SAPS   C32  301   3.983   5.976   6.160 -0.9532 -0.3541 -0.2794
    3SAPS   H2X  302   4.054   5.999   6.077 -0.8798  0.4444  0.0023
    3SAPS   H2Y  303   3.956   6.069   6.213  1.8441 -0.2661  1.1757
    3SAPS   C23  304   4.304   5.587   5.845 -0.5285 -0.0959 -0.3249
    3SAPS   H3R  305   4.353   5.683   5.872  0.8909 -1.0609  0.6804
    3SAPS   H3S  306   4.195   5.606   5.845 -0.3951  0.7278 -0.4914
    3SAPS   C24  307   4.356   5.534   5.703  0.2038 -0.7303 -0.2393
    3SAPS   H4R  308   4.465   5.517   5.721  0.3920  0.0680 -0.5706
    3SAPS   H4S  309   4.357   5.621   5.634  1.2850  0.7235  1.5064
    3SAPS   C25  310   4.284   5.408   5.659 -0.4426  0.4724  0.2366
    3SAPS   H5R  311   4.268   5.328   5.733 -0.3285  1.2505  1.1127
    3SAPS   C26  312   4.244   5.378   5.534 -0.5174 -0.6387  0.4347
    3SAPS   H6R  313   4.189   5.285   5.515 -1.1647  0.2260 -2.5819
    3SAPS   C27  314   4.228   5.482   5.418  0.0933  0.6279 -1.2339
    3SAPS   H7R  315   4.254   5.585   5.451 -1.5853  0.1040  2.1358
    3SAPS   H7S  316   4.123   5.479   5.384 -0.0756  2.5218 -1.0077
    3SAPS   C28  317   4.322   5.447   5.299  0.1045  0.5346 -0.2531
    3SAPS   H8R  318   4.416   5.503   5.298  0.8307 -0.6573 -0.0908
    3SAPS   C29  319   4.302   5.349   5.207  0.3409 -0.1898 -0.6397
    3SAPS   H9R  320   4.378   5.320   5.134 -0.3702  0.8053 -1.8108
    3SAPS  C210  321   4.179   5.255   5.192  0.8220  0.6400  0.6758
    3SAPS  H10R  322   4.117   5.262   5.283  0.3747 -1.9324  0.6305
    3SAPS  H10S  323   4.215   5.150   5.191  0.5595  0.5456  1.0937
    3SAPS  C211  324   4.098   5.290   5.072 -0.8100  0.0922 -0.1040
    3SAPS  H11R  325   4.013   5.359   5.079  0.4895  1.9458 -1.6101
    3SAPS  C212  326   4.127   5.242   4.949  0.7260 -0.3541  0.1667
    3SAPS  H12R  327   4.069   5.285   4.866 -0.9029 -1.3802  0.7248
    3SAPS  C213  328   4.224   5.136   4.911  0.6278  0.2786 -0.1818
    3SAPS  H13R  329   4.167   5.054   4.862 -1.5233  0.1497  2.2787
    3SAPS  H13S  330   4.269   5.094   5.003  0.4251  0.3538 -0.0464
    3SAPS  C214  331   4.339   5.183   4.832  0.1816  0.4347  0.0828
    3SAPS  H14R  332   4.386   5.273   4.873  0.2469 -0.2090  1.4814
    3SAPS  C215  333   4.378   5.139   4.716 -0.4517 -0.9476 -0.0852
    3SAPS  H15R  334   4.457   5.194   4.661 -3.5014  1.8817 -2.0221
    3SAPS  C216  335   4.321   5.029   4.634  0.5029 -0.0181  0.3258
    3SAPS  H16R  336   4.248   4.960   4.683  3.9502 -1.6993  3.5769
    3SAPS  H16S  337   4.397   4.964   4.586 -0.7048 -0.3345 -1.2674
    3SAPS  C217  338   4.226   5.105   4.535  0.1795 -0.9871 -0.3469
    3SAPS  H17R  339   4.280   5.181   4.475  1.0104  0.4965  2.1404
    3SAPS  H17S  340   4.151   5.145   4.606  0.5721 -0.4133 -0.2458
    3SAPS  C218  341   4.138   5.021   4.449 -0.7944 -0.5512 -0.2857
    3SAPS  H18R  342   4.106   4.935   4.512 -1.5665 -1.2656 -1.6123
    3SAPS  H18S  343   4.192   4.969   4.367 -0.9285  0.3599 -0.9728
    3SAPS  C219  344   4.020   5.099   4.401 -0.4359  0.2364  0.0814
    3SAPS  H19R  345   3.962   5.140   4.487  0.3669  1.5709  0.0292
    3SAPS  H19S  346   4.047   5.189   4.342 -1.7276 -0.8499 -2.2671
    3SAPS  C220  347   3.915   5.019   4.320  0.9758 -0.3350  0.0808
    3SAPS  H20R  348   3.965   5.003   4.222 -0.2508 -0.3286 -0.5728
    3SAPS  H20S  349   3.821   5.076   4.306  0.4019 -1.3239 -0.1532
    3SAPS  H20T  350   3.885   4.927   4.374 -1.3456  1.6649  2.4154
    3SAPS   C33  351   3.859   5.900   6.101 -0.5498 -0.4837  0.4555
    3SAPS   H3X  352   3.798   5.977   6.049 -0.7642  1.1461  2.9274
    3SAPS   H3Y  353   3.785   5.871   6.179 -0.0752  0.5344  1.3092
    3SAPS   C34  354   3.893   5.785   6.005 -0.4944 -0.4394  0.2842
    3SAPS   H4X  355   3.793   5.745   5.979 -2.0113  1.3692  2.8158
    3SAPS   H4Y  356   3.946   5.697   6.049  0.5827 -0.3724 -0.8130
    3SAPS   C35  357   3.967   5.823   5.876 -0.3843  0.4755  0.1260
    3SAPS   H5X  358   3.928   5.921   5.840 -2.8605  0.3457  2.1901
    3SAPS   H5Y  359   4.078   5.826   5.885 -0.1586 -0.1737 -1.8561
    3SAPS   C36  360   3.939   5.734   5.759  0.5704  0.3589  0.2521
    3SAPS   H6X  361   3.829   5.725   5.768  0.5160  1.3420  0.6642
    3SAPS   H6Y  362   3.978   5.633   5.784 -0.7266 -0.8016 -2.0500
    3SAPS   C37  363   3.995   5.772   5.623 -0.0609  0.2410 -0.3412
    3SAPS   H7X  364   4.106   5.759   5.626  0.2200  2.4207  2.1265
    3SAPS   H7Y  365   3.973   5.879   5.602  2.2164  0.6694 -0.8444
    3SAPS   C38  366   3.933   5.684   5.516  0.0859 -0.1541 -0.0990
    3SAPS   H8X  367   3.823   5.702   5.526 -0.2665 -2.5027  1.0422
    3SAPS   H8Y  368   3.949   5.575   5.535  2.4632  0.1875  0.1034
    3SAPS   C39  369   3.972   5.725   5.373 -0.0521  0.2608 -0.0934
    3SAPS   H9X  370   4.082   5.732   5.367 -0.0670 -0.1968 -1.3720
    3SAPS   H9Y  371   3.926   5.823   5.348  0.3938  0.3841 -0.4266
    3SAPS  C310  372   3.922   5.631   5.267  0.9651 -0.5685 -0.2960
    3SAPS  H10X  373   3.811   5.632   5.274  1.0312  1.6897  2.7255
    3SAPS  H10Y  374   3.961   5.527   5.272 -0.5672 -1.1421  0.4470
    3SAPS  C311  375   3.942   5.689   5.128  0.0100 -0.8255  0.2367
    3SAPS  H11X  376   4.045   5.663   5.095  0.0460  1.1565 -1.4104
    3SAPS  H11Y  377   3.935   5.800   5.126  1.0737 -0.7491  0.4909
    3SAPS  C312  378   3.838   5.632   5.018 -0.2190  0.0199 -0.4873
    3SAPS  H12X  379   3.747   5.692   5.039  0.5508  0.2125  2.9051
    3SAPS  H12Y  380   3.816   5.530   5.056  1.5870  0.2339  1.3073
    3SAPS  C313  381   3.884   5.613   4.875 -0.2528 -0.5353 -0.0493
    3SAPS  H13X  382   3.992   5.588   4.873  0.5430  2.4046  0.9688
    3SAPS  H13Y  383   3.880   5.711   4.822  2.0580 -1.0252 -1.2881
    3SAPS  C314  384   3.802   5.502   4.804  0.2184  0.2628 -0.7825
    3SAPS  H14X  385   3.695   5.528   4.794  0.2795  0.6363 -0.4592
    3SAPS  H14Y  386   3.800   5.403   4.856 -2.1530  0.1746 -0.9219
    3SAPS  C315  387   3.844   5.479   4.653 -0.7469 -0.4967 -0.4742
    3SAPS  H15X  388   3.781   5.402   4.602  0.7809 -2.1352  0.0312
    3SAPS  H15Y  389   3.949   5.447   4.672 -1.6697 -2.2691  2.2891
    3SAPS  C316  390   3.854   5.608   4.566  0.8259  0.8815 -0.5386
    3SAPS  H16X  391   3.911   5.681   4.629 -1.2034  1.1191  1.1529
    3SAPS  H16Y  392   3.758   5.654   4.533 -0.0015  0.5076  1.2137
    3SAPS  C317  393   3.935   5.586   4.444 -0.2605 -0.0987 -0.8541
    3SAPS  H17X  394   3.881   5.529   4.366 -1.5443  2.6842 -2.1086
    3SAPS  H17Y  395   4.026   5.526   4.469  0.1804 -0.3597 -2.9366
    3SAPS  C318  396   3.972   5.717   4.381 -0.3259  0.5542 -0.0262
    3SAPS  H18X  397   4.030   5.785   4.446  2.2305 -1.2908 -0.2410
    3SAPS  H18Y  398   3.878   5.766   4.347  0.2501  0.8521 -1.2267
    3SAPS  H18Z  399   4.042   5.702   4.296 -0.7989 -0.5072 -0.2474
    4SAPS     N  400   3.247   3.125   6.292  0.0563 -0.6111  0.2015
    4SAPS   HN1  401   3.336   3.138   6.238 -0.2391  2.4952  0.2557
    4SAPS   HN2  402   3.226   3.024   6.306 -1.5636 -0.1026  1.7093
    4SAPS   HN3  403   3.170   3.157   6.229 -0.1609 -0.8366  0.3517
    4SAPS   C12  404   3.234   3.201   6.419 -0.0421 -0.2283  0.5792
    4SAPS  H12A  405   3.245   3.306   6.397  0.7000 -0.2349  0.8869
    4SAPS   C13  406   3.096   3.184   6.484  0.2659  0.2259 -0.2121
    4SAPS  O13A  407   3.012   3.107   6.428  0.5959  0.0786 -0.6661
    4SAPS  O13B  408   3.072   3.230   6.595 -0.4153 -0.3681  0.2735
    4SAPS   C11  409   3.352   3.164   6.510 -0.4179 -0.9448  0.1822
    4SAPS  H11A  410   3.340   3.055   6.529 -4.2493 -0.7267 -0.1447
    4SAPS  H11B  411   3.344   3.217   6.608  0.5952 -0.8545  0.2254
    4SAPS     P  412   3.613   3.187   6.523  0.2581 -0.3622 -0.0771
    4SAPS   O13  413   3.658   3.327   6.543 -0.8342 -0.1292 -0.2401
    4SAPS   O14  414   3.577   3.114   6.650  0.3377 -0.3390  0.9041
    4SAPS   O12  415   3.482   3.197   6.437  0.1897 -0.3233 -0.7047
    4SAPS   O11  416   3.726   3.096   6.450  0.4966  0.5879  0.5429
    4SAPS    C1  417   3.680   3.025   6.330  0.2110 -0.1131 -0.1213
    4SAPS    HA  418   3.749   2.939   6.324  0.7495  0.2697  0.4417
    4SAPS    HB  419   3.577   2.982   6.333 -0.0140  0.2486 -1.7647
    4SAPS    C2  420   3.702   3.113   6.205  0.7112 -0.1813 -0.4144
    4SAPS    HS  421   3.632   3.198   6.222  0.5833 -0.6226  1.5756
    4SAPS   O21  422   3.666   3.023   6.095  0.5449  0.1219 -0.2891
    4SAPS   C21  423   3.534   3.023   6.060 -0.6417 -0.1105 -0.0466
    4SAPS   O22  424   3.449   3.091   6.108 -0.6646  0.8027 -0.8094
    4SAPS   C22  425   3.515   2.913   5.944 -0.3470  0.2614 -0.3667
    4SAPS   H2R  426   3.539   2.811   5.980 -1.0142  0.7596  1.6221
    4SAPS   H2S  427   3.407   2.917   5.921 -0.2605  2.3152 -0.6062
    4SAPS    C3  428   3.848   3.171   6.193 -0.6134  0.2642  0.1468
    4SAPS    HX  429   3.917   3.084   6.188 -0.7874  0.1475 -0.2490
    4SAPS    HY  430   3.865   3.234   6.284 -0.2452  1.6789 -0.8591
    4SAPS   O31  431   3.858   3.248   6.073 -0.1798 -0.2595 -0.1601
    4SAPS   C31  432   3.936   3.200   5.972 -0.0201 -0.2160 -0.4115
    4SAPS   O32  433   4.001   3.097   5.972 -0.0777  0.0061 -0.4336
    4SAPS   C32  434   3.930   3.308   5.867 -0.8896 -0.2362  0.0355
    4SAPS   H2X  435   4.017   3.375   5.888 -1.9941  1.0332  0.6628
    4SAPS   H2Y  436   3.832   3.359   5.875 -0.6598  0.3862 -0.9502
    4SAPS   C23  437   3.600   2.933   5.819 -0.2145 -0.2960  0.3038
    4SAPS   H3R  438   3.698   2.888   5.845 -0.0948 -0.0826  0.2280
    4SAPS   H3S  439   3.601   3.040   5.789  0.1018 -0.3818 -0.0048
    4SAPS   C24  440   3.546   2.852   5.687 -0.4488  0.3952 -0.3694
    4SAPS   H4R  441   3.501   2.759   5.726 -1.0299  1.0948  0.6991
    4SAPS   H4S  442   3.634   2.813   5.631  0.3099 -1.3215  1.8625
    4SAPS   C25  443   3.450   2.933   5.599 -0.0208  0.5050  0.5113
    4SAPS   H5R  444   3.388   3.007   5.652 -0.1707  1.1856 -0.5842
    4SAPS   C26  445   3.432   2.912   5.465  0.6745  0.0474 -0.1778
    4SAPS   H6R  446   3.382   2.986   5.401 -1.3431 -2.0679 -1.1862
    4SAPS   C27  447   3.515   2.814   5.380 -0.0935  0.4168 -0.1564
    4SAPS   H7R  448   3.584   2.752   5.441 -1.3193 -0.8086  0.0329
    4SAPS   H7S  449   3.587   2.864   5.312 -1.3488  2.3319 -0.1382
    4SAPS   C28  450   3.422   2.727   5.299 -0.1185  0.3167  0.6977
    4SAPS   H8R  451   3.383   2.635   5.344  0.2380 -0.0003  0.3630
    4SAPS   C29  452   3.399   2.746   5.168 -0.1772 -0.0447 -0.1237
    4SAPS   H9R  453   3.336   2.673   5.115 -0.7904  0.5039 -0.1557
    4SAPS  C210  454   3.455   2.860   5.080 -0.0995  0.2691 -0.6283
    4SAPS  H10R  455   3.555   2.826   5.045 -0.5092  0.1377 -1.7030
    4SAPS  H10S  456   3.475   2.945   5.150  0.0272 -1.4229  1.4977
    4SAPS  C211  457   3.364   2.913   4.976 -0.1804 -0.5047  1.2469
    4SAPS  H11R  458   3.268   2.962   5.000  0.2735  2.6392 -2.3711
    4SAPS  C212  459   3.395   2.912   4.840  0.2930 -0.3010 -0.4318
    4SAPS  H12R  460   3.340   2.972   4.765 -1.0624 -0.9477  0.0186
    4SAPS  C213  461   3.519   2.859   4.772 -0.0336  0.2787  0.0933
    4SAPS  H13R  462   3.601   2.836   4.842 -0.4149  3.7138  1.9183
    4SAPS  H13S  463   3.551   2.945   4.709  1.3013 -0.8875 -0.8788
    4SAPS  C214  464   3.493   2.737   4.683  0.1201 -0.5038 -0.5448
    4SAPS  H14R  465   3.448   2.652   4.736  2.5479 -1.2503  0.4398
    4SAPS  C215  466   3.533   2.727   4.554  0.1307 -0.2716  0.0417
    4SAPS  H15R  467   3.521   2.631   4.501  2.0950 -1.0837  0.9516
    4SAPS  C216  468   3.608   2.829   4.474 -0.3265 -0.1799 -0.1507
    4SAPS  H16R  469   3.676   2.784   4.398 -1.3413 -0.4550 -0.9283
    4SAPS  H16S  470   3.668   2.894   4.541 -0.0745  2.2418 -2.5549
    4SAPS  C217  471   3.523   2.922   4.384  1.2353  0.2541  0.7561
    4SAPS  H17R  472   3.583   3.012   4.357  1.7712 -0.6083 -1.1111
    4SAPS  H17S  473   3.435   2.955   4.443  0.0560 -0.6892 -0.4155
    4SAPS  C218  474   3.477   2.835   4.265 -0.1521 -0.3252 -0.0494
    4SAPS  H18R  475   3.433   2.740   4.302 -0.0235  0.1386  1.3306
    4SAPS  H18S  476   3.556   2.801   4.195 -0.1639  3.3532 -2.1382
    4SAPS  C219  477   3.370   2.897   4.175 -0.5112 -0.4949 -0.2181
    4SAPS  H19R  478   3.275   2.905   4.231 -0.7875 -1.0676 -0.5926
    4SAPS  H19S  479   3.349   2.827   4.092 -1.1754 -1.6165  0.8530
    4SAPS  C220  480   3.412   3.041   4.127  0.1020  0.3938 -0.2085
    4SAPS  H20R  481   3.499   3.034   4.059  0.5792  0.2443  0.4126
    4SAPS  H20S  482   3.446   3.112   4.205  2.8994 -0.6253 -0.4198
    4SAPS  H20T  483   3.331   3.095   4.072  0.4719  2.3465  1.0734
    4SAPS   C33  484   3.941   3.247   5.728  0.1198  0.2288 -0.1855
    4SAPS   H3X  485   4.037   3.193   5.712 -0.9781 -1.8241 -0.1749
    4SAPS   H3Y  486   3.928   3.328   5.653 -0.5860  0.9543  0.6973
    4SAPS   C34  487   3.817   3.163   5.695  0.3510 -0.5960 -0.3464
    4SAPS   H4X  488   3.735   3.230   5.663  0.8756  1.6297  2.5069
    4SAPS   H4Y  489   3.791   3.108   5.788  0.5057 -0.8197 -0.4363
    4SAPS   C35  490   3.842   3.070   5.576  0.7684  0.2328  0.5635
    4SAPS   H5X  491   3.743   3.022   5.561  0.0336  2.1958 -1.3711
    4SAPS   H5Y  492   3.930   3.002   5.581 -0.7121 -1.7744  0.2163
    4SAPS   C36  493   3.875   3.146   5.448 -0.0652 -0.2718 -0.4277
    4SAPS   H6X  494   3.981   3.178   5.455 -0.4845  1.1876 -0.5925
    4SAPS   H6Y  495   3.814   3.238   5.443  1.5394  0.8152 -0.8563
    4SAPS   C37  496   3.861   3.057   5.319 -0.6338 -0.0272 -0.0966
    4SAPS   H7X  497   3.763   3.006   5.326 -0.4039 -0.3470  1.0524
    4SAPS   H7Y  498   3.939   2.979   5.331 -0.4567  0.3003  1.0043
    4SAPS   C38  499   3.884   3.139   5.190 -0.7146 -0.4762  0.2526
    4SAPS   H8X  500   3.983   3.189   5.190 -0.3209 -1.1091 -2.0388
    4SAPS   H8Y  501   3.806   3.217   5.194  0.2130  0.5571 -0.9611
    4SAPS   C39  502   3.863   3.061   5.056  0.0038  0.0705 -0.8524
    4SAPS   H9X  503   3.765   3.008   5.058 -0.6882  1.2577  2.1140
    4SAPS   H9Y  504   3.947   2.989   5.039 -1.0545 -1.3966 -0.1025
    4SAPS  C310  505   3.844   3.148   4.929 -0.7350 -0.0441 -0.2841
    4SAPS  H10X  506   3.754   3.207   4.954 -0.3748  0.0497  0.8882
    4SAPS  H10Y  507   3.825   3.079   4.844  1.3737 -3.3867  1.6947
    4SAPS  C311  508   3.942   3.258   4.905 -0.5216  1.0255  0.0225
    4SAPS  H11X  509   4.033   3.201   4.877 -0.2028  1.1906  0.7104
    4SAPS  H11Y  510   3.975   3.313   4.996  1.0920  0.6776 -0.3175
    4SAPS  C312  511   3.913   3.342   4.785  0.2751 -0.5763  0.3805
    4SAPS  H12X  512   3.827   3.411   4.797  1.1030  0.5194  0.2182
    4SAPS  H12Y  513   3.894   3.271   4.702 -2.2410 -0.5217  0.8393
    4SAPS  C313  514   4.038   3.427   4.760  0.2562  0.2658  0.1473
    4SAPS  H13X  515   4.130   3.364   4.761  0.6435  0.7684 -1.4604
    4SAPS  H13Y  516   4.055   3.502   4.840 -1.4679 -0.0033  0.7912
    4SAPS  C314  517   4.040   3.508   4.628  0.0074 -0.7940 -0.3182
    4SAPS  H14X  518   3.960   3.585   4.636 -1.3699 -2.1869 -0.1573
    4SAPS  H14Y  519   4.010   3.440   4.545  2.1533 -2.7214  0.3916
    4SAPS  C315  520   4.179   3.565   4.599  0.2689  0.6757  0.1326
    4SAPS  H15X  521   4.257   3.486   4.603  0.8664  1.1469 -1.3453
    4SAPS  H15Y  522   4.213   3.632   4.680  0.1270 -0.3333  1.0546
    4SAPS  C316  523   4.189   3.634   4.465  0.4277  0.2167 -0.0830
    4SAPS  H16X  524   4.277   3.703   4.470 -0.3200  1.0824  1.9750
    4SAPS  H16Y  525   4.103   3.704   4.462  0.4649  0.2676  0.0377
    4SAPS  C317  526   4.210   3.530   4.361  0.0982 -0.1872  0.3440
    4SAPS  H17X  527   4.120   3.465   4.356 -1.9806  2.1491  3.7696
    4SAPS  H17Y  528   4.300   3.473   4.393  1.1798  2.0535  1.5365
    4SAPS  C318  529   4.231   3.597   4.228 -0.1829 -0.4575 -0.0940
    4SAPS  H18X  530   4.133   3.634   4.191 -1.1889 -1.8681  1.0221
    4SAPS  H18Y  531   4.272   3.529   4.149  2.1221  1.0170 -0.2410
    4SAPS  H18Z  532   4.305   3.680   4.230 -0.7135  0.0184 -0.1160
    5SAPS     N  533   4.963   5.649   6.365  0.3597 -0.1761 -0.0048
    5SAPS   HN1  534   4.984   5.655   6.264  0.6892  1.3818  0.1305
    5SAPS   HN2  535   4.864   5.618   6.379  0.4683  0.3736  2.4657
    5SAPS   HN3  536   4.981   5.743   6.406 -2.6467  0.7419 -0.5013
    5SAPS   C12  537   5.064   5.550   6.422  0.4947 -0.5789  0.2905
    5SAPS  H12A  538   5.165   5.578   6.398  1.2437 -2.2464  1.3532
    5SAPS   C13  539   5.055   5.527   6.574  0.0809  0.1450  0.1521
    5SAPS  O13A  540   4.947   5.550   6.630 -0.1075 -0.5100 -0.1976
    5SAPS  O13B  541   5.148   5.461   6.627 -0.6429  0.3563  0.0807
    5SAPS   C11  542   5.020   5.417   6.351 -0.4478 -0.1437 -0.2226
    5SAPS  H11A  543   4.912   5.404   6.371  0.0456 -0.6658  2.5244
    5SAPS  H11B  544   5.070   5.328   6.394  1.3067  0.6801 -0.4740
    5SAPS     P  545   5.178   5.355   6.146  0.1201 -0.4928 -0.0550
    5SAPS   O13  546   5.254   5.465   6.075 -0.1175  1.1954 -0.0741
    5SAPS   O14  547   5.258   5.295   6.255 -0.2489  0.6005 -0.2926
    5SAPS   O12  548   5.046   5.422   6.208  0.0108 -0.4564  0.0453
    5SAPS   O11  549   5.127   5.245   6.043 -0.2628 -0.5610  0.4280
    5SAPS    C1  550   4.988   5.200   6.054 -0.2357  0.3320  0.5472
    5SAPS    HA  551   4.959   5.169   6.156  1.7142 -2.7026  0.3002
    5SAPS    HB  552   4.918   5.276   6.013  0.2889  0.4078 -0.2351
    5SAPS    C2  553   4.955   5.073   5.967  0.4134  0.1997  0.2504
    5SAPS    HS  554   5.028   4.997   6.004  1.1252  0.1945 -1.0993
    5SAPS   O21  555   4.981   5.114   5.831 -0.0956 -0.1354  0.5990
    5SAPS   C21  556   5.071   5.033   5.773 -1.2724  0.1880 -0.0499
    5SAPS   O22  557   5.134   4.941   5.823 -0.4710 -0.1734  0.0734
    5SAPS   C22  558   5.076   5.064   5.627  0.3436 -0.5303 -0.1914
    5SAPS   H2R  559   4.975   5.045   5.586 -0.1597  2.2752 -0.4367
    5SAPS   H2S  560   5.085   5.175   5.620  0.4244 -0.5569 -0.5464
    5SAPS    C3  561   4.813   5.025   6.000 -0.2517  0.1324  0.2462
    5SAPS    HX  562   4.735   5.089   5.955 -0.2537 -1.0170 -1.4937
    5SAPS    HY  563   4.795   5.011   6.109  0.1190  0.3363  0.3374
    5SAPS   O31  564   4.788   4.894   5.941  0.1720  0.2885 -0.0629
    5SAPS   C31  565   4.656   4.862   5.945  0.4991  0.3066  0.3105
    5SAPS   O32  566   4.569   4.928   5.999 -0.3699  0.1685  0.5873
    5SAPS   C32  567   4.633   4.721   5.881 -0.1446 -0.0004 -0.3053
    5SAPS   H2X  568   4.549   4.671   5.935  0.8673 -0.1686  1.1708
    5SAPS   H2Y  569   4.717   4.651   5.897  0.0239 -1.0062 -4.5521
    5SAPS   C23  570   5.191   5.004   5.546 -1.1418  0.2495 -0.4329
    5SAPS   H3R  571   5.204   4.903   5.591  0.6025  0.0866 -1.2075
    5SAPS   H3S  572   5.289   5.056   5.557 -2.0146  2.0255 -0.8664
    5SAPS   C24  573   5.155   4.997   5.398  0.3728 -0.2997 -0.1670
    5SAPS   H4R  574   5.053   4.954   5.391 -1.0498  3.0345 -2.8754
    5SAPS   H4S  575   5.229   4.926   5.353  1.0233 -1.1535  2.0932
    5SAPS   C25  576   5.144   5.133   5.331 -0.3939  0.1332  0.0907
    5SAPS   H5R  577   5.091   5.216   5.380  0.1939  1.2460 -1.1201
    5SAPS   C26  578   5.218   5.167   5.225  0.1471  0.0699 -0.0648
    5SAPS   H6R  579   5.204   5.260   5.168  1.1402 -0.8384 -1.8962
    5SAPS   C27  580   5.303   5.071   5.146 -0.2689  1.0052  0.2206
    5SAPS   H7R  581   5.238   4.996   5.097  0.5425  0.3265  0.1542
    5SAPS   H7S  582   5.366   5.006   5.210 -1.4598 -0.8572 -0.4366
    5SAPS   C28  583   5.402   5.133   5.046  0.0706 -0.1789 -0.4616
    5SAPS   H8R  584   5.407   5.243   5.041 -1.8438 -0.1140 -2.6167
    5SAPS   C29  585   5.462   5.068   4.940 -0.3171 -1.0340  0.0569
    5SAPS   H9R  586   5.531   5.132   4.884  0.1170 -0.1773  1.4988
    5SAPS  C210  587   5.467   4.919   4.924  0.4715  0.0748 -0.4220
    5SAPS  H10R  588   5.413   4.857   4.999  0.4037 -0.7364 -1.1308
    5SAPS  H10S  589   5.571   4.880   4.933  0.1275 -0.7092  0.3292
    5SAPS  C211  590   5.418   4.877   4.783 -0.0812  0.7743  0.1193
    5SAPS  H11R  591   5.309   4.876   4.772 -0.0830 -2.3745 -0.5837
    5SAPS  C212  592   5.494   4.829   4.680 -1.0599 -0.3211  0.2395
    5SAPS  H12R  593   5.444   4.815   4.583  0.4913  0.8491 -0.7856
    5SAPS  C213  594   5.642   4.797   4.681  0.4434  0.0973  0.0954
    5SAPS  H13R  595   5.647   4.702   4.738 -1.3679  0.3914  0.7911
    5SAPS  H13S  596   5.697   4.882   4.726 -1.5437  1.4428  0.0924
    5SAPS  C214  597   5.699   4.768   4.539  0.1535 -0.3509  0.2745
    5SAPS  H14R  598   5.748   4.670   4.545 -0.3885 -0.6407  0.1035
    5SAPS  C215  599   5.691   4.839   4.424  0.3086  0.0464 -0.1990
    5SAPS  H15R  600   5.754   4.798   4.343  1.3485 -1.3917  1.2784
    5SAPS  C216  601   5.632   4.974   4.402 -1.3978 -0.0668  0.3524
    5SAPS  H16R  602   5.549   5.007   4.467  0.1126  1.3398  1.6647
    5SAPS  H16S  603   5.581   4.966   4.304  1.6421 -1.0492 -1.2962
    5SAPS  C217  604   5.740   5.089   4.389  0.2897 -0.0134 -0.1061
    5SAPS  H17R  605   5.819   5.073   4.465 -0.1428  1.5987  0.7383
    5SAPS  H17S  606   5.689   5.184   4.416 -0.4445 -0.6411  0.7704
    5SAPS  C218  607   5.798   5.089   4.241  0.1450 -0.6322  0.1228
    5SAPS  H18R  608   5.703   5.077   4.185  1.1140 -1.6399 -1.4075
    5SAPS  H18S  609   5.864   5.002   4.217 -0.0431 -0.6606 -0.3042
    5SAPS  C219  610   5.853   5.223   4.199  0.5398 -0.1607 -0.1344
    5SAPS  H19R  611   5.960   5.239   4.224  0.1348  2.0251  0.4101
    5SAPS  H19S  612   5.801   5.298   4.262  1.7908 -0.4449  1.2901
    5SAPS  C220  613   5.821   5.244   4.048 -0.1496 -0.4594 -0.0074
    5SAPS  H20R  614   5.869   5.340   4.018  0.5700 -0.4345  1.1672
    5SAPS  H20S  615   5.711   5.250   4.034 -0.3066 -2.1704  0.2581
    5SAPS  H20T  616   5.863   5.160   3.988  0.4141 -0.4236  0.3254
    5SAPS   C33  617   4.609   4.725   5.734  0.1087 -0.6825  0.2651
    5SAPS   H3X  618   4.688   4.782   5.680 -0.0293 -0.8035 -0.0668
    5SAPS   H3Y  619   4.509   4.772   5.721  0.5066 -0.1185 -0.8775
    5SAPS   C34  620   4.591   4.586   5.683 -0.2261  0.8226  0.1545
    5SAPS   H4X  621   4.502   4.540   5.730  0.8568 -0.1244  1.3336
    5SAPS   H4Y  622   4.676   4.521   5.712 -1.6901 -1.2666 -0.0552
    5SAPS   C35  623   4.586   4.592   5.530  0.1521  0.3000 -0.6564
    5SAPS   H5X  624   4.682   4.635   5.493  1.0049  0.4068  1.5308
    5SAPS   H5Y  625   4.518   4.669   5.488  0.1180  0.7592  0.2135
    5SAPS   C36  626   4.545   4.466   5.458 -0.3995  0.2485 -0.0694
    5SAPS   H6X  627   4.445   4.425   5.482 -0.6204  0.4999 -0.5575
    5SAPS   H6Y  628   4.606   4.379   5.491 -0.4332 -0.0057 -0.6584
    5SAPS   C37  629   4.559   4.477   5.306  0.1150  0.8377 -0.5203
    5SAPS   H7X  630   4.654   4.528   5.279  0.7872  0.4524  0.9998
    5SAPS   H7Y  631   4.485   4.539   5.251  2.4879  2.2741 -2.3206
    5SAPS   C38  632   4.561   4.337   5.236  0.2525 -0.7066  0.5431
    5SAPS   H8X  633   4.475   4.297   5.294  0.5161 -1.9654  0.1127
    5SAPS   H8Y  634   4.652   4.273   5.246  1.3263  0.3852 -1.5160
    5SAPS   C39  635   4.511   4.345   5.088  0.4628  0.2509 -0.6711
    5SAPS   H9X  636   4.594   4.395   5.033  1.8622 -0.5407  0.6311
    5SAPS   H9Y  637   4.416   4.402   5.088 -1.9739 -3.4100 -0.4010
    5SAPS  C310  638   4.475   4.214   5.014  0.3011  0.2629  0.2593
    5SAPS  H10X  639   4.389   4.163   5.061 -0.9758  1.1086 -1.0739
    5SAPS  H10Y  640   4.560   4.143   5.022  1.2844  0.8805 -3.0654
    5SAPS  C311  641   4.442   4.228   4.856 -0.3871 -0.5471  0.1049
    5SAPS  H11X  642   4.473   4.133   4.807 -0.0412  0.2082 -1.2068
    5SAPS  H11Y  643   4.497   4.317   4.817  1.2347 -1.3377  0.4828
    5SAPS  C312  644   4.291   4.243   4.823 -0.2469  0.1891 -0.0735
    5SAPS  H12X  645   4.256   4.339   4.867  0.3265  0.5064 -0.2977
    5SAPS  H12Y  646   4.227   4.166   4.871  0.2286 -1.3228 -1.7615
    5SAPS  C313  647   4.271   4.264   4.669 -0.1065 -0.2266 -0.7675
    5SAPS  H13X  648   4.361   4.323   4.642 -0.2788  1.2965  1.6476
    5SAPS  H13Y  649   4.170   4.312   4.665 -1.3268 -2.5288  0.3192
    5SAPS  C314  650   4.291   4.129   4.603  0.5179 -0.3514 -0.7600
    5SAPS  H14X  651   4.236   4.050   4.658 -1.0454  1.6598  0.7182
    5SAPS  H14Y  652   4.400   4.106   4.597  1.1441  1.6525  1.5594
    5SAPS  C315  653   4.242   4.135   4.462 -0.1320 -0.1475 -0.0241
    5SAPS  H15X  654   4.316   4.074   4.405  1.8109  2.3257 -0.3650
    5SAPS  H15Y  655   4.260   4.237   4.421  0.1268 -0.8802 -1.8300
    5SAPS  C316  656   4.100   4.080   4.447  0.4417 -0.2003  0.8792
    5SAPS  H16X  657   4.041   4.157   4.500 -0.0218  0.5907 -0.7381
    5SAPS  H16Y  658   4.089   3.984   4.502  2.9125 -1.3037 -0.3867
    5SAPS  C317  659   4.058   4.072   4.300 -0.2986  0.3384 -0.1069
    5SAPS  H17X  660   4.074   4.166   4.244 -0.7668  1.3838  1.4416
    5SAPS  H17Y  661   3.950   4.046   4.293  0.2041 -2.5441  1.2684
    5SAPS  C318  662   4.151   3.974   4.210  0.2555  0.2014  0.4058
    5SAPS  H18X  663   4.149   4.006   4.104 -0.9902 -0.8754  0.0845
    5SAPS  H18Y  664   4.109   3.872   4.215 -2.4680  1.2748  0.9230
    5SAPS  H18Z  665   4.256   3.977   4.247 -0.0952  1.1719  1.3842
    6SAPS     N  666   1.710   5.185   6.683 -0.2484 -0.2977  0.2766
    6SAPS   HN1  667   1.660   5.165   6.594  1.3357  0.3796 -0.8154
    6SAPS   HN2  668   1.807   5.215   6.662 -1.1520  3.4790  0.6843
    6SAPS   HN3  669   1.729   5.094   6.730 -2.0654 -1.8991 -1.8651
    6SAPS   C12  670   1.636   5.277   6.774 -0.6599  0.7042 -0.9611
    6SAPS  H12A  671   1.537   5.233   6.768 -0.2453 -0.4995  0.4187
    6SAPS   C13  672   1.682   5.285   6.924 -0.7104 -0.3245 -0.1014
    6SAPS  O13A  673   1.751   5.190   6.966  0.0877  0.0375 -0.2984
    6SAPS  O13B  674   1.610   5.349   7.007 -0.1688 -0.7991 -0.3101
    6SAPS   C11  675   1.641   5.421   6.718  0.2022 -0.0544  0.3829
    6SAPS  H11A  676   1.743   5.459   6.692  0.5784 -1.4472 -0.3338
    6SAPS  H11B  677   1.607   5.487   6.800 -1.0522 -0.7470  0.4369
    6SAPS     P  678   1.564   5.576   6.527 -0.2118  0.2596  0.0314
    6SAPS   O13  679   1.441   5.589   6.445  0.6695 -0.6002  0.3295
    6SAPS   O14  680   1.587   5.682   6.621 -1.0012 -0.4769  0.4860
    6SAPS   O12  681   1.549   5.434   6.608  0.1909 -0.5453  0.2609
    6SAPS   O11  682   1.695   5.563   6.435 -0.2594 -0.8102 -0.4652
    6SAPS    C1  683   1.722   5.435   6.378 -0.2461 -0.2697  0.4469
    6SAPS    HA  684   1.827   5.400   6.394  0.9281  1.9000 -1.8169
    6SAPS    HB  685   1.664   5.351   6.421 -0.0624 -0.5683  0.1199
    6SAPS    C2  686   1.695   5.436   6.218 -0.1975  0.3368 -0.4422
    6SAPS    HS  687   1.785   5.462   6.158 -0.4669 -1.2667 -1.6096
    6SAPS   O21  688   1.581   5.517   6.183 -0.0299  0.1314 -0.7293
    6SAPS   C21  689   1.614   5.637   6.150  0.3308 -0.6898  0.9868
    6SAPS   O22  690   1.724   5.675   6.119 -0.0318  0.4262 -0.0699
    6SAPS   C22  691   1.483   5.723   6.152  0.0778  0.2701  1.0481
    6SAPS   H2R  692   1.395   5.660   6.128  0.8576 -0.8882  1.1270
    6SAPS   H2S  693   1.483   5.758   6.258  1.3168  1.5837  0.6500
    6SAPS    C3  694   1.674   5.299   6.168 -0.3158  0.0778 -0.6963
    6SAPS    HX  695   1.615   5.248   6.247 -0.5231  0.1190 -0.8251
    6SAPS    HY  696   1.777   5.255   6.169  0.8255  2.5373  1.6109
    6SAPS   O31  697   1.615   5.308   6.042  0.0863 -0.0087 -0.0339
    6SAPS   C31  698   1.489   5.287   6.038 -0.4354 -0.4663  0.4312
    6SAPS   O32  699   1.415   5.266   6.129 -0.3982 -0.3962  0.0026
    6SAPS   C32  700   1.454   5.297   5.890 -0.0362 -0.4847  0.6760
    6SAPS   H2X  701   1.411   5.397   5.869 -0.9933 -1.4454 -2.3715
    6SAPS   H2Y  702   1.379   5.219   5.867  0.2448 -0.0837 -1.8633
    6SAPS   C23  703   1.483   5.849   6.058 -0.0415  0.1890  0.7794
    6SAPS   H3R  704   1.582   5.898   6.044 -1.1434  2.5803  0.9410
    6SAPS   H3S  705   1.432   5.933   6.110 -0.3730  0.1460  0.5241
    6SAPS   C24  706   1.430   5.821   5.912 -0.0625  0.6223  0.5405
    6SAPS   H4R  707   1.441   5.926   5.876 -1.5082  0.8303  0.6419
    6SAPS   H4S  708   1.320   5.814   5.907  0.0674 -0.8275 -0.7582
    6SAPS   C25  709   1.492   5.724   5.811 -0.0041 -0.4530 -0.2761
    6SAPS   H5R  710   1.568   5.659   5.857  0.7529  0.8101  0.2995
    6SAPS   C26  711   1.477   5.729   5.678  0.0305  0.4171 -0.6318
    6SAPS   H6R  712   1.536   5.658   5.617  0.4010 -0.7597  1.0348
    6SAPS   C27  713   1.381   5.816   5.604 -0.2496  0.3476 -0.4957
    6SAPS   H7R  714   1.302   5.867   5.663 -0.9499 -1.7657  0.5080
    6SAPS   H7S  715   1.325   5.744   5.540  0.6492 -1.6779  0.8659
    6SAPS   C28  716   1.438   5.927   5.525 -0.4023  0.3812 -0.1640
    6SAPS   H8R  717   1.491   6.004   5.583 -2.5927  0.9561  1.2117
    6SAPS   C29  718   1.468   5.912   5.391 -0.8343  0.3807 -0.4115
    6SAPS   H9R  719   1.517   5.993   5.334  0.4228  1.5369  2.1341
    6SAPS  C210  720   1.420   5.803   5.304  0.2156  1.2293 -0.2731
    6SAPS  H10R  721   1.341   5.743   5.353 -0.1962  0.7939 -1.4460
    6SAPS  H10S  722   1.500   5.727   5.293 -0.6929 -0.2321  2.3535
    6SAPS  C211  723   1.369   5.840   5.166  0.8848  0.0701 -0.5320
    6SAPS  H11R  724   1.271   5.889   5.172 -0.1335 -1.8888 -0.3876
    6SAPS  C212  725   1.422   5.808   5.049  0.6844 -0.8764  0.4563
    6SAPS  H12R  726   1.381   5.858   4.961  0.9182  1.1960  1.4580
    6SAPS  C213  727   1.558   5.747   5.023 -0.6604  0.0510  0.2465
    6SAPS  H13R  728   1.615   5.718   5.114 -1.3714  1.3426  1.1440
    6SAPS  H13S  729   1.623   5.819   4.970  0.3857 -2.2853 -1.7892
    6SAPS  C214  730   1.531   5.621   4.946  0.5700 -0.3005 -0.2539
    6SAPS  H14R  731   1.464   5.541   4.980  0.0873 -0.2253 -1.0093
    6SAPS  C215  732   1.590   5.586   4.831  0.1886 -0.4783 -0.2436
    6SAPS  H15R  733   1.553   5.498   4.778  0.0588 -0.0694 -0.8436
    6SAPS  C216  734   1.711   5.664   4.765  1.0602  0.6611  1.0181
    6SAPS  H16R  735   1.781   5.581   4.741  0.0573 -0.2497  1.1627
    6SAPS  H16S  736   1.759   5.724   4.845  1.1876  0.3676  1.1589
    6SAPS  C217  737   1.669   5.740   4.637 -0.5657  0.0789 -0.1242
    6SAPS  H17R  738   1.640   5.666   4.560  0.2286 -1.5575  1.0846
    6SAPS  H17S  739   1.755   5.796   4.597 -1.9278  1.4594 -1.2440
    6SAPS  C218  740   1.561   5.845   4.664  0.2235 -0.9621 -0.0179
    6SAPS  H18R  741   1.602   5.927   4.726  0.6470 -1.5548  0.4882
    6SAPS  H18S  742   1.488   5.791   4.728  1.2298 -0.6312  1.4373
    6SAPS  C219  743   1.485   5.884   4.533  0.1695 -0.0621  0.2041
    6SAPS  H19R  744   1.393   5.941   4.557  0.1268 -0.7257  1.7630
    6SAPS  H19S  745   1.446   5.791   4.485 -0.1197 -0.7392  1.6786
    6SAPS  C220  746   1.565   5.962   4.431 -0.2750  0.2801 -0.2279
    6SAPS  H20R  747   1.513   5.969   4.334 -4.3241 -0.4128  1.6891
    6SAPS  H20S  748   1.664   5.914   4.416 -0.4305 -0.2517  0.3792
    6SAPS  H20T  749   1.584   6.064   4.472 -0.0585  0.2435 -0.2353
    6SAPS   C33  750   1.573   5.279   5.789  0.1463  0.0422  0.2956
    6SAPS   H3X  751   1.600   5.173   5.770  0.4966 -0.8669  4.7601
    6SAPS   H3Y  752   1.665   5.330   5.824 -0.7993  1.3049  1.0763
    6SAPS   C34  753   1.567   5.360   5.654  1.0097  0.8538 -0.5254
    6SAPS   H4X  754   1.671   5.389   5.628  0.7069  0.6228 -2.0655
    6SAPS   H4Y  755   1.516   5.456   5.675 -2.6415 -0.3634 -2.8805
    6SAPS   C35  756   1.486   5.285   5.545 -0.2749  1.0144  0.4654
    6SAPS   H5X  757   1.386   5.252   5.581  0.0958 -3.2755 -1.7453
    6SAPS   H5Y  758   1.536   5.185   5.541 -1.5873  0.2797  1.5662
    6SAPS   C36  759   1.477   5.358   5.414  0.1090 -0.6957 -0.3114
    6SAPS   H6X  760   1.433   5.456   5.442 -0.2254 -1.4167  1.7878
    6SAPS   H6Y  761   1.403   5.304   5.351  0.0261  1.5319 -2.2746
    6SAPS   C37  762   1.606   5.352   5.331  0.1024 -0.6239 -0.7300
    6SAPS   H7X  763   1.622   5.242   5.320 -0.2777 -0.5850 -1.7509
    6SAPS   H7Y  764   1.693   5.405   5.375 -0.7888  0.4912 -0.2755
    6SAPS   C38  765   1.593   5.425   5.198 -0.5577 -0.2620  0.2545
    6SAPS   H8X  766   1.608   5.535   5.207 -0.2667  0.0396 -2.9361
    6SAPS   H8Y  767   1.489   5.409   5.162 -0.5473 -2.3551  1.0436
    6SAPS   C39  768   1.701   5.366   5.100 -0.1742 -1.0901  0.8054
    6SAPS   H9X  769   1.794   5.357   5.161 -0.8082 -1.1530  1.7779
    6SAPS   H9Y  770   1.724   5.432   5.014 -1.3485 -0.9325  0.6026
    6SAPS  C310  771   1.667   5.229   5.062  0.0037 -0.1652  0.4836
    6SAPS  H10X  772   1.557   5.216   5.047  0.2399 -0.3863 -1.2180
    6SAPS  H10Y  773   1.683   5.159   5.147  1.9834 -1.4872 -0.8893
    6SAPS  C311  774   1.743   5.169   4.948  0.1897 -0.1495  0.9598
    6SAPS  H11X  775   1.710   5.067   4.922  3.4955 -0.8090 -1.2213
    6SAPS  H11Y  776   1.852   5.159   4.966  0.3047 -0.7375  0.0036
    6SAPS  C312  777   1.713   5.240   4.814  0.2500 -0.9238  0.7202
    6SAPS  H12X  778   1.737   5.349   4.816 -1.4943 -0.5152  1.0314
    6SAPS  H12Y  779   1.606   5.228   4.787  0.6042 -0.3484 -1.0591
    6SAPS  C313  780   1.808   5.189   4.708  0.1473 -0.4341 -0.0273
    6SAPS  H13X  781   1.818   5.079   4.711 -2.4021 -0.7514 -0.4458
    6SAPS  H13Y  782   1.908   5.226   4.738 -0.5980  0.4506  1.4944
    6SAPS  C314  783   1.787   5.231   4.557  0.0010  0.1400 -0.1690
    6SAPS  H14X  784   1.784   5.342   4.559  1.7962  0.2149  1.5389
    6SAPS  H14Y  785   1.684   5.198   4.531  0.7333 -1.1578 -1.5842
    6SAPS  C315  786   1.891   5.180   4.467  0.6519 -0.1668 -0.6495
    6SAPS  H15X  787   1.881   5.069   4.460 -0.4218 -0.1286  0.0792
    6SAPS  H15Y  788   1.994   5.195   4.505 -0.0100 -1.3785  1.8449
    6SAPS  C316  789   1.886   5.247   4.325 -0.3621 -0.1604 -0.4323
    6SAPS  H16X  790   1.923   5.352   4.327 -3.1399  0.9750  3.2486
    6SAPS  H16Y  791   1.780   5.250   4.294 -0.8167  0.0175  1.0723
    6SAPS  C317  792   1.973   5.166   4.230  0.5536  0.7691  0.4449
    6SAPS  H17X  793   1.937   5.062   4.245  0.5506  0.5348 -1.0726
    6SAPS  H17Y  794   2.079   5.172   4.265  1.9880  1.0098 -3.4562
    6SAPS  C318  795   1.958   5.196   4.080  0.5131 -0.0022 -0.9015
    6SAPS  H18X  796   2.027   5.139   4.013  0.7627  0.6036 -1.1699
    6SAPS  H18Y  797   1.984   5.301   4.056  3.2780 -0.3451  0.1612
    6SAPS  H18Z  798   1.853   5.175   4.052  0.3061  0.4317 -0.4564
    7SAPS     N  799   5.929   6.653   6.706 -0.1224 -0.1477  0.0170
    7SAPS   HN1  800   5.866   6.720   6.754  2.2054  0.8841  1.8559
    7SAPS   HN2  801   5.881   6.577   6.653  1.5102 -0.0261 -1.7631
    7SAPS   HN3  802   5.993   6.617   6.779  2.9268  2.8375 -0.9387
    7SAPS   C12  803   6.014   6.731   6.601 -0.4366  0.5250 -0.8237
    7SAPS  H12A  804   5.947   6.782   6.533 -1.1514  1.1319  0.3058
    7SAPS   C13  805   6.108   6.831   6.664 -0.4569 -0.4517 -0.2568
    7SAPS  O13A  806   6.100   6.849   6.791  0.5452 -0.1981  0.4345
    7SAPS  O13B  807   6.191   6.895   6.599  0.1284  0.1181  0.0676
    7SAPS   C11  808   6.096   6.623   6.522 -0.6326 -0.1692 -0.7008
    7SAPS  H11A  809   6.145   6.567   6.604  2.5276  2.9098 -0.2455
    7SAPS  H11B  810   6.180   6.674   6.471  2.5924 -2.3608  2.0077
    7SAPS     P  811   6.056   6.411   6.388  0.4721  0.4834  0.0072
    7SAPS   O13  812   6.172   6.367   6.476  0.0599 -0.0183 -0.8357
    7SAPS   O14  813   5.936   6.326   6.408  0.1572 -0.0378  0.6406
    7SAPS   O12  814   6.015   6.550   6.435  0.3648  0.1803  0.3604
    7SAPS   O11  815   6.100   6.421   6.240  0.2122  0.7298  0.3296
    7SAPS    C1  816   6.068   6.530   6.161 -0.1225 -0.3199 -0.7473
    7SAPS    HA  817   5.962   6.564   6.166 -0.1845 -0.5528 -0.3682
    7SAPS    HB  818   6.138   6.609   6.195 -0.1367  0.0038 -1.4505
    7SAPS    C2  819   6.101   6.488   6.021  0.6778 -0.1485  0.1793
    7SAPS    HS  820   6.093   6.574   5.951  2.5413  0.0239  0.1312
    7SAPS   O21  821   6.007   6.382   5.974 -0.5916 -0.3717 -0.2986
    7SAPS   C21  822   5.881   6.414   5.941 -0.1928 -0.9559  0.7664
    7SAPS   O22  823   5.835   6.523   5.967 -0.0175  0.0924 -0.0880
    7SAPS   C22  824   5.810   6.314   5.860  0.7673  0.5635  1.0147
    7SAPS   H2R  825   5.880   6.247   5.808 -0.1783  0.3655 -0.0494
    7SAPS   H2S  826   5.771   6.244   5.937  1.0882 -0.3570  0.3608
    7SAPS    C3  827   6.246   6.452   6.001 -0.4815 -0.6242  1.0767
    7SAPS    HX  828   6.276   6.372   6.073  1.0434 -0.7200  0.3891
    7SAPS    HY  829   6.314   6.538   6.021  0.9117 -1.0638 -1.3218
    7SAPS   O31  830   6.258   6.407   5.864  0.4892  0.2401  0.7751
    7SAPS   C31  831   6.306   6.290   5.829  0.0520 -0.0307 -0.6521
    7SAPS   O32  832   6.359   6.214   5.903 -0.2822  1.0601 -0.2353
    7SAPS   C32  833   6.308   6.284   5.678  0.7382  0.8249 -0.1237
    7SAPS   H2X  834   6.411   6.314   5.652  1.8587 -1.2322  1.6433
    7SAPS   H2Y  835   6.242   6.366   5.642  2.3861  1.8396 -0.9407
    7SAPS   C23  836   5.704   6.372   5.768  0.2291 -0.4641  0.2524
    7SAPS   H3R  837   5.638   6.433   5.833  0.4727 -0.0683  0.1346
    7SAPS   H3S  838   5.637   6.292   5.731  1.5713 -2.4563  1.9471
    7SAPS   C24  839   5.765   6.460   5.654 -0.3950 -0.4408 -0.4359
    7SAPS   H4R  840   5.838   6.525   5.706 -1.0243  0.4364 -0.6235
    7SAPS   H4S  841   5.678   6.515   5.612  0.1332  0.5712 -0.2418
    7SAPS   C25  842   5.829   6.372   5.542 -0.2052 -0.7138 -0.1360
    7SAPS   H5R  843   5.801   6.266   5.553  1.5919 -1.1857  0.2126
    7SAPS   C26  844   5.908   6.409   5.438  0.1329  0.1182 -0.7266
    7SAPS   H6R  845   5.941   6.333   5.366 -0.0132 -1.7091  1.0235
    7SAPS   C27  846   5.965   6.540   5.417  0.4565 -0.2980  0.4504
    7SAPS   H7R  847   5.970   6.595   5.513 -1.8512 -2.5669  1.9951
    7SAPS   H7S  848   5.898   6.610   5.363  1.5458  1.6770  1.5510
    7SAPS   C28  849   6.096   6.560   5.350 -0.7961  0.2698 -0.3394
    7SAPS   H8R  850   6.183   6.562   5.418 -1.4011 -1.0296  0.5117
    7SAPS   C29  851   6.115   6.584   5.221 -0.1398  0.2105 -0.0320
    7SAPS   H9R  852   6.215   6.618   5.190  0.4220 -0.1021  1.3593
    7SAPS  C210  853   6.005   6.583   5.111 -0.0461 -0.1720  0.4311
    7SAPS  H10R  854   5.945   6.676   5.118  1.5550  0.7629  3.3614
    7SAPS  H10S  855   5.931   6.504   5.137  0.5901 -1.2760 -0.9895
    7SAPS  C211  856   6.055   6.544   4.975  0.0944  0.6944 -0.2022
    7SAPS  H11R  857   6.042   6.438   4.951 -1.8780  0.8184  0.1068
    7SAPS  C212  858   6.118   6.628   4.884  0.8127 -0.2214 -0.7406
    7SAPS  H12R  859   6.166   6.584   4.796  0.3919  3.1419 -2.8253
    7SAPS  C213  860   6.146   6.774   4.908 -0.2866  0.2206 -0.7913
    7SAPS  H13R  861   6.254   6.790   4.928 -0.1079 -2.1274  0.4540
    7SAPS  H13S  862   6.097   6.808   5.001 -0.1296 -3.9163  1.0146
    7SAPS  C214  863   6.099   6.859   4.791  0.1716  0.0987 -0.4877
    7SAPS  H14R  864   6.000   6.904   4.806  1.1956  1.6101  2.4546
    7SAPS  C215  865   6.155   6.879   4.670 -0.4949 -1.0781 -0.2917
    7SAPS  H15R  866   6.102   6.931   4.590 -1.2237 -0.0200  0.8433
    7SAPS  C216  867   6.289   6.814   4.630 -0.2135 -0.2356 -0.6965
    7SAPS  H16R  868   6.327   6.743   4.707 -1.4018  1.9622  2.1088
    7SAPS  H16S  869   6.371   6.890   4.626 -0.0004 -0.3267  1.0673
    7SAPS  C217  870   6.300   6.737   4.496  0.2048 -0.5136  0.5753
    7SAPS  H17R  871   6.244   6.785   4.413 -0.5819  0.9018  1.8846
    7SAPS  H17S  872   6.266   6.633   4.512  1.0594 -0.5291  2.6575
    7SAPS  C218  873   6.447   6.723   4.444 -0.0945 -0.6376  0.6651
    7SAPS  H18R  874   6.430   6.677   4.344 -0.4987 -0.6702  0.7470
    7SAPS  H18S  875   6.506   6.644   4.496  1.7901  1.5790  2.0634
    7SAPS  C219  876   6.532   6.854   4.439  0.4115 -0.1935 -0.3454
    7SAPS  H19R  877   6.570   6.869   4.542 -0.0608  0.8180 -0.3101
    7SAPS  H19S  878   6.478   6.946   4.408  1.0026 -0.1280 -1.2451
    7SAPS  C220  879   6.655   6.840   4.341 -0.7697  0.6790 -0.6815
    7SAPS  H20R  880   6.722   6.758   4.376 -2.7452 -0.2157  1.2558
    7SAPS  H20S  881   6.717   6.931   4.349  0.0966  0.0684 -0.1839
    7SAPS  H20T  882   6.627   6.817   4.236  0.1485 -1.5953 -0.5035
    7SAPS   C33  883   6.263   6.146   5.623  0.0111 -0.0153 -0.5607
    7SAPS   H3X  884   6.164   6.109   5.658 -0.2824  2.0157  0.9235
    7SAPS   H3Y  885   6.335   6.078   5.673 -0.9702 -0.4391  0.3195
    7SAPS   C34  886   6.286   6.125   5.471  0.1375 -0.7749 -0.1269
    7SAPS   H4X  887   6.288   6.015   5.452  0.3693 -1.1960  2.0607
    7SAPS   H4Y  888   6.386   6.164   5.442 -0.4894  0.8571 -0.1984
    7SAPS   C35  889   6.183   6.188   5.387  1.1165 -0.2111 -0.0913
    7SAPS   H5X  890   6.167   6.288   5.433 -1.6930 -0.1618 -0.9353
    7SAPS   H5Y  891   6.092   6.124   5.382  1.8608 -1.1900 -1.9712
    7SAPS   C36  892   6.226   6.211   5.241  0.3401  0.8568 -0.5832
    7SAPS   H6X  893   6.303   6.290   5.252  1.3101 -0.3268  1.6753
    7SAPS   H6Y  894   6.132   6.242   5.189 -1.8285 -1.0967  1.8930
    7SAPS   C37  895   6.310   6.091   5.184  0.3502  0.0456 -0.1331
    7SAPS   H7X  896   6.254   5.996   5.171  1.9441 -1.0483  0.6030
    7SAPS   H7Y  897   6.400   6.071   5.246  0.5864  1.3666 -0.0225
    7SAPS   C38  898   6.366   6.130   5.040  0.3192  0.6373  0.0243
    7SAPS   H8X  899   6.416   6.050   4.983  1.3601 -0.3189  2.1576
    7SAPS   H8Y  900   6.444   6.208   5.055  0.5480  0.6710 -1.2707
    7SAPS   C39  901   6.264   6.187   4.941  0.0714 -0.2507 -0.0659
    7SAPS   H9X  902   6.243   6.287   4.987  2.9728 -0.3888  1.8367
    7SAPS   H9Y  903   6.175   6.121   4.938 -0.0472 -0.0586 -1.4014
    7SAPS  C310  904   6.310   6.205   4.796  0.1129 -0.1879  0.0497
    7SAPS  H10X  905   6.332   6.102   4.761 -0.3143 -0.5521  0.8443
    7SAPS  H10Y  906   6.399   6.271   4.788 -0.3719  0.4344 -0.3335
    7SAPS  C311  907   6.203   6.265   4.703 -0.3100  0.2959 -0.2670
    7SAPS  H11X  908   6.162   6.362   4.737 -2.2435 -0.5121 -0.1618
    7SAPS  H11Y  909   6.122   6.190   4.699 -0.7955  0.3937  3.6581
    7SAPS  C312  910   6.260   6.286   4.563  0.2851  0.6281 -0.3015
    7SAPS  H12X  911   6.320   6.195   4.539  0.9819  1.1690 -0.6257
    7SAPS  H12Y  912   6.331   6.371   4.556 -0.5216  1.3933  0.5921
    7SAPS  C313  913   6.149   6.305   4.457 -0.0572 -0.5172  0.6261
    7SAPS  H13X  914   6.202   6.332   4.363 -0.5657  0.8371  0.7078
    7SAPS  H13Y  915   6.091   6.391   4.497  2.7675  0.6569  2.5126
    7SAPS  C314  916   6.055   6.190   4.420 -0.0490  0.0650  0.1730
    7SAPS  H14X  917   5.976   6.226   4.351 -0.2678  0.4375  0.6166
    7SAPS  H14Y  918   6.000   6.155   4.509 -0.9667  0.2948 -0.2962
    7SAPS  C315  919   6.128   6.081   4.345  0.3008  0.1359  0.8480
    7SAPS  H15X  920   6.199   6.026   4.410 -0.3513 -0.3378  1.1648
    7SAPS  H15Y  921   6.174   6.136   4.259 -3.5137  1.4488 -0.5477
    7SAPS  C316  922   6.036   5.968   4.294  0.3094 -0.2735  0.4851
    7SAPS  H16X  923   5.955   6.012   4.233 -0.5142 -2.3401  0.0069
    7SAPS  H16Y  924   5.980   5.925   4.380 -2.1069 -1.4576 -1.5487
    7SAPS  C317  925   6.109   5.871   4.208 -0.5961 -0.2821  0.0135
    7SAPS  H17X  926   6.200   5.847   4.267  1.6820  4.0811 -1.2632
    7SAPS  H17Y  927   6.152   5.912   4.114 -3.4782  0.4495 -1.0910
    7SAPS  C318  928   6.026   5.747   4.164  0.2856 -0.8468 -0.1391
    7SAPS  H18X  929   5.974   5.704   4.252 -1.4790  2.1652  0.4516
    7SAPS  H18Y  930   6.097   5.670   4.125  0.8378 -0.6321  0.4466
    7SAPS  H18Z  931   5.957   5.770   4.079 -1.0550  0.3264  1.2168
    8SAPS     N  932   3.111   1.139   6.878 -0.0511 -0.1803  0.3920
    8SAPS   HN1  933   3.010   1.122   6.867 -0.1502  0.3100  0.4978
    8SAPS   HN2  934   3.165   1.050   6.877 -0.0488 -0.1794  0.4303
    8SAPS   HN3  935   3.117   1.169   6.977 -0.8676  0.8072  0.1602
    8SAPS   C12  936   3.161   1.232   6.781  1.4757 -0.1197 -0.1543
    8SAPS  H12A  937   3.109   1.206   6.690 -0.2160 -0.5559  0.8891
    8SAPS   C13  938   3.143   1.373   6.815  0.3011 -1.2781  0.3067
    8SAPS  O13A  939   3.073   1.399   6.919 -0.1375 -0.2685 -0.2680
    8SAPS  O13B  940   3.174   1.457   6.725  0.1551 -0.0347 -0.2962
    8SAPS   C11  941   3.302   1.191   6.758 -0.4465 -0.3149  0.6953
    8SAPS  H11A  942   3.364   1.186   6.850 -1.2248 -0.9686  1.2049
    8SAPS  H11B  943   3.349   1.265   6.691 -0.4177 -0.2580  0.7782
    8SAPS     P  944   3.435   0.984   6.658 -0.4293 -0.2428 -0.2833
    8SAPS   O13  945   3.548   1.064   6.707  0.1139 -0.9690  0.1094
    8SAPS   O14  946   3.405   0.850   6.713 -0.7665  0.3539  0.1279
    8SAPS   O12  947   3.310   1.066   6.683  0.3832  0.3265  0.0647
    8SAPS   O11  948   3.437   0.980   6.504  0.6133 -0.4073  0.4175
    8SAPS    C1  949   3.319   0.942   6.432 -0.2115 -0.0958 -0.1609
    8SAPS    HA  950   3.334   0.835   6.406 -3.2409 -1.0433  1.4091
    8SAPS    HB  951   3.230   0.943   6.499  0.2074  0.2311  0.4055
    8SAPS    C2  952   3.300   1.030   6.314  0.4925 -0.1248  0.3878
    8SAPS    HS  953   3.219   0.995   6.247  1.3134  1.3742 -1.4757
    8SAPS   O21  954   3.419   1.061   6.242  0.1145 -0.0158 -0.2789
    8SAPS   C21  955   3.469   0.959   6.178 -0.6732 -0.3757  0.6815
    8SAPS   O22  956   3.419   0.846   6.171 -0.2558 -0.0838 -0.4358
    8SAPS   C22  957   3.602   1.007   6.104  0.9524 -0.0477  0.1622
    8SAPS   H2R  958   3.581   1.112   6.073  1.5990  0.8909  2.6171
    8SAPS   H2S  959   3.689   1.009   6.173  0.9673  1.3405  0.1332
    8SAPS    C3  960   3.244   1.166   6.356  0.0252  0.0519  0.1011
    8SAPS    HX  961   3.319   1.222   6.416  0.9461 -0.6991 -0.3307
    8SAPS    HY  962   3.152   1.169   6.419 -2.1400  0.8349 -2.9004
    8SAPS   O31  963   3.211   1.234   6.232  0.4235 -0.4360 -0.5130
    8SAPS   C31  964   3.096   1.213   6.176  0.0081  0.2690 -0.2590
    8SAPS   O32  965   3.022   1.115   6.188 -0.1130 -0.6173  0.5069
    8SAPS   C32  966   3.070   1.323   6.081 -0.0968 -0.1474 -0.0482
    8SAPS   H2X  967   3.030   1.406   6.144  0.4665 -1.4849  2.2117
    8SAPS   H2Y  968   2.986   1.301   6.012 -0.2555  0.8051 -0.1803
    8SAPS   C23  969   3.635   0.914   5.977  0.5993 -0.1357 -0.3327
    8SAPS   H3R  970   3.554   0.921   5.902 -0.3482 -1.7881  0.4806
    8SAPS   H3S  971   3.643   0.809   6.010  2.4702  0.1722  0.3539
    8SAPS   C24  972   3.770   0.947   5.912  0.1111  0.7442  0.0725
    8SAPS   H4R  973   3.804   0.858   5.853  0.7213  1.0954 -0.1131
    8SAPS   H4S  974   3.848   0.961   5.990  0.6248  2.0065 -0.6496
    8SAPS   C25  975   3.761   1.075   5.828 -0.7130  0.7548 -0.6280
    8SAPS   H5R  976   3.763   1.167   5.887  1.5553 -0.8195  1.9954
    8SAPS   C26  977   3.756   1.066   5.695  0.2681  0.0735 -0.4173
    8SAPS   H6R  978   3.741   1.153   5.630 -0.4097 -0.2143 -0.6506
    8SAPS   C27  979   3.751   0.936   5.605 -0.5775  0.7788  0.2335
    8SAPS   H7R  980   3.817   0.860   5.652 -0.9971  1.6620  2.4047
    8SAPS   H7S  981   3.795   0.969   5.509 -3.0186 -0.0422 -1.2582
    8SAPS   C28  982   3.619   0.872   5.588  0.2900 -0.0537  0.5250
    8SAPS   H8R  983   3.553   0.862   5.675 -0.7408 -3.1420 -0.4796
    8SAPS   C29  984   3.576   0.827   5.470  0.3601  0.0380 -0.3357
    8SAPS   H9R  985   3.482   0.769   5.464  0.6703 -0.4935 -0.1108
    8SAPS  C210  986   3.656   0.824   5.338  0.2224  0.2953 -0.1329
    8SAPS  H10R  987   3.675   0.720   5.304  1.8024 -0.0349  1.6217
    8SAPS  H10S  988   3.759   0.862   5.328  1.5265 -2.7053  0.7821
    8SAPS  C211  989   3.575   0.896   5.237  1.0145  0.3416 -0.7134
    8SAPS  H11R  990   3.577   1.006   5.239 -0.1147  0.5378 -3.8409
    8SAPS  C212  991   3.487   0.843   5.147 -0.0034 -0.2667 -0.1355
    8SAPS  H12R  992   3.452   0.914   5.070 -0.8861 -0.7002 -0.1540
    8SAPS  C213  993   3.465   0.694   5.127 -0.5833  0.3706 -0.2463
    8SAPS  H13R  994   3.360   0.683   5.092 -0.3398 -0.4365 -0.7318
    8SAPS  H13S  995   3.480   0.642   5.224  1.0008  2.0731  0.4988
    8SAPS  C214  996   3.557   0.640   5.017 -0.4525  0.1715 -0.3750
    8SAPS  H14R  997   3.661   0.637   5.053  0.1227  0.5042 -1.9310
    8SAPS  C215  998   3.531   0.596   4.896 -0.0007  0.3064  0.2383
    8SAPS  H15R  999   3.611   0.560   4.830  0.2471 -0.1849  0.8000
    8SAPS  C216 1000   3.392   0.592   4.828 -0.2876 -0.2105  0.2929
    8SAPS  H16R 1001   3.310   0.625   4.896  0.4377  0.1713  1.0007
    8SAPS  H16S 1002   3.359   0.488   4.805 -1.0612  0.0280  0.3236
    8SAPS  C217 1003   3.392   0.678   4.699 -0.1449 -0.2250 -0.1155
    8SAPS  H17R 1004   3.433   0.777   4.726  1.5855 -0.8364 -0.3369
    8SAPS  H17S 1005   3.287   0.699   4.671  0.1391  1.4152 -0.0042
    8SAPS  C218 1006   3.444   0.614   4.573  0.2375 -0.3903  0.2399
    8SAPS  H18R 1007   3.414   0.507   4.573 -1.1532 -0.0228 -0.3225
    8SAPS  H18S 1008   3.554   0.618   4.565  0.4536 -1.3707  2.0533
    8SAPS  C219 1009   3.388   0.680   4.448  0.1295  0.5723 -0.1753
    8SAPS  H19R 1010   3.430   0.783   4.444  0.7202  0.2912 -1.9260
    8SAPS  H19S 1011   3.277   0.678   4.454  0.0308 -0.7273 -1.8711
    8SAPS  C220 1012   3.424   0.609   4.328  0.8041 -0.1918  0.4857
    8SAPS  H20R 1013   3.406   0.679   4.243  2.0150  2.1034  1.9810
    8SAPS  H20S 1014   3.358   0.522   4.313  1.0701 -0.2143 -0.6420
    8SAPS  H20T 1015   3.530   0.580   4.309  0.8967  0.9486 -0.9987
    8SAPS   C33 1016   3.197   1.366   6.009 -0.1889 -0.8984  0.8126
    8SAPS   H3X 1017   3.275   1.396   6.081 -0.4352  0.3271  0.5940
    8SAPS   H3Y 1018   3.164   1.452   5.946  0.3494 -2.0953 -1.1801
    8SAPS   C34 1019   3.260   1.258   5.921  0.1603 -0.2797  0.4636
    8SAPS   H4X 1020   3.180   1.217   5.855  2.5719 -3.6031 -0.6939
    8SAPS   H4Y 1021   3.278   1.171   5.988 -1.7654 -0.0077  1.3934
    8SAPS   C35 1022   3.380   1.298   5.843 -0.3564 -0.3589  0.5244
    8SAPS   H5X 1023   3.465   1.315   5.912  0.9087 -0.5664 -0.9162
    8SAPS   H5Y 1024   3.363   1.385   5.775 -2.1840 -1.2771 -0.2720
    8SAPS   C36 1025   3.430   1.180   5.750 -0.6134  0.0580 -0.6107
    8SAPS   H6X 1026   3.442   1.087   5.810  2.2731  0.9389  0.3387
    8SAPS   H6Y 1027   3.526   1.206   5.700 -1.9053  1.4955 -2.5271
    8SAPS   C37 1028   3.335   1.149   5.643 -0.3454  0.0519  0.2601
    8SAPS   H7X 1029   3.244   1.111   5.693 -0.0381 -3.1509 -1.3859
    8SAPS   H7Y 1030   3.360   1.068   5.571 -0.7034  1.1238 -1.1227
    8SAPS   C38 1031   3.299   1.269   5.555  0.7866 -0.1216  0.1376
    8SAPS   H8X 1032   3.234   1.337   5.615  0.5188  0.1309 -0.4270
    8SAPS   H8Y 1033   3.231   1.220   5.482 -1.0254  2.0222  0.2824
    8SAPS   C39 1034   3.406   1.354   5.486  0.5454  0.0093 -0.1364
    8SAPS   H9X 1035   3.475   1.388   5.566  0.6142 -0.4176 -0.0083
    8SAPS   H9Y 1036   3.348   1.438   5.443  1.9524  0.2234 -1.6953
    8SAPS  C310 1037   3.469   1.280   5.358  0.3975 -0.0794 -0.3681
    8SAPS  H10X 1038   3.393   1.249   5.283 -1.5246 -1.6444  2.0670
    8SAPS  H10Y 1039   3.491   1.180   5.400  0.0824 -0.7259 -1.6916
    8SAPS  C311 1040   3.595   1.345   5.296  0.0839 -0.7239 -0.1489
    8SAPS  H11X 1041   3.677   1.350   5.371 -0.6288  0.4757  0.5833
    8SAPS  H11Y 1042   3.569   1.452   5.279 -0.3923 -1.1534 -2.6316
    8SAPS  C312 1043   3.651   1.287   5.166  0.2910  0.0168  0.0615
    8SAPS  H12X 1044   3.690   1.187   5.196 -0.0488  0.5100  2.3071
    8SAPS  H12Y 1045   3.729   1.364   5.148  0.7072  0.7560  4.1605
    8SAPS  C313 1046   3.553   1.289   5.050  0.0479  0.0419  0.5660
    8SAPS  H13X 1047   3.518   1.392   5.030  2.6146  0.9920  0.5991
    8SAPS  H13Y 1048   3.476   1.212   5.072  1.3673 -1.1684  1.1012
    8SAPS  C314 1049   3.607   1.235   4.917 -0.2210  0.0241  0.8078
    8SAPS  H14X 1050   3.616   1.124   4.925 -1.9843 -0.3033 -0.8590
    8SAPS  H14Y 1051   3.700   1.292   4.899 -1.2747  1.0028 -2.0486
    8SAPS  C315 1052   3.512   1.254   4.800  0.7703 -0.4085  0.2889
    8SAPS  H15X 1053   3.490   1.363   4.798  2.2572 -0.0279  2.1524
    8SAPS  H15Y 1054   3.416   1.205   4.828  0.1035  0.4848 -0.3672
    8SAPS  C316 1055   3.555   1.210   4.662 -0.2491 -0.4397  0.4276
    8SAPS  H16X 1056   3.619   1.119   4.669 -3.0738 -2.7787 -1.3457
    8SAPS  H16Y 1057   3.617   1.290   4.615  1.1230 -1.4049  0.5272
    8SAPS  C317 1058   3.452   1.190   4.554 -0.4434  0.9069 -0.1271
    8SAPS  H17X 1059   3.408   1.291   4.538  0.3341  1.7941  2.7351
    8SAPS  H17Y 1060   3.366   1.133   4.595  0.2893 -0.1042  0.0454
    8SAPS  C318 1061   3.513   1.116   4.430 -0.4398 -0.1354 -0.0939
    8SAPS  H18X 1062   3.613   1.145   4.393  0.6685 -3.5187 -0.0736
    8SAPS  H18Y 1063   3.442   1.114   4.345 -0.0373 -1.0481 -0.4114
    8SAPS  H18Z 1064   3.529   1.013   4.468 -0.0012  0.8302  2.6144
    9SAPS     N 1065   1.042   0.654   6.586  1.1557 -0.0507 -0.0737
    9SAPS   HN1 1066   1.009   0.622   6.679 -0.6641 -1.1131 -1.0141
    9SAPS   HN2 1067   0.983   0.726   6.540  1.8432  1.0545  0.7565
    9SAPS   HN3 1068   1.036   0.573   6.520 -0.0427 -1.7502  1.9709
    9SAPS   C12 1069   1.183   0.715   6.603 -0.2325  0.4798 -0.3274
    9SAPS  H12A 1070   1.214   0.777   6.520  0.2491  0.2264 -0.3349
    9SAPS   C13 1071   1.214   0.779   6.745  0.2547  0.6544  0.1327
    9SAPS  O13A 1072   1.112   0.819   6.807 -0.0861 -0.2311 -0.1174
    9SAPS  O13B 1073   1.322   0.830   6.748 -0.2156 -0.0870 -0.4694
    9SAPS   C11 1074   1.280   0.597   6.598 -0.1846 -0.5980 -0.3344
    9SAPS  H11A 1075   1.378   0.620   6.645 -0.5037 -1.5866  0.8610
    9SAPS  H11B 1076   1.285   0.593   6.487  2.9693 -0.0862 -0.3165
    9SAPS     P 1077   1.260   0.337   6.609 -0.2206 -0.2858  0.0460
    9SAPS   O13 1078   1.393   0.306   6.662 -0.2042  0.1943 -0.2993
    9SAPS   O14 1079   1.145   0.253   6.642  0.2059  0.3727 -0.4399
    9SAPS   O12 1080   1.230   0.478   6.668 -0.5320 -0.5853 -0.0747
    9SAPS   O11 1081   1.262   0.369   6.449  0.0224  0.0534 -0.1605
    9SAPS    C1 1082   1.391   0.373   6.390 -1.4049  0.2617  0.0763
    9SAPS    HA 1083   1.421   0.480   6.384 -0.7179  0.1426  1.1089
    9SAPS    HB 1084   1.468   0.325   6.453 -1.4320 -1.3607 -1.0512
    9SAPS    C2 1085   1.396   0.308   6.250  0.7264  0.2126  0.5138
    9SAPS    HS 1086   1.496   0.303   6.203 -0.3463  0.6245 -1.9610
    9SAPS   O21 1087   1.301   0.367   6.159 -0.3526  0.2058 -0.3737
    9SAPS   C21 1088   1.331   0.485   6.114  0.2272 -0.7388  0.0978
    9SAPS   O22 1089   1.428   0.555   6.150  0.6905 -0.6524 -0.8136
    9SAPS   C22 1090   1.230   0.526   6.009 -0.4063 -0.6263  0.1294
    9SAPS   H2R 1091   1.133   0.477   6.032 -0.5151 -0.9691 -1.0212
    9SAPS   H2S 1092   1.224   0.637   6.014  2.4523 -0.4467  1.4512
    9SAPS    C3 1093   1.360   0.155   6.258  0.4202  0.3201  0.4423
    9SAPS    HX 1094   1.251   0.137   6.247  0.1820 -0.8667  3.7179
    9SAPS    HY 1095   1.385   0.111   6.357  2.5406 -2.0181 -1.0119
    9SAPS   O31 1096   1.440   0.084   6.156  0.5345  0.3503  0.1085
    9SAPS   C31 1097   1.433  -0.051   6.165 -0.2108  0.2683  0.2596
    9SAPS   O32 1098   1.376  -0.116   6.254  0.0744  0.1184  0.1217
    9SAPS   C32 1099   1.518  -0.113   6.058 -0.0926  0.0272  0.0656
    9SAPS   H2X 1100   1.535  -0.218   6.089  0.6665 -0.3371 -1.4587
    9SAPS   H2Y 1101   1.610  -0.053   6.040 -0.3841  0.3691 -0.3024
    9SAPS   C23 1102   1.285   0.500   5.866  0.1300 -0.3459  0.5203
    9SAPS   H3R 1103   1.310   0.392   5.855  0.6570 -0.3008  1.2004
    9SAPS   H3S 1104   1.382   0.551   5.847 -0.4546  0.8991  0.8011
    9SAPS   C24 1105   1.171   0.522   5.758 -0.3271  0.1478  0.0926
    9SAPS   H4R 1106   1.079   0.471   5.794  0.6093 -0.7956  1.2676
    9SAPS   H4S 1107   1.211   0.475   5.666 -1.1717  0.6496 -0.5429
    9SAPS   C25 1108   1.133   0.663   5.729  0.3908 -0.4455 -0.7202
    9SAPS   H5R 1109   1.057   0.700   5.799 -0.7134  0.5791 -2.3868
    9SAPS   C26 1110   1.184   0.738   5.635 -0.1136  0.0512 -0.0118
    9SAPS   H6R 1111   1.154   0.843   5.622 -1.0135 -0.3483 -1.3784
    9SAPS   C27 1112   1.289   0.703   5.529  0.1311 -0.2831 -0.0556
    9SAPS   H7R 1113   1.373   0.658   5.585  0.5428  0.1542 -0.3084
    9SAPS   H7S 1114   1.337   0.793   5.485 -1.3203 -0.3085 -1.8068
    9SAPS   C28 1115   1.244   0.616   5.414  0.4014 -0.5213 -1.0617
    9SAPS   H8R 1116   1.168   0.539   5.434  2.2989 -2.1537  0.2649
    9SAPS   C29 1117   1.286   0.625   5.288  0.2106  0.2812 -0.5228
    9SAPS   H9R 1118   1.247   0.553   5.215  0.5126  1.3265 -1.7385
    9SAPS  C210 1119   1.359   0.742   5.224  0.4171  0.2679  0.4662
    9SAPS  H10R 1120   1.396   0.822   5.292 -0.1897 -0.6718  1.9301
    9SAPS  H10S 1121   1.273   0.794   5.176 -0.0499 -1.1660 -0.3089
    9SAPS  C211 1122   1.461   0.694   5.125  0.2869 -0.0527 -0.3662
    9SAPS  H11R 1123   1.539   0.639   5.179 -0.9211 -0.6774  0.7994
    9SAPS  C212 1124   1.467   0.724   4.992  0.0360  0.5464  0.3772
    9SAPS  H12R 1125   1.540   0.671   4.931 -2.9329 -1.7474 -1.4700
    9SAPS  C213 1126   1.364   0.807   4.914 -1.0375  0.7603 -0.7764
    9SAPS  H13R 1127   1.303   0.862   4.988 -1.4328 -0.9176  0.1946
    9SAPS  H13S 1128   1.306   0.730   4.859  1.8086 -1.2366 -1.2351
    9SAPS  C214 1129   1.449   0.907   4.837 -0.0146  0.4854  0.4998
    9SAPS  H14R 1130   1.517   0.976   4.889 -0.9607  1.3981  0.5371
    9SAPS  C215 1131   1.446   0.919   4.704 -0.2309  0.1373 -0.0854
    9SAPS  H15R 1132   1.500   1.009   4.669 -2.0084  1.7883  1.1683
    9SAPS  C216 1133   1.363   0.839   4.609 -1.0221  0.2011 -0.4737
    9SAPS  H16R 1134   1.342   0.739   4.652  0.8705 -0.5938 -1.2995
    9SAPS  H16S 1135   1.416   0.830   4.512 -0.7085  2.0438 -0.5251
    9SAPS  C217 1136   1.231   0.915   4.581 -0.4943 -0.4934  0.0813
    9SAPS  H17R 1137   1.254   0.986   4.499 -0.4368  0.0683  0.5785
    9SAPS  H17S 1138   1.198   0.975   4.669  1.3966  0.0538  0.4584
    9SAPS  C218 1139   1.120   0.819   4.532  0.2387 -0.1359  0.0514
    9SAPS  H18R 1140   1.070   0.786   4.625 -1.9981  1.3898 -0.5405
    9SAPS  H18S 1141   1.168   0.734   4.479 -0.4826  0.4108 -1.5415
    9SAPS  C219 1142   1.016   0.884   4.440  0.7729  0.2636  0.7685
    9SAPS  H19R 1143   1.047   0.910   4.337 -0.5924 -1.0476 -0.0123
    9SAPS  H19S 1144   0.982   0.976   4.492 -2.6883  0.9972 -2.3644
    9SAPS  C220 1145   0.890   0.797   4.420  0.0952 -0.0967 -0.6630
    9SAPS  H20R 1146   0.802   0.840   4.367 -1.3643 -0.7288  1.1434
    9SAPS  H20S 1147   0.845   0.762   4.516  0.1361 -1.5433 -1.1447
    9SAPS  H20T 1148   0.907   0.701   4.367 -1.4533 -1.6638  1.4765
    9SAPS   C33 1149   1.422  -0.121   5.933 -0.7832 -0.3728 -0.4222
    9SAPS   H3X 1150   1.381  -0.021   5.909 -1.0324 -1.0633 -3.3267
    9SAPS   H3Y 1151   1.338  -0.192   5.945 -2.7875  1.6146 -1.8212
    9SAPS   C34 1152   1.501  -0.148   5.812 -0.6104  0.0218 -0.0242
    9SAPS   H4X 1153   1.550  -0.247   5.807 -1.1834 -0.3742  1.5978
    9SAPS   H4Y 1154   1.566  -0.060   5.792 -1.0328  0.2000 -0.6506
    9SAPS   C35 1155   1.415  -0.137   5.683 -0.0224  0.0994  0.1889
    9SAPS   H5X 1156   1.369  -0.036   5.687 -0.3398 -0.0892  1.7944
    9SAPS   H5Y 1157   1.338  -0.217   5.681  2.6132 -2.6047 -1.6281
    9SAPS   C36 1158   1.496  -0.164   5.555 -0.6820  0.0517  0.2484
    9SAPS   H6X 1159   1.513  -0.273   5.545 -1.1367 -0.0556  0.6390
    9SAPS   H6Y 1160   1.594  -0.113   5.565 -0.6442  0.5458 -2.1543
    9SAPS   C37 1161   1.434  -0.110   5.424  0.0726 -0.0759 -0.5065
    9SAPS   H7X 1162   1.406  -0.002   5.416 -2.0462 -0.6543 -1.6297
    9SAPS   H7Y 1163   1.332  -0.150   5.440  0.4394 -0.0685  2.2987
    9SAPS   C38 1164   1.487  -0.170   5.293  0.4813 -0.4727 -0.3970
    9SAPS   H8X 1165   1.484  -0.280   5.273 -2.9558 -0.2742 -1.7133
    9SAPS   H8Y 1166   1.594  -0.142   5.289  0.3833  0.6679  2.7251
    9SAPS   C39 1167   1.423  -0.099   5.171  0.0948  0.3399 -0.0140
    9SAPS   H9X 1168   1.432   0.010   5.187  0.3892  0.1497  1.1447
    9SAPS   H9Y 1169   1.314  -0.121   5.173  0.0664  0.1907 -1.6841
    9SAPS  C310 1170   1.462  -0.157   5.035 -0.5961 -0.5147 -0.2512
    9SAPS  H10X 1171   1.457  -0.268   5.039  0.0527 -0.5117  1.5126
    9SAPS  H10Y 1172   1.571  -0.139   5.028 -0.6362 -0.9497 -2.7272
    9SAPS  C311 1173   1.390  -0.097   4.915 -0.2628 -0.6182  0.5061
    9SAPS  H11X 1174   1.477  -0.088   4.847 -3.2850  1.5236 -3.5126
    9SAPS  H11Y 1175   1.351   0.005   4.935  1.6491  0.6270 -1.6165
    9SAPS  C312 1176   1.294  -0.191   4.845  0.3428  0.1404  0.5441
    9SAPS  H12X 1177   1.205  -0.197   4.912  1.1812  0.9272  1.7770
    9SAPS  H12Y 1178   1.335  -0.295   4.842  0.1900  0.0209  1.8860
    9SAPS  C313 1179   1.246  -0.162   4.699  0.0294 -0.1995 -0.9573
    9SAPS  H13X 1180   1.215  -0.058   4.674 -1.5369 -0.6913 -1.1328
    9SAPS  H13Y 1181   1.161  -0.229   4.676 -1.1819  0.4979  1.1867
    9SAPS  C314 1182   1.359  -0.202   4.602  0.0738 -0.0811 -0.3807
    9SAPS  H14X 1183   1.319  -0.234   4.504  1.0054 -0.9852 -0.4899
    9SAPS  H14Y 1184   1.412  -0.293   4.638 -0.7081 -0.1674  0.5929
    9SAPS  C315 1185   1.454  -0.084   4.570 -0.0144 -0.2630 -0.0539
    9SAPS  H15X 1186   1.539  -0.135   4.520 -1.2008 -1.1675 -1.2161
    9SAPS  H15Y 1187   1.487  -0.027   4.659 -0.7705 -1.5611  1.0853
    9SAPS  C316 1188   1.392   0.004   4.460 -0.3153  0.3928  0.9552
    9SAPS  H16X 1189   1.295  -0.038   4.427  0.8622 -0.6347 -1.4863
    9SAPS  H16Y 1190   1.459   0.006   4.371  0.4261 -0.1395  1.4822
    9SAPS  C317 1191   1.381   0.154   4.494  0.1053  0.2134 -0.0246
    9SAPS  H17X 1192   1.485   0.185   4.517  0.3387  0.1444 -0.9488
    9SAPS  H17Y 1193   1.305   0.177   4.572 -0.4211  0.3613 -0.5845
    9SAPS  C318 1194   1.346   0.238   4.375  0.4125 -0.0448 -0.0980
    9SAPS  H18X 1195   1.428   0.231   4.301 -0.1392 -0.4073 -0.6829
    9SAPS  H18Y 1196   1.331   0.347   4.389 -0.6962 -0.1086 -0.7370
    9SAPS  H18Z 1197   1.260   0.195   4.320  0.3868 -0.1213  0.0015
   10SAPS     N 1198   1.255   6.765   6.494 -0.1180 -0.0989 -0.3885
   10SAPS   HN1 1199   1.262   6.865   6.467  0.0556  0.0131  0.0649
   10SAPS   HN2 1200   1.294   6.716   6.411 -2.3114 -2.0229 -0.3908
   10SAPS   HN3 1201   1.155   6.744   6.512  0.3114 -0.9319  1.2178
   10SAPS   C12 1202   1.339   6.739   6.612  0.6978  0.0913  0.8137
   10SAPS  H12A 1203   1.339   6.632   6.625 -0.8459 -0.5223 -3.0243
   10SAPS   C13 1204   1.490   6.777   6.602 -0.3955 -0.1711 -0.4379
   10SAPS  O13A 1205   1.524   6.839   6.501 -0.7860  0.5418 -0.1929
   10SAPS  O13B 1206   1.562   6.761   6.703  0.7541  0.2834 -0.5291
   10SAPS   C11 1207   1.273   6.812   6.736 -0.5292  0.0526 -0.5613
   10SAPS  H11A 1208   1.306   6.918   6.732 -1.7822  0.4249 -1.8302
   10SAPS  H11B 1209   1.319   6.767   6.826 -0.0437  0.9670 -0.3364
   10SAPS     P 1210   1.067   6.664   6.794  0.0874  0.0534  0.0434
   10SAPS   O13 1211   1.131   6.606   6.914 -0.2668  0.0381  0.2181
   10SAPS   O14 1212   0.928   6.706   6.812  0.1762 -0.2406 -0.0211
   10SAPS   O12 1213   1.131   6.801   6.744  0.1344  0.1385 -0.1709
   10SAPS   O11 1214   1.078   6.564   6.667 -0.6093  0.3560  0.3196
   10SAPS    C1 1215   1.089   6.423   6.681  0.1640  0.5903  0.7105
   10SAPS    HA 1216   1.043   6.384   6.774  0.5610 -0.5217  0.4598
   10SAPS    HB 1217   1.043   6.366   6.597  1.3505 -1.5149  1.3912
   10SAPS    C2 1218   1.243   6.382   6.664 -0.2115  0.9746 -0.0461
   10SAPS    HS 1219   1.300   6.452   6.729 -0.1196  1.4719 -0.6470
   10SAPS   O21 1220   1.279   6.396   6.526 -0.1503  0.3026  0.4936
   10SAPS   C21 1221   1.412   6.414   6.500 -0.9988  0.2980 -0.2792
   10SAPS   O22 1222   1.501   6.406   6.581 -0.2092 -0.1153  0.3059
   10SAPS   C22 1223   1.435   6.455   6.358  0.2720  0.4428 -0.4188
   10SAPS   H2R 1224   1.345   6.508   6.319 -0.5041 -0.8527 -0.4678
   10SAPS   H2S 1225   1.523   6.522   6.356  0.1660  0.5705 -1.1190
   10SAPS    C3 1226   1.271   6.231   6.710 -0.1526  0.0996 -0.6533
   10SAPS    HX 1227   1.251   6.216   6.818 -0.8361  0.6330 -0.6983
   10SAPS    HY 1228   1.381   6.215   6.706 -0.1478 -0.5989  1.2997
   10SAPS   O31 1229   1.198   6.129   6.638 -0.4112  0.4790 -0.1132
   10SAPS   C31 1230   1.268   6.077   6.531 -1.3108  0.5377  0.2535
   10SAPS   O32 1231   1.386   6.106   6.505  0.6390  0.2719 -0.4717
   10SAPS   C32 1232   1.183   5.980   6.460  0.7770 -0.3323  0.6283
   10SAPS   H2X 1233   1.094   5.958   6.523  0.4375  0.7167  0.5272
   10SAPS   H2Y 1234   1.244   5.889   6.439  1.2592  0.5159 -1.9506
   10SAPS   C23 1235   1.456   6.328   6.266  0.1984 -0.5383 -0.3831
   10SAPS   H3R 1236   1.357   6.279   6.275 -0.0645 -0.1396 -1.0075
   10SAPS   H3S 1237   1.544   6.273   6.304 -0.0051  0.2892  1.4099
   10SAPS   C24 1238   1.464   6.368   6.118  0.8420  0.0678 -0.7140
   10SAPS   H4R 1239   1.556   6.427   6.103  1.6150  0.3791  3.7806
   10SAPS   H4S 1240   1.379   6.438   6.107  2.4014  2.0809 -0.4464
   10SAPS   C25 1241   1.463   6.240   6.042 -0.9412  0.8134 -0.7030
   10SAPS   H5R 1242   1.521   6.160   6.090 -1.1205  0.0084 -1.7962
   10SAPS   C26 1243   1.412   6.219   5.915  0.8867 -0.5485 -0.5804
   10SAPS   H6R 1244   1.440   6.130   5.857 -1.4723 -0.4868 -1.9434
   10SAPS   C27 1245   1.340   6.328   5.838  0.0110 -0.0631  0.3168
   10SAPS   H7R 1246   1.407   6.379   5.765 -1.5464  2.6749  0.6435
   10SAPS   H7S 1247   1.325   6.412   5.909  1.9906 -0.6575  1.5318
   10SAPS   C28 1248   1.208   6.294   5.787  0.5268 -0.8271 -0.1532
   10SAPS   H8R 1249   1.123   6.297   5.857 -0.0421 -0.9051 -0.8314
   10SAPS   C29 1250   1.172   6.267   5.660  0.1092 -0.7421  0.3464
   10SAPS   H9R 1251   1.067   6.241   5.640  0.3216  0.4523 -2.7590
   10SAPS  C210 1252   1.257   6.283   5.537  0.3184 -0.2533  0.1032
   10SAPS  H10R 1253   1.261   6.190   5.476 -1.5606  1.2826 -2.5721
   10SAPS  H10S 1254   1.366   6.303   5.550  0.2909  0.2100 -0.3630
   10SAPS  C211 1255   1.211   6.403   5.457 -0.4405  0.6022  0.0898
   10SAPS  H11R 1256   1.154   6.476   5.516  0.3282  1.5949 -0.3712
   10SAPS  C212 1257   1.223   6.418   5.323  0.8599 -0.1015 -0.4940
   10SAPS  H12R 1258   1.210   6.523   5.290  1.1553  0.4287  0.9976
   10SAPS  C213 1259   1.298   6.325   5.229 -0.1356 -0.1435 -0.5436
   10SAPS  H13R 1260   1.266   6.225   5.264  1.4993 -0.2993  0.6243
   10SAPS  H13S 1261   1.402   6.348   5.261 -0.0171  0.0301 -1.0435
   10SAPS  C214 1262   1.263   6.356   5.083  0.1502  0.4885 -0.2010
   10SAPS  H14R 1263   1.178   6.422   5.061  0.2274  0.8834  0.6605
   10SAPS  C215 1264   1.331   6.307   4.986 -0.1538  0.1099 -0.3565
   10SAPS  H15R 1265   1.298   6.347   4.890 -3.9941  1.3965  1.2992
   10SAPS  C216 1266   1.452   6.218   4.988  0.9883  1.1274  1.2548
   10SAPS  H16R 1267   1.414   6.128   4.934  1.0426  2.2084 -0.6541
   10SAPS  H16S 1268   1.485   6.199   5.093 -0.6472 -0.4742  1.5252
   10SAPS  C217 1269   1.558   6.277   4.898 -0.4861 -0.1327  0.6724
   10SAPS  H17R 1270   1.644   6.210   4.919 -0.8942 -0.3591  1.6130
   10SAPS  H17S 1271   1.589   6.378   4.933 -0.1168  0.3405 -0.9173
   10SAPS  C218 1272   1.535   6.283   4.742  0.2227  0.7408 -0.3690
   10SAPS  H18R 1273   1.442   6.344   4.736 -1.3344 -1.3965  0.6175
   10SAPS  H18S 1274   1.509   6.184   4.699  1.0445  1.0886 -1.7314
   10SAPS  C219 1275   1.655   6.328   4.657 -0.1646 -0.1958 -0.0477
   10SAPS  H19R 1276   1.630   6.312   4.550  2.9016 -4.4124 -0.3806
   10SAPS  H19S 1277   1.746   6.267   4.675 -1.0329 -1.7381 -0.6822
   10SAPS  C220 1278   1.696   6.474   4.680 -0.7000  0.0021 -0.0571
   10SAPS  H20R 1279   1.738   6.495   4.781  0.1441 -1.0140 -0.1786
   10SAPS  H20S 1280   1.610   6.543   4.666 -0.4032  0.0231 -2.0679
   10SAPS  H20T 1281   1.777   6.503   4.610 -0.1488 -0.8550  0.2078
   10SAPS   C33 1282   1.141   6.032   6.320  0.1535 -0.2692 -0.1881
   10SAPS   H3X 1283   1.232   6.082   6.279  1.2612  2.2100  4.6020
   10SAPS   H3Y 1284   1.058   6.105   6.326  1.0293  0.8547 -1.2311
   10SAPS   C34 1285   1.096   5.922   6.222 -0.3493 -0.6153  0.0047
   10SAPS   H4X 1286   1.013   5.859   6.261 -0.5227 -0.5029 -0.1834
   10SAPS   H4Y 1287   1.181   5.851   6.213 -1.4489 -1.7950 -1.6738
   10SAPS   C35 1288   1.071   5.975   6.083  0.1176 -0.7109 -0.5515
   10SAPS   H5X 1289   1.171   5.999   6.040  1.2518 -3.1958  0.4846
   10SAPS   H5Y 1290   1.005   6.065   6.088 -0.3098 -1.0471 -0.0398
   10SAPS   C36 1291   1.021   5.879   5.977 -0.4250  0.2712 -0.2394
   10SAPS   H6X 1292   0.920   5.836   5.994 -1.2357  2.3357  0.4842
   10SAPS   H6Y 1293   1.092   5.793   5.973 -0.8393 -0.0260 -2.1680
   10SAPS   C37 1294   1.014   5.943   5.841  0.0581  0.0121  0.3149
   10SAPS   H7X 1295   1.111   5.976   5.798 -1.5298  3.7054 -0.8278
   10SAPS   H7Y 1296   0.948   6.031   5.858  0.7185  0.4424  0.6565
   10SAPS   C38 1297   0.959   5.841   5.746 -0.5255  0.0391 -0.0307
   10SAPS   H8X 1298   0.873   5.790   5.795 -0.9360  0.8867  0.1380
   10SAPS   H8Y 1299   1.034   5.761   5.725  0.4037  0.6363  0.9469
   10SAPS   C39 1300   0.899   5.896   5.608 -0.4923 -0.0702 -0.2753
   10SAPS   H9X 1301   0.829   5.978   5.634 -0.1759  0.0391  0.2565
   10SAPS   H9Y 1302   0.836   5.823   5.553  1.3059 -0.3203 -2.1170
   10SAPS  C310 1303   1.006   5.948   5.516  0.3012 -0.0937  0.1530
   10SAPS  H10X 1304   1.058   5.855   5.483  1.4172  0.4466  0.3846
   10SAPS  H10Y 1305   1.090   5.998   5.567  0.9924 -2.2184  1.2376
   10SAPS  C311 1306   0.949   6.022   5.395 -0.5067  0.5005  0.1430
   10SAPS  H11X 1307   0.926   6.128   5.420  1.3052  0.9291  0.1454
   10SAPS  H11Y 1308   0.854   5.975   5.360  0.6677 -0.6071 -1.7321
   10SAPS  C312 1309   1.042   6.008   5.276  0.2441  0.4007 -0.1986
   10SAPS  H12X 1310   1.031   5.904   5.237  1.7248 -1.3456  3.4451
   10SAPS  H12Y 1311   1.146   6.007   5.316  1.0637 -0.9753 -2.1724
   10SAPS  C313 1312   1.004   6.106   5.167 -0.2149 -0.6054  0.5553
   10SAPS  H13X 1313   1.043   6.208   5.185 -1.1781  0.5168 -2.9578
   10SAPS  H13Y 1314   0.893   6.112   5.160 -0.1917 -1.6869 -1.2376
   10SAPS  C314 1315   1.053   6.061   5.025  0.1219  0.3694  0.4699
   10SAPS  H14X 1316   1.154   6.016   5.039 -0.2151 -0.4684  0.2516
   10SAPS  H14Y 1317   1.063   6.145   4.952  0.0738 -0.6500 -0.7421
   10SAPS  C315 1318   0.956   5.962   4.966 -0.2383 -0.3309 -0.7895
   10SAPS  H15X 1319   0.855   6.008   4.970  0.6597  1.7501 -0.0273
   10SAPS  H15Y 1320   0.954   5.864   5.017 -0.4344 -0.7861 -1.6602
   10SAPS  C316 1321   0.997   5.935   4.818  0.4180  0.2131 -0.2032
   10SAPS  H16X 1322   1.002   6.029   4.759 -0.6339  0.6776  0.4174
   10SAPS  H16Y 1323   0.920   5.864   4.781  0.7516 -1.0832  1.4745
   10SAPS  C317 1324   1.132   5.866   4.806 -0.1078 -0.2074  0.2437
   10SAPS  H17X 1325   1.143   5.783   4.878  1.5248 -0.6974 -0.5113
   10SAPS  H17Y 1326   1.206   5.945   4.833  1.6394 -0.9851 -1.9325
   10SAPS  C318 1327   1.172   5.835   4.663  0.2162 -0.3048 -0.4913
   10SAPS  H18X 1328   1.166   5.929   4.604 -1.2056  0.6274  1.0426
   10SAPS  H18Y 1329   1.101   5.757   4.627  3.1867 -3.4312 -0.0252
   10SAPS  H18Z 1330   1.274   5.794   4.675  0.0017 -0.1976  2.2957
   11SAPS     N 1331   2.993   4.072   1.953 -0.0468 -0.3590 -0.0315
   11SAPS   HN1 1332   3.062   4.066   2.031 -1.2813 -1.2567  1.0525
   11SAPS   HN2 1333   2.904   4.124   1.966 -0.8242 -0.8222 -2.9152
   11SAPS   HN3 1334   2.977   3.975   1.919 -1.4602 -1.7067  3.8427
   11SAPS   C12 1335   3.055   4.158   1.850 -0.6019  0.9327  0.2268
   11SAPS  H12A 1336   3.160   4.159   1.874 -0.5975  0.3924  0.2333
   11SAPS   C13 1337   3.022   4.120   1.700 -0.7108 -0.4588 -0.4543
   11SAPS  O13A 1338   2.948   4.026   1.672  0.0796 -0.1862  0.0540
   11SAPS  O13B 1339   3.091   4.179   1.613 -0.0776  0.3585 -0.2824
   11SAPS   C11 1340   3.006   4.306   1.871 -0.4458  0.5950 -0.6875
   11SAPS  H11A 1341   2.896   4.318   1.870 -0.4358  0.6717 -1.5879
   11SAPS  H11B 1342   3.036   4.371   1.786 -2.8504  2.5415 -0.1649
   11SAPS     P 1343   3.032   4.510   2.051  0.0785 -0.2196 -0.2670
   11SAPS   O13 1344   3.106   4.606   1.965  0.3228 -0.2286  0.3985
   11SAPS   O14 1345   2.887   4.531   2.063  0.3883  0.1047 -0.4454
   11SAPS   O12 1346   3.067   4.360   1.996  0.7845 -0.4342  0.1950
   11SAPS   O11 1347   3.090   4.508   2.197 -0.8835  0.3031  0.1330
   11SAPS    C1 1348   3.087   4.405   2.292 -0.4899 -0.2085 -0.5140
   11SAPS    HA 1349   3.150   4.320   2.257 -1.0785 -2.3644  3.0617
   11SAPS    HB 1350   3.147   4.439   2.380  1.0455 -0.2086 -1.5300
   11SAPS    C2 1351   2.945   4.366   2.338 -0.5547 -0.7026  0.6848
   11SAPS    HS 1352   2.884   4.337   2.249 -0.2647 -3.5056  1.2870
   11SAPS   O21 1353   2.894   4.473   2.418 -0.7968 -0.1243  0.7291
   11SAPS   C21 1354   2.763   4.486   2.408 -0.1906  1.4696  0.0404
   11SAPS   O22 1355   2.700   4.445   2.313  0.4114 -0.1980 -0.4163
   11SAPS   C22 1356   2.726   4.572   2.523  0.8302 -0.6240 -0.5756
   11SAPS   H2R 1357   2.774   4.540   2.619  2.2348  3.0158  0.0770
   11SAPS   H2S 1358   2.774   4.672   2.521 -0.5269  0.0323 -1.8348
   11SAPS    C3 1359   2.950   4.241   2.424 -0.0598  0.1082 -0.1462
   11SAPS    HX 1360   3.012   4.275   2.510  1.5243  0.7596 -1.4979
   11SAPS    HY 1361   3.002   4.152   2.383 -1.3386 -1.3116  1.1915
   11SAPS   O31 1362   2.819   4.197   2.466 -0.3616  0.0495 -0.6773
   11SAPS   C31 1363   2.756   4.122   2.381  0.4496 -0.2301 -0.3639
   11SAPS   O32 1364   2.782   4.108   2.260 -0.0039 -0.0481  0.3437
   11SAPS   C32 1365   2.644   4.058   2.450 -0.1596 -0.0110  0.7560
   11SAPS   H2X 1366   2.562   4.129   2.473 -0.7912  0.2741 -2.0680
   11SAPS   H2Y 1367   2.682   4.013   2.545  2.0351  0.6179  0.2440
   11SAPS   C23 1368   2.574   4.584   2.548 -0.5346  0.1603 -0.2638
   11SAPS   H3R 1369   2.541   4.613   2.446 -0.0200  0.5961 -0.3102
   11SAPS   H3S 1370   2.554   4.654   2.632  0.1269 -0.9674  0.8553
   11SAPS   C24 1371   2.516   4.444   2.575 -0.3814  0.0446  1.5090
   11SAPS   H4R 1372   2.535   4.370   2.493 -2.8458  0.8814  0.0722
   11SAPS   H4S 1373   2.409   4.475   2.576 -0.2216  0.8145 -0.3316
   11SAPS   C25 1374   2.564   4.377   2.702  0.3009 -0.7652  0.2101
   11SAPS   H5R 1375   2.651   4.311   2.692  1.7792  1.1275 -0.0364
   11SAPS   C26 1376   2.507   4.380   2.827 -0.1832  0.0402  0.7406
   11SAPS   H6R 1377   2.560   4.322   2.904  1.3060  1.2284  0.6604
   11SAPS   C27 1378   2.379   4.448   2.855  0.5687 -0.5095 -0.3504
   11SAPS   H7R 1379   2.312   4.369   2.894 -0.1191 -0.3406 -1.1473
   11SAPS   H7S 1380   2.327   4.463   2.758 -0.6816 -2.9548 -0.1473
   11SAPS   C28 1381   2.378   4.584   2.926 -0.5347  0.4513 -0.1701
   11SAPS   H8R 1382   2.363   4.670   2.860 -1.7110 -1.0366 -1.9533
   11SAPS   C29 1383   2.377   4.607   3.057 -0.7009 -0.0659  0.1907
   11SAPS   H9R 1384   2.372   4.712   3.091  3.0088  0.2655  0.0646
   11SAPS  C210 1385   2.381   4.510   3.171 -0.4161 -0.2804 -0.4501
   11SAPS  H10R 1386   2.378   4.406   3.131  1.9994 -0.8152  0.5887
   11SAPS  H10S 1387   2.293   4.521   3.239  0.0955 -3.0585  0.8328
   11SAPS  C211 1388   2.516   4.525   3.244  0.5369  0.2872 -0.4832
   11SAPS  H11R 1389   2.599   4.545   3.175  1.3070 -1.0685  0.0062
   11SAPS  C212 1390   2.537   4.524   3.375 -0.6426 -0.5632 -0.7480
   11SAPS  H12R 1391   2.642   4.527   3.408 -0.7691  0.1048 -0.3833
   11SAPS  C213 1392   2.436   4.497   3.483  0.1984  0.3933  1.0536
   11SAPS  H13R 1393   2.455   4.395   3.522 -1.3691 -0.1418  0.5314
   11SAPS  H13S 1394   2.332   4.485   3.446  0.5353  0.2667  0.1194
   11SAPS  C214 1395   2.425   4.592   3.599 -0.6156 -0.1522  0.1527
   11SAPS  H14R 1396   2.356   4.676   3.579  0.4544  0.8115  0.3840
   11SAPS  C215 1397   2.499   4.589   3.709  0.1467 -0.1061 -0.3950
   11SAPS  H15R 1398   2.498   4.679   3.772 -1.4548  0.8542 -1.7044
   11SAPS  C216 1399   2.597   4.482   3.752 -0.1733  0.2050 -0.3856
   11SAPS  H16R 1400   2.699   4.520   3.730  0.4834 -0.9485  0.5450
   11SAPS  H16S 1401   2.581   4.395   3.684 -1.2469  0.8895 -1.0383
   11SAPS  C217 1402   2.560   4.462   3.903  0.4255 -0.0590 -0.5155
   11SAPS  H17R 1403   2.455   4.426   3.907 -0.4517  2.2802 -0.6324
   11SAPS  H17S 1404   2.578   4.553   3.965 -1.0196 -0.2939  0.3013
   11SAPS  C218 1405   2.660   4.366   3.973 -0.0298 -0.2567  0.5373
   11SAPS  H18R 1406   2.664   4.401   4.079  0.8745  1.1644  0.0640
   11SAPS  H18S 1407   2.764   4.391   3.944  0.8739 -1.8513  2.1661
   11SAPS  C219 1408   2.631   4.216   3.950 -0.2690  0.0142 -0.2792
   11SAPS  H19R 1409   2.526   4.202   3.916 -1.0735  1.5783  1.3581
   11SAPS  H19S 1410   2.660   4.151   4.036 -0.3619  1.1413  0.6380
   11SAPS  C220 1411   2.709   4.160   3.832 -1.2327  0.4091 -0.2757
   11SAPS  H20R 1412   2.695   4.212   3.735 -0.3448  0.1117 -0.5712
   11SAPS  H20S 1413   2.687   4.053   3.811 -2.0879  0.7543 -1.2289
   11SAPS  H20T 1414   2.816   4.155   3.862 -1.5253  0.1624  0.7578
   11SAPS   C33 1415   2.598   3.928   2.375 -0.1942  0.0980 -0.0762
   11SAPS   H3X 1416   2.679   3.854   2.359 -1.7565 -1.1976 -2.6117
   11SAPS   H3Y 1417   2.553   3.956   2.277  1.3577 -0.5035 -0.9816
   11SAPS   C34 1418   2.510   3.846   2.463 -0.0786 -0.7154  0.0916
   11SAPS   H4X 1419   2.576   3.823   2.549  1.3086  1.9310 -0.1658
   11SAPS   H4Y 1420   2.472   3.755   2.413  1.5536 -0.8929 -0.9058
   11SAPS   C35 1421   2.385   3.918   2.511 -0.2886  0.1849  0.4674
   11SAPS   H5X 1422   2.304   3.872   2.451 -0.0145 -1.6103  1.4142
   11SAPS   H5Y 1423   2.391   4.027   2.491  3.2808  0.0832  0.4020
   11SAPS   C36 1424   2.361   3.894   2.659  0.4615  0.4498 -0.1138
   11SAPS   H6X 1425   2.365   3.784   2.673  0.1559  0.1937 -1.7914
   11SAPS   H6Y 1426   2.254   3.923   2.671  0.7249  2.0950 -1.3689
   11SAPS   C37 1427   2.454   3.960   2.762 -0.5800 -0.6839 -0.6983
   11SAPS   H7X 1428   2.424   4.067   2.760  0.5867 -0.2859  0.9531
   11SAPS   H7Y 1429   2.564   3.965   2.750 -0.3824 -0.1953  1.0131
   11SAPS   C38 1430   2.434   3.915   2.911  0.0029 -0.1867 -0.1603
   11SAPS   H8X 1431   2.491   3.822   2.933  0.9090  0.5449  0.6943
   11SAPS   H8Y 1432   2.329   3.892   2.938 -0.0151 -0.0264 -0.0890
   11SAPS   C39 1433   2.471   4.028   3.007  0.3029  0.3439  0.3267
   11SAPS   H9X 1434   2.421   4.122   2.974  0.9233  0.5058 -0.1854
   11SAPS   H9Y 1435   2.577   4.060   3.000 -0.3292  2.2346 -2.3126
   11SAPS  C310 1436   2.441   4.001   3.153  0.0668  0.2500  0.6063
   11SAPS  H10X 1437   2.511   3.925   3.195 -0.1381  0.0491  0.5831
   11SAPS  H10Y 1438   2.339   3.959   3.154  0.6932 -1.3293  0.5362
   11SAPS  C311 1439   2.442   4.135   3.220 -0.0666  0.0403 -0.3853
   11SAPS  H11X 1440   2.396   4.212   3.155  2.3054  2.5572  0.7226
   11SAPS  H11Y 1441   2.545   4.169   3.246 -0.3963  0.7481  0.0330
   11SAPS  C312 1442   2.364   4.133   3.356 -0.4706  0.4059  0.4403
   11SAPS  H12X 1443   2.256   4.112   3.338 -0.7708  1.2201  1.2335
   11SAPS  H12Y 1444   2.366   4.235   3.398  0.2610  0.7925 -0.4889
   11SAPS  C313 1445   2.425   4.037   3.455 -0.1424 -0.1977  0.1806
   11SAPS  H13X 1446   2.527   4.071   3.483 -0.3641  0.2642  0.4438
   11SAPS  H13Y 1447   2.441   3.941   3.403  3.9020  1.0002 -1.1728
   11SAPS  C314 1448   2.343   4.050   3.587 -0.4035  0.5727  0.0606
   11SAPS  H14X 1449   2.238   4.018   3.570 -0.1078  0.4566 -1.8257
   11SAPS  H14Y 1450   2.347   4.153   3.630  0.5013  0.8861 -0.7243
   11SAPS  C315 1451   2.394   3.959   3.708  0.6309  0.9883  0.1231
   11SAPS  H15X 1452   2.501   3.987   3.721  0.8833 -0.1141  0.5082
   11SAPS  H15Y 1453   2.392   3.848   3.698 -0.9014  0.8341  1.5934
   11SAPS  C316 1454   2.309   3.984   3.835 -0.2216 -0.2636 -0.0898
   11SAPS  H16X 1455   2.207   3.943   3.827  0.2762 -1.6543  0.4645
   11SAPS  H16Y 1456   2.306   4.095   3.843 -0.9061  0.0512 -3.3496
   11SAPS  C317 1457   2.370   3.919   3.959  0.5007 -0.6392  0.0012
   11SAPS  H17X 1458   2.326   3.974   4.044  0.4266 -2.0818  0.9318
   11SAPS  H17Y 1459   2.479   3.942   3.961  0.3180  0.2208  1.9893
   11SAPS  C318 1460   2.335   3.774   3.977 -0.0312 -0.2785 -0.4623
   11SAPS  H18X 1461   2.371   3.737   4.075  4.2233  0.4039 -1.6006
   11SAPS  H18Y 1462   2.374   3.713   3.893 -3.7499 -1.7451 -1.3165
   11SAPS  H18Z 1463   2.224   3.765   3.968  0.0664 -1.4350 -0.6685
   12SAPS     N 1464   3.909   4.421   2.159  0.3588 -0.7077  0.2988
   12SAPS   HN1 1465   3.967   4.446   2.077  0.1517 -1.2353 -0.0139
   12SAPS   HN2 1466   3.808   4.442   2.145  0.4418  2.9456  3.4800
   12SAPS   HN3 1467   3.938   4.481   2.239 -2.0629  2.4012 -0.9707
   12SAPS   C12 1468   3.925   4.268   2.199 -0.3987 -0.9920  0.0019
   12SAPS  H12A 1469   3.948   4.206   2.114  0.4129  0.3663 -0.8100
   12SAPS   C13 1470   4.051   4.246   2.285  0.7247  0.0349  0.5418
   12SAPS  O13A 1471   4.106   4.351   2.331  0.2718  0.7799 -0.3723
   12SAPS  O13B 1472   4.088   4.128   2.309  0.0842 -0.1105 -0.2798
   12SAPS   C11 1473   3.800   4.230   2.278 -0.6124  0.0132  0.1636
   12SAPS  H11A 1474   3.790   4.279   2.378 -1.1523 -0.1003  0.1654
   12SAPS  H11B 1475   3.807   4.125   2.312  0.0842  0.1384  0.4447
   12SAPS     P 1476   3.542   4.286   2.261  0.8389 -0.0396  0.2024
   12SAPS   O13 1477   3.531   4.431   2.262 -0.1056 -0.5049 -0.1670
   12SAPS   O14 1478   3.441   4.199   2.184 -0.0991  0.0149  0.0872
   12SAPS   O12 1479   3.683   4.253   2.200 -0.8434 -0.2961 -0.0853
   12SAPS   O11 1480   3.552   4.238   2.410 -0.2672  0.0013 -0.7775
   12SAPS    C1 1481   3.426   4.221   2.479  0.6093  0.8294 -0.1081
   12SAPS    HA 1482   3.438   4.243   2.588 -0.9506  0.1577  0.2416
   12SAPS    HB 1483   3.354   4.302   2.454  1.1850  0.3089 -3.9441
   12SAPS    C2 1484   3.365   4.080   2.475  0.5248  0.2895 -0.1490
   12SAPS    HS 1485   3.320   4.065   2.375  2.6756  0.3500 -1.1940
   12SAPS   O21 1486   3.267   4.078   2.579 -0.2105  0.0740  0.1024
   12SAPS   C21 1487   3.165   3.992   2.568 -0.2473  0.6890 -0.0754
   12SAPS   O22 1488   3.144   3.920   2.467 -0.2074  0.2411  0.1168
   12SAPS   C22 1489   3.084   3.989   2.697 -0.0181 -0.2119 -0.2163
   12SAPS   H2R 1490   3.107   4.083   2.752 -0.8335  0.0576 -0.3266
   12SAPS   H2S 1491   2.975   4.002   2.680 -0.3244  0.3278  1.9281
   12SAPS    C3 1492   3.478   3.977   2.503  0.1821  0.0141 -1.3965
   12SAPS    HX 1493   3.514   4.004   2.605 -0.3552 -1.5931 -0.7441
   12SAPS    HY 1494   3.552   3.995   2.421  1.2731  1.5023 -0.1544
   12SAPS   O31 1495   3.430   3.843   2.505  0.3920 -0.3417 -0.3886
   12SAPS   C31 1496   3.506   3.756   2.576  0.2103 -0.2480 -0.0572
   12SAPS   O32 1497   3.606   3.791   2.630 -0.5737 -0.2295  0.8108
   12SAPS   C32 1498   3.428   3.624   2.590  0.1450  0.8652 -0.2806
   12SAPS   H2X 1499   3.394   3.591   2.489  0.1086 -0.2237  0.0669
   12SAPS   H2Y 1500   3.336   3.638   2.651  1.4533 -0.7691  2.2679
   12SAPS   C23 1501   3.117   3.867   2.784 -0.3728 -0.4541 -0.3811
   12SAPS   H3R 1502   3.226   3.849   2.793  0.0321  1.9749  0.3251
   12SAPS   H3S 1503   3.078   3.775   2.736 -1.4552 -0.3748  0.3071
   12SAPS   C24 1504   3.057   3.884   2.927  0.3429 -0.3565 -0.1751
   12SAPS   H4R 1505   3.094   3.973   2.981 -2.5997  1.3134 -0.7129
   12SAPS   H4S 1506   3.098   3.799   2.985 -0.4326  0.4245  1.5629
   12SAPS   C25 1507   2.907   3.888   2.923  0.1686  0.2431 -0.1057
   12SAPS   H5R 1508   2.860   3.982   2.893  2.1333  0.2268 -3.8792
   12SAPS   C26 1509   2.826   3.791   2.958 -0.6195  0.8800  0.1490
   12SAPS   H6R 1510   2.718   3.809   2.957 -0.5391  1.3710 -1.0192
   12SAPS   C27 1511   2.868   3.647   2.987  0.2623 -0.4257 -0.1711
   12SAPS   H7R 1512   2.885   3.649   3.097  0.6690  0.3696 -0.2480
   12SAPS   H7S 1513   2.969   3.626   2.945  2.1086  0.3429  3.4666
   12SAPS   C28 1514   2.751   3.556   2.950  0.3867 -0.4457 -0.2081
   12SAPS   H8R 1515   2.758   3.509   2.851 -0.3925  1.0392 -0.9866
   12SAPS   C29 1516   2.628   3.541   3.013 -0.1910  0.0850 -0.6444
   12SAPS   H9R 1517   2.551   3.478   2.966  1.2226 -3.4991  1.4659
   12SAPS  C210 1518   2.595   3.596   3.150  0.0157 -0.4977  0.5672
   12SAPS  H10R 1519   2.629   3.700   3.169 -2.1603  0.4990 -0.6614
   12SAPS  H10S 1520   2.657   3.548   3.229  2.3275  3.2615  1.3103
   12SAPS  C211 1521   2.452   3.595   3.183 -0.3877  0.2967  0.3873
   12SAPS  H11R 1522   2.388   3.606   3.093 -0.0178 -0.9575 -0.0560
   12SAPS  C212 1523   2.405   3.566   3.304  0.6328 -0.1397 -0.1783
   12SAPS  H12R 1524   2.297   3.567   3.322  0.4415  1.2364 -1.2403
   12SAPS  C213 1525   2.493   3.543   3.425 -0.1537  1.1691  0.2181
   12SAPS  H13R 1526   2.580   3.612   3.415  0.9580  0.2019  2.2804
   12SAPS  H13S 1527   2.537   3.441   3.422 -2.2872  0.2119 -0.3127
   12SAPS  C214 1528   2.420   3.578   3.555 -0.1276  0.1136  0.1355
   12SAPS  H14R 1529   2.386   3.683   3.554 -2.0936 -0.4295 -2.8370
   12SAPS  C215 1530   2.380   3.496   3.658 -0.0597 -0.4144  0.1351
   12SAPS  H15R 1531   2.326   3.531   3.747  1.3073 -1.2687  1.3672
   12SAPS  C216 1532   2.416   3.351   3.668  0.3775  0.4776  0.2677
   12SAPS  H16R 1533   2.508   3.327   3.611  0.1721 -0.0962  0.1677
   12SAPS  H16S 1534   2.334   3.290   3.624  0.6230  1.2257 -1.2936
   12SAPS  C217 1535   2.433   3.312   3.815  0.1217 -0.1729 -0.2867
   12SAPS  H17R 1536   2.333   3.324   3.862  0.4369  0.8205  0.1322
   12SAPS  H17S 1537   2.507   3.380   3.860 -0.1367 -2.1952  3.5919
   12SAPS  C218 1538   2.468   3.163   3.840 -0.8713 -1.0021 -0.6252
   12SAPS  H18R 1539   2.572   3.154   3.804 -1.0467 -0.9462 -1.1500
   12SAPS  H18S 1540   2.402   3.098   3.778  0.2513 -1.5321 -1.2855
   12SAPS  C219 1541   2.453   3.120   3.985 -0.3065  0.3424  0.0031
   12SAPS  H19R 1542   2.352   3.152   4.017 -0.1623 -2.3703  3.7871
   12SAPS  H19S 1543   2.532   3.166   4.048  0.1253  0.3247 -0.5107
   12SAPS  C220 1544   2.465   2.973   4.007  0.7114 -0.3042 -0.4831
   12SAPS  H20R 1545   2.383   2.918   3.957  1.8872 -1.7731 -0.8645
   12SAPS  H20S 1546   2.457   2.943   4.114 -0.2087  3.0228  0.5178
   12SAPS  H20T 1547   2.562   2.952   3.957  0.6193  2.1452 -1.8534
   12SAPS   C33 1548   3.514   3.512   2.657 -0.3922 -0.0510  0.1187
   12SAPS   H3X 1549   3.615   3.506   2.612 -0.2529  0.4032  0.3682
   12SAPS   H3Y 1550   3.475   3.410   2.636 -0.0237 -0.3937  1.0455
   12SAPS   C34 1551   3.533   3.533   2.810  0.5076 -0.2790 -0.3244
   12SAPS   H4X 1552   3.430   3.548   2.850  0.4077  0.6813 -0.9144
   12SAPS   H4Y 1553   3.591   3.624   2.834 -1.0365  0.2564  1.6804
   12SAPS   C35 1554   3.596   3.404   2.869 -0.4424 -0.5916 -0.2023
   12SAPS   H5X 1555   3.682   3.376   2.806 -2.7180 -3.6056 -2.2300
   12SAPS   H5Y 1556   3.520   3.324   2.857 -0.5962 -0.4554 -0.1518
   12SAPS   C36 1557   3.644   3.419   3.015  0.1971 -0.3421 -0.1915
   12SAPS   H6X 1558   3.721   3.498   3.030  0.4836 -0.7936  0.8633
   12SAPS   H6Y 1559   3.695   3.324   3.041  0.4746 -0.2169 -0.2787
   12SAPS   C37 1560   3.521   3.419   3.107  0.0944 -0.0806 -0.2889
   12SAPS   H7X 1561   3.453   3.338   3.072 -0.2677  0.9296 -2.0314
   12SAPS   H7Y 1562   3.470   3.517   3.106  1.0952  0.5329  2.0868
   12SAPS   C38 1563   3.577   3.398   3.253 -0.0144  0.3153  0.4213
   12SAPS   H8X 1564   3.643   3.486   3.271 -1.6695  1.4940  0.9800
   12SAPS   H8Y 1565   3.624   3.298   3.245 -0.9117 -0.0673 -0.4244
   12SAPS   C39 1566   3.461   3.382   3.361  0.1747 -0.0635 -0.0269
   12SAPS   H9X 1567   3.389   3.301   3.336 -0.6005  0.6785 -0.2326
   12SAPS   H9Y 1568   3.402   3.476   3.355  0.3218  0.1670  1.7926
   12SAPS  C310 1569   3.518   3.383   3.502 -0.2863  0.0626 -0.4841
   12SAPS  H10X 1570   3.562   3.485   3.513  0.1747 -0.1219 -0.6139
   12SAPS  H10Y 1571   3.592   3.306   3.532  0.9101  1.5440  0.5249
   12SAPS  C311 1572   3.398   3.383   3.604 -0.2374 -0.2752  0.9952
   12SAPS  H11X 1573   3.348   3.291   3.568 -0.3026 -0.7086  2.1498
   12SAPS  H11Y 1574   3.338   3.474   3.586 -1.4375 -1.0075  1.2325
   12SAPS  C312 1575   3.438   3.375   3.753  0.1078  1.1243  0.0796
   12SAPS  H12X 1576   3.460   3.271   3.785  0.4116  1.3329  0.5747
   12SAPS  H12Y 1577   3.346   3.396   3.812  1.1025  2.2354  1.3373
   12SAPS  C313 1578   3.545   3.469   3.797 -0.7126  0.0651 -0.2076
   12SAPS  H13X 1579   3.543   3.570   3.750  0.4858  0.4446  0.5270
   12SAPS  H13Y 1580   3.641   3.422   3.769 -0.7934 -0.9995  1.2133
   12SAPS  C314 1581   3.562   3.468   3.954 -0.5741 -0.7387 -0.6351
   12SAPS  H14X 1582   3.594   3.369   3.995 -2.0382 -1.5457 -1.3847
   12SAPS  H14Y 1583   3.463   3.492   3.999 -0.8380 -1.7606 -0.6354
   12SAPS  C315 1584   3.673   3.561   3.996 -0.0276 -0.1166  0.0427
   12SAPS  H15X 1585   3.636   3.653   3.948 -2.2777 -1.4313 -0.8948
   12SAPS  H15Y 1586   3.768   3.535   3.943 -0.6419 -0.8208 -0.7489
   12SAPS  C316 1587   3.684   3.571   4.149  0.2192 -0.1932 -0.8893
   12SAPS  H16X 1588   3.723   3.474   4.186  2.1508  0.4485 -1.1045
   12SAPS  H16Y 1589   3.585   3.574   4.199  0.4513 -0.7290 -0.3882
   12SAPS  C317 1590   3.776   3.679   4.201  0.2709 -0.0523 -0.1768
   12SAPS  H17X 1591   3.760   3.770   4.139 -0.5777 -0.2142 -0.2001
   12SAPS  H17Y 1592   3.882   3.647   4.194  0.0256 -0.8135 -0.4573
   12SAPS  C318 1593   3.754   3.726   4.349 -0.3901  0.9577  0.2235
   12SAPS  H18X 1594   3.743   3.631   4.405 -1.6350  0.8341 -0.2158
   12SAPS  H18Y 1595   3.665   3.789   4.371 -0.3515  0.5497  1.6340
   12SAPS  H18Z 1596   3.852   3.773   4.373  0.7468  0.8829 -3.5846
   13SAPS     N 1597   5.272   3.470   2.091  0.0122 -1.1583  0.1316
   13SAPS   HN1 1598   5.205   3.458   2.170 -1.2574 -2.6831 -1.1164
   13SAPS   HN2 1599   5.214   3.478   2.005  0.7788 -3.2868 -0.6463
   13SAPS   HN3 1600   5.315   3.376   2.082 -0.4829 -1.4080  0.3004
   13SAPS   C12 1601   5.377   3.575   2.100 -0.1540 -0.0253 -0.5762
   13SAPS  H12A 1602   5.462   3.527   2.052  0.5101  0.4631  0.0786
   13SAPS   C13 1603   5.356   3.717   2.038 -0.5917  0.4405  0.0480
   13SAPS  O13A 1604   5.256   3.735   1.963 -0.0387  0.3624  0.4912
   13SAPS  O13B 1605   5.452   3.799   2.038  0.0457 -0.1483  0.2744
   13SAPS   C11 1606   5.420   3.599   2.247  0.0669  0.6648  0.7062
   13SAPS  H11A 1607   5.503   3.674   2.248  0.1035  0.6197  1.2358
   13SAPS  H11B 1608   5.474   3.506   2.274  1.5423  1.0626 -0.7008
   13SAPS     P 1609   5.335   3.659   2.485  0.3051  0.1625  0.3596
   13SAPS   O13 1610   5.478   3.688   2.497 -0.2472  0.1599 -0.1763
   13SAPS   O14 1611   5.242   3.760   2.532  0.3847 -0.0489  0.2606
   13SAPS   O12 1612   5.309   3.631   2.332  0.2345  0.4697 -0.2730
   13SAPS   O11 1613   5.301   3.515   2.557  0.1701 -0.6874  0.6197
   13SAPS    C1 1614   5.171   3.502   2.617 -0.1717  0.3588  0.0073
   13SAPS    HA 1615   5.163   3.592   2.681  2.3761 -0.2965  1.4212
   13SAPS    HB 1616   5.085   3.493   2.547 -3.5697  2.4592  3.5153
   13SAPS    C2 1617   5.172   3.365   2.697  0.2117  0.6447  0.4312
   13SAPS    HS 1618   5.078   3.350   2.755  0.4482 -1.8464  0.3105
   13SAPS   O21 1619   5.279   3.351   2.786 -0.7138 -0.6456 -0.5849
   13SAPS   C21 1620   5.272   3.440   2.883 -0.5153 -0.2019 -0.3655
   13SAPS   O22 1621   5.168   3.496   2.923 -0.9289 -0.1499  0.2646
   13SAPS   C22 1622   5.409   3.468   2.953 -0.5591  0.5152  0.2985
   13SAPS   H2R 1623   5.398   3.462   3.064 -1.6652  0.6067  0.2057
   13SAPS   H2S 1624   5.474   3.384   2.921  0.4828  2.4962 -3.2778
   13SAPS    C3 1625   5.172   3.239   2.601 -0.2779  0.7376  0.3160
   13SAPS    HX 1626   5.281   3.241   2.579 -0.0473 -0.6253  1.2594
   13SAPS    HY 1627   5.122   3.270   2.507  0.9198 -0.4074 -0.7442
   13SAPS   O31 1628   5.143   3.120   2.664  0.3733  0.2983 -0.3090
   13SAPS   C31 1629   5.015   3.098   2.674 -0.4954  0.5468 -0.8384
   13SAPS   O32 1630   4.929   3.179   2.640  0.6424 -0.1371  0.4079
   13SAPS   C32 1631   5.000   2.961   2.759  0.3285  0.0939  0.2275
   13SAPS   H2X 1632   5.042   2.969   2.862  1.0694  0.7221 -0.1104
   13SAPS   H2Y 1633   5.065   2.888   2.706 -1.3095 -1.0226 -0.2978
   13SAPS   C23 1634   5.455   3.607   2.920 -0.2084 -0.5469 -0.3771
   13SAPS   H3R 1635   5.439   3.602   2.810  2.0056 -2.6252 -0.6726
   13SAPS   H3S 1636   5.565   3.611   2.928 -0.3193  0.9151  0.8476
   13SAPS   C24 1637   5.402   3.727   2.996  0.3355  0.6705  0.2180
   13SAPS   H4R 1638   5.426   3.710   3.103  2.5937 -2.3781 -0.6248
   13SAPS   H4S 1639   5.291   3.729   2.983  0.4430  0.5194 -0.8304
   13SAPS   C25 1640   5.455   3.860   2.937 -0.1208  0.1593 -0.2131
   13SAPS   H5R 1641   5.434   3.872   2.830  0.7085  1.8428 -0.2152
   13SAPS   C26 1642   5.546   3.949   2.982 -0.0829 -0.2036  0.5960
   13SAPS   H6R 1643   5.567   4.041   2.926 -0.8687 -0.6210 -0.4288
   13SAPS   C27 1644   5.588   3.950   3.126 -0.2592  0.0748 -0.2447
   13SAPS   H7R 1645   5.538   3.878   3.194 -0.7195  1.7830  1.3257
   13SAPS   H7S 1646   5.562   4.049   3.169 -2.0775 -1.6083  3.0011
   13SAPS   C28 1647   5.735   3.931   3.148  1.2262 -0.8454  0.4014
   13SAPS   H8R 1648   5.769   3.859   3.073  1.5578 -1.6023  1.2598
   13SAPS   C29 1649   5.806   3.985   3.248 -0.5338  0.0639 -0.1731
   13SAPS   H9R 1650   5.914   3.969   3.246 -0.5194  0.1191  0.1337
   13SAPS  C210 1651   5.757   4.072   3.360  0.4765 -0.4090  0.2789
   13SAPS  H10R 1652   5.646   4.074   3.360  0.3958 -0.5924  2.8365
   13SAPS  H10S 1653   5.790   4.176   3.342 -1.8472  0.3092 -0.2347
   13SAPS  C211 1654   5.803   4.012   3.494  0.6191  0.4523  0.3631
   13SAPS  H11R 1655   5.785   3.904   3.492 -0.8218  0.6309  1.3153
   13SAPS  C212 1656   5.849   4.071   3.607  0.0759 -0.1005  0.5052
   13SAPS  H12R 1657   5.880   4.015   3.696  1.9027  0.1023  0.0232
   13SAPS  C213 1658   5.866   4.227   3.617  0.3722  0.2819 -0.4183
   13SAPS  H13R 1659   5.784   4.266   3.553  1.5623  4.3017  0.2481
   13SAPS  H13S 1660   5.964   4.252   3.572  1.1106 -1.3580  0.2171
   13SAPS  C214 1661   5.850   4.286   3.756  0.0289  0.0159  0.5820
   13SAPS  H14R 1662   5.946   4.302   3.809  0.8497 -0.8177 -0.5993
   13SAPS  C215 1663   5.735   4.339   3.808  0.0361 -0.1794  0.0736
   13SAPS  H15R 1664   5.747   4.388   3.906  1.0091 -0.7553  0.2632
   13SAPS  C216 1665   5.607   4.344   3.738  0.2156 -0.0760  0.0126
   13SAPS  H16R 1666   5.541   4.278   3.799  0.9131  0.4301  1.3668
   13SAPS  H16S 1667   5.606   4.312   3.632  0.6326 -0.5030  0.1369
   13SAPS  C217 1668   5.530   4.478   3.743  0.2500  0.0658  0.8349
   13SAPS  H17R 1669   5.597   4.555   3.698 -0.5711  1.0066  1.1953
   13SAPS  H17S 1670   5.511   4.504   3.849  0.2054 -1.3478  1.1981
   13SAPS  C218 1671   5.390   4.480   3.665 -0.6054  0.4233  0.2651
   13SAPS  H18R 1672   5.327   4.410   3.725 -0.8590  0.5070  0.0989
   13SAPS  H18S 1673   5.405   4.429   3.568 -0.7259 -1.1545  1.0292
   13SAPS  C219 1674   5.324   4.615   3.636  0.1539 -0.0154  0.9865
   13SAPS  H19R 1675   5.389   4.668   3.563  1.1739 -0.9888  1.1630
   13SAPS  H19S 1676   5.314   4.665   3.734  1.8238 -0.3722  1.3634
   13SAPS  C220 1677   5.185   4.585   3.578 -0.3818 -0.2718  0.0096
   13SAPS  H20R 1678   5.196   4.594   3.468  0.4528 -1.8051 -0.0496
   13SAPS  H20S 1679   5.109   4.658   3.615  0.5950 -0.3616  2.3469
   13SAPS  H20T 1680   5.155   4.479   3.587 -1.3612  0.0152  0.2964
   13SAPS   C33 1681   4.852   2.913   2.762  0.1413 -0.0240 -0.0035
   13SAPS   H3X 1682   4.818   2.888   2.660 -0.4630 -0.2400  0.2443
   13SAPS   H3Y 1683   4.782   2.995   2.787  0.0246  0.2930 -1.3067
   13SAPS   C34 1684   4.838   2.789   2.841 -0.7257  0.1750 -0.1815
   13SAPS   H4X 1685   4.884   2.803   2.941  1.0579  0.3528 -0.9693
   13SAPS   H4Y 1686   4.895   2.705   2.795  1.3479  0.5191  1.6027
   13SAPS   C35 1687   4.692   2.745   2.830  0.1857 -0.1844 -0.0061
   13SAPS   H5X 1688   4.662   2.729   2.724 -1.9237  1.2748  0.3263
   13SAPS   H5Y 1689   4.635   2.820   2.888 -0.6935 -0.7994 -0.0607
   13SAPS   C36 1690   4.656   2.612   2.906  0.1179 -0.4055 -0.2576
   13SAPS   H6X 1691   4.677   2.614   3.015 -0.8958 -1.4278 -0.0347
   13SAPS   H6Y 1692   4.720   2.530   2.868 -0.0648 -1.1240  0.9258
   13SAPS   C37 1693   4.502   2.602   2.890 -0.0272 -0.0460  0.8304
   13SAPS   H7X 1694   4.465   2.597   2.786  2.2784 -0.0621 -0.0462
   13SAPS   H7Y 1695   4.467   2.702   2.925 -1.1632  0.6764 -2.0954
   13SAPS   C38 1696   4.455   2.482   2.969  0.2813  0.6552  0.3087
   13SAPS   H8X 1697   4.518   2.394   2.943 -0.2207  0.4272 -0.1554
   13SAPS   H8Y 1698   4.351   2.462   2.936  0.8356 -1.5660 -0.3115
   13SAPS   C39 1699   4.443   2.501   3.124  0.3820 -0.1781  0.2544
   13SAPS   H9X 1700   4.537   2.519   3.182 -0.0353  2.1146  0.3123
   13SAPS   H9Y 1701   4.401   2.405   3.159 -1.2872  0.0390 -1.0372
   13SAPS  C310 1702   4.332   2.593   3.160  0.2572  0.4239 -0.4033
   13SAPS  H10X 1703   4.234   2.564   3.116  0.3989 -0.9092  0.1203
   13SAPS  H10Y 1704   4.355   2.682   3.097 -0.0492  1.3316  0.7372
   13SAPS  C311 1705   4.341   2.637   3.309 -0.3652  0.1325 -0.0022
   13SAPS  H11X 1706   4.293   2.736   3.324  1.2343  1.1911 -1.4701
   13SAPS  H11Y 1707   4.447   2.657   3.336  0.4073 -2.5151 -0.7811
   13SAPS  C312 1708   4.277   2.537   3.407 -0.4659 -0.1977 -0.2852
   13SAPS  H12X 1709   4.337   2.445   3.419  0.7078  0.7397  1.5541
   13SAPS  H12Y 1710   4.177   2.521   3.362 -1.1387 -0.0333  1.0752
   13SAPS  C313 1711   4.246   2.603   3.538 -0.8431  0.5755 -0.2516
   13SAPS  H13X 1712   4.186   2.694   3.515 -0.0036  1.4065  0.7407
   13SAPS  H13Y 1713   4.339   2.648   3.578 -0.0589  0.1067 -1.4831
   13SAPS  C314 1714   4.186   2.512   3.651 -0.3755  0.0383 -0.2736
   13SAPS  H14X 1715   4.158   2.578   3.735  2.5510  0.5092  0.4714
   13SAPS  H14Y 1716   4.258   2.436   3.690 -0.7441  0.5341  1.4591
   13SAPS  C315 1717   4.064   2.439   3.610  0.1138 -0.7698 -0.0911
   13SAPS  H15X 1718   4.081   2.380   3.517  1.0719  1.6898 -1.5682
   13SAPS  H15Y 1719   3.981   2.513   3.607 -0.3867 -1.0990  2.8619
   13SAPS  C316 1720   4.015   2.330   3.707 -0.1172 -0.1087 -0.3571
   13SAPS  H16X 1721   4.105   2.271   3.736 -1.0017 -1.7034 -0.7212
   13SAPS  H16Y 1722   3.953   2.260   3.648  1.5294 -2.0804  0.1048
   13SAPS  C317 1723   3.932   2.386   3.826 -0.0754 -0.1760 -0.3994
   13SAPS  H17X 1724   3.855   2.454   3.782 -0.5967 -0.6592 -0.2406
   13SAPS  H17Y 1725   3.992   2.446   3.898  0.2519  1.8017 -2.2032
   13SAPS  C318 1726   3.853   2.284   3.905  0.0603  0.3459 -0.5419
   13SAPS  H18X 1727   3.801   2.214   3.837  0.8154 -1.1710  0.3801
   13SAPS  H18Y 1728   3.780   2.343   3.964  1.0950  2.7711 -1.5222
   13SAPS  H18Z 1729   3.914   2.224   3.976 -1.2395  1.5990  1.7608
   14SAPS     N 1730   6.011   4.151   1.794  0.5982  0.2749 -0.0112
   14SAPS   HN1 1731   5.922   4.200   1.815  0.8017 -0.1016  1.9011
   14SAPS   HN2 1732   6.094   4.211   1.810 -0.6039  2.4936 -1.5701
   14SAPS   HN3 1733   6.023   4.131   1.692  1.9540 -2.0738  0.5276
   14SAPS   C12 1734   6.018   4.026   1.864  0.1593 -0.3688 -0.2392
   14SAPS  H12A 1735   5.925   3.972   1.851 -0.4956  0.4456  0.9265
   14SAPS   C13 1736   6.129   3.934   1.794 -0.4297  0.1309 -0.0291
   14SAPS  O13A 1737   6.177   3.959   1.679 -0.2758 -0.0550  0.3621
   14SAPS  O13B 1738   6.116   3.813   1.834  0.4938 -0.7872  0.9107
   14SAPS   C11 1739   6.038   4.048   2.016 -0.0826 -0.7519 -0.1512
   14SAPS  H11A 1740   6.142   4.087   2.015 -0.1866 -0.4133 -2.8075
   14SAPS  H11B 1741   6.036   3.944   2.056 -3.1557 -1.7473 -2.5638
   14SAPS     P 1742   5.832   4.071   2.182 -0.3026 -0.2595 -0.0870
   14SAPS   O13 1743   5.744   4.176   2.235  0.0214 -0.0686 -0.1158
   14SAPS   O14 1744   5.760   3.964   2.119  0.6987 -0.4137  0.2229
   14SAPS   O12 1745   5.935   4.132   2.081  0.3925 -0.1828  0.3147
   14SAPS   O11 1746   5.928   4.014   2.294  0.4849 -0.1103 -0.2405
   14SAPS    C1 1747   6.053   4.077   2.326  0.1529  0.2852 -0.1668
   14SAPS    HA 1748   6.138   4.018   2.284  1.4649  1.1463  1.1672
   14SAPS    HB 1749   6.057   4.178   2.282 -0.1767  0.4636  0.2109
   14SAPS    C2 1750   6.057   4.104   2.479 -0.3347 -0.0409  0.0245
   14SAPS    HS 1751   6.158   4.137   2.508 -0.2029 -0.7110  0.3416
   14SAPS   O21 1752   6.033   3.980   2.556 -0.0189  0.2162  0.9663
   14SAPS   C21 1753   6.130   3.889   2.550  0.5740 -0.1565  0.0380
   14SAPS   O22 1754   6.231   3.898   2.483  0.1611  0.4636  0.0484
   14SAPS   C22 1755   6.093   3.777   2.645 -0.2017  0.5670 -0.7092
   14SAPS   H2R 1756   5.983   3.773   2.656 -0.0837  1.8015  1.6311
   14SAPS   H2S 1757   6.120   3.695   2.574 -0.5941  0.0614 -0.2774
   14SAPS    C3 1758   5.948   4.205   2.517 -0.1423 -0.9519 -0.0784
   14SAPS    HX 1759   5.855   4.145   2.508 -1.3712  0.8820 -0.2685
   14SAPS    HY 1760   5.945   4.289   2.444 -1.3575 -0.1792  0.8137
   14SAPS   O31 1761   5.967   4.255   2.656  0.0762 -0.2219  0.3040
   14SAPS   C31 1762   5.850   4.258   2.727 -0.1298  0.4816  0.2730
   14SAPS   O32 1763   5.747   4.214   2.688  0.0357 -0.3613  0.5685
   14SAPS   C32 1764   5.863   4.335   2.858 -0.1446 -0.5573  0.6044
   14SAPS   H2X 1765   5.859   4.445   2.844 -1.4712 -0.6632  0.0262
   14SAPS   H2Y 1766   5.962   4.307   2.901  0.1195 -0.8192 -0.1578
   14SAPS   C23 1767   6.175   3.764   2.773  0.3200  0.4460 -0.2179
   14SAPS   H3R 1768   6.272   3.818   2.774  0.3195  0.4497  1.1193
   14SAPS   H3S 1769   6.204   3.657   2.768  3.1615  1.0515  1.2011
   14SAPS   C24 1770   6.084   3.785   2.907 -0.2936 -0.2713  0.5729
   14SAPS   H4R 1771   6.136   3.739   2.994  0.9228  1.4886  0.8459
   14SAPS   H4S 1772   6.002   3.711   2.903  0.2522 -0.9521  1.5731
   14SAPS   C25 1773   6.042   3.932   2.927  0.5366  0.1375 -0.4281
   14SAPS   H5R 1774   5.964   3.974   2.863 -0.5473 -0.4953  0.4426
   14SAPS   C26 1775   6.092   4.006   3.034  0.3733 -1.0329  0.3864
   14SAPS   H6R 1776   6.063   4.112   3.043  0.3202 -0.7754 -2.1024
   14SAPS   C27 1777   6.194   3.964   3.133  0.5091 -0.0623  1.1333
   14SAPS   H7R 1778   6.276   3.906   3.086 -0.3909 -0.7608  0.3684
   14SAPS   H7S 1779   6.139   3.886   3.191 -1.7434  1.0418  0.5849
   14SAPS   C28 1780   6.247   4.087   3.199  0.3776  0.1067  0.1570
   14SAPS   H8R 1781   6.296   4.166   3.140 -1.0477 -0.5400 -1.9964
   14SAPS   C29 1782   6.231   4.109   3.332 -0.3457 -0.5535  0.5414
   14SAPS   H9R 1783   6.267   4.199   3.383  1.4017 -2.0242  2.0300
   14SAPS  C210 1784   6.178   4.005   3.430 -0.0138 -0.3983 -0.3355
   14SAPS  H10R 1785   6.085   3.970   3.381 -0.6278 -0.7361  1.0056
   14SAPS  H10S 1786   6.131   4.063   3.513  2.0834 -1.5706  1.7746
   14SAPS  C211 1787   6.268   3.896   3.475 -0.5179 -0.8917  0.3713
   14SAPS  H11R 1788   6.376   3.898   3.460 -0.6657  2.2183 -1.1017
   14SAPS  C212 1789   6.231   3.780   3.522  0.3845 -0.4254 -0.7507
   14SAPS  H12R 1790   6.309   3.715   3.564 -0.6350 -2.7732 -2.2332
   14SAPS  C213 1791   6.094   3.741   3.563  0.4417 -0.1388  0.5032
   14SAPS  H13R 1792   6.020   3.800   3.505 -0.0178 -1.7057 -0.5968
   14SAPS  H13S 1793   6.082   3.767   3.670  0.3195  0.0100  0.4535
   14SAPS  C214 1794   6.061   3.590   3.538 -0.6484 -0.3874  0.5007
   14SAPS  H14R 1795   6.093   3.552   3.440 -1.2340 -0.3529  0.2918
   14SAPS  C215 1796   6.016   3.504   3.630  0.7162 -0.4719 -0.1863
   14SAPS  H15R 1797   6.010   3.398   3.599 -0.6040 -1.4455  2.9960
   14SAPS  C216 1798   5.975   3.519   3.776  0.1894 -0.3482 -0.1868
   14SAPS  H16R 1799   5.900   3.442   3.804 -1.9284  1.1180 -1.5116
   14SAPS  H16S 1800   5.937   3.622   3.792  0.8358 -0.1156 -0.1010
   14SAPS  C217 1801   6.087   3.497   3.885 -0.7291 -0.6475 -0.3769
   14SAPS  H17R 1802   6.156   3.583   3.873 -2.5609  0.7971 -0.9639
   14SAPS  H17S 1803   6.149   3.407   3.862  0.1561 -0.6497  1.7982
   14SAPS  C218 1804   6.025   3.500   4.025  0.0766 -0.4443  0.2490
   14SAPS  H18R 1805   5.944   3.425   4.022 -0.2894 -0.0209 -0.6760
   14SAPS  H18S 1806   5.980   3.597   4.055 -0.1049 -1.5380  4.0575
   14SAPS  C219 1807   6.131   3.467   4.127 -0.6364  0.2851 -0.5326
   14SAPS  H19R 1808   6.213   3.541   4.134  0.0380 -0.3352 -1.7151
   14SAPS  H19S 1809   6.170   3.367   4.100  0.9997  0.7517 -0.0147
   14SAPS  C220 1810   6.066   3.444   4.271  0.1457 -0.7780 -0.0942
   14SAPS  H20R 1811   6.010   3.535   4.300  0.3427  0.0447 -2.1275
   14SAPS  H20S 1812   6.143   3.417   4.347  1.2803 -1.9198 -1.5681
   14SAPS  H20T 1813   6.002   3.353   4.264  0.9155 -1.2250 -1.7381
   14SAPS   C33 1814   5.752   4.288   2.956  0.4941 -0.4692 -0.1438
   14SAPS   H3X 1815   5.781   4.188   2.995  0.7754  0.1543  1.3093
   14SAPS   H3Y 1816   5.650   4.280   2.911 -0.7414  0.5417  2.2772
   14SAPS   C34 1817   5.736   4.381   3.078 -0.1627 -0.3677 -0.1326
   14SAPS   H4X 1818   5.670   4.331   3.152 -0.7945 -0.9109 -1.0433
   14SAPS   H4Y 1819   5.689   4.478   3.051 -0.7172 -0.1492  1.5475
   14SAPS   C35 1820   5.874   4.410   3.145 -0.4183 -0.1226 -0.4363
   14SAPS   H5X 1821   5.936   4.470   3.075 -1.6954  1.1765 -0.4891
   14SAPS   H5Y 1822   5.906   4.307   3.174 -0.1725  0.4140  1.2724
   14SAPS   C36 1823   5.850   4.480   3.283  0.2632  0.0260  0.5306
   14SAPS   H6X 1824   5.785   4.415   3.345 -1.0613  0.8992  0.0882
   14SAPS   H6Y 1825   5.795   4.576   3.276  0.1488 -0.1237 -0.9666
   14SAPS   C37 1826   5.981   4.491   3.353  0.0368  0.2044 -0.3048
   14SAPS   H7X 1827   6.046   4.530   3.272 -0.1689  2.1964  0.4220
   14SAPS   H7Y 1828   6.010   4.392   3.393  1.8428  1.1494  0.8386
   14SAPS   C38 1829   5.984   4.600   3.463 -0.6970  0.6491  0.8352
   14SAPS   H8X 1830   5.909   4.568   3.538  0.4343 -2.7952  0.6776
   14SAPS   H8Y 1831   5.976   4.701   3.418 -0.7367  0.5057  0.5145
   14SAPS   C39 1832   6.120   4.595   3.544  0.9843  0.1298 -0.6054
   14SAPS   H9X 1833   6.207   4.628   3.483  0.9996  2.1238  0.4182
   14SAPS   H9Y 1834   6.126   4.488   3.574 -4.0965 -0.0392  0.8168
   14SAPS  C310 1835   6.122   4.670   3.669 -0.0343 -0.2276 -0.3108
   14SAPS  H10X 1836   6.118   4.779   3.649 -0.1876  0.0440  1.0691
   14SAPS  H10Y 1837   6.218   4.644   3.719 -0.1098  1.6151  0.9140
   14SAPS  C311 1838   6.008   4.649   3.767 -0.1483 -0.5612 -0.8901
   14SAPS  H11X 1839   5.971   4.544   3.767 -3.7356  0.5405  0.7876
   14SAPS  H11Y 1840   5.922   4.708   3.728  0.0509  0.7399  0.5076
   14SAPS  C312 1841   6.054   4.693   3.908 -0.3514 -0.2520 -0.6178
   14SAPS  H12X 1842   6.087   4.799   3.907  2.3721 -0.9996  0.4134
   14SAPS  H12Y 1843   6.139   4.622   3.918 -0.3593 -0.7407 -3.2005
   14SAPS  C313 1844   5.945   4.668   4.012  0.2245 -0.5823  0.9008
   14SAPS  H13X 1845   5.987   4.672   4.115  1.9779  0.2131  0.1921
   14SAPS  H13Y 1846   5.912   4.563   3.996  1.8184 -1.0375  0.3673
   14SAPS  C314 1847   5.817   4.747   4.004 -0.4709 -1.0868 -0.2703
   14SAPS  H14X 1848   5.787   4.764   3.898 -0.2603  0.6971 -0.0879
   14SAPS  H14Y 1849   5.833   4.845   4.054 -0.8635 -0.8095 -0.6750
   14SAPS  C315 1850   5.704   4.666   4.071  0.3179 -0.3574 -0.0264
   14SAPS  H15X 1851   5.729   4.687   4.177 -0.5790 -0.2479  0.1741
   14SAPS  H15Y 1852   5.710   4.559   4.041  2.1830 -0.1639 -0.4269
   14SAPS  C316 1853   5.566   4.729   4.050  0.3826 -0.3648  0.5297
   14SAPS  H16X 1854   5.537   4.706   3.945 -0.6953 -0.1744  0.7760
   14SAPS  H16Y 1855   5.574   4.839   4.051 -2.2778 -0.0944  2.5241
   14SAPS  C317 1856   5.470   4.696   4.161  0.7888 -0.1503  0.0536
   14SAPS  H17X 1857   5.369   4.734   4.136 -0.3220 -0.8463  3.0020
   14SAPS  H17Y 1858   5.496   4.750   4.255 -0.2122 -0.3294  0.4506
   14SAPS  C318 1859   5.469   4.546   4.199  0.3986  0.1526  0.8162
   14SAPS  H18X 1860   5.575   4.520   4.221 -0.0090 -1.6766  0.7682
   14SAPS  H18Y 1861   5.416   4.494   4.115 -1.2917 -0.5146  2.2311
   14SAPS  H18Z 1862   5.408   4.515   4.287 -1.9247 -4.6145 -2.0088
   15SAPS     N 1863   4.253   4.552   2.316 -0.2477  0.5426 -0.8307
   15SAPS   HN1 1864   4.313   4.491   2.258  1.0630  2.0373 -1.1246
   15SAPS   HN2 1865   4.307   4.583   2.399 -1.7405 -0.7637  0.7125
   15SAPS   HN3 1866   4.173   4.490   2.340  1.1464 -0.6133  1.0159
   15SAPS   C12 1867   4.196   4.661   2.233  0.2837  0.6010 -0.5091
   15SAPS  H12A 1868   4.283   4.723   2.220  1.1518  0.3462  3.1500
   15SAPS   C13 1869   4.151   4.617   2.093 -0.5184 -0.3016 -0.6723
   15SAPS  O13A 1870   4.169   4.493   2.058  0.0181 -0.3593 -0.7582
   15SAPS  O13B 1871   4.085   4.698   2.019 -0.3781 -0.2510 -0.3302
   15SAPS   C11 1872   4.078   4.722   2.322 -0.5244 -0.6722  0.2871
   15SAPS  H11A 1873   4.035   4.804   2.260 -1.2434 -1.2236  0.0472
   15SAPS  H11B 1874   4.115   4.770   2.416 -0.3104 -1.3865  0.5760
   15SAPS     P 1875   3.900   4.630   2.491 -0.1231  0.5396 -0.0896
   15SAPS   O13 1876   3.862   4.764   2.525  0.9032 -0.2138  0.1131
   15SAPS   O14 1877   3.789   4.533   2.487  0.5394 -0.5623 -0.2782
   15SAPS   O12 1878   3.976   4.625   2.354 -0.0412 -0.5548  0.3514
   15SAPS   O11 1879   4.004   4.575   2.600  0.2740  0.0265 -0.2124
   15SAPS    C1 1880   4.077   4.650   2.690  0.1635  0.0476  0.6060
   15SAPS    HA 1881   4.177   4.600   2.690 -1.1088 -2.6743 -0.5619
   15SAPS    HB 1882   4.099   4.753   2.654  0.3359  0.0784  0.7949
   15SAPS    C2 1883   4.019   4.650   2.836 -0.4213 -0.0522 -0.1285
   15SAPS    HS 1884   4.098   4.694   2.901  1.5536 -0.4291 -2.1488
   15SAPS   O21 1885   3.969   4.522   2.877 -0.7051 -0.6026  0.6006
   15SAPS   C21 1886   4.060   4.445   2.932 -0.2916  0.5870  0.4637
   15SAPS   O22 1887   4.182   4.460   2.923  0.0085  0.4012  0.1662
   15SAPS   C22 1888   3.984   4.330   2.989  0.4973  0.2638  0.7294
   15SAPS   H2R 1889   3.874   4.343   2.981  0.2487  0.7256  3.6780
   15SAPS   H2S 1890   4.019   4.242   2.930 -0.6271  0.3301 -0.0658
   15SAPS    C3 1891   3.891   4.744   2.855 -0.5639 -0.1278 -0.1364
   15SAPS    HX 1892   3.804   4.715   2.792 -0.1723  0.8286 -1.1395
   15SAPS    HY 1893   3.911   4.852   2.839  3.9045 -0.7607 -0.0954
   15SAPS   O31 1894   3.834   4.731   2.993 -0.2098 -0.0835 -0.2670
   15SAPS   C31 1895   3.884   4.807   3.087  0.4115 -0.9193 -0.1037
   15SAPS   O32 1896   3.998   4.849   3.092 -0.0457  0.1652  0.3434
   15SAPS   C32 1897   3.774   4.842   3.193 -0.4590 -0.0714 -0.1778
   15SAPS   H2X 1898   3.815   4.918   3.263 -1.5275  1.2999 -0.9932
   15SAPS   H2Y 1899   3.745   4.751   3.250 -1.2207  0.0065 -0.4262
   15SAPS   C23 1900   4.010   4.307   3.136  0.1908 -0.3828  0.2072
   15SAPS   H3R 1901   4.116   4.288   3.162  0.6297  1.5589 -0.0157
   15SAPS   H3S 1902   3.959   4.209   3.143 -0.8398  0.1332  0.1592
   15SAPS   C24 1903   3.955   4.407   3.241 -1.0821 -0.6050 -0.3858
   15SAPS   H4R 1904   4.003   4.506   3.232 -1.5000 -0.5278 -1.9398
   15SAPS   H4S 1905   3.988   4.363   3.338 -1.3535  0.5614  0.2629
   15SAPS   C25 1906   3.804   4.429   3.225 -0.4645  0.0317  0.4803
   15SAPS   H5R 1907   3.763   4.488   3.142  0.5264  3.5036  2.2367
   15SAPS   C26 1908   3.712   4.394   3.313  0.0167  0.0401 -0.0297
   15SAPS   H6R 1909   3.611   4.425   3.286 -0.2672 -0.1546  0.7901
   15SAPS   C27 1910   3.722   4.311   3.442 -0.1921  0.1407  0.7148
   15SAPS   H7R 1911   3.817   4.310   3.499  0.3140 -0.0567 -0.1064
   15SAPS   H7S 1912   3.696   4.208   3.408 -2.0276  0.6128  0.5285
   15SAPS   C28 1913   3.614   4.348   3.535  0.3669  0.3012  0.3687
   15SAPS   H8R 1914   3.596   4.453   3.562  0.6657  0.2482  0.7791
   15SAPS   C29 1915   3.520   4.264   3.590  0.3248 -0.8086 -0.1784
   15SAPS   H9R 1916   3.438   4.296   3.656 -1.4278  0.9769 -3.0226
   15SAPS  C210 1917   3.521   4.114   3.569 -0.6525 -0.6337  0.0407
   15SAPS  H10R 1918   3.623   4.071   3.569 -0.5643 -0.5272 -2.3495
   15SAPS  H10S 1919   3.485   4.084   3.468  0.5206 -2.4376  0.1154
   15SAPS  C211 1920   3.432   4.038   3.666 -0.1085  0.4076 -0.0781
   15SAPS  H11R 1921   3.406   4.090   3.759 -1.9695  1.5067 -1.1688
   15SAPS  C212 1922   3.399   3.905   3.655 -0.2639  0.4052 -0.0421
   15SAPS  H12R 1923   3.332   3.862   3.732 -0.4962 -0.6157 -0.7885
   15SAPS  C213 1924   3.443   3.817   3.546 -0.8192  0.1867 -0.2003
   15SAPS  H13R 1925   3.472   3.717   3.586  2.2098  0.9979 -0.1168
   15SAPS  H13S 1926   3.550   3.840   3.525 -1.4038  3.1114 -0.3292
   15SAPS  C214 1927   3.355   3.823   3.423 -0.4656 -0.1301  0.2716
   15SAPS  H14R 1928   3.250   3.841   3.452 -0.4495  0.0034  0.2472
   15SAPS  C215 1929   3.381   3.804   3.294 -0.5101 -0.0296  0.0050
   15SAPS  H15R 1930   3.305   3.832   3.221 -0.2530  0.2640 -0.1537
   15SAPS  C216 1931   3.519   3.787   3.225  1.1405  0.7703  0.3774
   15SAPS  H16R 1932   3.524   3.703   3.153  1.0870 -0.9711  2.3365
   15SAPS  H16S 1933   3.586   3.749   3.305 -0.5269 -0.0448  1.4298
   15SAPS  C217 1934   3.564   3.921   3.155  1.0147  1.3401 -0.9266
   15SAPS  H17R 1935   3.648   3.887   3.091 -0.5875 -1.6860 -1.6171
   15SAPS  H17S 1936   3.598   3.998   3.228 -0.9075  0.5239  0.9375
   15SAPS  C218 1937   3.465   3.974   3.054 -0.0944  0.6808 -0.4638
   15SAPS  H18R 1938   3.367   4.005   3.095 -1.0792 -2.1197 -0.5454
   15SAPS  H18S 1939   3.439   3.897   2.978  1.6303 -2.1727  1.6277
   15SAPS  C219 1940   3.514   4.099   2.979  0.6216 -0.4307 -0.1753
   15SAPS  H19R 1941   3.537   4.175   3.057 -0.7608  0.4684 -0.6066
   15SAPS  H19S 1942   3.430   4.143   2.921 -0.7064 -1.3674  0.9529
   15SAPS  C220 1943   3.635   4.064   2.892 -0.3294 -0.0533 -0.1383
   15SAPS  H20R 1944   3.618   3.971   2.834 -0.2321 -0.9590  1.2411
   15SAPS  H20S 1945   3.726   4.046   2.953  2.3360  0.2187 -3.7028
   15SAPS  H20T 1946   3.649   4.143   2.816 -0.4760  2.1476  1.9869
   15SAPS   C33 1947   3.645   4.903   3.132  0.7806 -0.4980  0.1390
   15SAPS   H3X 1948   3.614   4.828   3.057 -0.2727  1.4102 -1.4111
   15SAPS   H3Y 1949   3.676   4.992   3.073 -2.4377 -0.9494 -2.4816
   15SAPS   C34 1950   3.529   4.947   3.216 -0.5509  0.0888 -0.0629
   15SAPS   H4X 1951   3.467   4.997   3.138 -1.2185  1.7568  1.4822
   15SAPS   H4Y 1952   3.546   5.020   3.298 -1.7942  2.2802 -1.6378
   15SAPS   C35 1953   3.445   4.827   3.275 -0.2831  0.2599  0.0077
   15SAPS   H5X 1954   3.460   4.738   3.209 -1.2917 -0.0134  0.1317
   15SAPS   H5Y 1955   3.336   4.847   3.281 -0.0540  1.0318  2.4984
   15SAPS   C36 1956   3.488   4.786   3.419  0.6805  0.0962 -0.1349
   15SAPS   H6X 1957   3.472   4.876   3.482  0.3933 -0.6383  0.8847
   15SAPS   H6Y 1958   3.595   4.758   3.428  0.9520  0.9909 -0.5120
   15SAPS   C37 1959   3.396   4.669   3.474 -0.5680  0.1074 -0.2487
   15SAPS   H7X 1960   3.436   4.574   3.433  1.7523  0.3224  1.3606
   15SAPS   H7Y 1961   3.291   4.689   3.443  0.1179 -0.2622 -3.1012
   15SAPS   C38 1962   3.384   4.668   3.628 -0.3624  0.0165 -0.7096
   15SAPS   H8X 1963   3.344   4.761   3.672  1.4404  1.8696 -2.7746
   15SAPS   H8Y 1964   3.479   4.645   3.681 -0.7472  1.3893  0.6182
   15SAPS   C39 1965   3.288   4.550   3.666 -0.2109  0.3220 -0.2405
   15SAPS   H9X 1966   3.340   4.507   3.755  0.7741 -0.3722 -1.1271
   15SAPS   H9Y 1967   3.295   4.472   3.587 -2.0368  1.0210 -1.1696
   15SAPS  C310 1968   3.149   4.599   3.703 -0.3836  0.9299 -0.6166
   15SAPS  H10X 1969   3.092   4.639   3.616 -1.1168  1.5886  0.1474
   15SAPS  H10Y 1970   3.159   4.687   3.770  1.4788  1.2953 -1.3377
   15SAPS  C311 1971   3.074   4.495   3.785  0.3207  0.0990  0.0681
   15SAPS  H11X 1972   3.070   4.394   3.739 -0.8686 -0.2260  0.8365
   15SAPS  H11Y 1973   2.964   4.509   3.796 -0.0233 -2.4149  0.3637
   15SAPS  C312 1974   3.120   4.482   3.930  0.3641  0.6417  0.1231
   15SAPS  H12X 1975   3.068   4.563   3.985 -0.6031  0.4302 -0.4526
   15SAPS  H12Y 1976   3.231   4.486   3.941  0.3560 -2.6149  2.9413
   15SAPS  C313 1977   3.081   4.343   3.991 -0.1059  0.0856 -0.1094
   15SAPS  H13X 1978   2.973   4.327   3.973 -0.7191  3.4141 -0.1020
   15SAPS  H13Y 1979   3.098   4.348   4.100 -0.8816 -0.1027  0.0253
   15SAPS  C314 1980   3.166   4.231   3.928 -0.7785  0.5727 -0.2876
   15SAPS  H14X 1981   3.264   4.277   3.901  0.4798 -1.1603  1.0590
   15SAPS  H14Y 1982   3.119   4.202   3.832  1.2949 -3.7966 -0.2616
   15SAPS  C315 1983   3.188   4.095   4.003 -0.3043 -0.0633 -0.5936
   15SAPS  H15X 1984   3.232   4.114   4.103  2.0533 -1.8735 -1.1869
   15SAPS  H15Y 1985   3.273   4.043   3.953  1.8306  0.9205  1.7935
   15SAPS  C316 1986   3.064   4.009   4.019 -0.6747  0.3447  0.5798
   15SAPS  H16X 1987   3.102   3.907   4.043 -3.0145 -1.0789 -1.3164
   15SAPS  H16Y 1988   3.032   4.007   3.912  1.9099  2.3904 -0.3573
   15SAPS  C317 1989   2.962   4.048   4.126  0.7849  0.4940  0.5985
   15SAPS  H17X 1990   2.923   4.148   4.100  0.7564  0.0564 -1.1904
   15SAPS  H17Y 1991   3.024   4.048   4.219 -0.7721  2.5086  1.7106
   15SAPS  C318 1992   2.855   3.933   4.135 -0.8536 -0.2467 -0.2053
   15SAPS  H18X 1993   2.844   3.890   4.033 -1.1618 -0.8353  0.0743
   15SAPS  H18Y 1994   2.761   3.975   4.175 -1.1115  0.5117 -1.5233
   15SAPS  H18Z 1995   2.883   3.867   4.219  0.9562  3.1868  2.1275
   16SAPS     N 1996   5.604   4.389   2.279  0.4566 -0.3288  0.5937
   16SAPS   HN1 1997   5.515   4.387   2.332 -0.4549  3.0466 -0.5344
   16SAPS   HN2 1998   5.620   4.291   2.247 -3.2186 -0.3740 -1.6388
   16SAPS   HN3 1999   5.686   4.423   2.332  0.9422 -1.1499  0.3913
   16SAPS   C12 2000   5.591   4.469   2.148  0.4970 -0.3362 -0.0632
   16SAPS  H12A 2001   5.689   4.490   2.109  1.6710 -1.6678  1.9624
   16SAPS   C13 2002   5.495   4.400   2.046  0.2554  0.1590  0.5035
   16SAPS  O13A 2003   5.469   4.277   2.069 -0.8799  0.6412  0.3079
   16SAPS  O13B 2004   5.456   4.455   1.939 -0.0237 -0.2427 -0.3498
   16SAPS   C11 2005   5.538   4.613   2.189  0.2323  0.4454  0.4982
   16SAPS  H11A 2006   5.439   4.591   2.233 -1.4851  1.0950 -2.7359
   16SAPS  H11B 2007   5.509   4.676   2.102  3.6329  1.7874  0.1592
   16SAPS     P 2008   5.705   4.802   2.204 -0.2495  0.2836 -0.5017
   16SAPS   O13 2009   5.733   4.757   2.065  0.0832 -0.6785  0.2063
   16SAPS   O14 2010   5.626   4.925   2.218 -0.2133  0.1286  0.4037
   16SAPS   O12 2011   5.634   4.683   2.276  0.2060 -0.1355  0.3539
   16SAPS   O11 2012   5.845   4.810   2.275  0.1318  0.2783  0.1362
   16SAPS    C1 2013   5.906   4.681   2.306 -0.9734  0.6925  0.2474
   16SAPS    HA 2014   5.840   4.597   2.276  2.0698 -0.3694 -4.4726
   16SAPS    HB 2015   5.987   4.671   2.231 -1.2068  1.4179 -0.1163
   16SAPS    C2 2016   5.967   4.671   2.441  0.2443  0.4872  0.2932
   16SAPS    HS 2017   6.012   4.570   2.449 -0.1910  0.1585 -1.0967
   16SAPS   O21 2018   5.863   4.688   2.543 -0.1407 -0.4074 -0.1748
   16SAPS   C21 2019   5.773   4.594   2.555  0.4747 -0.0102 -0.2568
   16SAPS   O22 2020   5.764   4.491   2.491 -0.1866  0.8323 -0.2350
   16SAPS   C22 2021   5.662   4.653   2.658  0.1006  0.0634 -0.2948
   16SAPS   H2R 2022   5.714   4.666   2.756 -2.4024  0.7898  1.0280
   16SAPS   H2S 2023   5.616   4.746   2.618  1.3456  0.3347 -1.1436
   16SAPS    C3 2024   6.079   4.775   2.462 -0.0702 -0.2940 -0.3524
   16SAPS    HX 2025   6.053   4.865   2.403  0.3972  0.9704  1.2857
   16SAPS    HY 2026   6.171   4.753   2.404 -0.0175 -0.5167 -0.1863
   16SAPS   O31 2027   6.111   4.803   2.598  1.0774  0.9015 -0.7879
   16SAPS   C31 2028   6.212   4.891   2.613  0.2492  0.1820  0.4761
   16SAPS   O32 2029   6.274   4.939   2.516  0.1700 -0.3776 -0.7257
   16SAPS   C32 2030   6.237   4.934   2.761 -0.1365  0.2376 -0.5035
   16SAPS   H2X 2031   6.143   4.964   2.812 -0.6516  3.3241 -2.9038
   16SAPS   H2Y 2032   6.295   5.029   2.755 -2.0334  1.6265  1.4467
   16SAPS   C23 2033   5.543   4.559   2.685  0.0624 -0.1176 -0.6444
   16SAPS   H3R 2034   5.587   4.457   2.682  0.3930 -0.0348  0.5441
   16SAPS   H3S 2035   5.467   4.561   2.605  0.9979  0.2644 -1.5490
   16SAPS   C24 2036   5.476   4.578   2.822 -0.2737 -0.4098  0.8590
   16SAPS   H4R 2037   5.552   4.589   2.902  0.5793 -1.3055  0.1848
   16SAPS   H4S 2038   5.427   4.481   2.848 -0.4948 -0.8248 -0.9779
   16SAPS   C25 2039   5.371   4.679   2.834  0.0350  0.1480  0.8011
   16SAPS   H5R 2040   5.277   4.653   2.784 -0.1753  0.3960  1.0613
   16SAPS   C26 2041   5.372   4.794   2.907  0.3075  0.2172 -0.4956
   16SAPS   H6R 2042   5.284   4.860   2.913  0.9312  0.9690  1.0778
   16SAPS   C27 2043   5.489   4.856   2.984  0.2399 -0.5571 -0.5878
   16SAPS   H7R 2044   5.504   4.956   2.940 -0.1653 -0.4429 -0.4705
   16SAPS   H7S 2045   5.585   4.801   2.977  0.7938  0.0712  1.3536
   16SAPS   C28 2046   5.481   4.881   3.135  0.4534  0.1209  0.1918
   16SAPS   H8R 2047   5.510   4.984   3.157  0.4766 -0.0672  1.0616
   16SAPS   C29 2048   5.442   4.786   3.229  0.1774 -0.2251  0.2473
   16SAPS   H9R 2049   5.452   4.814   3.335 -0.8172 -0.8840  0.5318
   16SAPS  C210 2050   5.396   4.648   3.212 -0.4712 -0.1195  0.1351
   16SAPS  H10R 2051   5.386   4.615   3.106  1.7601  0.2770 -0.2394
   16SAPS  H10S 2052   5.293   4.643   3.253 -0.2627  2.2361  1.0717
   16SAPS  C211 2053   5.470   4.539   3.276  0.2803  0.0479  0.2502
   16SAPS  H11R 2054   5.562   4.576   3.322  1.2596 -0.9576 -0.8432
   16SAPS  C212 2055   5.430   4.414   3.289  0.1668  0.2915 -0.4916
   16SAPS  H12R 2056   5.495   4.345   3.346  3.3368  1.8067 -1.9853
   16SAPS  C213 2057   5.305   4.352   3.226 -0.1812 -0.1916 -0.0627
   16SAPS  H13R 2058   5.277   4.394   3.127  1.0624 -1.1724 -0.8586
   16SAPS  H13S 2059   5.213   4.373   3.285 -1.2737  1.0969 -2.1080
   16SAPS  C214 2060   5.318   4.201   3.222  0.4619  0.0239  0.0091
   16SAPS  H14R 2061   5.356   4.171   3.123 -0.7061  0.9435 -0.7406
   16SAPS  C215 2062   5.301   4.109   3.320 -0.5987  0.0777 -0.5057
   16SAPS  H15R 2063   5.329   4.005   3.297  3.6005  0.4037  2.1388
   16SAPS  C216 2064   5.251   4.112   3.462 -0.2068  0.2149  0.5609
   16SAPS  H16R 2065   5.153   4.059   3.456  0.3809 -0.8898  0.4127
   16SAPS  H16S 2066   5.241   4.214   3.503 -3.5702  0.1068  0.2741
   16SAPS  C217 2067   5.342   4.035   3.557 -0.3255 -0.0287  0.5639
   16SAPS  H17R 2068   5.449   4.059   3.538 -0.1663 -0.4475  0.9255
   16SAPS  H17S 2069   5.343   3.927   3.529 -2.7535 -0.5111  2.0696
   16SAPS  C218 2070   5.311   4.054   3.703 -0.1144 -0.0467  0.9237
   16SAPS  H18R 2071   5.212   4.015   3.733 -1.2062  1.2129 -0.8773
   16SAPS  H18S 2072   5.300   4.162   3.724  0.2195  0.4924 -1.3875
   16SAPS  C219 2073   5.427   3.989   3.787  0.3642  0.1462  0.4572
   16SAPS  H19R 2074   5.532   4.012   3.757  0.8622 -0.2959  1.7543
   16SAPS  H19S 2075   5.409   3.880   3.778 -1.8471  0.5084  0.1577
   16SAPS  C220 2076   5.416   4.027   3.932 -0.0990  0.4179 -0.1892
   16SAPS  H20R 2077   5.312   4.035   3.971 -0.1953 -0.9247 -0.1083
   16SAPS  H20S 2078   5.470   4.121   3.952  0.7751  0.0202 -0.6376
   16SAPS  H20T 2079   5.465   3.949   3.994  1.0093 -0.4630 -2.0750
   16SAPS   C33 2080   6.315   4.821   2.833  0.0640  0.0022  0.3689
   16SAPS   H3X 2081   6.418   4.836   2.794  0.9733 -1.2714  2.1185
   16SAPS   H3Y 2082   6.280   4.717   2.815 -1.1845  0.4582  0.1253
   16SAPS   C34 2083   6.323   4.854   2.983 -0.5084  0.1977 -0.0967
   16SAPS   H4X 2084   6.353   4.961   2.988  0.0763  0.0541 -0.4250
   16SAPS   H4Y 2085   6.407   4.807   3.038  0.3395  1.0061 -0.6694
   16SAPS   C35 2086   6.193   4.818   3.057  1.0513  0.2844 -0.3108
   16SAPS   H5X 2087   6.155   4.714   3.053 -1.4925  0.9829  2.2618
   16SAPS   H5Y 2088   6.107   4.861   3.002 -0.7156 -0.3670  1.7974
   16SAPS   C36 2089   6.197   4.866   3.203  0.1013  0.5305 -0.1084
   16SAPS   H6X 2090   6.134   4.785   3.248  1.6758 -0.7489 -0.1239
   16SAPS   H6Y 2091   6.148   4.965   3.212  3.3851  2.3652 -0.9497
   16SAPS   C37 2092   6.332   4.864   3.276 -0.5241  0.2161 -0.2016
   16SAPS   H7X 2093   6.404   4.941   3.239 -0.2014 -0.7269 -1.5934
   16SAPS   H7Y 2094   6.379   4.764   3.268  0.3384  0.6196 -0.2785
   16SAPS   C38 2095   6.313   4.892   3.427  0.6283  0.7139  0.3931
   16SAPS   H8X 2096   6.215   4.850   3.458  0.4297  0.3565 -0.6972
   16SAPS   H8Y 2097   6.317   5.003   3.438  0.6710  0.6094  1.6106
   16SAPS   C39 2098   6.423   4.829   3.510  0.4059  0.3209  0.2994
   16SAPS   H9X 2099   6.519   4.853   3.458 -1.5319  1.9211 -2.8370
   16SAPS   H9Y 2100   6.423   4.718   3.516  0.4686  0.3304  0.5005
   16SAPS  C310 2101   6.416   4.884   3.653  0.1581  0.2274  0.0144
   16SAPS  H10X 2102   6.322   4.856   3.705 -0.3214  2.2454  0.2888
   16SAPS  H10Y 2103   6.415   4.995   3.647 -1.0610  0.1489 -3.1777
   16SAPS  C311 2104   6.534   4.841   3.739  0.1173 -0.0556  0.4317
   16SAPS  H11X 2105   6.527   4.900   3.833  0.7290  1.6910 -0.5687
   16SAPS  H11Y 2106   6.622   4.868   3.677  0.4130 -1.1019  0.3857
   16SAPS  C312 2107   6.551   4.694   3.769 -0.9437  0.1860  0.3427
   16SAPS  H12X 2108   6.571   4.639   3.675  2.5128  1.3240  0.2789
   16SAPS  H12Y 2109   6.456   4.645   3.801  0.7576 -1.7548  2.8351
   16SAPS  C313 2110   6.662   4.667   3.872  0.3040  0.0722 -0.4607
   16SAPS  H13X 2111   6.757   4.718   3.847  0.8018 -0.8552 -0.5145
   16SAPS  H13Y 2112   6.681   4.558   3.882 -0.5269  0.0695  1.5055
   16SAPS  C314 2113   6.618   4.713   4.010 -0.1047  0.3769  0.0194
   16SAPS  H14X 2114   6.518   4.671   4.033 -0.8135  1.8151 -0.2909
   16SAPS  H14Y 2115   6.603   4.822   4.024 -1.7713 -0.0467  1.8746
   16SAPS  C315 2116   6.719   4.671   4.114  0.5296  0.3486  0.7008
   16SAPS  H15X 2117   6.823   4.700   4.088  0.0839  0.9506 -0.5053
   16SAPS  H15Y 2118   6.709   4.563   4.091 -5.0752  0.7408 -0.0344
   16SAPS  C316 2119   6.653   4.699   4.249  0.1659  1.1756  0.3036
   16SAPS  H16X 2120   6.719   4.641   4.317 -0.0591 -2.2189 -2.1519
   16SAPS  H16Y 2121   6.549   4.663   4.259  0.3009  1.4663  3.8899
   16SAPS  C317 2122   6.669   4.847   4.285  0.2185 -0.2685  0.5206
   16SAPS  H17X 2123   6.629   4.910   4.202 -1.6848 -2.5435 -0.4099
   16SAPS  H17Y 2124   6.778   4.865   4.282 -0.1633  2.4996  0.4121
   16SAPS  C318 2125   6.610   4.885   4.429 -0.7645  0.9317  0.5989
   16SAPS  H18X 2126   6.507   4.923   4.416 -0.4199  1.1366 -2.2043
   16SAPS  H18Y 2127   6.668   4.972   4.468  0.8883  1.0669 -1.8711
   16SAPS  H18Z 2128   6.608   4.796   4.495 -0.6525  0.3989 -0.0991
   17SAPS     N 2129   2.219   5.388   1.837 -0.3732  0.1151  0.0166
   17SAPS   HN1 2130   2.211   5.482   1.880  0.9176  0.5688 -0.6723
   17SAPS   HN2 2131   2.191   5.312   1.902  2.2858 -1.4012 -0.4480
   17SAPS   HN3 2132   2.319   5.368   1.815 -0.7485 -1.0358 -0.7431
   17SAPS   C12 2133   2.131   5.400   1.708 -0.3902 -0.0548 -0.1512
   17SAPS  H12A 2134   2.150   5.496   1.664  2.3005  1.0072  2.9830
   17SAPS   C13 2135   2.140   5.288   1.605 -0.7666 -0.0625  0.4248
   17SAPS  O13A 2136   2.224   5.196   1.626 -0.1544  0.3159 -0.4062
   17SAPS  O13B 2137   2.110   5.312   1.484 -0.0366  0.5475 -0.1931
   17SAPS   C11 2138   1.980   5.421   1.757  0.2937  0.1229 -1.3048
   17SAPS  H11A 2139   1.936   5.325   1.793 -1.0107  0.9841 -0.5113
   17SAPS  H11B 2140   1.922   5.444   1.665  0.7060 -0.1163 -1.6244
   17SAPS     P 2141   1.824   5.570   1.902 -0.1792  0.2984 -0.1989
   17SAPS   O13 2142   1.836   5.664   2.018 -0.2800 -0.6259  0.1516
   17SAPS   O14 2143   1.754   5.618   1.785  0.2231  0.2182 -0.0847
   17SAPS   O12 2144   1.969   5.528   1.860  0.1370 -0.4135 -0.2640
   17SAPS   O11 2145   1.767   5.432   1.948 -0.4627  0.1297 -0.0230
   17SAPS    C1 2146   1.844   5.350   2.042  0.0261  0.5678  0.3663
   17SAPS    HA 2147   1.857   5.256   1.985  1.2774  1.8790 -1.6059
   17SAPS    HB 2148   1.949   5.384   2.053 -0.7940  3.2600  0.7098
   17SAPS    C2 2149   1.773   5.339   2.179 -0.0347  0.9590 -0.3413
   17SAPS    HS 2150   1.836   5.288   2.255 -0.5626  0.2648 -0.3550
   17SAPS   O21 2151   1.652   5.264   2.183  0.4205  0.3953  0.1857
   17SAPS   C21 2152   1.671   5.136   2.155  0.8252 -0.0315 -0.4686
   17SAPS   O22 2153   1.777   5.086   2.125 -0.0645  0.1818 -0.8256
   17SAPS   C22 2154   1.548   5.056   2.190  0.5104  0.2985  1.0813
   17SAPS   H2R 2155   1.547   4.975   2.114  2.4468 -0.9210  2.2731
   17SAPS   H2S 2156   1.566   5.000   2.284 -1.1089 -2.1750  0.0186
   17SAPS    C3 2157   1.740   5.480   2.230  0.0599 -0.3422 -0.1019
   17SAPS    HX 2158   1.666   5.534   2.167 -0.6134 -2.8236 -1.5930
   17SAPS    HY 2159   1.831   5.543   2.221 -1.3368  1.6883 -0.9754
   17SAPS   O31 2160   1.697   5.476   2.367 -0.4759 -0.2675 -0.2011
   17SAPS   C31 2161   1.574   5.455   2.404 -0.2223  0.3309  0.0210
   17SAPS   O32 2162   1.477   5.471   2.338  0.0928 -0.6388  0.1945
   17SAPS   C32 2163   1.578   5.421   2.555 -0.4113  0.1807  0.4600
   17SAPS   H2X 2164   1.662   5.468   2.611 -0.9519  1.2898  0.3625
   17SAPS   H2Y 2165   1.601   5.313   2.568  0.6585  0.4283  0.6914
   17SAPS   C23 2166   1.417   5.130   2.209 -0.1421 -0.2365  0.4846
   17SAPS   H3R 2167   1.384   5.172   2.112  0.9063  2.6320  1.2686
   17SAPS   H3S 2168   1.430   5.215   2.280 -0.4767  1.7737 -1.7524
   17SAPS   C24 2169   1.307   5.039   2.263  0.3600  0.4063 -1.1868
   17SAPS   H4R 2170   1.324   5.007   2.368 -1.8556  2.0002 -0.2499
   17SAPS   H4S 2171   1.285   4.956   2.193 -1.2040 -0.2891  0.0376
   17SAPS   C25 2172   1.171   5.116   2.270 -0.4503 -0.6016 -0.3218
   17SAPS   H5R 2173   1.153   5.176   2.180 -2.4699 -1.5764 -0.6177
   17SAPS   C26 2174   1.066   5.114   2.361 -0.1667  0.0926  0.3447
   17SAPS   H6R 2175   0.978   5.169   2.327  0.1915  0.1329 -0.5393
   17SAPS   C27 2176   1.060   5.036   2.486 -0.3841 -0.4779  0.1007
   17SAPS   H7R 2177   1.111   4.938   2.473  0.1134  0.1031 -3.1363
   17SAPS   H7S 2178   0.952   5.032   2.514 -0.3674 -1.2814  0.0726
   17SAPS   C28 2179   1.130   5.109   2.596 -0.2674  0.8185  0.5263
   17SAPS   H8R 2180   1.230   5.068   2.621 -0.3752  1.4888  2.1718
   17SAPS   C29 2181   1.088   5.209   2.674 -0.6301 -0.0049  0.4675
   17SAPS   H9R 2182   1.159   5.250   2.748  2.8362  0.0392 -2.6144
   17SAPS  C210 2183   0.944   5.264   2.669  0.0696 -0.1485  0.5520
   17SAPS  H10R 2184   0.878   5.182   2.705 -0.5953  0.9951  2.0663
   17SAPS  H10S 2185   0.914   5.279   2.563 -0.2601 -0.9290  0.5285
   17SAPS  C211 2186   0.918   5.391   2.750 -0.2603  0.8391  0.4240
   17SAPS  H11R 2187   0.872   5.462   2.679 -0.4162 -0.0655 -0.4069
   17SAPS  C212 2188   0.931   5.417   2.882 -0.3751  0.5662  0.0992
   17SAPS  H12R 2189   0.887   5.516   2.904 -1.1732  0.3343 -0.3813
   17SAPS  C213 2190   0.994   5.326   2.986 -0.3785  0.3260 -0.2529
   17SAPS  H13R 2191   1.038   5.234   2.941 -0.6030 -0.5439  1.2265
   17SAPS  H13S 2192   0.914   5.284   3.051  3.2674 -1.3874  3.6430
   17SAPS  C214 2193   1.095   5.392   3.072  0.0660 -0.0544  0.4299
   17SAPS  H14R 2194   1.186   5.397   3.011 -0.7696  0.3480 -0.8157
   17SAPS  C215 2195   1.093   5.450   3.193  0.1948 -0.1530  0.2756
   17SAPS  H15R 2196   1.188   5.495   3.226  0.5423  1.4378 -2.5292
   17SAPS  C216 2197   0.976   5.463   3.285 -0.3404  0.5057 -0.0214
   17SAPS  H16R 2198   0.889   5.408   3.244 -1.6317  1.6048  1.1452
   17SAPS  H16S 2199   0.944   5.568   3.300 -2.0733 -0.0058  0.0196
   17SAPS  C217 2200   1.019   5.402   3.423 -0.4256 -0.3216  0.2443
   17SAPS  H17R 2201   1.101   5.465   3.462  0.2305 -1.1243  0.1858
   17SAPS  H17S 2202   1.056   5.298   3.411  3.5509  0.7040  2.0723
   17SAPS  C218 2203   0.897   5.404   3.521 -0.4305 -0.1389 -0.5668
   17SAPS  H18R 2204   0.821   5.334   3.480 -1.6314  0.0052  1.3003
   17SAPS  H18S 2205   0.850   5.504   3.520 -0.6810 -0.2410 -2.0946
   17SAPS  C219 2206   0.929   5.369   3.668 -0.8429 -0.0921 -0.1795
   17SAPS  H19R 2207   0.991   5.277   3.665  0.9354  1.0695 -1.0858
   17SAPS  H19S 2208   0.830   5.344   3.711 -1.6079  1.4252 -0.9714
   17SAPS  C220 2209   1.000   5.467   3.757 -0.6461  0.2809 -0.3905
   17SAPS  H20R 2210   0.945   5.563   3.770  0.5268  1.2187 -1.9629
   17SAPS  H20S 2211   1.098   5.498   3.716  0.1029 -1.2319  0.1683
   17SAPS  H20T 2212   1.021   5.419   3.855  0.4515 -2.6714 -1.9555
   17SAPS   C33 2213   1.436   5.452   2.609 -0.1393  0.8662 -0.1284
   17SAPS   H3X 2214   1.360   5.379   2.572 -0.1202 -0.3479  2.0187
   17SAPS   H3Y 2215   1.407   5.555   2.579  2.3644  2.2191  1.7591
   17SAPS   C34 2216   1.440   5.452   2.765 -0.9626  0.0131  0.7993
   17SAPS   H4X 2217   1.495   5.362   2.799  0.1375 -0.0404 -0.9795
   17SAPS   H4Y 2218   1.332   5.445   2.789 -1.1665 -1.7721 -0.3954
   17SAPS   C35 2219   1.485   5.577   2.823  0.1418 -0.7279  0.1983
   17SAPS   H5X 2220   1.496   5.652   2.741  2.4545 -1.9650 -0.7332
   17SAPS   H5Y 2221   1.587   5.558   2.862 -1.1686 -3.4240  2.6638
   17SAPS   C36 2222   1.395   5.623   2.939  0.7193  0.0253 -0.0984
   17SAPS   H6X 2223   1.408   5.537   3.008  2.5837 -0.6658 -1.2365
   17SAPS   H6Y 2224   1.287   5.639   2.919  1.0413  0.5752 -1.5409
   17SAPS   C37 2225   1.448   5.743   3.013  0.2962 -0.0238 -0.5975
   17SAPS   H7X 2226   1.406   5.827   2.955 -1.0532  1.6863  2.5906
   17SAPS   H7Y 2227   1.558   5.736   3.000  0.5267  0.3262  0.9632
   17SAPS   C38 2228   1.415   5.761   3.159  0.0550  0.9275 -0.4024
   17SAPS   H8X 2229   1.306   5.748   3.173  0.4720 -1.4203  1.1949
   17SAPS   H8Y 2230   1.447   5.863   3.189 -1.5843  0.4294  3.7440
   17SAPS   C39 2231   1.476   5.648   3.246  0.3085  0.1452  0.3693
   17SAPS   H9X 2232   1.574   5.620   3.200  0.5875  0.2486  0.8936
   17SAPS   H9Y 2233   1.421   5.552   3.240  1.4522 -0.4589 -1.8416
   17SAPS  C310 2234   1.496   5.694   3.393  0.0528 -0.4991 -0.5101
   17SAPS  H10X 2235   1.400   5.727   3.438  0.1142 -2.3057  1.0516
   17SAPS  H10Y 2236   1.557   5.787   3.400 -1.4792  0.5833 -0.8547
   17SAPS  C311 2237   1.568   5.587   3.475 -0.7465  0.2254  0.2228
   17SAPS  H11X 2238   1.666   5.577   3.424 -2.2971 -0.9035 -2.7348
   17SAPS  H11Y 2239   1.512   5.492   3.464 -0.0466 -0.2541  0.6668
   17SAPS  C312 2240   1.579   5.611   3.621  1.2362  0.7228  0.6321
   17SAPS  H12X 2241   1.600   5.717   3.648 -3.0460  1.2946  2.5582
   17SAPS  H12Y 2242   1.666   5.568   3.674  1.5797  2.3066  1.4036
   17SAPS  C313 2243   1.452   5.560   3.699 -0.4240 -0.0654  0.5441
   17SAPS  H13X 2244   1.455   5.449   3.691 -0.1673 -0.0215 -0.0316
   17SAPS  H13Y 2245   1.362   5.592   3.642 -1.3647 -1.0613  1.4153
   17SAPS  C314 2246   1.450   5.598   3.846 -0.2445 -0.2211 -0.5101
   17SAPS  H14X 2247   1.345   5.623   3.872  0.2240  1.0149  0.2752
   17SAPS  H14Y 2248   1.505   5.694   3.858  0.5455 -0.8826  1.6911
   17SAPS  C315 2249   1.505   5.490   3.947 -0.0112 -0.3509  0.1295
   17SAPS  H15X 2250   1.604   5.462   3.905  0.0799 -0.7489  0.6017
   17SAPS  H15Y 2251   1.438   5.402   3.940 -0.6122  0.1034  0.1230
   17SAPS  C316 2252   1.519   5.546   4.085 -0.0369  0.1604  0.5030
   17SAPS  H16X 2253   1.420   5.584   4.118  0.3695  1.8251 -0.0813
   17SAPS  H16Y 2254   1.581   5.638   4.071 -0.5429  0.2039 -1.9279
   17SAPS  C317 2255   1.579   5.450   4.181 -0.6472  0.0372 -0.2869
   17SAPS  H17X 2256   1.682   5.414   4.161 -0.2096 -2.1986  4.5651
   17SAPS  H17Y 2257   1.523   5.356   4.195 -1.2326  0.5618  1.0114
   17SAPS  C318 2258   1.597   5.513   4.322  0.9624  0.0601  0.6492
   17SAPS  H18X 2259   1.648   5.610   4.305  0.3444  0.3135  0.2141
   17SAPS  H18Y 2260   1.654   5.443   4.388  0.4114  1.4452  2.6891
   17SAPS  H18Z 2261   1.499   5.538   4.368  0.6676  1.1929 -0.5218
   18SAPS     N 2262   4.998   3.022   2.129  0.2885  0.8318 -0.8341
   18SAPS   HN1 2263   5.023   2.930   2.169  0.9702  1.5037  0.3403
   18SAPS   HN2 2264   4.897   3.034   2.150  0.2911 -1.9890  1.3877
   18SAPS   HN3 2265   5.014   3.003   2.028  1.4047  2.5984 -1.0479
   18SAPS   C12 2266   5.084   3.122   2.181  0.3509 -0.1641 -0.5669
   18SAPS  H12A 2267   5.143   3.150   2.094  2.1972  0.4923  0.8123
   18SAPS   C13 2268   5.017   3.247   2.234 -0.2850  0.2098 -0.3666
   18SAPS  O13A 2269   4.895   3.271   2.219 -0.1390  0.5477 -0.1307
   18SAPS  O13B 2270   5.095   3.345   2.267 -0.3499  0.2200 -0.4324
   18SAPS   C11 2271   5.171   3.056   2.295 -0.8335 -0.1405  0.4067
   18SAPS  H11A 2272   5.100   3.049   2.380 -1.7487  0.2524 -0.3042
   18SAPS  H11B 2273   5.247   3.134   2.318 -0.9042  0.5085 -1.3786
   18SAPS     P 2274   5.384   2.899   2.224 -0.2092  0.0497  0.0803
   18SAPS   O13 2275   5.374   2.770   2.157 -0.1201 -0.1075  0.1537
   18SAPS   O14 2276   5.451   3.015   2.157  0.3372 -0.3117  0.0682
   18SAPS   O12 2277   5.232   2.934   2.252 -0.0886  0.1010  0.0210
   18SAPS   O11 2278   5.466   2.876   2.359  0.3988 -0.4911 -0.7163
   18SAPS    C1 2279   5.385   2.832   2.475  0.1180  0.2827 -0.7682
   18SAPS    HA 2280   5.289   2.887   2.479  0.4231  1.1826 -3.4254
   18SAPS    HB 2281   5.357   2.726   2.458 -1.5136  0.3458  1.1915
   18SAPS    C2 2282   5.469   2.840   2.603  0.6651  0.9709  0.4085
   18SAPS    HS 2283   5.552   2.766   2.609  0.6539  0.7565 -1.3458
   18SAPS   O21 2284   5.376   2.830   2.711  0.1060 -0.8239 -0.5245
   18SAPS   C21 2285   5.351   2.706   2.759 -0.6342 -0.2180  0.0533
   18SAPS   O22 2286   5.386   2.607   2.703 -0.2028 -0.0800  0.5772
   18SAPS   C22 2287   5.277   2.729   2.885  0.1383 -0.0637  0.1575
   18SAPS   H2R 2288   5.341   2.797   2.946 -0.4591  0.1540  0.5527
   18SAPS   H2S 2289   5.178   2.777   2.869 -0.7825 -1.4820  1.2697
   18SAPS    C3 2290   5.524   2.989   2.603 -0.0146 -0.3418  0.2279
   18SAPS    HX 2291   5.430   3.040   2.574 -0.7997 -1.5403  0.5887
   18SAPS    HY 2292   5.609   3.003   2.532 -0.2367  0.1316  0.0564
   18SAPS   O31 2293   5.556   3.031   2.738 -0.5356  0.0926  0.2210
   18SAPS   C31 2294   5.679   3.034   2.775  0.1504 -0.6935 -0.4314
   18SAPS   O32 2295   5.774   2.987   2.719 -1.3387 -0.1689 -0.8182
   18SAPS   C32 2296   5.684   3.108   2.910  0.2215 -0.0936  0.5785
   18SAPS   H2X 2297   5.586   3.100   2.960  0.6176  1.2281  1.6058
   18SAPS   H2Y 2298   5.720   3.207   2.873 -1.4109  0.9905  1.7937
   18SAPS   C23 2299   5.257   2.606   2.976  0.0503  0.1847  0.3622
   18SAPS   H3R 2300   5.354   2.564   3.010  0.1886  0.2626  0.0741
   18SAPS   H3S 2301   5.202   2.529   2.918 -0.8439  2.7156 -2.3838
   18SAPS   C24 2302   5.164   2.635   3.096  0.0160 -0.0142 -0.8993
   18SAPS   H4R 2303   5.163   2.534   3.141  0.3220  0.5831  0.5117
   18SAPS   H4S 2304   5.063   2.675   3.072  0.0588  0.8671  0.2784
   18SAPS   C25 2305   5.234   2.724   3.200  0.6696  0.2673 -0.7756
   18SAPS   H5R 2306   5.284   2.814   3.160 -0.4736  1.0766 -0.4509
   18SAPS   C26 2307   5.231   2.712   3.335  0.7885 -0.0666 -0.2717
   18SAPS   H6R 2308   5.302   2.777   3.389  0.1790  0.1627  0.2644
   18SAPS   C27 2309   5.164   2.603   3.417 -0.1990  0.1840  0.3752
   18SAPS   H7R 2310   5.096   2.537   3.358  0.3508 -0.7485  0.7656
   18SAPS   H7S 2311   5.096   2.638   3.498 -0.1211 -0.8571  0.9141
   18SAPS   C28 2312   5.282   2.526   3.476  0.0968 -0.4554 -0.4326
   18SAPS   H8R 2313   5.338   2.456   3.412  3.6015  1.6363  0.1067
   18SAPS   C29 2314   5.318   2.533   3.607 -0.8666  0.3366  0.2067
   18SAPS   H9R 2315   5.390   2.461   3.648  0.6211  1.9622  0.5525
   18SAPS  C210 2316   5.262   2.614   3.728  0.0109 -0.1593 -0.1428
   18SAPS  H10R 2317   5.227   2.541   3.803  0.2355 -1.2970 -1.1001
   18SAPS  H10S 2318   5.178   2.672   3.686  1.7605  1.7692 -1.1859
   18SAPS  C211 2319   5.368   2.709   3.783 -0.0938 -0.1122  1.5919
   18SAPS  H11R 2320   5.469   2.667   3.771  0.2836  1.0910  0.2512
   18SAPS  C212 2321   5.353   2.831   3.841 -0.2055 -0.1364 -0.6346
   18SAPS  H12R 2322   5.443   2.883   3.877 -0.6269 -0.4132  0.9019
   18SAPS  C213 2323   5.226   2.904   3.866  0.8158 -0.2590 -0.0209
   18SAPS  H13R 2324   5.222   2.922   3.976 -1.5074 -0.4763 -0.0361
   18SAPS  H13S 2325   5.142   2.833   3.857 -1.2285  1.8374  1.4825
   18SAPS  C214 2326   5.204   3.019   3.777 -0.5091 -0.4879  0.0025
   18SAPS  H14R 2327   5.160   2.995   3.679  3.0681 -0.4614 -1.7794
   18SAPS  C215 2328   5.226   3.149   3.801 -0.5911 -0.5143  0.2321
   18SAPS  H15R 2329   5.213   3.223   3.721  1.6713 -0.1470  0.1332
   18SAPS  C216 2330   5.276   3.203   3.930  0.6321  0.9222 -0.6839
   18SAPS  H16R 2331   5.335   3.129   3.988 -2.6306 -0.4388  1.1648
   18SAPS  H16S 2332   5.196   3.231   4.001  0.5037 -2.0189  0.4479
   18SAPS  C217 2333   5.379   3.320   3.923  0.4705  0.4033  0.4459
   18SAPS  H17R 2334   5.458   3.297   3.848 -2.2332 -0.6882 -2.3233
   18SAPS  H17S 2335   5.441   3.328   4.014  0.6699  1.1419  0.2511
   18SAPS  C218 2336   5.324   3.462   3.907 -0.3393  0.4557  0.5558
   18SAPS  H18R 2337   5.234   3.466   3.972 -0.8427 -2.0823  0.1338
   18SAPS  H18S 2338   5.273   3.471   3.809 -0.1971 -1.9746  0.2027
   18SAPS  C219 2339   5.422   3.578   3.928  0.4808 -0.0876 -0.2678
   18SAPS  H19R 2340   5.470   3.592   4.027  1.3951  1.3096 -0.8821
   18SAPS  H19S 2341   5.365   3.670   3.904 -0.2825 -0.9233 -1.7809
   18SAPS  C220 2342   5.522   3.584   3.816 -0.6799  0.4983  0.2498
   18SAPS  H20R 2343   5.483   3.547   3.718  1.7434 -1.8596  0.0602
   18SAPS  H20S 2344   5.609   3.517   3.832  0.1694  0.7282 -2.6964
   18SAPS  H20T 2345   5.577   3.680   3.807 -0.8001  0.4665 -1.0657
   18SAPS   C33 2346   5.787   3.067   3.014 -0.5926  0.2347 -0.4199
   18SAPS   H3X 2347   5.796   3.135   3.102 -0.7419  0.4504 -0.5676
   18SAPS   H3Y 2348   5.883   3.058   2.959 -2.1997 -3.5149 -3.0380
   18SAPS   C34 2349   5.756   2.925   3.063 -0.5504 -0.1905 -0.7536
   18SAPS   H4X 2350   5.842   2.892   3.126  0.1108  2.6823  0.0256
   18SAPS   H4Y 2351   5.736   2.855   2.980 -0.1127 -0.5258 -0.5793
   18SAPS   C35 2352   5.626   2.916   3.155 -0.6359 -0.6628 -0.4142
   18SAPS   H5X 2353   5.626   2.809   3.186 -0.8869 -0.9362 -1.3120
   18SAPS   H5Y 2354   5.542   2.936   3.085 -1.5680  0.6400  1.0169
   18SAPS   C36 2355   5.615   3.010   3.282  0.5466  0.1963  0.4834
   18SAPS   H6X 2356   5.510   3.002   3.317  0.6575 -1.2535  0.5325
   18SAPS   H6Y 2357   5.640   3.116   3.258  0.2275 -0.1760 -1.6339
   18SAPS   C37 2358   5.722   2.968   3.378 -0.6926 -0.1100 -0.2530
   18SAPS   H7X 2359   5.819   2.994   3.330 -0.1998  0.9322  1.2337
   18SAPS   H7Y 2360   5.719   2.862   3.411  1.8579 -0.9350 -2.3349
   18SAPS   C38 2361   5.712   3.052   3.502  0.6028 -0.5283 -0.3585
   18SAPS   H8X 2362   5.693   3.158   3.475 -1.7070 -0.5454  0.9623
   18SAPS   H8Y 2363   5.810   3.054   3.555  0.8458  0.5190 -0.8192
   18SAPS   C39 2364   5.608   3.011   3.607  0.0462 -0.0401  0.3952
   18SAPS   H9X 2365   5.625   2.904   3.629  0.0134 -0.6385 -2.1453
   18SAPS   H9Y 2366   5.505   3.019   3.566 -0.0195  0.8110  0.6934
   18SAPS  C310 2367   5.617   3.103   3.733  0.0987  0.2069  0.3330
   18SAPS  H10X 2368   5.523   3.099   3.792  0.0449  0.8533  0.3049
   18SAPS  H10Y 2369   5.623   3.208   3.695  0.5551  1.5022  3.6177
   18SAPS  C311 2370   5.738   3.092   3.825 -0.0190 -0.0068  0.1797
   18SAPS  H11X 2371   5.817   3.156   3.779 -2.1198  1.3980 -1.6546
   18SAPS  H11Y 2372   5.779   2.990   3.811  1.0543  0.4013  0.2735
   18SAPS  C312 2373   5.718   3.124   3.972 -0.0935 -0.9126 -0.8380
   18SAPS  H12X 2374   5.668   3.222   3.989 -0.1987 -0.9796 -0.7586
   18SAPS  H12Y 2375   5.819   3.114   4.019 -0.8501  0.0576  1.1069
   18SAPS  C313 2376   5.633   3.016   4.041  0.2327  0.1348 -0.3561
   18SAPS  H13X 2377   5.655   2.913   4.009 -0.1057 -0.8260  2.2795
   18SAPS  H13Y 2378   5.528   3.030   4.006 -1.2846 -1.0732  3.2190
   18SAPS  C314 2379   5.635   3.013   4.198  0.1230 -0.2238 -0.1713
   18SAPS  H14X 2380   5.558   2.936   4.220  3.1313 -3.3392  0.5275
   18SAPS  H14Y 2381   5.614   3.112   4.242 -0.3274 -0.3114 -0.1844
   18SAPS  C315 2382   5.767   2.962   4.264  0.7930 -0.2969  0.6122
   18SAPS  H15X 2383   5.854   3.028   4.242 -1.4946  3.3319  1.5592
   18SAPS  H15Y 2384   5.783   2.860   4.224 -2.1376 -0.4888 -0.2856
   18SAPS  C316 2385   5.757   2.944   4.412 -0.0670 -0.3185  0.1322
   18SAPS  H16X 2386   5.714   3.034   4.463 -1.6756 -1.6682  1.2567
   18SAPS  H16Y 2387   5.857   2.934   4.458  0.8316  0.6560 -1.5323
   18SAPS  C317 2388   5.682   2.822   4.468 -0.1193  0.0268  0.2691
   18SAPS  H17X 2389   5.726   2.726   4.434 -0.1757 -0.0054  0.2868
   18SAPS  H17Y 2390   5.581   2.835   4.423  0.4439  0.3315 -0.9654
   18SAPS  C318 2391   5.668   2.828   4.619  0.5923 -0.0855 -0.7584
   18SAPS  H18X 2392   5.634   2.929   4.651  0.1930 -0.0917 -1.1445
   18SAPS  H18Y 2393   5.759   2.806   4.678 -0.9391 -1.0774  1.4058
   18SAPS  H18Z 2394   5.592   2.750   4.645  1.2171 -0.9409 -1.4422
   19SAPS     N 2395   5.184   0.508   1.580 -0.3208 -0.3160  0.1909
   19SAPS   HN1 2396   5.260   0.529   1.513 -1.0433  2.4592  0.0976
   19SAPS   HN2 2397   5.188   0.597   1.634  0.4519 -1.0591  1.3950
   19SAPS   HN3 2398   5.204   0.420   1.631  0.4251 -0.5471 -0.4767
   19SAPS   C12 2399   5.049   0.493   1.508  0.9415  0.1077  0.4797
   19SAPS  H12A 2400   5.009   0.590   1.481 -0.1161 -0.4406  0.0269
   19SAPS   C13 2401   5.042   0.387   1.394 -0.5688 -0.1394 -0.1488
   19SAPS  O13A 2402   5.125   0.296   1.405 -0.4422 -0.0694 -0.3449
   19SAPS  O13B 2403   4.930   0.369   1.337  0.2094  0.3368 -0.2151
   19SAPS   C11 2404   4.947   0.447   1.613  0.2734 -0.3500  1.0205
   19SAPS  H11A 2405   4.977   0.347   1.653  0.2628 -0.6544  0.2828
   19SAPS  H11B 2406   4.843   0.430   1.579  0.4164  0.9063 -0.1280
   19SAPS     P 2407   4.828   0.525   1.839 -0.1945  0.1348 -0.1622
   19SAPS   O13 2408   4.712   0.616   1.800  0.1373 -0.0366 -0.4474
   19SAPS   O14 2409   4.802   0.382   1.865 -0.0360 -0.1264  0.0484
   19SAPS   O12 2410   4.945   0.540   1.721  0.0623 -0.3387  0.2104
   19SAPS   O11 2411   4.890   0.577   1.973  0.0820  0.0509  0.0347
   19SAPS    C1 2412   5.029   0.574   2.011 -0.2653 -0.5416 -0.2092
   19SAPS    HA 2413   5.066   0.469   2.006  0.5255 -0.2250 -1.1190
   19SAPS    HB 2414   5.096   0.628   1.941 -0.5611 -0.7630 -0.6632
   19SAPS    C2 2415   5.057   0.644   2.144 -0.2390  0.3909  0.0421
   19SAPS    HS 2416   5.165   0.668   2.142  0.2109 -1.4817  0.0237
   19SAPS   O21 2417   5.035   0.558   2.261 -0.2099 -0.4168 -0.8200
   19SAPS   C21 2418   5.086   0.446   2.260  0.6236  0.3416  0.5549
   19SAPS   O22 2419   5.181   0.404   2.196  0.5071  0.0551 -0.1027
   19SAPS   C22 2420   5.015   0.352   2.360 -0.0933  0.6674 -0.0283
   19SAPS   H2R 2421   4.917   0.328   2.315  0.5246  0.5697 -1.3753
   19SAPS   H2S 2422   5.067   0.255   2.377 -2.6941 -0.9379 -0.7397
   19SAPS    C3 2423   4.983   0.778   2.164  0.6296  0.8279  0.4887
   19SAPS    HX 2424   4.877   0.746   2.167  0.6094  0.8062 -0.3340
   19SAPS    HY 2425   5.006   0.848   2.081  0.4478  1.0581  0.6317
   19SAPS   O31 2426   5.038   0.842   2.277 -0.1023  0.6199 -0.6878
   19SAPS   C31 2427   4.963   0.846   2.382  0.4162  0.5060  0.4461
   19SAPS   O32 2428   4.850   0.812   2.401  0.7207  0.1843 -0.0323
   19SAPS   C32 2429   5.061   0.898   2.495  0.1629 -0.1762  0.7799
   19SAPS   H2X 2430   5.075   1.007   2.481 -1.8711 -0.0870 -1.1813
   19SAPS   H2Y 2431   5.158   0.845   2.479 -0.3533 -0.5083 -1.7512
   19SAPS   C23 2432   4.989   0.428   2.497  0.4621  0.4088 -0.6345
   19SAPS   H3R 2433   4.925   0.515   2.471  1.6393  1.7773  0.8423
   19SAPS   H3S 2434   5.077   0.466   2.552  0.2624 -1.5884  1.2077
   19SAPS   C24 2435   4.914   0.332   2.601 -0.1544 -0.2222  0.2126
   19SAPS   H4R 2436   4.996   0.271   2.645  0.4950  0.8082  0.4508
   19SAPS   H4S 2437   4.858   0.265   2.532  2.4522 -1.4247 -0.8619
   19SAPS   C25 2438   4.835   0.408   2.706  0.1545  0.2336  0.4135
   19SAPS   H5R 2439   4.738   0.439   2.665 -0.8575 -2.0694  0.9058
   19SAPS   C26 2440   4.868   0.454   2.826 -0.2944 -0.1848 -0.6882
   19SAPS   H6R 2441   4.798   0.512   2.889 -0.4705  1.2729 -2.1597
   19SAPS   C27 2442   4.999   0.432   2.897 -0.0930 -0.0911 -1.0089
   19SAPS   H7R 2443   5.007   0.525   2.957  0.3730 -0.6303 -0.2134
   19SAPS   H7S 2444   5.078   0.435   2.818  1.6239  2.9613  0.6287
   19SAPS   C28 2445   5.014   0.306   2.982  0.1750  1.1528  0.0894
   19SAPS   H8R 2446   4.960   0.225   2.931 -1.2821  1.6640  0.7773
   19SAPS   C29 2447   5.071   0.288   3.101 -0.7434  0.0635 -0.2619
   19SAPS   H9R 2448   5.063   0.188   3.145 -0.8881 -0.4977 -1.5107
   19SAPS  C210 2449   5.153   0.396   3.176 -0.3919  0.4989 -0.5104
   19SAPS  H10R 2450   5.082   0.456   3.237 -2.3353 -0.4078 -1.7664
   19SAPS  H10S 2451   5.202   0.462   3.101  2.1997  2.3243  2.5302
   19SAPS  C211 2452   5.266   0.339   3.254  0.2521  0.1194  0.6332
   19SAPS  H11R 2453   5.356   0.308   3.198  0.8419  1.2819  0.9081
   19SAPS  C212 2454   5.271   0.317   3.390  0.1468  0.0500  0.0122
   19SAPS  H12R 2455   5.366   0.288   3.436  0.7042  0.0979 -1.0725
   19SAPS  C213 2456   5.150   0.332   3.472  0.7147 -0.0969 -0.2046
   19SAPS  H13R 2457   5.152   0.267   3.562 -0.7745 -1.8580 -1.3673
   19SAPS  H13S 2458   5.069   0.294   3.406  0.1423  0.5151  0.1377
   19SAPS  C214 2459   5.131   0.473   3.520 -0.0592  0.0835  0.2027
   19SAPS  H14R 2460   5.086   0.542   3.447 -0.7928 -0.6403 -0.0498
   19SAPS  C215 2461   5.155   0.537   3.640  0.1538  0.1092 -0.0813
   19SAPS  H15R 2462   5.133   0.644   3.653 -3.5935 -0.4523 -0.7110
   19SAPS  C216 2463   5.232   0.479   3.756 -0.2481  0.1855 -0.5790
   19SAPS  H16R 2464   5.326   0.535   3.776  0.3477 -1.3255  1.1150
   19SAPS  H16S 2465   5.264   0.375   3.734 -1.0792 -0.2725  0.2981
   19SAPS  C217 2466   5.150   0.463   3.888 -0.1118  0.5453  0.2470
   19SAPS  H17R 2467   5.215   0.404   3.957 -0.9908  0.6980  1.2424
   19SAPS  H17S 2468   5.051   0.415   3.868  0.0734  0.6847 -1.0369
   19SAPS  C218 2469   5.123   0.594   3.969  0.3458 -0.7459  0.6818
   19SAPS  H18R 2470   5.043   0.563   4.040 -2.5389 -0.7927 -2.3552
   19SAPS  H18S 2471   5.088   0.671   3.898 -1.6536 -3.0472 -1.0048
   19SAPS  C219 2472   5.246   0.650   4.038  0.0860 -0.6479  0.4760
   19SAPS  H19R 2473   5.213   0.740   4.096 -1.9041 -0.3688 -0.9658
   19SAPS  H19S 2474   5.316   0.689   3.962 -1.1694  1.8824  0.4916
   19SAPS  C220 2475   5.320   0.561   4.137  0.3795  0.0099 -0.5829
   19SAPS  H20R 2476   5.367   0.471   4.091 -0.1633 -1.0082  0.7806
   19SAPS  H20S 2477   5.246   0.515   4.206 -0.0012 -0.6382 -1.3891
   19SAPS  H20T 2478   5.398   0.616   4.192  1.5023 -0.5747 -1.5341
   19SAPS   C33 2479   4.998   0.878   2.636 -0.2895  0.4743  0.2833
   19SAPS   H3X 2480   4.953   0.777   2.638  0.6081 -0.0299 -1.8443
   19SAPS   H3Y 2481   4.911   0.946   2.644 -0.0549  0.8036  0.0706
   19SAPS   C34 2482   5.094   0.906   2.755  0.3291  0.0848 -0.3090
   19SAPS   H4X 2483   5.138   1.008   2.748 -0.4243  0.3927 -0.6608
   19SAPS   H4Y 2484   5.175   0.829   2.749  0.7866  0.5484 -0.1079
   19SAPS   C35 2485   5.029   0.857   2.889 -1.0311  0.0747 -0.5606
   19SAPS   H5X 2486   4.965   0.769   2.870  0.0570 -0.4250 -2.0616
   19SAPS   H5Y 2487   4.963   0.936   2.931 -0.1664 -1.1822  3.5758
   19SAPS   C36 2488   5.145   0.819   2.985  0.0945 -0.4815 -0.4784
   19SAPS   H6X 2489   5.204   0.911   3.005  0.6774 -1.1904  1.2499
   19SAPS   H6Y 2490   5.210   0.743   2.936 -0.1317 -0.6295 -0.5479
   19SAPS   C37 2491   5.120   0.768   3.125  0.5417 -0.9195  0.4557
   19SAPS   H7X 2492   5.221   0.729   3.149  0.0222 -0.8623  3.0197
   19SAPS   H7Y 2493   5.042   0.690   3.117 -0.8033  0.5644 -1.8322
   19SAPS   C38 2494   5.075   0.879   3.228  0.5186  0.0416  0.3974
   19SAPS   H8X 2495   4.974   0.917   3.205  0.1511 -0.0396  1.7571
   19SAPS   H8Y 2496   5.141   0.968   3.224  0.1113  0.4055  1.4222
   19SAPS   C39 2497   5.078   0.817   3.373  0.4199 -0.3515 -0.0673
   19SAPS   H9X 2498   5.174   0.766   3.395  0.1908  0.3413  3.0367
   19SAPS   H9Y 2499   4.994   0.745   3.376  0.7386 -1.0226 -3.4708
   19SAPS  C310 2500   5.052   0.935   3.479 -0.2606 -0.5816  0.2176
   19SAPS  H10X 2501   4.946   0.969   3.474  0.3869  1.5188 -0.3753
   19SAPS  H10Y 2502   5.118   1.011   3.433 -1.5656 -0.8531 -2.2539
   19SAPS  C311 2503   5.091   0.896   3.623  0.2165 -0.7584  0.3093
   19SAPS  H11X 2504   5.173   0.822   3.612  0.6923 -0.1000 -0.7668
   19SAPS  H11Y 2505   5.004   0.840   3.664 -0.2807 -0.1562  0.0989
   19SAPS  C312 2506   5.156   1.019   3.704  0.1657  0.7275 -0.2129
   19SAPS  H12X 2507   5.088   1.106   3.696  0.3095  0.7477 -1.3896
   19SAPS  H12Y 2508   5.250   1.047   3.653  0.8745 -0.8752  0.1485
   19SAPS  C313 2509   5.199   0.985   3.844  0.1765 -0.2948  0.7749
   19SAPS  H13X 2510   5.302   0.946   3.830 -0.1999 -0.9092 -0.4422
   19SAPS  H13Y 2511   5.134   0.900   3.874 -0.2114 -1.2615 -2.4132
   19SAPS  C314 2512   5.185   1.097   3.946 -0.2172  0.1724  0.2984
   19SAPS  H14X 2513   5.085   1.140   3.924 -0.4219 -0.5035 -0.1220
   19SAPS  H14Y 2514   5.250   1.185   3.925 -2.0956  1.8201  0.9882
   19SAPS  C315 2515   5.214   1.048   4.088  0.3631  0.2171  0.1638
   19SAPS  H15X 2516   5.315   1.001   4.084  0.3862  0.1828  0.9214
   19SAPS  H15Y 2517   5.150   0.964   4.121  0.1976  0.5723  0.7615
   19SAPS  C316 2518   5.221   1.164   4.188  0.4137  0.4060 -0.0354
   19SAPS  H16X 2519   5.253   1.257   4.136  0.5424  0.7214  0.5993
   19SAPS  H16Y 2520   5.283   1.133   4.275 -1.8421  0.4433  1.6582
   19SAPS  C317 2521   5.075   1.186   4.247  1.0262  0.0418 -0.3830
   19SAPS  H17X 2522   5.045   1.095   4.302  0.1668  0.0868 -0.7505
   19SAPS  H17Y 2523   5.013   1.210   4.158  3.4926  1.3419 -1.8337
   19SAPS  C318 2524   5.071   1.313   4.347  0.2487 -0.2240 -0.1559
   19SAPS  H18X 2525   5.103   1.401   4.287 -0.0242  0.1848  0.3015
   19SAPS  H18Y 2526   5.141   1.297   4.432 -1.3411  0.2967  1.2917
   19SAPS  H18Z 2527   4.968   1.339   4.378 -0.4744 -2.1200 -0.7885
   20SAPS     N 2528   6.154   1.753   1.889  0.4214 -0.5003 -0.7406
   20SAPS   HN1 2529   6.146   1.808   1.976 -0.7432 -1.0970 -0.4500
   20SAPS   HN2 2530   6.124   1.656   1.912 -1.2991  0.3556  0.7633
   20SAPS   HN3 2531   6.254   1.756   1.860  0.5211  0.7382 -0.2893
   20SAPS   C12 2532   6.058   1.797   1.781 -0.2732 -0.2572  1.0293
   20SAPS  H12A 2533   6.086   1.898   1.755 -0.0313 -0.7649 -0.8277
   20SAPS   C13 2534   6.077   1.720   1.648  0.3745 -0.5831  0.4873
   20SAPS  O13A 2535   6.153   1.622   1.653  0.0630  0.6275 -0.0260
   20SAPS  O13B 2536   6.044   1.772   1.537 -0.1773 -0.0022 -0.2498
   20SAPS   C11 2537   5.905   1.775   1.816  0.8696  0.1723 -0.3861
   20SAPS  H11A 2538   5.886   1.674   1.859 -0.6780  0.0182 -1.3568
   20SAPS  H11B 2539   5.845   1.790   1.723 -0.8116  0.7592  0.7552
   20SAPS     P 2540   5.722   1.907   1.963  0.1031  0.1166 -0.0710
   20SAPS   O13 2541   5.704   2.053   1.955  0.0188 -0.4585 -0.1838
   20SAPS   O14 2542   5.625   1.824   1.887  0.1488 -0.3042  0.2720
   20SAPS   O12 2543   5.869   1.867   1.917 -0.3342 -0.5067 -0.1374
   20SAPS   O11 2544   5.713   1.862   2.112  0.1364 -0.1551  0.1129
   20SAPS    C1 2545   5.811   1.780   2.179 -0.5154  0.4249 -0.1096
   20SAPS    HA 2546   5.912   1.814   2.149 -0.7718  0.4342 -1.0086
   20SAPS    HB 2547   5.796   1.796   2.288 -0.9203  0.5824 -0.1862
   20SAPS    C2 2548   5.790   1.637   2.150  0.0399  0.7093 -0.6363
   20SAPS    HS 2549   5.789   1.619   2.041 -0.7281 -0.9184 -0.3947
   20SAPS   O21 2550   5.660   1.598   2.205 -0.3546  0.3160 -0.0436
   20SAPS   C21 2551   5.619   1.479   2.165 -0.0254  0.1808  0.0566
   20SAPS   O22 2552   5.677   1.417   2.079 -0.3473 -0.7240  0.6103
   20SAPS   C22 2553   5.482   1.440   2.228 -0.0305  0.1446  0.1556
   20SAPS   H2R 2554   5.506   1.411   2.332 -0.7218 -0.0997  0.2495
   20SAPS   H2S 2555   5.422   1.533   2.236 -1.0379 -0.4575 -0.1878
   20SAPS    C3 2556   5.901   1.547   2.227  0.4158 -0.3185  0.3620
   20SAPS    HX 2557   5.996   1.576   2.178 -0.5002 -0.7683 -1.8137
   20SAPS    HY 2558   5.884   1.440   2.202 -0.9415  0.2406 -1.2962
   20SAPS   O31 2559   5.896   1.577   2.367  0.1502  0.5749  0.2161
   20SAPS   C31 2560   5.837   1.492   2.448 -0.2776 -0.1851 -0.3997
   20SAPS   O32 2561   5.770   1.394   2.417 -0.1116 -0.1500  0.3091
   20SAPS   C32 2562   5.883   1.521   2.586  0.3161  0.0334  0.1101
   20SAPS   H2X 2563   5.881   1.630   2.605  0.6304  0.0560  0.0185
   20SAPS   H2Y 2564   5.979   1.471   2.613 -0.4754 -2.4996 -1.4158
   20SAPS   C23 2565   5.398   1.338   2.147  0.5529 -0.0431 -0.0099
   20SAPS   H3R 2566   5.456   1.258   2.096 -0.4489  0.1952 -1.6167
   20SAPS   H3S 2567   5.341   1.385   2.063  0.6790  1.1162  0.5463
   20SAPS   C24 2568   5.299   1.282   2.248  0.1785  0.1725 -0.9971
   20SAPS   H4R 2569   5.361   1.240   2.330 -1.5047  3.6311  2.4004
   20SAPS   H4S 2570   5.235   1.203   2.203 -2.2742  1.1930  0.4683
   20SAPS   C25 2571   5.198   1.370   2.315 -0.3008 -0.0076 -0.3812
   20SAPS   H5R 2572   5.145   1.442   2.251 -0.7309  2.3480  2.4016
   20SAPS   C26 2573   5.205   1.394   2.451  0.0796  0.0258  0.2229
   20SAPS   H6R 2574   5.125   1.457   2.494  1.0332  0.8124  0.8770
   20SAPS   C27 2575   5.279   1.328   2.559 -0.3396 -0.1839 -0.5610
   20SAPS   H7R 2576   5.327   1.231   2.533  2.0290  0.3894  1.2863
   20SAPS   H7S 2577   5.206   1.307   2.640 -0.8004 -1.2274 -1.2143
   20SAPS   C28 2578   5.387   1.429   2.606 -0.1342 -0.2010 -0.7298
   20SAPS   H8R 2579   5.442   1.478   2.525  0.4091  1.8183  0.7874
   20SAPS   C29 2580   5.419   1.460   2.735  0.0740 -0.0183  0.4498
   20SAPS   H9R 2581   5.498   1.537   2.739 -0.6087  0.7050  0.1600
   20SAPS  C210 2582   5.380   1.397   2.865  0.0714 -0.2382  0.2042
   20SAPS  H10R 2583   5.471   1.409   2.927  0.7737 -5.1190  0.5303
   20SAPS  H10S 2584   5.366   1.287   2.853  0.8308 -0.2431 -0.7647
   20SAPS  C211 2585   5.260   1.463   2.925 -0.1801 -0.2139 -0.9260
   20SAPS  H11R 2586   5.185   1.491   2.849  0.7281 -0.9793 -2.1331
   20SAPS  C212 2587   5.237   1.481   3.057  0.1410 -0.0439 -0.1219
   20SAPS  H12R 2588   5.154   1.541   3.097  0.9461  0.7294  0.4437
   20SAPS  C213 2589   5.330   1.456   3.171  0.3914 -0.0428  0.3593
   20SAPS  H13R 2590   5.330   1.545   3.237  0.2144  0.2955 -0.0859
   20SAPS  H13S 2591   5.436   1.451   3.138 -0.4007 -0.6033 -2.3685
   20SAPS  C214 2592   5.278   1.345   3.252  0.0507  0.2316 -0.1743
   20SAPS  H14R 2593   5.209   1.274   3.204  0.9860 -1.6264  1.0891
   20SAPS  C215 2594   5.301   1.339   3.381 -0.7601  1.1225 -0.4205
   20SAPS  H15R 2595   5.277   1.243   3.430 -0.7776  0.1637 -2.2549
   20SAPS  C216 2596   5.386   1.447   3.452  0.6149  0.6724  0.0256
   20SAPS  H16R 2597   5.345   1.550   3.457  0.1369  0.4206  2.6214
   20SAPS  H16S 2598   5.487   1.450   3.405  0.4691 -1.7642 -0.6221
   20SAPS  C217 2599   5.401   1.415   3.601  0.4281  0.2791  0.0839
   20SAPS  H17R 2600   5.429   1.308   3.611  1.8590  0.4847 -1.2438
   20SAPS  H17S 2601   5.302   1.430   3.649 -0.9978 -2.1173 -1.8534
   20SAPS  C218 2602   5.516   1.487   3.673  0.6088  0.2545  0.8754
   20SAPS  H18R 2603   5.616   1.462   3.632 -0.3910 -1.2613 -0.7941
   20SAPS  H18S 2604   5.501   1.457   3.779 -1.1870  0.6600  0.7812
   20SAPS  C219 2605   5.502   1.638   3.659 -0.8995  0.7349 -0.2245
   20SAPS  H19R 2606   5.407   1.679   3.700 -1.4200 -0.4711 -0.1670
   20SAPS  H19S 2607   5.507   1.668   3.553 -4.7693 -0.3015 -0.8427
   20SAPS  C220 2608   5.613   1.700   3.730  0.1576  0.1879  0.7774
   20SAPS  H20R 2609   5.714   1.667   3.698 -0.3472  0.1091 -0.8198
   20SAPS  H20S 2610   5.580   1.668   3.831 -0.7255  1.7204  1.0151
   20SAPS  H20T 2611   5.610   1.811   3.721 -1.7530  0.0837 -0.3244
   20SAPS   C33 2612   5.781   1.443   2.670 -0.2546 -0.6414 -0.6923
   20SAPS   H3X 2613   5.769   1.340   2.629  1.9195 -0.9563 -0.6577
   20SAPS   H3Y 2614   5.687   1.500   2.683  0.3752 -0.1064  1.9255
   20SAPS   C34 2615   5.847   1.429   2.810 -0.0313  0.9976 -0.2073
   20SAPS   H4X 2616   5.946   1.384   2.787 -0.2728 -0.4331  1.3716
   20SAPS   H4Y 2617   5.776   1.368   2.870 -2.7892 -0.5573 -4.5281
   20SAPS   C35 2618   5.868   1.556   2.889 -0.2591 -0.2044 -0.0507
   20SAPS   H5X 2619   5.774   1.615   2.894 -0.3221 -0.3094  0.0045
   20SAPS   H5Y 2620   5.943   1.619   2.838 -1.1694 -0.3410 -1.6469
   20SAPS   C36 2621   5.903   1.531   3.033 -0.3975 -0.1320  0.4821
   20SAPS   H6X 2622   5.953   1.623   3.070 -2.7056  1.4469 -0.1427
   20SAPS   H6Y 2623   5.980   1.451   3.037  1.2486  1.4205  3.0191
   20SAPS   C37 2624   5.800   1.515   3.147  0.1084  0.4994  0.0126
   20SAPS   H7X 2625   5.737   1.427   3.120  1.5736 -0.9978  1.2851
   20SAPS   H7Y 2626   5.726   1.598   3.145 -1.2538 -0.6730 -1.1982
   20SAPS   C38 2627   5.874   1.493   3.286  0.6695 -0.2299  0.7466
   20SAPS   H8X 2628   5.951   1.418   3.260 -1.1573 -0.9782 -3.3449
   20SAPS   H8Y 2629   5.807   1.443   3.360  1.3957 -0.2072  1.4295
   20SAPS   C39 2630   5.923   1.618   3.357 -0.7081 -0.3380  0.8467
   20SAPS   H9X 2631   5.830   1.666   3.395 -0.4010  2.0219 -1.1881
   20SAPS   H9Y 2632   5.958   1.689   3.279  0.2006 -1.2953  0.3560
   20SAPS  C310 2633   6.004   1.604   3.491 -0.1192  0.6829  0.5605
   20SAPS  H10X 2634   6.033   1.709   3.512  2.5357 -0.2064  1.6512
   20SAPS  H10Y 2635   6.105   1.560   3.479 -0.0126  1.1222 -0.2266
   20SAPS  C311 2636   5.919   1.531   3.586  0.2400 -0.7552 -0.4995
   20SAPS  H11X 2637   5.944   1.424   3.578 -1.1672 -1.0830 -0.8270
   20SAPS  H11Y 2638   5.809   1.535   3.572 -0.1757  0.1373  2.2931
   20SAPS  C312 2639   5.956   1.578   3.731 -0.8036 -0.2860 -0.1568
   20SAPS  H12X 2640   5.918   1.680   3.754  1.1110  0.2921  0.7023
   20SAPS  H12Y 2641   6.067   1.571   3.725 -0.6642 -0.6629  2.0936
   20SAPS  C313 2642   5.890   1.482   3.829 -0.7385 -0.1816 -0.7538
   20SAPS  H13X 2643   5.925   1.379   3.807 -0.0624  0.2950 -1.9640
   20SAPS  H13Y 2644   5.781   1.490   3.810 -0.9904 -0.9422  0.2456
   20SAPS  C314 2645   5.954   1.484   3.974  0.4493 -0.0265  0.0585
   20SAPS  H14X 2646   6.059   1.508   3.948  0.1930 -0.4777 -1.4568
   20SAPS  H14Y 2647   5.950   1.384   4.022 -1.4785 -0.3812 -0.7604
   20SAPS  C315 2648   5.900   1.598   4.062 -0.1350 -0.5055  0.2149
   20SAPS  H15X 2649   5.790   1.590   4.052 -0.2218  1.1674 -0.4474
   20SAPS  H15Y 2650   5.909   1.692   4.005 -3.2457  0.2025  0.7233
   20SAPS  C316 2651   5.960   1.612   4.202 -0.1223  0.4596 -0.0865
   20SAPS  H16X 2652   6.071   1.605   4.204 -0.0082  2.0279  0.2434
   20SAPS  H16Y 2653   5.936   1.522   4.262  0.5534  0.4859  0.2302
   20SAPS  C317 2654   5.913   1.744   4.273  0.2644  0.3068 -0.1120
   20SAPS  H17X 2655   5.803   1.752   4.274  0.2193 -0.2452  0.7099
   20SAPS  H17Y 2656   5.948   1.833   4.217  0.5078  0.2722 -0.0157
   20SAPS  C318 2657   5.964   1.759   4.416  0.2585 -0.0091 -0.8215
   20SAPS  H18X 2658   6.065   1.712   4.416  0.2775 -0.0588 -2.9218
   20SAPS  H18Y 2659   5.888   1.708   4.478  0.9787 -0.5171 -0.3296
   20SAPS  H18Z 2660   5.968   1.864   4.452  1.3050 -0.5470  0.7699
   21CHL1    C3 2661   4.174   2.924   5.744 -0.2115  0.4797 -0.2234
   21CHL1    H3 2662   4.075   2.964   5.713  0.2043  0.7268 -1.2902
   21CHL1    O3 2663   4.168   2.884   5.877  0.4638 -0.1419 -0.0061
   21CHL1   H3' 2664   4.113   2.950   5.920  0.4165  2.1076 -3.2007
   21CHL1    C4 2665   4.201   2.793   5.660  0.0494  0.7335  0.1997
   21CHL1   H4A 2666   4.289   2.749   5.711  0.4616  0.8122 -0.4381
   21CHL1   H4B 2667   4.118   2.721   5.676  1.6327 -0.8076  2.0495
   21CHL1    C5 2668   4.228   2.819   5.514  0.0870  0.2318  0.8089
   21CHL1    C6 2669   4.163   2.756   5.417  0.6919 -0.2822  0.1624
   21CHL1    H6 2670   4.091   2.675   5.440  0.8122 -0.4688 -0.1158
   21CHL1    C7 2671   4.188   2.777   5.268 -0.3623  0.9371  0.9160
   21CHL1   H7A 2672   4.230   2.689   5.215  1.1075  1.6843  0.7844
   21CHL1   H7B 2673   4.096   2.794   5.208 -0.8909 -0.1011  1.4106
   21CHL1    C8 2674   4.284   2.889   5.224 -0.0662  0.7202  0.1704
   21CHL1    H8 2675   4.389   2.852   5.218 -0.2610  0.2578 -0.5468
   21CHL1   C14 2676   4.253   2.950   5.086 -0.2928 -0.1185  0.1465
   21CHL1   H14 2677   4.157   3.005   5.092  0.0964  0.6732 -0.6692
   21CHL1   C15 2678   4.238   2.856   4.969 -0.1130  0.1235 -0.1798
   21CHL1  H15A 2679   4.319   2.781   4.984 -0.6289 -0.8910 -2.0934
   21CHL1  H15B 2680   4.138   2.807   4.971 -0.3927  0.6467  2.5876
   21CHL1   C16 2681   4.274   2.925   4.842 -0.0973  0.2917 -0.5600
   21CHL1  H16A 2682   4.351   2.865   4.789 -0.1941  0.2027 -0.5989
   21CHL1  H16B 2683   4.177   2.920   4.787  0.8731 -0.6118 -2.2911
   21CHL1   C17 2684   4.306   3.063   4.891  0.0527  0.5036  0.4794
   21CHL1   H17 2685   4.213   3.124   4.892  1.1022  2.1949  2.0445
   21CHL1   C13 2686   4.359   3.044   5.037  0.7008  0.0156  0.4156
   21CHL1   C18 2687   4.504   2.996   5.025  0.1009 -0.0235  0.3289
   21CHL1  H18A 2688   4.567   3.075   4.979  0.3316 -0.9859 -1.0536
   21CHL1  H18B 2689   4.552   2.969   5.121 -0.0061 -0.6690  0.2072
   21CHL1  H18C 2690   4.513   2.907   4.958 -1.2222 -0.4313  0.6677
   21CHL1   C12 2691   4.356   3.164   5.142  0.4662 -0.9809 -0.2454
   21CHL1  H12A 2692   4.440   3.232   5.115 -0.1548  0.6201  1.6705
   21CHL1  H12B 2693   4.257   3.214   5.134  1.9838  2.2158 -0.7598
   21CHL1   C11 2694   4.370   3.118   5.288  0.0346 -0.2548  0.0570
   21CHL1  H11A 2695   4.471   3.074   5.303 -1.1175 -3.0817  0.3087
   21CHL1  H11B 2696   4.356   3.212   5.344 -1.7244 -0.4652  0.0493
   21CHL1    C9 2697   4.282   2.995   5.330 -0.2904  0.0890  0.6649
   21CHL1    H9 2698   4.177   3.029   5.339 -0.7842 -1.6097  1.9701
   21CHL1   C10 2699   4.307   2.944   5.478 -0.3405 -0.5915 -0.2293
   21CHL1   C19 2700   4.457   2.902   5.495 -0.1715 -0.1306  0.0941
   21CHL1  H19A 2701   4.471   2.870   5.600  1.6843  1.2772  0.3230
   21CHL1  H19B 2702   4.486   2.822   5.423 -1.7195  0.4468 -1.2312
   21CHL1  H19C 2703   4.530   2.984   5.478 -0.1789  0.0207  0.7871
   21CHL1    C1 2704   4.280   3.064   5.573 -0.4879  0.2808 -0.0878
   21CHL1   H1A 2705   4.354   3.146   5.565  0.3711 -0.4165  0.5407
   21CHL1   H1B 2706   4.185   3.115   5.546  0.2749  1.9121  0.2333
   21CHL1    C2 2707   4.277   3.035   5.724 -0.3253  0.1486  0.7711
   21CHL1   H2A 2708   4.259   3.123   5.790 -1.8420 -0.2685  0.9689
   21CHL1   H2B 2709   4.378   3.001   5.754 -0.0209 -1.4782 -1.7991
   21CHL1   C20 2710   4.394   3.142   4.789  0.3527 -0.4780  0.3548
   21CHL1   H20 2711   4.497   3.102   4.801 -0.0851 -1.9961 -0.5532
   21CHL1   C21 2712   4.401   3.287   4.838 -0.2624 -0.2130  0.8747
   21CHL1  H21A 2713   4.301   3.315   4.877 -0.9152  1.0353 -1.5097
   21CHL1  H21B 2714   4.429   3.350   4.751 -1.3916 -1.0223 -0.0976
   21CHL1  H21C 2715   4.478   3.284   4.918  0.7187 -0.9598 -0.0569
   21CHL1   C22 2716   4.334   3.136   4.642 -0.7899 -0.3692 -0.3591
   21CHL1  H22A 2717   4.324   3.027   4.619  2.7554 -0.5202 -2.0215
   21CHL1  H22B 2718   4.232   3.178   4.646 -1.1708 -1.3524  0.4630
   21CHL1   C23 2719   4.428   3.207   4.538 -0.6208 -0.4673  0.2564
   21CHL1  H23A 2720   4.386   3.177   4.440 -3.9901  1.1605  1.0268
   21CHL1  H23B 2721   4.422   3.318   4.543  2.2971 -0.2323  0.2185
   21CHL1   C24 2722   4.578   3.181   4.557 -0.5122  0.9916  0.3678
   21CHL1  H24A 2723   4.606   3.214   4.660  0.6165  0.5959  0.2031
   21CHL1  H24B 2724   4.604   3.074   4.541  1.0030  1.6392 -2.0178
   21CHL1   C25 2725   4.673   3.268   4.457  0.8893  0.0557 -0.2678
   21CHL1   H25 2726   4.642   3.375   4.459  0.3594 -0.0969  1.0047
   21CHL1   C26 2727   4.819   3.266   4.489 -0.6674  0.5310  0.4396
   21CHL1  H26A 2728   4.881   3.310   4.409  1.1395  0.1909  1.5865
   21CHL1  H26B 2729   4.833   3.307   4.591 -0.2248  0.9151  0.2242
   21CHL1  H26C 2730   4.870   3.167   4.492 -0.8678  0.3394 -1.4565
   21CHL1   C27 2731   4.650   3.216   4.315  0.3798  0.4453  0.2001
   21CHL1  H27A 2732   4.672   3.107   4.312 -4.5276 -0.7975 -0.2854
   21CHL1  H27B 2733   4.544   3.217   4.282  0.3772  1.8341  0.1783
   21CHL1  H27C 2734   4.716   3.288   4.262  0.5868  1.7189  2.0922
   22CHL1    C3 2735   3.111   5.236   6.248 -0.9950  0.5300 -0.0758
   22CHL1    H3 2736   3.003   5.252   6.223 -0.8933  2.3632  0.4870
   22CHL1    O3 2737   3.128   5.272   6.384  0.1015  0.1898  0.7709
   22CHL1   H3' 2738   3.220   5.251   6.398  0.3896  1.6163  1.1606
   22CHL1    C4 2739   3.157   5.094   6.235  0.4529  0.6931 -0.3317
   22CHL1   H4A 2740   3.264   5.095   6.265  0.5006  1.0644 -0.4983
   22CHL1   H4B 2741   3.099   5.024   6.298  0.4534  0.3844 -0.6684
   22CHL1    C5 2742   3.153   5.044   6.092 -0.1304 -0.2470 -0.0325
   22CHL1    C6 2743   3.092   4.925   6.049 -0.4007 -0.5237  0.3191
   22CHL1    H6 2744   3.035   4.859   6.117 -0.2875  1.6356  2.6579
   22CHL1    C7 2745   3.107   4.874   5.905  1.0852  0.3262  0.2840
   22CHL1   H7A 2746   3.145   4.770   5.904  0.7850  0.1990  1.3318
   22CHL1   H7B 2747   3.009   4.875   5.854  1.1853 -0.5537  0.0557
   22CHL1    C8 2748   3.203   4.953   5.819 -0.0526 -0.0999  0.0702
   22CHL1    H8 2749   3.306   4.916   5.837 -0.7127 -2.1229 -0.0892
   22CHL1   C14 2750   3.161   4.917   5.669  0.4337 -0.5668 -0.5157
   22CHL1   H14 2751   3.056   4.953   5.664  0.7680  0.3598 -0.9576
   22CHL1   C15 2752   3.158   4.775   5.627 -0.3863 -0.4311 -0.3189
   22CHL1  H15A 2753   3.253   4.726   5.657  0.5656  2.5396  1.9612
   22CHL1  H15B 2754   3.070   4.713   5.655 -1.0348  0.2732 -0.7847
   22CHL1   C16 2755   3.154   4.772   5.473 -0.2590 -0.1699 -0.2417
   22CHL1  H16A 2756   3.235   4.712   5.425 -1.3001 -2.0069  0.1912
   22CHL1  H16B 2757   3.054   4.753   5.428 -0.9198  0.7387  0.7910
   22CHL1   C17 2758   3.181   4.926   5.437  0.9724  0.8312 -0.1108
   22CHL1   H17 2759   3.081   4.968   5.411 -0.3411 -1.3594  1.0746
   22CHL1   C13 2760   3.237   4.991   5.560  0.4440  0.6666  0.3329
   22CHL1   C18 2761   3.391   4.958   5.562 -0.4344 -0.1546 -0.2533
   22CHL1  H18A 2762   3.426   5.041   5.497 -0.0012  2.0550  2.6122
   22CHL1  H18B 2763   3.432   4.980   5.663  0.6882 -1.7101 -0.3288
   22CHL1  H18C 2764   3.415   4.853   5.533  0.4898 -0.8367  2.6270
   22CHL1   C12 2765   3.204   5.143   5.585  0.1237  0.4026 -0.0800
   22CHL1  H12A 2766   3.244   5.210   5.505  0.3653  0.7115  0.2957
   22CHL1  H12B 2767   3.094   5.157   5.584  0.2212  1.6880 -2.6607
   22CHL1   C11 2768   3.259   5.188   5.727  0.1505 -0.4563 -0.4406
   22CHL1  H11A 2769   3.369   5.182   5.743  0.3921  0.6344 -1.5747
   22CHL1  H11B 2770   3.224   5.293   5.731 -0.4390 -0.6512 -0.4453
   22CHL1    C9 2771   3.187   5.107   5.840 -0.1232  0.0483  0.2061
   22CHL1    H9 2772   3.080   5.132   5.824 -0.0638 -0.2645 -0.7368
   22CHL1   C10 2773   3.219   5.136   5.988 -0.5000 -0.5746  0.5670
   22CHL1   C19 2774   3.373   5.125   6.004 -0.0668 -0.5231  0.0185
   22CHL1  H19A 2775   3.428   5.189   5.932 -1.0884 -0.5105 -0.7811
   22CHL1  H19B 2776   3.403   5.151   6.108  2.1286 -1.1759 -0.4036
   22CHL1  H19C 2777   3.408   5.020   5.996  0.5786 -0.2078 -1.5047
   22CHL1    C1 2778   3.173   5.286   6.013 -0.9496  0.1489  0.4596
   22CHL1   H1A 2779   3.239   5.342   5.943 -0.0218 -1.1564  0.2463
   22CHL1   H1B 2780   3.065   5.303   5.993 -0.7580  1.9155  0.8006
   22CHL1    C2 2781   3.192   5.333   6.158 -0.0950  0.8185  0.1356
   22CHL1   H2A 2782   3.154   5.434   6.182  0.0559  0.7763  0.5537
   22CHL1   H2B 2783   3.302   5.332   6.172 -0.2702  0.4838  1.6644
   22CHL1   C20 2784   3.255   4.950   5.308  0.2409  0.2310 -0.0092
   22CHL1   H20 2785   3.349   4.893   5.322 -0.9985 -2.6704 -2.2692
   22CHL1   C21 2786   3.278   5.104   5.267 -0.1246  0.6587 -0.2587
   22CHL1  H21A 2787   3.292   5.099   5.157 -3.3749 -0.2959 -0.7511
   22CHL1  H21B 2788   3.364   5.152   5.318 -1.2028  0.6042  1.6946
   22CHL1  H21C 2789   3.189   5.168   5.286 -0.5524  0.1230 -0.4041
   22CHL1   C22 2790   3.193   4.875   5.189  0.6679 -0.7115  0.4391
   22CHL1  H22A 2791   3.263   4.886   5.104  1.2217 -0.3141  0.9309
   22CHL1  H22B 2792   3.194   4.769   5.221 -0.8245 -0.5956  0.9297
   22CHL1   C23 2793   3.051   4.915   5.136 -0.5859 -0.0283 -0.4763
   22CHL1  H23A 2794   2.985   4.917   5.225  0.9825  1.3031  0.7229
   22CHL1  H23B 2795   3.054   5.016   5.091  2.3829  0.7109  1.1024
   22CHL1   C24 2796   3.007   4.807   5.029 -0.4875 -0.2627 -0.3095
   22CHL1  H24A 2797   3.011   4.709   5.081  1.5401 -0.8439 -1.4613
   22CHL1  H24B 2798   2.903   4.823   4.992  0.0690  0.7705 -1.5007
   22CHL1   C25 2799   3.105   4.799   4.908  0.7920 -0.3545  0.1672
   22CHL1   H25 2800   3.202   4.758   4.943  0.1750 -0.1750  2.2796
   22CHL1   C26 2801   3.042   4.684   4.821 -0.6504 -0.1565 -0.0381
   22CHL1  H26A 2802   3.091   4.667   4.722 -3.8176  0.1538 -1.8066
   22CHL1  H26B 2803   3.054   4.586   4.872 -0.7602  0.0307  0.3482
   22CHL1  H26C 2804   2.936   4.700   4.794 -0.7762 -2.3129 -1.0174
   22CHL1   C27 2805   3.127   4.914   4.813  0.0363 -0.2762  0.3121
   22CHL1  H27A 2806   3.211   4.901   4.741 -0.0280 -1.5358  0.4429
   22CHL1  H27B 2807   3.042   4.937   4.745  0.0068 -0.0702  0.4181
   22CHL1  H27C 2808   3.137   5.013   4.861 -2.2130 -0.6922  1.7472
   23CHL1    C3 2809   3.077   4.246   5.995 -0.2999 -0.1191 -0.1444
   23CHL1    H3 2810   3.149   4.166   5.967  2.3240  2.5327 -1.4757
   23CHL1    O3 2811   3.066   4.260   6.136  0.0287 -0.2322  0.1686
   23CHL1   H3' 2812   2.993   4.322   6.141 -0.9814 -1.3332 -0.3799
   23CHL1    C4 2813   3.112   4.375   5.932  0.1243 -0.2828  0.0118
   23CHL1   H4A 2814   3.039   4.455   5.959  0.0358 -0.2551 -0.3066
   23CHL1   H4B 2815   3.213   4.396   5.973 -0.1032  0.9301  0.0135
   23CHL1    C5 2816   3.122   4.365   5.781  0.5898 -0.4586 -0.1730
   23CHL1    C6 2817   3.228   4.393   5.714  0.1240  0.6796  0.4380
   23CHL1    H6 2818   3.315   4.435   5.766  0.8882 -0.9184  0.4918
   23CHL1    C7 2819   3.247   4.371   5.567  0.0673 -0.4800 -0.0184
   23CHL1   H7A 2820   3.289   4.462   5.519  0.0729 -0.8874 -0.8084
   23CHL1   H7B 2821   3.298   4.273   5.558  0.7364 -0.2544  1.1671
   23CHL1    C8 2822   3.110   4.356   5.496  0.6653  0.5119  0.2826
   23CHL1    H8 2823   3.056   4.451   5.482  0.1656  0.0907 -0.8105
   23CHL1   C14 2824   3.129   4.323   5.350 -0.5113  0.3846 -0.2321
   23CHL1   H14 2825   3.187   4.228   5.348 -1.8289 -0.4501  0.2304
   23CHL1   C15 2826   3.217   4.424   5.263 -0.2690  0.1542 -0.1130
   23CHL1  H15A 2827   3.191   4.529   5.287  1.3857  0.1454  1.9495
   23CHL1  H15B 2828   3.326   4.407   5.272 -0.4134 -0.8580 -0.1567
   23CHL1   C16 2829   3.185   4.372   5.117 -0.2812 -0.9333 -0.1726
   23CHL1  H16A 2830   3.151   4.464   5.064 -0.2856 -0.8877 -0.0911
   23CHL1  H16B 2831   3.272   4.331   5.061 -0.7494  0.3932 -1.9550
   23CHL1   C17 2832   3.069   4.269   5.133 -1.2508 -0.0601  0.1018
   23CHL1   H17 2833   3.122   4.171   5.141  0.4341  0.7179 -0.8779
   23CHL1   C13 2834   3.005   4.296   5.264  0.7788  0.2560 -0.4531
   23CHL1   C18 2835   2.924   4.427   5.256 -0.9221 -0.4373  0.2179
   23CHL1  H18A 2836   2.840   4.413   5.186  0.4006 -0.0416 -1.5124
   23CHL1  H18B 2837   2.884   4.454   5.357 -2.1306 -2.1754  0.2392
   23CHL1  H18C 2838   2.980   4.514   5.213 -0.6444  0.1812  1.7455
   23CHL1   C12 2839   2.925   4.183   5.340 -0.2418 -0.0413  0.3417
   23CHL1  H12A 2840   2.823   4.173   5.297 -0.2488 -0.2767  0.4095
   23CHL1  H12B 2841   2.966   4.080   5.329 -2.4505 -1.1424  1.6252
   23CHL1   C11 2842   2.897   4.221   5.491 -0.2056 -0.9873  0.3275
   23CHL1  H11A 2843   2.824   4.304   5.489  0.0007 -0.8199 -1.8099
   23CHL1  H11B 2844   2.849   4.133   5.540 -1.0071  0.3963  2.1459
   23CHL1    C9 2845   3.025   4.251   5.572 -0.1261 -0.0479  0.2799
   23CHL1    H9 2846   3.091   4.163   5.586  0.3292  0.0676 -1.0352
   23CHL1   C10 2847   2.998   4.313   5.720 -0.0048 -0.1758 -0.2177
   23CHL1   C19 2848   2.895   4.430   5.720  0.5901  0.0819 -0.0889
   23CHL1  H19A 2849   2.924   4.525   5.671 -0.6367  0.7808  0.4750
   23CHL1  H19B 2850   2.800   4.384   5.685 -0.2588  0.3426  1.7411
   23CHL1  H19C 2851   2.873   4.451   5.827  2.0935  2.8630 -0.2356
   23CHL1    C1 2852   2.946   4.189   5.796  0.4960 -0.0417 -0.4847
   23CHL1   H1A 2853   2.839   4.175   5.767  0.5801  1.3908 -1.5510
   23CHL1   H1B 2854   3.000   4.097   5.765 -0.2615 -1.7599  2.8042
   23CHL1    C2 2855   2.943   4.205   5.947 -0.2112  0.2167  0.4823
   23CHL1   H2A 2856   2.909   4.110   5.993 -0.5592  0.9062  1.7108
   23CHL1   H2B 2857   2.868   4.279   5.984 -0.1817  0.4642  0.0501
   23CHL1   C20 2858   2.987   4.255   5.005 -0.3069  0.0274  0.6672
   23CHL1   H20 2859   2.902   4.326   5.003  0.2228  0.6797 -1.2183
   23CHL1   C21 2860   2.942   4.107   5.005  0.1265 -0.3822 -0.2619
   23CHL1  H21A 2861   3.029   4.042   4.983  1.5769  1.2165  0.4688
   23CHL1  H21B 2862   2.860   4.094   4.932  0.9540 -1.4324 -1.0220
   23CHL1  H21C 2863   2.908   4.067   5.103  1.6839  2.7626  1.7513
   23CHL1   C22 2864   3.053   4.288   4.867  1.3100  0.2331  1.0100
   23CHL1  H22A 2865   3.115   4.380   4.862  2.8812 -0.8511 -0.4659
   23CHL1  H22B 2866   3.127   4.207   4.849  2.1055  0.6875  2.1362
   23CHL1   C23 2867   2.940   4.299   4.749 -0.2624  0.2124  0.4390
   23CHL1  H23A 2868   2.876   4.209   4.762 -1.2236  0.8097 -0.0415
   23CHL1  H23B 2869   2.887   4.389   4.786  0.3743  1.3766 -1.3300
   23CHL1   C24 2870   2.998   4.340   4.610  0.1971 -0.0210 -0.4016
   23CHL1  H24A 2871   3.017   4.449   4.605  0.2428 -0.0726 -1.6532
   23CHL1  H24B 2872   3.095   4.289   4.591  0.5702  0.6588 -0.3361
   23CHL1   C25 2873   2.901   4.307   4.489 -0.4080 -0.5661  0.6511
   23CHL1   H25 2874   2.811   4.373   4.492  0.3896  0.5891 -0.1242
   23CHL1   C26 2875   2.981   4.336   4.363 -0.2356 -1.1904  0.3570
   23CHL1  H26A 2876   3.068   4.267   4.355 -0.1146 -1.2067  1.5763
   23CHL1  H26B 2877   2.921   4.329   4.270  0.3041  1.3235 -0.2751
   23CHL1  H26C 2878   3.024   4.439   4.362  1.9919 -2.0343 -1.7321
   23CHL1   C27 2879   2.851   4.165   4.498 -0.2382 -0.6128 -0.0299
   23CHL1  H27A 2880   2.768   4.158   4.572 -0.8367  1.8809 -0.3746
   23CHL1  H27B 2881   2.790   4.139   4.409 -2.8692 -1.2877  1.8171
   23CHL1  H27C 2882   2.929   4.087   4.510 -1.6272 -2.1489 -0.4591
   24CHL1    C3 2883   2.364   5.962   5.809 -0.4628  0.3781 -0.4353
   24CHL1    H3 2884   2.437   5.879   5.818 -0.2048  0.8394  3.2366
   24CHL1    O3 2885   2.352   5.995   5.946  0.1511 -0.4322  0.1941
   24CHL1   H3' 2886   2.328   5.913   5.989 -2.6566  0.6814  0.9767
   24CHL1    C4 2887   2.425   6.083   5.733 -0.3120  0.1733 -0.1285
   24CHL1   H4A 2888   2.343   6.158   5.734 -1.1767 -0.6181 -2.7210
   24CHL1   H4B 2889   2.511   6.121   5.792 -0.1056 -0.6743  0.1299
   24CHL1    C5 2890   2.440   6.040   5.584 -0.4049  0.0985 -0.2894
   24CHL1    C6 2891   2.559   6.054   5.519 -0.3770 -0.1319  0.3196
   24CHL1    H6 2892   2.649   6.097   5.566 -0.9344  3.1216 -1.3361
   24CHL1    C7 2893   2.591   6.011   5.385 -0.2848  0.4679  0.4171
   24CHL1   H7A 2894   2.643   6.089   5.325 -0.1179 -0.3967 -0.6108
   24CHL1   H7B 2895   2.667   5.929   5.380  0.4734  1.0514  1.8305
   24CHL1    C8 2896   2.467   5.990   5.299  0.6486 -0.0654 -0.1685
   24CHL1    H8 2897   2.419   6.089   5.283 -0.5702 -0.4165  1.1255
   24CHL1   C14 2898   2.501   5.921   5.170 -0.4022  0.8065 -0.6507
   24CHL1   H14 2899   2.537   5.819   5.195 -1.2741  0.1672 -1.9078
   24CHL1   C15 2900   2.616   5.977   5.088  0.0605  0.0528 -0.0894
   24CHL1  H15A 2901   2.603   6.088   5.085  1.2938  0.3446  2.5573
   24CHL1  H15B 2902   2.721   5.962   5.121  0.6085  0.8109 -1.4127
   24CHL1   C16 2903   2.600   5.903   4.951 -0.1114 -0.2295  0.3509
   24CHL1  H16A 2904   2.607   5.985   4.877 -1.0083  1.3117  1.9168
   24CHL1  H16B 2905   2.673   5.818   4.950 -1.6308 -1.6215  1.7213
   24CHL1   C17 2906   2.465   5.823   4.964  0.4424 -0.2246  0.1875
   24CHL1   H17 2907   2.490   5.725   5.009  0.1977  0.7390  2.5663
   24CHL1   C13 2908   2.390   5.891   5.083  0.4686 -0.9124 -0.0442
   24CHL1   C18 2909   2.335   6.022   5.034 -0.2803  0.0128 -0.2605
   24CHL1  H18A 2910   2.415   6.074   4.977 -1.7969  2.8722 -0.0100
   24CHL1  H18B 2911   2.267   6.005   4.947  1.1379  0.1277 -1.4272
   24CHL1  H18C 2912   2.281   6.080   5.113  0.5502  0.8183 -0.2684
   24CHL1   C12 2913   2.287   5.805   5.160  0.7236 -0.2437  0.3788
   24CHL1  H12A 2914   2.189   5.806   5.107  1.4082 -1.1712 -0.9469
   24CHL1  H12B 2915   2.336   5.707   5.177  2.5671  0.4941 -0.4682
   24CHL1   C11 2916   2.247   5.854   5.299  0.1708 -0.2146  0.6068
   24CHL1  H11A 2917   2.179   5.940   5.283  2.2255  1.3654 -0.1328
   24CHL1  H11B 2918   2.196   5.779   5.364  0.1540 -0.5911  0.1613
   24CHL1    C9 2919   2.366   5.905   5.384  0.4380  0.7080  0.2736
   24CHL1    H9 2920   2.418   5.812   5.416 -1.2614 -0.1439  0.6691
   24CHL1   C10 2921   2.321   5.978   5.513 -0.5209  0.0115 -0.1740
   24CHL1   C19 2922   2.217   6.088   5.480 -0.3377  0.0238 -0.4005
   24CHL1  H19A 2923   2.184   6.138   5.573  1.1649 -2.8099  1.8223
   24CHL1  H19B 2924   2.260   6.157   5.403  1.7194  0.0921  0.7252
   24CHL1  H19C 2925   2.123   6.044   5.442 -0.3746 -0.3041  0.0682
   24CHL1    C1 2926   2.255   5.875   5.607  0.8882  0.8642  0.1618
   24CHL1   H1A 2927   2.153   5.851   5.570  0.6107 -0.8347  1.8712
   24CHL1   H1B 2928   2.308   5.778   5.596  0.1467  0.0685  2.9235
   24CHL1    C2 2929   2.231   5.917   5.750  0.2144  0.3169 -1.3502
   24CHL1   H2A 2930   2.189   5.839   5.816  1.3522  0.1294 -0.8183
   24CHL1   H2B 2931   2.166   6.007   5.750 -0.0781  0.1296  0.0664
   24CHL1   C20 2932   2.389   5.804   4.836  0.5731 -0.0072  0.5038
   24CHL1   H20 2933   2.360   5.903   4.794  2.6605  0.1175 -0.8397
   24CHL1   C21 2934   2.258   5.723   4.856  0.2542  0.3030  0.3759
   24CHL1  H21A 2935   2.174   5.789   4.886  0.8816  0.6598  1.3892
   24CHL1  H21B 2936   2.273   5.648   4.936 -0.2237 -1.1120 -0.7971
   24CHL1  H21C 2937   2.218   5.670   4.766 -0.0979  1.1773  0.0113
   24CHL1   C22 2938   2.468   5.732   4.730  0.7453 -0.4573  0.6042
   24CHL1  H22A 2939   2.577   5.754   4.740  0.9943 -0.7454 -1.1329
   24CHL1  H22B 2940   2.453   5.623   4.744 -1.0913 -0.0904  1.7494
   24CHL1   C23 2941   2.435   5.779   4.585  0.0637 -0.7169  0.3963
   24CHL1  H23A 2942   2.335   5.757   4.544  0.7765 -3.3955 -0.1006
   24CHL1  H23B 2943   2.448   5.889   4.581 -1.0304 -0.5624  0.8502
   24CHL1   C24 2944   2.538   5.729   4.486 -0.1145 -0.4309  0.0754
   24CHL1  H24A 2945   2.639   5.756   4.522 -0.4970 -1.4188  2.0255
   24CHL1  H24B 2946   2.527   5.618   4.482  2.3329 -0.7417  0.7429
   24CHL1   C25 2947   2.519   5.788   4.340  0.2299 -0.5819 -0.2410
   24CHL1   H25 2948   2.506   5.898   4.346  1.1751 -0.4481 -0.5550
   24CHL1   C26 2949   2.660   5.775   4.260  0.2008 -0.5966  0.1689
   24CHL1  H26A 2950   2.663   5.694   4.184  2.1342 -1.3927  1.0216
   24CHL1  H26B 2951   2.656   5.869   4.201 -3.1798  0.6883  2.1144
   24CHL1  H26C 2952   2.745   5.774   4.331  0.8585 -0.1680 -0.6040
   24CHL1   C27 2953   2.402   5.711   4.262 -1.1948 -0.0370  0.4853
   24CHL1  H27A 2954   2.402   5.751   4.158 -1.7177  2.1458  1.2812
   24CHL1  H27B 2955   2.424   5.602   4.259 -0.0388  0.1383  1.5845
   24CHL1  H27C 2956   2.299   5.717   4.302 -1.3553 -3.0630  0.8128
   25CHL1    C3 2957   6.137   0.626   5.793  0.0583  0.0857  0.5255
   25CHL1    H3 2958   6.095   0.724   5.763 -0.6565  0.9720  3.9738
   25CHL1    O3 2959   6.069   0.562   5.901  0.3020 -0.1764 -0.2151
   25CHL1   H3' 2960   6.124   0.491   5.934  0.0133 -0.4757 -0.3668
   25CHL1    C4 2961   6.135   0.522   5.676 -0.5942 -0.2149  0.0595
   25CHL1   H4A 2962   6.184   0.428   5.709  3.1913  1.1726 -1.0236
   25CHL1   H4B 2963   6.026   0.501   5.668 -0.9289  0.5530  1.8988
   25CHL1    C5 2964   6.213   0.578   5.555  0.4672 -0.8212  0.4784
   25CHL1    C6 2965   6.151   0.597   5.437  0.3186 -0.1927  0.4693
   25CHL1    H6 2966   6.046   0.569   5.419  0.2771 -0.1880  0.7081
   25CHL1    C7 2967   6.210   0.655   5.313 -0.0921  0.1827 -0.4918
   25CHL1   H7A 2968   6.174   0.599   5.225 -0.9666  2.8312 -1.9401
   25CHL1   H7B 2969   6.182   0.762   5.302  1.0744  0.8360  2.0786
   25CHL1    C8 2970   6.359   0.643   5.326  0.0734 -0.6516  0.0717
   25CHL1    H8 2971   6.394   0.538   5.328 -1.4637 -1.2107  2.2018
   25CHL1   C14 2972   6.416   0.714   5.206  0.6238 -0.3852  0.6930
   25CHL1   H14 2973   6.381   0.818   5.216 -0.0385 -0.5733  0.3536
   25CHL1   C15 2974   6.377   0.672   5.063  0.7794 -0.7526  0.2059
   25CHL1  H15A 2975   6.361   0.564   5.047 -0.5903 -0.3570 -1.4503
   25CHL1  H15B 2976   6.287   0.732   5.036  1.9708  1.0319 -0.0312
   25CHL1   C16 2977   6.496   0.724   4.975  0.0013 -0.5655  0.3609
   25CHL1  H16A 2978   6.553   0.659   4.905 -1.3373 -0.8313 -0.5259
   25CHL1  H16B 2979   6.464   0.803   4.903 -0.2718  1.3897  2.5057
   25CHL1   C17 2980   6.596   0.784   5.075  0.0879  0.1185  0.8807
   25CHL1   H17 2981   6.571   0.892   5.081  1.5642  0.7114 -1.9281
   25CHL1   C13 2982   6.577   0.720   5.208  0.2182  0.7062  0.1672
   25CHL1   C18 2983   6.636   0.576   5.213  0.0220 -0.2864 -0.6175
   25CHL1  H18A 2984   6.578   0.517   5.288  0.0967  0.2923 -0.0984
   25CHL1  H18B 2985   6.606   0.517   5.124  0.8179 -0.6677 -0.6441
   25CHL1  H18C 2986   6.745   0.573   5.237  0.1005  2.5928 -0.2390
   25CHL1   C12 2987   6.615   0.811   5.323  0.5249  0.5012  0.6323
   25CHL1  H12A 2988   6.725   0.814   5.334  0.5501 -1.1173  1.2315
   25CHL1  H12B 2989   6.584   0.915   5.299  2.2905  0.7770 -0.6886
   25CHL1   C11 2990   6.561   0.747   5.459  0.7299  0.2514 -0.4049
   25CHL1  H11A 2991   6.631   0.664   5.482  0.3432 -0.3437 -1.3043
   25CHL1  H11B 2992   6.557   0.828   5.535 -2.3907 -0.6614  0.5659
   25CHL1    C9 2993   6.409   0.711   5.454  0.3820  0.2961 -0.3610
   25CHL1    H9 2994   6.355   0.808   5.451  1.8105  1.1148 -0.4118
   25CHL1   C10 2995   6.357   0.626   5.579 -0.6054 -0.3644 -0.4145
   25CHL1   C19 2996   6.448   0.503   5.601  0.4880 -0.0300 -0.3123
   25CHL1  H19A 2997   6.535   0.542   5.658 -1.7331  1.6145  2.1934
   25CHL1  H19B 2998   6.398   0.418   5.651  0.9701 -0.7389 -1.0214
   25CHL1  H19C 2999   6.466   0.461   5.500  1.4213 -0.4499  0.0108
   25CHL1    C1 3000   6.353   0.711   5.707 -0.1327 -0.4165  0.4048
   25CHL1   H1A 3001   6.456   0.739   5.738 -0.5208  1.6635 -0.0638
   25CHL1   H1B 3002   6.294   0.800   5.677  1.5538  0.2373 -1.1883
   25CHL1    C2 3003   6.281   0.650   5.823  0.0946 -0.5155 -0.2745
   25CHL1   H2A 3004   6.291   0.722   5.907 -0.8399 -0.4944 -0.1744
   25CHL1   H2B 3005   6.328   0.558   5.865  2.5534 -0.1637 -2.0322
   25CHL1   C20 3006   6.737   0.773   5.014 -0.4171  0.0885 -0.0295
   25CHL1   H20 3007   6.757   0.669   4.981 -1.9746  0.2792 -1.7463
   25CHL1   C21 3008   6.853   0.817   5.102 -0.7637 -0.1250  0.1372
   25CHL1  H21A 3009   6.851   0.743   5.186  1.8706 -1.8666 -1.1942
   25CHL1  H21B 3010   6.844   0.922   5.137 -0.2381 -0.3368  0.9520
   25CHL1  H21C 3011   6.953   0.808   5.055 -1.1099  0.0416 -0.6425
   25CHL1   C22 3012   6.760   0.853   4.880  0.5309 -0.1192 -0.2250
   25CHL1  H22A 3013   6.869   0.869   4.876  0.4382  0.7280  0.4082
   25CHL1  H22B 3014   6.724   0.794   4.793 -0.3237  0.3469 -0.2047
   25CHL1   C23 3015   6.693   0.990   4.881  0.7790 -1.1594 -0.1312
   25CHL1  H23A 3016   6.585   0.991   4.908 -0.3629 -0.3802 -4.0284
   25CHL1  H23B 3017   6.740   1.061   4.953  1.8257 -1.9996  0.0304
   25CHL1   C24 3018   6.706   1.065   4.747  0.0372 -0.2251 -0.2521
   25CHL1  H24A 3019   6.637   1.019   4.672 -1.2460  2.0455 -0.5414
   25CHL1  H24B 3020   6.660   1.164   4.766 -0.8408 -0.7465  0.4312
   25CHL1   C25 3021   6.845   1.076   4.689 -0.7199 -0.3560 -0.7841
   25CHL1   H25 3022   6.892   0.978   4.665 -0.4851 -1.0248  2.0473
   25CHL1   C26 3023   6.853   1.171   4.568 -0.2917 -0.5453  0.4862
   25CHL1  H26A 3024   6.954   1.159   4.524 -1.1886 -2.4893 -1.1547
   25CHL1  H26B 3025   6.778   1.119   4.505  0.0049  0.4458 -0.7224
   25CHL1  H26C 3026   6.820   1.276   4.584 -2.5796 -1.1244 -0.1479
   25CHL1   C27 3027   6.938   1.132   4.809  0.4134 -0.1233  0.9399
   25CHL1  H27A 3028   6.937   1.069   4.901 -3.0167 -2.4191 -0.4357
   25CHL1  H27B 3029   7.043   1.140   4.774 -0.3503  2.0692 -1.0907
   25CHL1  H27C 3030   6.904   1.235   4.831 -2.4727 -0.9619  0.8756
   26CHL1    C3 3031   2.720   5.612   6.054  0.3284 -0.0115  0.1428
   26CHL1    H3 3032   2.714   5.501   6.052  3.3007 -0.2373 -0.7610
   26CHL1    O3 3033   2.722   5.665   6.189 -0.9845 -0.1052  0.8065
   26CHL1   H3' 3034   2.780   5.608   6.241  1.2623 -0.3167 -1.6897
   26CHL1    C4 3035   2.848   5.652   5.980 -0.1899 -0.2575 -0.1718
   26CHL1   H4A 3036   2.868   5.761   5.986  0.5172 -0.4179  0.6385
   26CHL1   H4B 3037   2.933   5.608   6.038  0.1341  0.0031 -0.4432
   26CHL1    C5 3038   2.855   5.614   5.832 -0.5646 -0.4992 -0.3364
   26CHL1    C6 3039   2.949   5.534   5.778 -0.1177 -0.2248 -0.0102
   26CHL1    H6 3040   3.034   5.502   5.841  0.5438 -1.8160 -1.6010
   26CHL1    C7 3041   2.954   5.497   5.634  0.2490 -0.4776 -0.1703
   26CHL1   H7A 3042   3.054   5.515   5.590  0.9212  0.3170  1.5782
   26CHL1   H7B 3043   2.932   5.388   5.626 -1.1270 -0.0912 -2.2383
   26CHL1    C8 3044   2.852   5.559   5.541 -0.8682 -0.6278 -0.4508
   26CHL1    H8 3045   2.884   5.662   5.514  0.3590 -1.0571 -0.7146
   26CHL1   C14 3046   2.834   5.474   5.417 -0.1433 -0.4752  0.5188
   26CHL1   H14 3047   2.776   5.388   5.457  0.4030  0.3324  3.2904
   26CHL1   C15 3048   2.958   5.411   5.357 -1.2816 -0.3624  0.1782
   26CHL1  H15A 3049   3.046   5.478   5.345 -1.0945 -0.6642 -0.1695
   26CHL1  H15B 3050   2.982   5.316   5.409 -1.6013  0.0197  1.0437
   26CHL1   C16 3051   2.918   5.375   5.215  0.1511 -0.4309  0.1284
   26CHL1  H16A 3052   2.981   5.433   5.143  0.7720 -0.6773  0.4694
   26CHL1  H16B 3053   2.926   5.265   5.209  2.9381 -0.4770  2.3331
   26CHL1   C17 3054   2.770   5.422   5.207 -0.0176  0.6568 -0.1714
   26CHL1   H17 3055   2.707   5.336   5.240 -0.0787  0.5930 -0.4520
   26CHL1   C13 3056   2.745   5.533   5.310  0.1152  0.3761  0.7476
   26CHL1   C18 3057   2.788   5.670   5.264  0.0522  0.6324 -1.0960
   26CHL1  H18A 3058   2.893   5.671   5.227  0.8729  1.9689  1.0927
   26CHL1  H18B 3059   2.734   5.706   5.173  0.6109 -0.6073 -1.9459
   26CHL1  H18C 3060   2.781   5.757   5.334 -0.3770  1.3248 -1.9682
   26CHL1   C12 3061   2.606   5.531   5.384 -0.5052  0.0633 -0.5722
   26CHL1  H12A 3062   2.538   5.588   5.317 -0.5140  2.6395  1.4772
   26CHL1  H12B 3063   2.567   5.429   5.401 -1.6639  0.9049  2.4653
   26CHL1   C11 3064   2.612   5.609   5.521  0.2262  0.2422 -0.6020
   26CHL1  H11A 3065   2.643   5.708   5.481  1.3113 -0.2230 -0.9420
   26CHL1  H11B 3066   2.509   5.610   5.565  1.0580  0.7556  1.4382
   26CHL1    C9 3067   2.720   5.563   5.616  0.4237 -0.1042 -0.4843
   26CHL1    H9 3068   2.688   5.462   5.651  1.0235 -0.0575  0.2084
   26CHL1   C10 3069   2.731   5.640   5.749 -0.3109 -0.8742 -0.5202
   26CHL1   C19 3070   2.720   5.800   5.722 -0.6873 -0.7314 -0.5198
   26CHL1  H19A 3071   2.743   5.847   5.820  1.1689  1.2500 -1.8199
   26CHL1  H19B 3072   2.808   5.831   5.661  0.3337 -1.4492  0.5273
   26CHL1  H19C 3073   2.623   5.827   5.677  0.3027 -0.0907 -2.3682
   26CHL1    C1 3074   2.601   5.618   5.832  0.2306 -0.0691 -0.2429
   26CHL1   H1A 3075   2.516   5.661   5.774 -0.2815 -1.0170 -0.2210
   26CHL1   H1B 3076   2.595   5.508   5.842  0.4880 -0.1989 -1.3133
   26CHL1    C2 3077   2.601   5.676   5.971 -1.1728  0.7230  0.5619
   26CHL1   H2A 3078   2.516   5.626   6.023 -0.0090 -0.9783  0.9048
   26CHL1   H2B 3079   2.607   5.786   5.987  0.1741  0.3219  3.4480
   26CHL1   C20 3080   2.733   5.437   5.059 -0.1652  0.3984 -0.0939
   26CHL1   H20 3081   2.789   5.527   5.027 -0.3343 -0.1532 -2.0827
   26CHL1   C21 3082   2.584   5.455   5.055 -0.0819 -0.2280  0.8865
   26CHL1  H21A 3083   2.562   5.549   5.111 -0.8000 -0.4603  1.0073
   26CHL1  H21B 3084   2.529   5.367   5.094 -0.5005 -0.7750 -0.8470
   26CHL1  H21C 3085   2.538   5.459   4.953 -1.6385 -4.4033  1.2362
   26CHL1   C22 3086   2.765   5.317   4.972 -0.0532  1.2645  0.5959
   26CHL1  H22A 3087   2.852   5.258   5.005 -0.2333  1.4552  1.4339
   26CHL1  H22B 3088   2.688   5.237   4.964  1.2518 -0.0421  0.8411
   26CHL1   C23 3089   2.812   5.350   4.825  0.2055 -0.0286  0.4345
   26CHL1  H23A 3090   2.734   5.408   4.770  0.7487  1.7787  1.4922
   26CHL1  H23B 3091   2.892   5.427   4.829  0.2734 -0.0984  0.4332
   26CHL1   C24 3092   2.855   5.216   4.763 -0.0221  0.5154 -0.0984
   26CHL1  H24A 3093   2.952   5.200   4.814 -0.7024 -2.8226  0.3899
   26CHL1  H24B 3094   2.784   5.134   4.788  0.1474 -0.5148 -2.6620
   26CHL1   C25 3095   2.878   5.229   4.608  0.2300 -0.0161  0.2876
   26CHL1   H25 3096   2.939   5.320   4.587 -0.2915  1.3628  3.9545
   26CHL1   C26 3097   2.939   5.103   4.555 -0.2409  0.6326 -0.3314
   26CHL1  H26A 3098   2.879   5.014   4.584  1.7454 -0.1951  1.5883
   26CHL1  H26B 3099   2.947   5.105   4.444 -0.2198 -1.1150 -0.3916
   26CHL1  H26C 3100   3.038   5.082   4.601  0.1124  1.0947 -0.8693
   26CHL1   C27 3101   2.747   5.262   4.536  0.0698  0.4399 -0.1452
   26CHL1  H27A 3102   2.676   5.182   4.566  0.7186  0.6891  2.2035
   26CHL1  H27B 3103   2.709   5.359   4.574  0.9495  0.4024  0.8895
   26CHL1  H27C 3104   2.757   5.254   4.425  1.4993 -2.7015  0.0953
   27CHL1    C3 3105   3.014   2.193   5.660  0.6003 -0.2894 -0.6325
   27CHL1    H3 3106   3.074   2.261   5.596 -0.3283 -0.1070 -1.3345
   27CHL1    O3 3107   3.052   2.216   5.798 -0.1491  0.3290  0.0183
   27CHL1   H3' 3108   3.014   2.142   5.846  0.5353  0.7837  1.3138
   27CHL1    C4 3109   2.866   2.211   5.632  0.2445 -0.5312  0.3039
   27CHL1   H4A 3110   2.807   2.140   5.693 -0.8902  0.5956  0.5487
   27CHL1   H4B 3111   2.844   2.314   5.667  0.2364 -0.6624  0.6882
   27CHL1    C5 3112   2.818   2.182   5.488  0.1834  0.4482 -0.3804
   27CHL1    C6 3113   2.743   2.276   5.418 -0.4244 -0.4380  0.2263
   27CHL1    H6 3114   2.695   2.364   5.463  1.3768 -0.1596  1.7574
   27CHL1    C7 3115   2.715   2.249   5.270  0.0818  0.1992  0.3643
   27CHL1   H7A 3116   2.610   2.275   5.246  0.4124  0.5663 -0.7558
   27CHL1   H7B 3117   2.766   2.328   5.210  2.6074 -1.4420  0.2183
   27CHL1    C8 3118   2.749   2.102   5.221  0.2463  0.3222 -0.0662
   27CHL1    H8 3119   2.670   2.028   5.247  1.2713 -0.9975 -0.5766
   27CHL1   C14 3120   2.776   2.118   5.076  0.1842 -0.1675  0.1711
   27CHL1   H14 3121   2.864   2.185   5.073 -0.6112  0.9843  1.4748
   27CHL1   C15 3122   2.675   2.191   4.996  0.6171  0.3778 -0.0542
   27CHL1  H15A 3123   2.575   2.153   5.024 -0.0956  0.7079 -2.0366
   27CHL1  H15B 3124   2.668   2.300   5.018  0.6713  0.6253 -1.1878
   27CHL1   C16 3125   2.703   2.150   4.854 -0.5094  0.5395  0.3060
   27CHL1  H16A 3126   2.609   2.104   4.819  0.5228 -0.9492 -0.6282
   27CHL1  H16B 3127   2.736   2.235   4.791 -1.4930  0.7912  0.1158
   27CHL1   C17 3128   2.812   2.038   4.869 -0.0297  0.3771  0.0586
   27CHL1   H17 3129   2.910   2.089   4.864 -0.8757  2.2908  1.4434
   27CHL1   C13 3130   2.803   1.985   5.008 -0.1217  0.2343 -0.3801
   27CHL1   C18 3131   2.674   1.886   5.022  0.2641 -0.4322  0.3458
   27CHL1  H18A 3132   2.657   1.860   5.128 -1.5573  0.2328  0.2452
   27CHL1  H18B 3133   2.581   1.939   4.993  0.6753 -0.3847 -0.9611
   27CHL1  H18C 3134   2.684   1.792   4.964 -0.1756  0.4610 -1.2607
   27CHL1   C12 3135   2.932   1.925   5.070 -0.6990 -0.5351  0.2025
   27CHL1  H12A 3136   2.948   1.831   5.013 -0.1520  1.2316 -2.7813
   27CHL1  H12B 3137   3.010   1.998   5.041 -2.8515  2.2697  1.1065
   27CHL1   C11 3138   2.920   1.907   5.223  0.1700  0.1821  1.0408
   27CHL1  H11A 3139   2.840   1.831   5.240 -1.2829  1.0073 -1.5050
   27CHL1  H11B 3140   3.022   1.880   5.256  0.4925  2.9582  2.6072
   27CHL1    C9 3141   2.877   2.047   5.286  0.6516 -0.8427 -0.8384
   27CHL1    H9 3142   2.957   2.118   5.255 -0.2711  0.1772 -0.9696
   27CHL1   C10 3143   2.872   2.053   5.445  0.3810 -0.1240  0.2754
   27CHL1   C19 3144   2.779   1.941   5.501  0.1702 -0.9448  0.5613
   27CHL1  H19A 3145   2.677   1.971   5.468  0.3455 -1.1836 -0.2258
   27CHL1  H19B 3146   2.801   1.842   5.456  2.6854 -0.2573  0.0802
   27CHL1  H19C 3147   2.787   1.939   5.612  0.0495  2.4145  0.7197
   27CHL1    C1 3148   3.022   2.019   5.486 -0.2040  0.2990  0.2262
   27CHL1   H1A 3149   3.060   1.916   5.471  1.9392  0.6892  2.2985
   27CHL1   H1B 3150   3.085   2.086   5.424 -0.7382 -0.6956 -1.4375
   27CHL1    C2 3151   3.048   2.055   5.631 -0.7481 -0.6213 -0.1268
   27CHL1   H2A 3152   3.157   2.046   5.649 -1.0290 -0.4701  1.9258
   27CHL1   H2B 3153   2.993   1.986   5.698  1.1945 -1.1059  1.0390
   27CHL1   C20 3154   2.809   1.943   4.746  0.9137 -0.4892  0.1940
   27CHL1   H20 3155   2.721   1.880   4.768  0.2817  0.5673  0.7813
   27CHL1   C21 3156   2.931   1.851   4.740  0.5727  0.6764 -0.3966
   27CHL1  H21A 3157   2.940   1.782   4.826 -0.5815 -0.6379 -1.2973
   27CHL1  H21B 3158   3.028   1.901   4.716  0.8215 -0.2561 -1.4026
   27CHL1  H21C 3159   2.909   1.772   4.665  0.0969 -1.2705  1.7049
   27CHL1   C22 3160   2.774   2.016   4.618  0.1424 -0.2196 -0.0356
   27CHL1  H22A 3161   2.664   2.034   4.615  0.1120  0.3244  2.2418
   27CHL1  H22B 3162   2.818   2.118   4.617  0.8197 -0.5109 -0.4451
   27CHL1   C23 3163   2.809   1.941   4.487 -0.0851  0.4857 -0.0544
   27CHL1  H23A 3164   2.920   1.943   4.474 -0.1089  1.8443 -0.2309
   27CHL1  H23B 3165   2.772   1.837   4.497  1.2635 -0.2071 -1.8629
   27CHL1   C24 3166   2.747   2.006   4.366 -0.2276  0.3513 -0.2855
   27CHL1  H24A 3167   2.744   1.917   4.299  0.5929  0.3391 -0.3235
   27CHL1  H24B 3168   2.643   2.039   4.384  0.2929  1.6730  0.4147
   27CHL1   C25 3169   2.831   2.110   4.294  0.1837 -0.3117 -0.0305
   27CHL1   H25 3170   2.873   2.177   4.372 -0.3169 -1.9737  1.7563
   27CHL1   C26 3171   2.953   2.053   4.218 -0.0140 -0.5240 -0.3435
   27CHL1  H26A 3172   2.925   1.961   4.163 -3.2630 -0.3836  0.8699
   27CHL1  H26B 3173   2.994   2.136   4.157  0.3619 -0.0874  0.4875
   27CHL1  H26C 3174   3.024   2.020   4.297 -1.1481 -0.4093  0.7539
   27CHL1   C27 3175   2.742   2.197   4.205 -0.2146  0.5724  0.0060
   27CHL1  H27A 3176   2.693   2.137   4.125 -0.5200  0.5213  0.2310
   27CHL1  H27B 3177   2.801   2.281   4.162 -0.5181  0.6403 -0.2833
   27CHL1  H27C 3178   2.664   2.234   4.275  1.5202 -0.9595  2.9489
   28CHL1    C3 3179   6.014   1.888   5.723 -0.3421  0.4541  0.0350
   28CHL1    H3 3180   5.905   1.867   5.732 -0.3862  0.0328 -1.3131
   28CHL1    O3 3181   6.068   1.961   5.831  0.1423  0.1632 -0.0926
   28CHL1   H3' 3182   6.053   1.909   5.910 -0.6631  0.2207 -0.2039
   28CHL1    C4 3183   6.086   1.762   5.711  0.0607 -0.3775  0.1381
   28CHL1   H4A 3184   6.196   1.779   5.707  0.4963 -2.3226  2.0217
   28CHL1   H4B 3185   6.056   1.703   5.800 -0.1820 -2.2294 -1.1065
   28CHL1    C5 3186   6.059   1.674   5.592  0.1600 -0.4622  1.0829
   28CHL1    C6 3187   6.010   1.553   5.591 -0.5490  0.3818 -1.0872
   28CHL1    H6 3188   5.994   1.498   5.685 -0.5837  2.0074 -0.1014
   28CHL1    C7 3189   5.989   1.466   5.465  0.0227 -0.3784  0.4263
   28CHL1   H7A 3190   6.055   1.377   5.462  3.0657  1.7163 -2.6336
   28CHL1   H7B 3191   5.883   1.433   5.454  0.1098 -0.9058  1.1291
   28CHL1    C8 3192   6.028   1.543   5.332 -0.1327 -0.1447  1.1841
   28CHL1    H8 3193   6.138   1.525   5.328 -0.1556 -0.0360 -0.4120
   28CHL1   C14 3194   5.960   1.482   5.214 -0.6986  0.2593  0.3038
   28CHL1   H14 3195   5.854   1.496   5.245 -0.9842  0.3900 -0.6968
   28CHL1   C15 3196   5.965   1.325   5.210  0.3327 -0.2530  0.6697
   28CHL1  H15A 3197   6.066   1.286   5.235  0.9323  0.9711  0.2127
   28CHL1  H15B 3198   5.887   1.276   5.273 -2.7163  4.8336  1.3865
   28CHL1   C16 3199   5.925   1.299   5.065 -0.1937 -0.1568  0.5855
   28CHL1  H16A 3200   6.002   1.230   5.024 -0.7664 -1.5255  1.7232
   28CHL1  H16B 3201   5.828   1.246   5.060  0.5126 -1.4461 -0.0122
   28CHL1   C17 3202   5.918   1.436   5.002  0.3073  0.0776  0.6687
   28CHL1   H17 3203   5.810   1.455   5.011 -0.0629 -1.4254 -0.1602
   28CHL1   C13 3204   5.995   1.538   5.081 -0.3224  0.4726  0.0230
   28CHL1   C18 3205   6.146   1.518   5.040 -0.5946  0.1357  0.4777
   28CHL1  H18A 3206   6.217   1.589   5.088 -0.7960  0.8870 -0.3212
   28CHL1  H18B 3207   6.172   1.411   5.055 -2.7322 -0.3884  0.7715
   28CHL1  H18C 3208   6.162   1.541   4.933  2.8809 -2.6814  0.2166
   28CHL1   C12 3209   5.954   1.685   5.084  1.1214 -0.1611  0.2788
   28CHL1  H12A 3210   5.976   1.731   4.985  0.6295 -1.0417 -0.2472
   28CHL1  H12B 3211   5.844   1.695   5.094  0.8608 -1.1703 -1.2569
   28CHL1   C11 3212   6.024   1.762   5.198  0.0622  0.6449 -0.8934
   28CHL1  H11A 3213   6.134   1.767   5.182  0.4722 -0.9655  0.9832
   28CHL1  H11B 3214   5.979   1.863   5.205 -0.8986  0.2553 -1.3130
   28CHL1    C9 3215   5.997   1.695   5.333 -1.0538  0.4698 -0.3046
   28CHL1    H9 3216   5.889   1.711   5.352 -0.7080  1.0393  1.2659
   28CHL1   C10 3217   6.067   1.763   5.455  0.2022  0.1193  0.0122
   28CHL1   C19 3218   6.219   1.781   5.426  0.2554  0.2010  0.1050
   28CHL1  H19A 3219   6.269   1.688   5.392  1.0374  0.8990 -0.7190
   28CHL1  H19B 3220   6.244   1.852   5.345  0.5311  0.2906  0.2646
   28CHL1  H19C 3221   6.281   1.797   5.518  0.8572 -2.1028  0.1588
   28CHL1    C1 3222   5.993   1.902   5.473  0.3437 -0.0453  0.5548
   28CHL1   H1A 3223   6.013   1.972   5.390  0.7229  1.5367  1.9241
   28CHL1   H1B 3224   5.882   1.894   5.478  0.4698 -1.7573  1.7051
   28CHL1    C2 3225   6.028   1.976   5.604  0.4945  0.2484  0.3804
   28CHL1   H2A 3226   5.971   2.072   5.611  2.0353  1.2930 -0.6866
   28CHL1   H2B 3227   6.137   1.992   5.596  0.8357 -2.3480 -1.5961
   28CHL1   C20 3228   5.943   1.420   4.849  0.6396  0.4778  0.4553
   28CHL1   H20 3229   6.045   1.387   4.820  0.1420  0.6031 -1.6107
   28CHL1   C21 3230   5.924   1.555   4.777 -0.1413 -0.1819 -0.1992
   28CHL1  H21A 3231   5.936   1.539   4.667  1.2661 -1.8597  0.1400
   28CHL1  H21B 3232   5.999   1.630   4.809  0.4153 -1.1426  0.8321
   28CHL1  H21C 3233   5.827   1.591   4.816  0.4770  2.3145 -0.7920
   28CHL1   C22 3234   5.857   1.309   4.786  0.0059  0.8290 -0.4828
   28CHL1  H22A 3235   5.882   1.214   4.839 -0.5768  0.3331 -1.0643
   28CHL1  H22B 3236   5.751   1.339   4.800  0.0333  0.5032  0.4896
   28CHL1   C23 3237   5.880   1.289   4.636 -0.3921  0.0282 -0.5586
   28CHL1  H23A 3238   5.875   1.380   4.573 -0.4539  0.7450  0.4672
   28CHL1  H23B 3239   5.983   1.249   4.620  0.8537  2.0609  1.7282
   28CHL1   C24 3240   5.780   1.183   4.586  0.3321 -0.4639  0.2723
   28CHL1  H24A 3241   5.777   1.099   4.659  0.4891  0.0230  0.8386
   28CHL1  H24B 3242   5.677   1.225   4.585 -0.8613 -3.1135  1.3469
   28CHL1   C25 3243   5.806   1.122   4.449 -0.4886 -0.2465  0.8739
   28CHL1   H25 3244   5.903   1.068   4.441  0.0303  0.5623  1.5223
   28CHL1   C26 3245   5.698   1.012   4.419 -0.1796 -1.5424  0.0747
   28CHL1  H26A 3246   5.598   1.058   4.404  0.5830 -0.0930 -0.8264
   28CHL1  H26B 3247   5.732   0.960   4.326 -0.3332 -0.4421 -0.6069
   28CHL1  H26C 3248   5.701   0.930   4.493  0.7561  0.5203  2.4482
   28CHL1   C27 3249   5.811   1.226   4.339 -0.2308  0.0656 -0.3913
   28CHL1  H27A 3250   5.712   1.266   4.309 -0.8549 -0.2802  1.1217
   28CHL1  H27B 3251   5.875   1.306   4.383  0.3424 -1.4145  1.6218
   28CHL1  H27C 3252   5.866   1.195   4.247  0.5523  0.9118 -0.2293
   29CHL1    C3 3253   2.529   4.240   5.854  0.7075 -0.0716  0.1085
   29CHL1    H3 3254   2.632   4.267   5.822  0.9876 -2.4723 -1.2431
   29CHL1    O3 3255   2.523   4.243   5.995  0.0044  0.4813  0.4013
   29CHL1   H3' 3256   2.436   4.209   6.019  0.7111 -1.9514 -0.1619
   29CHL1    C4 3257   2.439   4.345   5.785 -0.1354  0.7459  0.6660
   29CHL1   H4A 3258   2.336   4.330   5.824  0.1820 -0.0180  1.2408
   29CHL1   H4B 3259   2.467   4.441   5.835  1.8329  0.1950  0.6949
   29CHL1    C5 3260   2.451   4.339   5.633 -0.3513  0.1829 -0.7156
   29CHL1    C6 3261   2.500   4.444   5.567 -0.6484 -0.2706  0.8464
   29CHL1    H6 3262   2.514   4.535   5.627 -1.1807 -0.2216  0.8960
   29CHL1    C7 3263   2.522   4.458   5.419  0.2866  0.5202  0.2709
   29CHL1   H7A 3264   2.493   4.557   5.378  0.8968  0.8966  0.7210
   29CHL1   H7B 3265   2.632   4.461   5.405 -0.0631 -1.2814 -4.4431
   29CHL1    C8 3266   2.455   4.338   5.348 -0.3614 -0.0970  0.1425
   29CHL1    H8 3267   2.346   4.359   5.345  0.2615  3.8408  0.2320
   29CHL1   C14 3268   2.496   4.326   5.205  0.7599 -0.6783 -0.6809
   29CHL1   H14 3269   2.605   4.304   5.218  0.5368 -0.8838  1.0954
   29CHL1   C15 3270   2.481   4.451   5.110 -0.3203 -0.2756 -0.1346
   29CHL1  H15A 3271   2.383   4.496   5.135  0.4072  1.6926 -0.6955
   29CHL1  H15B 3272   2.550   4.533   5.138 -2.5669  0.8557  2.5751
   29CHL1   C16 3273   2.491   4.393   4.969 -0.2674  0.6827  0.2924
   29CHL1  H16A 3274   2.405   4.427   4.909  0.2106  1.0424 -0.2020
   29CHL1  H16B 3275   2.587   4.429   4.925 -0.2261 -0.1196 -0.2948
   29CHL1   C17 3276   2.513   4.238   4.987  0.2286 -0.1207  0.6076
   29CHL1   H17 3277   2.620   4.222   5.011  0.0849  0.8958  2.0439
   29CHL1   C13 3278   2.447   4.206   5.122  0.3608 -0.3136  0.4052
   29CHL1   C18 3279   2.295   4.209   5.109 -0.2493  0.2120 -0.1082
   29CHL1  H18A 3280   2.244   4.194   5.207 -0.9033 -0.7164 -0.5788
   29CHL1  H18B 3281   2.243   4.297   5.065 -1.2201 -0.6570 -0.7415
   29CHL1  H18C 3282   2.268   4.119   5.050  1.8622 -0.6981  0.2038
   29CHL1   C12 3283   2.494   4.083   5.189  0.2901 -0.2469 -0.7592
   29CHL1  H12A 3284   2.449   3.988   5.154 -1.8962 -0.3090  1.9193
   29CHL1  H12B 3285   2.605   4.083   5.186  0.4637 -1.0978  2.4992
   29CHL1   C11 3286   2.448   4.084   5.338 -0.2226  0.1010  0.4910
   29CHL1  H11A 3287   2.338   4.066   5.338 -0.1147 -0.8873  2.4846
   29CHL1  H11B 3288   2.493   3.994   5.387 -1.7946 -1.5299 -0.8945
   29CHL1    C9 3289   2.485   4.207   5.423  0.4081  0.4651  0.2072
   29CHL1    H9 3290   2.596   4.206   5.425  0.5069 -3.4306  0.4118
   29CHL1   C10 3291   2.440   4.196   5.574  0.4850 -0.2862 -0.7856
   29CHL1   C19 3292   2.283   4.150   5.575  0.1372 -0.1436  0.3756
   29CHL1  H19A 3293   2.240   4.168   5.676 -1.2927 -0.1282 -0.2027
   29CHL1  H19B 3294   2.220   4.206   5.503  1.3477  0.7888  0.0141
   29CHL1  H19C 3295   2.276   4.041   5.554  0.1281  0.2338 -1.7895
   29CHL1    C1 3296   2.517   4.093   5.661 -0.3640  0.1534 -0.4241
   29CHL1   H1A 3297   2.495   3.989   5.629  1.0971 -0.7664  1.3636
   29CHL1   H1B 3298   2.627   4.101   5.642 -0.0992 -0.8223  0.5757
   29CHL1    C2 3299   2.496   4.096   5.809 -0.9600 -0.4244  0.3844
   29CHL1   H2A 3300   2.555   4.023   5.868 -0.7711  0.6174  1.5206
   29CHL1   H2B 3301   2.391   4.063   5.824 -1.0703 -0.1723  0.1887
   29CHL1   C20 3302   2.472   4.164   4.856 -0.8040 -0.0054  0.0871
   29CHL1   H20 3303   2.362   4.159   4.845 -0.5271 -0.7173 -3.6827
   29CHL1   C21 3304   2.527   4.018   4.863  0.4387  0.2278 -0.0152
   29CHL1  H21A 3305   2.521   3.969   4.764  2.7466  0.2200 -0.1922
   29CHL1  H21B 3306   2.462   3.965   4.937  2.7604 -0.1121  1.8985
   29CHL1  H21C 3307   2.627   4.015   4.911  1.8440 -0.6752 -2.7962
   29CHL1   C22 3308   2.516   4.239   4.726 -0.3292 -0.8354  0.2508
   29CHL1  H22A 3309   2.469   4.339   4.725  0.4678 -0.4301  1.1900
   29CHL1  H22B 3310   2.626   4.252   4.722 -0.4792  0.2250 -1.0194
   29CHL1   C23 3311   2.459   4.178   4.604  0.4564  0.7933 -0.4164
   29CHL1  H23A 3312   2.497   4.075   4.584  1.3708  0.6713  1.6377
   29CHL1  H23B 3313   2.351   4.159   4.625  1.1151  0.2001  3.1041
   29CHL1   C24 3314   2.495   4.265   4.484 -0.0487  0.0530 -0.0412
   29CHL1  H24A 3315   2.451   4.365   4.506  0.0737 -0.1263  1.0828
   29CHL1  H24B 3316   2.605   4.279   4.481 -0.1200  0.4867 -0.8472
   29CHL1   C25 3317   2.441   4.213   4.348  0.0534 -0.4136  0.4340
   29CHL1   H25 3318   2.343   4.167   4.371 -0.5091 -0.2029 -1.3372
   29CHL1   C26 3319   2.411   4.323   4.240  0.2090  0.0705 -0.5644
   29CHL1  H26A 3320   2.504   4.379   4.219  0.6337 -0.8464 -1.2256
   29CHL1  H26B 3321   2.380   4.282   4.141 -3.0219  0.5339  0.1410
   29CHL1  H26C 3322   2.331   4.391   4.277  0.0297 -0.5453  0.1988
   29CHL1   C27 3323   2.528   4.105   4.291  0.0967 -0.4569  0.0671
   29CHL1  H27A 3324   2.525   4.015   4.356 -2.9834 -0.9547 -0.6353
   29CHL1  H27B 3325   2.480   4.067   4.198  3.4819 -1.6360 -1.3825
   29CHL1  H27C 3326   2.630   4.145   4.271  0.2081 -1.0358 -0.5716
   30CHL1    C3 3327   2.433   6.468   5.971 -0.4206 -0.0420  0.6797
   30CHL1    H3 3328   2.450   6.359   5.959 -1.2491 -0.0119 -0.9572
   30CHL1    O3 3329   2.446   6.480   6.112  0.1624  0.1477  0.2062
   30CHL1   H3' 3330   2.354   6.476   6.138 -0.3385  2.0925 -1.0337
   30CHL1    C4 3331   2.547   6.535   5.884  0.8188 -0.1569  0.2000
   30CHL1   H4A 3332   2.544   6.641   5.914 -1.7009 -0.8052  2.6741
   30CHL1   H4B 3333   2.635   6.471   5.908 -1.6777 -3.8579  0.3388
   30CHL1    C5 3334   2.521   6.520   5.735  0.7987  0.7240 -0.0502
   30CHL1    C6 3335   2.613   6.458   5.658  0.6406 -0.2261  0.8497
   30CHL1    H6 3336   2.702   6.424   5.712 -1.2525 -2.8654  2.4841
   30CHL1    C7 3337   2.587   6.418   5.517 -0.0082  0.0618  0.8943
   30CHL1   H7A 3338   2.668   6.449   5.447  0.8325  0.1016  1.8590
   30CHL1   H7B 3339   2.567   6.309   5.505 -0.0537  0.3258 -2.8110
   30CHL1    C8 3340   2.469   6.490   5.459 -0.8832  0.3438 -0.4694
   30CHL1    H8 3341   2.504   6.593   5.434 -1.4296  0.6094 -0.1728
   30CHL1   C14 3342   2.431   6.416   5.325 -0.1614 -1.2825  0.5730
   30CHL1   H14 3343   2.408   6.313   5.357  1.5496 -1.2837  1.9759
   30CHL1   C15 3344   2.542   6.403   5.217 -0.2340  0.6057 -0.7494
   30CHL1  H15A 3345   2.595   6.500   5.205  1.5465 -0.4350 -1.7573
   30CHL1  H15B 3346   2.625   6.333   5.242 -1.1079 -0.1970  0.0050
   30CHL1   C16 3347   2.465   6.376   5.089  0.1758  0.3449 -0.0378
   30CHL1  H16A 3348   2.486   6.459   5.018  1.7654 -0.7925 -0.9515
   30CHL1  H16B 3349   2.485   6.281   5.036  1.6372  0.5958  0.0275
   30CHL1   C17 3350   2.307   6.392   5.127 -0.2833 -0.1810  0.3594
   30CHL1   H17 3351   2.266   6.293   5.152 -2.0800  0.6007  0.6631
   30CHL1   C13 3352   2.308   6.475   5.253 -0.2269 -0.2739 -0.4182
   30CHL1   C18 3353   2.330   6.626   5.207  0.4393 -0.2931 -0.0847
   30CHL1  H18A 3354   2.356   6.680   5.300 -1.2904  0.4320  0.0087
   30CHL1  H18B 3355   2.418   6.646   5.142  1.1910 -1.7448  0.4244
   30CHL1  H18C 3356   2.241   6.670   5.159 -0.1434 -0.5844  0.7096
   30CHL1   C12 3357   2.182   6.463   5.340  0.3578  0.4163 -0.0042
   30CHL1  H12A 3358   2.089   6.508   5.299  0.9100  2.2790  0.7170
   30CHL1  H12B 3359   2.167   6.354   5.358 -2.3445  0.9887  1.6743
   30CHL1   C11 3360   2.212   6.528   5.475 -0.1683  0.3701 -0.0301
   30CHL1  H11A 3361   2.216   6.639   5.470 -0.2807  0.3782  0.0528
   30CHL1  H11B 3362   2.131   6.506   5.548  0.5914 -1.0572  0.4104
   30CHL1    C9 3363   2.347   6.485   5.547 -0.1494  0.0678 -0.1793
   30CHL1    H9 3364   2.327   6.377   5.565  0.2120 -0.4970 -2.7851
   30CHL1   C10 3365   2.376   6.548   5.684 -0.3123 -0.3152  0.1635
   30CHL1   C19 3366   2.378   6.703   5.673  0.3674 -0.1725  0.0306
   30CHL1  H19A 3367   2.455   6.730   5.597  1.4647 -0.7804  0.9029
   30CHL1  H19B 3368   2.278   6.747   5.651  0.7773  0.9983  0.4403
   30CHL1  H19C 3369   2.402   6.752   5.770  0.6793 -0.9240  0.3344
   30CHL1    C1 3370   2.261   6.498   5.783 -0.9418 -0.1493 -0.1613
   30CHL1   H1A 3371   2.174   6.564   5.761  1.5032  3.0308 -1.1031
   30CHL1   H1B 3372   2.232   6.392   5.765 -0.0407 -0.7710  1.7916
   30CHL1    C2 3373   2.295   6.518   5.932  0.0259 -0.3091 -0.4298
   30CHL1   H2A 3374   2.215   6.477   5.997  0.2385  0.8116  0.5689
   30CHL1   H2B 3375   2.297   6.628   5.948  1.7436 -0.4018  0.1691
   30CHL1   C20 3376   2.220   6.427   5.008  0.1151 -0.4424  0.0844
   30CHL1   H20 3377   2.239   6.530   4.971 -0.3913  0.3807  2.0016
   30CHL1   C21 3378   2.079   6.418   5.034  0.6647  1.0955  0.1954
   30CHL1  H21A 3379   2.055   6.315   5.067  0.4821  0.3569 -2.0856
   30CHL1  H21B 3380   2.014   6.436   4.946 -0.5155  0.7163  0.9633
   30CHL1  H21C 3381   2.038   6.491   5.108 -3.0710  0.6632 -1.2150
   30CHL1   C22 3382   2.243   6.329   4.889 -0.2248  0.2392 -0.3643
   30CHL1  H22A 3383   2.354   6.330   4.883 -0.1788  0.3428  0.3915
   30CHL1  H22B 3384   2.207   6.230   4.924  0.5444  0.0740 -0.0148
   30CHL1   C23 3385   2.183   6.363   4.752  0.1051  0.0334  0.1052
   30CHL1  H23A 3386   2.072   6.350   4.758  0.0030  0.5512 -0.5748
   30CHL1  H23B 3387   2.187   6.473   4.741  1.2326 -0.0297 -0.1679
   30CHL1   C24 3388   2.239   6.297   4.626 -1.3104  0.5679  0.3704
   30CHL1  H24A 3389   2.197   6.344   4.534  0.4612 -0.0817 -0.8208
   30CHL1  H24B 3390   2.347   6.325   4.618 -0.5484 -1.6660  1.8957
   30CHL1   C25 3391   2.220   6.146   4.620  0.0859  0.2024 -0.2263
   30CHL1   H25 3392   2.306   6.105   4.676  0.5617  0.1478 -0.9781
   30CHL1   C26 3393   2.079   6.093   4.668 -0.2661  0.3002  0.0571
   30CHL1  H26A 3394   2.068   5.986   4.641 -1.4238  1.3395 -4.2251
   30CHL1  H26B 3395   2.067   6.109   4.778  0.0495 -2.2990  0.5237
   30CHL1  H26C 3396   1.993   6.141   4.616 -0.8555 -2.0899 -1.2984
   30CHL1   C27 3397   2.239   6.106   4.469 -0.2420 -0.3255  0.3345
   30CHL1  H27A 3398   2.153   6.155   4.419  0.7686  0.6924 -0.4641
   30CHL1  H27B 3399   2.329   6.150   4.419 -1.3736  0.1661 -1.3443
   30CHL1  H27C 3400   2.243   5.996   4.460  1.5000 -0.6451  3.4878
   31CHL1    C3 3401   2.146   5.165   6.116  0.7092 -0.1172 -0.0625
   31CHL1    H3 3402   2.253   5.140   6.100  1.3701  2.3712  0.0471
   31CHL1    O3 3403   2.112   5.170   6.254 -0.2143 -0.1720 -0.4568
   31CHL1   H3' 3404   2.178   5.227   6.296 -0.5752 -0.2614  0.2447
   31CHL1    C4 3405   2.123   5.318   6.068 -0.0659  0.2868 -0.0741
   31CHL1   H4A 3406   2.020   5.341   6.101 -0.8364 -1.9147 -0.7505
   31CHL1   H4B 3407   2.193   5.380   6.129  0.5923 -1.3907  0.9494
   31CHL1    C5 3408   2.152   5.319   5.920 -0.0145 -0.2230 -1.5615
   31CHL1    C6 3409   2.232   5.416   5.871 -0.5624  0.3924 -0.3757
   31CHL1    H6 3410   2.278   5.499   5.927  0.4860  0.5968 -1.5025
   31CHL1    C7 3411   2.249   5.433   5.719 -0.2255  0.2632 -0.1064
   31CHL1   H7A 3412   2.249   5.535   5.677  2.5542  0.0035 -0.9882
   31CHL1   H7B 3413   2.355   5.399   5.710 -0.4484 -0.9172  1.2179
   31CHL1    C8 3414   2.165   5.339   5.631  0.5685 -0.5758  0.3415
   31CHL1    H8 3415   2.066   5.387   5.621  1.0357  0.2772 -0.3850
   31CHL1   C14 3416   2.220   5.349   5.484 -0.3841  0.1482 -1.3520
   31CHL1   H14 3417   2.321   5.303   5.489 -0.5935 -0.3061 -1.1251
   31CHL1   C15 3418   2.234   5.489   5.416 -0.4244 -0.6521 -0.1003
   31CHL1  H15A 3419   2.137   5.542   5.419 -0.1627 -0.1646 -0.0824
   31CHL1  H15B 3420   2.307   5.551   5.473 -2.6941  0.4454  1.7468
   31CHL1   C16 3421   2.263   5.441   5.274 -0.0390 -0.5182  0.4281
   31CHL1  H16A 3422   2.207   5.495   5.196  2.1829  0.6514 -0.4463
   31CHL1  H16B 3423   2.369   5.453   5.243 -0.1227  0.2413  0.4369
   31CHL1   C17 3424   2.215   5.293   5.262  0.2602  0.3294 -0.2942
   31CHL1   H17 3425   2.305   5.227   5.262 -0.6314 -0.9405 -1.0932
   31CHL1   C13 3426   2.136   5.261   5.395  0.0155 -0.0483  0.5580
   31CHL1   C18 3427   1.986   5.308   5.376 -0.4754  1.0801 -0.6966
   31CHL1  H18A 3428   1.985   5.417   5.354 -0.3892  1.4803  1.1074
   31CHL1  H18B 3429   1.943   5.249   5.293  2.0031 -1.1764 -0.5080
   31CHL1  H18C 3430   1.937   5.290   5.474  2.4163  1.2595  0.8978
   31CHL1   C12 3431   2.140   5.112   5.447  0.3894  0.7923  0.0341
   31CHL1  H12A 3432   2.068   5.049   5.390  0.9141 -0.3905  0.6268
   31CHL1  H12B 3433   2.240   5.071   5.422 -0.0749  0.1352 -0.8078
   31CHL1   C11 3434   2.092   5.097   5.591  0.4840  0.1147 -0.5854
   31CHL1  H11A 3435   1.982   5.105   5.579  0.5314  2.6254  0.0385
   31CHL1  H11B 3436   2.109   4.995   5.631  2.9207 -0.1830 -2.1435
   31CHL1    C9 3437   2.151   5.200   5.690 -0.9320 -0.0162 -0.5608
   31CHL1    H9 3438   2.256   5.166   5.701 -0.7899  0.4575 -0.4135
   31CHL1   C10 3439   2.085   5.208   5.829  0.4615  0.0149 -0.1293
   31CHL1   C19 3440   1.936   5.257   5.809 -0.4865 -0.1619 -0.0704
   31CHL1  H19A 3441   1.872   5.205   5.734 -2.2940  0.9012  0.6655
   31CHL1  H19B 3442   1.881   5.260   5.905 -1.2379  0.2767 -0.5070
   31CHL1  H19C 3443   1.945   5.365   5.789 -0.5098  0.6742  3.6975
   31CHL1    C1 3444   2.093   5.063   5.894 -0.8185  0.1775 -0.1295
   31CHL1   H1A 3445   2.032   4.983   5.846 -1.8587  0.2456  1.0616
   31CHL1   H1B 3446   2.199   5.030   5.883 -0.6831  0.7294 -0.5290
   31CHL1    C2 3447   2.055   5.066   6.042  0.1600  0.1868  0.3402
   31CHL1   H2A 3448   2.060   4.964   6.086  0.6279 -0.4160 -1.0533
   31CHL1   H2B 3449   1.953   5.095   6.076 -0.3163  0.6780 -1.4071
   31CHL1   C20 3450   2.155   5.258   5.123  0.3687 -0.2410 -0.4193
   31CHL1   H20 3451   2.070   5.328   5.109  1.2875  1.7156  2.8414
   31CHL1   C21 3452   2.112   5.114   5.110  0.2725 -0.2983  0.1552
   31CHL1  H21A 3453   2.037   5.088   5.188  0.3453  1.3495  0.8037
   31CHL1  H21B 3454   2.203   5.051   5.123  1.2720  0.7461 -1.4024
   31CHL1  H21C 3455   2.075   5.090   5.008  0.5498  0.8323 -0.2181
   31CHL1   C22 3456   2.261   5.293   5.010  0.8750  0.4162 -0.6094
   31CHL1  H22A 3457   2.285   5.402   5.015  0.0657  0.5718  0.1669
   31CHL1  H22B 3458   2.352   5.230   5.020  0.7141  0.2366 -0.2697
   31CHL1   C23 3459   2.224   5.263   4.866 -0.0765  0.6810  0.4390
   31CHL1  H23A 3460   2.213   5.153   4.855 -0.4999  0.9392 -2.4877
   31CHL1  H23B 3461   2.129   5.313   4.838 -0.7788 -1.7081 -1.8159
   31CHL1   C24 3462   2.337   5.310   4.768 -0.0348 -0.1232 -0.6148
   31CHL1  H24A 3463   2.335   5.421   4.782 -1.1923 -0.2892  0.9394
   31CHL1  H24B 3464   2.438   5.275   4.797  0.6689  1.5833 -0.9023
   31CHL1   C25 3465   2.319   5.293   4.621  0.1782 -0.1946 -0.4163
   31CHL1   H25 3466   2.217   5.322   4.589 -0.6343 -0.9435  1.3623
   31CHL1   C26 3467   2.411   5.394   4.546  0.4195  0.3179  0.1427
   31CHL1  H26A 3468   2.510   5.396   4.596  0.5585 -0.7038 -0.0766
   31CHL1  H26B 3469   2.414   5.379   4.436  1.5413 -0.1635  0.2213
   31CHL1  H26C 3470   2.362   5.493   4.554  3.5989  1.9939  0.3607
   31CHL1   C27 3471   2.341   5.148   4.580  0.4529  0.8532  0.2023
   31CHL1  H27A 3472   2.324   5.136   4.471  0.4122  1.7293  0.0991
   31CHL1  H27B 3473   2.447   5.122   4.599  0.9258  2.8736  0.5606
   31CHL1  H27C 3474   2.292   5.079   4.652  0.4117  0.4441 -0.2218
   32CHL1    C3 3475   2.781   1.703   5.821 -1.0525  0.7751 -0.1645
   32CHL1    H3 3476   2.765   1.806   5.783 -2.6101  0.7808  0.4148
   32CHL1    O3 3477   2.760   1.695   5.960  0.3604  0.1251 -0.3473
   32CHL1   H3' 3478   2.720   1.777   5.990  0.3076  0.0072 -0.0861
   32CHL1    C4 3479   2.684   1.607   5.747 -0.1564 -0.3530 -0.2964
   32CHL1   H4A 3480   2.687   1.508   5.799  0.1308 -0.1807  0.0242
   32CHL1   H4B 3481   2.579   1.637   5.771  1.3657  3.0166  3.3196
   32CHL1    C5 3482   2.721   1.582   5.609 -0.3623 -0.2269 -0.9408
   32CHL1    C6 3483   2.627   1.612   5.518  0.4246  0.2405 -0.1688
   32CHL1    H6 3484   2.526   1.640   5.551  0.0254 -0.6197 -0.6280
   32CHL1    C7 3485   2.652   1.588   5.371 -0.3697  0.2286 -0.0951
   32CHL1   H7A 3486   2.566   1.528   5.333 -1.7581  2.0203  0.0649
   32CHL1   H7B 3487   2.629   1.680   5.313 -0.0187  0.1921 -0.2911
   32CHL1    C8 3488   2.775   1.514   5.329  0.3503  0.1267  0.0307
   32CHL1    H8 3489   2.764   1.403   5.338  1.2813 -0.0257 -0.5405
   32CHL1   C14 3490   2.814   1.537   5.181 -0.0253  0.4097 -0.1012
   32CHL1   H14 3491   2.827   1.647   5.172 -0.5515  0.9433  3.6543
   32CHL1   C15 3492   2.719   1.504   5.069 -0.3819  0.3467 -0.0157
   32CHL1  H15A 3493   2.679   1.401   5.058  0.5118  0.0471 -0.4815
   32CHL1  H15B 3494   2.637   1.579   5.062  0.7903  1.6327 -0.6001
   32CHL1   C16 3495   2.814   1.514   4.940  0.6947  0.7681 -0.7373
   32CHL1  H16A 3496   2.801   1.421   4.881  0.0721  0.5119 -0.2148
   32CHL1  H16B 3497   2.805   1.612   4.889  1.2856  2.5083  2.2230
   32CHL1   C17 3498   2.958   1.518   4.996 -0.3211  0.5392  0.3460
   32CHL1   H17 3499   2.995   1.622   4.992 -1.0406  0.7699 -0.7214
   32CHL1   C13 3500   2.952   1.463   5.143  0.0420 -0.6104 -0.2894
   32CHL1   C18 3501   2.929   1.306   5.147 -0.0004 -0.3501 -0.4841
   32CHL1  H18A 3502   2.852   1.262   5.080  0.5607 -3.0364  0.5120
   32CHL1  H18B 3503   3.022   1.247   5.129 -0.5837 -1.4382 -0.0241
   32CHL1  H18C 3504   2.898   1.281   5.250 -0.1062 -0.2438 -0.4895
   32CHL1   C12 3505   3.068   1.507   5.232 -0.5824 -0.0334  0.1803
   32CHL1  H12A 3506   3.158   1.446   5.211 -1.2984 -0.3403 -2.2901
   32CHL1  H12B 3507   3.096   1.611   5.207 -0.9981  0.2376  0.8106
   32CHL1   C11 3508   3.027   1.496   5.381  0.1085  0.2061 -0.4122
   32CHL1  H11A 3509   3.025   1.388   5.405 -1.3140  0.6477  1.7118
   32CHL1  H11B 3510   3.109   1.534   5.446  0.8520 -3.7746  1.2447
   32CHL1    C9 3511   2.892   1.559   5.412  0.5308  0.1508 -0.2984
   32CHL1    H9 3512   2.915   1.663   5.382  1.9770 -0.6976 -2.3930
   32CHL1   C10 3513   2.865   1.552   5.568 -0.8133 -0.6337 -0.1623
   32CHL1   C19 3514   2.892   1.407   5.621 -0.2586 -0.2764  0.2873
   32CHL1  H19A 3515   2.854   1.380   5.722 -0.3994 -1.4201 -0.0563
   32CHL1  H19B 3516   2.853   1.330   5.550  0.7286 -0.5749  0.0559
   32CHL1  H19C 3517   3.001   1.388   5.617  0.3974  3.1234 -1.1755
   32CHL1    C1 3518   2.960   1.646   5.649 -0.3953  0.3414 -0.5173
   32CHL1   H1A 3519   3.065   1.614   5.634 -0.0924  0.2012  1.6424
   32CHL1   H1B 3520   2.948   1.739   5.589 -0.4079 -1.0299 -2.7501
   32CHL1    C2 3521   2.929   1.660   5.797 -0.3929 -0.2209 -0.8811
   32CHL1   H2A 3522   2.986   1.744   5.841 -0.9220 -1.3807  2.3155
   32CHL1   H2B 3523   2.952   1.565   5.849 -0.5606 -0.5892 -1.4649
   32CHL1   C20 3524   3.063   1.440   4.904  0.4348 -0.2335  0.0965
   32CHL1   H20 3525   3.035   1.333   4.899 -0.2896 -0.0288 -0.5995
   32CHL1   C21 3526   3.208   1.419   4.954  0.6442 -0.2380 -0.6183
   32CHL1  H21A 3527   3.259   1.514   4.984  1.4623 -1.3620  1.8783
   32CHL1  H21B 3528   3.250   1.360   4.870 -1.4356 -3.2004  0.2601
   32CHL1  H21C 3529   3.210   1.352   5.043 -1.6243  0.9020  0.3857
   32CHL1   C22 3530   3.059   1.498   4.758  0.3037 -0.3700 -0.5164
   32CHL1  H22A 3531   2.962   1.542   4.729  0.6231  0.7564  0.0640
   32CHL1  H22B 3532   3.124   1.587   4.767 -1.2547  0.8485 -0.9754
   32CHL1   C23 3533   3.090   1.402   4.639 -0.8610 -0.1084 -0.5832
   32CHL1  H23A 3534   3.189   1.357   4.664 -1.2431 -2.6356 -3.0712
   32CHL1  H23B 3535   3.015   1.320   4.641  1.2310 -2.1336  0.0805
   32CHL1   C24 3536   3.109   1.458   4.492 -0.9388  0.0682  0.5045
   32CHL1  H24A 3537   3.198   1.524   4.500  0.3804 -1.2041 -2.1456
   32CHL1  H24B 3538   3.157   1.376   4.435  0.8289 -0.1638  2.2260
   32CHL1   C25 3539   2.989   1.528   4.433  0.0049 -0.3764  0.2773
   32CHL1   H25 3540   2.953   1.592   4.516  0.2931  1.0271 -0.6524
   32CHL1   C26 3541   3.039   1.616   4.322 -0.2953 -0.5803  0.1004
   32CHL1  H26A 3542   3.116   1.687   4.360  1.1518 -2.7061  1.3441
   32CHL1  H26B 3543   3.090   1.562   4.239  0.0746 -0.0983  0.0070
   32CHL1  H26C 3544   2.957   1.680   4.283 -0.2933 -1.3235 -1.1925
   32CHL1   C27 3545   2.884   1.431   4.391  0.3606 -0.5076 -0.2040
   32CHL1  H27A 3546   2.916   1.380   4.298 -1.4197 -0.0806 -1.1004
   32CHL1  H27B 3547   2.856   1.354   4.466 -0.7031  1.0108  1.0285
   32CHL1  H27C 3548   2.788   1.473   4.353 -0.7065 -2.7396 -0.1621
   33CHL1    C3 3549   3.090   3.222   5.957 -0.1075 -0.1599  0.1654
   33CHL1    H3 3550   3.190   3.268   5.937  0.3754 -0.5890  1.4835
   33CHL1    O3 3551   3.069   3.215   6.098 -0.2492  0.0567 -0.1202
   33CHL1   H3' 3552   3.030   3.299   6.123  0.2234  0.0502  0.6633
   33CHL1    C4 3553   2.979   3.298   5.887 -0.2931 -0.0117  0.3420
   33CHL1   H4A 3554   2.891   3.243   5.929  0.3463 -2.1328 -0.9454
   33CHL1   H4B 3555   2.989   3.403   5.920 -2.1064 -0.2829  1.9765
   33CHL1    C5 3556   2.981   3.280   5.736  0.1959 -0.3738 -0.3842
   33CHL1    C6 3557   2.994   3.386   5.657  0.1150 -0.6451  0.2181
   33CHL1    H6 3558   2.991   3.488   5.697  1.6954 -0.0844 -0.9530
   33CHL1    C7 3559   3.001   3.376   5.508 -0.0527  0.7623  0.2566
   33CHL1   H7A 3560   2.932   3.447   5.458  1.7397  1.5639 -1.1965
   33CHL1   H7B 3561   3.104   3.401   5.475  0.5403 -1.0536  0.6271
   33CHL1    C8 3562   2.956   3.229   5.467  0.5998 -0.0336  0.4115
   33CHL1    H8 3563   2.845   3.232   5.475  0.6970  0.5142  1.7217
   33CHL1   C14 3564   2.991   3.208   5.318  0.4198 -0.9273  0.5716
   33CHL1   H14 3565   3.102   3.205   5.309  0.4603  1.7671 -0.9977
   33CHL1   C15 3566   2.954   3.330   5.229 -0.7695 -0.1130 -0.1668
   33CHL1  H15A 3567   2.848   3.358   5.250 -0.5683  0.0038  0.7287
   33CHL1  H15B 3568   3.026   3.414   5.237 -1.4356  0.8297 -2.9418
   33CHL1   C16 3569   2.952   3.273   5.089 -0.1007 -0.7186 -0.2444
   33CHL1  H16A 3570   2.864   3.307   5.031  1.1104  2.1425 -0.6088
   33CHL1  H16B 3571   3.033   3.319   5.027 -0.0473 -1.3088 -0.6129
   33CHL1   C17 3572   2.965   3.118   5.103  0.1148 -0.4037 -0.2688
   33CHL1   H17 3573   3.074   3.099   5.095  0.3084 -0.3090  1.5590
   33CHL1   C13 3574   2.930   3.088   5.255  0.4898  0.4486  0.9497
   33CHL1   C18 3575   2.773   3.083   5.257 -0.2595 -0.2767  0.0887
   33CHL1  H18A 3576   2.733   2.984   5.224  0.5779 -0.4749 -0.3647
   33CHL1  H18B 3577   2.743   3.092   5.363  1.7084 -1.5839  0.8199
   33CHL1  H18C 3578   2.722   3.164   5.200 -1.3716  0.5272  2.1419
   33CHL1   C12 3579   2.993   2.967   5.317 -0.9198  0.2149  0.0972
   33CHL1  H12A 3580   2.946   2.872   5.285  0.4272 -0.2740 -0.5378
   33CHL1  H12B 3581   3.101   2.949   5.295 -0.2496 -2.5625  4.5414
   33CHL1   C11 3582   2.981   2.973   5.470  0.8751  0.2629  0.4948
   33CHL1  H11A 3583   2.876   2.946   5.491  0.6243 -1.4958 -2.4534
   33CHL1  H11B 3584   3.042   2.888   5.507 -1.5172 -2.3970 -1.3017
   33CHL1    C9 3585   3.019   3.109   5.541 -0.7186 -0.7610 -0.0949
   33CHL1    H9 3586   3.129   3.124   5.537 -0.9209  1.2575  0.5934
   33CHL1   C10 3587   2.991   3.131   5.691 -0.0481 -0.6638  0.3301
   33CHL1   C19 3588   2.865   3.047   5.721  0.1331  0.3181  0.4924
   33CHL1  H19A 3589   2.788   3.084   5.650 -0.0787 -2.7191 -0.9878
   33CHL1  H19B 3590   2.860   2.937   5.714 -0.9162  0.2821  1.4103
   33CHL1  H19C 3591   2.811   3.078   5.814  0.4034 -0.5385  0.9407
   33CHL1    C1 3592   3.104   3.068   5.769 -0.5513 -0.1564  0.0689
   33CHL1   H1A 3593   3.128   2.965   5.735  2.7317  0.7228 -0.6282
   33CHL1   H1B 3594   3.199   3.125   5.755 -1.8401  2.0513 -0.1674
   33CHL1    C2 3595   3.099   3.069   5.921 -0.2628  0.2806  0.5906
   33CHL1   H2A 3596   3.190   3.019   5.960 -0.4804  0.2575  1.0652
   33CHL1   H2B 3597   3.008   3.015   5.955  0.3260 -0.5628  0.8583
   33CHL1   C20 3598   2.892   3.041   4.995  0.1335 -0.5188  0.0657
   33CHL1   H20 3599   2.784   3.067   4.997  0.1013 -0.2420 -2.3082
   33CHL1   C21 3600   2.921   2.889   5.000 -0.9609 -0.1434 -0.3264
   33CHL1  H21A 3601   2.851   2.836   5.068 -0.8151  0.9012  0.6692
   33CHL1  H21B 3602   3.023   2.867   5.039  0.0438  2.7189 -1.1566
   33CHL1  H21C 3603   2.923   2.855   4.894  0.1323 -0.3994 -0.2382
   33CHL1   C22 3604   2.948   3.088   4.857  0.1234 -0.4462  0.3404
   33CHL1  H22A 3605   2.983   3.193   4.854  2.4786 -1.1929 -1.3421
   33CHL1  H22B 3606   3.036   3.025   4.833  0.5846  0.5424 -0.6969
   33CHL1   C23 3607   2.854   3.068   4.739 -0.0355 -0.0155  0.2556
   33CHL1  H23A 3608   2.812   2.965   4.746 -0.5396  0.1922  0.3012
   33CHL1  H23B 3609   2.769   3.135   4.762 -0.0965 -0.9721  3.2386
   33CHL1   C24 3610   2.915   3.108   4.609  0.1859 -0.4755 -0.2814
   33CHL1  H24A 3611   2.947   3.215   4.612 -1.7011  0.1004  0.8420
   33CHL1  H24B 3612   2.992   3.036   4.573  1.1043  1.6013 -2.8152
   33CHL1   C25 3613   2.809   3.090   4.495 -0.1213  0.0327  0.5827
   33CHL1   H25 3614   2.721   3.151   4.526  0.7012  1.8484 -0.4604
   33CHL1   C26 3615   2.856   3.139   4.352  0.6196  0.4753 -0.2801
   33CHL1  H26A 3616   2.873   3.248   4.358  0.7697  0.4732 -0.6563
   33CHL1  H26B 3617   2.949   3.090   4.315  1.0029 -0.7340  2.0625
   33CHL1  H26C 3618   2.769   3.126   4.285 -0.6981  0.0247  1.4417
   33CHL1   C27 3619   2.763   2.948   4.475  0.4828 -0.5385 -0.1652
   33CHL1  H27A 3620   2.708   2.918   4.566 -0.1003  0.8594 -0.0280
   33CHL1  H27B 3621   2.691   2.945   4.391 -0.7017  1.6703  0.6978
   33CHL1  H27C 3622   2.847   2.882   4.444  0.9488 -0.3868  0.7493
   34CHL1    C3 3623   2.572   5.116   6.207 -0.4834  0.1923 -0.1774
   34CHL1    H3 3624   2.483   5.050   6.213  1.6099 -2.7848  0.4400
   34CHL1    O3 3625   2.603   5.156   6.342  0.1140 -0.7121  0.8833
   34CHL1   H3' 3626   2.632   5.075   6.385  0.6230 -0.5722  0.8070
   34CHL1    C4 3627   2.686   5.026   6.159  0.3964 -1.3039  0.4102
   34CHL1   H4A 3628   2.783   5.070   6.188 -1.5915  4.2224 -0.2612
   34CHL1   H4B 3629   2.671   4.929   6.212  0.2463 -2.9059 -2.3956
   34CHL1    C5 3630   2.687   4.994   6.010  0.2132 -0.6628 -0.9838
   34CHL1    C6 3631   2.714   4.867   5.963 -0.0498  0.1339 -0.4824
   34CHL1    H6 3632   2.746   4.793   6.037 -3.2488 -0.0491  0.8817
   34CHL1    C7 3633   2.711   4.823   5.823 -0.6913  0.2444  0.2593
   34CHL1   H7A 3634   2.799   4.756   5.818 -1.3726 -0.7368  1.1133
   34CHL1   H7B 3635   2.621   4.761   5.806 -0.6839  0.6143 -1.1973
   34CHL1    C8 3636   2.702   4.944   5.722  0.6688 -0.0523 -0.0882
   34CHL1    H8 3637   2.803   4.991   5.724 -0.5837  2.8748 -0.5576
   34CHL1   C14 3638   2.669   4.893   5.585  0.4059  1.1871 -0.2795
   34CHL1   H14 3639   2.571   4.842   5.600  1.2308 -0.5224 -0.4632
   34CHL1   C15 3640   2.744   4.764   5.530 -0.4197 -0.3040 -0.0314
   34CHL1  H15A 3641   2.849   4.792   5.555 -0.3906  0.6783 -1.1615
   34CHL1  H15B 3642   2.712   4.665   5.568  0.6911 -0.3197  0.9302
   34CHL1   C16 3643   2.725   4.770   5.379 -0.3662  0.4648 -0.4399
   34CHL1  H16A 3644   2.821   4.788   5.325 -0.3186  1.2179 -0.1219
   34CHL1  H16B 3645   2.699   4.668   5.344  0.7054  0.1693 -0.4111
   34CHL1   C17 3646   2.618   4.885   5.359 -0.0274  0.7385  0.7274
   34CHL1   H17 3647   2.518   4.845   5.386  1.2807 -1.0476  3.4299
   34CHL1   C13 3648   2.645   4.988   5.472 -0.5362 -0.8403 -0.3818
   34CHL1   C18 3649   2.776   5.064   5.443  0.0650 -0.3559  0.3332
   34CHL1  H18A 3650   2.800   5.130   5.529  3.2912 -0.2814 -0.4914
   34CHL1  H18B 3651   2.872   5.011   5.427  0.6362  0.6653  0.3044
   34CHL1  H18C 3652   2.766   5.127   5.353  1.1400 -0.9639 -0.2314
   34CHL1   C12 3653   2.530   5.081   5.525  0.7021 -0.2405  0.1712
   34CHL1  H12A 3654   2.499   5.169   5.466 -0.8152 -0.6363  0.3291
   34CHL1  H12B 3655   2.443   5.018   5.554 -1.5342  1.6408 -2.0407
   34CHL1   C11 3656   2.570   5.149   5.664 -0.1063  0.1954 -0.9609
   34CHL1  H11A 3657   2.649   5.226   5.653 -0.7230  1.3176  1.5925
   34CHL1  H11B 3658   2.485   5.213   5.696  0.6406  2.5461 -3.3893
   34CHL1    C9 3659   2.601   5.051   5.775 -0.2689 -0.0669  0.0952
   34CHL1    H9 3660   2.510   4.989   5.789 -1.1608  1.0117 -0.8097
   34CHL1   C10 3661   2.640   5.110   5.909 -0.3765 -0.3835 -0.8447
   34CHL1   C19 3662   2.766   5.194   5.903 -0.2976  0.3144  0.5652
   34CHL1  H19A 3663   2.848   5.151   5.841 -0.1326 -0.9425  1.6176
   34CHL1  H19B 3664   2.749   5.292   5.854  1.5306  0.2682 -0.2638
   34CHL1  H19C 3665   2.826   5.206   5.996  0.3855  0.0230  0.1693
   34CHL1    C1 3666   2.521   5.189   5.970 -0.3965 -0.2061 -0.1700
   34CHL1   H1A 3667   2.508   5.283   5.912  0.3148  0.5166  0.8092
   34CHL1   H1B 3668   2.433   5.122   5.962 -1.4304  1.0819  0.0894
   34CHL1    C2 3669   2.545   5.228   6.112  0.7832  0.1898  0.1650
   34CHL1   H2A 3670   2.454   5.283   6.144 -1.2481 -3.0282  0.4624
   34CHL1   H2B 3671   2.627   5.302   6.100  0.1718  0.6382 -1.6556
   34CHL1   C20 3672   2.627   4.929   5.216 -0.0919 -0.2195 -0.4727
   34CHL1   H20 3673   2.730   4.965   5.193  0.4756 -0.8524  0.9566
   34CHL1   C21 3674   2.529   5.045   5.184  0.2600 -0.4674 -0.7682
   34CHL1  H21A 3675   2.532   5.086   5.081  3.9410  0.1147 -0.5508
   34CHL1  H21B 3676   2.548   5.128   5.256 -0.7553 -1.6609  0.9586
   34CHL1  H21C 3677   2.427   5.008   5.210  1.0458 -0.7540  2.2424
   34CHL1   C22 3678   2.596   4.808   5.127  0.6202  0.5428  0.1515
   34CHL1  H22A 3679   2.660   4.720   5.145 -0.6719 -0.5975 -0.6639
   34CHL1  H22B 3680   2.494   4.772   5.153  0.6338 -0.4693 -1.0983
   34CHL1   C23 3681   2.599   4.853   4.980 -0.0624  0.3113  0.5736
   34CHL1  H23A 3682   2.511   4.916   4.953  0.1735 -0.4052 -2.1246
   34CHL1  H23B 3683   2.694   4.909   4.967  0.5289 -0.7262  0.3492
   34CHL1   C24 3684   2.595   4.731   4.882 -0.2834 -0.1412 -0.1896
   34CHL1  H24A 3685   2.669   4.662   4.928  2.1238  1.0116 -2.0853
   34CHL1  H24B 3686   2.496   4.682   4.881 -0.5977  0.3555  1.6922
   34CHL1   C25 3687   2.640   4.760   4.740  0.0994  0.4289 -0.4412
   34CHL1   H25 3688   2.738   4.812   4.741  0.7974 -0.7049 -2.6623
   34CHL1   C26 3689   2.659   4.624   4.661 -0.8652  0.2325  0.5496
   34CHL1  H26A 3690   2.683   4.646   4.555 -1.3817  1.4838  0.6819
   34CHL1  H26B 3691   2.735   4.556   4.707  0.8868  1.1925 -0.7989
   34CHL1  H26C 3692   2.558   4.581   4.645 -0.6405  0.1535 -0.7450
   34CHL1   C27 3693   2.537   4.856   4.664  1.1506  0.1316  0.5456
   34CHL1  H27A 3694   2.447   4.790   4.656  2.4608 -1.6538 -0.1120
   34CHL1  H27B 3695   2.524   4.954   4.715  3.8661  0.7998  0.0794
   34CHL1  H27C 3696   2.567   4.873   4.558  1.5385  3.5982  1.0976
   35CHL1    C3 3697   5.549   5.322   5.839 -1.0118 -0.6677 -0.1135
   35CHL1    H3 3698   5.545   5.424   5.883  0.0528 -0.2717 -0.8771
   35CHL1    O3 3699   5.583   5.229   5.936  0.2034  0.2790 -0.9922
   35CHL1   H3' 3700   5.623   5.153   5.892 -0.9346 -0.2270 -1.2014
   35CHL1    C4 3701   5.417   5.282   5.777 -0.2513  0.0215  0.2841
   35CHL1   H4A 3702   5.435   5.178   5.741 -0.7643 -0.8814  2.4529
   35CHL1   H4B 3703   5.337   5.276   5.854 -0.0481 -2.1952  0.3806
   35CHL1    C5 3704   5.380   5.373   5.653  0.2253  0.2300 -0.2619
   35CHL1    C6 3705   5.260   5.442   5.652 -0.0390  0.0665  0.8452
   35CHL1    H6 3706   5.194   5.442   5.739 -0.1127 -1.6619  0.8118
   35CHL1    C7 3707   5.223   5.525   5.530 -0.1731  0.4534 -0.2069
   35CHL1   H7A 3708   5.126   5.493   5.485 -0.2377  0.6779 -0.2322
   35CHL1   H7B 3709   5.213   5.632   5.560  2.6010  0.4569  0.9387
   35CHL1    C8 3710   5.324   5.515   5.414 -0.1075  1.0692 -0.3233
   35CHL1    H8 3711   5.303   5.416   5.369 -0.4055  1.2413 -0.5701
   35CHL1   C14 3712   5.299   5.615   5.308  0.0027 -1.0554 -0.1218
   35CHL1   H14 3713   5.289   5.711   5.364 -1.0499 -0.6171 -1.0200
   35CHL1   C15 3714   5.167   5.600   5.233  0.4365 -0.3038 -0.3195
   35CHL1  H15A 3715   5.157   5.489   5.226 -0.7683 -0.5034  2.8371
   35CHL1  H15B 3716   5.080   5.640   5.290  0.6929  0.1864 -0.2741
   35CHL1   C16 3717   5.184   5.688   5.107 -0.1834  0.1135  0.4073
   35CHL1  H16A 3718   5.162   5.620   5.022  0.4785  0.5013 -0.0930
   35CHL1  H16B 3719   5.110   5.772   5.108 -0.6620 -0.2817 -0.4439
   35CHL1   C17 3720   5.334   5.741   5.113  0.1279 -0.0777  0.2126
   35CHL1   H17 3721   5.337   5.836   5.171 -1.9503  2.1347 -2.9484
   35CHL1   C13 3722   5.408   5.636   5.197 -0.5155 -0.1114  0.0748
   35CHL1   C18 3723   5.427   5.515   5.110 -0.4229  0.4215  0.4032
   35CHL1  H18A 3724   5.509   5.525   5.037 -2.7518  0.0923 -2.4382
   35CHL1  H18B 3725   5.456   5.431   5.177 -1.1731 -2.2267 -2.3727
   35CHL1  H18C 3726   5.342   5.478   5.048 -0.6943  1.6995 -0.0193
   35CHL1   C12 3727   5.542   5.663   5.269 -0.0443  0.4232  0.5766
   35CHL1  H12A 3728   5.626   5.665   5.196  0.2255 -0.7266  0.8437
   35CHL1  H12B 3729   5.552   5.758   5.326 -1.5468  0.1613  1.3363
   35CHL1   C11 3730   5.577   5.549   5.362 -0.3599  0.3795  0.4542
   35CHL1  H11A 3731   5.611   5.459   5.306  0.0963  0.7422  0.1385
   35CHL1  H11B 3732   5.668   5.590   5.412  1.7135 -1.2134 -1.7822
   35CHL1    C9 3733   5.468   5.520   5.467  0.1714 -0.8457  0.0865
   35CHL1    H9 3734   5.470   5.608   5.534  3.7830  0.1459 -1.0656
   35CHL1   C10 3735   5.499   5.393   5.555  0.4661  0.0420 -0.6992
   35CHL1   C19 3736   5.511   5.259   5.464 -0.2391 -0.2316 -0.4612
   35CHL1  H19A 3737   5.564   5.181   5.522  0.3098  1.4934  1.4491
   35CHL1  H19B 3738   5.412   5.227   5.424 -1.1016  1.8056 -0.0834
   35CHL1  H19C 3739   5.587   5.269   5.384  1.1278 -0.2309  0.7890
   35CHL1    C1 3740   5.633   5.421   5.629 -0.4520  0.1359  0.3273
   35CHL1   H1A 3741   5.715   5.453   5.562 -0.6597 -2.0792 -1.0854
   35CHL1   H1B 3742   5.612   5.514   5.686  2.0685  0.4929  0.7703
   35CHL1    C2 3743   5.666   5.325   5.743  0.3457 -0.2150 -0.2654
   35CHL1   H2A 3744   5.753   5.370   5.796  1.4921 -2.1473 -0.4154
   35CHL1   H2B 3745   5.689   5.222   5.711  0.5211 -0.6457  1.1429
   35CHL1   C20 3746   5.384   5.776   4.970  0.4955 -0.7349  0.1235
   35CHL1   H20 3747   5.391   5.679   4.917  2.0393 -1.1686  1.0682
   35CHL1   C21 3748   5.521   5.841   4.978  0.6045 -0.8365 -0.1490
   35CHL1  H21A 3749   5.521   5.922   5.054  1.1636  1.6379 -2.6331
   35CHL1  H21B 3750   5.556   5.882   4.881  2.3926 -1.2831  0.2714
   35CHL1  H21C 3751   5.597   5.777   5.029 -0.0271 -1.5182 -0.0372
   35CHL1   C22 3752   5.279   5.859   4.892  0.4218 -0.8166 -0.4817
   35CHL1  H22A 3753   5.191   5.792   4.878 -0.7805  0.7057 -0.4481
   35CHL1  H22B 3754   5.248   5.944   4.956  0.3334 -1.5725  0.5083
   35CHL1   C23 3755   5.319   5.890   4.747 -0.0130 -1.0586 -0.2260
   35CHL1  H23A 3756   5.357   5.994   4.740 -2.3223 -0.1111  0.4397
   35CHL1  H23B 3757   5.399   5.816   4.725 -0.6612 -1.1944 -2.3617
   35CHL1   C24 3758   5.209   5.881   4.637  0.0539 -0.3538  0.3152
   35CHL1  H24A 3759   5.185   5.774   4.624 -0.6643 -0.3441  1.4713
   35CHL1  H24B 3760   5.118   5.933   4.674 -0.9956 -1.6080 -0.4199
   35CHL1   C25 3761   5.251   5.944   4.505  0.1051 -0.2535  0.6056
   35CHL1   H25 3762   5.283   6.050   4.517  0.1088  0.1422 -2.2416
   35CHL1   C26 3763   5.367   5.868   4.431  0.2279  0.5174 -0.8152
   35CHL1  H26A 3764   5.365   5.895   4.324  0.4442  1.1919 -0.6536
   35CHL1  H26B 3765   5.467   5.884   4.477  0.1832  0.8507 -0.8283
   35CHL1  H26C 3766   5.339   5.761   4.436 -0.1072  0.6435  0.3738
   35CHL1   C27 3767   5.125   5.940   4.417  0.2635  0.3979  1.0031
   35CHL1  H27A 3768   5.039   5.985   4.471 -2.1602 -0.4106 -1.9054
   35CHL1  H27B 3769   5.144   5.994   4.322  0.2437 -0.1336  0.6982
   35CHL1  H27C 3770   5.104   5.835   4.387 -0.7483  0.6854  0.6637
   36CHL1    C3 3771   2.790   3.661   5.954 -0.4973  0.6539  0.1774
   36CHL1    H3 3772   2.886   3.620   5.914 -0.1838  1.6915 -0.1776
   36CHL1    O3 3773   2.811   3.683   6.090  0.6972  0.2100 -0.1567
   36CHL1   H3' 3774   2.725   3.714   6.121  1.5191  1.4360  0.9840
   36CHL1    C4 3775   2.750   3.793   5.880 -0.0725 -0.0139 -0.3521
   36CHL1   H4A 3776   2.661   3.831   5.936  0.8349  2.3740 -0.4381
   36CHL1   H4B 3777   2.835   3.862   5.898  1.1610 -1.5196 -0.2403
   36CHL1    C5 3778   2.723   3.776   5.730  0.2345  0.1612 -0.8465
   36CHL1    C6 3779   2.791   3.843   5.640 -0.0077 -0.4287  0.8566
   36CHL1    H6 3780   2.876   3.907   5.668  0.2190 -0.7069  0.8122
   36CHL1    C7 3781   2.769   3.822   5.488  0.4954 -0.0178 -0.3997
   36CHL1   H7A 3782   2.750   3.922   5.445  1.0967  0.9877  1.5354
   36CHL1   H7B 3783   2.863   3.779   5.446  0.9216 -1.4583  1.8104
   36CHL1    C8 3784   2.650   3.727   5.444 -0.1842 -0.1991 -0.7491
   36CHL1    H8 3785   2.556   3.787   5.437  0.7388  1.0847 -3.0252
   36CHL1   C14 3786   2.674   3.667   5.304  0.1077 -0.1115 -0.7072
   36CHL1   H14 3787   2.759   3.596   5.313 -0.4144 -0.5176  1.9399
   36CHL1   C15 3788   2.716   3.763   5.193  0.4807 -0.2894 -0.6893
   36CHL1  H15A 3789   2.652   3.852   5.208  2.9609  1.3113  1.2074
   36CHL1  H15B 3790   2.819   3.800   5.212 -1.0288  3.1715  1.7457
   36CHL1   C16 3791   2.681   3.693   5.065 -0.0303 -0.7178  1.0260
   36CHL1  H16A 3792   2.637   3.767   4.995  0.7411 -0.9790  0.2428
   36CHL1  H16B 3793   2.775   3.656   5.018  0.5606 -0.7049  2.1655
   36CHL1   C17 3794   2.611   3.563   5.106  0.2219  0.6002 -0.2332
   36CHL1   H17 3795   2.689   3.484   5.108 -0.2421  0.1461  1.0754
   36CHL1   C13 3796   2.560   3.582   5.255  0.3762 -0.6363 -0.2506
   36CHL1   C18 3797   2.427   3.666   5.257  0.5428  0.0799  0.6549
   36CHL1  H18A 3798   2.395   3.696   5.359  2.4847 -0.2363  1.3926
   36CHL1  H18B 3799   2.436   3.758   5.195 -1.7324  1.2874  1.9894
   36CHL1  H18C 3800   2.347   3.605   5.208 -0.9730  1.4445  1.3389
   36CHL1   C12 3801   2.541   3.464   5.354 -0.3093  0.2705  0.4484
   36CHL1  H12A 3802   2.467   3.393   5.311  0.4498  0.7823 -1.8414
   36CHL1  H12B 3803   2.634   3.404   5.342 -0.6271  0.0242 -0.9155
   36CHL1   C11 3804   2.534   3.507   5.502  0.6339  0.3338 -0.4026
   36CHL1  H11A 3805   2.429   3.541   5.516  1.2195  1.6871  0.9854
   36CHL1  H11B 3806   2.536   3.411   5.558 -0.4100  1.4884  1.7086
   36CHL1    C9 3807   2.643   3.609   5.539 -0.1597 -0.4239 -0.0402
   36CHL1    H9 3808   2.739   3.553   5.533  0.5968  0.6969  1.0034
   36CHL1   C10 3809   2.630   3.658   5.688  0.3341  0.1563  0.1454
   36CHL1   C19 3810   2.480   3.689   5.717 -0.4518 -0.6106  0.3377
   36CHL1  H19A 3811   2.416   3.599   5.725 -2.6950  0.9557  1.1650
   36CHL1  H19B 3812   2.477   3.758   5.804  0.6809  4.6617 -3.2615
   36CHL1  H19C 3813   2.436   3.751   5.635  0.9557 -1.3691 -1.0546
   36CHL1    C1 3814   2.663   3.531   5.770  0.0349  0.3606  0.2806
   36CHL1   H1A 3815   2.576   3.463   5.761  1.2119 -1.2153  0.3726
   36CHL1   H1B 3816   2.759   3.496   5.727  0.2975  1.5625 -0.1569
   36CHL1    C2 3817   2.677   3.560   5.924  0.4512 -0.0109  0.0699
   36CHL1   H2A 3818   2.704   3.458   5.960  0.0029 -1.7912 -4.0650
   36CHL1   H2B 3819   2.577   3.598   5.954 -0.8662 -2.2974 -1.1906
   36CHL1   C20 3820   2.506   3.511   5.009 -0.5626  0.6765  0.0598
   36CHL1   H20 3821   2.423   3.583   4.994 -0.3693  0.7357 -0.7792
   36CHL1   C21 3822   2.434   3.381   5.058 -0.4049 -0.0497 -0.0156
   36CHL1  H21A 3823   2.357   3.394   5.138 -2.3434 -0.8594 -1.6679
   36CHL1  H21B 3824   2.506   3.303   5.089 -0.9483  0.1541  1.9302
   36CHL1  H21C 3825   2.377   3.352   4.967  1.4616 -1.1746 -0.8642
   36CHL1   C22 3826   2.570   3.489   4.867  0.3337 -0.2805  0.5661
   36CHL1  H22A 3827   2.644   3.570   4.850  0.5870 -0.5218  0.5217
   36CHL1  H22B 3828   2.622   3.392   4.858  0.0526 -0.2235 -3.1491
   36CHL1   C23 3829   2.451   3.491   4.764  0.1168  0.7620  0.0076
   36CHL1  H23A 3830   2.409   3.388   4.767  0.9591  0.1937 -3.3841
   36CHL1  H23B 3831   2.369   3.563   4.784  0.3158  1.1236 -0.4621
   36CHL1   C24 3832   2.473   3.498   4.609 -0.1457 -0.3678 -0.4033
   36CHL1  H24A 3833   2.533   3.406   4.593 -0.7887 -1.0034  0.7191
   36CHL1  H24B 3834   2.372   3.503   4.564 -0.3841 -1.7087 -0.0615
   36CHL1   C25 3835   2.547   3.618   4.552  0.1118  0.3890  0.1637
   36CHL1   H25 3836   2.652   3.609   4.588  0.4090  1.1573 -0.4868
   36CHL1   C26 3837   2.551   3.603   4.402 -0.3875  0.9224 -0.0927
   36CHL1  H26A 3838   2.594   3.508   4.364  1.6195  0.6412  2.5809
   36CHL1  H26B 3839   2.446   3.625   4.374 -0.8544  0.7041  1.4423
   36CHL1  H26C 3840   2.601   3.697   4.368  1.8053  0.1908  0.9145
   36CHL1   C27 3841   2.490   3.749   4.594  0.4066 -0.7119  0.3761
   36CHL1  H27A 3842   2.385   3.764   4.561  0.4921 -1.1609 -0.1033
   36CHL1  H27B 3843   2.485   3.756   4.705 -2.4736  0.8287  0.2512
   36CHL1  H27C 3844   2.544   3.839   4.558 -0.0377 -0.0051  1.4157
   37CHL1    C3 3845   3.256   0.435   5.974  0.0067  0.0887  0.8736
   37CHL1    H3 3846   3.273   0.327   5.955 -1.6610  0.0205 -0.5000
   37CHL1    O3 3847   3.291   0.462   6.109  0.2369  0.0005 -0.5427
   37CHL1   H3' 3848   3.235   0.400   6.157  1.4201  1.0439  2.4490
   37CHL1    C4 3849   3.345   0.517   5.875  0.4024  0.5387 -0.0364
   37CHL1   H4A 3850   3.321   0.625   5.883  0.9647  0.6283  0.4786
   37CHL1   H4B 3851   3.451   0.496   5.897 -0.2251 -2.9165  0.2703
   37CHL1    C5 3852   3.318   0.462   5.738  0.3753  0.9002 -0.0635
   37CHL1    C6 3853   3.419   0.408   5.669  0.0856 -0.3025 -0.3467
   37CHL1    H6 3854   3.523   0.408   5.704  0.7131 -0.9175 -2.0844
   37CHL1    C7 3855   3.401   0.358   5.529 -0.6052 -0.2140  0.6703
   37CHL1   H7A 3856   3.481   0.399   5.463 -1.7048 -1.2941 -1.4064
   37CHL1   H7B 3857   3.404   0.247   5.535  0.9055 -0.2378  0.1040
   37CHL1    C8 3858   3.269   0.398   5.454 -0.8759 -0.0083 -0.8008
   37CHL1    H8 3859   3.282   0.502   5.419 -1.2309 -0.2804 -1.7639
   37CHL1   C14 3860   3.236   0.302   5.337  0.4093  0.0563 -0.1036
   37CHL1   H14 3861   3.225   0.207   5.394  0.7188 -0.3242 -0.6667
   37CHL1   C15 3862   3.348   0.278   5.237  0.5410  0.3690 -0.3740
   37CHL1  H15A 3863   3.423   0.360   5.234  0.4651  0.5109  0.9040
   37CHL1  H15B 3864   3.394   0.183   5.271 -0.3488  0.6935  1.9092
   37CHL1   C16 3865   3.275   0.248   5.108 -0.4386  0.2042 -0.0202
   37CHL1  H16A 3866   3.291   0.332   5.036 -2.0919  1.3166  0.8516
   37CHL1  H16B 3867   3.302   0.156   5.051 -3.0037 -0.8194  0.2910
   37CHL1   C17 3868   3.126   0.239   5.141 -0.1474 -0.0808 -0.5589
   37CHL1   H17 3869   3.104   0.137   5.179 -0.2850 -0.4194 -1.5339
   37CHL1   C13 3870   3.117   0.341   5.265  0.7869  0.2456  0.3971
   37CHL1   C18 3871   3.125   0.485   5.208  0.2080  0.1192  0.7087
   37CHL1  H18A 3872   3.030   0.515   5.159  0.7912 -0.4601 -0.8617
   37CHL1  H18B 3873   3.146   0.565   5.282 -2.3859  1.3714  0.2134
   37CHL1  H18C 3874   3.208   0.489   5.134  1.2368  0.0798  1.8286
   37CHL1   C12 3875   3.005   0.315   5.359 -0.2548  0.0191 -0.2812
   37CHL1  H12A 3876   2.917   0.360   5.308  1.0372  1.8263 -0.9848
   37CHL1  H12B 3877   2.998   0.212   5.400 -0.2218  1.2766  3.1558
   37CHL1   C11 3878   3.015   0.401   5.493  0.3630  0.3360 -0.3029
   37CHL1  H11A 3879   2.986   0.507   5.478 -0.0087  0.4766  1.2280
   37CHL1  H11B 3880   2.945   0.349   5.562  2.2523  0.8904  2.1854
   37CHL1    C9 3881   3.157   0.393   5.554 -0.6116 -0.5239 -0.3986
   37CHL1    H9 3882   3.156   0.291   5.598 -2.6699  0.3033  1.6713
   37CHL1   C10 3883   3.178   0.482   5.684 -0.2346 -0.3910 -0.2837
   37CHL1   C19 3884   3.141   0.628   5.657 -0.2366 -0.6762 -0.4867
   37CHL1  H19A 3885   3.046   0.644   5.602 -0.3389 -0.3033 -0.2069
   37CHL1  H19B 3886   3.153   0.690   5.748  1.8495 -1.6624 -0.0306
   37CHL1  H19C 3887   3.224   0.663   5.591 -0.0611 -0.4677 -0.1609
   37CHL1    C1 3888   3.077   0.424   5.797  0.1639  0.1514 -0.3688
   37CHL1   H1A 3889   2.975   0.460   5.770 -0.7249 -1.4199  0.6598
   37CHL1   H1B 3890   3.081   0.313   5.793  0.1938  0.1032  0.6170
   37CHL1    C2 3891   3.108   0.456   5.947 -0.1577 -0.1394  0.3540
   37CHL1   H2A 3892   3.053   0.385   6.013 -0.5142  0.7867  1.0783
   37CHL1   H2B 3893   3.065   0.558   5.956  2.1797  0.9189  0.0746
   37CHL1   C20 3894   3.031   0.272   5.025 -0.6643 -0.4810  0.5448
   37CHL1   H20 3895   3.048   0.381   5.009  1.7565 -0.9698 -0.8356
   37CHL1   C21 3896   2.879   0.248   5.064 -0.3202  1.0082  0.2789
   37CHL1  H21A 3897   2.872   0.154   5.124  2.4712  1.3997  1.3515
   37CHL1  H21B 3898   2.810   0.234   4.978  0.2608  1.1084 -0.2056
   37CHL1  H21C 3899   2.837   0.332   5.124 -1.2854  0.8819 -0.1976
   37CHL1   C22 3900   3.064   0.202   4.895 -0.0549  0.3592  0.9930
   37CHL1  H22A 3901   2.996   0.232   4.812  0.2958 -2.7051 -0.5585
   37CHL1  H22B 3902   3.169   0.230   4.875 -0.4904  0.5541 -1.2165
   37CHL1   C23 3903   3.063   0.046   4.897  0.4506 -0.6122  0.2469
   37CHL1  H23A 3904   3.131   0.024   4.982  0.1995 -0.8269  0.3933
   37CHL1  H23B 3905   2.958   0.021   4.926 -0.4937  0.0428 -2.3503
   37CHL1   C24 3906   3.117  -0.014   4.769 -0.1668 -0.2634  0.1823
   37CHL1  H24A 3907   3.210   0.037   4.736  0.6175 -0.3625  2.0855
   37CHL1  H24B 3908   3.141  -0.121   4.787  2.8809  0.6237  2.0478
   37CHL1   C25 3909   3.019  -0.023   4.653  0.5129  0.4617 -0.4673
   37CHL1   H25 3910   2.970   0.075   4.633 -1.5231 -0.8719 -2.5727
   37CHL1   C26 3911   3.090  -0.052   4.520 -0.3158  0.2025 -0.3526
   37CHL1  H26A 3912   3.016  -0.059   4.437 -1.1560 -3.3264  0.5004
   37CHL1  H26B 3913   3.177   0.012   4.497 -0.8949  2.0042  2.0492
   37CHL1  H26C 3914   3.133  -0.155   4.523  1.2916  0.8686  0.5611
   37CHL1   C27 3915   2.901  -0.122   4.677  0.4733  0.2665 -0.0899
   37CHL1  H27A 3916   2.926  -0.223   4.639 -1.3041 -0.3803  0.3617
   37CHL1  H27B 3917   2.878  -0.143   4.784 -2.0546 -0.3878 -0.6948
   37CHL1  H27C 3918   2.809  -0.075   4.636  0.0912  1.0518  1.5442
   38CHL1    C3 3919   2.166   1.380   6.026  0.4209 -0.8782 -0.4149
   38CHL1    H3 3920   2.125   1.458   5.959  0.4654  0.4916  1.0772
   38CHL1    O3 3921   2.138   1.415   6.161  0.4927 -0.2411 -0.1578
   38CHL1   H3' 3922   2.214   1.382   6.209 -0.7286 -1.8572  0.7768
   38CHL1    C4 3923   2.117   1.246   5.992  0.5121  0.2454  0.2054
   38CHL1   H4A 3924   2.159   1.166   6.057  0.3194 -1.9676 -2.2430
   38CHL1   H4B 3925   2.007   1.240   5.999  0.4742 -1.3024 -1.0530
   38CHL1    C5 3926   2.154   1.199   5.851 -0.7346  0.4128  0.9316
   38CHL1    C6 3927   2.059   1.139   5.777 -0.1636  0.1310 -0.1026
   38CHL1    H6 3928   1.960   1.120   5.821 -0.8404  0.7951 -1.2664
   38CHL1    C7 3929   2.091   1.077   5.639  0.0233 -0.3456 -0.3287
   38CHL1   H7A 3930   2.058   0.972   5.628 -1.1481  0.1668 -2.1544
   38CHL1   H7B 3931   2.038   1.144   5.567 -2.4934 -1.3402  0.4829
   38CHL1    C8 3932   2.245   1.076   5.605  0.0156 -0.0174 -0.0458
   38CHL1    H8 3933   2.293   0.982   5.642 -1.7314 -1.0083 -0.1761
   38CHL1   C14 3934   2.264   1.063   5.451 -0.0577 -0.2707  0.2753
   38CHL1   H14 3935   2.229   1.159   5.406  2.4771 -0.2119 -1.8173
   38CHL1   C15 3936   2.184   0.959   5.373 -0.2502  0.4675  0.4829
   38CHL1  H15A 3937   2.192   0.865   5.432  0.2631  1.3069  1.8050
   38CHL1  H15B 3938   2.074   0.974   5.366 -0.4654 -1.4871 -1.6440
   38CHL1   C16 3939   2.244   0.961   5.234  0.7512  0.7959  0.6469
   38CHL1  H16A 3940   2.261   0.854   5.209 -0.8631  0.4119  1.0966
   38CHL1  H16B 3941   2.180   1.004   5.153 -0.5916 -0.7930  0.8237
   38CHL1   C17 3942   2.365   1.042   5.249 -0.7704 -0.1715  0.1380
   38CHL1   H17 3943   2.349   1.148   5.221  1.5930  0.5291  1.2161
   38CHL1   C13 3944   2.406   1.048   5.398  0.5362 -0.3965  0.0909
   38CHL1   C18 3945   2.473   0.915   5.457 -0.2807 -0.8974  0.0182
   38CHL1  H18A 3946   2.509   0.930   5.561  0.1808  1.5994 -0.4335
   38CHL1  H18B 3947   2.409   0.825   5.452  0.1286 -1.3110  1.6074
   38CHL1  H18C 3948   2.567   0.906   5.399  0.3354  0.3424  0.7594
   38CHL1   C12 3949   2.483   1.167   5.447 -0.3775  0.1200 -0.3812
   38CHL1  H12A 3950   2.590   1.147   5.425 -0.4092 -0.3304 -0.1324
   38CHL1  H12B 3951   2.466   1.260   5.389  1.4340  0.8337  0.1637
   38CHL1   C11 3952   2.464   1.192   5.600  0.3637 -0.3066 -0.2081
   38CHL1  H11A 3953   2.518   1.106   5.644  0.9981 -0.2622 -0.8874
   38CHL1  H11B 3954   2.522   1.283   5.627  1.3154 -1.5362  2.2127
   38CHL1    C9 3955   2.320   1.194   5.652 -0.3664 -0.5860 -0.5216
   38CHL1    H9 3956   2.275   1.280   5.600  0.8585  1.8656  2.2110
   38CHL1   C10 3957   2.300   1.213   5.807  0.1299  0.9891  0.0240
   38CHL1   C19 3958   2.386   1.105   5.885  0.3112 -0.1572 -0.1156
   38CHL1  H19A 3959   2.390   1.120   5.994 -0.0180 -0.9834  0.0218
   38CHL1  H19B 3960   2.366   0.999   5.855 -0.4309  0.0150 -0.2492
   38CHL1  H19C 3961   2.489   1.119   5.847  1.4880 -0.4193  2.7440
   38CHL1    C1 3962   2.347   1.355   5.847  0.9328 -0.1549 -0.1287
   38CHL1   H1A 3963   2.454   1.356   5.821  1.1000  2.3516  0.4129
   38CHL1   H1B 3964   2.297   1.417   5.770  0.9768  0.9195  0.6868
   38CHL1    C2 3965   2.321   1.389   5.996  0.4181  0.1959 -0.7816
   38CHL1   H2A 3966   2.347   1.493   6.025 -1.3347  0.6395 -0.7113
   38CHL1   H2B 3967   2.387   1.325   6.059  0.4318  0.4034 -0.5852
   38CHL1   C20 3968   2.469   0.997   5.148 -0.3510  0.3302 -0.2442
   38CHL1   H20 3969   2.526   0.911   5.189  1.7089  2.4453  1.6008
   38CHL1   C21 3970   2.585   1.097   5.144 -0.1653  0.1402  0.2683
   38CHL1  H21A 3971   2.641   1.120   5.237 -0.4491 -1.3889  0.8487
   38CHL1  H21B 3972   2.541   1.197   5.121 -1.4850 -0.3130  0.7578
   38CHL1  H21C 3973   2.663   1.066   5.070  0.3476  1.2521  0.3218
   38CHL1   C22 3974   2.415   0.966   5.007 -0.4026  0.2101  0.3901
   38CHL1  H22A 3975   2.357   0.873   5.025 -0.3404 -0.3186 -1.8709
   38CHL1  H22B 3976   2.341   1.042   4.974 -0.4681  0.3629  0.8834
   38CHL1   C23 3977   2.516   0.936   4.891 -0.1471 -0.2295  0.7387
   38CHL1  H23A 3978   2.598   1.010   4.894  1.1122 -1.5232 -0.1610
   38CHL1  H23B 3979   2.546   0.832   4.918 -4.5326 -1.5104  1.4986
   38CHL1   C24 3980   2.466   0.926   4.738 -0.0695 -0.0745  0.0919
   38CHL1  H24A 3981   2.374   0.865   4.729 -0.7129  1.0074 -0.7464
   38CHL1  H24B 3982   2.419   1.021   4.705 -1.7834 -1.1844 -0.7862
   38CHL1   C25 3983   2.578   0.884   4.640  0.7223 -0.2604 -0.1240
   38CHL1   H25 3984   2.649   0.811   4.683  2.5545  2.6045  2.0594
   38CHL1   C26 3985   2.517   0.835   4.511  0.2010  0.0562 -0.3361
   38CHL1  H26A 3986   2.591   0.801   4.435  3.1204  1.7187  1.5551
   38CHL1  H26B 3987   2.442   0.759   4.540  0.3664  0.6722  1.9044
   38CHL1  H26C 3988   2.477   0.927   4.463  0.8959  0.1278 -0.7952
   38CHL1   C27 3989   2.684   0.997   4.628 -0.4678 -0.1197  0.4520
   38CHL1  H27A 3990   2.621   1.085   4.604  0.8049  1.0511  1.2348
   38CHL1  H27B 3991   2.735   1.005   4.726  1.7758  0.8157 -0.7247
   38CHL1  H27C 3992   2.753   0.968   4.546 -1.8016  0.7782 -1.0620
   39CHL1    C3 3993   4.278   1.158   5.690 -0.1448 -0.2346 -0.1394
   39CHL1    H3 3994   4.276   1.046   5.694 -2.3442 -0.2207  1.0069
   39CHL1    O3 3995   4.329   1.224   5.807  0.5067  0.1760  0.4115
   39CHL1   H3' 3996   4.392   1.161   5.844  0.5480 -0.3312 -0.4830
   39CHL1    C4 3997   4.364   1.201   5.572  0.0881 -0.1064 -0.1769
   39CHL1   H4A 3998   4.364   1.312   5.576  0.3604 -0.1392  1.9925
   39CHL1   H4B 3999   4.466   1.164   5.598  0.5793  1.2929 -0.0665
   39CHL1    C5 4000   4.319   1.163   5.435 -0.3441  0.2600  0.5467
   39CHL1    C6 4001   4.408   1.093   5.359  0.8705  0.5190 -0.1509
   39CHL1    H6 4002   4.515   1.089   5.386  0.5088 -1.7824  1.2122
   39CHL1    C7 4003   4.363   1.045   5.220 -0.9720 -0.2031  0.3888
   39CHL1   H7A 4004   4.440   1.079   5.149 -0.8743 -1.6424 -0.2275
   39CHL1   H7B 4005   4.371   0.934   5.226  1.0782 -0.0467  1.4769
   39CHL1    C8 4006   4.223   1.093   5.176 -0.1772 -0.1431 -0.0173
   39CHL1    H8 4007   4.239   1.201   5.152  1.5298  0.8657  4.6413
   39CHL1   C14 4008   4.183   1.020   5.057 -0.2683  0.0813 -0.0828
   39CHL1   H14 4009   4.173   0.914   5.088  0.8355 -0.4086 -1.3328
   39CHL1   C15 4010   4.286   1.017   4.938 -0.5031  0.0180 -0.3265
   39CHL1  H15A 4011   4.322   1.123   4.935 -0.2989  0.0069  0.9077
   39CHL1  H15B 4012   4.384   0.966   4.943  2.0147  3.4258 -5.5160
   39CHL1   C16 4013   4.206   0.979   4.816 -0.7710  0.1252 -0.6602
   39CHL1  H16A 4014   4.209   1.060   4.740 -1.6823  1.5443  0.7677
   39CHL1  H16B 4015   4.246   0.883   4.775  1.7939  0.3485  1.1067
   39CHL1   C17 4016   4.065   0.950   4.873  0.0318  0.5746 -0.0129
   39CHL1   H17 4017   4.076   0.846   4.911 -0.5361 -0.7924 -3.2352
   39CHL1   C13 4018   4.048   1.051   4.994  0.4719  0.0736  0.4589
   39CHL1   C18 4019   4.033   1.202   4.946  0.1253  0.2678  0.2664
   39CHL1  H18A 4020   4.033   1.269   5.035 -0.3610  1.3429 -0.5231
   39CHL1  H18B 4021   4.109   1.238   4.873 -1.4694 -2.1100 -2.7923
   39CHL1  H18C 4022   3.936   1.226   4.897  0.2082  1.3019  0.5834
   39CHL1   C12 4023   3.949   1.019   5.106  0.4544 -0.2129 -0.9865
   39CHL1  H12A 4024   3.845   1.042   5.074 -0.5997 -1.3556  1.3549
   39CHL1  H12B 4025   3.953   0.908   5.117 -0.4196 -0.3470 -1.8143
   39CHL1   C11 4026   3.981   1.092   5.240  0.2735  0.3904  0.3488
   39CHL1  H11A 4027   3.945   1.196   5.224  0.4371  0.3220 -0.5285
   39CHL1  H11B 4028   3.925   1.039   5.320  0.1910  0.0009  0.0347
   39CHL1    C9 4029   4.127   1.083   5.292  0.6514  0.5575 -0.3000
   39CHL1    H9 4030   4.118   0.982   5.339 -1.0199 -0.1831 -2.0694
   39CHL1   C10 4031   4.171   1.177   5.406  0.7372 -0.1836 -0.9606
   39CHL1   C19 4032   4.147   1.330   5.376 -0.0807  0.6326 -0.6152
   39CHL1  H19A 4033   4.195   1.362   5.280  1.1840  1.2036  0.1723
   39CHL1  H19B 4034   4.040   1.354   5.358  0.0319  1.7204  0.0730
   39CHL1  H19C 4035   4.177   1.396   5.460 -2.6537 -1.0473  1.7802
   39CHL1    C1 4036   4.082   1.137   5.531  0.0446  0.5140 -0.2616
   39CHL1   H1A 4037   3.979   1.176   5.511  0.5355  1.9155 -0.1663
   39CHL1   H1B 4038   4.075   1.027   5.543 -1.7938  0.6234 -0.0725
   39CHL1    C2 4039   4.137   1.206   5.658  0.0341  0.4073  0.4103
   39CHL1   H2A 4040   4.082   1.177   5.751  1.2673 -0.9608  0.7472
   39CHL1   H2B 4041   4.133   1.315   5.637  1.2817  0.4083  0.1474
   39CHL1   C20 4042   3.951   0.939   4.766 -0.6824  0.4854 -0.0480
   39CHL1   H20 4043   3.924   1.037   4.722  0.2497  0.2115 -1.2948
   39CHL1   C21 4044   3.821   0.882   4.828  0.8990  0.0761  0.1766
   39CHL1  H21A 4045   3.839   0.781   4.871  0.2172 -0.5411 -0.9353
   39CHL1  H21B 4046   3.744   0.865   4.749  1.7355  0.9676 -0.8606
   39CHL1  H21C 4047   3.782   0.956   4.901  0.3238  0.3763 -0.4230
   39CHL1   C22 4048   3.994   0.855   4.643 -0.4907 -0.0838  0.6420
   39CHL1  H22A 4049   4.100   0.873   4.615 -0.3442 -0.6860  0.8022
   39CHL1  H22B 4050   3.991   0.746   4.665  1.4806 -0.0630  1.2395
   39CHL1   C23 4051   3.913   0.885   4.513  0.3399  0.5245 -0.1091
   39CHL1  H23A 4052   3.803   0.872   4.518  0.0147  3.0546  0.8960
   39CHL1  H23B 4053   3.933   0.993   4.495 -0.8319  1.3431  2.8609
   39CHL1   C24 4054   3.968   0.826   4.380 -0.7242  0.0387  0.1435
   39CHL1  H24A 4055   4.078   0.843   4.372 -0.8136  0.2189 -0.8201
   39CHL1  H24B 4056   3.946   0.719   4.365 -0.4166  0.1592 -1.3876
   39CHL1   C25 4057   3.911   0.885   4.247  0.3654  0.4403  0.2872
   39CHL1   H25 4058   3.802   0.864   4.256  0.9027 -2.0462  1.9129
   39CHL1   C26 4059   3.945   1.031   4.201  0.3471  0.1496  0.5165
   39CHL1  H26A 4060   3.935   1.048   4.092  0.8451  0.9572  0.5911
   39CHL1  H26B 4061   3.875   1.093   4.261 -1.4141 -0.6214 -0.6525
   39CHL1  H26C 4062   4.048   1.065   4.225  0.8745 -0.5104 -0.7229
   39CHL1   C27 4063   3.966   0.792   4.135  0.3243  0.1726 -0.4521
   39CHL1  H27A 4064   3.938   0.804   4.028  0.3576 -2.0863 -0.7703
   39CHL1  H27B 4065   4.077   0.797   4.135  0.2988  0.7522 -0.6489
   39CHL1  H27C 4066   3.947   0.686   4.161  0.6998 -0.1738 -1.5460
   40CHL1    C3 4067   3.240   6.759   6.092  1.2335 -0.6501  0.2733
   40CHL1    H3 4068   3.174   6.670   6.080  0.3350 -0.0040  0.3065
   40CHL1    O3 4069   3.228   6.810   6.225 -0.0336  0.2686  0.2037
   40CHL1   H3' 4070   3.317   6.804   6.261 -0.1376 -0.5522  0.3548
   40CHL1    C4 4071   3.381   6.717   6.054 -0.0941 -0.1849 -0.1759
   40CHL1   H4A 4072   3.452   6.799   6.076  0.2342 -0.6195  0.4160
   40CHL1   H4B 4073   3.415   6.643   6.129 -0.4058 -1.9631 -1.7240
   40CHL1    C5 4074   3.385   6.669   5.911 -0.0111 -0.6706  0.1480
   40CHL1    C6 4075   3.432   6.550   5.884 -0.2407  0.3147 -0.7950
   40CHL1    H6 4076   3.448   6.488   5.974 -2.6295  2.6032  1.3682
   40CHL1    C7 4077   3.462   6.496   5.745 -0.3335 -0.6192  0.1186
   40CHL1   H7A 4078   3.562   6.450   5.752  1.0732  2.3706  1.6459
   40CHL1   H7B 4079   3.386   6.418   5.725  0.6432 -1.1076 -1.9242
   40CHL1    C8 4080   3.453   6.606   5.637  0.4286 -0.1704 -0.0760
   40CHL1    H8 4081   3.552   6.655   5.628 -0.5816  2.0665  0.1274
   40CHL1   C14 4082   3.414   6.535   5.501  0.1678  0.1129 -1.0799
   40CHL1   H14 4083   3.314   6.488   5.514 -0.9161  2.5961  0.1415
   40CHL1   C15 4084   3.499   6.414   5.455 -0.2009 -0.1402  1.0668
   40CHL1  H15A 4085   3.606   6.442   5.470  0.2086 -2.1074  2.0685
   40CHL1  H15B 4086   3.484   6.319   5.511  1.2734  0.0768  1.9034
   40CHL1   C16 4087   3.470   6.406   5.306  0.7050 -0.1313  1.1026
   40CHL1  H16A 4088   3.562   6.418   5.246  0.0274  2.3388  0.4457
   40CHL1  H16B 4089   3.423   6.314   5.263  0.7386  0.5547 -0.4692
   40CHL1   C17 4090   3.374   6.526   5.268  0.3106 -0.0772 -0.4960
   40CHL1   H17 4091   3.268   6.496   5.276  0.2066 -0.2366 -2.1126
   40CHL1   C13 4092   3.406   6.626   5.380  0.8747  0.0410 -0.2814
   40CHL1   C18 4093   3.542   6.701   5.361  0.2170  0.2210 -0.5639
   40CHL1  H18A 4094   3.580   6.744   5.456  1.7725  1.6119 -1.7622
   40CHL1  H18B 4095   3.622   6.639   5.317 -0.6814 -0.6570 -1.0085
   40CHL1  H18C 4096   3.519   6.782   5.288 -3.7114 -0.5045 -0.3935
   40CHL1   C12 4097   3.287   6.725   5.414  0.4211 -0.0624 -0.0637
   40CHL1  H12A 4098   3.276   6.796   5.330  0.8744 -2.2232 -2.0523
   40CHL1  H12B 4099   3.198   6.660   5.431  1.2389 -1.7440 -1.8714
   40CHL1   C11 4100   3.316   6.806   5.539  0.4301 -0.7349 -0.0066
   40CHL1  H11A 4101   3.405   6.871   5.524  0.9386 -0.9814  1.7571
   40CHL1  H11B 4102   3.229   6.873   5.553  0.2862 -0.6044 -1.3648
   40CHL1    C9 4103   3.338   6.709   5.662  0.1929 -0.4285  0.0016
   40CHL1    H9 4104   3.245   6.649   5.651 -1.0885  1.7445 -2.1284
   40CHL1   C10 4105   3.344   6.769   5.803  0.4920 -0.4326 -0.1090
   40CHL1   C19 4106   3.449   6.883   5.806  0.5670 -0.3316  0.0196
   40CHL1  H19A 4107   3.423   6.954   5.724  0.1791 -1.8829 -1.2457
   40CHL1  H19B 4108   3.468   6.935   5.902 -1.8111  0.5566  0.0773
   40CHL1  H19C 4109   3.546   6.835   5.778 -0.9365 -3.3889 -0.3806
   40CHL1    C1 4110   3.204   6.820   5.840  0.0486 -0.0717 -0.3743
   40CHL1   H1A 4111   3.176   6.908   5.778 -0.4433  0.2064  0.2410
   40CHL1   H1B 4112   3.143   6.734   5.806  3.7737 -2.0244 -2.9031
   40CHL1    C2 4113   3.200   6.865   5.989 -0.0910  0.0511  0.1624
   40CHL1   H2A 4114   3.096   6.896   6.010 -0.7163 -1.9386  0.2191
   40CHL1   H2B 4115   3.272   6.949   5.998  0.9751 -0.9551  1.6686
   40CHL1   C20 4116   3.402   6.570   5.126 -0.3433 -0.0840 -0.5210
   40CHL1   H20 4117   3.509   6.600   5.131  0.0157 -1.2841 -0.5774
   40CHL1   C21 4118   3.316   6.690   5.092  0.0818  0.2712  0.1961
   40CHL1  H21A 4119   3.311   6.697   4.981  0.7572  0.2793  0.1648
   40CHL1  H21B 4120   3.355   6.784   5.135  0.4029  0.2307 -0.0052
   40CHL1  H21C 4121   3.210   6.688   5.127  0.1677 -2.0647  0.4603
   40CHL1   C22 4122   3.390   6.463   5.014  0.2963  0.4114 -0.3756
   40CHL1  H22A 4123   3.417   6.510   4.916 -1.9317  1.6631 -0.4664
   40CHL1  H22B 4124   3.451   6.371   5.023  1.1217  0.9138 -0.6891
   40CHL1   C23 4125   3.236   6.420   4.995 -0.3798 -0.4447  0.0699
   40CHL1  H23A 4126   3.178   6.406   5.089 -1.3406  0.8290 -0.3031
   40CHL1  H23B 4127   3.179   6.498   4.940 -0.0602  0.5936  1.1708
   40CHL1   C24 4128   3.225   6.295   4.913  0.2156 -0.2904  0.4712
   40CHL1  H24A 4129   3.289   6.209   4.944  1.2924 -0.3706 -1.8179
   40CHL1  H24B 4130   3.123   6.253   4.924 -0.1218  1.0914  4.3094
   40CHL1   C25 4131   3.250   6.315   4.766  0.9403  0.0784  0.7341
   40CHL1   H25 4132   3.356   6.332   4.738  0.7735  1.5046  0.9376
   40CHL1   C26 4133   3.197   6.186   4.692  0.2395 -0.1755 -0.4537
   40CHL1  H26A 4134   3.219   6.092   4.747  0.0361 -1.0860 -1.8859
   40CHL1  H26B 4135   3.087   6.197   4.679  0.1520  0.3558  0.6364
   40CHL1  H26C 4136   3.238   6.180   4.589 -0.0110 -2.0566 -0.4789
   40CHL1   C27 4137   3.173   6.433   4.697 -0.0501 -0.1628  0.2970
   40CHL1  H27A 4138   3.170   6.406   4.589 -1.3101 -3.4957  1.0250
   40CHL1  H27B 4139   3.071   6.423   4.739 -1.0955  0.3252 -1.9488
   40CHL1  H27C 4140   3.216   6.529   4.731  1.8264 -0.5099 -0.9226
   41CHL1    C3 4141   0.988   5.474   6.076 -0.1062  0.3784 -0.4968
   41CHL1    H3 4142   0.935   5.571   6.080  0.2093  0.5314  2.6311
   41CHL1    O3 4143   1.014   5.441   6.213  0.3343  0.3475  0.0057
   41CHL1   H3' 4144   1.064   5.515   6.249  2.1468  0.5582 -2.6723
   41CHL1    C4 4145   0.899   5.373   6.015  0.6618 -0.7335  0.9316
   41CHL1   H4A 4146   0.947   5.276   6.039  1.6155 -0.4422  0.2285
   41CHL1   H4B 4147   0.804   5.379   6.073  1.3749  0.6253  2.0308
   41CHL1    C5 4148   0.886   5.398   5.868  0.5875  0.1717 -0.2124
   41CHL1    C6 4149   0.765   5.421   5.806 -0.2536 -0.3618  0.0877
   41CHL1    H6 4150   0.681   5.412   5.876  0.1977  1.1514  0.8841
   41CHL1    C7 4151   0.743   5.445   5.659 -0.1075 -0.0081  0.6212
   41CHL1   H7A 4152   0.671   5.365   5.631  2.9013 -2.3844 -0.9924
   41CHL1   H7B 4153   0.701   5.546   5.643 -0.9716 -0.2650  1.2123
   41CHL1    C8 4154   0.868   5.419   5.577 -0.9399  0.0307  0.4582
   41CHL1    H8 4155   0.884   5.309   5.572  2.9758  0.4879 -0.2467
   41CHL1   C14 4156   0.860   5.486   5.444 -0.0364 -0.2979  0.2578
   41CHL1   H14 4157   0.863   5.595   5.466  0.7560  0.4512 -3.0780
   41CHL1   C15 4158   0.733   5.462   5.358  0.1625  0.7985 -0.5418
   41CHL1  H15A 4159   0.701   5.356   5.363  0.2824  0.8234  2.4547
   41CHL1  H15B 4160   0.649   5.527   5.392 -1.0627 -0.5331 -0.9528
   41CHL1   C16 4161   0.768   5.505   5.213  0.5824  0.2241 -0.2511
   41CHL1  H16A 4162   0.730   5.429   5.143  2.5716  0.7049 -1.9658
   41CHL1  H16B 4163   0.723   5.600   5.176  2.8653  1.5801  0.1859
   41CHL1   C17 4164   0.923   5.525   5.212 -0.2473 -0.4866  0.0469
   41CHL1   H17 4165   0.947   5.629   5.244  0.1807 -1.2245  2.2899
   41CHL1   C13 4166   0.976   5.454   5.342 -0.6611  0.6064  0.9239
   41CHL1   C18 4167   0.996   5.301   5.314 -0.4878  0.5478  0.0468
   41CHL1  H18A 4168   1.067   5.294   5.228 -0.5417 -0.1626  0.0547
   41CHL1  H18B 4169   1.047   5.257   5.402 -1.0110  0.0899  0.1264
   41CHL1  H18C 4170   0.897   5.257   5.290  0.3334 -1.7507  0.6287
   41CHL1   C12 4171   1.096   5.521   5.416 -0.8965  1.3419 -0.0291
   41CHL1  H12A 4172   1.193   5.517   5.362 -0.0055  1.9143  1.4751
   41CHL1  H12B 4173   1.075   5.628   5.433 -0.8102  1.3422  0.0808
   41CHL1   C11 4174   1.125   5.464   5.560 -0.9368  0.5375 -0.3924
   41CHL1  H11A 4175   1.150   5.357   5.545  0.2125  0.6798  0.3974
   41CHL1  H11B 4176   1.212   5.525   5.596 -0.2755 -1.3067  1.3222
   41CHL1    C9 4177   0.999   5.472   5.648 -0.0586  0.0548  0.7921
   41CHL1    H9 4178   0.977   5.581   5.656  1.6537  0.3921  1.4637
   41CHL1   C10 4179   1.016   5.413   5.789 -0.0883  0.4191 -0.5359
   41CHL1   C19 4180   1.075   5.268   5.789  0.2313 -0.1034  0.0409
   41CHL1  H19A 4181   1.179   5.274   5.750 -1.0961  2.6604 -3.7198
   41CHL1  H19B 4182   1.070   5.219   5.889  0.9031 -0.1717  0.0429
   41CHL1  H19C 4183   1.007   5.208   5.725  0.6829  0.0268 -0.5787
   41CHL1    C1 4184   1.120   5.506   5.862 -0.5272 -0.5278  0.2845
   41CHL1   H1A 4185   1.219   5.503   5.812  1.0336  0.3742  3.1213
   41CHL1   H1B 4186   1.078   5.609   5.850  0.0204 -0.5795 -3.2157
   41CHL1    C2 4187   1.123   5.478   6.009 -0.1145 -0.0524  1.0207
   41CHL1   H2A 4188   1.179   5.563   6.052 -0.6323  0.0472  1.5106
   41CHL1   H2B 4189   1.191   5.391   6.024  3.4233  2.0281 -1.5535
   41CHL1   C20 4190   0.983   5.487   5.075  0.3512 -1.3021  0.3888
   41CHL1   H20 4191   0.955   5.384   5.043 -0.8288 -0.9238  0.1915
   41CHL1   C21 4192   1.132   5.511   5.093  0.0288 -0.2400 -0.2298
   41CHL1  H21A 4193   1.183   5.500   4.994 -2.4519  1.5225 -1.8135
   41CHL1  H21B 4194   1.185   5.439   5.159  1.8598  1.2157 -0.0364
   41CHL1  H21C 4195   1.155   5.615   5.123 -0.6101  0.7667 -2.9613
   41CHL1   C22 4196   0.936   5.572   4.954  0.5683 -0.3543 -0.5533
   41CHL1  H22A 4197   0.870   5.655   4.987  0.8571 -0.9272  1.5943
   41CHL1  H22B 4198   1.025   5.620   4.909 -0.6215  1.5367 -1.0135
   41CHL1   C23 4199   0.874   5.494   4.835  0.2935 -0.1408  0.1166
   41CHL1  H23A 4200   0.957   5.421   4.825 -0.3123 -0.8002 -0.1539
   41CHL1  H23B 4201   0.772   5.455   4.855 -1.2478  3.8472  0.9442
   41CHL1   C24 4202   0.851   5.574   4.706  0.1869  0.4220 -0.5652
   41CHL1  H24A 4203   0.774   5.651   4.729 -0.6430  0.0707 -2.0274
   41CHL1  H24B 4204   0.946   5.626   4.681  1.5880 -1.0089  1.4386
   41CHL1   C25 4205   0.794   5.493   4.587  0.5730 -0.5455 -0.5227
   41CHL1   H25 4206   0.702   5.445   4.624  0.5249  1.7802  2.8024
   41CHL1   C26 4207   0.753   5.598   4.484  0.5647  0.2903  1.1501
   41CHL1  H26A 4208   0.679   5.664   4.532 -0.1516 -0.0005  0.4608
   41CHL1  H26B 4209   0.829   5.671   4.450 -1.5552  2.4969  0.9319
   41CHL1  H26C 4210   0.705   5.545   4.398  0.0649  0.4915  1.3064
   41CHL1   C27 4211   0.896   5.395   4.531 -0.7426  0.0170 -0.1508
   41CHL1  H27A 4212   0.977   5.450   4.479 -0.0098 -0.2916  0.6330
   41CHL1  H27B 4213   0.945   5.334   4.611  0.7479  0.8237 -0.4219
   41CHL1  H27C 4214   0.838   5.336   4.456  0.3457 -2.0403  0.5425
   42CHL1    C3 4215   6.733   5.311   5.923  0.5380  0.6082 -0.0810
   42CHL1    H3 4216   6.810   5.243   5.880  1.4540  1.5919 -0.0463
   42CHL1    O3 4217   6.730   5.298   6.065 -0.4429  0.4134 -0.0311
   42CHL1   H3' 4218   6.670   5.223   6.070 -0.2473  0.0462 -2.3033
   42CHL1    C4 4219   6.768   5.461   5.890  0.0382 -0.2632  0.4702
   42CHL1   H4A 4220   6.712   5.525   5.961  0.1783  0.6079 -0.1822
   42CHL1   H4B 4221   6.875   5.480   5.913  0.0843  1.4218 -0.9181
   42CHL1    C5 4222   6.748   5.496   5.748 -0.3658  0.1504  0.7225
   42CHL1    C6 4223   6.844   5.557   5.674  0.1863  0.4662 -0.0621
   42CHL1    H6 4224   6.934   5.586   5.732 -1.5672  2.3828  1.9093
   42CHL1    C7 4225   6.827   5.597   5.533 -0.3771  0.0619  0.1078
   42CHL1   H7A 4226   6.865   5.700   5.513 -0.3317  0.3304  1.4586
   42CHL1   H7B 4227   6.888   5.531   5.468 -1.9742  1.1074 -2.5903
   42CHL1    C8 4228   6.677   5.602   5.488 -0.0888  0.1347  0.7607
   42CHL1    H8 4229   6.619   5.687   5.529 -0.2886  0.1058  0.5383
   42CHL1   C14 4230   6.672   5.607   5.330 -0.0059 -0.4671 -0.9146
   42CHL1   H14 4231   6.714   5.506   5.311  1.4149  0.0612 -0.7392
   42CHL1   C15 4232   6.759   5.700   5.250 -0.1944  0.7444 -0.4381
   42CHL1  H15A 4233   6.760   5.805   5.285 -0.4175  1.5712 -2.7412
   42CHL1  H15B 4234   6.858   5.652   5.238  0.3494  1.7683 -0.1247
   42CHL1   C16 4235   6.696   5.705   5.114  0.4129 -0.3537  0.3894
   42CHL1  H16A 4236   6.639   5.800   5.109 -0.2325 -0.7564 -0.1075
   42CHL1  H16B 4237   6.768   5.688   5.032  0.6846  0.6388  0.4087
   42CHL1   C17 4238   6.576   5.609   5.121 -0.4675  0.2981 -0.4335
   42CHL1   H17 4239   6.615   5.506   5.105  0.0434  0.6484 -1.5768
   42CHL1   C13 4240   6.536   5.605   5.264  0.8384  0.2355  0.1065
   42CHL1   C18 4241   6.459   5.736   5.306  0.2445 -0.2059 -0.0476
   42CHL1  H18A 4242   6.356   5.723   5.265  0.4710 -2.1351 -0.1201
   42CHL1  H18B 4243   6.459   5.752   5.416  2.7931 -0.2334  0.0102
   42CHL1  H18C 4244   6.507   5.829   5.269  0.3239 -0.1457  0.2052
   42CHL1   C12 4245   6.467   5.479   5.314  0.7604  0.1338 -0.4085
   42CHL1  H12A 4246   6.360   5.472   5.287  1.2364  0.3930 -2.5227
   42CHL1  H12B 4247   6.524   5.387   5.288 -1.2694 -1.5166  0.6808
   42CHL1   C11 4248   6.459   5.481   5.469 -0.6823 -0.1946 -0.0092
   42CHL1  H11A 4249   6.405   5.572   5.506  1.1282  0.3688  1.3983
   42CHL1  H11B 4250   6.400   5.394   5.505 -0.9484 -0.3761 -0.8759
   42CHL1    C9 4251   6.606   5.478   5.538  0.1117 -0.5598  0.1547
   42CHL1    H9 4252   6.665   5.394   5.495  0.1358 -0.7725  0.6057
   42CHL1   C10 4253   6.609   5.454   5.684 -0.7791 -0.5535 -0.4417
   42CHL1   C19 4254   6.511   5.546   5.757  0.6480 -0.4501  0.1691
   42CHL1  H19A 4255   6.416   5.496   5.730 -0.4286  2.0708 -1.0784
   42CHL1  H19B 4256   6.535   5.517   5.862 -0.2577 -3.2748 -0.3430
   42CHL1  H19C 4257   6.508   5.655   5.735 -2.3021 -0.0360  2.0558
   42CHL1    C1 4258   6.576   5.306   5.716  0.5167  0.6727 -0.5829
   42CHL1   H1A 4259   6.471   5.284   5.687 -0.0074 -0.9164  2.1307
   42CHL1   H1B 4260   6.644   5.235   5.664  1.3777 -1.5834  3.2075
   42CHL1    C2 4261   6.601   5.263   5.867 -0.0441 -0.4590 -0.0429
   42CHL1   H2A 4262   6.585   5.156   5.896 -0.0447 -0.3589  0.3286
   42CHL1   H2B 4263   6.522   5.324   5.916  1.1495 -0.6816  2.2684
   42CHL1   C20 4264   6.481   5.626   5.005  0.5402  0.1464 -0.9798
   42CHL1   H20 4265   6.443   5.730   5.014 -0.5038 -0.1664 -1.6093
   42CHL1   C21 4266   6.361   5.532   5.018 -1.3047 -0.6072 -0.2123
   42CHL1  H21A 4267   6.395   5.433   5.055 -0.9372 -0.2312  0.4892
   42CHL1  H21B 4268   6.314   5.529   4.917 -1.9859  2.8097 -0.1428
   42CHL1  H21C 4269   6.281   5.578   5.081 -0.1846  1.4490 -0.1885
   42CHL1   C22 4270   6.547   5.616   4.859  0.0177 -0.8296  0.1361
   42CHL1  H22A 4271   6.646   5.569   4.877  1.3948  2.1363  1.0116
   42CHL1  H22B 4272   6.496   5.551   4.785  0.3381 -1.1605  0.2054
   42CHL1   C23 4273   6.568   5.746   4.796 -0.3858 -0.6154 -0.1110
   42CHL1  H23A 4274   6.472   5.801   4.781 -1.5335 -2.1363  1.3059
   42CHL1  H23B 4275   6.623   5.804   4.873  0.6985 -1.2449 -0.3928
   42CHL1   C24 4276   6.651   5.734   4.673 -0.0273 -0.4079  0.2291
   42CHL1  H24A 4277   6.755   5.711   4.704  0.3140  2.2357  1.3554
   42CHL1  H24B 4278   6.614   5.648   4.613  2.2502 -1.6283  0.4694
   42CHL1   C25 4279   6.664   5.867   4.590 -0.3863 -0.2062  0.4039
   42CHL1   H25 4280   6.697   5.951   4.655 -1.9317  0.5961  0.1949
   42CHL1   C26 4281   6.782   5.843   4.490  0.8441 -0.3819  0.0247
   42CHL1  H26A 4282   6.880   5.861   4.540  0.2585  1.4597  0.5789
   42CHL1  H26B 4283   6.773   5.750   4.430  3.9174 -0.3554 -0.6467
   42CHL1  H26C 4284   6.774   5.934   4.427  1.5784 -0.2143  0.1644
   42CHL1   C27 4285   6.535   5.897   4.517  0.4585 -0.5916 -0.1789
   42CHL1  H27A 4286   6.520   5.807   4.453 -0.0071 -0.1273 -0.7334
   42CHL1  H27B 4287   6.451   5.912   4.588  0.6440  2.1426 -0.4377
   42CHL1  H27C 4288   6.550   5.980   4.444  0.1376  0.4176  0.8726
   43CHL1    C3 4289   0.978   3.883   5.724  0.6154  0.0643  0.4569
   43CHL1    H3 4290   0.879   3.832   5.728  1.1616 -0.9626  1.5790
   43CHL1    O3 4291   1.015   3.890   5.855 -0.3536  0.5788  0.0957
   43CHL1   H3' 4292   1.083   3.958   5.861  0.5712 -0.2687 -0.4970
   43CHL1    C4 4293   1.091   3.820   5.644 -0.0942  0.1206 -0.3948
   43CHL1   H4A 4294   1.189   3.872   5.652 -0.2364  0.3198  0.0836
   43CHL1   H4B 4295   1.100   3.724   5.699 -1.2622 -0.4307 -1.1305
   43CHL1    C5 4296   1.054   3.819   5.494 -0.1893  0.3842  0.2864
   43CHL1    C6 4297   1.054   3.699   5.425  0.3166 -0.1808  0.8168
   43CHL1    H6 4298   1.082   3.603   5.471 -0.8893 -2.1929 -2.3272
   43CHL1    C7 4299   1.016   3.680   5.277  0.6815 -0.5427  1.0299
   43CHL1   H7A 4300   1.092   3.623   5.219  0.2704  0.9340 -1.0636
   43CHL1   H7B 4301   0.919   3.627   5.267  0.5839 -0.2808  0.5914
   43CHL1    C8 4302   1.013   3.825   5.215  0.5397 -0.2442  0.5824
   43CHL1    H8 4303   1.123   3.842   5.218  0.5582 -0.4209  3.3413
   43CHL1   C14 4304   0.954   3.812   5.069 -0.0763  0.4194 -0.2082
   43CHL1   H14 4305   0.846   3.791   5.081 -0.5961  2.7103 -0.3942
   43CHL1   C15 4306   1.029   3.707   4.976  0.5740  0.5513 -0.3723
   43CHL1  H15A 4307   1.139   3.720   4.978  0.4147  1.9333  1.0207
   43CHL1  H15B 4308   0.994   3.605   5.002 -1.2810  0.9389 -1.1310
   43CHL1   C16 4309   0.981   3.754   4.840  0.1100  0.7973  0.1481
   43CHL1  H16A 4310   1.064   3.751   4.766  0.3563 -0.9513  0.4356
   43CHL1  H16B 4311   0.911   3.675   4.804 -0.2868  0.9694  0.5337
   43CHL1   C17 4312   0.917   3.890   4.857  0.1503  0.8171 -1.0963
   43CHL1   H17 4313   0.810   3.871   4.882  0.0553  0.9583 -1.3960
   43CHL1   C13 4314   0.960   3.953   4.993 -0.7769  0.3252  0.2157
   43CHL1   C18 4315   1.105   4.011   4.982 -0.2285  0.2158 -0.0168
   43CHL1  H18A 4316   1.148   4.069   5.067 -0.6833  1.6360 -0.7140
   43CHL1  H18B 4317   1.184   3.937   4.956 -1.1990 -0.1858 -2.0203
   43CHL1  H18C 4318   1.104   4.083   4.898 -0.0220 -0.0579 -0.2567
   43CHL1   C12 4319   0.862   4.037   5.072 -0.3067  0.8221  0.0260
   43CHL1  H12A 4320   0.840   4.132   5.019 -0.5459 -0.8023 -2.9688
   43CHL1  H12B 4321   0.765   3.985   5.082  0.6388 -1.4584 -1.7940
   43CHL1   C11 4322   0.915   4.060   5.213 -0.1647  0.4441  0.4964
   43CHL1  H11A 4323   0.998   4.133   5.205 -2.0564  2.7788  1.1597
   43CHL1  H11B 4324   0.832   4.106   5.270  1.1232  1.1006  1.9179
   43CHL1    C9 4325   0.934   3.924   5.297  0.6472  0.1854  1.0678
   43CHL1    H9 4326   0.835   3.876   5.309  1.0675 -1.3590 -1.0779
   43CHL1   C10 4327   1.006   3.948   5.431  0.7158 -0.3709  1.1849
   43CHL1   C19 4328   1.121   4.046   5.409 -0.2510  0.3748 -0.3298
   43CHL1  H19A 4329   1.187   4.022   5.323  0.1171 -1.2055  0.3660
   43CHL1  H19B 4330   1.087   4.151   5.398  0.2306  0.6816  0.9753
   43CHL1  H19C 4331   1.185   4.046   5.499  0.9259 -0.3791 -1.1386
   43CHL1    C1 4332   0.905   4.014   5.527 -0.0568 -0.6419  0.3674
   43CHL1   H1A 4333   0.887   4.121   5.503  1.9693  0.1471  2.0247
   43CHL1   H1B 4334   0.804   3.967   5.518 -0.8623  1.0458  0.1305
   43CHL1    C2 4335   0.941   4.028   5.672 -0.2618  0.1403 -0.9658
   43CHL1   H2A 4336   0.855   4.084   5.714  1.1445  1.1711  0.6860
   43CHL1   H2B 4337   1.024   4.099   5.690 -1.1771  0.5782  2.3178
   43CHL1   C20 4338   0.930   3.975   4.727 -0.1504  0.2125 -0.8393
   43CHL1   H20 4339   1.036   3.998   4.703 -0.4139  2.2432 -0.3213
   43CHL1   C21 4340   0.867   4.114   4.747 -0.2430 -0.4191 -0.6356
   43CHL1  H21A 4341   0.907   4.166   4.836  1.9258  0.9094 -2.2938
   43CHL1  H21B 4342   0.756   4.101   4.743 -0.0399 -3.3833  0.3647
   43CHL1  H21C 4343   0.886   4.172   4.655 -1.0826 -0.4752 -0.8566
   43CHL1   C22 4344   0.877   3.917   4.596 -0.8697 -0.1021 -0.0941
   43CHL1  H22A 4345   0.856   3.808   4.606 -1.1284  0.1006  2.1186
   43CHL1  H22B 4346   0.779   3.952   4.558 -0.7822  0.1166 -0.1145
   43CHL1   C23 4347   0.967   3.948   4.472 -0.0491  0.1204 -0.3926
   43CHL1  H23A 4348   0.902   3.910   4.391 -1.5459  0.3044  0.6743
   43CHL1  H23B 4349   0.983   4.055   4.449  3.3404 -0.8276 -3.2586
   43CHL1   C24 4350   1.101   3.874   4.460 -0.1775 -0.7273  0.3382
   43CHL1  H24A 4351   1.159   3.906   4.549  0.3742  0.3669 -0.3917
   43CHL1  H24B 4352   1.077   3.765   4.462 -0.1089 -0.7419  1.7808
   43CHL1   C25 4353   1.178   3.890   4.329 -0.7137  0.0535  0.7772
   43CHL1   H25 4354   1.277   3.841   4.340  0.6061  2.6075  1.1446
   43CHL1   C26 4355   1.096   3.828   4.211  0.2453  0.1451  0.1143
   43CHL1  H26A 4356   1.158   3.830   4.119  0.3024 -1.2697  0.1047
   43CHL1  H26B 4357   1.060   3.726   4.236  1.2161  0.2373  2.1219
   43CHL1  H26C 4358   0.998   3.877   4.192 -0.4038 -1.1447  0.0562
   43CHL1   C27 4359   1.222   4.032   4.283  0.6609 -0.3598 -1.3958
   43CHL1  H27A 4360   1.301   4.069   4.352  0.7292 -0.0735 -1.6266
   43CHL1  H27B 4361   1.261   4.037   4.179  0.0108 -0.2795 -1.6437
   43CHL1  H27C 4362   1.146   4.113   4.290  4.0154  3.1097 -1.7720
   44CHL1    C3 4363   2.128   3.808   5.710 -0.5370  0.3749  0.2160
   44CHL1    H3 4364   2.226   3.835   5.665 -1.4929 -0.8082 -2.8180
   44CHL1    O3 4365   2.114   3.845   5.845 -0.1284 -0.1658 -0.9127
   44CHL1   H3' 4366   2.165   3.778   5.891 -3.0530 -1.7785  0.2380
   44CHL1    C4 4367   2.012   3.886   5.638 -0.4900 -0.3591 -0.3476
   44CHL1   H4A 4368   1.910   3.861   5.674 -0.5260  2.0005  1.3660
   44CHL1   H4B 4369   2.032   3.990   5.670 -2.5641 -0.8095  2.8966
   44CHL1    C5 4370   2.019   3.861   5.490  0.8502 -0.4555  0.7834
   44CHL1    C6 4371   2.027   3.951   5.398  0.0736 -0.5270  0.4906
   44CHL1    H6 4372   2.022   4.056   5.429 -1.0597 -0.0051 -1.2920
   44CHL1    C7 4373   2.030   3.931   5.247 -0.3823 -0.1844 -1.0214
   44CHL1   H7A 4374   1.966   4.007   5.197 -0.8705  1.1727  1.5071
   44CHL1   H7B 4375   2.133   3.942   5.208 -0.3876  1.6560 -0.6065
   44CHL1    C8 4376   1.990   3.786   5.211 -0.0861  0.0516  0.5166
   44CHL1    H8 4377   1.881   3.773   5.226  0.0765 -0.9928  0.9004
   44CHL1   C14 4378   2.036   3.746   5.069 -0.5484 -0.7613 -0.0429
   44CHL1   H14 4379   2.147   3.745   5.073 -0.5303  1.1952  1.2661
   44CHL1   C15 4380   2.011   3.846   4.955  0.1227 -0.0870 -0.1875
   44CHL1  H15A 4381   1.901   3.861   4.953 -0.2607 -2.5002 -2.0143
   44CHL1  H15B 4382   2.061   3.945   4.967 -0.0699 -0.2529  2.6438
   44CHL1   C16 4383   2.048   3.763   4.834 -0.6245  0.3582 -0.1038
   44CHL1  H16A 4384   1.965   3.776   4.762  0.1356 -0.6711 -1.2203
   44CHL1  H16B 4385   2.140   3.795   4.779  0.3546  1.2454  1.9317
   44CHL1   C17 4386   2.060   3.613   4.875  0.3022  0.7095  0.8468
   44CHL1   H17 4387   2.167   3.586   4.887  0.3611  0.7437  0.4346
   44CHL1   C13 4388   1.998   3.605   5.015  0.7807 -0.5022  0.2059
   44CHL1   C18 4389   1.847   3.592   5.003  0.5312 -0.7413 -0.3885
   44CHL1  H18A 4390   1.818   3.486   4.994  0.0417 -0.5286 -1.3899
   44CHL1  H18B 4391   1.796   3.635   5.093 -0.5547 -0.7377 -0.9837
   44CHL1  H18C 4392   1.789   3.650   4.928  0.0668  1.3563  1.4430
   44CHL1   C12 4393   2.054   3.510   5.124 -0.2586 -0.3648  0.0184
   44CHL1  H12A 4394   2.023   3.410   5.086 -2.3571  1.0104 -2.1242
   44CHL1  H12B 4395   2.164   3.512   5.105 -0.1107  1.3379  0.8696
   44CHL1   C11 4396   2.013   3.545   5.261  0.1244  0.4670 -0.2816
   44CHL1  H11A 4397   1.903   3.529   5.262  0.3116 -0.9977  1.0934
   44CHL1  H11B 4398   2.065   3.477   5.331 -0.5822 -0.7623 -0.9053
   44CHL1    C9 4399   2.041   3.685   5.313 -0.1842  0.5404 -0.6112
   44CHL1    H9 4400   2.151   3.700   5.307  0.1172 -0.9095  0.5236
   44CHL1   C10 4401   2.008   3.712   5.454  0.5391 -0.8160 -0.1756
   44CHL1   C19 4402   1.858   3.667   5.480 -0.2450  0.2641  0.2743
   44CHL1  H19A 4403   1.845   3.557   5.479  0.1220  0.2038 -1.6696
   44CHL1  H19B 4404   1.820   3.693   5.581 -0.5755 -0.1674  0.2652
   44CHL1  H19C 4405   1.781   3.694   5.404 -0.0621 -1.5879 -0.6242
   44CHL1    C1 4406   2.109   3.635   5.542 -0.1226  0.8648  0.3190
   44CHL1   H1A 4407   2.084   3.528   5.533 -0.5588  0.8949  1.0884
   44CHL1   H1B 4408   2.211   3.655   5.504 -0.2723 -0.5545 -0.9331
   44CHL1    C2 4409   2.109   3.661   5.688 -0.3121  0.1917 -0.3403
   44CHL1   H2A 4410   2.193   3.607   5.737 -0.3534  0.8808  0.5276
   44CHL1   H2B 4411   2.027   3.614   5.746 -1.3759  1.9100 -0.3824
   44CHL1   C20 4412   2.015   3.514   4.761 -0.0106 -0.4110 -0.1133
   44CHL1   H20 4413   1.911   3.545   4.736  0.9048  1.0622 -2.4715
   44CHL1   C21 4414   2.021   3.368   4.807  0.1182 -0.0667 -0.5520
   44CHL1  H21A 4415   2.121   3.337   4.843  0.1559 -0.2693 -0.8241
   44CHL1  H21B 4416   1.986   3.301   4.725 -0.0428 -2.1084  1.1053
   44CHL1  H21C 4417   1.964   3.355   4.902 -0.0088 -0.8658 -0.7339
   44CHL1   C22 4418   2.093   3.527   4.625 -0.4538  0.4823  0.3541
   44CHL1  H22A 4419   2.095   3.636   4.606 -0.5741  0.1871 -1.6539
   44CHL1  H22B 4420   2.196   3.487   4.638 -0.6656  0.2532  1.4350
   44CHL1   C23 4421   2.033   3.468   4.501  0.1082  0.3447 -0.0525
   44CHL1  H23A 4422   2.028   3.359   4.479 -0.4572  0.6456 -1.5301
   44CHL1  H23B 4423   1.929   3.506   4.495 -0.5099 -1.4893 -2.5795
   44CHL1   C24 4424   2.098   3.543   4.384 -0.3558  0.6063 -0.0919
   44CHL1  H24A 4425   2.089   3.654   4.395 -1.8345  0.6271 -1.2769
   44CHL1  H24B 4426   2.204   3.511   4.383 -0.3704  0.4926  0.7104
   44CHL1   C25 4427   2.031   3.502   4.252 -0.0546  0.9242 -0.3577
   44CHL1   H25 4428   1.925   3.529   4.267 -0.2650 -0.4763  0.8344
   44CHL1   C26 4429   2.086   3.581   4.138  0.4705 -0.3802  0.5530
   44CHL1  H26A 4430   2.099   3.688   4.164  0.4274 -0.3319  0.3750
   44CHL1  H26B 4431   2.181   3.543   4.095  0.5734  3.2066 -2.9977
   44CHL1  H26C 4432   2.015   3.573   4.053 -0.5820 -0.1466  1.3868
   44CHL1   C27 4433   2.035   3.352   4.225  0.8026 -0.8662  0.6999
   44CHL1  H27A 4434   2.034   3.331   4.115 -0.2121  0.2955  0.4693
   44CHL1  H27B 4435   2.128   3.302   4.261 -1.0222 -2.5659  3.3341
   44CHL1  H27C 4436   1.941   3.302   4.255  0.2474 -1.7374 -2.1916
   45CHL1    C3 4437   1.486   4.475   5.487  0.3182 -0.2617  0.4560
   45CHL1    H3 4438   1.552   4.551   5.440  0.2423  0.5091  1.5774
   45CHL1    O3 4439   1.518   4.477   5.620 -0.1815  0.5198 -0.8925
   45CHL1   H3' 4440   1.608   4.446   5.630 -0.2247  0.2919 -1.1926
   45CHL1    C4 4441   1.336   4.510   5.446  0.1635  0.5563 -0.3185
   45CHL1   H4A 4442   1.262   4.451   5.503  1.3752  1.1383  1.9649
   45CHL1   H4B 4443   1.328   4.611   5.491  0.7652  0.9615 -1.0973
   45CHL1    C5 4444   1.328   4.514   5.290  0.1768  0.3840  1.0474
   45CHL1    C6 4445   1.289   4.622   5.230  0.2541  0.0525  0.4946
   45CHL1    H6 4446   1.253   4.708   5.288 -0.8019  0.7066 -1.0921
   45CHL1    C7 4447   1.258   4.632   5.083 -0.1241 -0.1285 -0.2377
   45CHL1   H7A 4448   1.162   4.685   5.070  0.5895  1.8496  1.9326
   45CHL1   H7B 4449   1.331   4.700   5.035 -1.2971  0.3208 -1.4165
   45CHL1    C8 4450   1.282   4.498   5.006 -0.3503 -0.0882  0.1564
   45CHL1    H8 4451   1.192   4.432   5.010 -1.1911  1.0568  1.4463
   45CHL1   C14 4452   1.323   4.541   4.866 -0.1095  0.2953  0.2581
   45CHL1   H14 4453   1.427   4.582   4.867  0.3900 -0.9313  1.7937
   45CHL1   C15 4454   1.231   4.633   4.796 -0.1823  0.0525  0.0276
   45CHL1  H15A 4455   1.124   4.605   4.808 -0.6993  1.8117 -0.1016
   45CHL1  H15B 4456   1.234   4.741   4.824  1.5431  0.7812 -2.5911
   45CHL1   C16 4457   1.261   4.604   4.646  0.9824  0.2478  0.3248
   45CHL1  H16A 4458   1.165   4.568   4.603  1.8927 -1.5926 -0.2995
   45CHL1  H16B 4459   1.280   4.692   4.580 -0.4097  1.1708  1.1103
   45CHL1   C17 4460   1.359   4.488   4.635  0.1031  0.1820  0.7352
   45CHL1   H17 4461   1.463   4.527   4.644  1.2909 -2.2825 -1.1743
   45CHL1   C13 4462   1.337   4.412   4.768 -0.5435 -0.4840  0.3940
   45CHL1   C18 4463   1.212   4.320   4.772 -0.3679 -0.2894  0.2215
   45CHL1  H18A 4464   1.211   4.265   4.869  2.7736  1.9781  1.7278
   45CHL1  H18B 4465   1.118   4.380   4.773 -0.2173  0.0001 -1.2473
   45CHL1  H18C 4466   1.199   4.246   4.690 -2.8965 -2.0838  2.0691
   45CHL1   C12 4467   1.455   4.333   4.820 -0.8147  0.4878 -0.2239
   45CHL1  H12A 4468   1.470   4.235   4.770  1.6449  0.2151  0.9369
   45CHL1  H12B 4469   1.544   4.399   4.808  0.3598 -0.9209  0.4594
   45CHL1   C11 4470   1.439   4.298   4.975 -0.6905  0.3012  0.8750
   45CHL1  H11A 4471   1.367   4.214   4.980  1.9475 -2.3630 -1.9321
   45CHL1  H11B 4472   1.538   4.270   5.016 -1.3606 -1.2909  1.4763
   45CHL1    C9 4473   1.397   4.418   5.064  0.1783 -0.8251 -0.2522
   45CHL1    H9 4474   1.483   4.488   5.065 -0.6705  0.2458  0.5739
   45CHL1   C10 4475   1.386   4.395   5.219  0.2598  0.1549 -0.0555
   45CHL1   C19 4476   1.277   4.292   5.237  0.2508  0.8317  0.1411
   45CHL1  H19A 4477   1.298   4.193   5.191 -0.4211  0.3179  0.9250
   45CHL1  H19B 4478   1.238   4.287   5.341 -1.2948  1.8095 -0.3530
   45CHL1  H19C 4479   1.183   4.329   5.190 -0.3531  1.5594  1.8530
   45CHL1    C1 4480   1.523   4.349   5.277  0.8409 -0.1941 -0.4686
   45CHL1   H1A 4481   1.559   4.252   5.237  0.5972 -0.4225 -0.1376
   45CHL1   H1B 4482   1.593   4.431   5.249  0.0984  1.4744  2.1632
   45CHL1    C2 4483   1.530   4.344   5.433 -0.6631 -0.3460  0.7890
   45CHL1   H2A 4484   1.639   4.334   5.455 -0.0938  0.7757 -1.2615
   45CHL1   H2B 4485   1.463   4.260   5.463 -0.4699 -0.1135  1.8788
   45CHL1   C20 4486   1.352   4.412   4.500 -0.0363 -1.2727  0.6140
   45CHL1   H20 4487   1.246   4.384   4.484 -0.4686  0.3852  0.3775
   45CHL1   C21 4488   1.439   4.289   4.505 -0.4815  0.8682  0.3712
   45CHL1  H21A 4489   1.455   4.237   4.408 -1.1464 -0.7133  1.0792
   45CHL1  H21B 4490   1.387   4.213   4.568 -1.2931  1.9205  0.9974
   45CHL1  H21C 4491   1.537   4.313   4.551 -0.9559  1.4875  1.0889
   45CHL1   C22 4492   1.395   4.502   4.379  0.7577 -0.3208  0.2559
   45CHL1  H22A 4493   1.320   4.584   4.377 -0.8139 -1.7051 -1.0250
   45CHL1  H22B 4494   1.498   4.541   4.394  0.8682 -0.0572 -0.9934
   45CHL1   C23 4495   1.378   4.446   4.242  1.0304  0.1286  1.0911
   45CHL1  H23A 4496   1.464   4.494   4.191  0.1709  0.3945 -0.1602
   45CHL1  H23B 4497   1.403   4.338   4.236 -0.8150 -0.2615 -0.8608
   45CHL1   C24 4498   1.247   4.463   4.157 -0.7794 -0.5028 -0.5724
   45CHL1  H24A 4499   1.166   4.410   4.211 -0.9347  1.6612  1.4930
   45CHL1  H24B 4500   1.214   4.569   4.156 -0.4151 -0.3864 -1.1848
   45CHL1   C25 4501   1.259   4.409   4.013 -0.1471 -0.9126 -0.3826
   45CHL1   H25 4502   1.322   4.317   4.021  1.4611  0.2513  1.0189
   45CHL1   C26 4503   1.125   4.371   3.954 -0.3978 -0.0526 -1.2041
   45CHL1  H26A 4504   1.056   4.313   4.020  0.8514 -0.3438 -0.1160
   45CHL1  H26B 4505   1.076   4.470   3.940  0.6421  0.3240 -2.2751
   45CHL1  H26C 4506   1.144   4.327   3.854 -3.1821 -1.6324 -1.1748
   45CHL1   C27 4507   1.342   4.508   3.927 -0.2675  0.1602  0.3256
   45CHL1  H27A 4508   1.297   4.609   3.936 -1.9590 -0.4412 -0.8276
   45CHL1  H27B 4509   1.448   4.506   3.958 -1.0783 -2.6751  3.5088
   45CHL1  H27C 4510   1.336   4.482   3.820 -0.9608  1.8074 -0.0697
   46CHL1    C3 4511   1.075   6.638   6.187 -0.8045 -0.3298  0.1804
   46CHL1    H3 4512   1.181   6.624   6.157 -1.3696 -0.5595 -1.8219
   46CHL1    O3 4513   1.072   6.602   6.324  0.0701 -0.1996  0.0664
   46CHL1   H3' 4514   0.977   6.597   6.340  0.1687 -1.4057  0.4101
   46CHL1    C4 4515   1.030   6.783   6.155 -0.1196  0.2005  0.1636
   46CHL1   H4A 4516   0.927   6.794   6.194 -0.4359  0.9280 -0.8590
   46CHL1   H4B 4517   1.080   6.862   6.215 -0.2844 -0.2443  0.9004
   46CHL1    C5 4518   1.044   6.821   6.007 -0.7512 -0.7869 -0.4396
   46CHL1    C6 4519   1.114   6.933   5.978 -0.0659  0.0546 -0.2856
   46CHL1    H6 4520   1.151   7.000   6.057 -2.1986 -0.2661  1.0768
   46CHL1    C7 4521   1.120   6.980   5.843 -0.3527 -0.5059  0.0030
   46CHL1   H7A 4522   1.077   7.082   5.841 -1.2690 -0.8038  2.2209
   46CHL1   H7B 4523   1.224   6.973   5.802 -0.7894  0.5156 -1.3937
   46CHL1    C8 4524   1.031   6.906   5.742  0.4625  0.6751  0.1661
   46CHL1    H8 4525   0.930   6.949   5.758 -0.2713 -0.7114 -0.5457
   46CHL1   C14 4526   1.092   6.927   5.604 -0.1759 -0.6757 -0.2901
   46CHL1   H14 4527   1.193   6.880   5.609  0.5827  0.9617  0.2826
   46CHL1   C15 4528   1.120   7.069   5.564  0.4542 -0.8255  0.0129
   46CHL1  H15A 4529   1.037   7.139   5.587  0.0047 -1.0416 -0.8956
   46CHL1  H15B 4530   1.214   7.110   5.608  0.2811 -0.6411  0.2145
   46CHL1   C16 4531   1.131   7.069   5.408 -0.1211  0.2745 -0.3707
   46CHL1  H16A 4532   1.053   7.131   5.361 -0.6221 -0.5364 -0.6404
   46CHL1  H16B 4533   1.233   7.087   5.368  0.2904 -0.7686  0.1482
   46CHL1   C17 4534   1.098   6.914   5.371 -0.2653 -0.3845  0.7633
   46CHL1   H17 4535   1.197   6.864   5.376  0.1097  0.4595  2.2508
   46CHL1   C13 4536   1.015   6.864   5.488 -0.1266 -0.6569 -0.3521
   46CHL1   C18 4537   0.876   6.917   5.477 -0.0942 -0.4089 -0.6097
   46CHL1  H18A 4538   0.835   6.903   5.580  1.8140 -1.3677  0.0694
   46CHL1  H18B 4539   0.891   7.022   5.447  3.3271 -0.6102 -0.0152
   46CHL1  H18C 4540   0.819   6.854   5.405  1.3149 -2.2237 -0.2078
   46CHL1   C12 4541   1.008   6.710   5.511 -0.0957  0.0113  0.3229
   46CHL1  H12A 4542   0.937   6.658   5.442 -1.9242  1.8003  0.7822
   46CHL1  H12B 4543   1.112   6.671   5.500 -0.0756 -0.2336  1.3020
   46CHL1   C11 4544   0.959   6.675   5.654  0.2790 -0.0847 -0.3378
   46CHL1  H11A 4545   0.852   6.703   5.665 -0.8547 -3.2381 -1.8268
   46CHL1  H11B 4546   0.961   6.566   5.677  1.1920  0.0165  0.1018
   46CHL1    C9 4547   1.028   6.753   5.771 -0.3473  0.2800 -0.1183
   46CHL1    H9 4548   1.134   6.722   5.762  0.4933  2.9951 -0.7365
   46CHL1   C10 4549   0.974   6.722   5.912 -0.3782 -0.1223 -0.5669
   46CHL1   C19 4550   0.817   6.736   5.924 -0.3890 -0.0711  0.0699
   46CHL1  H19A 4551   0.769   6.736   6.024 -0.0435 -1.5410  0.2482
   46CHL1  H19B 4552   0.784   6.824   5.865 -1.1772 -0.5950 -0.2802
   46CHL1  H19C 4553   0.780   6.648   5.867  1.0493 -1.4704  1.2027
   46CHL1    C1 4554   1.019   6.578   5.951 -0.6337  0.1185 -0.3115
   46CHL1   H1A 4555   0.947   6.520   5.889 -1.8941  2.1928 -0.8641
   46CHL1   H1B 4556   1.127   6.559   5.932 -0.5778  1.1936 -1.1763
   46CHL1    C2 4557   1.002   6.536   6.099  0.1704 -0.2589  0.5358
   46CHL1   H2A 4558   1.047   6.435   6.114 -0.3458 -0.7369 -0.9297
   46CHL1   H2B 4559   0.897   6.526   6.135  0.2899 -0.5742  0.8071
   46CHL1   C20 4560   1.043   6.895   5.231  0.2276 -0.0288  1.0841
   46CHL1   H20 4561   0.945   6.946   5.221  0.2344 -0.3201 -1.0376
   46CHL1   C21 4562   1.024   6.744   5.193  0.9175  0.6835 -0.3428
   46CHL1  H21A 4563   0.945   6.687   5.245  2.1489  0.0082  0.8527
   46CHL1  H21B 4564   1.124   6.701   5.214  1.5941  1.8529 -1.0213
   46CHL1  H21C 4565   1.008   6.742   5.083  0.4135  1.2320 -0.2813
   46CHL1   C22 4566   1.115   6.964   5.110 -0.5433 -0.4696 -0.5766
   46CHL1  H22A 4567   1.157   7.062   5.143 -1.2499 -1.4238  3.7892
   46CHL1  H22B 4568   1.193   6.895   5.073 -1.3636 -2.3317  0.9992
   46CHL1   C23 4569   1.021   6.993   4.997  0.0579  0.4893 -0.4152
   46CHL1  H23A 4570   0.974   6.908   4.942  0.9440  0.6629 -1.4784
   46CHL1  H23B 4571   0.943   7.065   5.029  1.3794  2.2234 -0.9668
   46CHL1   C24 4572   1.095   7.078   4.893  0.0433  0.4837 -0.1490
   46CHL1  H24A 4573   1.122   7.170   4.949 -0.5712  0.1437  0.7349
   46CHL1  H24B 4574   1.184   7.026   4.852 -0.6930 -0.7336 -0.2831
   46CHL1   C25 4575   1.014   7.125   4.778  0.4539 -0.4396  0.1206
   46CHL1   H25 4576   0.933   7.193   4.812  1.0981  1.9500 -2.6671
   46CHL1   C26 4577   1.100   7.227   4.693 -0.5990  0.1300  0.1928
   46CHL1  H26A 4578   1.036   7.276   4.617 -0.2186  2.0961  1.0561
   46CHL1  H26B 4579   1.148   7.308   4.752 -0.3331 -0.0026  0.1585
   46CHL1  H26C 4580   1.192   7.181   4.650  0.4622  2.1059  0.2171
   46CHL1   C27 4581   0.955   7.017   4.680  0.0339  0.4685 -1.1446
   46CHL1  H27A 4582   0.880   6.951   4.729 -0.5462  1.0094 -1.2785
   46CHL1  H27B 4583   0.911   7.061   4.588 -1.4627 -0.7172 -1.0466
   46CHL1  H27C 4584   1.026   6.942   4.640 -0.8496 -0.8752 -0.2751
   47CHL1    C3 4585   3.111   6.349   6.140  0.0842  0.2063  0.0325
   47CHL1    H3 4586   3.201   6.406   6.106  1.7040  0.1107  3.6925
   47CHL1    O3 4587   3.089   6.394   6.277  0.2376  0.0308  0.8241
   47CHL1   H3' 4588   3.034   6.328   6.321  1.8649 -1.6237  0.5290
   47CHL1    C4 4589   2.998   6.394   6.046 -0.1174  0.1073  0.4610
   47CHL1   H4A 4590   2.898   6.358   6.077 -0.6896 -1.7343 -2.9969
   47CHL1   H4B 4591   2.996   6.505   6.051 -1.2321  0.0831  0.8089
   47CHL1    C5 4592   3.018   6.346   5.900 -0.1894  0.0516 -0.5684
   47CHL1    C6 4593   3.014   6.426   5.793  0.6164 -0.4400 -0.0352
   47CHL1    H6 4594   2.999   6.535   5.804 -1.8481 -0.1341 -4.2927
   47CHL1    C7 4595   3.047   6.384   5.651 -1.0632  0.4942 -0.4517
   47CHL1   H7A 4596   2.997   6.442   5.571 -0.3843 -0.4264 -1.5749
   47CHL1   H7B 4597   3.157   6.396   5.641 -0.9244 -0.0164  0.3590
   47CHL1    C8 4598   3.017   6.231   5.632  0.9237  0.3037  0.9042
   47CHL1    H8 4599   2.906   6.220   5.628  1.0712 -1.0240 -1.5212
   47CHL1   C14 4600   3.078   6.190   5.498  0.0115 -0.2992 -0.2224
   47CHL1   H14 4601   3.186   6.210   5.506  0.6278 -2.2573 -2.5102
   47CHL1   C15 4602   3.032   6.267   5.368 -0.7513 -0.9564 -0.0145
   47CHL1  H15A 4603   2.921   6.265   5.372 -0.8356 -0.9110 -1.5078
   47CHL1  H15B 4604   3.075   6.369   5.362 -0.0647 -1.2792 -0.8244
   47CHL1   C16 4605   3.084   6.181   5.249 -0.1408 -1.2433  0.8987
   47CHL1  H16A 4606   3.014   6.167   5.163  0.1878  0.0749  0.3907
   47CHL1  H16B 4607   3.175   6.235   5.215 -1.3851  1.4190  1.4963
   47CHL1   C17 4608   3.121   6.042   5.318 -0.3010 -0.2834 -0.5201
   47CHL1   H17 4609   3.231   6.036   5.325 -0.2183  1.4704  0.3869
   47CHL1   C13 4610   3.066   6.044   5.464 -0.0221 -0.8622  0.3055
   47CHL1   C18 4611   2.919   5.994   5.464  0.3751  0.1668 -0.2146
   47CHL1  H18A 4612   2.859   6.038   5.382  0.3385  0.0230 -0.2652
   47CHL1  H18B 4613   2.920   5.884   5.446 -1.6078 -0.1479  1.1904
   47CHL1  H18C 4614   2.868   6.021   5.559 -1.1926 -0.5357 -0.8123
   47CHL1   C12 4615   3.150   5.968   5.573  0.1173  0.4070  0.2041
   47CHL1  H12A 4616   3.142   5.858   5.555 -1.1909  0.1359  2.1544
   47CHL1  H12B 4617   3.255   5.990   5.545  0.4811 -1.6726 -0.2467
   47CHL1   C11 4618   3.106   6.007   5.718 -0.5407  0.2643  0.1224
   47CHL1  H11A 4619   3.008   5.955   5.729  0.4421 -1.1759  3.1830
   47CHL1  H11B 4620   3.180   5.954   5.781  0.2783 -1.0484 -1.8394
   47CHL1    C9 4621   3.090   6.159   5.743  0.5179  0.4338  0.0481
   47CHL1    H9 4622   3.199   6.180   5.737  0.6466 -0.2412  0.0388
   47CHL1   C10 4623   3.045   6.195   5.884 -0.4924 -0.0225 -0.9888
   47CHL1   C19 4624   2.913   6.121   5.919 -0.2081 -0.2511 -0.0484
   47CHL1  H19A 4625   2.936   6.012   5.925 -0.5954 -0.2845  0.9771
   47CHL1  H19B 4626   2.871   6.149   6.018 -0.2336 -1.0687  0.1831
   47CHL1  H19C 4627   2.834   6.137   5.843  0.1354 -0.7544 -0.5162
   47CHL1    C1 4628   3.153   6.143   5.991  0.4959 -0.6229 -0.2505
   47CHL1   H1A 4629   3.140   6.033   6.000  1.2225 -0.7305 -0.4347
   47CHL1   H1B 4630   3.252   6.158   5.943  0.9124  1.2442  1.0963
   47CHL1    C2 4631   3.148   6.208   6.134 -0.2338  0.6038  0.7603
   47CHL1   H2A 4632   3.243   6.187   6.188  0.7070  0.5463 -0.8493
   47CHL1   H2B 4633   3.070   6.148   6.185 -1.2407  0.3754 -0.9752
   47CHL1   C20 4634   3.073   5.928   5.224 -0.4300  0.2822 -0.6593
   47CHL1   H20 4635   2.962   5.934   5.222 -0.3852  1.4339 -0.1249
   47CHL1   C21 4636   3.120   5.788   5.271  0.0781 -0.0543  0.5247
   47CHL1  H21A 4637   3.061   5.754   5.359 -0.6995  0.8136  0.3537
   47CHL1  H21B 4638   3.227   5.797   5.301  0.6477 -2.9641 -0.3287
   47CHL1  H21C 4639   3.105   5.705   5.199  1.1819 -0.6582  0.9743
   47CHL1   C22 4640   3.117   5.943   5.079  0.6270  0.3994  0.0388
   47CHL1  H22A 4641   3.103   6.045   5.038  3.9354  0.5331 -1.0436
   47CHL1  H22B 4642   3.223   5.912   5.075  0.7008  0.6081  0.3747
   47CHL1   C23 4643   3.032   5.858   4.982 -0.2427 -0.2792 -0.1483
   47CHL1  H23A 4644   3.024   5.751   5.013  0.2428 -0.8835 -1.9464
   47CHL1  H23B 4645   2.927   5.893   4.976 -0.3576 -0.7459 -1.1888
   47CHL1   C24 4646   3.082   5.865   4.835 -0.1647  0.4138  0.6126
   47CHL1  H24A 4647   3.052   5.964   4.795  0.1398  0.1306 -0.3413
   47CHL1  H24B 4648   3.193   5.861   4.827 -0.3224 -0.2791 -3.1558
   47CHL1   C25 4649   2.997   5.768   4.746  0.0770 -0.1219 -0.0401
   47CHL1   H25 4650   2.906   5.742   4.803 -0.1655 -0.3510 -0.5363
   47CHL1   C26 4651   2.954   5.837   4.614  0.4114 -0.7571 -0.0817
   47CHL1  H26A 4652   3.034   5.840   4.538  1.5474 -0.8946  1.0699
   47CHL1  H26B 4653   2.873   5.778   4.567  0.5006 -0.5331 -0.5262
   47CHL1  H26C 4654   2.910   5.938   4.631  1.1612 -0.1911 -1.3088
   47CHL1   C27 4655   3.075   5.637   4.724 -0.0474  0.6167 -0.3151
   47CHL1  H27A 4656   3.172   5.668   4.679  1.1687 -0.5083  1.3898
   47CHL1  H27B 4657   3.103   5.577   4.814  2.5337  1.3346 -0.5558
   47CHL1  H27C 4658   3.014   5.577   4.653 -2.0590  0.3156  1.5804
   48CHL1    C3 4659   0.468   5.863   6.076 -0.1897  0.1105  0.0720
   48CHL1    H3 4660   0.541   5.947   6.072  0.2699 -0.3181 -0.6553
   48CHL1    O3 4661   0.436   5.822   6.203 -0.2147  0.2529  0.1526
   48CHL1   H3' 4662   0.377   5.747   6.198  1.3759 -1.1234  0.7479
   48CHL1    C4 4663   0.349   5.920   6.004  0.2381 -0.2258 -0.2052
   48CHL1   H4A 4664   0.264   5.849   6.010  0.2852 -0.3047 -0.4604
   48CHL1   H4B 4665   0.310   6.012   6.052  0.3192 -0.1762 -0.2325
   48CHL1    C5 4666   0.376   5.956   5.863 -0.2878 -0.2475  0.3606
   48CHL1    C6 4667   0.343   6.077   5.819 -0.0776 -0.0124 -0.8176
   48CHL1    H6 4668   0.300   6.153   5.886  0.3802 -0.2834 -0.2056
   48CHL1    C7 4669   0.360   6.122   5.676  0.1373  0.2076  0.0807
   48CHL1   H7A 4670   0.262   6.167   5.650 -0.5475 -2.5311 -2.6503
   48CHL1   H7B 4671   0.441   6.198   5.673  0.0957  0.3087 -3.4529
   48CHL1    C8 4672   0.386   6.003   5.583 -0.6123 -0.2224 -0.0996
   48CHL1    H8 4673   0.284   5.959   5.581 -0.7998 -0.0532  2.5143
   48CHL1   C14 4674   0.443   6.055   5.450  0.0570 -0.0479  0.2490
   48CHL1   H14 4675   0.545   6.093   5.469  0.0855  0.4233 -0.7419
   48CHL1   C15 4676   0.361   6.157   5.368  0.4841 -0.6292  0.4264
   48CHL1  H15A 4677   0.255   6.123   5.375  0.1205  0.3421 -0.2068
   48CHL1  H15B 4678   0.365   6.255   5.419  0.1969  1.1975 -2.8290
   48CHL1   C16 4679   0.432   6.163   5.232 -0.0769  0.1011 -0.2655
   48CHL1  H16A 4680   0.350   6.149   5.158  2.2712  0.9638 -3.2461
   48CHL1  H16B 4681   0.500   6.249   5.215  0.6787  0.0024  1.9900
   48CHL1   C17 4682   0.516   6.036   5.227  0.3711  0.1089  0.3109
   48CHL1   H17 4683   0.622   6.062   5.245  1.0015 -2.1150  0.1681
   48CHL1   C13 4684   0.471   5.944   5.348  0.3526 -0.1085 -0.4924
   48CHL1   C18 4685   0.337   5.872   5.321 -0.2892  0.0816 -0.3212
   48CHL1  H18A 4686   0.340   5.800   5.237  1.8025  0.9284 -1.0260
   48CHL1  H18B 4687   0.317   5.809   5.411  0.6988  2.3479  1.6008
   48CHL1  H18C 4688   0.251   5.941   5.305 -0.4894 -0.3543 -1.1488
   48CHL1   C12 4689   0.578   5.843   5.402  0.0869  0.1033  0.7262
   48CHL1  H12A 4690   0.589   5.753   5.338 -0.5886 -0.2661  1.1185
   48CHL1  H12B 4691   0.675   5.897   5.412  1.3103 -2.0685  1.2598
   48CHL1   C11 4692   0.545   5.793   5.545 -0.2197  0.2517  0.2515
   48CHL1  H11A 4693   0.465   5.718   5.528  0.3577  0.2025 -2.9179
   48CHL1  H11B 4694   0.640   5.751   5.586  0.4118  0.6204 -0.7872
   48CHL1    C9 4695   0.492   5.906   5.642  0.5090  0.6266  1.0027
   48CHL1    H9 4696   0.574   5.977   5.669  0.6661  0.0819  2.0362
   48CHL1   C10 4697   0.438   5.848   5.771 -0.4144  0.4575  0.0573
   48CHL1   C19 4698   0.332   5.738   5.748  0.4420 -0.2766  0.3209
   48CHL1  H19A 4699   0.247   5.766   5.682  1.2876  1.1887 -0.2069
   48CHL1  H19B 4700   0.386   5.656   5.697 -0.4061 -0.8031  0.2497
   48CHL1  H19C 4701   0.289   5.703   5.845  0.2331  0.7005  0.5995
   48CHL1    C1 4702   0.560   5.788   5.853 -0.3463 -0.0057  0.0447
   48CHL1   H1A 4703   0.596   5.692   5.809  0.4829  0.9030 -1.2900
   48CHL1   H1B 4704   0.641   5.863   5.863  1.4574 -1.8469 -0.0162
   48CHL1    C2 4705   0.534   5.750   5.998  0.3653  0.3848 -0.5427
   48CHL1   H2A 4706   0.636   5.732   6.037 -0.0973 -0.5795  0.2566
   48CHL1   H2B 4707   0.468   5.661   6.007  1.2198 -0.1760  0.4334
   48CHL1   C20 4708   0.510   5.979   5.084  0.6710 -0.8965 -0.0655
   48CHL1   H20 4709   0.403   5.958   5.063  0.6198 -0.1886 -0.5375
   48CHL1   C21 4710   0.590   5.857   5.073 -0.2886  0.2841  0.0048
   48CHL1  H21A 4711   0.547   5.766   5.120  1.7627 -0.5525  0.3546
   48CHL1  H21B 4712   0.590   5.826   4.966  1.0550  0.3617 -0.0388
   48CHL1  H21C 4713   0.695   5.871   5.106 -0.3908 -0.6745  0.7644
   48CHL1   C22 4714   0.549   6.079   4.973 -0.6644 -0.3258  0.0681
   48CHL1  H22A 4715   0.496   6.174   4.994 -1.2356 -0.5153 -0.4695
   48CHL1  H22B 4716   0.659   6.090   4.977 -0.6547 -0.7377  1.1156
   48CHL1   C23 4717   0.503   6.036   4.826 -0.1405 -0.4261  0.1337
   48CHL1  H23A 4718   0.531   5.931   4.805 -1.7457 -0.9660  0.5565
   48CHL1  H23B 4719   0.394   6.051   4.821 -0.2518 -1.4924 -1.0371
   48CHL1   C24 4720   0.577   6.132   4.722 -0.2474  1.5523 -0.9761
   48CHL1  H24A 4721   0.551   6.237   4.747  0.0093  1.4937 -0.4561
   48CHL1  H24B 4722   0.685   6.106   4.735 -0.6957  0.3281  0.5864
   48CHL1   C25 4723   0.545   6.110   4.576  0.1151 -0.1714  0.7037
   48CHL1   H25 4724   0.612   6.180   4.522 -2.5703  2.9338  1.1496
   48CHL1   C26 4725   0.567   5.960   4.533 -0.3780  0.0705  0.2462
   48CHL1  H26A 4726   0.574   5.957   4.422 -0.4322 -0.4409  0.2566
   48CHL1  H26B 4727   0.661   5.918   4.575  0.5165 -0.7272 -2.3593
   48CHL1  H26C 4728   0.485   5.897   4.573 -0.2826  0.7631  1.5757
   48CHL1   C27 4729   0.402   6.145   4.560  0.0431  0.8213  0.3279
   48CHL1  H27A 4730   0.359   6.061   4.619  2.2610 -1.6534 -1.3252
   48CHL1  H27B 4731   0.391   6.246   4.604 -0.8527  1.4415 -1.2296
   48CHL1  H27C 4732   0.354   6.130   4.461 -2.4221  3.2136  1.0491
   49CHL1    C3 4733   4.626   5.670   2.766  0.1976 -0.0071  0.0065
   49CHL1    H3 4734   4.692   5.591   2.808 -1.1257 -0.7437  0.7777
   49CHL1    O3 4735   4.632   5.661   2.626  0.0651 -0.4238 -0.3945
   49CHL1   H3' 4736   4.572   5.732   2.602  0.3847  0.3627  1.0530
   49CHL1    C4 4737   4.486   5.645   2.821 -1.3533 -0.1148 -0.6074
   49CHL1   H4A 4738   4.415   5.727   2.798 -0.4511  0.9336  0.2596
   49CHL1   H4B 4739   4.451   5.551   2.773 -0.3598 -0.2145 -1.1577
   49CHL1    C5 4740   4.487   5.638   2.974  0.3234 -0.2979  0.3397
   49CHL1    C6 4741   4.443   5.532   3.043 -0.8630  0.1472  0.1898
   49CHL1    H6 4742   4.403   5.444   2.990  0.0501  1.3458 -2.7239
   49CHL1    C7 4743   4.431   5.535   3.190 -0.1447  0.5247 -0.5893
   49CHL1   H7A 4744   4.337   5.490   3.230 -0.8161  2.1281 -0.2910
   49CHL1   H7B 4745   4.509   5.463   3.222  1.6339  2.7669  0.4477
   49CHL1    C8 4746   4.469   5.668   3.263  0.2752  0.4293  0.5157
   49CHL1    H8 4747   4.378   5.730   3.250  0.0457  0.2609  1.2872
   49CHL1   C14 4748   4.491   5.655   3.412 -0.1962  0.6845  0.5222
   49CHL1   H14 4749   4.576   5.585   3.413  2.4540  3.6325 -1.0528
   49CHL1   C15 4750   4.380   5.588   3.492  0.1509 -0.2961 -0.5358
   49CHL1  H15A 4751   4.287   5.643   3.469  0.3191  0.0029 -0.5055
   49CHL1  H15B 4752   4.351   5.487   3.458 -0.6354 -0.2956  0.1013
   49CHL1   C16 4753   4.424   5.616   3.635 -0.3294  0.3919 -0.1476
   49CHL1  H16A 4754   4.333   5.661   3.681  1.3776  2.5777  1.2978
   49CHL1  H16B 4755   4.457   5.522   3.685 -1.3594 -0.1748 -0.5031
   49CHL1   C17 4756   4.536   5.730   3.628  0.5925 -0.0206  0.0182
   49CHL1   H17 4757   4.628   5.668   3.622  0.7465  0.1379  0.6673
   49CHL1   C13 4758   4.527   5.786   3.481  0.1883  0.0125 -0.8622
   49CHL1   C18 4759   4.416   5.891   3.466  0.1926 -0.6112  0.2427
   49CHL1  H18A 4760   4.322   5.857   3.517  0.7456  0.1008  1.8036
   49CHL1  H18B 4761   4.448   5.980   3.524 -0.5926 -1.2331  1.7005
   49CHL1  H18C 4762   4.395   5.915   3.360  0.6275 -0.8636  0.0979
   49CHL1   C12 4763   4.658   5.839   3.418  0.8661  0.4064 -0.1235
   49CHL1  H12A 4764   4.681   5.941   3.454 -1.5461  1.2346 -0.7208
   49CHL1  H12B 4765   4.746   5.772   3.433  0.5820 -0.0828 -0.6081
   49CHL1   C11 4766   4.640   5.865   3.264  0.1458 -0.7024 -1.0146
   49CHL1  H11A 4767   4.567   5.947   3.247  1.5747  0.5983 -1.0210
   49CHL1  H11B 4768   4.740   5.903   3.236  0.0106 -0.1149 -0.7157
   49CHL1    C9 4769   4.588   5.741   3.190 -0.2389 -0.4169  0.0605
   49CHL1    H9 4770   4.677   5.675   3.196  2.0087  2.2120 -1.9337
   49CHL1   C10 4771   4.552   5.763   3.041 -0.7136  0.4559  0.0665
   49CHL1   C19 4772   4.439   5.869   3.024  0.1829 -0.0221 -0.4020
   49CHL1  H19A 4773   4.413   5.885   2.917  1.6536  1.3950 -0.5932
   49CHL1  H19B 4774   4.345   5.842   3.076  0.1952  1.2149  0.2971
   49CHL1  H19C 4775   4.468   5.969   3.064  2.4547 -0.3119 -1.1423
   49CHL1    C1 4776   4.689   5.803   2.969  0.2488  0.1510 -0.6286
   49CHL1   H1A 4777   4.710   5.905   3.009  1.2325 -0.6333  0.9388
   49CHL1   H1B 4778   4.770   5.734   3.000 -0.3500  0.8976  3.1641
   49CHL1    C2 4779   4.668   5.805   2.820 -0.5140 -0.2139 -0.0788
   49CHL1   H2A 4780   4.763   5.830   2.768 -2.1279 -0.3085 -3.3050
   49CHL1   H2B 4781   4.592   5.874   2.778  3.0196  2.9992 -1.8342
   49CHL1   C20 4782   4.542   5.833   3.746  0.0940 -0.2163  0.4056
   49CHL1   H20 4783   4.469   5.911   3.714  2.1591  0.1509 -4.2316
   49CHL1   C21 4784   4.682   5.888   3.751 -0.2828 -0.2460 -0.0161
   49CHL1  H21A 4785   4.693   5.956   3.838 -0.0555 -0.0489 -0.1971
   49CHL1  H21B 4786   4.715   5.951   3.665  0.6344  2.0558  1.9018
   49CHL1  H21C 4787   4.759   5.808   3.756 -1.4314 -1.5636 -1.9829
   49CHL1   C22 4788   4.492   5.778   3.882  0.3877 -0.0054 -0.3548
   49CHL1  H22A 4789   4.403   5.714   3.868  0.3604  0.0427 -0.4053
   49CHL1  H22B 4790   4.568   5.710   3.925 -2.0513 -0.9815  2.7692
   49CHL1   C23 4791   4.456   5.882   3.991  0.7662  0.7261 -0.4375
   49CHL1  H23A 4792   4.545   5.947   4.004  0.1630  1.5090 -0.1444
   49CHL1  H23B 4793   4.369   5.946   3.965  1.2489  0.9427 -1.5700
   49CHL1   C24 4794   4.426   5.815   4.123  0.0803 -0.2667 -0.1071
   49CHL1  H24A 4795   4.368   5.725   4.097  0.3716 -0.8629  1.2401
   49CHL1  H24B 4796   4.527   5.779   4.155 -0.2957 -2.4490 -1.2024
   49CHL1   C25 4797   4.345   5.895   4.234  0.0053  0.0991 -0.7399
   49CHL1   H25 4798   4.376   6.001   4.248 -2.1102  0.6295  0.3277
   49CHL1   C26 4799   4.200   5.926   4.198  0.4060  0.1271 -0.5216
   49CHL1  H26A 4800   4.206   5.980   4.101  2.3145  1.9150  0.5174
   49CHL1  H26B 4801   4.141   5.837   4.164  0.6443  0.2859 -1.3822
   49CHL1  H26C 4802   4.154   5.993   4.273  0.1120 -0.3865 -0.2338
   49CHL1   C27 4803   4.339   5.815   4.366  0.3098 -0.2335  0.6103
   49CHL1  H27A 4804   4.287   5.718   4.348 -0.2601 -0.0816  1.4385
   49CHL1  H27B 4805   4.444   5.800   4.401  0.5753  1.1320  0.4296
   49CHL1  H27C 4806   4.292   5.871   4.449  1.1800  0.2823  0.7720
   50CHL1    C3 4807   3.320   1.922   2.772 -0.6344  0.3438 -0.1347
   50CHL1    H3 4808   3.252   1.981   2.836 -0.3994 -1.1240  1.5396
   50CHL1    O3 4809   3.310   1.968   2.640 -0.0945  0.0133 -0.7445
   50CHL1   H3' 4810   3.363   1.906   2.590  2.0270  0.1683  1.1150
   50CHL1    C4 4811   3.470   1.913   2.832  0.3891  1.1333 -0.0659
   50CHL1   H4A 4812   3.529   1.859   2.756  0.3294 -0.7289  1.1281
   50CHL1   H4B 4813   3.507   2.017   2.832  1.9947  0.5978 -1.6466
   50CHL1    C5 4814   3.484   1.846   2.969  1.2678  0.2570  0.0477
   50CHL1    C6 4815   3.519   1.899   3.087  0.3760  0.3339  1.2746
   50CHL1    H6 4816   3.556   2.003   3.084 -1.1945  0.9464 -1.8086
   50CHL1    C7 4817   3.528   1.815   3.209 -0.4046  0.1093 -0.4832
   50CHL1   H7A 4818   3.622   1.838   3.263 -0.6063  0.1007 -0.1253
   50CHL1   H7B 4819   3.450   1.853   3.279  0.7934 -1.2039  1.6676
   50CHL1    C8 4820   3.518   1.664   3.189 -0.3896  0.2618 -0.2187
   50CHL1    H8 4821   3.610   1.625   3.140 -0.3288 -1.5078  1.2041
   50CHL1   C14 4822   3.501   1.589   3.329 -0.0481 -0.1474  0.5036
   50CHL1   H14 4823   3.404   1.630   3.365  1.3716  1.4399  2.8059
   50CHL1   C15 4824   3.587   1.624   3.446  0.0918  0.3925 -0.0016
   50CHL1  H15A 4825   3.693   1.629   3.413  0.5250  0.3931  1.3015
   50CHL1  H15B 4826   3.553   1.723   3.481  0.8099  1.6125 -2.5431
   50CHL1   C16 4827   3.558   1.504   3.542  0.0748 -0.2083 -0.5552
   50CHL1  H16A 4828   3.651   1.456   3.578 -1.3324 -0.8515  2.5109
   50CHL1  H16B 4829   3.509   1.540   3.635  0.5071  1.6483 -0.9987
   50CHL1   C17 4830   3.473   1.401   3.462  0.1197 -0.7240 -0.3821
   50CHL1   H17 4831   3.369   1.428   3.491  0.9630  1.1786  1.0271
   50CHL1   C13 4832   3.491   1.437   3.315 -0.0166  0.2745 -0.3864
   50CHL1   C18 4833   3.631   1.391   3.263 -0.5225 -0.3729  0.4709
   50CHL1  H18A 4834   3.614   1.283   3.245  1.6101 -0.3995 -2.0615
   50CHL1  H18B 4835   3.657   1.432   3.163 -3.5636  2.1296  0.5431
   50CHL1  H18C 4836   3.716   1.406   3.333 -0.3593  2.0011 -0.1460
   50CHL1   C12 4837   3.371   1.400   3.217  0.0557  0.7059 -0.4526
   50CHL1  H12A 4838   3.370   1.291   3.196 -0.4746  0.3300  1.3429
   50CHL1  H12B 4839   3.278   1.426   3.272 -1.9330 -0.2323 -3.1369
   50CHL1   C11 4840   3.381   1.479   3.082  0.2793  0.5986  0.0088
   50CHL1  H11A 4841   3.469   1.437   3.029  0.8600  1.2539  0.4390
   50CHL1  H11B 4842   3.290   1.458   3.021  1.4720  0.0154 -1.6240
   50CHL1    C9 4843   3.407   1.632   3.100 -1.1806  0.5503  0.5273
   50CHL1    H9 4844   3.318   1.672   3.153  0.1463  0.2939  3.1219
   50CHL1   C10 4845   3.424   1.709   2.962  0.0453  0.3880  0.3403
   50CHL1   C19 4846   3.515   1.627   2.863  0.1970  0.1147  0.3218
   50CHL1  H19A 4847   3.456   1.541   2.824  0.0752 -1.0362  2.8615
   50CHL1  H19B 4848   3.535   1.669   2.762 -0.8385 -2.3141 -1.0082
   50CHL1  H19C 4849   3.612   1.589   2.902 -0.5495 -4.0407 -1.3159
   50CHL1    C1 4850   3.283   1.717   2.906  0.4274  0.2172  1.0567
   50CHL1   H1A 4851   3.261   1.612   2.879  1.0330  0.8508 -2.3931
   50CHL1   H1B 4852   3.196   1.743   2.970 -0.3847 -1.8482  0.8614
   50CHL1    C2 4853   3.261   1.788   2.770 -0.3084  0.6678 -0.8032
   50CHL1   H2A 4854   3.153   1.790   2.744 -0.6263  0.7348  0.4231
   50CHL1   H2B 4855   3.299   1.723   2.689 -0.6537 -1.5076  0.6807
   50CHL1   C20 4856   3.501   1.256   3.513 -0.4989 -0.2169  0.0131
   50CHL1   H20 4857   3.608   1.232   3.494 -0.6694 -0.9002 -0.1196
   50CHL1   C21 4858   3.414   1.154   3.441  0.4903  0.7839  0.0157
   50CHL1  H21A 4859   3.306   1.168   3.465  0.9309  1.3621  1.8920
   50CHL1  H21B 4860   3.449   1.050   3.461 -0.7620  0.6445  1.7796
   50CHL1  H21C 4861   3.429   1.163   3.332  2.3721  1.1538  0.2749
   50CHL1   C22 4862   3.480   1.239   3.671 -0.5495  0.0103  0.2398
   50CHL1  H22A 4863   3.521   1.330   3.719  0.4626  1.3464 -2.8831
   50CHL1  H22B 4864   3.375   1.231   3.705 -0.3079 -0.8095  0.8397
   50CHL1   C23 4865   3.542   1.117   3.736  0.4748  0.7528  0.3845
   50CHL1  H23A 4866   3.507   1.023   3.688  2.9887 -0.2595  0.3765
   50CHL1  H23B 4867   3.651   1.115   3.712  0.4381 -2.3584  0.0443
   50CHL1   C24 4868   3.529   1.122   3.884 -0.2165 -0.3910  0.3377
   50CHL1  H24A 4869   3.574   1.217   3.918 -1.2050  0.5082 -0.8010
   50CHL1  H24B 4870   3.424   1.132   3.919 -0.5266  1.1468 -0.9325
   50CHL1   C25 4871   3.579   0.990   3.953  0.9029 -0.1511  0.1378
   50CHL1   H25 4872   3.675   0.958   3.908  0.3654 -2.9485  0.8373
   50CHL1   C26 4873   3.592   1.029   4.104 -0.6735  0.7979 -0.1843
   50CHL1  H26A 4874   3.503   1.084   4.142 -0.8565  0.7760 -0.5773
   50CHL1  H26B 4875   3.612   0.933   4.156  0.8963  0.9346 -0.5097
   50CHL1  H26C 4876   3.675   1.102   4.115 -0.5654  0.4022  2.2962
   50CHL1   C27 4877   3.476   0.877   3.938 -0.9243 -0.3950 -0.0725
   50CHL1  H27A 4878   3.521   0.787   3.986 -0.3937 -0.7772 -1.2315
   50CHL1  H27B 4879   3.390   0.907   4.002 -0.0966 -0.4867  1.1244
   50CHL1  H27C 4880   3.456   0.856   3.831  2.1162 -2.3126 -0.4080
   51CHL1    C3 4881   3.474   4.588   2.622  0.1102  0.1576 -0.3442
   51CHL1    H3 4882   3.464   4.487   2.577  1.3663  0.6938 -1.8641
   51CHL1    O3 4883   3.545   4.666   2.540 -0.4401 -0.2286 -0.0976
   51CHL1   H3' 4884   3.636   4.638   2.535 -0.7033 -0.9305 -2.0734
   51CHL1    C4 4885   3.332   4.638   2.644  0.5198 -0.4990  0.4038
   51CHL1   H4A 4886   3.326   4.747   2.661 -2.3475 -0.5762  0.2736
   51CHL1   H4B 4887   3.292   4.623   2.542 -1.4756 -3.1629  1.4594
   51CHL1    C5 4888   3.253   4.550   2.734 -0.2285 -0.0117 -0.8334
   51CHL1    C6 4889   3.139   4.493   2.700  0.0558 -0.3097  0.0229
   51CHL1    H6 4890   3.100   4.515   2.600  0.0334 -1.8514 -0.3401
   51CHL1    C7 4891   3.064   4.395   2.785  0.7625 -0.4956  0.3851
   51CHL1   H7A 4892   2.954   4.414   2.785  0.5685 -1.4799 -0.9830
   51CHL1   H7B 4893   3.085   4.290   2.755  2.5082  0.1564 -0.8153
   51CHL1    C8 4894   3.100   4.403   2.935  0.9710 -0.8230  0.0236
   51CHL1    H8 4895   3.065   4.504   2.966  1.9577  0.2288 -2.0445
   51CHL1   C14 4896   3.029   4.301   3.016  0.4856  0.3413  0.3415
   51CHL1   H14 4897   3.088   4.207   3.004  0.9332  0.6630  0.0350
   51CHL1   C15 4898   2.877   4.295   3.006 -0.2339  0.6389  0.6633
   51CHL1  H15A 4899   2.849   4.403   3.009 -1.9199  0.3528 -1.8136
   51CHL1  H15B 4900   2.842   4.256   2.908  2.7383 -1.5464  0.3598
   51CHL1   C16 4901   2.836   4.221   3.128  0.1274 -1.1138 -0.2182
   51CHL1  H16A 4902   2.755   4.276   3.180  0.8338  0.8455 -1.0784
   51CHL1  H16B 4903   2.797   4.121   3.103  1.1601 -1.0824 -2.1481
   51CHL1   C17 4904   2.963   4.196   3.219  0.0667 -0.0564  0.1692
   51CHL1   H17 4905   3.016   4.103   3.189  3.4566  1.1565  1.7803
   51CHL1   C13 4906   3.054   4.312   3.163 -0.6207 -0.4186 -0.0423
   51CHL1   C18 4907   3.012   4.451   3.227 -0.3795  0.1509  0.2842
   51CHL1  H18A 4908   3.047   4.460   3.332 -2.6007  0.6540  1.0280
   51CHL1  H18B 4909   3.046   4.536   3.165  2.3998 -1.8444 -1.1679
   51CHL1  H18C 4910   2.901   4.458   3.225 -0.5300 -1.0489 -3.2403
   51CHL1   C12 4911   3.209   4.299   3.186  0.2977  0.3929  0.2753
   51CHL1  H12A 4912   3.218   4.300   3.297 -1.4275 -1.4002  0.4959
   51CHL1  H12B 4913   3.246   4.198   3.158  0.3658 -0.8037  4.0647
   51CHL1   C11 4914   3.282   4.410   3.111 -0.8545  0.9559  0.4704
   51CHL1  H11A 4915   3.253   4.510   3.149 -0.4295  1.7702 -1.2753
   51CHL1  H11B 4916   3.390   4.384   3.124 -1.5001 -1.3846  1.6778
   51CHL1    C9 4917   3.249   4.405   2.960 -0.2317 -0.4367  0.3108
   51CHL1    H9 4918   3.285   4.310   2.914  2.8280  1.6100 -1.9443
   51CHL1   C10 4919   3.322   4.515   2.875 -0.6844 -0.0576  0.7488
   51CHL1   C19 4920   3.309   4.653   2.946  0.3103  0.2923  0.4678
   51CHL1  H19A 4921   3.351   4.735   2.883  0.9224 -0.8286 -0.6159
   51CHL1  H19B 4922   3.205   4.677   2.977  0.4740  0.3588  0.9638
   51CHL1  H19C 4923   3.367   4.666   3.039  0.3788 -0.2849  0.5087
   51CHL1    C1 4924   3.469   4.470   2.848  0.5208  0.3057 -0.4292
   51CHL1   H1A 4925   3.521   4.460   2.945 -0.9581  0.0973  0.3689
   51CHL1   H1B 4926   3.473   4.371   2.797  0.4935  0.2745 -0.3712
   51CHL1    C2 4927   3.544   4.573   2.754 -0.1223  0.2188 -0.4797
   51CHL1   H2A 4928   3.649   4.544   2.733  0.5945  1.9399  0.4802
   51CHL1   H2B 4929   3.549   4.673   2.802 -0.1089  0.0391 -0.1011
   51CHL1   C20 4930   2.927   4.195   3.369 -0.0601  0.7664  0.4388
   51CHL1   H20 4931   2.853   4.275   3.390  1.2216  2.8550 -2.3931
   51CHL1   C21 4932   3.040   4.217   3.471 -0.4856  0.3344 -0.0183
   51CHL1  H21A 4933   3.020   4.169   3.569  1.5258  2.5562  1.5852
   51CHL1  H21B 4934   3.061   4.323   3.496  2.0191 -0.2705  0.7637
   51CHL1  H21C 4935   3.138   4.182   3.429  0.2287  1.5365  0.6054
   51CHL1   C22 4936   2.854   4.059   3.404  0.1974 -0.3515 -0.8011
   51CHL1  H22A 4937   2.827   4.071   3.511 -0.1772  1.4037 -1.0598
   51CHL1  H22B 4938   2.752   4.055   3.360  0.1325 -0.6343 -0.6290
   51CHL1   C23 4939   2.945   3.926   3.406 -0.1334  0.2261  0.7639
   51CHL1  H23A 4940   2.978   3.896   3.305 -0.5600 -2.4905  1.3687
   51CHL1  H23B 4941   3.035   3.952   3.467 -0.2673  1.2692  0.5446
   51CHL1   C24 4942   2.862   3.811   3.466  0.3059  0.4500 -0.8122
   51CHL1  H24A 4943   2.769   3.811   3.406 -0.1676  0.4134 -0.0844
   51CHL1  H24B 4944   2.940   3.734   3.444  1.8146  1.7278 -0.1564
   51CHL1   C25 4945   2.826   3.815   3.618 -0.3677  0.0628  0.0404
   51CHL1   H25 4946   2.789   3.917   3.643 -0.3917  0.3238 -1.0100
   51CHL1   C26 4947   2.722   3.715   3.651  0.8638  0.9057  0.3365
   51CHL1  H26A 4948   2.706   3.696   3.759 -0.5634 -2.9223 -0.3997
   51CHL1  H26B 4949   2.626   3.749   3.607  1.6584  2.5145 -0.2526
   51CHL1  H26C 4950   2.743   3.615   3.607 -0.5536  0.2400  1.1216
   51CHL1   C27 4951   2.944   3.804   3.714  0.1663  0.6383 -0.5420
   51CHL1  H27A 4952   3.009   3.718   3.685 -0.5577  0.9115 -3.2363
   51CHL1  H27B 4953   2.996   3.901   3.722 -2.0693  1.7608  4.9937
   51CHL1  H27C 4954   2.901   3.788   3.816 -1.8966  1.3939 -1.2279
   52CHL1    C3 4955   4.502   3.927   2.816 -0.6001  0.1313  0.4511
   52CHL1    H3 4956   4.572   3.841   2.805 -1.3250 -0.4752  0.5427
   52CHL1    O3 4957   4.489   4.004   2.699 -0.2863  0.4470 -0.1810
   52CHL1   H3' 4958   4.429   4.070   2.734 -2.3607 -1.2466 -0.2960
   52CHL1    C4 4959   4.363   3.868   2.850  0.6297 -0.7320  0.0467
   52CHL1   H4A 4960   4.289   3.949   2.865  0.2200 -1.6449  4.1575
   52CHL1   H4B 4961   4.320   3.807   2.768  2.5555 -0.3924 -1.2841
   52CHL1    C5 4962   4.357   3.794   2.977  0.6983  0.3748  0.2259
   52CHL1    C6 4963   4.319   3.667   2.980  0.0220  0.6557 -0.0036
   52CHL1    H6 4964   4.300   3.609   2.889 -1.6866 -3.6432  2.7461
   52CHL1    C7 4965   4.308   3.584   3.104 -0.2218 -0.7348 -0.3844
   52CHL1   H7A 4966   4.211   3.528   3.106 -0.5057 -0.2298  1.7829
   52CHL1   H7B 4967   4.386   3.504   3.107  2.1615  1.4761 -0.3361
   52CHL1    C8 4968   4.330   3.672   3.233 -0.2781 -0.8353  0.4166
   52CHL1    H8 4969   4.237   3.729   3.254 -0.9904 -1.9388  0.3450
   52CHL1   C14 4970   4.364   3.592   3.358  0.6592 -0.1781 -0.0182
   52CHL1   H14 4971   4.468   3.562   3.333  0.8118 -0.1255  0.5302
   52CHL1   C15 4972   4.289   3.464   3.390 -0.2207 -0.8690  0.3577
   52CHL1  H15A 4973   4.185   3.503   3.383  0.5828  1.4788  0.7011
   52CHL1  H15B 4974   4.307   3.377   3.322 -0.8339 -1.4505  0.9288
   52CHL1   C16 4975   4.318   3.428   3.536  0.7813 -0.1066  0.0884
   52CHL1  H16A 4976   4.236   3.422   3.611  1.8349 -2.2373  1.1535
   52CHL1  H16B 4977   4.363   3.327   3.539  0.2632 -0.3148  1.6947
   52CHL1   C17 4978   4.400   3.550   3.588 -0.8807 -0.4646 -0.3315
   52CHL1   H17 4979   4.500   3.521   3.549 -0.2358  0.0900  0.8275
   52CHL1   C13 4980   4.366   3.670   3.494 -0.5078  0.5837  0.0379
   52CHL1   C18 4981   4.230   3.720   3.537 -0.2524 -0.1267 -0.2027
   52CHL1  H18A 4982   4.148   3.646   3.544  0.9307 -1.7596 -2.5702
   52CHL1  H18B 4983   4.236   3.767   3.638  1.2538 -1.5389  0.4021
   52CHL1  H18C 4984   4.186   3.792   3.465 -2.9878 -1.5802 -0.0871
   52CHL1   C12 4985   4.485   3.766   3.476 -0.0722 -0.4875 -0.3295
   52CHL1  H12A 4986   4.482   3.837   3.561  0.6851 -0.3511 -0.4117
   52CHL1  H12B 4987   4.586   3.720   3.484  0.8133  1.3499 -0.3427
   52CHL1   C11 4988   4.467   3.852   3.348  0.5114 -0.7617 -0.2757
   52CHL1  H11A 4989   4.388   3.925   3.375 -0.8406 -2.1978 -0.2001
   52CHL1  H11B 4990   4.551   3.926   3.344  0.2914 -0.3087  2.0312
   52CHL1    C9 4991   4.441   3.775   3.214  0.1264 -0.1967 -0.5602
   52CHL1    H9 4992   4.538   3.723   3.197  0.4022  0.1191 -0.0075
   52CHL1   C10 4993   4.417   3.873   3.096  0.2602 -0.5493 -0.2095
   52CHL1   C19 4994   4.318   3.983   3.140  0.5647  0.1529  0.2669
   52CHL1  H19A 4995   4.352   4.051   3.221 -0.1097 -1.1854  1.7281
   52CHL1  H19B 4996   4.286   4.041   3.051  1.0407 -0.3461 -0.2416
   52CHL1  H19C 4997   4.226   3.945   3.188 -0.3957  2.0449 -0.0038
   52CHL1    C1 4998   4.551   3.946   3.061  0.6504  0.4640  0.4798
   52CHL1   H1A 4999   4.591   4.004   3.147  0.0606  1.3581  0.1568
   52CHL1   H1B 5000   4.618   3.859   3.041  0.5664  0.3707  0.6023
   52CHL1    C2 5001   4.558   4.016   2.930  0.6874  0.2949  0.7762
   52CHL1   H2A 5002   4.661   4.043   2.898  0.7900  1.4264  1.9770
   52CHL1   H2B 5003   4.494   4.107   2.936 -0.6506 -0.6686  1.4125
   52CHL1   C20 5004   4.398   3.560   3.741 -0.5222 -0.0865 -0.8244
   52CHL1   H20 5005   4.296   3.586   3.776 -0.8218 -2.9336  0.6249
   52CHL1   C21 5006   4.501   3.673   3.788  0.7383  0.9198 -0.4310
   52CHL1  H21A 5007   4.601   3.662   3.740  1.0617  1.8063  0.0282
   52CHL1  H21B 5008   4.511   3.680   3.898  0.2625  0.0970 -0.3284
   52CHL1  H21C 5009   4.466   3.774   3.760  0.4521  0.9693  0.1077
   52CHL1   C22 5010   4.446   3.429   3.810  0.2638  0.1802  0.7799
   52CHL1  H22A 5011   4.469   3.452   3.916  1.0813  1.8771  0.2633
   52CHL1  H22B 5012   4.355   3.365   3.803 -0.0048  0.7632 -2.0580
   52CHL1   C23 5013   4.565   3.357   3.748 -0.4145 -0.3204  0.1800
   52CHL1  H23A 5014   4.533   3.306   3.655 -1.0290  0.5572 -0.0975
   52CHL1  H23B 5015   4.649   3.427   3.728 -0.6407  0.2839  1.2903
   52CHL1   C24 5016   4.621   3.255   3.852 -0.2890  0.2619  0.0128
   52CHL1  H24A 5017   4.616   3.302   3.953  0.9927  0.7388 -0.1217
   52CHL1  H24B 5018   4.553   3.168   3.847  0.0467 -0.0229  0.3226
   52CHL1   C25 5019   4.765   3.207   3.825  0.7630 -0.5169  0.7882
   52CHL1   H25 5020   4.833   3.290   3.798  3.7436 -2.6768  1.1171
   52CHL1   C26 5021   4.827   3.128   3.946  0.5487 -0.0979 -0.3566
   52CHL1  H26A 5022   4.850   3.190   4.035 -0.1621  0.8972 -0.8382
   52CHL1  H26B 5023   4.782   3.031   3.976  1.2501  0.0835  1.3911
   52CHL1  H26C 5024   4.927   3.102   3.906 -0.5327 -1.0186 -2.6297
   52CHL1   C27 5025   4.772   3.127   3.692  0.2054 -0.1487  0.2734
   52CHL1  H27A 5026   4.732   3.190   3.610  0.1584 -3.1519 -2.1850
   52CHL1  H27B 5027   4.879   3.102   3.673  0.0423 -0.0047 -0.9015
   52CHL1  H27C 5028   4.712   3.036   3.710  1.0252 -0.6316  0.6470
   53CHL1    C3 5029   3.139   5.315   2.744  0.3073  0.7669  0.0677
   53CHL1    H3 5030   3.110   5.208   2.752 -0.4890  1.0493  1.1511
   53CHL1    O3 5031   3.171   5.337   2.609 -0.8078 -0.2367 -0.0090
   53CHL1   H3' 5032   3.113   5.407   2.577  0.7015 -0.6230 -4.1439
   53CHL1    C4 5033   3.022   5.400   2.787  0.4880 -1.2149 -0.0546
   53CHL1   H4A 5034   3.046   5.508   2.780 -0.2467 -1.0742 -0.5445
   53CHL1   H4B 5035   2.933   5.374   2.725 -0.8449  0.4190  1.0875
   53CHL1    C5 5036   3.000   5.370   2.933 -0.1897 -0.0471  0.6415
   53CHL1    C6 5037   2.879   5.334   2.986 -0.1976 -0.3524 -0.2427
   53CHL1    H6 5038   2.788   5.320   2.925 -1.8685 -1.7805  2.3812
   53CHL1    C7 5039   2.848   5.337   3.132  0.8717 -0.2765  0.2530
   53CHL1   H7A 5040   2.760   5.401   3.152  1.3440 -0.1325  1.9951
   53CHL1   H7B 5041   2.832   5.231   3.162  0.3357 -0.4231 -0.5013
   53CHL1    C8 5042   2.958   5.400   3.221 -0.2066 -0.5112 -0.1993
   53CHL1    H8 5043   2.954   5.509   3.201 -1.9339 -0.3450  0.8608
   53CHL1   C14 5044   2.929   5.363   3.368 -0.2355 -0.4776  0.0415
   53CHL1   H14 5045   2.931   5.253   3.377  0.1397 -0.3216  2.4967
   53CHL1   C15 5046   2.791   5.410   3.426 -0.1222 -0.0877 -0.3485
   53CHL1  H15A 5047   2.785   5.518   3.403  0.4769  0.6092  2.4375
   53CHL1  H15B 5048   2.710   5.351   3.377 -0.1765 -1.2957  1.1207
   53CHL1   C16 5049   2.801   5.375   3.573  0.2215 -0.1440  0.0687
   53CHL1  H16A 5050   2.757   5.448   3.644  1.9879  0.8298  0.2089
   53CHL1  H16B 5051   2.759   5.276   3.600 -1.2201  0.4345  0.0337
   53CHL1   C17 5052   2.957   5.361   3.598 -0.5235 -0.2925 -0.6699
   53CHL1   H17 5053   2.983   5.253   3.593 -0.7723 -0.4707  1.1321
   53CHL1   C13 5054   3.027   5.416   3.466  0.4633  0.0277  0.1961
   53CHL1   C18 5055   3.030   5.569   3.470 -0.2713 -0.3437 -0.4623
   53CHL1  H18A 5056   3.128   5.599   3.514 -1.3565 -0.4940  2.2146
   53CHL1  H18B 5057   3.022   5.601   3.364 -1.1346 -0.7410 -0.5234
   53CHL1  H18C 5058   2.948   5.620   3.525  0.0037  1.5153 -1.6614
   53CHL1   C12 5059   3.166   5.369   3.416 -0.9205 -0.3634  0.1566
   53CHL1  H12A 5060   3.249   5.414   3.475 -0.0206 -1.7486 -0.0073
   53CHL1  H12B 5061   3.159   5.259   3.424 -0.9539 -0.2788  1.6331
   53CHL1   C11 5062   3.206   5.403   3.275 -0.6048  0.0512 -0.4588
   53CHL1  H11A 5063   3.223   5.513   3.277  2.7295 -0.3811  0.8040
   53CHL1  H11B 5064   3.311   5.374   3.256  0.0614  2.2940 -0.4559
   53CHL1    C9 5065   3.099   5.358   3.175  0.1633  0.1495 -0.5041
   53CHL1    H9 5066   3.120   5.250   3.185 -1.7143 -0.2961 -0.9770
   53CHL1   C10 5067   3.124   5.400   3.026 -0.4689 -0.0012  0.6822
   53CHL1   C19 5068   3.171   5.554   3.022  0.0645 -0.0399 -0.0504
   53CHL1  H19A 5069   3.173   5.595   2.919 -0.9393  0.0377 -0.0481
   53CHL1  H19B 5070   3.094   5.614   3.075 -0.1703  0.0329 -0.4739
   53CHL1  H19C 5071   3.275   5.569   3.058 -0.5057 -0.0312  1.7397
   53CHL1    C1 5072   3.252   5.327   2.971  0.4094  0.4464  0.5729
   53CHL1   H1A 5073   3.347   5.371   3.008  0.2850 -0.5547  2.1728
   53CHL1   H1B 5074   3.251   5.219   2.995 -0.1399  0.0523 -1.0906
   53CHL1    C2 5075   3.272   5.347   2.813  0.3448  0.7008  0.2210
   53CHL1   H2A 5076   3.350   5.276   2.779 -1.0569 -1.1239  0.6521
   53CHL1   H2B 5077   3.306   5.452   2.796  2.3210 -0.2370 -2.2859
   53CHL1   C20 5078   3.004   5.415   3.730  1.0672 -0.1525 -0.1178
   53CHL1   H20 5079   2.965   5.519   3.730  0.1193 -0.4835  0.7769
   53CHL1   C21 5080   3.155   5.421   3.732 -0.0704 -0.5481 -0.2392
   53CHL1  H21A 5081   3.213   5.326   3.725 -0.1361 -0.7290  1.4311
   53CHL1  H21B 5082   3.196   5.467   3.824  0.4277 -1.4461  0.0036
   53CHL1  H21C 5083   3.196   5.492   3.657  0.4846  0.5003  1.0317
   53CHL1   C22 5084   2.938   5.335   3.846 -0.1030 -0.2950 -0.2672
   53CHL1  H22A 5085   2.828   5.342   3.839 -0.1128  0.2523  0.2572
   53CHL1  H22B 5086   2.965   5.228   3.836 -1.9569 -0.7657 -0.5188
   53CHL1   C23 5087   2.975   5.395   3.981  0.3076 -0.3519 -0.5900
   53CHL1  H23A 5088   3.086   5.390   3.989  0.5005  3.7015  1.5850
   53CHL1  H23B 5089   2.944   5.501   3.983 -3.6976 -1.3670 -0.5320
   53CHL1   C24 5090   2.931   5.309   4.099 -0.2804  0.4191  0.4304
   53CHL1  H24A 5091   2.820   5.314   4.100 -0.2659  2.5434 -1.0719
   53CHL1  H24B 5092   2.965   5.206   4.077 -0.1984  0.6118 -0.3525
   53CHL1   C25 5093   2.988   5.354   4.241  0.0300  0.3014 -0.6811
   53CHL1   H25 5094   2.967   5.260   4.295 -1.4197  0.4196 -0.9720
   53CHL1   C26 5095   3.139   5.370   4.250  0.0259  0.0548 -0.0633
   53CHL1  H26A 5096   3.185   5.288   4.191  0.2901 -0.0259  0.2545
   53CHL1  H26B 5097   3.175   5.463   4.200  1.5240 -0.5554 -0.1555
   53CHL1  H26C 5098   3.172   5.367   4.355  1.8563  0.4668 -0.5937
   53CHL1   C27 5099   2.918   5.472   4.306 -0.4434  0.1905 -0.5740
   53CHL1  H27A 5100   2.887   5.560   4.245 -0.1881  0.7832  0.1412
   53CHL1  H27B 5101   2.819   5.446   4.351 -0.5200  0.7249 -0.4279
   53CHL1  H27C 5102   2.986   5.505   4.386 -0.9119 -0.7184  0.2189
   54CHL1    C3 5103   3.498   5.738   2.795  0.4348  0.0203  0.4228
   54CHL1    H3 5104   3.434   5.649   2.812 -1.4223  1.5162  1.6715
   54CHL1    O3 5105   3.543   5.742   2.661 -0.4556 -0.6982  0.7799
   54CHL1   H3' 5106   3.628   5.782   2.681 -0.0655 -0.8875 -0.4343
   54CHL1    C4 5107   3.418   5.872   2.828  0.1332  0.1669 -0.5591
   54CHL1   H4A 5108   3.487   5.953   2.798  0.9174  0.4232  1.7345
   54CHL1   H4B 5109   3.328   5.896   2.768 -0.4803  2.8926  1.2595
   54CHL1    C5 5110   3.392   5.868   2.979  0.1858 -0.0566  0.5791
   54CHL1    C6 5111   3.270   5.884   3.024  0.0382 -0.0111 -0.1512
   54CHL1    H6 5112   3.191   5.903   2.950 -1.8164 -1.5316  1.3155
   54CHL1    C7 5113   3.233   5.896   3.168 -0.7227 -0.0268  0.5896
   54CHL1   H7A 5114   3.157   5.966   3.207  1.1112  1.9770  0.7970
   54CHL1   H7B 5115   3.192   5.803   3.212 -3.8839  0.5012 -0.9934
   54CHL1    C8 5116   3.357   5.927   3.260 -0.7735  0.0568 -0.5563
   54CHL1    H8 5117   3.395   6.028   3.234 -4.2384  1.2026 -1.8096
   54CHL1   C14 5118   3.324   5.918   3.407  0.2314  0.6031  0.5783
   54CHL1   H14 5119   3.295   5.812   3.424 -0.6732  0.8068  0.3402
   54CHL1   C15 5120   3.202   5.994   3.463 -0.5893  0.3358 -0.4311
   54CHL1  H15A 5121   3.209   6.094   3.413  1.0083  1.7140  2.3408
   54CHL1  H15B 5122   3.104   5.950   3.432 -0.7183 -1.1640  1.8701
   54CHL1   C16 5123   3.232   6.003   3.614  0.0206  0.4230  0.0887
   54CHL1  H16A 5124   3.248   6.108   3.644  3.6841  0.1007 -0.3256
   54CHL1  H16B 5125   3.148   5.956   3.670  0.0373  1.4483  0.9877
   54CHL1   C17 5126   3.375   5.940   3.636  0.4455  0.8427  0.4290
   54CHL1   H17 5127   3.345   5.837   3.663 -1.6413  1.7928  2.0604
   54CHL1   C13 5128   3.439   5.939   3.505  0.4103 -0.4321  0.9622
   54CHL1   C18 5129   3.501   6.086   3.473 -0.1560  0.1326 -0.1880
   54CHL1  H18A 5130   3.538   6.091   3.368 -1.5860 -2.2599 -0.8882
   54CHL1  H18B 5131   3.429   6.169   3.491  2.1243  1.9199  1.1159
   54CHL1  H18C 5132   3.588   6.109   3.538 -0.0452  0.8429 -0.5746
   54CHL1   C12 5133   3.542   5.833   3.470 -0.2071  0.0365  0.0039
   54CHL1  H12A 5134   3.634   5.847   3.531 -0.0077 -0.6486 -0.1304
   54CHL1  H12B 5135   3.493   5.747   3.520  0.3770  0.4053  1.2421
   54CHL1   C11 5136   3.574   5.821   3.319 -0.4283  0.4577  0.0947
   54CHL1  H11A 5137   3.635   5.912   3.302  0.5498 -0.2595 -0.3366
   54CHL1  H11B 5138   3.646   5.738   3.304  3.8507  3.7297  0.3448
   54CHL1    C9 5139   3.465   5.822   3.222  0.8454  0.2978  0.1093
   54CHL1    H9 5140   3.423   5.719   3.219  1.2155  0.1450  0.1183
   54CHL1   C10 5141   3.513   5.840   3.075  0.2981  0.0911  1.0092
   54CHL1   C19 5142   3.588   5.973   3.058  0.4940  0.4639  0.3638
   54CHL1  H19A 5143   3.528   6.066   3.072 -0.7121 -0.5334  2.1697
   54CHL1  H19B 5144   3.671   5.972   3.132  0.2211 -0.3624  0.6651
   54CHL1  H19C 5145   3.620   5.994   2.953 -4.3592  3.6041 -0.7968
   54CHL1    C1 5146   3.606   5.724   3.023 -0.2022 -0.0981 -0.2399
   54CHL1   H1A 5147   3.697   5.720   3.086  1.9397 -0.9300 -3.1590
   54CHL1   H1B 5148   3.539   5.639   3.049 -1.4270  0.9245  0.0439
   54CHL1    C2 5149   3.625   5.732   2.872 -0.7800 -0.1110 -0.0085
   54CHL1   H2A 5150   3.689   5.645   2.847  0.5653  1.3781 -2.1192
   54CHL1   H2B 5151   3.695   5.816   2.855  0.6066 -1.8322 -4.0384
   54CHL1   C20 5152   3.454   5.992   3.758  0.7668 -0.0536 -0.3122
   54CHL1   H20 5153   3.470   6.100   3.735 -1.1485  0.5509  0.9382
   54CHL1   C21 5154   3.587   5.925   3.778 -1.0245 -0.7507  0.1050
   54CHL1  H21A 5155   3.577   5.814   3.788 -0.5515 -0.8963 -0.8976
   54CHL1  H21B 5156   3.639   5.972   3.864 -1.5764  0.5359 -0.2452
   54CHL1  H21C 5157   3.662   5.942   3.698 -1.2850  0.3807  0.0911
   54CHL1   C22 5158   3.358   5.995   3.895 -0.3202 -0.3079  0.2596
   54CHL1  H22A 5159   3.413   6.060   3.966 -2.2759  1.4874  0.2303
   54CHL1  H22B 5160   3.262   6.043   3.866 -0.0714 -0.2998 -0.6053
   54CHL1   C23 5161   3.345   5.863   3.962 -0.1150 -0.3432 -0.4507
   54CHL1  H23A 5162   3.314   5.784   3.890  2.2503  0.1605 -2.1305
   54CHL1  H23B 5163   3.444   5.845   4.009 -0.5899 -1.0091  0.3265
   54CHL1   C24 5164   3.237   5.888   4.070  0.2300  0.2735 -1.0115
   54CHL1  H24A 5165   3.264   5.970   4.140 -0.0694 -2.6827  2.9960
   54CHL1  H24B 5166   3.140   5.897   4.018 -0.3122 -0.1499 -0.1058
   54CHL1   C25 5167   3.249   5.770   4.175  0.3063  0.5815 -0.7684
   54CHL1   H25 5168   3.263   5.676   4.116 -1.0047  0.4365 -0.8728
   54CHL1   C26 5169   3.378   5.780   4.256  0.2280 -0.0774 -0.0406
   54CHL1  H26A 5170   3.355   5.862   4.327 -1.0422 -1.2195  0.9192
   54CHL1  H26B 5171   3.396   5.686   4.312 -0.1129  0.3411  0.7849
   54CHL1  H26C 5172   3.466   5.812   4.196  0.5817  2.5000  1.6936
   54CHL1   C27 5173   3.128   5.770   4.270  0.1701 -0.5763 -0.1944
   54CHL1  H27A 5174   3.027   5.770   4.223  1.6304  4.4732 -4.2278
   54CHL1  H27B 5175   3.136   5.681   4.337 -0.1540  0.3814  1.1609
   54CHL1  H27C 5176   3.131   5.861   4.333 -0.9013 -2.4182  2.7792
   55CHL1    C3 5177   5.455   1.872   2.365  0.1362 -0.4530 -0.2723
   55CHL1    H3 5178   5.348   1.849   2.385 -0.2327  1.0718 -0.3841
   55CHL1    O3 5179   5.476   1.850   2.230  0.0622  0.3523  0.4343
   55CHL1   H3' 5180   5.561   1.806   2.226 -0.3666 -0.4674  0.1521
   55CHL1    C4 5181   5.462   2.023   2.401  0.0544  0.0708 -0.2293
   55CHL1   H4A 5182   5.553   2.076   2.364 -0.2051 -0.0543 -1.0672
   55CHL1   H4B 5183   5.381   2.080   2.351 -0.9413  1.1668  2.4428
   55CHL1    C5 5184   5.450   2.043   2.553  0.5271  0.3073 -0.5784
   55CHL1    C6 5185   5.361   2.135   2.597 -0.4981 -0.0075  0.4718
   55CHL1    H6 5186   5.294   2.182   2.524 -1.0909 -1.0238  0.3473
   55CHL1    C7 5187   5.339   2.160   2.743 -0.1077 -0.5590 -0.2196
   55CHL1   H7A 5188   5.324   2.270   2.752  0.9457 -0.1370 -2.6759
   55CHL1   H7B 5189   5.242   2.113   2.771 -0.4062  0.1878  0.0446
   55CHL1    C8 5190   5.454   2.107   2.832 -0.6096 -0.0378 -0.0670
   55CHL1    H8 5191   5.533   2.185   2.828 -1.0359  0.3701 -3.1466
   55CHL1   C14 5192   5.400   2.100   2.974 -0.5879 -0.7286 -0.4161
   55CHL1   H14 5193   5.312   2.032   2.976 -2.1020  1.0298 -2.2497
   55CHL1   C15 5194   5.338   2.229   3.030  0.1430 -0.8795 -0.1545
   55CHL1  H15A 5195   5.400   2.320   3.012 -0.0180 -0.2135  2.2937
   55CHL1  H15B 5196   5.236   2.249   2.992 -0.1592 -3.3028 -0.8035
   55CHL1   C16 5197   5.342   2.205   3.180 -0.5902  0.6644 -0.1526
   55CHL1  H16A 5198   5.391   2.291   3.230  0.6117  0.1378 -0.4020
   55CHL1  H16B 5199   5.238   2.180   3.211  0.3923 -2.9911  0.6710
   55CHL1   C17 5200   5.416   2.063   3.200  0.0426  0.1050 -0.2609
   55CHL1   H17 5201   5.333   1.989   3.206 -1.7286  2.0580  0.6261
   55CHL1   C13 5202   5.501   2.036   3.075 -0.8726 -0.3844  0.7956
   55CHL1   C18 5203   5.625   2.133   3.086 -0.8485 -0.1429  0.2880
   55CHL1  H18A 5204   5.681   2.150   2.992 -1.7786 -0.6588 -0.3755
   55CHL1  H18B 5205   5.602   2.235   3.123 -2.2642 -0.4223  0.2355
   55CHL1  H18C 5206   5.698   2.087   3.157 -1.9237 -2.5789 -0.0721
   55CHL1   C12 5207   5.535   1.897   3.041 -0.3170  1.1311  0.8166
   55CHL1  H12A 5208   5.611   1.856   3.111  0.6543  1.5840  0.0401
   55CHL1  H12B 5209   5.442   1.836   3.046  1.3328 -1.4924  4.5345
   55CHL1   C11 5210   5.593   1.889   2.896 -0.1469 -0.9012 -0.1817
   55CHL1  H11A 5211   5.691   1.941   2.896 -0.7454  0.2400 -0.1037
   55CHL1  H11B 5212   5.617   1.782   2.875 -0.9464 -1.1382  0.0703
   55CHL1    C9 5213   5.500   1.964   2.791 -0.1980 -0.3123  0.6535
   55CHL1    H9 5214   5.404   1.909   2.788  0.6294 -1.7613 -1.1078
   55CHL1   C10 5215   5.540   1.954   2.647  0.1304 -0.4238  0.2261
   55CHL1   C19 5216   5.673   2.022   2.629 -0.1213  0.4602 -0.8024
   55CHL1  H19A 5217   5.669   2.129   2.657 -3.5240  0.0807  0.6536
   55CHL1  H19B 5218   5.752   1.971   2.688  1.3950  1.2607 -2.0599
   55CHL1  H19C 5219   5.703   2.010   2.522 -2.1728 -1.6377 -1.2266
   55CHL1    C1 5220   5.546   1.809   2.592  0.2461 -0.0951 -0.4969
   55CHL1   H1A 5221   5.630   1.760   2.647 -0.5285 -0.1659  0.6594
   55CHL1   H1B 5222   5.455   1.759   2.631  2.1580 -1.4913  2.5620
   55CHL1    C2 5223   5.555   1.797   2.443 -0.2134 -0.1114  0.2782
   55CHL1   H2A 5224   5.546   1.688   2.426 -0.4430 -0.5378  2.8644
   55CHL1   H2B 5225   5.658   1.827   2.415  0.3672 -0.3483  2.0761
   55CHL1   C20 5226   5.485   2.040   3.334 -0.2932  0.7689  0.5627
   55CHL1   H20 5227   5.590   2.072   3.320 -0.6819  1.0578 -2.3471
   55CHL1   C21 5228   5.501   1.885   3.374  0.0743 -0.9299 -0.2731
   55CHL1  H21A 5229   5.499   1.877   3.484  2.0787 -1.8383 -0.2550
   55CHL1  H21B 5230   5.605   1.853   3.349  0.8627 -1.1682  2.9382
   55CHL1  H21C 5231   5.413   1.829   3.333 -0.5906  0.3078 -0.5917
   55CHL1   C22 5232   5.425   2.113   3.453 -0.2368  0.1775 -0.2097
   55CHL1  H22A 5233   5.494   2.115   3.539  0.2634 -1.6383 -0.5237
   55CHL1  H22B 5234   5.409   2.218   3.419  0.9756  0.8861  1.3016
   55CHL1   C23 5235   5.278   2.068   3.498 -0.3110 -0.0438  0.4123
   55CHL1  H23A 5236   5.214   2.081   3.408 -0.0392  1.3147  0.3933
   55CHL1  H23B 5237   5.270   1.959   3.519  1.5001 -0.8642 -2.5619
   55CHL1   C24 5238   5.206   2.157   3.605 -0.3771  0.1029  0.6347
   55CHL1  H24A 5239   5.189   2.262   3.572  1.1922 -0.2665 -1.5724
   55CHL1  H24B 5240   5.101   2.120   3.605 -0.2316 -0.3131  0.7113
   55CHL1   C25 5241   5.267   2.149   3.744  0.3878 -0.2693 -0.8871
   55CHL1   H25 5242   5.362   2.205   3.746 -0.0414  0.4656  1.5247
   55CHL1   C26 5243   5.182   2.237   3.842  0.3588 -0.0387  0.2795
   55CHL1  H26A 5244   5.075   2.208   3.842  0.3910 -0.1583  0.1359
   55CHL1  H26B 5245   5.225   2.234   3.944 -0.6118  1.3925  0.7614
   55CHL1  H26C 5246   5.185   2.341   3.802 -2.4375  0.5735  1.4515
   55CHL1   C27 5247   5.283   2.006   3.797 -0.4750 -0.4439 -0.5239
   55CHL1  H27A 5248   5.188   1.949   3.788 -1.3747  1.0785 -0.9821
   55CHL1  H27B 5249   5.363   1.956   3.738 -0.1071  0.8973 -1.2137
   55CHL1  H27C 5250   5.307   2.009   3.906 -2.6017  0.1959 -0.0376
   56CHL1    C3 5251   1.394   2.196   2.409 -0.4317 -0.2199  0.3213
   56CHL1    H3 5252   1.375   2.087   2.410  1.9261 -0.9119 -3.8909
   56CHL1    O3 5253   1.416   2.229   2.270  0.2461 -0.4788  0.3619
   56CHL1   H3' 5254   1.420   2.325   2.260  1.3097 -0.5895 -0.4276
   56CHL1    C4 5255   1.272   2.275   2.467  0.4501  0.3880 -0.2282
   56CHL1   H4A 5256   1.297   2.383   2.459 -0.8007  1.0113  2.8594
   56CHL1   H4B 5257   1.185   2.251   2.402  0.6444 -1.7779  0.2259
   56CHL1    C5 5258   1.256   2.234   2.615  0.5177 -0.2464 -0.3549
   56CHL1    C6 5259   1.142   2.184   2.667  0.1750  0.4796 -0.2358
   56CHL1    H6 5260   1.056   2.176   2.598 -0.3073 -0.0108  0.4050
   56CHL1    C7 5261   1.121   2.162   2.818 -0.6399 -0.4015  0.1239
   56CHL1   H7A 5262   1.022   2.196   2.856 -0.9561  1.1703 -1.9430
   56CHL1   H7B 5263   1.121   2.053   2.838  1.7291 -0.3752  0.5286
   56CHL1    C8 5264   1.226   2.229   2.914 -0.8828  0.0395  0.2933
   56CHL1    H8 5265   1.186   2.332   2.915 -0.2720  0.2837  0.0516
   56CHL1   C14 5266   1.220   2.163   3.044 -0.6066 -0.0920  1.4467
   56CHL1   H14 5267   1.248   2.057   3.023  1.5188  0.8312 -0.8023
   56CHL1   C15 5268   1.085   2.146   3.120 -0.4948  0.0839 -0.4779
   56CHL1  H15A 5269   1.021   2.236   3.117  0.5070  0.8363  0.2184
   56CHL1  H15B 5270   1.027   2.060   3.080 -0.1011 -0.9035  1.0056
   56CHL1   C16 5271   1.123   2.119   3.265  0.4345 -0.8577  0.6613
   56CHL1  H16A 5272   1.076   2.193   3.334 -0.4430 -0.4535 -0.3463
   56CHL1  H16B 5273   1.080   2.021   3.297 -0.7399  0.1735  2.4389
   56CHL1   C17 5274   1.276   2.134   3.266 -0.5013 -0.7599  0.0557
   56CHL1   H17 5275   1.329   2.036   3.256  1.3347  0.2552 -0.7022
   56CHL1   C13 5276   1.321   2.220   3.144 -0.6238 -0.0742  0.1144
   56CHL1   C18 5277   1.302   2.371   3.181  1.3992  1.2126 -0.0164
   56CHL1  H18A 5278   1.368   2.417   3.257 -2.0283  2.7060  2.3219
   56CHL1  H18B 5279   1.312   2.439   3.094  1.8622  1.3142  0.1161
   56CHL1  H18C 5280   1.196   2.382   3.214  0.9596  0.8524 -1.2553
   56CHL1   C12 5281   1.457   2.184   3.091 -0.1083 -0.1023 -0.5963
   56CHL1  H12A 5282   1.537   2.211   3.164 -0.5006 -1.6629  0.4813
   56CHL1  H12B 5283   1.470   2.075   3.074  0.7518 -0.2650  0.8780
   56CHL1   C11 5284   1.482   2.245   2.950  0.6367 -0.5282 -0.0127
   56CHL1  H11A 5285   1.477   2.354   2.970  0.8482 -0.5239  0.0248
   56CHL1  H11B 5286   1.577   2.207   2.907  1.1429 -1.1696  1.5601
   56CHL1    C9 5287   1.366   2.209   2.848 -0.0084  0.1766 -0.1767
   56CHL1    H9 5288   1.377   2.099   2.837  1.0033 -0.0692  2.6892
   56CHL1   C10 5289   1.378   2.268   2.704 -1.0728  0.5733 -0.2817
   56CHL1   C19 5290   1.402   2.424   2.720  0.5224  0.4075  0.6640
   56CHL1  H19A 5291   1.500   2.445   2.769  0.3748  0.8618  0.7719
   56CHL1  H19B 5292   1.402   2.475   2.622  0.3267 -1.4602 -0.3610
   56CHL1  H19C 5293   1.317   2.457   2.784  0.4034  0.3091  0.5578
   56CHL1    C1 5294   1.504   2.208   2.635 -0.4285  0.4255  0.2475
   56CHL1   H1A 5295   1.594   2.247   2.688  0.4252  2.1188 -2.2505
   56CHL1   H1B 5296   1.487   2.099   2.653 -0.7153  0.8061  2.4273
   56CHL1    C2 5297   1.524   2.239   2.484  0.3094  0.1333 -0.3879
   56CHL1   H2A 5298   1.608   2.190   2.430 -1.9449 -1.9480 -2.2551
   56CHL1   H2B 5299   1.546   2.347   2.473  1.7174  0.1367  1.8537
   56CHL1   C20 5300   1.327   2.189   3.402  0.6123 -0.5541 -0.0596
   56CHL1   H20 5301   1.299   2.296   3.413  0.0775 -0.7478  0.4596
   56CHL1   C21 5302   1.484   2.184   3.419  0.0733 -0.1180 -0.4355
   56CHL1  H21A 5303   1.516   2.079   3.403  1.3214  0.2438 -0.4352
   56CHL1  H21B 5304   1.506   2.209   3.525 -0.7357 -1.5374  0.0977
   56CHL1  H21C 5305   1.537   2.264   3.362 -1.7048  1.8106  0.4992
   56CHL1   C22 5306   1.254   2.120   3.516  0.2397 -0.6002 -0.0741
   56CHL1  H22A 5307   1.208   2.023   3.486 -0.1829 -0.2909 -0.4481
   56CHL1  H22B 5308   1.335   2.089   3.585  0.0832 -1.1449 -0.1292
   56CHL1   C23 5309   1.162   2.206   3.605  0.7198  0.5894 -0.0793
   56CHL1  H23A 5310   1.233   2.275   3.655  2.1264  1.4205 -3.0127
   56CHL1  H23B 5311   1.102   2.273   3.540  0.6398  0.5034 -0.0948
   56CHL1   C24 5312   1.070   2.129   3.695  0.2144  0.0216 -0.2818
   56CHL1  H24A 5313   0.992   2.203   3.725 -1.3692 -0.9635 -1.7479
   56CHL1  H24B 5314   1.001   2.055   3.649  0.6314 -1.7182  1.7627
   56CHL1   C25 5315   1.133   2.050   3.804 -0.5239 -0.1784 -0.2138
   56CHL1   H25 5316   1.197   1.969   3.764  0.9421  1.2296 -0.8638
   56CHL1   C26 5317   1.217   2.130   3.903 -0.0540  0.8864 -0.6473
   56CHL1  H26A 5318   1.272   2.070   3.978 -2.0553 -0.1903  0.0413
   56CHL1  H26B 5319   1.283   2.197   3.844 -2.1582  2.1979 -1.6336
   56CHL1  H26C 5320   1.155   2.208   3.952  1.3600  0.8655  1.2997
   56CHL1   C27 5321   1.016   1.975   3.881  0.2301 -0.1786  0.1078
   56CHL1  H27A 5322   0.973   1.899   3.813  1.4399 -0.1582 -0.7077
   56CHL1  H27B 5323   1.054   1.922   3.971 -0.6868 -0.5538  0.2858
   56CHL1  H27C 5324   0.944   2.048   3.923 -0.2722  0.2137 -1.3866
   57CHL1    C3 5325   6.040   2.010   2.430 -0.1768 -0.3259  0.1247
   57CHL1    H3 5326   5.934   2.044   2.435  0.7150  3.0111 -1.0622
   57CHL1    O3 5327   6.084   2.014   2.296  0.0963 -0.0347  1.0187
   57CHL1   H3' 5328   6.177   2.035   2.310  0.0520 -0.1125  1.4532
   57CHL1    C4 5329   6.127   2.118   2.502 -0.3984  0.6537 -0.1383
   57CHL1   H4A 5330   6.231   2.080   2.490 -0.4645 -0.4430  2.2558
   57CHL1   H4B 5331   6.114   2.211   2.442 -0.4639 -0.5250 -2.0288
   57CHL1    C5 5332   6.104   2.127   2.650  0.6973  0.2968  0.3249
   57CHL1    C6 5333   6.049   2.238   2.699 -0.5953  0.4133 -0.0194
   57CHL1    H6 5334   6.044   2.325   2.632  0.8929  0.3654 -0.2181
   57CHL1    C7 5335   6.022   2.259   2.847  0.5247  0.3057 -0.0965
   57CHL1   H7A 5336   6.068   2.357   2.871  0.6458  0.1188  0.4399
   57CHL1   H7B 5337   5.912   2.271   2.858  0.4012 -2.0720  2.0532
   57CHL1    C8 5338   6.084   2.149   2.937 -0.1621  0.2331 -0.3766
   57CHL1    H8 5339   6.191   2.177   2.946 -0.7936  2.7178  0.1294
   57CHL1   C14 5340   6.024   2.157   3.078  0.2004  0.4309  0.1158
   57CHL1   H14 5341   5.915   2.142   3.061  0.5577 -0.1985 -1.9676
   57CHL1   C15 5342   6.037   2.282   3.173  0.0175  0.1504 -0.3855
   57CHL1  H15A 5343   6.140   2.319   3.157 -0.2697  0.8143 -0.7401
   57CHL1  H15B 5344   5.976   2.372   3.152  0.1416  0.5764  0.9835
   57CHL1   C16 5345   6.021   2.225   3.311 -0.8983  0.4159 -0.1235
   57CHL1  H16A 5346   6.121   2.246   3.355  0.2366  0.5277 -2.6176
   57CHL1  H16B 5347   5.946   2.273   3.378 -0.5682  0.1763  0.4259
   57CHL1   C17 5348   6.004   2.068   3.294  0.4656  0.3683 -0.0826
   57CHL1   H17 5349   5.896   2.059   3.269  0.8769 -0.6194 -1.6285
   57CHL1   C13 5350   6.075   2.037   3.159  0.4324 -0.3375 -1.0103
   57CHL1   C18 5351   6.229   2.045   3.186  0.1168  0.5697  0.3027
   57CHL1  H18A 5352   6.286   2.048   3.091  0.0103  1.0819  0.2522
   57CHL1  H18B 5353   6.256   2.137   3.241  0.2296  0.7740 -0.0892
   57CHL1  H18C 5354   6.254   1.954   3.245  0.2968  0.1583 -0.3927
   57CHL1   C12 5355   6.042   1.897   3.095  0.5102  0.0362  1.0138
   57CHL1  H12A 5356   6.076   1.811   3.155 -0.3414 -0.8488  0.2664
   57CHL1  H12B 5357   5.931   1.900   3.086  0.3621  3.2648  2.4640
   57CHL1   C11 5358   6.100   1.890   2.954  0.6779  0.7837  0.1533
   57CHL1  H11A 5359   6.211   1.895   2.968  0.3592  1.9102  3.1524
   57CHL1  H11B 5360   6.078   1.791   2.909  2.2973 -0.4196  1.8386
   57CHL1    C9 5361   6.058   2.009   2.872  0.1724 -0.0664 -1.0280
   57CHL1    H9 5362   5.947   1.999   2.868  0.3614 -3.1808 -0.9650
   57CHL1   C10 5363   6.122   2.003   2.733 -0.2686  0.1922  0.1019
   57CHL1   C19 5364   6.284   1.988   2.733 -0.1142  0.0087  0.3785
   57CHL1  H19A 5365   6.334   2.074   2.782  0.8594  0.9127 -2.0337
   57CHL1  H19B 5366   6.318   1.895   2.783 -0.5879 -0.9062 -0.9476
   57CHL1  H19C 5367   6.336   1.992   2.635  0.1314  3.7102  0.5344
   57CHL1    C1 5368   6.069   1.874   2.653  0.1778 -0.9225 -0.1053
   57CHL1   H1A 5369   6.115   1.783   2.698 -1.2234 -0.2501  2.9414
   57CHL1   H1B 5370   5.962   1.874   2.681 -0.0853  0.2156 -1.0653
   57CHL1    C2 5371   6.078   1.875   2.500 -0.1383 -0.5888 -0.5910
   57CHL1   H2A 5372   6.004   1.797   2.470 -1.5361  0.3711  0.2127
   57CHL1   H2B 5373   6.174   1.824   2.477  0.6209  0.4722  0.1677
   57CHL1   C20 5374   6.014   1.970   3.412 -0.2302  0.0318 -0.0010
   57CHL1   H20 5375   6.056   1.882   3.358  0.9067  0.7199 -0.2699
   57CHL1   C21 5376   5.874   1.943   3.467 -0.2561  0.0136  0.4290
   57CHL1  H21A 5377   5.821   2.030   3.510 -0.6400  0.5167 -1.0084
   57CHL1  H21B 5378   5.888   1.871   3.551  0.5962  0.7480  0.9343
   57CHL1  H21C 5379   5.812   1.894   3.389  1.3907  0.3227 -1.1373
   57CHL1   C22 5380   6.124   2.007   3.521  0.7572  1.0535  0.1785
   57CHL1  H22A 5381   6.216   2.008   3.459  1.0436 -1.3094  0.4703
   57CHL1  H22B 5382   6.103   2.108   3.560 -0.7655  0.8861 -0.1284
   57CHL1   C23 5383   6.138   1.912   3.627  0.0494  0.3696  0.8125
   57CHL1  H23A 5384   6.041   1.877   3.669  0.4494 -1.5629  0.2518
   57CHL1  H23B 5385   6.176   1.815   3.589  0.8458  0.5270  1.1889
   57CHL1   C24 5386   6.246   1.961   3.721 -0.1068  0.1271 -0.1743
   57CHL1  H24A 5387   6.346   1.981   3.677 -0.7536 -0.0473 -1.7833
   57CHL1  H24B 5388   6.214   2.060   3.758  1.1014  0.4923 -0.0598
   57CHL1   C25 5389   6.262   1.871   3.840  0.0104  0.0801  0.4686
   57CHL1   H25 5390   6.272   1.766   3.804  3.4346  0.7407 -0.8903
   57CHL1   C26 5391   6.388   1.889   3.924  0.0241  0.5788  0.5451
   57CHL1  H26A 5392   6.397   1.995   3.955 -0.4549  1.2051 -1.3141
   57CHL1  H26B 5393   6.402   1.826   4.014 -0.4024 -1.4175 -0.7174
   57CHL1  H26C 5394   6.484   1.871   3.871 -0.5357  0.7958 -0.5683
   57CHL1   C27 5395   6.131   1.884   3.920 -0.1387  0.0623 -1.1355
   57CHL1  H27A 5396   6.155   1.945   4.010  0.0800 -1.9620  0.2564
   57CHL1  H27B 5397   6.051   1.933   3.860 -0.8199 -1.2586 -1.3303
   57CHL1  H27C 5398   6.090   1.787   3.955 -0.2453  1.0024  1.5945
   58CHL1    C3 5399   3.797   1.688   2.192  0.1399 -0.0117 -1.0788
   58CHL1    H3 5400   3.722   1.606   2.190  0.0115  0.0805 -0.4615
   58CHL1    O3 5401   3.768   1.784   2.097  0.4947 -0.5192  0.0790
   58CHL1   H3' 5402   3.804   1.870   2.125 -0.2046 -0.4567  0.8296
   58CHL1    C4 5403   3.779   1.747   2.334 -0.0419 -0.1043 -0.8970
   58CHL1   H4A 5404   3.833   1.844   2.342 -0.2421 -0.1382  1.3397
   58CHL1   H4B 5405   3.674   1.777   2.355  0.5016  1.1439  0.1607
   58CHL1    C5 5406   3.830   1.643   2.435  0.7505  0.3380 -0.5310
   58CHL1    C6 5407   3.745   1.597   2.534  1.0684  0.3207 -0.0666
   58CHL1    H6 5408   3.652   1.657   2.538  1.2329  0.6140 -0.5240
   58CHL1    C7 5409   3.788   1.508   2.646 -0.2901 -0.5668 -0.7055
   58CHL1   H7A 5410   3.764   1.548   2.747  1.2003 -0.6759 -0.2822
   58CHL1   H7B 5411   3.747   1.405   2.633  1.5961 -1.4596  0.0008
   58CHL1    C8 5412   3.940   1.487   2.649 -0.3660 -0.2419  0.3539
   58CHL1    H8 5413   3.984   1.581   2.689  1.7382  0.4300 -3.0451
   58CHL1   C14 5414   3.987   1.382   2.745  0.4203 -0.0889  0.2178
   58CHL1   H14 5415   3.956   1.282   2.709 -0.9861  0.2111  0.5383
   58CHL1   C15 5416   3.924   1.390   2.883  0.5240  0.0566  0.0803
   58CHL1  H15A 5417   3.923   1.496   2.917  4.1246  0.6369 -1.1770
   58CHL1  H15B 5418   3.823   1.346   2.873  0.5379  0.0884 -0.2047
   58CHL1   C16 5419   4.018   1.312   2.985 -0.1921  0.1868  1.1276
   58CHL1  H16A 5420   4.038   1.383   3.068 -1.6331  0.1426  1.5342
   58CHL1  H16B 5421   3.968   1.219   3.018  1.5620 -0.0669  3.3510
   58CHL1   C17 5422   4.143   1.272   2.894 -0.0800 -0.2147 -0.8571
   58CHL1   H17 5423   4.121   1.172   2.850  2.7178 -1.4896  0.4393
   58CHL1   C13 5424   4.136   1.371   2.772  0.2239 -0.7918 -0.6718
   58CHL1   C18 5425   4.204   1.508   2.815  0.3413  0.4154  0.4326
   58CHL1  H18A 5426   4.313   1.495   2.828  0.4722 -0.4588 -1.2252
   58CHL1  H18B 5427   4.185   1.588   2.739 -0.4356 -0.2751 -0.1192
   58CHL1  H18C 5428   4.169   1.528   2.918  0.6829 -1.7545  1.0052
   58CHL1   C12 5429   4.194   1.323   2.632 -0.3380 -0.4322  0.2062
   58CHL1  H12A 5430   4.305   1.315   2.641 -0.0862 -0.7206 -2.5021
   58CHL1  H12B 5431   4.146   1.224   2.616 -1.9289  0.3749 -0.1514
   58CHL1   C11 5432   4.155   1.426   2.524 -0.2321 -0.2788 -0.0496
   58CHL1  H11A 5433   4.227   1.510   2.533  0.5035 -0.9261  0.2245
   58CHL1  H11B 5434   4.188   1.377   2.429  1.3510  1.2763 -0.3696
   58CHL1    C9 5435   4.005   1.475   2.514  0.7426 -0.9957 -0.4180
   58CHL1    H9 5436   3.953   1.388   2.469 -1.5453  0.6305 -1.0996
   58CHL1   C10 5437   3.974   1.596   2.417 -0.6789 -0.7444 -0.6576
   58CHL1   C19 5438   4.065   1.717   2.457  0.0950  0.2509 -0.2765
   58CHL1  H19A 5439   4.170   1.693   2.431 -0.4136  0.3101 -2.5618
   58CHL1  H19B 5440   4.035   1.808   2.402  0.1925 -0.2162 -1.1118
   58CHL1  H19C 5441   4.060   1.732   2.567  1.0277 -0.8256 -0.0772
   58CHL1    C1 5442   3.992   1.550   2.272 -0.0435 -0.0892  0.1800
   58CHL1   H1A 5443   4.090   1.501   2.254 -0.2088 -0.9619  1.5191
   58CHL1   H1B 5444   3.922   1.464   2.258 -0.5433  0.4282 -0.6009
   58CHL1    C2 5445   3.942   1.651   2.168 -0.1078  0.1491  0.3236
   58CHL1   H2A 5446   3.950   1.611   2.065  3.2543  0.0129  0.5482
   58CHL1   H2B 5447   4.004   1.741   2.188 -0.2491 -0.3598  3.5143
   58CHL1   C20 5448   4.278   1.269   2.964 -0.0930 -0.4877 -0.1211
   58CHL1   H20 5449   4.307   1.368   3.004 -0.2405  0.8973 -3.1172
   58CHL1   C21 5450   4.395   1.205   2.880 -0.5684  0.2034 -0.5132
   58CHL1  H21A 5451   4.419   1.276   2.799 -0.7552 -2.4935 -3.0961
   58CHL1  H21B 5452   4.369   1.103   2.843 -0.3229  0.3771 -1.1689
   58CHL1  H21C 5453   4.488   1.206   2.941 -0.8081  3.5086 -0.0298
   58CHL1   C22 5454   4.254   1.168   3.076  0.3474 -0.4347  0.1693
   58CHL1  H22A 5455   4.155   1.181   3.124 -0.7388 -0.3791 -1.9804
   58CHL1  H22B 5456   4.262   1.071   3.023 -0.0217  0.2987 -1.2939
   58CHL1   C23 5457   4.359   1.174   3.197 -0.3745  0.3961 -0.3200
   58CHL1  H23A 5458   4.456   1.149   3.149  0.7285  0.9855  1.5063
   58CHL1  H23B 5459   4.360   1.277   3.238 -2.0933  0.3510 -0.1059
   58CHL1   C24 5460   4.316   1.062   3.300 -0.5255  0.0948  0.1331
   58CHL1  H24A 5461   4.213   1.079   3.338 -1.0012 -0.4376 -0.8782
   58CHL1  H24B 5462   4.308   0.972   3.236  0.0500  0.1209  0.0245
   58CHL1   C25 5463   4.417   1.060   3.421 -0.5030 -0.1744 -0.2382
   58CHL1   H25 5464   4.515   1.060   3.370  0.2590 -0.9162  1.1495
   58CHL1   C26 5465   4.420   1.185   3.497  0.0329  0.0105 -0.3218
   58CHL1  H26A 5466   4.439   1.277   3.439 -1.5718  0.4423 -0.2276
   58CHL1  H26B 5467   4.320   1.208   3.540 -0.4850  2.7493 -2.6988
   58CHL1  H26C 5468   4.499   1.184   3.575  1.6847 -3.6746 -1.8302
   58CHL1   C27 5469   4.412   0.930   3.504  0.4004 -0.2912  0.5547
   58CHL1  H27A 5470   4.494   0.923   3.578 -1.3715  1.9926  2.9213
   58CHL1  H27B 5471   4.316   0.929   3.560  0.7784  4.0208  1.6763
   58CHL1  H27C 5472   4.412   0.850   3.427 -1.7667 -0.2145  0.4378
   59CHL1    C3 5473   2.745   0.253   2.488  0.1379  0.3777  0.1517
   59CHL1    H3 5474   2.702   0.152   2.506 -1.1941  0.9030  0.0181
   59CHL1    O3 5475   2.746   0.272   2.352 -0.4950  0.5361 -0.3339
   59CHL1   H3' 5476   2.661   0.251   2.312 -0.4754  0.2126 -0.2130
   59CHL1    C4 5477   2.658   0.362   2.540 -0.1409 -0.2559 -0.4565
   59CHL1   H4A 5478   2.674   0.464   2.499 -3.6874  0.8755  0.5807
   59CHL1   H4B 5479   2.554   0.339   2.509  0.2335 -2.4185 -0.2502
   59CHL1    C5 5480   2.652   0.368   2.694 -0.1637 -0.1099 -0.1667
   59CHL1    C6 5481   2.530   0.364   2.761  0.0254  0.4961 -0.2701
   59CHL1    H6 5482   2.441   0.352   2.698 -1.0643  0.0999  1.2904
   59CHL1    C7 5483   2.524   0.390   2.906  0.6334  0.1554  0.4480
   59CHL1   H7A 5484   2.449   0.472   2.910 -0.9454 -1.0098 -2.5320
   59CHL1   H7B 5485   2.490   0.305   2.969 -1.3162  1.7456  1.6672
   59CHL1    C8 5486   2.663   0.429   2.974 -0.2620 -0.2265  0.6289
   59CHL1    H8 5487   2.682   0.537   2.956 -1.7151 -0.2045 -1.0749
   59CHL1   C14 5488   2.649   0.399   3.120  0.2456 -0.5045 -0.8778
   59CHL1   H14 5489   2.645   0.288   3.127 -0.4699 -0.3579  2.2097
   59CHL1   C15 5490   2.518   0.451   3.184 -0.1370 -0.0546 -0.3643
   59CHL1  H15A 5491   2.516   0.552   3.138 -0.5812 -0.9702 -2.4603
   59CHL1  H15B 5492   2.424   0.395   3.167  0.4889 -1.6498  1.1075
   59CHL1   C16 5493   2.557   0.469   3.334  0.0885 -0.5165 -0.5720
   59CHL1  H16A 5494   2.550   0.580   3.341 -0.4576 -0.6091  0.7378
   59CHL1  H16B 5495   2.480   0.417   3.395 -0.4621  2.6858  1.7561
   59CHL1   C17 5496   2.702   0.410   3.346  0.2677  0.3091  0.3941
   59CHL1   H17 5497   2.694   0.299   3.342  0.7630  0.3001 -1.2431
   59CHL1   C13 5498   2.767   0.437   3.207 -0.3951 -0.1544 -0.2516
   59CHL1   C18 5499   2.806   0.582   3.196  0.3288 -0.6003 -0.5853
   59CHL1  H18A 5500   2.897   0.604   3.256 -1.2566 -1.1740  2.1607
   59CHL1  H18B 5501   2.825   0.621   3.093 -0.6327  1.5747  0.0155
   59CHL1  H18C 5502   2.725   0.644   3.239  0.9243  0.4218 -0.9127
   59CHL1   C12 5503   2.880   0.337   3.162 -0.0956 -0.5638  0.4810
   59CHL1  H12A 5504   2.974   0.352   3.221  0.5308 -0.7055 -0.4702
   59CHL1  H12B 5505   2.856   0.231   3.184  1.8181 -0.5360  3.2315
   59CHL1   C11 5506   2.907   0.358   3.006 -0.1021 -0.0799  0.7696
   59CHL1  H11A 5507   2.958   0.454   2.987  1.3412 -0.9647  0.0588
   59CHL1  H11B 5508   2.985   0.284   2.981  1.1176  0.6148  2.3687
   59CHL1    C9 5509   2.779   0.349   2.912  0.9139  0.6705 -0.8438
   59CHL1    H9 5510   2.757   0.240   2.913  0.0746  0.7371 -3.3862
   59CHL1   C10 5511   2.791   0.375   2.760  0.2108 -0.0964  0.0123
   59CHL1   C19 5512   2.863   0.507   2.744 -0.1248  0.0077 -0.0514
   59CHL1  H19A 5513   2.810   0.600   2.774 -0.9621 -0.6125  0.4019
   59CHL1  H19B 5514   2.968   0.517   2.780 -0.7744 -0.7893  2.2029
   59CHL1  H19C 5515   2.876   0.527   2.635  2.4459  1.9634  0.5162
   59CHL1    C1 5516   2.882   0.271   2.698 -0.1054  0.2111 -0.0001
   59CHL1   H1A 5517   2.984   0.276   2.741  0.1157  1.4038 -0.6241
   59CHL1   H1B 5518   2.853   0.164   2.710  0.9111 -0.0531  0.2182
   59CHL1    C2 5519   2.886   0.275   2.546  0.0433  0.9983 -0.6965
   59CHL1   H2A 5520   2.959   0.200   2.510 -1.2506  0.1154 -1.5664
   59CHL1   H2B 5521   2.936   0.365   2.504 -0.9611  2.0157  0.2227
   59CHL1   C20 5522   2.771   0.441   3.473 -0.0579 -1.2004 -0.2233
   59CHL1   H20 5523   2.788   0.550   3.483  4.7490 -1.8659  1.4059
   59CHL1   C21 5524   2.904   0.378   3.485 -1.0542  0.3813 -0.0220
   59CHL1  H21A 5525   2.970   0.429   3.410  1.4521 -0.9396  1.1451
   59CHL1  H21B 5526   2.916   0.272   3.455  0.1674  0.7898 -1.1179
   59CHL1  H21C 5527   2.948   0.385   3.587  1.9579 -3.6559 -0.7731
   59CHL1   C22 5528   2.691   0.392   3.595 -0.4409  0.6357  0.3297
   59CHL1  H22A 5529   2.593   0.443   3.588  0.0016  1.8334  2.1159
   59CHL1  H22B 5530   2.661   0.287   3.574  0.2462  0.8661 -2.1306
   59CHL1   C23 5531   2.751   0.429   3.737  0.4175 -0.4576  0.4230
   59CHL1  H23A 5532   2.846   0.373   3.751  1.5257  0.9956 -0.9449
   59CHL1  H23B 5533   2.782   0.534   3.720  0.2904 -0.3182  1.0270
   59CHL1   C24 5534   2.660   0.400   3.849  1.0882 -0.8184 -0.9846
   59CHL1  H24A 5535   2.562   0.453   3.844  0.8065 -1.3104 -0.7970
   59CHL1  H24B 5536   2.633   0.292   3.850 -0.1335 -0.5401  0.2923
   59CHL1   C25 5537   2.727   0.442   3.978 -0.1305 -0.0970  0.0086
   59CHL1   H25 5538   2.786   0.530   3.946  0.2557 -0.9145 -1.6645
   59CHL1   C26 5539   2.621   0.489   4.085 -0.4461 -1.2539 -0.6296
   59CHL1  H26A 5540   2.680   0.549   4.157 -0.2529 -1.0231 -0.9767
   59CHL1  H26B 5541   2.553   0.567   4.045  1.1185 -0.3239 -1.6009
   59CHL1  H26C 5542   2.567   0.410   4.143 -0.9472 -0.0842  0.5588
   59CHL1   C27 5543   2.825   0.339   4.046  0.0842  0.0951 -0.1358
   59CHL1  H27A 5544   2.886   0.386   4.126 -0.5745  1.8891 -0.6364
   59CHL1  H27B 5545   2.768   0.255   4.091 -2.4131  0.6391 -2.0632
   59CHL1  H27C 5546   2.905   0.306   3.977 -0.5505  0.3967 -1.0305
   60CHL1    C3 5547   4.746   6.706   2.738  0.4197  0.0143 -0.0620
   60CHL1    H3 5548   4.836   6.764   2.708 -0.5833  1.7230  0.0910
   60CHL1    O3 5549   4.650   6.709   2.638  0.1185  0.5677  0.0540
   60CHL1   H3' 5550   4.584   6.773   2.666  0.8791  0.4680  2.2523
   60CHL1    C4 5551   4.786   6.564   2.779  0.2670  0.0466 -0.1733
   60CHL1   H4A 5552   4.713   6.486   2.808  1.4063 -0.6699  0.8373
   60CHL1   H4B 5553   4.825   6.526   2.682 -0.3292  0.2469 -0.4999
   60CHL1    C5 5554   4.887   6.582   2.893  0.3355 -0.0947 -0.0529
   60CHL1    C6 5555   5.012   6.529   2.885  0.1926 -0.1219  0.5952
   60CHL1    H6 5556   5.050   6.481   2.793  0.1999 -2.1491  1.5923
   60CHL1    C7 5557   5.111   6.542   2.995 -0.2019  0.6320  0.1459
   60CHL1   H7A 5558   5.169   6.447   2.993 -0.5906  0.3977 -1.0064
   60CHL1   H7B 5559   5.185   6.618   2.961 -1.2419  1.1044 -1.1360
   60CHL1    C8 5560   5.064   6.570   3.139  0.5212 -1.0086  0.0631
   60CHL1    H8 5561   5.016   6.479   3.181 -2.2691  0.9790  1.5450
   60CHL1   C14 5562   5.178   6.611   3.229 -0.4965  0.7205 -0.0822
   60CHL1   H14 5563   5.209   6.708   3.183 -1.6753  0.4196 -1.5858
   60CHL1   C15 5564   5.304   6.518   3.248  0.9710 -0.1445  0.4722
   60CHL1  H15A 5565   5.290   6.408   3.236 -0.8454  0.0576  0.5243
   60CHL1  H15B 5566   5.380   6.537   3.169  1.1626  0.5422  0.8121
   60CHL1   C16 5567   5.351   6.546   3.388 -0.2216 -0.2209  0.8489
   60CHL1  H16A 5568   5.348   6.462   3.461 -1.4310 -0.2508  0.7830
   60CHL1  H16B 5569   5.456   6.581   3.380 -0.6876  0.8079 -3.7966
   60CHL1   C17 5570   5.270   6.668   3.438  0.4850  0.6672 -0.0095
   60CHL1   H17 5571   5.323   6.755   3.394 -0.3375  1.2284  0.0949
   60CHL1   C13 5572   5.133   6.656   3.372  0.6065 -0.8553 -0.1161
   60CHL1   C18 5573   5.047   6.542   3.433 -0.1703 -0.2642  0.0280
   60CHL1  H18A 5574   5.048   6.553   3.543  1.9422 -1.6851  0.2029
   60CHL1  H18B 5575   4.941   6.541   3.398  0.0065 -2.0321 -0.5690
   60CHL1  H18C 5576   5.087   6.442   3.407  1.0398  0.4137 -0.8037
   60CHL1   C12 5577   5.045   6.783   3.357 -0.1399 -0.1909 -0.6145
   60CHL1  H12A 5578   5.009   6.808   3.459 -3.3880 -0.9964 -1.4414
   60CHL1  H12B 5579   5.115   6.861   3.321  0.4195 -0.4898 -0.1972
   60CHL1   C11 5580   4.925   6.764   3.255  0.1785  0.2778 -0.2112
   60CHL1  H11A 5581   4.848   6.709   3.312  1.0166 -0.8524 -0.1472
   60CHL1  H11B 5582   4.887   6.867   3.237 -1.3095 -0.3484 -0.8337
   60CHL1    C9 5583   4.964   6.685   3.119 -0.0019 -0.6127 -0.1539
   60CHL1    H9 5584   5.019   6.763   3.063 -0.8531 -1.0188 -1.6031
   60CHL1   C10 5585   4.844   6.658   3.021 -0.1363 -0.5419 -0.3622
   60CHL1   C19 5586   4.735   6.575   3.086 -0.0186 -0.3552 -0.5465
   60CHL1  H19A 5587   4.650   6.545   3.020  0.2029 -0.7700 -0.6424
   60CHL1  H19B 5588   4.774   6.476   3.119 -0.2330 -0.3944 -0.4110
   60CHL1  H19C 5589   4.697   6.632   3.173  1.7726  1.2706 -0.7557
   60CHL1    C1 5590   4.776   6.794   2.979 -0.1184  0.1895  0.5398
   60CHL1   H1A 5591   4.721   6.835   3.066 -0.5011  0.8708 -0.0174
   60CHL1   H1B 5592   4.864   6.862   2.970 -0.4911  0.5764 -0.2863
   60CHL1    C2 5593   4.687   6.782   2.858 -0.3359 -0.3204 -0.1377
   60CHL1   H2A 5594   4.670   6.889   2.833 -0.7646  0.4589  2.9777
   60CHL1   H2B 5595   4.589   6.738   2.887 -2.5731  3.0049 -1.9570
   60CHL1   C20 5596   5.274   6.694   3.591  0.1016  0.5246 -0.7720
   60CHL1   H20 5597   5.170   6.686   3.628 -0.4588  0.3116 -2.3121
   60CHL1   C21 5598   5.311   6.850   3.617  0.2453  0.7700 -0.9079
   60CHL1  H21A 5599   5.262   6.911   3.538 -1.0635 -0.9932 -1.5154
   60CHL1  H21B 5600   5.421   6.862   3.607  0.2641  0.5763 -0.9383
   60CHL1  H21C 5601   5.279   6.889   3.715 -2.0412 -1.0994 -0.8344
   60CHL1   C22 5602   5.346   6.595   3.682 -0.0960 -0.4214  0.5695
   60CHL1  H22A 5603   5.294   6.498   3.665 -1.3459  0.4919 -1.1042
   60CHL1  H22B 5604   5.455   6.584   3.660 -0.4604 -1.6211 -0.7834
   60CHL1   C23 5605   5.349   6.640   3.825  0.2475  0.1793  0.1214
   60CHL1  H23A 5606   5.411   6.733   3.820 -0.6693  0.7887 -0.2750
   60CHL1  H23B 5607   5.245   6.661   3.857 -0.4118 -0.7069 -1.3206
   60CHL1   C24 5608   5.415   6.537   3.912 -0.0066  0.1623  0.0802
   60CHL1  H24A 5609   5.375   6.437   3.885 -0.6797  0.7226 -1.0358
   60CHL1  H24B 5610   5.525   6.540   3.896  0.1659  0.2036  1.1937
   60CHL1   C25 5611   5.391   6.561   4.061  0.0067 -0.2323  0.4813
   60CHL1   H25 5612   5.284   6.551   4.089 -0.2643 -1.3963 -0.8551
   60CHL1   C26 5613   5.463   6.445   4.134  0.2857  0.4228 -0.6833
   60CHL1  H26A 5614   5.432   6.342   4.105 -0.5249  1.1780 -2.6691
   60CHL1  H26B 5615   5.572   6.460   4.120  0.2483  1.8749  0.3970
   60CHL1  H26C 5616   5.446   6.456   4.243  0.2155  1.0512 -0.7529
   60CHL1   C27 5617   5.442   6.691   4.111  0.2811  0.3825  0.0239
   60CHL1  H27A 5618   5.428   6.705   4.220  1.4606 -0.6072  0.3274
   60CHL1  H27B 5619   5.551   6.705   4.093 -0.0668  0.2511 -2.6137
   60CHL1  H27C 5620   5.393   6.776   4.059  2.7771  0.6136 -2.1748
   61CHL1    C3 5621   6.517   2.896   2.558 -0.1602  0.1362 -0.9657
   61CHL1    H3 5622   6.413   2.888   2.596  0.7453 -0.9436  1.5037
   61CHL1    O3 5623   6.530   2.889   2.410  0.3794 -0.6879 -0.3337
   61CHL1   H3' 5624   6.560   2.979   2.390 -0.8930  0.1967  1.4438
   61CHL1    C4 5625   6.580   3.017   2.629  0.2059  0.6878 -0.1332
   61CHL1   H4A 5626   6.684   3.038   2.598  0.1279  0.7757 -0.3350
   61CHL1   H4B 5627   6.510   3.102   2.611  0.9558  1.2878 -0.3026
   61CHL1    C5 5628   6.592   3.002   2.780  0.3151 -0.2728  0.3450
   61CHL1    C6 5629   6.531   3.102   2.854 -0.4130 -0.0773  0.1220
   61CHL1    H6 5630   6.495   3.195   2.808  2.1199  1.5714  1.2884
   61CHL1    C7 5631   6.542   3.108   3.006  0.4382 -0.1874 -0.0904
   61CHL1   H7A 5632   6.586   3.199   3.052  1.2869 -0.6999  0.1152
   61CHL1   H7B 5633   6.444   3.095   3.057  1.2174 -1.0428  1.2487
   61CHL1    C8 5634   6.643   3.002   3.063  0.3229 -0.9455 -0.2230
   61CHL1    H8 5635   6.746   3.044   3.058  1.3875 -3.2645  0.7842
   61CHL1   C14 5636   6.599   2.974   3.209 -0.9687  0.2941 -0.3115
   61CHL1   H14 5637   6.508   2.912   3.214  0.7515 -2.2915  1.1796
   61CHL1   C15 5638   6.564   3.086   3.307 -0.1150  0.0605 -0.2647
   61CHL1  H15A 5639   6.643   3.161   3.288 -1.1334  1.1755 -0.1582
   61CHL1  H15B 5640   6.465   3.132   3.290  0.1164  1.1203  1.0454
   61CHL1   C16 5641   6.581   3.026   3.451 -0.3278  0.4825 -0.3924
   61CHL1  H16A 5642   6.649   3.100   3.497 -1.9758  2.0506 -0.3446
   61CHL1  H16B 5643   6.491   3.028   3.517 -0.2551 -1.9627 -0.1027
   61CHL1   C17 5644   6.641   2.880   3.431 -0.7604 -0.1495 -0.2317
   61CHL1   H17 5645   6.550   2.816   3.424 -1.1421  0.1968  1.1835
   61CHL1   C13 5646   6.696   2.883   3.290 -0.5981 -0.1538 -0.1022
   61CHL1   C18 5647   6.837   2.956   3.293  0.3432  0.1358 -0.7697
   61CHL1  H18A 5648   6.834   3.054   3.345 -0.8109  0.4859 -1.4587
   61CHL1  H18B 5649   6.900   2.891   3.357 -1.1340  0.8617  1.5299
   61CHL1  H18C 5650   6.885   2.970   3.194  3.4323 -0.8450  0.4566
   61CHL1   C12 5651   6.697   2.754   3.210 -0.2622 -0.3531  0.6904
   61CHL1  H12A 5652   6.775   2.692   3.261 -2.0940  0.1935  4.5120
   61CHL1  H12B 5653   6.594   2.711   3.207 -1.9506  3.3642 -1.8044
   61CHL1   C11 5654   6.733   2.777   3.061  0.3669  0.2499  0.4909
   61CHL1  H11A 5655   6.833   2.826   3.056  0.4116  0.0958 -0.4831
   61CHL1  H11B 5656   6.748   2.677   3.014  2.3003  0.2664  0.9751
   61CHL1    C9 5657   6.630   2.865   2.988 -0.3189 -0.1309 -0.5169
   61CHL1    H9 5658   6.532   2.817   3.013 -0.0829 -0.2931  0.1202
   61CHL1   C10 5659   6.653   2.874   2.834 -0.0943 -0.5218 -0.3554
   61CHL1   C19 5660   6.802   2.867   2.811 -0.8269  0.4352 -0.1829
   61CHL1  H19A 5661   6.857   2.774   2.839 -1.2594 -0.1614 -1.2680
   61CHL1  H19B 5662   6.842   2.890   2.710  2.6607 -0.4556  0.8266
   61CHL1  H19C 5663   6.850   2.952   2.864 -0.0189  0.3323 -0.7306
   61CHL1    C1 5664   6.583   2.757   2.760  0.0285  0.0700  0.2699
   61CHL1   H1A 5665   6.618   2.656   2.791  0.6882  0.6758  1.6314
   61CHL1   H1B 5666   6.474   2.761   2.781 -0.0141  1.0312 -0.0802
   61CHL1    C2 5667   6.590   2.769   2.609  0.0528  0.5847 -0.2011
   61CHL1   H2A 5668   6.541   2.684   2.558 -0.8319  0.3027  1.0869
   61CHL1   H2B 5669   6.690   2.761   2.561  0.1923 -0.5126  0.2584
   61CHL1   C20 5670   6.718   2.831   3.557  1.2182  0.1553 -0.7700
   61CHL1   H20 5671   6.817   2.881   3.556 -0.7601  4.5269  0.4161
   61CHL1   C21 5672   6.724   2.689   3.545  0.3295 -0.1060 -0.0292
   61CHL1  H21A 5673   6.748   2.659   3.441 -0.0460  0.9223 -0.4227
   61CHL1  H21B 5674   6.633   2.636   3.581  1.5658 -0.9330  2.0445
   61CHL1  H21C 5675   6.795   2.636   3.613 -0.0461 -0.2502  0.2569
   61CHL1   C22 5676   6.645   2.870   3.689 -0.3611  0.2882 -0.7646
   61CHL1  H22A 5677   6.628   2.979   3.704  2.0327  0.6184 -0.0582
   61CHL1  H22B 5678   6.546   2.821   3.704  1.1648 -2.7770  0.0728
   61CHL1   C23 5679   6.722   2.833   3.816  0.1159 -0.2180 -0.1371
   61CHL1  H23A 5680   6.720   2.724   3.839  4.3190  0.0703  2.6257
   61CHL1  H23B 5681   6.828   2.863   3.801  0.4020 -1.3682 -0.5196
   61CHL1   C24 5682   6.667   2.898   3.946  0.0337  0.2825 -0.3402
   61CHL1  H24A 5683   6.667   3.008   3.933  0.3564  0.2228 -0.8896
   61CHL1  H24B 5684   6.558   2.876   3.947 -0.8928  4.1200 -1.6523
   61CHL1   C25 5685   6.748   2.875   4.078 -1.4443  0.7552  0.0490
   61CHL1   H25 5686   6.754   2.765   4.095  0.8938  0.7607 -0.5482
   61CHL1   C26 5687   6.897   2.927   4.068  0.1264 -0.7365 -0.7352
   61CHL1  H26A 5688   6.894   3.034   4.037  0.3113 -0.6126 -0.3354
   61CHL1  H26B 5689   6.942   2.925   4.169 -0.2896 -0.6725 -0.5464
   61CHL1  H26C 5690   6.961   2.879   3.991 -0.2699 -2.7047  0.0968
   61CHL1   C27 5691   6.673   2.934   4.200  0.9632 -0.0038 -0.8872
   61CHL1  H27A 5692   6.709   2.887   4.294  0.6446  0.0178 -0.7555
   61CHL1  H27B 5693   6.679   3.045   4.201 -0.5909  0.0968 -0.7051
   61CHL1  H27C 5694   6.568   2.906   4.182  1.1634 -0.6059 -1.1391
   62CHL1    C3 5695   1.029   2.921   2.721 -0.7676  0.3190 -0.1412
   62CHL1    H3 5696   1.024   3.018   2.776  2.7702  0.0298  0.9871
   62CHL1    O3 5697   1.062   2.939   2.586  0.2836 -0.2615  0.6139
   62CHL1   H3' 5698   0.981   2.946   2.535  1.2741  0.1577 -0.9698
   62CHL1    C4 5699   1.149   2.847   2.788 -0.2276 -0.3061 -0.0804
   62CHL1   H4A 5700   1.159   2.749   2.738  0.8009 -0.2128 -0.0926
   62CHL1   H4B 5701   1.243   2.905   2.776 -1.8444  2.6712  0.6669
   62CHL1    C5 5702   1.121   2.813   2.929  0.7752 -0.2521  0.6110
   62CHL1    C6 5703   1.207   2.845   3.023  0.2058 -0.1263 -0.2263
   62CHL1    H6 5704   1.297   2.903   2.996  1.3001 -1.7002 -0.1184
   62CHL1    C7 5705   1.195   2.810   3.168 -0.2050  0.4246 -0.2365
   62CHL1   H7A 5706   1.295   2.774   3.201  0.0975  1.2585 -0.2269
   62CHL1   H7B 5707   1.178   2.898   3.234 -0.4061  1.2197 -1.3245
   62CHL1    C8 5708   1.079   2.713   3.201 -0.1527  0.0303 -0.3292
   62CHL1    H8 5709   1.124   2.612   3.192 -0.2646 -0.3825  2.6374
   62CHL1   C14 5710   1.045   2.725   3.350 -0.4341  0.1049  0.4267
   62CHL1   H14 5711   1.011   2.829   3.367 -1.9537 -0.5559  1.6577
   62CHL1   C15 5712   1.158   2.704   3.451 -0.0491 -0.5473 -0.7635
   62CHL1  H15A 5713   1.218   2.618   3.413 -2.3146 -1.4050 -2.6402
   62CHL1  H15B 5714   1.222   2.795   3.449 -1.6750  0.7203  1.2663
   62CHL1   C16 5715   1.084   2.673   3.579 -0.2092  0.1327 -0.7251
   62CHL1  H16A 5716   1.126   2.580   3.623  0.0388  0.1150 -0.9965
   62CHL1  H16B 5717   1.097   2.750   3.658  1.3700  1.2641 -2.0282
   62CHL1   C17 5718   0.930   2.660   3.548 -0.5530  0.1942  0.8508
   62CHL1   H17 5719   0.884   2.759   3.564 -2.1064 -0.7670  2.8574
   62CHL1   C13 5720   0.925   2.641   3.396 -0.6586  0.4530  0.5626
   62CHL1   C18 5721   0.953   2.493   3.351 -0.6336 -0.7571 -0.5139
   62CHL1  H18A 5722   1.046   2.471   3.408  1.1144  3.5282 -1.2863
   62CHL1  H18B 5723   0.869   2.429   3.384 -1.7502 -0.0290 -1.8347
   62CHL1  H18C 5724   0.964   2.486   3.241  2.2689 -0.4733 -0.3196
   62CHL1   C12 5725   0.801   2.691   3.311 -0.5000 -0.3381  0.7147
   62CHL1  H12A 5726   0.713   2.628   3.337 -0.4133 -0.4919  0.6368
   62CHL1  H12B 5727   0.776   2.797   3.332 -0.8919 -0.1468 -0.6105
   62CHL1   C11 5728   0.829   2.695   3.163  0.5803  0.2447 -0.3679
   62CHL1  H11A 5729   0.806   2.591   3.129 -0.2622  0.4824 -0.5391
   62CHL1  H11B 5730   0.763   2.771   3.116 -0.2082 -1.3204 -1.9698
   62CHL1    C9 5731   0.962   2.752   3.114  0.3267 -0.1489  0.1837
   62CHL1    H9 5732   0.941   2.857   3.144  0.7658 -0.2892  1.0262
   62CHL1   C10 5733   0.991   2.742   2.965 -0.0775  0.4950  0.3218
   62CHL1   C19 5734   1.008   2.590   2.917 -0.3957  0.5011  0.7282
   62CHL1  H19A 5735   1.096   2.539   2.961 -1.0155 -0.6447  0.6808
   62CHL1  H19B 5736   0.911   2.544   2.947 -0.6197 -0.1730 -0.8953
   62CHL1  H19C 5737   1.017   2.575   2.807 -1.1503  0.7747  0.6217
   62CHL1    C1 5738   0.872   2.804   2.888  0.0801  0.2817  0.5082
   62CHL1   H1A 5739   0.782   2.741   2.904  1.8362 -2.4810  0.1920
   62CHL1   H1B 5740   0.868   2.900   2.943 -0.0410  1.0545 -0.8256
   62CHL1    C2 5741   0.900   2.844   2.740 -0.5022 -0.1860  0.4466
   62CHL1   H2A 5742   0.820   2.907   2.697 -0.9971 -0.9765  0.1946
   62CHL1   H2B 5743   0.901   2.752   2.678 -0.5621  0.0911  0.0328
   62CHL1   C20 5744   0.841   2.563   3.630  0.0535  0.5917  0.0658
   62CHL1   H20 5745   0.873   2.460   3.602 -1.0987  0.8118 -2.3750
   62CHL1   C21 5746   0.686   2.583   3.602  0.2674  0.2367 -1.1016
   62CHL1  H21A 5747   0.643   2.545   3.507 -1.4593 -1.0301  0.1285
   62CHL1  H21B 5748   0.649   2.687   3.615 -2.9944 -1.1297  3.1062
   62CHL1  H21C 5749   0.623   2.526   3.674 -0.3689 -0.4895 -2.2131
   62CHL1   C22 5750   0.863   2.586   3.784 -0.3264  0.4547  0.3403
   62CHL1  H22A 5751   0.890   2.692   3.808  0.3211  0.5933 -0.9023
   62CHL1  H22B 5752   0.764   2.575   3.833 -0.5001  1.9886  0.3960
   62CHL1   C23 5753   0.975   2.493   3.846 -0.1666  0.0159  0.0472
   62CHL1  H23A 5754   0.951   2.386   3.826 -1.2551  0.0559  1.0282
   62CHL1  H23B 5755   1.071   2.497   3.791 -1.4503  1.0468 -2.2875
   62CHL1   C24 5756   0.999   2.490   3.999  0.0767 -0.0193  0.0673
   62CHL1  H24A 5757   0.923   2.429   4.053 -1.5391  0.5375 -1.4926
   62CHL1  H24B 5758   1.097   2.444   4.026 -0.8334 -0.3316  3.2590
   62CHL1   C25 5759   0.995   2.622   4.079  0.3364 -0.1057 -0.0063
   62CHL1   H25 5760   0.911   2.686   4.045 -0.4665 -1.4977 -0.7565
   62CHL1   C26 5761   0.967   2.608   4.234  0.3025  0.5883 -0.1700
   62CHL1  H26A 5762   0.879   2.542   4.248  1.4565 -1.3155 -1.4109
   62CHL1  H26B 5763   1.044   2.547   4.287  0.5569  0.5787 -0.5425
   62CHL1  H26C 5764   0.949   2.708   4.278 -1.3505  0.4569 -0.5073
   62CHL1   C27 5765   1.125   2.697   4.075 -0.0656 -0.1268 -0.4489
   62CHL1  H27A 5766   1.115   2.798   4.119  1.9558 -0.3310  0.6041
   62CHL1  H27B 5767   1.209   2.647   4.127  1.8770  3.3815  0.0804
   62CHL1  H27C 5768   1.153   2.706   3.968 -1.4824  0.8738 -0.7586
   63CHL1    C3 5769   5.481   6.113   2.510  0.5467 -0.1134 -0.3884
   63CHL1    H3 5770   5.554   6.031   2.492  0.8399 -0.2448  1.2988
   63CHL1    O3 5771   5.417   6.145   2.389  0.0353  0.3347 -0.4134
   63CHL1   H3' 5772   5.369   6.221   2.423 -0.2729  0.3016 -0.7704
   63CHL1    C4 5773   5.374   6.066   2.614  0.0948 -0.1695 -0.2254
   63CHL1   H4A 5774   5.297   6.146   2.620  0.2203 -0.0444 -0.2615
   63CHL1   H4B 5775   5.318   5.984   2.564  2.2476 -1.2126 -1.0429
   63CHL1    C5 5776   5.415   6.039   2.751 -0.5556 -0.3218 -0.9432
   63CHL1    C6 5777   5.390   5.922   2.810 -0.3648  0.0100 -1.1039
   63CHL1    H6 5778   5.339   5.844   2.752 -0.7357  1.7489 -3.2646
   63CHL1    C7 5779   5.420   5.895   2.957  0.0004  0.3970  0.5225
   63CHL1   H7A 5780   5.334   5.857   3.015 -0.5108 -0.4086 -0.7128
   63CHL1   H7B 5781   5.504   5.822   2.962  0.4521  0.9572  1.4403
   63CHL1    C8 5782   5.470   6.024   3.033  0.7274 -0.3315  0.0124
   63CHL1    H8 5783   5.380   6.087   3.047  1.5854  1.0702 -0.5266
   63CHL1   C14 5784   5.533   5.980   3.161  0.6468  0.1381 -0.0790
   63CHL1   H14 5785   5.616   5.911   3.134  0.0041 -1.1373  1.0775
   63CHL1   C15 5786   5.452   5.889   3.251 -0.0783  0.1346  0.5352
   63CHL1  H15A 5787   5.349   5.930   3.262 -0.3687 -0.5700  0.4624
   63CHL1  H15B 5788   5.446   5.785   3.214 -2.0498 -0.2430  1.7774
   63CHL1   C16 5789   5.522   5.900   3.389 -0.2965 -0.5511  0.4763
   63CHL1  H16A 5790   5.442   5.933   3.459  1.6072 -0.7634  2.8684
   63CHL1  H16B 5791   5.559   5.803   3.426 -0.9678  0.8513  5.5478
   63CHL1   C17 5792   5.637   6.011   3.365 -0.3418  0.3484  0.0510
   63CHL1   H17 5793   5.722   5.944   3.339  0.0993  0.5981  0.8094
   63CHL1   C13 5794   5.599   6.092   3.247  0.2166  0.0657  0.3839
   63CHL1   C18 5795   5.492   6.193   3.289 -0.1990 -0.0593  0.5624
   63CHL1  H18A 5796   5.538   6.282   3.337 -0.8205  0.0633  0.9333
   63CHL1  H18B 5797   5.433   6.236   3.205 -0.5241  0.9650  1.2965
   63CHL1  H18C 5798   5.420   6.141   3.355 -1.2564  1.3303  0.5456
   63CHL1   C12 5799   5.706   6.157   3.155 -0.1348  0.9214 -0.5696
   63CHL1  H12A 5800   5.750   6.237   3.219 -0.4867 -0.3906  1.4140
   63CHL1  H12B 5801   5.783   6.079   3.136  1.1115  0.8665  3.6460
   63CHL1   C11 5802   5.645   6.211   3.027 -0.1912 -0.0142  0.4836
   63CHL1  H11A 5803   5.568   6.288   3.049 -0.0226 -0.2195  1.8571
   63CHL1  H11B 5804   5.717   6.266   2.963  0.0856 -0.0284  0.7822
   63CHL1    C9 5805   5.569   6.104   2.941  0.5736 -0.2185  0.2453
   63CHL1    H9 5806   5.640   6.026   2.905 -1.3111 -1.3080 -1.3883
   63CHL1   C10 5807   5.507   6.155   2.807  0.3675  0.3771  0.0637
   63CHL1   C19 5808   5.405   6.270   2.838  0.3239  0.6143 -0.0846
   63CHL1  H19A 5809   5.461   6.354   2.883  3.0501 -0.5520 -1.0761
   63CHL1  H19B 5810   5.355   6.318   2.752 -0.6807  0.6073  0.4841
   63CHL1  H19C 5811   5.326   6.238   2.909 -1.1129  1.7051 -1.1314
   63CHL1    C1 5812   5.616   6.195   2.706  0.2132 -0.1258 -0.2226
   63CHL1   H1A 5813   5.667   6.285   2.746  0.5225 -0.5221  0.2920
   63CHL1   H1B 5814   5.689   6.111   2.718 -1.9297 -1.8180  2.1262
   63CHL1    C2 5815   5.565   6.231   2.565  0.6658  0.3239 -0.4862
   63CHL1   H2A 5816   5.650   6.255   2.498  2.1708 -0.8457  0.9082
   63CHL1   H2B 5817   5.501   6.321   2.565 -0.4277 -0.3360 -3.8599
   63CHL1   C20 5818   5.688   6.080   3.494 -0.8851  0.7461 -0.0188
   63CHL1   H20 5819   5.618   6.165   3.505 -1.2314  0.3168  1.3992
   63CHL1   C21 5820   5.836   6.128   3.471  0.3418 -0.2325 -0.0684
   63CHL1  H21A 5821   5.833   6.202   3.388  0.4750 -0.2139 -0.0560
   63CHL1  H21B 5822   5.905   6.045   3.446  0.7637  0.4461 -1.2514
   63CHL1  H21C 5823   5.874   6.179   3.562  1.3223  1.0880 -1.1725
   63CHL1   C22 5824   5.668   5.996   3.625  0.3115  0.1176  0.5654
   63CHL1  H22A 5825   5.560   5.969   3.634  1.0242 -2.8276  1.4068
   63CHL1  H22B 5826   5.712   5.895   3.614 -1.8353 -0.9498  1.1396
   63CHL1   C23 5827   5.710   6.070   3.753 -0.2948  0.4197 -0.4318
   63CHL1  H23A 5828   5.818   6.099   3.750  0.0653 -0.4093  2.2948
   63CHL1  H23B 5829   5.654   6.165   3.751  0.9784  1.1998  0.1449
   63CHL1   C24 5830   5.674   5.992   3.875 -0.2939  0.0142  0.2591
   63CHL1  H24A 5831   5.564   5.994   3.890 -0.4528 -2.3877 -0.1941
   63CHL1  H24B 5832   5.712   5.889   3.858  1.1207  0.6613 -0.6882
   63CHL1   C25 5833   5.730   6.044   4.011 -0.1897  1.0492  0.2038
   63CHL1   H25 5834   5.840   6.059   4.005 -0.4195  3.4316  0.7374
   63CHL1   C26 5835   5.654   6.171   4.041 -0.7303  0.1100  0.5719
   63CHL1  H26A 5836   5.545   6.147   4.045 -0.8049 -0.0196 -1.2587
   63CHL1  H26B 5837   5.683   6.203   4.144  2.3252  1.6033 -0.6396
   63CHL1  H26C 5838   5.675   6.257   3.974  1.3500 -0.4604  0.4331
   63CHL1   C27 5839   5.700   5.944   4.124  0.1709 -0.2700 -0.2631
   63CHL1  H27A 5840   5.769   5.980   4.203  3.0391 -1.4878 -2.0470
   63CHL1  H27B 5841   5.592   5.952   4.149  0.3265 -1.0173  0.7088
   63CHL1  H27C 5842   5.726   5.840   4.096  0.9295  0.2055 -1.3884
   64CHL1    C3 5843   2.881   4.959   2.609  0.1155 -0.1954  0.6028
   64CHL1    H3 5844   2.909   5.064   2.636 -1.0766  0.2663  0.0997
   64CHL1    O3 5845   2.889   4.945   2.463 -0.4260  0.5136  0.3342
   64CHL1   H3' 5846   2.911   4.854   2.441 -0.4975  0.9768 -1.9536
   64CHL1    C4 5847   2.978   4.867   2.677  0.2777  0.1089  0.2342
   64CHL1   H4A 5848   2.955   4.765   2.638 -0.3980  0.6560 -0.8666
   64CHL1   H4B 5849   3.077   4.887   2.630  0.5170  2.5642  1.6458
   64CHL1    C5 5850   2.981   4.885   2.827  0.8712  0.7881 -0.1969
   64CHL1    C6 5851   3.091   4.924   2.897 -0.7093  0.4451  0.6729
   64CHL1    H6 5852   3.189   4.937   2.848 -0.2765 -0.7695  1.1766
   64CHL1    C7 5853   3.093   4.929   3.047 -0.2839  0.1625 -0.2541
   64CHL1   H7A 5854   3.184   4.885   3.093 -2.0370 -0.9472  2.3975
   64CHL1   H7B 5855   3.091   5.038   3.070  1.2517  0.1373  0.0741
   64CHL1    C8 5856   2.964   4.868   3.111 -0.6421 -0.3282 -1.1597
   64CHL1    H8 5857   2.979   4.759   3.124  2.3700  0.1139  0.0268
   64CHL1   C14 5858   2.950   4.923   3.252 -0.2537  0.1094  0.4706
   64CHL1   H14 5859   2.944   5.033   3.242 -4.0593  0.0741  0.8030
   64CHL1   C15 5860   3.064   4.884   3.343  0.5558  0.9284  0.2585
   64CHL1  H15A 5861   3.098   4.778   3.340  0.1392  0.8299 -1.4142
   64CHL1  H15B 5862   3.148   4.953   3.320  0.0643  2.3994  2.4914
   64CHL1   C16 5863   3.014   4.923   3.484  0.5999  0.5994  0.1742
   64CHL1  H16A 5864   3.024   4.833   3.548  0.1909 -0.8307 -1.6867
   64CHL1  H16B 5865   3.065   5.007   3.536  1.7260 -1.5170  2.7197
   64CHL1   C17 5866   2.862   4.951   3.464 -0.1044 -0.1810 -0.3113
   64CHL1   H17 5867   2.845   5.060   3.455 -0.4863 -0.1847  0.2841
   64CHL1   C13 5868   2.823   4.886   3.331  0.2155 -0.3714  0.8823
   64CHL1   C18 5869   2.808   4.730   3.349  0.6710 -0.0266 -0.9151
   64CHL1  H18A 5870   2.804   4.692   3.244 -2.0719  2.6876 -1.9499
   64CHL1  H18B 5871   2.898   4.686   3.396  1.1075  1.1907 -0.5733
   64CHL1  H18C 5872   2.707   4.712   3.391  0.4443 -0.1384 -1.5042
   64CHL1   C12 5873   2.709   4.948   3.254  0.5420  0.5860  0.1383
   64CHL1  H12A 5874   2.614   4.918   3.303  1.6265  0.8895  2.5432
   64CHL1  H12B 5875   2.703   5.058   3.258 -0.0690  0.5187  1.6466
   64CHL1   C11 5876   2.701   4.903   3.107  0.1869  0.0120 -0.3164
   64CHL1  H11A 5877   2.675   4.795   3.105  2.3168 -0.5720  0.3440
   64CHL1  H11B 5878   2.620   4.966   3.065  0.9962  1.8454  0.7596
   64CHL1    C9 5879   2.839   4.914   3.037  0.2851 -0.2410  0.6013
   64CHL1    H9 5880   2.859   5.022   3.020  2.2140 -0.9342 -2.2972
   64CHL1   C10 5881   2.836   4.871   2.887 -0.0575  0.9414  0.1090
   64CHL1   C19 5882   2.804   4.716   2.880 -0.0646  0.0214  0.4207
   64CHL1  H19A 5883   2.892   4.650   2.895 -0.9006 -1.2963 -0.2339
   64CHL1  H19B 5884   2.721   4.689   2.949 -0.3397  1.7384  0.8151
   64CHL1  H19C 5885   2.780   4.681   2.777 -0.3643 -2.3108  1.2112
   64CHL1    C1 5886   2.734   4.949   2.808  0.4603  0.1543  0.0088
   64CHL1   H1A 5887   2.630   4.936   2.847  0.5962 -0.0260  0.3181
   64CHL1   H1B 5888   2.755   5.057   2.821  2.0399 -0.1461  0.1546
   64CHL1    C2 5889   2.739   4.935   2.652  0.1401  0.0068 -0.2354
   64CHL1   H2A 5890   2.668   5.009   2.609  0.0694 -0.9305 -1.8157
   64CHL1   H2B 5891   2.692   4.841   2.616 -3.1145  1.6182 -0.5841
   64CHL1   C20 5892   2.786   4.907   3.587 -0.3597 -0.2577  0.5520
   64CHL1   H20 5893   2.767   4.798   3.582 -1.5236 -0.0095 -2.5487
   64CHL1   C21 5894   2.652   4.979   3.598 -0.1207 -0.8449 -0.2437
   64CHL1  H21A 5895   2.590   4.917   3.666  1.8861 -0.3067  2.2367
   64CHL1  H21B 5896   2.596   5.003   3.505 -0.4022 -0.1712  0.0899
   64CHL1  H21C 5897   2.665   5.080   3.643  1.1311  0.0132 -2.3476
   64CHL1   C22 5898   2.849   4.930   3.720  0.2363 -0.0916 -0.1071
   64CHL1  H22A 5899   2.939   4.865   3.727  0.2225 -0.1869 -0.7775
   64CHL1  H22B 5900   2.887   5.032   3.741 -0.9004 -0.1547  2.7996
   64CHL1   C23 5901   2.771   4.897   3.853 -0.8473  0.2667 -0.2500
   64CHL1  H23A 5902   2.694   4.975   3.871 -0.4350  0.6403 -0.0968
   64CHL1  H23B 5903   2.716   4.801   3.845  1.8386 -1.4528  0.5701
   64CHL1   C24 5904   2.881   4.890   3.971  0.3051  0.1974 -0.5495
   64CHL1  H24A 5905   2.946   4.801   3.958  0.3455  0.2002 -0.3602
   64CHL1  H24B 5906   2.941   4.983   3.976  0.5616 -0.0461  1.8852
   64CHL1   C25 5907   2.821   4.873   4.114  0.2784  0.0204 -0.5063
   64CHL1   H25 5908   2.757   4.782   4.110 -0.8128  0.6673  1.2307
   64CHL1   C26 5909   2.929   4.843   4.222 -0.2256  0.1263 -0.9763
   64CHL1  H26A 5910   3.012   4.917   4.226  1.0983 -1.3049 -0.7025
   64CHL1  H26B 5911   2.869   4.849   4.315 -2.4357  1.0315 -2.3918
   64CHL1  H26C 5912   2.970   4.743   4.196 -0.4472 -0.0683 -0.5765
   64CHL1   C27 5913   2.737   4.993   4.161 -0.5898  0.1267  0.1719
   64CHL1  H27A 5914   2.802   5.078   4.189 -1.0655  0.5618 -0.0315
   64CHL1  H27B 5915   2.662   5.037   4.092 -1.3381 -0.0701  0.8424
   64CHL1  H27C 5916   2.691   4.961   4.257  0.4499  1.9321  1.3249
   65CHL1    C3 5917   1.413   0.725   2.647 -0.8019  0.5960 -0.0562
   65CHL1    H3 5918   1.303   0.714   2.659 -0.5441  0.3663  2.8471
   65CHL1    O3 5919   1.438   0.708   2.504 -0.1859  0.4102 -0.3167
   65CHL1   H3' 5920   1.394   0.784   2.465  0.5097  0.2503 -1.4506
   65CHL1    C4 5921   1.456   0.861   2.685  0.0399  0.3988 -0.1146
   65CHL1   H4A 5922   1.564   0.882   2.670  0.3072 -0.8163  0.0192
   65CHL1   H4B 5923   1.399   0.929   2.618 -0.9616  0.5320  0.8659
   65CHL1    C5 5924   1.434   0.889   2.831  0.3912 -0.0080  0.2718
   65CHL1    C6 5925   1.351   0.989   2.870  0.5518  0.3925 -0.5866
   65CHL1    H6 5926   1.304   1.055   2.796 -1.2222 -0.6334 -0.4447
   65CHL1    C7 5927   1.329   1.036   3.013  0.4884  0.3767  0.6252
   65CHL1   H7A 5928   1.356   1.143   3.000 -1.2313  0.8898  1.0507
   65CHL1   H7B 5929   1.222   1.023   3.042 -0.4050 -3.1385 -3.1997
   65CHL1    C8 5930   1.423   0.966   3.105  0.0243  0.3932 -0.2373
   65CHL1    H8 5931   1.518   1.022   3.102  0.6998 -0.6789  0.5047
   65CHL1   C14 5932   1.370   0.966   3.251  1.0713 -0.7196  0.5280
   65CHL1   H14 5933   1.276   0.908   3.260  0.3648  0.5484  1.7784
   65CHL1   C15 5934   1.339   1.112   3.307 -0.0007 -0.4198 -0.2666
   65CHL1  H15A 5935   1.426   1.177   3.286 -1.7407  1.8384 -0.8812
   65CHL1  H15B 5936   1.250   1.160   3.262  0.6557 -0.5578 -1.7854
   65CHL1   C16 5937   1.328   1.081   3.460  0.0993  0.0377 -0.1667
   65CHL1  H16A 5938   1.382   1.162   3.513 -0.9904  1.3142 -0.9566
   65CHL1  H16B 5939   1.220   1.085   3.484  0.1634 -0.6016  0.2585
   65CHL1   C17 5940   1.381   0.935   3.486  0.4426  0.1377  0.2002
   65CHL1   H17 5941   1.295   0.865   3.491 -0.1763  0.8176 -0.6793
   65CHL1   C13 5942   1.466   0.903   3.356  1.0606  0.0108  0.0146
   65CHL1   C18 5943   1.599   0.992   3.367  0.1649  0.5021 -0.0040
   65CHL1  H18A 5944   1.662   0.998   3.275 -0.1804 -3.0643 -0.6006
   65CHL1  H18B 5945   1.579   1.093   3.409 -0.6834 -0.2133  1.3883
   65CHL1  H18C 5946   1.677   0.946   3.432 -1.1864 -0.4549  0.9695
   65CHL1   C12 5947   1.485   0.756   3.324  0.2570  0.4431 -0.5595
   65CHL1  H12A 5948   1.548   0.698   3.395  0.4210 -0.0118 -1.0695
   65CHL1  H12B 5949   1.387   0.703   3.319  0.3996 -0.0226  1.0086
   65CHL1   C11 5950   1.535   0.736   3.177 -0.2831 -0.1722  0.1663
   65CHL1  H11A 5951   1.635   0.783   3.190 -0.9908  1.6462 -0.6150
   65CHL1  H11B 5952   1.563   0.635   3.141  3.3903  0.6835  0.2053
   65CHL1    C9 5953   1.453   0.816   3.076 -0.0764 -0.6810  0.2331
   65CHL1    H9 5954   1.351   0.772   3.085 -0.1366 -0.3426  1.3542
   65CHL1   C10 5955   1.504   0.796   2.928  0.1836 -0.5006 -0.1591
   65CHL1   C19 5956   1.661   0.829   2.926  0.1250  0.3856 -0.9184
   65CHL1  H19A 5957   1.666   0.938   2.943 -1.9207  0.4553 -0.4799
   65CHL1  H19B 5958   1.729   0.780   2.999 -0.3634  1.4873  0.3086
   65CHL1  H19C 5959   1.691   0.790   2.826 -0.7424 -2.2771 -0.2173
   65CHL1    C1 5960   1.480   0.646   2.880  0.9935 -0.3427 -0.0398
   65CHL1   H1A 5961   1.558   0.593   2.939  1.7351  2.1592  1.3646
   65CHL1   H1B 5962   1.376   0.619   2.910  0.4145 -0.9587 -2.3962
   65CHL1    C2 5963   1.494   0.629   2.727  0.3464  0.4227  1.1103
   65CHL1   H2A 5964   1.470   0.526   2.692  1.0655  1.5288 -3.1071
   65CHL1   H2B 5965   1.598   0.657   2.702 -0.0180  2.5315  1.7825
   65CHL1   C20 5966   1.457   0.931   3.623  0.5271  0.0152 -0.4279
   65CHL1   H20 5967   1.546   0.995   3.604  0.3034  0.2223 -0.7991
   65CHL1   C21 5968   1.504   0.786   3.655 -0.1604  0.2088  0.6553
   65CHL1  H21A 5969   1.588   0.763   3.586 -0.1470  2.3869 -0.1389
   65CHL1  H21B 5970   1.424   0.710   3.646 -0.5911  0.8364 -1.2518
   65CHL1  H21C 5971   1.549   0.772   3.756  0.1240  0.8269  0.6236
   65CHL1   C22 5972   1.360   0.991   3.737 -0.0579 -0.2977 -0.2379
   65CHL1  H22A 5973   1.434   1.013   3.817  1.1835 -0.4470 -1.2923
   65CHL1  H22B 5974   1.312   1.086   3.706 -0.1341 -0.3804 -0.3742
   65CHL1   C23 5975   1.258   0.894   3.808 -0.0849 -0.1357  0.3199
   65CHL1  H23A 5976   1.165   0.887   3.747 -0.8908  0.9454  1.3595
   65CHL1  H23B 5977   1.294   0.792   3.831 -1.6338 -0.4878  1.3208
   65CHL1   C24 5978   1.203   0.958   3.937 -0.1026 -0.0309 -0.6436
   65CHL1  H24A 5979   1.181   1.063   3.909 -1.2357 -0.1110 -0.0821
   65CHL1  H24B 5980   1.107   0.908   3.962 -1.0977  2.0321 -0.1882
   65CHL1   C25 5981   1.299   0.954   4.064 -0.2321 -0.7784  0.1613
   65CHL1   H25 5982   1.399   0.991   4.031 -0.4227 -0.9247 -0.5962
   65CHL1   C26 5983   1.239   1.044   4.174 -0.3155  0.2179 -1.0817
   65CHL1  H26A 5984   1.288   1.040   4.274  0.7211  0.6769 -1.5551
   65CHL1  H26B 5985   1.248   1.149   4.140  0.1781  0.8442  0.8430
   65CHL1  H26C 5986   1.135   1.012   4.198 -0.0112  0.2280  0.3614
   65CHL1   C27 5987   1.325   0.812   4.116 -0.1292  0.2241 -0.4534
   65CHL1  H27A 5988   1.351   0.739   4.036 -0.6760 -1.0519  0.5107
   65CHL1  H27B 5989   1.413   0.814   4.185  0.7710  0.5975 -1.5745
   65CHL1  H27C 5990   1.233   0.774   4.164  2.1756 -1.1326  3.3144
   66CHL1    C3 5991   6.084   2.767   2.908  0.6307 -0.4490  0.6244
   66CHL1    H3 5992   5.987   2.821   2.914  0.3001 -1.1913  2.9604
   66CHL1    O3 5993   6.121   2.743   2.773  0.4091  0.6672  0.0903
   66CHL1   H3' 5994   6.143   2.831   2.741 -1.2745  0.3481 -2.1947
   66CHL1    C4 5995   6.180   2.866   2.965  0.2806 -0.4393 -0.0920
   66CHL1   H4A 5996   6.278   2.815   2.978  1.3522  1.5309 -0.1383
   66CHL1   H4B 5997   6.189   2.960   2.907  1.1076  0.8926  2.0684
   66CHL1    C5 5998   6.159   2.903   3.108 -0.0837 -0.0503 -1.1913
   66CHL1    C6 5999   6.140   3.028   3.150 -0.8151 -0.4845  0.6363
   66CHL1    H6 6000   6.142   3.110   3.076  2.0112  0.0293  1.1343
   66CHL1    C7 6001   6.134   3.066   3.299  0.1170 -0.2706 -0.0032
   66CHL1   H7A 6002   6.206   3.146   3.327 -1.3754  0.1438  3.0037
   66CHL1   H7B 6003   6.034   3.113   3.312 -0.7714 -1.8299 -0.9640
   66CHL1    C8 6004   6.168   2.943   3.392  0.4599  0.1691 -0.1534
   66CHL1    H8 6005   6.279   2.929   3.389  0.4610  0.3496 -1.5046
   66CHL1   C14 6006   6.121   2.980   3.531 -0.0465 -0.0599 -0.3824
   66CHL1   H14 6007   6.016   3.016   3.528 -0.6125 -1.3727  1.7597
   66CHL1   C15 6008   6.193   3.097   3.599  0.1997  0.5713  0.2743
   66CHL1  H15A 6009   6.303   3.086   3.583  0.3235  2.3302 -0.3238
   66CHL1  H15B 6010   6.153   3.194   3.563  1.6336  0.6808 -1.1255
   66CHL1   C16 6011   6.174   3.068   3.748 -0.2956 -0.7856  0.7993
   66CHL1  H16A 6012   6.272   3.060   3.800  1.1860 -1.1309 -1.8456
   66CHL1  H16B 6013   6.123   3.152   3.799  1.0730 -0.0495  1.0209
   66CHL1   C17 6014   6.105   2.927   3.760 -0.3024 -0.4784 -0.5523
   66CHL1   H17 6015   5.997   2.950   3.771 -0.2500  0.7631 -2.3001
   66CHL1   C13 6016   6.133   2.861   3.624  0.4627  0.1624 -0.2885
   66CHL1   C18 6017   6.279   2.803   3.623  1.0040 -0.5039 -0.2917
   66CHL1  H18A 6018   6.343   2.889   3.651  2.8628 -2.3427  1.4029
   66CHL1  H18B 6019   6.290   2.731   3.707 -1.0610  0.7421  1.1346
   66CHL1  H18C 6020   6.307   2.769   3.521 -1.8948  1.4197 -1.8810
   66CHL1   C12 6021   6.034   2.756   3.580 -0.5945  0.1045  0.3836
   66CHL1  H12A 6022   6.043   2.674   3.654 -2.0158 -0.7301 -0.3234
   66CHL1  H12B 6023   5.931   2.799   3.572 -0.2946  0.8370  0.3350
   66CHL1   C11 6024   6.076   2.702   3.443 -0.8197  0.3121 -0.5563
   66CHL1  H11A 6025   6.174   2.653   3.460 -0.8323  1.1271  2.3345
   66CHL1  H11B 6026   6.003   2.627   3.404  1.4854 -3.6646  2.0734
   66CHL1    C9 6027   6.090   2.821   3.342 -0.0977 -0.0766 -0.6657
   66CHL1    H9 6028   5.984   2.851   3.329 -0.4021  0.3708  2.2984
   66CHL1   C10 6029   6.146   2.781   3.202 -0.4548  0.0032  0.8164
   66CHL1   C19 6030   6.272   2.701   3.229  0.5940 -0.7265  0.3153
   66CHL1  H19A 6031   6.251   2.597   3.261 -1.4515 -0.3492  0.3131
   66CHL1  H19B 6032   6.319   2.693   3.129 -1.9105 -2.2634 -0.8323
   66CHL1  H19C 6033   6.351   2.752   3.289 -2.0021  2.2559  1.5042
   66CHL1    C1 6034   6.054   2.676   3.135  0.3336 -0.0265 -0.4469
   66CHL1   H1A 6035   6.049   2.583   3.196 -0.3227  1.6299  2.1812
   66CHL1   H1B 6036   5.950   2.712   3.146  0.6987  0.5449  1.5724
   66CHL1    C2 6037   6.093   2.642   2.987  0.1344  0.9272  0.0814
   66CHL1   H2A 6038   6.026   2.563   2.948  1.2501 -0.9745  1.8424
   66CHL1   H2B 6039   6.193   2.593   2.986  0.2920  1.1594 -2.2469
   66CHL1   C20 6040   6.134   2.853   3.893 -0.3232  0.1114 -0.1340
   66CHL1   H20 6041   6.240   2.820   3.892 -0.5478 -0.7427 -2.3047
   66CHL1   C21 6042   6.054   2.727   3.911 -0.2355  0.2552 -0.2574
   66CHL1  H21A 6043   6.053   2.684   4.013  2.1864 -1.9112 -1.0563
   66CHL1  H21B 6044   6.075   2.643   3.841  1.1051 -0.1453  0.6062
   66CHL1  H21C 6045   5.947   2.755   3.896 -0.4595 -0.7398 -0.6605
   66CHL1   C22 6046   6.113   2.939   4.020  0.0747 -0.7125 -0.0055
   66CHL1  H22A 6047   6.164   3.037   4.007 -1.2842  0.2297  1.3878
   66CHL1  H22B 6048   6.006   2.968   4.025 -0.1837 -1.3189 -1.5627
   66CHL1   C23 6049   6.182   2.887   4.144 -0.1213  0.6917  0.3475
   66CHL1  H23A 6050   6.097   2.838   4.197  0.0118  2.5515  2.4143
   66CHL1  H23B 6051   6.257   2.812   4.111 -1.5783  0.6807 -3.5347
   66CHL1   C24 6052   6.226   3.006   4.222  0.4314  0.1442  0.0450
   66CHL1  H24A 6053   6.302   3.073   4.177  0.0569 -0.7922 -2.0684
   66CHL1  H24B 6054   6.138   3.073   4.241 -0.5580 -1.0231 -0.3267
   66CHL1   C25 6055   6.281   2.980   4.360 -0.4597  0.5319 -0.5011
   66CHL1   H25 6056   6.356   2.898   4.358  1.0993  1.8223  0.9686
   66CHL1   C26 6057   6.354   3.101   4.420 -0.1994  0.4049  0.4461
   66CHL1  H26A 6058   6.437   3.125   4.351 -0.0067 -0.1357  0.4834
   66CHL1  H26B 6059   6.284   3.186   4.436 -0.0533  0.3663  1.3661
   66CHL1  H26C 6060   6.400   3.065   4.515  0.5231 -1.7412 -0.6475
   66CHL1   C27 6061   6.171   2.937   4.455 -0.1777 -0.3752 -0.0942
   66CHL1  H27A 6062   6.216   2.894   4.547  1.9054 -0.7529 -1.2279
   66CHL1  H27B 6063   6.115   2.850   4.414  0.7957 -1.2541  0.3948
   66CHL1  H27C 6064   6.118   3.031   4.481  2.4188  0.7597  1.5753
   67CHL1    C3 6065   3.429   1.253   2.289 -0.5918  1.0065 -0.3007
   67CHL1    H3 6066   3.532   1.224   2.260 -0.9904 -0.9114  0.0991
   67CHL1    O3 6067   3.354   1.294   2.178 -0.4040 -0.4638 -0.5089
   67CHL1   H3' 6068   3.275   1.335   2.215  0.3010  1.9330 -1.4672
   67CHL1    C4 6069   3.364   1.127   2.343 -1.0496  0.9498 -0.1719
   67CHL1   H4A 6070   3.260   1.155   2.366 -1.1318  0.3012  0.2752
   67CHL1   H4B 6071   3.353   1.053   2.260 -1.1520  0.5479  0.1974
   67CHL1    C5 6072   3.443   1.064   2.462  0.1394  0.5764 -0.2301
   67CHL1    C6 6073   3.498   0.944   2.464 -0.8788 -0.1131  0.3923
   67CHL1    H6 6074   3.493   0.866   2.387 -0.7650 -0.6281  0.9004
   67CHL1    C7 6075   3.575   0.899   2.589  0.0491 -0.1245 -0.5482
   67CHL1   H7A 6076   3.552   0.791   2.595 -0.7210  0.0310 -0.5697
   67CHL1   H7B 6077   3.685   0.914   2.584  0.3631 -1.3636  1.5394
   67CHL1    C8 6078   3.532   0.966   2.721 -0.0431 -0.1922 -0.2893
   67CHL1    H8 6079   3.426   0.931   2.723  0.6127 -2.6221 -2.4312
   67CHL1   C14 6080   3.616   0.918   2.847 -0.0090  0.0371 -0.3427
   67CHL1   H14 6081   3.720   0.941   2.816  0.1970  1.4640  1.2870
   67CHL1   C15 6082   3.624   0.767   2.881 -0.2948  0.2886 -0.3175
   67CHL1  H15A 6083   3.525   0.717   2.888 -0.0590 -0.2916 -0.9268
   67CHL1  H15B 6084   3.677   0.702   2.808 -1.7848 -2.2299  0.6827
   67CHL1   C16 6085   3.671   0.760   3.033  0.2928  0.1812  0.1750
   67CHL1  H16A 6086   3.591   0.708   3.091  1.3326 -2.8068 -0.8907
   67CHL1  H16B 6087   3.760   0.694   3.031 -0.8915 -1.6483 -3.9126
   67CHL1   C17 6088   3.699   0.911   3.069  0.5252  0.2969  0.5804
   67CHL1   H17 6089   3.804   0.925   3.036  0.6322 -1.9099 -0.1967
   67CHL1   C13 6090   3.602   0.992   2.978  0.3416  0.0095 -0.1132
   67CHL1   C18 6091   3.456   0.976   3.025 -0.0069 -0.1135 -0.1473
   67CHL1  H18A 6092   3.381   1.040   2.973 -0.8098 -1.2693 -0.4587
   67CHL1  H18B 6093   3.420   0.874   3.001 -0.5294  0.1948 -0.7138
   67CHL1  H18C 6094   3.448   0.988   3.135 -0.6796 -3.5300  0.2882
   67CHL1   C12 6095   3.625   1.142   2.950 -0.5666  0.3615  0.6700
   67CHL1  H12A 6096   3.622   1.205   3.041  1.0617 -0.0299  1.0245
   67CHL1  H12B 6097   3.732   1.147   2.921 -0.7528  0.2109 -0.0723
   67CHL1   C11 6098   3.542   1.198   2.833  0.3826 -0.0280 -0.0526
   67CHL1  H11A 6099   3.442   1.216   2.879  0.2348 -0.8743 -0.0298
   67CHL1  H11B 6100   3.574   1.301   2.807  0.9013  0.6375  2.9445
   67CHL1    C9 6101   3.538   1.116   2.702 -0.7901 -0.5825  0.1184
   67CHL1    H9 6102   3.645   1.125   2.672 -0.8868 -3.5716 -1.4685
   67CHL1   C10 6103   3.459   1.161   2.583  0.0581  0.0040  0.4658
   67CHL1   C19 6104   3.320   1.196   2.641  0.7959 -0.1449  0.6728
   67CHL1  H19A 6105   3.320   1.282   2.711 -3.0631  0.4705  0.1058
   67CHL1  H19B 6106   3.239   1.220   2.570 -0.7162 -0.4200  2.2513
   67CHL1  H19C 6107   3.280   1.111   2.700 -1.6526 -0.2387 -0.9951
   67CHL1    C1 6108   3.519   1.285   2.519  0.3967 -0.2239 -0.2898
   67CHL1   H1A 6109   3.519   1.368   2.592 -1.6514 -0.8530  0.4948
   67CHL1   H1B 6110   3.624   1.264   2.489  1.4829  1.7674  1.8339
   67CHL1    C2 6111   3.434   1.350   2.404 -0.1219 -0.0861  0.0610
   67CHL1   H2A 6112   3.487   1.437   2.359  1.0207 -0.7960  0.0002
   67CHL1   H2B 6113   3.330   1.378   2.432  1.1974  3.3738  2.2178
   67CHL1   C20 6114   3.713   0.949   3.217 -0.5370  0.5169 -0.2023
   67CHL1   H20 6115   3.614   0.981   3.254 -0.5959  1.4126 -1.0935
   67CHL1   C21 6116   3.814   1.069   3.241 -0.3384 -0.3416  0.2785
   67CHL1  H21A 6117   3.808   1.133   3.151 -4.0949 -0.1548  0.4958
   67CHL1  H21B 6118   3.917   1.034   3.264 -0.4676 -1.2565 -0.4898
   67CHL1  H21C 6119   3.787   1.145   3.317  2.2558  0.3359  0.6287
   67CHL1   C22 6120   3.745   0.837   3.314 -0.1948 -0.7999  0.4060
   67CHL1  H22A 6121   3.661   0.766   3.306  0.4055 -1.4650 -0.1634
   67CHL1  H22B 6122   3.835   0.792   3.267 -1.3354 -0.0379 -2.7534
   67CHL1   C23 6123   3.771   0.871   3.464  0.2984 -0.7102  0.5751
   67CHL1  H23A 6124   3.846   0.948   3.490 -0.7046  0.3543  0.4200
   67CHL1  H23B 6125   3.676   0.909   3.508 -0.5523 -1.4371 -0.5543
   67CHL1   C24 6126   3.805   0.737   3.549  0.2711 -0.3560 -0.3486
   67CHL1  H24A 6127   3.722   0.665   3.534 -0.2427 -0.4960  2.6636
   67CHL1  H24B 6128   3.901   0.704   3.503  0.0620  0.1769 -1.1900
   67CHL1   C25 6129   3.818   0.760   3.700  0.0576 -0.1406 -0.7403
   67CHL1   H25 6130   3.723   0.806   3.736  0.2174 -1.4998  1.5988
   67CHL1   C26 6131   3.827   0.629   3.773 -0.8032  0.4137 -0.3182
   67CHL1  H26A 6132   3.738   0.567   3.750 -0.2037 -0.6379  0.1546
   67CHL1  H26B 6133   3.912   0.574   3.727 -0.3192  0.8403  0.0555
   67CHL1  H26C 6134   3.854   0.633   3.880  1.2872  0.2961 -0.8038
   67CHL1   C27 6135   3.933   0.853   3.748  0.0865 -0.3383 -0.1761
   67CHL1  H27A 6136   3.940   0.932   3.671 -1.0712  0.4983  0.5562
   67CHL1  H27B 6137   3.912   0.908   3.842  1.1667  0.9513 -0.6716
   67CHL1  H27C 6138   4.031   0.799   3.750 -0.6162 -1.7168 -0.9975
   68CHL1    C3 6139   2.379   6.662   2.479  0.4110 -0.3845  0.2870
   68CHL1    H3 6140   2.460   6.586   2.491  1.8139  0.9443 -0.4400
   68CHL1    O3 6141   2.346   6.668   2.338 -0.5227 -0.2955  0.0006
   68CHL1   H3' 6142   2.273   6.731   2.330 -0.2634 -0.1611 -1.4819
   68CHL1    C4 6143   2.256   6.611   2.550  0.7420 -0.2632  0.1148
   68CHL1   H4A 6144   2.175   6.683   2.529  1.1861  0.3921  0.5982
   68CHL1   H4B 6145   2.229   6.516   2.499  0.3979 -0.0957 -0.0146
   68CHL1    C5 6146   2.274   6.612   2.696 -0.5606 -0.4272  0.2172
   68CHL1    C6 6147   2.260   6.502   2.766  0.0902 -0.1589  0.6260
   68CHL1    H6 6148   2.216   6.413   2.718 -2.3986  1.4846 -0.3657
   68CHL1    C7 6149   2.277   6.498   2.912 -0.3287  0.2736  0.4445
   68CHL1   H7A 6150   2.200   6.426   2.950 -1.8401  0.1848 -2.4701
   68CHL1   H7B 6151   2.381   6.461   2.920 -0.1351  1.2653  3.3569
   68CHL1    C8 6152   2.281   6.633   2.977 -0.3761 -0.3240  0.4126
   68CHL1    H8 6153   2.174   6.665   2.981 -1.2150 -2.9136  0.4151
   68CHL1   C14 6154   2.332   6.622   3.119 -0.6671  0.2663  0.2022
   68CHL1   H14 6155   2.433   6.579   3.106 -0.1892 -0.1590  4.1357
   68CHL1   C15 6156   2.260   6.527   3.214  0.2736  0.6254 -0.3566
   68CHL1  H15A 6157   2.150   6.537   3.201  0.4605  1.0904 -1.7590
   68CHL1  H15B 6158   2.288   6.423   3.187 -1.1146  0.2632 -0.4744
   68CHL1   C16 6159   2.309   6.558   3.352  0.3828  0.0675  0.5004
   68CHL1  H16A 6160   2.225   6.575   3.422  1.7048  1.5792  1.7976
   68CHL1  H16B 6161   2.385   6.482   3.382  0.9694  0.9256  1.2242
   68CHL1   C17 6162   2.396   6.681   3.339 -0.1010 -0.5129 -0.4596
   68CHL1   H17 6163   2.500   6.652   3.314 -0.5314 -1.1534 -1.5585
   68CHL1   C13 6164   2.349   6.750   3.203 -0.0677  0.0583  0.1710
   68CHL1   C18 6165   2.215   6.816   3.219  0.3177  0.0306  0.3862
   68CHL1  H18A 6166   2.219   6.916   3.267  0.8785  0.0183  0.3722
   68CHL1  H18B 6167   2.141   6.831   3.138 -4.0070 -1.3929  3.6948
   68CHL1  H18C 6168   2.165   6.754   3.296  0.3695 -1.5444 -0.8130
   68CHL1   C12 6169   2.451   6.836   3.127  0.0225  0.3979 -0.4861
   68CHL1  H12A 6170   2.473   6.937   3.170 -0.6824 -0.0596  1.0370
   68CHL1  H12B 6171   2.542   6.773   3.121 -0.7120 -0.5144 -4.5127
   68CHL1   C11 6172   2.407   6.859   2.984  0.2368 -0.4200 -0.0234
   68CHL1  H11A 6173   2.317   6.925   2.987 -0.7591 -1.6540 -1.4536
   68CHL1  H11B 6174   2.501   6.902   2.946  0.9004 -0.3755  1.5746
   68CHL1    C9 6175   2.366   6.732   2.904 -0.3722  0.0530  0.0090
   68CHL1    H9 6176   2.460   6.673   2.895  0.6045  1.5873 -0.2115
   68CHL1   C10 6177   2.322   6.752   2.751  0.6222 -0.1790 -0.2119
   68CHL1   C19 6178   2.193   6.840   2.761 -0.4538 -0.3342 -0.5822
   68CHL1  H19A 6179   2.130   6.846   2.669 -0.5593  0.2898 -0.4716
   68CHL1  H19B 6180   2.125   6.806   2.842  0.5712  1.8514  1.3038
   68CHL1  H19C 6181   2.219   6.944   2.786  0.6242 -0.1376 -2.3939
   68CHL1    C1 6182   2.440   6.819   2.668 -0.0884  0.8575 -0.4678
   68CHL1   H1A 6183   2.450   6.922   2.707  2.0585  0.6341 -0.3405
   68CHL1   H1B 6184   2.526   6.757   2.700 -0.5644  0.6540  0.4641
   68CHL1    C2 6185   2.423   6.806   2.520 -0.0071 -0.5650  0.3148
   68CHL1   H2A 6186   2.510   6.837   2.458 -0.3438  2.9043  1.3227
   68CHL1   H2B 6187   2.344   6.881   2.494  0.3026 -0.4660 -0.3731
   68CHL1   C20 6188   2.393   6.776   3.465  0.5821  0.0510 -0.1025
   68CHL1   H20 6189   2.289   6.811   3.476  0.8145  0.9435 -0.6487
   68CHL1   C21 6190   2.484   6.906   3.452 -0.5579 -0.2051 -0.3283
   68CHL1  H21A 6191   2.585   6.877   3.418  0.9154  0.7285  2.8032
   68CHL1  H21B 6192   2.499   6.967   3.545  1.3000  1.7138 -1.7833
   68CHL1  H21C 6193   2.448   6.983   3.381  1.2166 -0.5893 -1.7238
   68CHL1   C22 6194   2.438   6.708   3.598 -0.0950  0.4190  0.1513
   68CHL1  H22A 6195   2.416   6.600   3.603  1.3916  0.1023  0.2771
   68CHL1  H22B 6196   2.549   6.713   3.593 -0.1580  0.9164 -1.0353
   68CHL1   C23 6197   2.391   6.773   3.730 -1.0850  0.3327  0.5976
   68CHL1  H23A 6198   2.410   6.883   3.729  2.8565 -0.1582 -2.0726
   68CHL1  H23B 6199   2.281   6.761   3.722 -1.0429  1.1838 -4.4236
   68CHL1   C24 6200   2.455   6.716   3.860  0.0591  0.2327 -0.8480
   68CHL1  H24A 6201   2.422   6.611   3.869  2.1498 -0.6016 -2.1733
   68CHL1  H24B 6202   2.562   6.722   3.830 -0.2327 -1.1788 -2.2997
   68CHL1   C25 6203   2.433   6.788   3.989 -0.7817  0.2298 -0.3676
   68CHL1   H25 6204   2.323   6.801   4.004 -1.1255 -0.9412 -1.6654
   68CHL1   C26 6205   2.498   6.703   4.104  0.1595 -0.2373  0.0488
   68CHL1  H26A 6206   2.479   6.751   4.202 -1.1042 -0.4196 -0.0928
   68CHL1  H26B 6207   2.452   6.601   4.107 -1.0727  0.3057  0.2727
   68CHL1  H26C 6208   2.608   6.697   4.087  0.0617 -2.8175 -0.1639
   68CHL1   C27 6209   2.496   6.922   3.981 -0.5380 -0.1935  0.0543
   68CHL1  H27A 6210   2.469   6.978   4.073  0.2013  0.4693 -0.1184
   68CHL1  H27B 6211   2.604   6.918   3.957 -0.7604 -0.5756 -0.9283
   68CHL1  H27C 6212   2.450   6.986   3.903  0.3153 -1.6916 -1.7616
   69CHL1    C3 6213   6.791   5.932   2.607 -0.4312  0.1245  0.0759
   69CHL1    H3 6214   6.743   6.025   2.643 -0.5161  1.0758 -2.3446
   69CHL1    O3 6215   6.758   5.922   2.471  0.7825  0.1591 -0.0440
   69CHL1   H3' 6216   6.663   5.937   2.471  0.8593  0.7001 -0.7287
   69CHL1    C4 6217   6.932   5.923   2.638  0.1077  0.2657 -1.0106
   69CHL1   H4A 6218   6.960   5.826   2.593 -1.4090 -0.4171 -0.5378
   69CHL1   H4B 6219   6.994   6.002   2.589 -0.9941  0.5494 -2.0129
   69CHL1    C5 6220   6.963   5.915   2.794 -0.4864 -0.6265 -0.1069
   69CHL1    C6 6221   7.043   6.010   2.854 -0.3612 -0.1817 -0.3682
   69CHL1    H6 6222   7.090   6.090   2.794  0.6868  0.8183  1.6802
   69CHL1    C7 6223   7.070   6.008   3.005  0.1289 -0.2535  0.0321
   69CHL1   H7A 6224   7.176   6.017   3.034 -0.2110 -0.3117  1.3745
   69CHL1   H7B 6225   7.021   6.097   3.051  1.8287 -0.5598  2.6631
   69CHL1    C8 6226   7.023   5.883   3.083  0.3589  0.1588 -0.3062
   69CHL1    H8 6227   7.096   5.801   3.070  1.1148  0.6773  0.5623
   69CHL1   C14 6228   7.014   5.913   3.233  0.2038 -0.0164 -0.0929
   69CHL1   H14 6229   6.940   5.992   3.256  0.1895 -0.6062  2.0796
   69CHL1   C15 6230   7.142   5.973   3.306 -0.1264  0.2786  0.1598
   69CHL1  H15A 6231   7.238   5.925   3.278  0.1241  0.0147  1.4172
   69CHL1  H15B 6232   7.145   6.083   3.292 -2.2945  0.4511  0.6266
   69CHL1   C16 6233   7.108   5.947   3.456 -0.1707 -0.4052 -0.4036
   69CHL1  H16A 6234   7.190   5.889   3.504  0.2739  0.2237 -0.3991
   69CHL1  H16B 6235   7.092   6.048   3.497  2.6992 -0.0414  0.0253
   69CHL1   C17 6236   6.979   5.858   3.460  0.3825  0.2770  0.4012
   69CHL1   H17 6237   6.891   5.927   3.461  0.5515  0.5223 -0.8164
   69CHL1   C13 6238   6.971   5.795   3.315 -0.8222  0.4333  0.1356
   69CHL1   C18 6239   7.068   5.671   3.303 -0.1372 -0.4447 -0.0563
   69CHL1  H18A 6240   7.168   5.691   3.348  0.8018 -2.3143 -1.1808
   69CHL1  H18B 6241   7.014   5.595   3.364 -2.0781  1.9151  1.3476
   69CHL1  H18C 6242   7.079   5.634   3.199 -0.2116 -1.2195  0.2069
   69CHL1   C12 6243   6.834   5.762   3.271 -0.2759 -0.1358  0.2798
   69CHL1  H12A 6244   6.788   5.685   3.336 -1.9273 -0.0380 -0.7349
   69CHL1  H12B 6245   6.766   5.848   3.289  1.9433  1.2940  2.6084
   69CHL1   C11 6246   6.832   5.719   3.121  0.2994 -0.4095 -0.1715
   69CHL1  H11A 6247   6.899   5.634   3.097 -1.1577 -1.5452 -0.3809
   69CHL1  H11B 6248   6.729   5.689   3.090  0.5752 -1.2732 -0.2890
   69CHL1    C9 6249   6.884   5.834   3.032 -0.3712 -0.2787 -0.8128
   69CHL1    H9 6250   6.826   5.926   3.050  1.4686  0.9152 -0.7749
   69CHL1   C10 6251   6.890   5.808   2.873  0.6852  0.7730  0.1995
   69CHL1   C19 6252   6.965   5.681   2.839  0.3299  0.1021 -0.5758
   69CHL1  H19A 6253   7.071   5.687   2.871  0.3730  1.2236 -0.9122
   69CHL1  H19B 6254   6.922   5.594   2.894  0.9534  0.5102  0.5907
   69CHL1  H19C 6255   6.961   5.657   2.731  0.3984 -3.3493  0.0525
   69CHL1    C1 6256   6.747   5.802   2.821  0.2551 -0.3649  0.1044
   69CHL1   H1A 6257   6.700   5.709   2.860 -1.4345  0.2310 -0.4271
   69CHL1   H1B 6258   6.688   5.885   2.865 -2.5587 -2.0231 -0.2941
   69CHL1    C2 6259   6.718   5.813   2.672 -0.1187 -0.0178 -0.3543
   69CHL1   H2A 6260   6.608   5.824   2.663 -0.2166 -0.2340  0.5244
   69CHL1   H2B 6261   6.751   5.725   2.613 -0.4633  0.8788 -1.9749
   69CHL1   C20 6262   6.963   5.770   3.588  0.2282 -0.1436  0.3649
   69CHL1   H20 6263   7.039   5.690   3.584  0.8988  0.5061 -0.3353
   69CHL1   C21 6264   6.822   5.707   3.605  0.0718  0.0461 -0.1359
   69CHL1  H21A 6265   6.794   5.692   3.711 -0.5723  2.9909  0.2018
   69CHL1  H21B 6266   6.812   5.608   3.555 -1.0199 -0.2905  0.7188
   69CHL1  H21C 6267   6.738   5.771   3.569  0.0063 -0.5020 -0.9930
   69CHL1   C22 6268   6.989   5.854   3.714 -0.6068 -1.0580  0.9434
   69CHL1  H22A 6269   7.070   5.928   3.701  0.1999 -2.2735 -1.5886
   69CHL1  H22B 6270   6.908   5.929   3.727  1.6457  2.0954 -1.6770
   69CHL1   C23 6271   6.995   5.777   3.840  0.1401 -0.1864 -0.4255
   69CHL1  H23A 6272   6.894   5.761   3.885 -0.0963  0.1914 -0.8175
   69CHL1  H23B 6273   7.033   5.675   3.818  0.1345 -0.1063 -0.8136
   69CHL1   C24 6274   7.080   5.849   3.946  0.0076  0.4022  0.0197
   69CHL1  H24A 6275   7.182   5.873   3.912  0.2825 -0.5511  0.1349
   69CHL1  H24B 6276   7.024   5.934   3.990  0.6058 -0.3567  2.3893
   69CHL1   C25 6277   7.110   5.766   4.073  0.2864  1.4344  1.1473
   69CHL1   H25 6278   7.152   5.670   4.034 -0.7337  1.2352  0.4878
   69CHL1   C26 6279   7.212   5.831   4.155  0.3691 -0.5441 -0.5572
   69CHL1  H26A 6280   7.245   5.769   4.241  0.2261 -0.5936 -0.5366
   69CHL1  H26B 6281   7.294   5.861   4.087  1.8965 -2.5641  0.3032
   69CHL1  H26C 6282   7.161   5.919   4.201  2.5596  0.0053  0.9714
   69CHL1   C27 6283   6.991   5.719   4.163  0.2755 -0.3574 -0.2119
   69CHL1  H27A 6284   6.921   5.651   4.110 -2.2863  1.7743  0.2161
   69CHL1  H27B 6285   7.021   5.657   4.250 -0.4459 -0.0343  0.2804
   69CHL1  H27C 6286   6.944   5.810   4.207  1.4953 -0.4345  1.3526
   70CHL1    C3 6287   3.319   2.893   2.689  0.6875  0.2234  0.9893
   70CHL1    H3 6288   3.418   2.910   2.640 -0.3758 -0.6022 -1.6461
   70CHL1    O3 6289   3.225   2.895   2.585  0.4269 -0.2718 -0.4442
   70CHL1   H3' 6290   3.253   2.840   2.511 -1.3871 -0.0610 -1.3491
   70CHL1    C4 6291   3.326   2.769   2.767 -0.1214 -0.0427  0.2367
   70CHL1   H4A 6292   3.224   2.739   2.801 -0.5881  0.2630 -0.8686
   70CHL1   H4B 6293   3.369   2.691   2.700  0.5974  0.9155 -0.4401
   70CHL1    C5 6294   3.424   2.788   2.881 -0.3946  0.5041  0.0372
   70CHL1    C6 6295   3.534   2.710   2.895  0.9714  0.0168  0.0273
   70CHL1    H6 6296   3.551   2.631   2.820 -0.0509 -0.9276  0.7578
   70CHL1    C7 6297   3.617   2.700   3.020  0.6203  0.0852 -0.4779
   70CHL1   H7A 6298   3.634   2.594   3.050  4.0477  0.8506  0.7123
   70CHL1   H7B 6299   3.717   2.742   2.997  1.8306  0.5853  4.5019
   70CHL1    C8 6300   3.548   2.771   3.144  0.8560 -0.1456  0.5881
   70CHL1    H8 6301   3.466   2.700   3.168  2.8751 -3.7906 -2.2508
   70CHL1   C14 6302   3.644   2.784   3.260 -0.1266  0.2814 -0.1481
   70CHL1   H14 6303   3.731   2.836   3.214  0.4577  0.5204  1.1811
   70CHL1   C15 6304   3.705   2.656   3.325  0.4161  0.1698  0.0886
   70CHL1  H15A 6305   3.621   2.586   3.341  0.8671 -0.7825 -1.5484
   70CHL1  H15B 6306   3.778   2.605   3.258 -1.3152 -2.1574 -0.1401
   70CHL1   C16 6307   3.762   2.701   3.463  0.1486 -0.7179 -0.0407
   70CHL1  H16A 6308   3.748   2.624   3.541  0.9959 -1.8427 -0.9820
   70CHL1  H16B 6309   3.873   2.707   3.455  0.3322  1.4454  2.6381
   70CHL1   C17 6310   3.713   2.843   3.486  0.5200 -0.6247 -1.0835
   70CHL1   H17 6311   3.796   2.912   3.463 -0.6239  1.3471  0.4048
   70CHL1   C13 6312   3.597   2.863   3.377 -0.1478  0.4924  0.1545
   70CHL1   C18 6313   3.459   2.802   3.436  0.2439  1.0316 -0.7061
   70CHL1  H18A 6314   3.465   2.693   3.453  0.9758  1.1919  0.0941
   70CHL1  H18B 6315   3.440   2.849   3.535 -1.9402 -0.8337 -0.1559
   70CHL1  H18C 6316   3.375   2.823   3.365 -1.2947 -0.0354  0.7364
   70CHL1   C12 6317   3.580   3.002   3.325  0.5605 -0.5784  0.5748
   70CHL1  H12A 6318   3.565   3.079   3.404 -0.0246  1.0695 -1.0818
   70CHL1  H12B 6319   3.675   3.038   3.280 -0.8784  1.3515 -1.0828
   70CHL1   C11 6320   3.473   3.009   3.215  0.5567 -0.6743  0.4891
   70CHL1  H11A 6321   3.376   2.992   3.265  1.2945 -0.9353  1.8696
   70CHL1  H11B 6322   3.478   3.113   3.176  0.8159  0.0269  2.2764
   70CHL1    C9 6323   3.505   2.907   3.100  1.0381 -0.6693  0.8626
   70CHL1    H9 6324   3.598   2.942   3.051  0.0256  0.7961 -0.0951
   70CHL1   C10 6325   3.389   2.896   2.985 -0.0716  0.3754 -0.7994
   70CHL1   C19 6326   3.259   2.861   3.050  0.3819  0.3499 -0.5160
   70CHL1  H19A 6327   3.253   2.775   3.120 -2.1983  1.8424  1.3003
   70CHL1  H19B 6328   3.219   2.945   3.111  2.3812  0.1110  1.2644
   70CHL1  H19C 6329   3.177   2.845   2.977 -0.7903 -1.0865  1.0248
   70CHL1    C1 6330   3.368   3.033   2.902 -0.9760  0.6882 -0.2508
   70CHL1   H1A 6331   3.325   3.114   2.964 -0.9984  1.3061 -1.0571
   70CHL1   H1B 6332   3.472   3.064   2.880  0.0457 -1.4147  1.3424
   70CHL1    C2 6333   3.279   3.018   2.775  0.1867  0.2539 -0.8624
   70CHL1   H2A 6334   3.287   3.109   2.713  0.2606  0.6334 -0.3062
   70CHL1   H2B 6335   3.173   3.027   2.808  0.5564  0.7844  0.2234
   70CHL1   C20 6336   3.690   2.866   3.637 -0.1315 -0.2973  0.5600
   70CHL1   H20 6337   3.610   2.799   3.677  1.2131 -0.6954  2.7319
   70CHL1   C21 6338   3.626   3.008   3.671 -0.9994  0.3122  0.8497
   70CHL1  H21A 6339   3.594   3.002   3.777 -0.3436 -0.8424  1.0065
   70CHL1  H21B 6340   3.539   3.021   3.602  0.4484 -0.1186 -1.1579
   70CHL1  H21C 6341   3.696   3.092   3.652  1.7616 -0.8874  4.5566
   70CHL1   C22 6342   3.822   2.842   3.715  0.6802  0.0466  0.3212
   70CHL1  H22A 6343   3.867   2.743   3.691 -0.5105 -0.5445  0.4670
   70CHL1  H22B 6344   3.890   2.929   3.700  0.1269  0.4663  0.2057
   70CHL1   C23 6345   3.807   2.851   3.871  0.2922 -0.0243 -0.0196
   70CHL1  H23A 6346   3.802   2.956   3.907 -0.4932  0.7117 -2.1285
   70CHL1  H23B 6347   3.707   2.807   3.887  0.1401 -0.3630 -1.7655
   70CHL1   C24 6348   3.935   2.785   3.927  1.5924 -0.1626 -0.3992
   70CHL1  H24A 6349   3.954   2.683   3.886 -0.1048 -0.2601 -1.0113
   70CHL1  H24B 6350   4.022   2.848   3.899  0.1959  1.7610 -0.5717
   70CHL1   C25 6351   3.934   2.788   4.080  0.1245 -0.1625  0.3040
   70CHL1   H25 6352   3.927   2.893   4.116 -0.6541  0.6946 -2.1547
   70CHL1   C26 6353   3.813   2.721   4.140  0.0892  0.0329  0.3180
   70CHL1  H26A 6354   3.715   2.738   4.091  0.1413  1.0267  0.5315
   70CHL1  H26B 6355   3.832   2.613   4.124 -0.7341 -0.0507 -0.0989
   70CHL1  H26C 6356   3.799   2.759   4.244 -1.2713  0.9058 -0.1579
   70CHL1   C27 6357   4.062   2.728   4.137 -0.0817  0.6633 -0.0162
   70CHL1  H27A 6358   4.059   2.719   4.248  1.0255  0.0807 -0.0223
   70CHL1  H27B 6359   4.083   2.625   4.099  3.0663  0.4709  1.9021
   70CHL1  H27C 6360   4.159   2.775   4.111  1.2653 -0.9177  1.8483
   71CHL1    C3 6361   6.719   1.001   2.628 -1.0482  0.5157 -0.2104
   71CHL1    H3 6362   6.747   0.894   2.622 -0.6349  0.6053  0.0829
   71CHL1    O3 6363   6.714   1.053   2.492  1.5660 -0.0209 -0.0240
   71CHL1   H3' 6364   6.664   1.135   2.497  0.8667 -0.5121  1.7915
   71CHL1    C4 6365   6.580   0.999   2.684 -0.7241 -0.4530  0.5898
   71CHL1   H4A 6366   6.547   1.104   2.671  0.5040 -0.0231  0.9051
   71CHL1   H4B 6367   6.511   0.946   2.615 -2.1099  0.9827  0.8184
   71CHL1    C5 6368   6.581   0.956   2.830  0.2001  0.0979 -1.2687
   71CHL1    C6 6369   6.486   0.859   2.874 -0.6151 -0.7399  0.3001
   71CHL1    H6 6370   6.414   0.823   2.798 -0.1580 -0.1509 -0.4239
   71CHL1    C7 6371   6.478   0.809   3.011 -0.1669  0.4308 -0.1653
   71CHL1   H7A 6372   6.373   0.806   3.049  0.7374  2.9447  3.0163
   71CHL1   H7B 6373   6.520   0.709   3.030 -2.7147 -0.8087 -0.5560
   71CHL1    C8 6374   6.552   0.907   3.107  0.5996 -0.6114  0.3734
   71CHL1    H8 6375   6.489   0.998   3.111  2.0873  0.5652 -1.2585
   71CHL1   C14 6376   6.550   0.847   3.239  0.8392  0.0913 -1.7561
   71CHL1   H14 6377   6.613   0.757   3.222 -0.1714 -0.7063 -1.3808
   71CHL1   C15 6378   6.416   0.792   3.305  0.7340 -0.5057 -0.6155
   71CHL1  H15A 6379   6.338   0.871   3.307  0.8154 -0.2842  3.4961
   71CHL1  H15B 6380   6.387   0.706   3.242 -0.0881  0.6939 -1.9376
   71CHL1   C16 6381   6.447   0.780   3.457 -0.4463  0.0736  0.6252
   71CHL1  H16A 6382   6.383   0.846   3.520  0.5205  1.4759  0.2046
   71CHL1  H16B 6383   6.435   0.673   3.483  0.5162 -0.1143  0.3188
   71CHL1   C17 6384   6.591   0.834   3.466  0.4214 -0.8273  0.6592
   71CHL1   H17 6385   6.654   0.745   3.446  1.4077 -0.1955  0.9000
   71CHL1   C13 6386   6.619   0.930   3.346 -0.2790 -0.7030 -0.9811
   71CHL1   C18 6387   6.553   1.065   3.373  0.2957 -0.4123  0.2686
   71CHL1  H18A 6388   6.601   1.125   3.453 -1.7489 -1.5664  2.4944
   71CHL1  H18B 6389   6.547   1.124   3.279  0.5942 -0.7922  0.0080
   71CHL1  H18C 6390   6.451   1.056   3.418  0.3012 -0.3777  0.2889
   71CHL1   C12 6391   6.771   0.949   3.308  0.0239  0.4524  0.8034
   71CHL1  H12A 6392   6.838   0.996   3.383  0.0335 -2.5615  2.8514
   71CHL1  H12B 6393   6.814   0.849   3.290  0.5584  0.8490 -0.2090
   71CHL1   C11 6394   6.768   1.018   3.173  0.3992  0.5266  0.7838
   71CHL1  H11A 6395   6.728   1.122   3.182  0.5015  0.6438 -0.0642
   71CHL1  H11B 6396   6.875   1.022   3.141  0.4975 -0.4114  0.9640
   71CHL1    C9 6397   6.691   0.943   3.058  0.6615  0.2841 -0.1673
   71CHL1    H9 6398   6.743   0.845   3.048  0.9008  0.2068  1.5118
   71CHL1   C10 6399   6.683   1.011   2.917 -0.4639  0.0041 -0.1034
   71CHL1   C19 6400   6.643   1.158   2.932 -0.2430  0.1916 -0.6238
   71CHL1  H19A 6401   6.557   1.170   3.002 -0.2092  0.5572 -0.6403
   71CHL1  H19B 6402   6.723   1.221   2.977  2.3221 -1.2320 -2.9124
   71CHL1  H19C 6403   6.619   1.213   2.839  0.5069 -0.2245 -1.0686
   71CHL1    C1 6404   6.821   1.014   2.849  0.4535 -0.2574 -0.9408
   71CHL1   H1A 6405   6.898   1.073   2.904  0.8885 -1.7353  0.1099
   71CHL1   H1B 6406   6.860   0.911   2.833  1.0379 -0.7148  2.5272
   71CHL1    C2 6407   6.818   1.078   2.709 -0.1917 -0.0866  0.3501
   71CHL1   H2A 6408   6.916   1.055   2.661  0.8800  3.1039  0.7783
   71CHL1   H2B 6409   6.802   1.188   2.711  0.8192  0.0552  1.9926
   71CHL1   C20 6410   6.634   0.871   3.610  0.3338 -0.0718  0.3945
   71CHL1   H20 6411   6.564   0.952   3.641 -0.3437  0.5627 -2.4070
   71CHL1   C21 6412   6.779   0.912   3.622  0.3847  0.1541 -0.9858
   71CHL1  H21A 6413   6.791   1.017   3.586 -0.4302 -0.2560 -2.5132
   71CHL1  H21B 6414   6.836   0.844   3.556  1.5861  1.7262 -1.6341
   71CHL1  H21C 6415   6.818   0.900   3.725 -1.9922 -1.0979 -0.1410
   71CHL1   C22 6416   6.607   0.755   3.708  0.5181 -0.5891 -0.6473
   71CHL1  H22A 6417   6.514   0.698   3.689 -0.1236  0.1886  0.0887
   71CHL1  H22B 6418   6.692   0.684   3.697  1.7029  0.7709 -0.6215
   71CHL1   C23 6419   6.609   0.795   3.850  0.2776  0.0058 -0.0307
   71CHL1  H23A 6420   6.680   0.876   3.878  0.3642 -0.0176 -0.1777
   71CHL1  H23B 6421   6.508   0.839   3.857  0.9021  1.2280  1.7888
   71CHL1   C24 6422   6.635   0.676   3.936 -0.5497  0.3444 -0.1765
   71CHL1  H24A 6423   6.555   0.602   3.918  0.4467 -0.1326 -3.1015
   71CHL1  H24B 6424   6.724   0.613   3.915  0.2242  1.5811 -0.7222
   71CHL1   C25 6425   6.632   0.715   4.089 -0.0096 -0.1990  0.7265
   71CHL1   H25 6426   6.535   0.766   4.108 -0.1349  0.1366 -0.7244
   71CHL1   C26 6427   6.655   0.591   4.182  0.0171  0.0004  0.5413
   71CHL1  H26A 6428   6.753   0.548   4.151 -0.1859  1.3665 -2.2513
   71CHL1  H26B 6429   6.653   0.619   4.290  1.9428 -0.4428  0.7347
   71CHL1  H26C 6430   6.580   0.514   4.155  0.6028  0.3034 -2.2408
   71CHL1   C27 6431   6.745   0.816   4.120 -0.9347  0.5043 -0.0326
   71CHL1  H27A 6432   6.848   0.781   4.096 -0.6581  1.2429  0.0352
   71CHL1  H27B 6433   6.732   0.914   4.068 -1.1368  1.7368  2.2040
   71CHL1  H27C 6434   6.736   0.853   4.225 -0.9295  0.4237 -0.0040
   72CHL1    C3 6435   0.264   5.252   2.575 -0.3531  0.5148  0.2064
   72CHL1    H3 6436   0.291   5.359   2.564  1.2071  0.5117  3.1760
   72CHL1    O3 6437   0.241   5.204   2.448  0.1104  0.0576  0.5587
   72CHL1   H3' 6438   0.182   5.268   2.408  0.9114  0.1989 -0.4299
   72CHL1    C4 6439   0.389   5.181   2.644 -0.5750  0.9459  0.5001
   72CHL1   H4A 6440   0.363   5.075   2.627  0.1953  0.7320  0.6090
   72CHL1   H4B 6441   0.473   5.197   2.573  0.1332  2.8994  1.7003
   72CHL1    C5 6442   0.416   5.223   2.782  0.5902 -0.2222 -0.4388
   72CHL1    C6 6443   0.533   5.273   2.823  0.0223  0.4460  0.0281
   72CHL1    H6 6444   0.612   5.281   2.746 -1.3259  1.3070 -1.3256
   72CHL1    C7 6445   0.560   5.304   2.966  0.0363  0.3151 -0.8527
   72CHL1   H7A 6446   0.663   5.265   2.982 -1.1812 -2.7811  0.2790
   72CHL1   H7B 6447   0.569   5.415   2.972  1.6586  0.1782  0.3056
   72CHL1    C8 6448   0.457   5.259   3.071 -0.0432  0.3786  0.8304
   72CHL1    H8 6449   0.474   5.150   3.081  0.6766  0.3437 -0.5466
   72CHL1   C14 6450   0.469   5.325   3.205 -0.6563 -0.5238 -0.2813
   72CHL1   H14 6451   0.447   5.432   3.184  1.6476 -0.1248 -0.9288
   72CHL1   C15 6452   0.612   5.326   3.275 -0.2465 -0.3028 -0.2933
   72CHL1  H15A 6453   0.640   5.219   3.266 -2.0042 -1.0853  2.3312
   72CHL1  H15B 6454   0.676   5.390   3.211 -1.1184 -0.2425 -1.1287
   72CHL1   C16 6455   0.573   5.370   3.419  0.2311  0.1659  0.1730
   72CHL1  H16A 6456   0.628   5.300   3.485  2.9033  1.0933 -0.9489
   72CHL1  H16B 6457   0.609   5.473   3.441 -0.1750 -0.0323  1.9924
   72CHL1   C17 6458   0.417   5.363   3.434 -0.1920  0.6300 -0.4432
   72CHL1   H17 6459   0.389   5.469   3.415 -2.5041  0.2895  0.6540
   72CHL1   C13 6460   0.370   5.275   3.310  0.2749 -0.1727 -0.6168
   72CHL1   C18 6461   0.389   5.129   3.337  0.4262  0.7599  0.3368
   72CHL1  H18A 6462   0.314   5.079   3.402  1.5916  1.5429  2.3642
   72CHL1  H18B 6463   0.367   5.071   3.245 -0.9431  0.4397  0.8403
   72CHL1  H18C 6464   0.489   5.090   3.365 -0.9049 -2.9783  0.4474
   72CHL1   C12 6465   0.230   5.316   3.259  0.0059 -0.3898  0.8469
   72CHL1  H12A 6466   0.145   5.286   3.324 -1.2009 -1.0742 -0.9641
   72CHL1  H12B 6467   0.228   5.425   3.238  1.4997 -0.6207 -0.7221
   72CHL1   C11 6468   0.206   5.257   3.116  0.4578  1.6190 -0.4175
   72CHL1  H11A 6469   0.186   5.149   3.132 -2.4855  2.3590  1.8656
   72CHL1  H11B 6470   0.109   5.299   3.082 -0.5193 -0.3033 -0.1786
   72CHL1    C9 6471   0.313   5.279   3.018 -0.1021 -0.1247  0.0135
   72CHL1    H9 6472   0.313   5.388   2.997  0.1163 -0.2264 -0.5405
   72CHL1   C10 6473   0.293   5.215   2.879  0.2465 -0.0667  0.0372
   72CHL1   C19 6474   0.279   5.061   2.901 -0.1262  0.2886 -0.3069
   72CHL1  H19A 6475   0.344   5.024   2.983 -0.0070  0.1406 -0.4660
   72CHL1  H19B 6476   0.176   5.046   2.940 -0.1570  0.9823 -0.1210
   72CHL1  H19C 6477   0.289   4.997   2.811 -0.6748  0.2423 -0.3391
   72CHL1    C1 6478   0.164   5.275   2.807 -0.3380 -0.5465 -0.2338
   72CHL1   H1A 6479   0.071   5.242   2.858  1.4212 -1.8850  2.3345
   72CHL1   H1B 6480   0.180   5.385   2.799  2.5155 -0.7779  1.0568
   72CHL1    C2 6481   0.139   5.232   2.659  0.4501 -0.0976  0.7093
   72CHL1   H2A 6482   0.056   5.281   2.605  1.2072  2.4376  1.6987
   72CHL1   H2B 6483   0.114   5.124   2.670  2.0781 -1.0409 -3.1004
   72CHL1   C20 6484   0.375   5.327   3.582 -0.4840 -0.1445  0.8773
   72CHL1   H20 6485   0.414   5.223   3.592  0.5845  0.0052 -1.1791
   72CHL1   C21 6486   0.217   5.338   3.599 -0.7207 -0.0414 -0.5323
   72CHL1  H21A 6487   0.182   5.318   3.703 -1.9563 -1.1268 -1.1377
   72CHL1  H21B 6488   0.166   5.266   3.533 -1.0831  1.6549 -2.1991
   72CHL1  H21C 6489   0.185   5.440   3.569  1.1333  0.6484 -0.3140
   72CHL1   C22 6490   0.442   5.406   3.695 -0.2075  0.5504  0.6869
   72CHL1  H22A 6491   0.547   5.433   3.669 -0.3208 -0.4074 -0.9141
   72CHL1  H22B 6492   0.388   5.501   3.712 -0.1734  0.8386 -0.6309
   72CHL1   C23 6493   0.444   5.327   3.824  0.6646 -0.3807 -0.0334
   72CHL1  H23A 6494   0.337   5.309   3.850 -1.0068  4.0955 -2.6532
   72CHL1  H23B 6495   0.493   5.227   3.824 -0.7798 -1.1250  1.4826
   72CHL1   C24 6496   0.518   5.408   3.940  0.0310 -0.2745  0.7700
   72CHL1  H24A 6497   0.625   5.421   3.910  0.1738 -1.4597  0.6914
   72CHL1  H24B 6498   0.459   5.502   3.938  0.9305  0.3574  2.4009
   72CHL1   C25 6499   0.518   5.346   4.076 -0.2516 -0.6106 -0.0851
   72CHL1   H25 6500   0.564   5.245   4.073 -0.1799 -0.5791 -2.4898
   72CHL1   C26 6501   0.594   5.428   4.180  0.7510  0.2878 -0.0875
   72CHL1  H26A 6502   0.698   5.449   4.149  0.6365 -0.9018 -1.3671
   72CHL1  H26B 6503   0.549   5.528   4.200 -1.1850 -0.4946 -0.3027
   72CHL1  H26C 6504   0.596   5.375   4.278 -0.3691 -1.4536 -0.9556
   72CHL1   C27 6505   0.370   5.346   4.125 -0.2369 -0.1203  0.5088
   72CHL1  H27A 6506   0.366   5.356   4.236 -1.1969  0.1370  0.4623
   72CHL1  H27B 6507   0.318   5.433   4.080  3.1290  2.1939  0.7655
   72CHL1  H27C 6508   0.320   5.251   4.095 -1.3823  0.6522 -0.1341
   73CHL1    C3 6509   1.894   0.555   2.668 -0.0269  0.4444  1.1232
   73CHL1    H3 6510   1.866   0.656   2.703 -0.7227  1.1071 -1.1710
   73CHL1    O3 6511   1.877   0.548   2.527 -0.1311 -0.6715  0.6706
   73CHL1   H3' 6512   1.961   0.572   2.486 -0.7762 -0.6910 -0.7078
   73CHL1    C4 6513   2.036   0.523   2.701 -1.8599 -0.0254  0.4092
   73CHL1   H4A 6514   2.073   0.423   2.667 -1.9600 -0.2809  1.0297
   73CHL1   H4B 6515   2.099   0.594   2.645 -1.9655 -0.2684 -0.0187
   73CHL1    C5 6516   2.053   0.539   2.850 -0.1324 -0.2777  1.0745
   73CHL1    C6 6517   2.133   0.627   2.911  0.6213 -0.6079 -0.4090
   73CHL1    H6 6518   2.182   0.704   2.850 -1.3159  1.0675  0.0367
   73CHL1    C7 6519   2.152   0.633   3.062  0.7491 -0.1586 -0.2221
   73CHL1   H7A 6520   2.257   0.643   3.097 -0.2420  3.7462  2.2448
   73CHL1   H7B 6521   2.090   0.714   3.105  0.5887  0.7412 -2.0579
   73CHL1    C8 6522   2.098   0.512   3.149 -0.2337 -0.0929 -0.4021
   73CHL1    H8 6523   2.169   0.428   3.133 -0.1059  0.3492 -2.4507
   73CHL1   C14 6524   2.090   0.555   3.300 -0.4287  0.3298  0.2747
   73CHL1   H14 6525   2.016   0.638   3.298 -1.3338 -0.4740 -0.1758
   73CHL1   C15 6526   2.218   0.609   3.382  0.0055  0.4421  0.4721
   73CHL1  H15A 6527   2.305   0.546   3.354  0.0547  1.0175 -0.7521
   73CHL1  H15B 6528   2.227   0.719   3.363 -1.2374  0.3895 -0.5499
   73CHL1   C16 6529   2.174   0.591   3.530 -0.1740 -1.0101 -0.0940
   73CHL1  H16A 6530   2.258   0.542   3.584  0.0507  1.8459  2.4477
   73CHL1  H16B 6531   2.160   0.693   3.572 -0.1513 -1.1771  0.3206
   73CHL1   C17 6532   2.040   0.523   3.525  0.3097  0.0517  0.6643
   73CHL1   H17 6533   1.960   0.597   3.505  0.3395 -0.0662  0.1081
   73CHL1   C13 6534   2.031   0.448   3.392  0.1610  0.2736 -0.6126
   73CHL1   C18 6535   2.122   0.324   3.402  0.4533 -0.2963  0.2932
   73CHL1  H18A 6536   2.211   0.334   3.467 -0.4786  0.2298  1.5377
   73CHL1  H18B 6537   2.058   0.245   3.448 -0.7809  0.9951  0.8917
   73CHL1  H18C 6538   2.157   0.299   3.300 -0.7784 -2.3410  0.2943
   73CHL1   C12 6539   1.893   0.402   3.334  0.4589  0.2500  0.1479
   73CHL1  H12A 6540   1.862   0.311   3.390 -1.4084  0.1905 -0.8978
   73CHL1  H12B 6541   1.821   0.486   3.351 -2.4950 -1.8020 -1.3408
   73CHL1   C11 6542   1.898   0.355   3.180 -0.0791  0.1026  0.4231
   73CHL1  H11A 6543   1.948   0.256   3.173 -0.6743 -0.0703 -2.3926
   73CHL1  H11B 6544   1.798   0.332   3.138 -0.4823  2.1514  0.1592
   73CHL1    C9 6545   1.961   0.468   3.096 -0.1207  0.0167 -0.0860
   73CHL1    H9 6546   1.898   0.559   3.108 -1.3613 -0.9186  0.7318
   73CHL1   C10 6547   1.965   0.441   2.937 -0.3728 -0.2109  1.0834
   73CHL1   C19 6548   2.023   0.300   2.909 -1.0032 -0.1523  0.2534
   73CHL1  H19A 6549   2.134   0.301   2.898 -0.9834 -2.8792 -0.6145
   73CHL1  H19B 6550   1.988   0.223   2.980 -0.9076  0.6412  1.1735
   73CHL1  H19C 6551   1.990   0.266   2.808 -0.0433  2.8776 -1.1871
   73CHL1    C1 6552   1.820   0.453   2.889  0.2441 -1.0218  0.4657
   73CHL1   H1A 6553   1.746   0.394   2.947 -1.0284 -0.4000 -0.5059
   73CHL1   H1B 6554   1.790   0.554   2.923  0.9737 -1.2502  1.8519
   73CHL1    C2 6555   1.808   0.446   2.737  0.0169 -0.4006  0.0886
   73CHL1   H2A 6556   1.700   0.464   2.717  0.1447  1.1341  0.6966
   73CHL1   H2B 6557   1.830   0.345   2.694 -0.2608 -1.2036  1.7357
   73CHL1   C20 6558   2.012   0.452   3.661  0.1367  0.4507  0.5230
   73CHL1   H20 6559   2.109   0.403   3.684 -0.2734  0.1732  1.7287
   73CHL1   C21 6560   1.895   0.351   3.657 -0.5568  0.3495  0.0119
   73CHL1  H21A 6561   1.808   0.410   3.621 -3.5004 -2.3775  2.0619
   73CHL1  H21B 6562   1.879   0.297   3.753 -0.5073  0.4739  0.0904
   73CHL1  H21C 6563   1.922   0.266   3.591  0.4104  0.2390  0.5296
   73CHL1   C22 6564   1.996   0.556   3.778 -0.0842  0.4423 -0.9202
   73CHL1  H22A 6565   2.072   0.635   3.762  2.3765 -1.8198 -1.0929
   73CHL1  H22B 6566   1.894   0.602   3.779  0.3407  1.4303  0.6126
   73CHL1   C23 6567   2.029   0.503   3.917  0.8061  0.6756  0.9360
   73CHL1  H23A 6568   1.977   0.405   3.930 -1.2944  1.5140 -0.6266
   73CHL1  H23B 6569   2.133   0.464   3.917  0.1756 -1.0972  0.4773
   73CHL1   C24 6570   1.994   0.603   4.037  0.0974 -0.0913  0.0325
   73CHL1  H24A 6571   2.055   0.693   4.016  1.7482 -0.8195  1.5063
   73CHL1  H24B 6572   1.890   0.636   4.012 -0.1129  0.4882  1.5738
   73CHL1   C25 6573   2.017   0.545   4.176  0.2654  0.2326  0.1916
   73CHL1   H25 6574   1.955   0.453   4.185  0.3993  0.1846  0.6630
   73CHL1   C26 6575   2.170   0.520   4.206 -0.0285 -0.1543  0.1264
   73CHL1  H26A 6576   2.221   0.610   4.166 -0.2764 -1.1179 -2.5987
   73CHL1  H26B 6577   2.195   0.493   4.311  2.7239  0.2009 -0.3828
   73CHL1  H26C 6578   2.208   0.444   4.135 -1.7536  0.1104 -1.1636
   73CHL1   C27 6579   1.954   0.632   4.285 -0.2329 -0.0918 -0.2856
   73CHL1  H27A 6580   1.984   0.739   4.281  0.3918 -0.2660 -0.3579
   73CHL1  H27B 6581   1.845   0.615   4.296 -0.0667  0.2225  2.5603
   73CHL1  H27C 6582   1.979   0.599   4.388 -0.0034  2.4619  0.5358
   74CHL1    C3 6583   1.244   0.271   2.713  0.1871 -0.0615 -0.3532
   74CHL1    H3 6584   1.275   0.377   2.718 -0.3034  0.0283  2.0711
   74CHL1    O3 6585   1.221   0.237   2.575 -0.3862 -0.0406 -0.7121
   74CHL1   H3' 6586   1.133   0.269   2.554 -0.2020  1.5722  0.7362
   74CHL1    C4 6587   1.356   0.182   2.759  0.1434  0.0897  0.2309
   74CHL1   H4A 6588   1.340   0.081   2.716  0.1414 -1.1589  2.9624
   74CHL1   H4B 6589   1.446   0.219   2.705 -0.2161  0.3182 -0.2255
   74CHL1    C5 6590   1.376   0.178   2.908 -0.7427  1.2589  0.1692
   74CHL1    C6 6591   1.496   0.202   2.963  0.1750 -0.7092 -0.3922
   74CHL1    H6 6592   1.583   0.225   2.901 -0.4662  1.4541 -0.6060
   74CHL1    C7 6593   1.527   0.211   3.112 -0.2342 -0.0640  0.2370
   74CHL1   H7A 6594   1.628   0.175   3.139 -0.2656 -1.1327 -1.0053
   74CHL1   H7B 6595   1.530   0.320   3.132 -0.0213  0.0082 -0.1785
   74CHL1    C8 6596   1.420   0.138   3.195  0.0238 -0.1754 -0.2563
   74CHL1    H8 6597   1.421   0.027   3.189 -0.1136 -0.3069  1.4964
   74CHL1   C14 6598   1.427   0.180   3.348 -0.5054  0.7627  0.4217
   74CHL1   H14 6599   1.422   0.291   3.343 -0.0261  0.7452 -0.7971
   74CHL1   C15 6600   1.559   0.151   3.424 -0.1244 -0.0576  0.7886
   74CHL1  H15A 6601   1.595   0.051   3.393  0.4434  0.3042  0.2423
   74CHL1  H15B 6602   1.645   0.217   3.398  0.2219  0.3086  2.7037
   74CHL1   C16 6603   1.531   0.149   3.570  0.3158 -0.2082  0.5061
   74CHL1  H16A 6604   1.566   0.052   3.611  0.1465 -0.8417 -0.8161
   74CHL1  H16B 6605   1.582   0.233   3.622  0.7591  0.2664 -0.6846
   74CHL1   C17 6606   1.373   0.152   3.575  0.0842 -0.2476 -0.2988
   74CHL1   H17 6607   1.350   0.259   3.587  1.6817 -0.0639  1.6162
   74CHL1   C13 6608   1.326   0.106   3.435  0.0759 -1.0819  0.6934
   74CHL1   C18 6609   1.333  -0.044   3.430 -0.7268  0.5548  0.7836
   74CHL1  H18A 6610   1.430  -0.084   3.467 -1.7463 -1.9662  0.8699
   74CHL1  H18B 6611   1.255  -0.097   3.488  0.6385 -1.3903  0.9541
   74CHL1  H18C 6612   1.319  -0.073   3.324 -0.7070  0.6720  0.7489
   74CHL1   C12 6613   1.184   0.158   3.385 -0.2579 -0.3271  0.1080
   74CHL1  H12A 6614   1.090   0.132   3.438 -1.4971  2.4135 -0.5955
   74CHL1  H12B 6615   1.181   0.266   3.411 -1.8162 -0.3168  0.0058
   74CHL1   C11 6616   1.164   0.123   3.235 -0.2030  0.3731 -0.8015
   74CHL1  H11A 6617   1.164   0.015   3.213 -0.1891  0.2998 -0.4419
   74CHL1  H11B 6618   1.076   0.173   3.189 -0.6574  0.6445  0.3300
   74CHL1    C9 6619   1.279   0.180   3.147  0.3051  0.3090 -0.7446
   74CHL1    H9 6620   1.278   0.291   3.155  0.5458  0.2774 -0.2310
   74CHL1   C10 6621   1.250   0.156   2.992  0.3126  0.0741 -0.7885
   74CHL1   C19 6622   1.211   0.006   2.963 -0.2800 -0.0737 -0.6179
   74CHL1  H19A 6623   1.122  -0.017   3.025  0.4221  1.6121  1.1205
   74CHL1  H19B 6624   1.171  -0.013   2.861 -0.3142 -1.2701 -0.3958
   74CHL1  H19C 6625   1.286  -0.072   2.987 -1.3862 -0.7353  0.8624
   74CHL1    C1 6626   1.132   0.243   2.947  0.1259 -0.6574 -0.3695
   74CHL1   H1A 6627   1.040   0.210   3.001 -0.5611 -0.8937 -1.6469
   74CHL1   H1B 6628   1.154   0.345   2.986 -0.1974 -0.2664 -1.1714
   74CHL1    C2 6629   1.112   0.263   2.796  0.0713 -0.2352  0.8985
   74CHL1   H2A 6630   1.039   0.346   2.785 -0.8277 -1.2116 -0.8023
   74CHL1   H2B 6631   1.066   0.166   2.768  0.6867 -0.1541 -0.4864
   74CHL1   C20 6632   1.324   0.082   3.701  0.8558  0.0565  0.0473
   74CHL1   H20 6633   1.347  -0.026   3.692  1.7563  0.2200  0.3363
   74CHL1   C21 6634   1.168   0.096   3.705 -0.2856 -0.1219  0.4430
   74CHL1  H21A 6635   1.116   0.035   3.627  0.6025 -1.0746  0.5715
   74CHL1  H21B 6636   1.145   0.203   3.687  1.8729  0.3616  0.3053
   74CHL1  H21C 6637   1.123   0.069   3.803  0.2612 -1.3921  0.3712
   74CHL1   C22 6638   1.387   0.124   3.843 -0.6573  0.5804 -0.3484
   74CHL1  H22A 6639   1.365   0.048   3.921  1.9518  1.3725  1.2848
   74CHL1  H22B 6640   1.498   0.115   3.836 -0.8002 -2.1403 -0.1805
   74CHL1   C23 6641   1.355   0.267   3.879  0.0106 -0.0975  0.7521
   74CHL1  H23A 6642   1.371   0.332   3.791  3.6097  1.9555  2.6982
   74CHL1  H23B 6643   1.252   0.283   3.918 -0.1259 -0.3944  0.5189
   74CHL1   C24 6644   1.444   0.314   3.992 -0.4106  0.2928 -0.2994
   74CHL1  H24A 6645   1.402   0.290   4.092  0.8493 -1.1968 -0.0782
   74CHL1  H24B 6646   1.536   0.251   3.986 -1.6023 -1.9624  2.5199
   74CHL1   C25 6647   1.486   0.460   3.984  0.4230  0.2706 -0.2429
   74CHL1   H25 6648   1.389   0.513   3.976  0.3698  0.1797 -0.2046
   74CHL1   C26 6649   1.563   0.496   4.116  0.2821  0.4411  0.2286
   74CHL1  H26A 6650   1.506   0.466   4.207  2.1779  0.8973  1.6429
   74CHL1  H26B 6651   1.665   0.452   4.121  0.5193  0.9807  0.2734
   74CHL1  H26C 6652   1.586   0.605   4.123  1.1169  0.2897 -0.0412
   74CHL1   C27 6653   1.578   0.511   3.872 -0.5901  0.7475 -0.4121
   74CHL1  H27A 6654   1.603   0.619   3.882 -1.1633  0.7899  0.7925
   74CHL1  H27B 6655   1.671   0.450   3.872 -0.6002  0.5043  3.0921
   74CHL1  H27C 6656   1.527   0.492   3.775 -1.3614  0.6855 -0.0040
   75CHL1    C3 6657   2.675   5.500   2.488  0.1512 -0.2415  0.8390
   75CHL1    H3 6658   2.756   5.432   2.520  0.4246 -0.8346 -1.0274
   75CHL1    O3 6659   2.704   5.531   2.356  0.1348  0.0244  0.3652
   75CHL1   H3' 6660   2.683   5.625   2.347  0.7977  0.0154 -1.9134
   75CHL1    C4 6661   2.536   5.422   2.497 -0.8925  0.4513 -0.6500
   75CHL1   H4A 6662   2.464   5.487   2.443  1.5700  1.6466 -2.7314
   75CHL1   H4B 6663   2.542   5.325   2.444 -0.2871  1.4247 -2.4236
   75CHL1    C5 6664   2.500   5.400   2.642 -0.4247  0.0410 -0.2592
   75CHL1    C6 6665   2.477   5.280   2.682 -0.1776 -0.1697  0.2913
   75CHL1    H6 6666   2.477   5.199   2.607 -1.5357 -0.0982  0.1960
   75CHL1    C7 6667   2.438   5.243   2.826  0.5306 -0.0344 -0.3577
   75CHL1   H7A 6668   2.353   5.171   2.828  0.5851 -0.1561 -1.4706
   75CHL1   H7B 6669   2.524   5.185   2.867  0.5048  0.3785  0.2940
   75CHL1    C8 6670   2.405   5.356   2.917  0.7561 -0.1229 -0.1198
   75CHL1    H8 6671   2.301   5.393   2.906  1.1071  1.9524  2.3759
   75CHL1   C14 6672   2.416   5.327   3.064 -0.1102  0.5413 -0.1453
   75CHL1   H14 6673   2.525   5.307   3.078 -0.2354 -1.0549 -1.1751
   75CHL1   C15 6674   2.351   5.201   3.124  0.2023  0.2112  0.6545
   75CHL1  H15A 6675   2.250   5.192   3.078  0.7929 -1.1321 -0.4290
   75CHL1  H15B 6676   2.407   5.112   3.089 -0.3954  0.9038 -2.3845
   75CHL1   C16 6677   2.354   5.209   3.277  0.5236  1.1456  0.1336
   75CHL1  H16A 6678   2.249   5.189   3.307  1.6900 -1.7029  2.8167
   75CHL1  H16B 6679   2.417   5.125   3.313 -0.1932 -0.1457 -1.5094
   75CHL1   C17 6680   2.411   5.353   3.303  0.5308  0.4933  0.0413
   75CHL1   H17 6681   2.521   5.338   3.305  0.4030 -0.5059  1.3544
   75CHL1   C13 6682   2.381   5.434   3.164 -0.4189  0.2752 -0.1049
   75CHL1   C18 6683   2.236   5.467   3.157  1.1549 -0.2451 -0.3994
   75CHL1  H18A 6684   2.206   5.556   3.217 -1.4087 -2.3840  1.7573
   75CHL1  H18B 6685   2.211   5.487   3.051  1.4188 -1.8722 -0.8025
   75CHL1  H18C 6686   2.162   5.389   3.187  0.1888  1.5897  2.4792
   75CHL1   C12 6687   2.475   5.551   3.135 -0.3695 -0.2852  0.9175
   75CHL1  H12A 6688   2.458   5.641   3.197 -1.9508  0.0461  0.0553
   75CHL1  H12B 6689   2.582   5.528   3.156 -0.5823 -3.4522 -0.8228
   75CHL1   C11 6690   2.476   5.606   2.989 -0.0791 -0.0381  0.0447
   75CHL1  H11A 6691   2.383   5.663   2.970 -0.4204 -1.0892 -1.6749
   75CHL1  H11B 6692   2.561   5.674   2.968 -0.5127  0.0961 -1.3791
   75CHL1    C9 6693   2.498   5.485   2.887  0.5805  0.4040 -0.0742
   75CHL1    H9 6694   2.597   5.443   2.914  1.1013  2.7259  2.0093
   75CHL1   C10 6695   2.503   5.521   2.740  0.6869 -0.0271 -0.4711
   75CHL1   C19 6696   2.391   5.618   2.700  0.9636 -0.8663  0.0551
   75CHL1  H19A 6697   2.388   5.641   2.592 -1.0920 -1.2462 -0.0194
   75CHL1  H19B 6698   2.296   5.566   2.726  1.9814 -2.9931 -0.2768
   75CHL1  H19C 6699   2.387   5.721   2.740  0.5325 -0.2920 -1.4009
   75CHL1    C1 6700   2.640   5.583   2.720  0.6729 -1.1183  0.4137
   75CHL1   H1A 6701   2.657   5.674   2.781 -2.5111  0.7756 -1.2493
   75CHL1   H1B 6702   2.721   5.516   2.757  2.6847  2.8807  4.1511
   75CHL1    C2 6703   2.670   5.623   2.570 -0.5458  0.4795  0.9169
   75CHL1   H2A 6704   2.766   5.678   2.553 -1.4379  1.6029 -0.8246
   75CHL1   H2B 6705   2.595   5.694   2.529  2.6449  3.7667  0.2117
   75CHL1   C20 6706   2.363   5.408   3.432 -0.4820  0.4519 -0.2339
   75CHL1   H20 6707   2.252   5.410   3.437 -0.4406  2.4427  1.0630
   75CHL1   C21 6708   2.407   5.553   3.448  0.6983  0.2066 -0.5034
   75CHL1  H21A 6709   2.387   5.585   3.553  0.9158 -0.0411 -0.3850
   75CHL1  H21B 6710   2.340   5.617   3.387 -0.9541  0.5888  1.5882
   75CHL1  H21C 6711   2.510   5.566   3.409  0.4285  0.9906 -0.9801
   75CHL1   C22 6712   2.416   5.322   3.554  0.6408  0.1204  0.0919
   75CHL1  H22A 6713   2.376   5.220   3.539 -0.8303  0.1085  3.3311
   75CHL1  H22B 6714   2.527   5.316   3.553  0.6370 -1.7492  2.1565
   75CHL1   C23 6715   2.385   5.373   3.692  0.2943  0.7060 -0.0909
   75CHL1  H23A 6716   2.449   5.462   3.712  0.2022  0.9245 -0.7490
   75CHL1  H23B 6717   2.281   5.398   3.720 -0.4692 -2.8454  0.6878
   75CHL1   C24 6718   2.425   5.273   3.798 -0.1410  0.6959 -0.3033
   75CHL1  H24A 6719   2.403   5.171   3.760  0.8271 -0.6094  2.3683
   75CHL1  H24B 6720   2.535   5.282   3.810 -0.3051  0.1491  2.0608
   75CHL1   C25 6721   2.371   5.305   3.936  0.5224  0.0450  0.2913
   75CHL1   H25 6722   2.263   5.325   3.923  0.2817 -1.2624  0.1529
   75CHL1   C26 6723   2.386   5.192   4.039 -0.5866  0.0284 -0.4121
   75CHL1  H26A 6724   2.325   5.227   4.126 -1.4882  1.6774 -1.6576
   75CHL1  H26B 6725   2.342   5.099   3.997  1.1254 -0.3920 -1.3767
   75CHL1  H26C 6726   2.490   5.169   4.070 -0.6572  1.3981  1.0217
   75CHL1   C27 6727   2.442   5.421   3.989 -0.2467  0.0315  0.0258
   75CHL1  H27A 6728   2.433   5.436   4.098  0.2319 -0.1995  0.0968
   75CHL1  H27B 6729   2.547   5.402   3.960 -0.5550 -0.2122 -0.9774
   75CHL1  H27C 6730   2.423   5.520   3.941  1.4910  1.8075  2.7261
   76CHL1    C3 6731   6.146   6.126   2.542 -0.3259 -1.2921  0.3939
   76CHL1    H3 6732   6.243   6.174   2.569 -0.4575 -0.9253  0.2268
   76CHL1    O3 6733   6.109   6.158   2.411  0.5445 -0.7612 -0.1578
   76CHL1   H3' 6734   6.020   6.193   2.407  0.5902 -0.3019  1.8320
   76CHL1    C4 6735   6.149   5.978   2.571 -1.1780 -0.3373  0.6033
   76CHL1   H4A 6736   6.045   5.942   2.555 -1.5682  0.6547  0.8134
   76CHL1   H4B 6737   6.216   5.951   2.487 -1.5431  4.0219 -1.3247
   76CHL1    C5 6738   6.197   5.945   2.708 -0.0175  0.1326 -0.3935
   76CHL1    C6 6739   6.309   5.872   2.734  0.1212 -0.1187  0.3766
   76CHL1    H6 6740   6.359   5.835   2.644  0.7041  0.5161  0.4295
   76CHL1    C7 6741   6.367   5.852   2.875  0.6743  0.7738  0.9113
   76CHL1   H7A 6742   6.407   5.750   2.889  0.0514  0.6365  1.7783
   76CHL1   H7B 6743   6.450   5.923   2.898  0.4976  0.2368  3.5950
   76CHL1    C8 6744   6.259   5.879   2.986 -0.5782  0.9383 -0.1779
   76CHL1    H8 6745   6.188   5.793   2.985 -0.9432  1.1541  1.9124
   76CHL1   C14 6746   6.329   5.895   3.123 -0.3696 -0.3202 -0.2227
   76CHL1   H14 6747   6.394   5.985   3.117 -0.3423 -0.3101  0.1958
   76CHL1   C15 6748   6.420   5.776   3.160  0.8786  0.5142 -1.1815
   76CHL1  H15A 6749   6.371   5.680   3.136  1.7340  0.1662 -1.6007
   76CHL1  H15B 6750   6.519   5.775   3.109  0.5047  1.0673 -1.9288
   76CHL1   C16 6751   6.442   5.792   3.315 -0.5254 -0.3762  0.0541
   76CHL1  H16A 6752   6.411   5.703   3.374 -0.5319  0.3946  1.2552
   76CHL1  H16B 6753   6.543   5.826   3.345  0.9073 -2.6158 -1.9069
   76CHL1   C17 6754   6.331   5.899   3.352 -0.7434  0.1788  0.4545
   76CHL1   H17 6755   6.375   6.001   3.355  2.2500 -1.0053  0.3480
   76CHL1   C13 6756   6.232   5.905   3.236 -0.2053 -0.3838  0.4393
   76CHL1   C18 6757   6.134   5.795   3.251  0.3955  0.1500  0.4863
   76CHL1  H18A 6758   6.057   5.812   3.329 -0.5555  2.0702 -0.7920
   76CHL1  H18B 6759   6.073   5.786   3.159  0.5631  1.5196  0.2326
   76CHL1  H18C 6760   6.176   5.696   3.278 -2.0249 -1.3951 -1.0028
   76CHL1   C12 6761   6.163   6.044   3.212  0.0483 -0.2107 -0.3897
   76CHL1  H12A 6762   6.092   6.066   3.294 -0.5223 -1.6893 -0.4510
   76CHL1  H12B 6763   6.239   6.125   3.203 -1.8348  1.5848 -0.6840
   76CHL1   C11 6764   6.089   6.042   3.077 -0.3477  0.1579 -0.4879
   76CHL1  H11A 6765   5.993   5.986   3.076  0.4610 -1.3376  0.5214
   76CHL1  H11B 6766   6.048   6.143   3.059  0.3177  0.5344  0.0677
   76CHL1    C9 6767   6.174   6.006   2.957 -0.6182  1.2929 -0.0567
   76CHL1    H9 6768   6.255   6.082   2.955 -0.1736  0.8560  0.6385
   76CHL1   C10 6769   6.108   6.012   2.815 -0.8876 -0.1903 -0.3642
   76CHL1   C19 6770   5.981   5.915   2.829 -0.6925 -0.6345  0.0175
   76CHL1  H19A 6771   5.931   5.897   2.731  1.4542  0.0700 -1.2934
   76CHL1  H19B 6772   6.020   5.819   2.869  2.6417  1.1619  1.5056
   76CHL1  H19C 6773   5.906   5.964   2.894  0.8189  0.3252  1.0947
   76CHL1    C1 6774   6.086   6.158   2.781 -0.3156 -0.1139 -0.2061
   76CHL1   H1A 6775   6.001   6.192   2.844  0.7695  1.2148  0.6003
   76CHL1   H1B 6776   6.179   6.211   2.812 -0.7818 -0.2189  1.4984
   76CHL1    C2 6777   6.049   6.187   2.639 -0.0513  0.0713  0.4131
   76CHL1   H2A 6778   6.041   6.298   2.641  2.8973  0.3601  1.9857
   76CHL1   H2B 6779   5.947   6.148   2.617  0.7053 -2.2242  0.6938
   76CHL1   C20 6780   6.288   5.869   3.494  0.5383  0.2332 -0.2953
   76CHL1   H20 6781   6.245   5.767   3.495 -0.0524  0.4718 -0.7079
   76CHL1   C21 6782   6.182   5.969   3.544  0.8518 -0.2840 -0.6097
   76CHL1  H21A 6783   6.097   5.983   3.473  0.7160  0.3072 -0.3417
   76CHL1  H21B 6784   6.203   6.077   3.558 -1.8580  0.2855 -0.2961
   76CHL1  H21C 6785   6.151   5.924   3.640  1.5262  0.5589  0.0160
   76CHL1   C22 6786   6.411   5.874   3.594 -0.1674  0.0493 -0.0068
   76CHL1  H22A 6787   6.476   5.792   3.557  0.2760  0.9160 -1.2321
   76CHL1  H22B 6788   6.462   5.973   3.598 -2.6252  1.3630  1.5792
   76CHL1   C23 6789   6.373   5.849   3.741  0.1517 -0.1469 -0.1064
   76CHL1  H23A 6790   6.313   5.928   3.790 -0.8264 -0.7748 -0.2590
   76CHL1  H23B 6791   6.296   5.768   3.738  0.0325 -0.0425  0.1463
   76CHL1   C24 6792   6.493   5.804   3.827  0.1480  0.4986 -0.3489
   76CHL1  H24A 6793   6.540   5.705   3.808  2.8007  1.3914  1.0808
   76CHL1  H24B 6794   6.570   5.883   3.822 -0.2336  0.9110  0.2000
   76CHL1   C25 6795   6.448   5.787   3.979 -0.4299 -0.3464 -0.3667
   76CHL1   H25 6796   6.410   5.882   4.021  2.0182  0.2028  0.7331
   76CHL1   C26 6797   6.349   5.667   3.990  0.1539  0.2493  0.6488
   76CHL1  H26A 6798   6.308   5.647   4.091 -0.9488 -0.6754  0.0466
   76CHL1  H26B 6799   6.253   5.675   3.934 -0.5247  2.2613  1.9705
   76CHL1  H26C 6800   6.393   5.575   3.948 -0.8671 -1.7283  3.5969
   76CHL1   C27 6801   6.577   5.761   4.059  0.4696 -0.1101 -0.2801
   76CHL1  H27A 6802   6.557   5.756   4.168  1.6795  0.1136 -0.0272
   76CHL1  H27B 6803   6.640   5.680   4.017  1.2847  1.9735 -3.5139
   76CHL1  H27C 6804   6.651   5.843   4.050  1.9471 -1.4760 -1.1640
   77SOPE     N 6805   4.607   5.893   6.643 -0.9444 -0.6507  0.1154
   77SOPE   HN1 6806   4.709   5.881   6.629 -1.2331 -1.4520 -1.6322
   77SOPE   HN2 6807   4.566   5.799   6.626 -1.0501 -0.8615  1.4513
   77SOPE   HN3 6808   4.565   5.962   6.578 -0.6911  1.1512  1.7834
   77SOPE   C12 6809   4.585   5.940   6.787  0.0090 -0.6159  0.1709
   77SOPE  H12A 6810   4.662   6.018   6.806 -1.5335  0.3831  2.7398
   77SOPE  H12B 6811   4.612   5.855   6.854  2.9495 -0.2044 -0.3243
   77SOPE   C11 6812   4.441   5.998   6.812 -1.0634 -0.2725  0.1096
   77SOPE  H11A 6813   4.436   6.036   6.916 -0.8416  1.0901 -0.3645
   77SOPE  H11B 6814   4.374   5.909   6.807  0.8401 -1.9255  1.6946
   77SOPE     P 6815   4.316   6.089   6.595 -0.1199  0.2650 -0.5708
   77SOPE   O13 6816   4.263   6.221   6.568 -0.1379  0.3074  0.3139
   77SOPE   O14 6817   4.218   5.973   6.605 -0.1586  0.2249 -0.5742
   77SOPE   O12 6818   4.399   6.101   6.729 -0.3986 -0.0592 -0.1857
   77SOPE   O11 6819   4.424   6.044   6.486 -0.2231 -0.4742  0.0228
   77SOPE    C1 6820   4.513   6.146   6.436 -0.8004 -0.1571  0.0211
   77SOPE    HA 6821   4.614   6.102   6.420 -1.0577 -0.0116 -2.3018
   77SOPE    HB 6822   4.528   6.232   6.505 -0.5828  0.3470 -0.6465
   77SOPE    C2 6823   4.476   6.200   6.298  0.2638 -0.8246 -0.0956
   77SOPE    HS 6824   4.381   6.254   6.319  0.5207 -0.6837  0.7251
   77SOPE   O21 6825   4.455   6.097   6.203  0.2568 -0.3897 -0.1037
   77SOPE   C21 6826   4.384   6.130   6.096  0.7335 -0.0420  0.2762
   77SOPE   O22 6827   4.313   6.227   6.088  0.4533  0.1595  0.2900
   77SOPE   C22 6828   4.399   6.021   5.991  0.3370  0.7499 -0.0382
   77SOPE   H2R 6829   4.315   5.952   6.015 -0.7423  2.0033 -0.1153
   77SOPE   H2S 6830   4.500   5.981   6.010  0.6872  1.9105  0.6447
   77SOPE    C3 6831   4.576   6.316   6.255 -0.0194 -0.4910 -0.8835
   77SOPE    HX 6832   4.679   6.275   6.265 -0.2915 -1.0121 -0.0861
   77SOPE    HY 6833   4.585   6.402   6.325 -1.2402 -0.1800 -1.0920
   77SOPE   O31 6834   4.564   6.352   6.114  0.1543  0.4633  0.4275
   77SOPE   C31 6835   4.496   6.464   6.097  0.4592  0.3735 -0.0348
   77SOPE   O32 6836   4.438   6.519   6.188 -0.2980 -0.2602 -0.3449
   77SOPE   C32 6837   4.510   6.516   5.952  0.6833 -0.0629 -0.3740
   77SOPE   H2X 6838   4.525   6.426   5.887  0.5333  1.0062 -1.9547
   77SOPE   H2Y 6839   4.605   6.571   5.937  0.3931  0.3780 -0.6292
   77SOPE   C23 6840   4.369   6.066   5.842 -0.4131  0.3299 -0.5478
   77SOPE   H3R 6841   4.428   6.160   5.827 -1.1997  0.9890  0.3390
   77SOPE   H3S 6842   4.260   6.077   5.821 -0.4686 -0.0245 -0.4508
   77SOPE   C24 6843   4.430   5.965   5.740 -0.5806  0.2091  0.6562
   77SOPE   H4R 6844   4.533   5.934   5.770 -0.9799 -1.2027  0.6069
   77SOPE   H4S 6845   4.369   5.873   5.752  0.1471 -0.2264  1.1016
   77SOPE   C25 6846   4.412   6.008   5.596 -0.2249 -0.4580 -0.0158
   77SOPE   H5R 6847   4.308   6.047   5.586 -1.3462 -2.6308  2.1868
   77SOPE   H5S 6848   4.490   6.087   5.586  0.7727 -1.2981  0.8875
   77SOPE   C26 6849   4.426   5.886   5.494 -0.4921  0.2026  0.6493
   77SOPE   H6R 6850   4.502   5.811   5.526 -0.6476 -0.3829 -0.3198
   77SOPE   H6S 6851   4.332   5.828   5.492 -0.2189 -0.2361 -1.8547
   77SOPE   C27 6852   4.455   5.917   5.347  0.6143 -0.4042  0.2238
   77SOPE   H7R 6853   4.541   5.988   5.339 -1.1949  1.7109 -2.4431
   77SOPE   H7S 6854   4.480   5.821   5.298  1.1918  0.7471 -1.8612
   77SOPE   C28 6855   4.330   5.978   5.288  0.4448 -0.4117  0.6614
   77SOPE   H8R 6856   4.246   5.906   5.283  0.2531 -0.1045 -1.6607
   77SOPE   H8S 6857   4.304   6.066   5.352  0.3778 -0.1191  0.2381
   77SOPE   C29 6858   4.355   6.034   5.146  0.0676  0.8802  0.7826
   77SOPE   H91 6859   4.349   6.143   5.141 -4.2342  0.7430 -1.5367
   77SOPE  C210 6860   4.385   5.963   5.037 -0.3858  0.0502  0.4592
   77SOPE  H101 6861   4.387   6.015   4.940  0.9759  2.3240  1.6338
   77SOPE  C211 6862   4.393   5.812   5.035 -0.1340 -0.1236  0.7154
   77SOPE  H11R 6863   4.353   5.773   5.131  0.2796 -0.7966  0.6222
   77SOPE  H11S 6864   4.500   5.781   5.029 -0.2701 -0.4466 -0.1821
   77SOPE  C212 6865   4.316   5.749   4.918 -0.0934  0.1783 -0.6750
   77SOPE  H12R 6866   4.357   5.784   4.821  1.4698 -2.2984 -0.9852
   77SOPE  H12S 6867   4.207   5.771   4.927 -0.5780 -1.7433 -1.3578
   77SOPE  C213 6868   4.334   5.601   4.901  0.3283  0.6228 -0.4620
   77SOPE  H13R 6869   4.282   5.543   4.980  0.7738 -0.1157 -0.6961
   77SOPE  H13S 6870   4.438   5.569   4.922 -0.4573 -0.3044  2.5370
   77SOPE  C214 6871   4.295   5.544   4.761  0.2227 -0.2325 -0.1204
   77SOPE  H14R 6872   4.205   5.602   4.730  1.5393  4.0178  3.0147
   77SOPE  H14S 6873   4.263   5.441   4.786 -0.8026  0.2597  0.6485
   77SOPE  C215 6874   4.402   5.548   4.654 -0.9653  0.2991  0.0499
   77SOPE  H15R 6875   4.482   5.487   4.702 -1.5220 -0.5227 -0.0549
   77SOPE  H15S 6876   4.436   5.652   4.635  1.7029 -0.5041 -0.0413
   77SOPE  C216 6877   4.351   5.483   4.525  0.1271 -0.6104  0.1052
   77SOPE  H16R 6878   4.278   5.557   4.486  1.8838  0.4150 -1.3888
   77SOPE  H16S 6879   4.313   5.380   4.543 -3.2608  0.2789 -1.1273
   77SOPE  C217 6880   4.460   5.468   4.421 -0.7858  0.3908 -0.1145
   77SOPE  H17R 6881   4.536   5.391   4.451 -2.2075 -1.9077 -2.0710
   77SOPE  H17S 6882   4.512   5.566   4.413 -1.7701  0.9146 -0.2653
   77SOPE  C218 6883   4.423   5.420   4.284  0.1619 -0.2874 -0.2686
   77SOPE  H18R 6884   4.353   5.496   4.242  0.5872  0.4271  0.3044
   77SOPE  H18S 6885   4.376   5.319   4.277  1.2332 -1.0066  1.9681
   77SOPE  H18T 6886   4.515   5.426   4.222  1.4937 -2.1703  1.3847
   77SOPE   C33 6887   4.391   6.614   5.914 -0.1126 -0.8803  0.0207
   77SOPE   H3X 6888   4.418   6.686   5.834  1.2321 -1.9519 -0.5269
   77SOPE   H3Y 6889   4.363   6.684   5.996  1.3401  0.0542 -0.2586
   77SOPE   C34 6890   4.263   6.542   5.869 -0.4021 -0.5380 -1.4838
   77SOPE   H4X 6891   4.180   6.609   5.838  0.2400  0.1571 -1.7218
   77SOPE   H4Y 6892   4.237   6.480   5.958  0.4033  0.2533 -0.6806
   77SOPE   C35 6893   4.288   6.436   5.762  1.0074  0.3447 -0.2477
   77SOPE   H5X 6894   4.194   6.394   5.721  0.2478  0.1691  1.6042
   77SOPE   H5Y 6895   4.337   6.350   5.812 -1.3662  0.1712  1.9811
   77SOPE   C36 6896   4.358   6.493   5.636  0.2700 -0.0479 -0.1350
   77SOPE   H6X 6897   4.459   6.533   5.661 -0.4636  0.3995  2.5438
   77SOPE   H6Y 6898   4.296   6.581   5.606 -1.5852 -1.0341  0.6265
   77SOPE   C37 6899   4.382   6.397   5.525 -0.1915 -0.1490  0.2757
   77SOPE   H7X 6900   4.285   6.356   5.489 -0.2102  2.1516 -2.7321
   77SOPE   H7Y 6901   4.444   6.313   5.563  1.1348  1.5369  2.0568
   77SOPE   C38 6902   4.454   6.465   5.408  0.7247 -0.0782 -0.4645
   77SOPE   H8X 6903   4.541   6.523   5.447  1.2533  0.5185 -2.4312
   77SOPE   H8Y 6904   4.387   6.542   5.364  1.5261  1.1102  0.3240
   77SOPE   C39 6905   4.488   6.359   5.306 -0.2858 -0.2977  0.2510
   77SOPE   H9X 6906   4.397   6.296   5.311 -1.2727  1.1130  1.2537
   77SOPE   H9Y 6907   4.578   6.305   5.341 -0.9583  0.0347  2.6776
   77SOPE  C310 6908   4.514   6.415   5.162 -0.0779  0.2887 -0.2689
   77SOPE  H10X 6909   4.583   6.502   5.173  1.2168 -0.9601  2.4211
   77SOPE  H10Y 6910   4.415   6.448   5.125 -0.6346 -1.4880 -0.4213
   77SOPE  C311 6911   4.580   6.319   5.073 -0.1224 -0.2761  0.5746
   77SOPE  H11X 6912   4.515   6.230   5.070 -0.9986  0.3892 -1.5803
   77SOPE  H11Y 6913   4.680   6.291   5.114  0.4878  0.2689 -0.4969
   77SOPE  C312 6914   4.592   6.356   4.931 -0.0593 -0.0007  0.8977
   77SOPE  H12X 6915   4.675   6.429   4.921 -0.2095  0.3929  2.2599
   77SOPE  H12Y 6916   4.502   6.413   4.902  1.9022  2.5415 -0.6032
   77SOPE  C313 6917   4.604   6.237   4.825 -0.3724 -0.7234  0.3733
   77SOPE  H13X 6918   4.518   6.167   4.835 -0.6836 -0.4394 -0.2489
   77SOPE  H13Y 6919   4.698   6.183   4.848 -1.8319 -3.0844  1.1189
   77SOPE  C314 6920   4.614   6.278   4.683  0.5591  0.0790  0.4282
   77SOPE  H14X 6921   4.693   6.355   4.668 -0.4132  1.1323  0.5362
   77SOPE  H14Y 6922   4.523   6.337   4.657  1.2810  0.7707 -0.6003
   77SOPE  C315 6923   4.629   6.158   4.595  0.5930  0.8843  0.1252
   77SOPE  H15X 6924   4.535   6.099   4.599  0.1460  1.6592  2.6943
   77SOPE  H15Y 6925   4.708   6.091   4.636 -1.4677 -1.9535 -0.2580
   77SOPE  C316 6926   4.664   6.188   4.452 -0.1550 -0.2432 -0.2764
   77SOPE  H16X 6927   4.755   6.252   4.450  1.3211 -2.2234 -0.4166
   77SOPE  H16Y 6928   4.587   6.236   4.388 -0.1513  1.2395  0.7740
   77SOPE  C317 6929   4.698   6.053   4.388 -0.0282 -0.5900  0.6367
   77SOPE  H17X 6930   4.616   5.980   4.406 -1.7525  1.2059  0.3569
   77SOPE  H17Y 6931   4.796   6.028   4.435 -0.6983  0.3772  2.6595
   77SOPE  C318 6932   4.708   6.060   4.236 -0.3554  0.6931  0.2602
   77SOPE  H18X 6933   4.607   6.085   4.197 -1.3594 -0.4766  1.9577
   77SOPE  H18Y 6934   4.745   5.964   4.194  2.6774  1.9042 -0.0867
   77SOPE  H18Z 6935   4.770   6.144   4.198 -2.8917  2.6089  0.1056
   78SOPE     N 6936   4.281   4.881   6.641 -0.0236  0.2274 -0.1040
   78SOPE   HN1 6937   4.313   4.972   6.681  1.4669 -0.4713  0.4099
   78SOPE   HN2 6938   4.264   4.909   6.543 -0.0208  1.7404  0.3008
   78SOPE   HN3 6939   4.194   4.862   6.694  1.1571 -0.2285  1.7743
   78SOPE   C12 6940   4.386   4.776   6.639  0.3373 -0.3561 -0.0642
   78SOPE  H12A 6941   4.411   4.760   6.746 -3.5832 -2.1392  0.7531
   78SOPE  H12B 6942   4.476   4.817   6.587  0.9708 -1.5870  0.0182
   78SOPE   C11 6943   4.344   4.643   6.577  0.3138  0.2883  0.7244
   78SOPE  H11A 6944   4.438   4.584   6.581  1.2123  1.4906 -1.5227
   78SOPE  H11B 6945   4.316   4.645   6.470 -1.1256 -0.2443  1.0592
   78SOPE     P 6946   4.175   4.441   6.599  0.2982 -0.0509  0.3297
   78SOPE   O13 6947   4.068   4.382   6.684 -0.2143  0.1546  0.5223
   78SOPE   O14 6948   4.285   4.357   6.555 -0.3549 -0.0362 -0.3495
   78SOPE   O12 6949   4.240   4.580   6.658  0.3903  0.4580  0.0329
   78SOPE   O11 6950   4.101   4.499   6.469 -0.1537  0.1156  0.2330
   78SOPE    C1 6951   3.979   4.579   6.483  0.1129  0.0330  0.9254
   78SOPE    HA 6952   4.007   4.674   6.432  0.8178 -0.8681 -0.4097
   78SOPE    HB 6953   3.970   4.603   6.591  3.8036  0.1926  1.3090
   78SOPE    C2 6954   3.859   4.515   6.417 -0.2551  0.5262 -0.2145
   78SOPE    HS 6955   3.841   4.418   6.468 -1.2986  1.0469  0.4337
   78SOPE   O21 6956   3.889   4.487   6.273  0.5045 -0.3581 -0.2673
   78SOPE   C21 6957   3.844   4.363   6.240  0.6029 -0.1517  0.0986
   78SOPE   O22 6958   3.804   4.276   6.311 -0.0526  0.7290  0.6453
   78SOPE   C22 6959   3.842   4.351   6.090 -0.1395 -0.2512 -0.3522
   78SOPE   H2R 6960   3.944   4.346   6.045 -0.0852  0.4794 -0.3186
   78SOPE   H2S 6961   3.786   4.438   6.050  2.1862  1.2010 -0.6432
   78SOPE    C3 6962   3.720   4.596   6.434 -0.5476 -0.1679 -0.9892
   78SOPE    HX 6963   3.750   4.694   6.393  0.0159  0.1574  0.1583
   78SOPE    HY 6964   3.696   4.598   6.542  2.5659 -1.0622 -0.1679
   78SOPE   O31 6965   3.617   4.538   6.360  0.0784  0.8542  0.1964
   78SOPE   C31 6966   3.506   4.610   6.352  0.4314 -0.2238  0.1568
   78SOPE   O32 6967   3.472   4.706   6.421 -0.5294  0.4443 -0.1231
   78SOPE   C32 6968   3.407   4.550   6.243  0.8003 -0.7587 -0.1463
   78SOPE   H2X 6969   3.315   4.611   6.260  0.7580 -0.1855 -2.1131
   78SOPE   H2Y 6970   3.386   4.443   6.264  0.1130 -0.2295  2.0603
   78SOPE   C23 6971   3.773   4.226   6.028  0.6458 -0.3535  0.5231
   78SOPE   H3R 6972   3.676   4.207   6.080  0.5451 -1.2992  0.0224
   78SOPE   H3S 6973   3.824   4.129   6.046 -2.8746 -2.4947 -0.0801
   78SOPE   C24 6974   3.744   4.225   5.879  0.6405  0.5118 -0.3904
   78SOPE   H4R 6975   3.681   4.316   5.866 -0.6740 -0.2383  0.3883
   78SOPE   H4S 6976   3.838   4.242   5.823 -0.6118 -0.8061 -3.0348
   78SOPE   C25 6977   3.662   4.107   5.838  0.2099  0.2619  1.3641
   78SOPE   H5R 6978   3.730   4.022   5.819 -1.2417 -0.9427  1.4304
   78SOPE   H5S 6979   3.591   4.078   5.918 -1.3228 -0.6203 -0.2386
   78SOPE   C26 6980   3.583   4.141   5.710  0.7901  0.0254 -0.0847
   78SOPE   H6R 6981   3.521   4.052   5.689 -0.7331  0.9943  0.1037
   78SOPE   H6S 6982   3.517   4.230   5.720 -0.8423 -1.1251 -0.1925
   78SOPE   C27 6983   3.671   4.172   5.590  0.1880  0.8936  0.2055
   78SOPE   H7R 6984   3.746   4.247   5.620 -0.4787  1.2352  1.0562
   78SOPE   H7S 6985   3.728   4.083   5.554 -0.5384  1.6861 -3.2481
   78SOPE   C28 6986   3.585   4.220   5.466 -0.7608  1.2923  0.4640
   78SOPE   H8R 6987   3.529   4.131   5.431  1.1305 -0.4967  1.7141
   78SOPE   H8S 6988   3.517   4.303   5.494 -1.5488  1.4108 -1.6389
   78SOPE   C29 6989   3.665   4.267   5.346 -0.3726  0.2595 -0.3031
   78SOPE   H91 6990   3.751   4.331   5.371  0.9677 -0.7940 -1.9459
   78SOPE  C210 6991   3.637   4.247   5.221 -0.6835 -0.2348  0.1940
   78SOPE  H101 6992   3.705   4.285   5.143  1.1726  0.2727  1.9836
   78SOPE  C211 6993   3.527   4.162   5.164 -0.0629 -0.2237 -0.4235
   78SOPE  H11R 6994   3.427   4.184   5.208 -1.2345  0.3285 -3.1302
   78SOPE  H11S 6995   3.545   4.054   5.185  1.0261  0.1302  0.5708
   78SOPE  C212 6996   3.509   4.184   5.012  0.1863  0.4516 -0.3643
   78SOPE  H12R 6997   3.608   4.151   4.973  0.0632  0.9536 -1.1430
   78SOPE  H12S 6998   3.498   4.293   4.996  0.4751  0.5723  0.2359
   78SOPE  C213 6999   3.400   4.101   4.944  0.6683 -0.2397  0.0695
   78SOPE  H13R 7000   3.295   4.111   4.980  1.0227  0.5963  0.8801
   78SOPE  H13S 7001   3.421   3.992   4.954 -0.1645 -0.6548 -2.0238
   78SOPE  C214 7002   3.406   4.139   4.797 -0.2693 -0.5905 -0.7727
   78SOPE  H14R 7003   3.510   4.171   4.777 -0.5049  1.6597  1.2156
   78SOPE  H14S 7004   3.347   4.233   4.789 -0.4259 -0.7532 -1.6656
   78SOPE  C215 7005   3.350   4.033   4.700  0.1431  0.2885 -0.0387
   78SOPE  H15R 7006   3.245   4.015   4.733  0.5770 -0.2605  1.0841
   78SOPE  H15S 7007   3.402   3.939   4.727 -2.6813 -1.5207 -0.4490
   78SOPE  C216 7008   3.347   4.072   4.552 -0.7142  0.2147 -0.5116
   78SOPE  H16R 7009   3.374   4.179   4.540  2.7275 -0.5777 -0.7491
   78SOPE  H16S 7010   3.244   4.046   4.519 -0.2459 -0.9408 -1.1408
   78SOPE  C217 7011   3.448   3.975   4.476 -0.5176  0.8171  0.7912
   78SOPE  H17R 7012   3.410   3.872   4.490  3.2572 -0.6864  1.1413
   78SOPE  H17S 7013   3.551   3.975   4.518  1.6426  0.8356 -3.8951
   78SOPE  C218 7014   3.451   4.001   4.326  0.3089  0.3582 -0.1705
   78SOPE  H18R 7015   3.349   3.998   4.282 -0.6038 -3.4738  1.7160
   78SOPE  H18S 7016   3.516   3.924   4.279  1.3067  0.6607  0.6719
   78SOPE  H18T 7017   3.496   4.100   4.303 -0.3910  0.9728  0.9891
   78SOPE   C33 7018   3.461   4.565   6.094  0.5110 -0.1782 -0.0224
   78SOPE   H3X 7019   3.381   4.517   6.034 -0.0808 -0.9690  1.3441
   78SOPE   H3Y 7020   3.551   4.500   6.092  0.8139  0.1753  1.0983
   78SOPE   C34 7021   3.482   4.706   6.044  0.1555 -0.7251 -0.6006
   78SOPE   H4X 7022   3.549   4.758   6.116 -1.3087  1.4197 -0.6822
   78SOPE   H4Y 7023   3.390   4.767   6.051  0.7264  0.0816  0.0903
   78SOPE   C35 7024   3.537   4.720   5.904  0.2563  0.0057 -0.3290
   78SOPE   H5X 7025   3.591   4.817   5.895 -0.0664  0.3435  1.1114
   78SOPE   H5Y 7026   3.463   4.741   5.824  1.3230  2.7034 -0.7071
   78SOPE   C36 7027   3.644   4.617   5.858 -0.9081 -0.3993  0.3323
   78SOPE   H6X 7028   3.600   4.515   5.867  0.3165 -1.0420 -0.7115
   78SOPE   H6Y 7029   3.734   4.633   5.920 -1.3750  1.3393  0.6077
   78SOPE   C37 7030   3.696   4.625   5.720 -0.1625 -0.5207 -0.0650
   78SOPE   H7X 7031   3.750   4.529   5.701  1.2274  0.1014  0.5828
   78SOPE   H7Y 7032   3.769   4.709   5.718  0.1070 -0.5169  3.5340
   78SOPE   C38 7033   3.596   4.635   5.601  0.3003  0.7609 -0.0287
   78SOPE   H8X 7034   3.510   4.703   5.621 -0.0995  0.2135  0.1156
   78SOPE   H8Y 7035   3.556   4.532   5.596  2.6168 -0.1875 -0.3450
   78SOPE   C39 7036   3.660   4.653   5.466  0.0554 -0.4534 -0.0434
   78SOPE   H9X 7037   3.745   4.585   5.448  0.3862  0.3146 -1.5445
   78SOPE   H9Y 7038   3.696   4.758   5.459 -0.5568 -0.2194  0.1943
   78SOPE  C310 7039   3.555   4.635   5.359  0.0329 -0.2087  0.5754
   78SOPE  H10X 7040   3.481   4.715   5.383 -0.6771 -1.5384  3.1972
   78SOPE  H10Y 7041   3.507   4.535   5.365 -2.5309  0.9283  0.4358
   78SOPE  C311 7042   3.619   4.652   5.220  0.6972  0.1079 -0.7709
   78SOPE  H11X 7043   3.706   4.583   5.219  0.7958  0.0957  2.1230
   78SOPE  H11Y 7044   3.634   4.762   5.207 -1.5717  0.6341  0.4921
   78SOPE  C312 7045   3.518   4.613   5.105 -0.5720 -0.4426  0.3471
   78SOPE  H12X 7046   3.440   4.691   5.101 -0.8157 -0.5530  2.0101
   78SOPE  H12Y 7047   3.460   4.520   5.126  0.2446 -0.5006  2.6411
   78SOPE  C313 7048   3.580   4.608   4.968 -0.5706  0.4555  0.1881
   78SOPE  H13X 7049   3.640   4.515   4.958  1.3932  1.5217  1.3496
   78SOPE  H13Y 7050   3.644   4.699   4.965  1.1029 -0.7125 -1.5907
   78SOPE  C314 7051   3.473   4.611   4.855  0.2892 -0.0023  0.0826
   78SOPE  H14X 7052   3.442   4.718   4.851  1.3945  0.3179 -3.3933
   78SOPE  H14Y 7053   3.387   4.550   4.890  0.5172  0.2974  1.2051
   78SOPE  C315 7054   3.524   4.561   4.723 -0.1974  0.4922 -0.8705
   78SOPE  H15X 7055   3.562   4.460   4.749  1.9579  1.5627  0.4843
   78SOPE  H15Y 7056   3.608   4.621   4.681 -0.2352 -0.1460 -1.8836
   78SOPE  C316 7057   3.400   4.558   4.636 -0.4357  0.3995  1.0459
   78SOPE  H16X 7058   3.352   4.658   4.632 -0.6459  0.3198  1.4582
   78SOPE  H16Y 7059   3.336   4.474   4.673  1.0814 -1.5029 -0.4424
   78SOPE  C317 7060   3.442   4.540   4.493  0.5365  0.7912  0.2856
   78SOPE  H17X 7061   3.493   4.442   4.480 -0.6977  0.4341 -2.6114
   78SOPE  H17Y 7062   3.505   4.626   4.462  0.1639  1.4611  1.3382
   78SOPE  C318 7063   3.330   4.526   4.391 -0.2013 -0.3577  0.6375
   78SOPE  H18X 7064   3.372   4.549   4.290 -2.1540  2.1016  0.2765
   78SOPE  H18Y 7065   3.241   4.591   4.405 -1.1908 -1.9263  1.9569
   78SOPE  H18Z 7066   3.296   4.420   4.391  4.6959 -2.2091  1.3318
   79SOPE     N 7067   3.127   1.712   6.644  0.1944  0.2959 -0.2275
   79SOPE   HN1 7068   3.120   1.708   6.748  2.0333  0.8148 -0.0512
   79SOPE   HN2 7069   3.026   1.692   6.630  0.1526 -1.1448  1.6549
   79SOPE   HN3 7070   3.183   1.629   6.617  1.7745  0.8657  1.1235
   79SOPE   C12 7071   3.163   1.851   6.595  0.1202 -0.8229  0.3816
   79SOPE  H12A 7072   3.066   1.905   6.595 -0.5980 -2.0751  0.7535
   79SOPE  H12B 7073   3.197   1.833   6.491 -2.0343 -2.9401 -0.0369
   79SOPE   C11 7074   3.272   1.933   6.676  0.4736  0.3366 -0.1250
   79SOPE  H11A 7075   3.230   1.948   6.778 -0.0498 -0.2008 -0.2521
   79SOPE  H11B 7076   3.267   2.029   6.622 -1.0347 -0.2897 -1.1633
   79SOPE     P 7077   3.532   1.950   6.700 -0.2003 -0.1993  0.0078
   79SOPE   O13 7078   3.635   1.871   6.768 -0.5194 -0.1050 -0.3753
   79SOPE   O14 7079   3.511   2.081   6.755 -0.2926 -0.0564 -0.1516
   79SOPE   O12 7080   3.395   1.868   6.688  0.1198 -0.1408 -0.2611
   79SOPE   O11 7081   3.571   1.966   6.549 -0.3351 -0.5153  0.3811
   79SOPE    C1 7082   3.527   1.868   6.454 -0.3479 -0.4436  0.7117
   79SOPE    HA 7083   3.439   1.900   6.395 -1.7987 -0.8034  2.6145
   79SOPE    HB 7084   3.503   1.775   6.509 -0.1178  0.3281  2.1729
   79SOPE    C2 7085   3.646   1.843   6.352 -0.4435  0.2181 -0.9063
   79SOPE    HS 7086   3.743   1.816   6.400  0.4871  1.2936 -2.1038
   79SOPE   O21 7087   3.653   1.959   6.272 -0.0897 -0.4541 -0.4192
   79SOPE   C21 7088   3.767   1.996   6.222 -0.8460 -0.3478  0.0416
   79SOPE   O22 7089   3.881   1.961   6.256 -0.9235  0.3367 -0.0626
   79SOPE   C22 7090   3.730   2.107   6.126 -0.0846  0.1466  0.0492
   79SOPE   H2R 7091   3.715   2.204   6.178 -0.0939  1.9022 -2.9470
   79SOPE   H2S 7092   3.630   2.082   6.085 -0.4454  2.2216 -0.4767
   79SOPE    C3 7093   3.607   1.723   6.260 -0.6009 -0.0086  1.1101
   79SOPE    HX 7094   3.499   1.734   6.238 -0.1899  0.8122 -0.6869
   79SOPE    HY 7095   3.620   1.631   6.321 -0.5484  1.6491  3.7396
   79SOPE   O31 7096   3.690   1.712   6.137 -0.2449  0.0862  0.6601
   79SOPE   C31 7097   3.652   1.616   6.058 -0.5507  0.2238 -0.5285
   79SOPE   O32 7098   3.566   1.532   6.078  0.1122  0.3520  0.0221
   79SOPE   C32 7099   3.740   1.623   5.933 -0.0274 -0.3768  0.0357
   79SOPE   H2X 7100   3.841   1.669   5.946  0.0518 -0.9795  1.8093
   79SOPE   H2Y 7101   3.685   1.677   5.853 -1.0990 -0.3002  0.8124
   79SOPE   C23 7102   3.834   2.142   6.014 -0.3272 -0.6916  0.1722
   79SOPE   H3R 7103   3.937   2.155   6.053  0.5899  0.6448 -2.5137
   79SOPE   H3S 7104   3.806   2.238   5.966  2.8351  1.2273  1.8346
   79SOPE   C24 7105   3.850   2.027   5.906  0.5676 -0.7347 -0.1122
   79SOPE   H4R 7106   3.911   1.948   5.954  1.9581  0.7309  0.6425
   79SOPE   H4S 7107   3.750   1.986   5.879  0.0307 -0.2368  1.0521
   79SOPE   C25 7108   3.907   2.073   5.772  0.1345  0.5409  0.2118
   79SOPE   H5R 7109   3.852   2.168   5.752  1.0563  0.6025 -2.4910
   79SOPE   H5S 7110   4.014   2.100   5.785  0.2948 -0.6727  1.6221
   79SOPE   C26 7111   3.882   1.966   5.665  0.3233 -0.2137 -0.1728
   79SOPE   H6R 7112   3.921   1.870   5.706  0.6763 -0.8678 -1.9603
   79SOPE   H6S 7113   3.774   1.953   5.640  0.7509  0.0498 -2.3285
   79SOPE   C27 7114   3.953   1.995   5.523  0.4351 -0.0224  0.5094
   79SOPE   H7R 7115   4.050   2.040   5.550  0.2043  0.2729  0.8586
   79SOPE   H7S 7116   3.961   1.891   5.486  0.4020  0.1439  0.0344
   79SOPE   C28 7117   3.873   2.089   5.427 -0.0120  0.1356 -0.3119
   79SOPE   H8R 7118   3.829   2.166   5.494  0.4182 -0.8539  1.1608
   79SOPE   H8S 7119   3.937   2.130   5.346  1.7691 -1.6682  0.0980
   79SOPE   C29 7120   3.763   2.016   5.352  0.1706  0.3998 -0.2821
   79SOPE   H91 7121   3.695   1.946   5.404 -1.5068  0.7947 -1.8458
   79SOPE  C210 7122   3.735   2.022   5.220  0.5603  0.5235  0.1777
   79SOPE  H101 7123   3.650   1.961   5.187  0.2774 -0.3836  2.4049
   79SOPE  C211 7124   3.799   2.107   5.112  0.0728 -0.1196  0.5883
   79SOPE  H11R 7125   3.908   2.090   5.123  0.5413  2.4927  0.5979
   79SOPE  H11S 7126   3.793   2.217   5.131 -0.0909 -0.2839  1.5659
   79SOPE  C212 7127   3.744   2.086   4.967  0.7247  0.2917  0.8670
   79SOPE  H12R 7128   3.651   2.144   4.951  0.6231  0.2480  1.2790
   79SOPE  H12S 7129   3.713   1.981   4.948  2.1584 -0.2063  1.1729
   79SOPE  C213 7130   3.840   2.128   4.858 -0.0957  0.7836 -0.2758
   79SOPE  H13R 7131   3.923   2.054   4.864 -0.9740 -0.1600  5.0375
   79SOPE  H13S 7132   3.901   2.215   4.892 -2.1062  2.2408 -0.2318
   79SOPE  C214 7133   3.786   2.142   4.715  0.3346 -1.1754 -0.3665
   79SOPE  H14R 7134   3.755   2.249   4.706  1.1813 -0.5829  2.6718
   79SOPE  H14S 7135   3.704   2.068   4.709 -1.2133  0.4557 -0.0232
   79SOPE  C215 7136   3.891   2.100   4.612 -0.2159  0.0551  0.7944
   79SOPE  H15R 7137   3.920   1.994   4.620 -1.5540 -0.3124  1.0947
   79SOPE  H15S 7138   3.977   2.170   4.617 -1.3585  1.5658  0.4916
   79SOPE  C216 7139   3.826   2.106   4.472  0.3962  0.5645  0.6930
   79SOPE  H16R 7140   3.798   2.212   4.452 -0.7652  0.0657 -0.4503
   79SOPE  H16S 7141   3.734   2.043   4.465  0.8284  0.1267 -1.6336
   79SOPE  C217 7142   3.920   2.061   4.362  0.3351  0.1627 -0.5655
   79SOPE  H17R 7143   3.949   1.953   4.369  0.9965  0.4245  1.0159
   79SOPE  H17S 7144   4.017   2.115   4.364  1.3468 -1.5813 -0.3657
   79SOPE  C218 7145   3.860   2.069   4.215  0.7911 -0.1233 -0.6793
   79SOPE  H18R 7146   3.798   2.161   4.206  1.2695  0.3292  0.4246
   79SOPE  H18S 7147   3.789   1.984   4.202  1.6574 -0.6772 -2.0190
   79SOPE  H18T 7148   3.936   2.069   4.134  0.6397  3.8920 -1.0016
   79SOPE   C33 7149   3.771   1.480   5.871  0.2959 -0.8276 -1.0650
   79SOPE   H3X 7150   3.668   1.445   5.847 -1.4551  2.6825  0.6445
   79SOPE   H3Y 7151   3.822   1.425   5.952  0.1396 -0.9750 -1.0674
   79SOPE   C34 7152   3.865   1.474   5.749 -0.1641 -0.2657  0.0489
   79SOPE   H4X 7153   3.887   1.366   5.737  0.7239 -0.0058 -0.7166
   79SOPE   H4Y 7154   3.964   1.518   5.773  0.7562 -0.7919 -2.4698
   79SOPE   C35 7155   3.804   1.537   5.620  0.2337  0.4923 -0.0356
   79SOPE   H5X 7156   3.783   1.643   5.645  0.2143  0.1661  1.4441
   79SOPE   H5Y 7157   3.706   1.496   5.588  0.4764  0.4804 -0.7794
   79SOPE   C36 7158   3.891   1.514   5.499  0.2794  0.3509  0.4369
   79SOPE   H6X 7159   3.875   1.406   5.474  0.6503  0.5312 -0.6080
   79SOPE   H6Y 7160   3.998   1.529   5.524  0.0185  0.4463  1.5546
   79SOPE   C37 7161   3.851   1.612   5.381  0.0551 -0.1134  0.7017
   79SOPE   H7X 7162   3.882   1.715   5.410 -1.4726  0.2279  1.1933
   79SOPE   H7Y 7163   3.740   1.605   5.378 -0.0733  1.7650 -1.4384
   79SOPE   C38 7164   3.906   1.574   5.239 -0.8563  0.8386 -0.6250
   79SOPE   H8X 7165   3.915   1.464   5.230  0.9934  0.9498 -0.5554
   79SOPE   H8Y 7166   4.005   1.624   5.252 -1.1778  1.2350  0.5140
   79SOPE   C39 7167   3.847   1.648   5.120  0.2395 -0.3352  0.2931
   79SOPE   H9X 7168   3.860   1.756   5.140  2.6451 -0.4165 -0.5816
   79SOPE   H9Y 7169   3.739   1.621   5.114 -0.8088  3.3146  0.1126
   79SOPE  C310 7170   3.907   1.626   4.982  0.4021  0.4305  0.1747
   79SOPE  H10X 7171   3.911   1.516   4.971 -1.5262  0.0964  2.2107
   79SOPE  H10Y 7172   4.014   1.657   4.979 -0.1682  2.4926 -0.8237
   79SOPE  C311 7173   3.838   1.692   4.866  0.5973 -0.3042  0.4013
   79SOPE  H11X 7174   3.817   1.800   4.883  2.0598  0.3091 -1.3222
   79SOPE  H11Y 7175   3.737   1.648   4.855  0.2178  0.9271 -1.6506
   79SOPE  C312 7176   3.894   1.667   4.725 -0.3660  0.4333  0.0648
   79SOPE  H12X 7177   4.004   1.680   4.713 -0.4998  0.2909 -1.3968
   79SOPE  H12Y 7178   3.848   1.746   4.662 -0.3351  1.4124  1.2179
   79SOPE  C313 7179   3.873   1.521   4.671 -0.1618  0.2330  0.0427
   79SOPE  H13X 7180   3.765   1.500   4.653 -0.7514  2.4403  0.7083
   79SOPE  H13Y 7181   3.916   1.455   4.749  0.4670 -0.5145 -0.9232
   79SOPE  C314 7182   3.952   1.502   4.536 -0.2001 -0.2323  0.1602
   79SOPE  H14X 7183   3.976   1.393   4.528  1.5507  0.1409 -0.0910
   79SOPE  H14Y 7184   4.053   1.547   4.529  0.0307 -0.6593  0.6810
   79SOPE  C315 7185   3.869   1.560   4.422  0.2081 -0.2015  0.6424
   79SOPE  H15X 7186   3.834   1.664   4.439  0.7397  0.0421  0.2681
   79SOPE  H15Y 7187   3.777   1.499   4.409  1.6401 -2.2023 -0.7375
   79SOPE  C316 7188   3.939   1.540   4.285 -0.4247 -0.0688  0.1991
   79SOPE  H16X 7189   3.869   1.502   4.208 -0.8114  1.7224 -0.3891
   79SOPE  H16Y 7190   4.025   1.474   4.310 -1.9682 -2.0362  0.5597
   79SOPE  C317 7191   3.978   1.676   4.221  0.2998  0.3560 -0.4287
   79SOPE  H17X 7192   3.889   1.742   4.234  1.4121  1.8022  0.1960
   79SOPE  H17Y 7193   3.991   1.659   4.112 -0.6649 -1.4208 -0.2962
   79SOPE  C318 7194   4.101   1.752   4.264  1.5264 -0.4424 -0.0274
   79SOPE  H18X 7195   4.197   1.705   4.232  0.3532 -1.8368 -1.6686
   79SOPE  H18Y 7196   4.095   1.770   4.373 -1.5081  0.2758 -0.2296
   79SOPE  H18Z 7197   4.085   1.849   4.212 -2.4865 -0.7155  0.3658
   80SOPE     N 7198   3.681   4.080   6.474 -0.4730 -0.9417 -0.2615
   80SOPE   HN1 7199   3.651   4.061   6.377  0.2618  2.7261 -1.3814
   80SOPE   HN2 7200   3.770   4.134   6.475 -0.6590 -0.3066  3.9709
   80SOPE   HN3 7201   3.699   3.987   6.517  0.7082 -1.5686 -2.0090
   80SOPE   C12 7202   3.569   4.157   6.534  0.1895  1.0209  0.3526
   80SOPE  H12A 7203   3.497   4.155   6.450  1.7562 -0.8728 -1.0360
   80SOPE  H12B 7204   3.601   4.261   6.557  0.0572  1.1222  0.0875
   80SOPE   C11 7205   3.531   4.081   6.662  0.2048 -0.4555 -0.4787
   80SOPE  H11A 7206   3.458   4.144   6.717  0.7948 -2.1606  2.4593
   80SOPE  H11B 7207   3.616   4.069   6.733 -0.3468  0.5959  0.3942
   80SOPE     P 7208   3.311   3.927   6.660  0.1846 -0.1806  0.4206
   80SOPE   O13 7209   3.235   4.044   6.601 -0.9394  0.0598 -0.6411
   80SOPE   O14 7210   3.296   3.901   6.804  0.3283 -0.1057  0.8627
   80SOPE   O12 7211   3.469   3.950   6.631  0.1920 -0.5182  0.1734
   80SOPE   O11 7212   3.282   3.802   6.572  0.1691  0.5327  0.1981
   80SOPE    C1 7213   3.383   3.694   6.566  0.8256  0.4604  0.4914
   80SOPE    HA 7214   3.332   3.597   6.583 -1.0877  1.5873  1.4934
   80SOPE    HB 7215   3.465   3.706   6.640  0.9975  0.4430  0.3034
   80SOPE    C2 7216   3.433   3.678   6.416  0.1012  0.0660 -0.1568
   80SOPE    HS 7217   3.498   3.766   6.394  1.8866 -0.3687  2.8280
   80SOPE   O21 7218   3.309   3.676   6.342 -0.2230  0.3789  0.6339
   80SOPE   C21 7219   3.311   3.716   6.221 -0.4786  0.0542  0.1835
   80SOPE   O22 7220   3.402   3.777   6.163 -0.0121  0.2869  0.0037
   80SOPE   C22 7221   3.171   3.694   6.161 -0.3789  0.5700 -0.1999
   80SOPE   H2R 7222   3.102   3.718   6.245  0.8800 -1.0516  1.3865
   80SOPE   H2S 7223   3.168   3.586   6.134  2.4310 -0.3211  2.4895
   80SOPE    C3 7224   3.514   3.550   6.390 -0.6892  0.5697  0.1727
   80SOPE    HX 7225   3.464   3.458   6.426 -1.4272  1.4478  1.4833
   80SOPE    HY 7226   3.607   3.550   6.450 -0.3434 -0.9632 -0.3241
   80SOPE   O31 7227   3.560   3.549   6.253  0.2387  0.5722 -0.3786
   80SOPE   C31 7228   3.477   3.474   6.175  0.1833  0.5068 -0.3724
   80SOPE   O32 7229   3.373   3.421   6.217 -0.4814 -0.0702 -0.4104
   80SOPE   C32 7230   3.543   3.475   6.042  0.4046  0.3349 -0.2183
   80SOPE   H2X 7231   3.638   3.420   6.061 -0.6216 -1.3670  0.1105
   80SOPE   H2Y 7232   3.578   3.576   6.009 -1.7186  1.6713  1.3757
   80SOPE   C23 7233   3.144   3.798   6.048  0.4347 -0.0494  0.2064
   80SOPE   H3R 7234   3.178   3.902   6.069 -0.5038 -0.0496  1.8819
   80SOPE   H3S 7235   3.036   3.804   6.025  0.8414  1.0632 -1.6614
   80SOPE   C24 7236   3.204   3.753   5.916  0.2693  0.2343 -0.9633
   80SOPE   H4R 7237   3.306   3.718   5.942 -1.0499 -1.4863  2.5112
   80SOPE   H4S 7238   3.142   3.676   5.865 -2.0601  0.4568  1.3180
   80SOPE   C25 7239   3.232   3.872   5.819  0.2905 -0.3584  0.0329
   80SOPE   H5R 7240   3.134   3.885   5.768 -0.4424 -0.3127  1.4033
   80SOPE   H5S 7241   3.263   3.961   5.879  0.7389  0.1297 -0.9130
   80SOPE   C26 7242   3.331   3.834   5.705 -0.6801  0.2174  0.2077
   80SOPE   H6R 7243   3.429   3.853   5.753 -0.5232  0.5822 -0.2449
   80SOPE   H6S 7244   3.324   3.724   5.694  2.1043 -0.2810  2.5077
   80SOPE   C27 7245   3.306   3.925   5.581  0.4338 -0.4473  0.3689
   80SOPE   H7R 7246   3.322   4.031   5.610  0.6808 -0.1365 -0.8694
   80SOPE   H7S 7247   3.379   3.895   5.502 -0.8826 -0.7998 -0.7399
   80SOPE   C28 7248   3.169   3.912   5.512  0.3468  0.3964  0.0067
   80SOPE   H8R 7249   3.082   3.954   5.567  0.5525  0.8884 -0.0396
   80SOPE   H8S 7250   3.179   3.978   5.423  2.7551  0.9876  0.6475
   80SOPE   C29 7251   3.138   3.771   5.459 -0.5081 -0.0831 -0.3713
   80SOPE   H91 7252   3.076   3.707   5.523 -0.6777  0.2489 -0.1972
   80SOPE  C210 7253   3.179   3.716   5.343 -0.0638 -0.5136  0.1838
   80SOPE  H101 7254   3.158   3.610   5.321  1.5969 -0.7227 -0.5158
   80SOPE  C211 7255   3.247   3.792   5.235 -0.2292  0.2169  0.2500
   80SOPE  H11R 7256   3.310   3.726   5.171  1.5146 -0.0907  2.2008
   80SOPE  H11S 7257   3.325   3.860   5.274 -1.1369  1.4399 -0.0152
   80SOPE  C212 7258   3.135   3.855   5.148 -0.0192  0.0812  0.1394
   80SOPE  H12R 7259   3.188   3.928   5.083 -2.7378  1.5646 -0.5310
   80SOPE  H12S 7260   3.062   3.912   5.209 -1.7889 -2.7776  0.8954
   80SOPE  C213 7261   3.062   3.750   5.062 -0.7384 -0.5126  0.0404
   80SOPE  H13R 7262   2.987   3.802   4.999  0.1485  1.1563  0.3204
   80SOPE  H13S 7263   3.008   3.678   5.126 -0.0909  0.9314  2.3034
   80SOPE  C214 7264   3.160   3.680   4.967  0.0808  0.4811 -0.5706
   80SOPE  H14R 7265   3.217   3.604   5.025 -1.4549  1.6863  2.7957
   80SOPE  H14S 7266   3.225   3.763   4.933  0.8987 -0.2615 -0.8845
   80SOPE  C215 7267   3.098   3.608   4.844 -0.5781  0.3604 -0.2520
   80SOPE  H15R 7268   3.008   3.552   4.880 -0.5805  0.0032 -0.8172
   80SOPE  H15S 7269   3.171   3.543   4.793 -0.1351 -0.1878  1.0472
   80SOPE  C216 7270   3.043   3.715   4.744  0.2239 -0.2341 -0.2001
   80SOPE  H16R 7271   3.113   3.799   4.724 -2.6684  2.4724  0.2781
   80SOPE  H16S 7272   2.952   3.756   4.792  0.2914 -0.0087 -0.2675
   80SOPE  C217 7273   2.988   3.656   4.611 -0.4606 -1.0353 -0.1382
   80SOPE  H17R 7274   2.910   3.582   4.639 -0.2445 -0.7438  1.3374
   80SOPE  H17S 7275   3.061   3.591   4.558  0.8827 -2.5876  3.2652
   80SOPE  C218 7276   2.936   3.772   4.521 -0.3735  0.1898 -0.4688
   80SOPE  H18R 7277   2.834   3.755   4.481  0.1053 -1.7685 -0.9731
   80SOPE  H18S 7278   3.008   3.792   4.438  1.4819  0.0620  1.0291
   80SOPE  H18T 7279   2.945   3.872   4.569  0.8622 -0.2160  0.1865
   80SOPE   C33 7280   3.449   3.418   5.936 -0.3080  0.6289 -0.2943
   80SOPE   H3X 7281   3.348   3.463   5.945 -1.6662 -2.3587  0.9510
   80SOPE   H3Y 7282   3.429   3.313   5.968  3.3358  0.0192  0.3875
   80SOPE   C34 7283   3.505   3.412   5.788  0.7997 -0.3144 -1.6110
   80SOPE   H4X 7284   3.601   3.358   5.802  1.3204  0.8772 -0.3844
   80SOPE   H4Y 7285   3.524   3.513   5.746  0.2285 -0.4937 -2.3338
   80SOPE   C35 7286   3.404   3.324   5.706 -0.2926  0.2865 -0.1568
   80SOPE   H5X 7287   3.299   3.358   5.715 -0.6853 -0.6705 -0.9771
   80SOPE   H5Y 7288   3.412   3.229   5.763  0.1978  1.0277  1.0547
   80SOPE   C36 7289   3.435   3.310   5.559  0.2924 -0.0658  0.2684
   80SOPE   H6X 7290   3.362   3.242   5.508  1.2530 -0.4283 -0.6647
   80SOPE   H6Y 7291   3.530   3.256   5.540 -0.6792 -1.4510 -1.0206
   80SOPE   C37 7292   3.440   3.439   5.476 -0.7829 -0.8681 -0.2247
   80SOPE   H7X 7293   3.541   3.475   5.504 -1.1942  1.7116 -1.7391
   80SOPE   H7Y 7294   3.358   3.507   5.507 -1.4713 -1.5229 -0.5717
   80SOPE   C38 7295   3.420   3.418   5.326  0.2757  1.3508 -0.2934
   80SOPE   H8X 7296   3.406   3.516   5.275 -1.9492  0.3459 -1.7496
   80SOPE   H8Y 7297   3.318   3.378   5.311  0.3049  1.1748 -0.0293
   80SOPE   C39 7298   3.520   3.326   5.261  0.1928 -0.1984  0.2476
   80SOPE   H9X 7299   3.539   3.243   5.332  0.5203  0.4958  0.9820
   80SOPE   H9Y 7300   3.612   3.386   5.241  0.4802 -0.8745 -0.5361
   80SOPE  C310 7301   3.476   3.269   5.122 -0.3309  0.3678 -0.6721
   80SOPE  H10X 7302   3.398   3.192   5.140  0.3903 -0.1961  0.1525
   80SOPE  H10Y 7303   3.567   3.221   5.080  0.7706  2.6800 -1.0619
   80SOPE  C311 7304   3.444   3.372   5.014  0.1961 -0.0384  0.3740
   80SOPE  H11X 7305   3.523   3.447   4.991 -1.9316  1.8815 -1.2779
   80SOPE  H11Y 7306   3.354   3.430   5.045  0.6924  0.6814  0.5058
   80SOPE  C312 7307   3.398   3.310   4.877 -0.3389 -0.6188 -1.1905
   80SOPE  H12X 7308   3.343   3.387   4.819 -0.9873 -0.8836 -0.9353
   80SOPE  H12Y 7309   3.332   3.223   4.898 -0.1452 -0.7275 -1.0186
   80SOPE  C313 7310   3.518   3.282   4.793  0.1035  0.3387 -0.1809
   80SOPE  H13X 7311   3.559   3.180   4.812 -1.0396  0.1889  1.7560
   80SOPE  H13Y 7312   3.600   3.350   4.825  0.3991  0.5493 -1.3281
   80SOPE  C314 7313   3.481   3.291   4.645 -0.2851 -0.5815  0.1653
   80SOPE  H14X 7314   3.384   3.239   4.636 -0.1714 -1.0928  1.6546
   80SOPE  H14Y 7315   3.557   3.239   4.582  1.4830  0.9343  0.9586
   80SOPE  C315 7316   3.483   3.434   4.586  0.3004 -0.2863 -0.0132
   80SOPE  H15X 7317   3.544   3.507   4.644  1.2078  0.1743 -1.5138
   80SOPE  H15Y 7318   3.384   3.482   4.605  0.2642  0.3683 -1.6879
   80SOPE  C316 7319   3.501   3.438   4.434 -0.2899 -0.4922  0.2173
   80SOPE  H16X 7320   3.602   3.407   4.400 -0.4901 -1.4199  0.4357
   80SOPE  H16Y 7321   3.481   3.537   4.389 -1.1021  0.0208  1.6369
   80SOPE  C317 7322   3.401   3.344   4.364 -0.4024  0.5495  0.1619
   80SOPE  H17X 7323   3.429   3.241   4.397  1.3906  0.7739 -0.5523
   80SOPE  H17Y 7324   3.425   3.346   4.256  3.0176  4.2309  0.7681
   80SOPE  C318 7325   3.254   3.389   4.380 -0.8078 -0.6342  0.1857
   80SOPE  H18X 7326   3.239   3.492   4.341  1.0717 -0.3505  0.1407
   80SOPE  H18Y 7327   3.232   3.396   4.488  3.6793  1.1508  1.1906
   80SOPE  H18Z 7328   3.184   3.328   4.319 -1.6059  2.2491 -2.0139
   81SOPE     N 7329   6.119   0.290   6.514 -0.1611  0.2521 -0.3306
   81SOPE   HN1 7330   6.025   0.327   6.489  0.4060  3.1227  1.2131
   81SOPE   HN2 7331   6.125   0.199   6.563  2.0475  1.0017  0.9517
   81SOPE   HN3 7332   6.162   0.359   6.580  0.0587 -1.1528  1.0569
   81SOPE   C12 7333   6.206   0.267   6.393 -0.4679  0.6643 -0.3367
   81SOPE  H12A 7334   6.160   0.194   6.323  0.1237 -0.7143  0.6598
   81SOPE  H12B 7335   6.299   0.222   6.435  0.8552  0.0902 -3.5498
   81SOPE   C11 7336   6.253   0.395   6.329 -0.7303  1.1805  0.3814
   81SOPE  H11A 7337   6.186   0.442   6.254  0.2533  1.3086 -0.4343
   81SOPE  H11B 7338   6.346   0.376   6.272  0.3630  3.8639  1.0998
   81SOPE     P 7339   6.414   0.573   6.444  0.4391 -0.3318 -0.4941
   81SOPE   O13 7340   6.508   0.497   6.529  0.2155  0.0790 -0.1063
   81SOPE   O14 7341   6.375   0.710   6.485  0.0796 -0.0318 -0.4496
   81SOPE   O12 7342   6.281   0.492   6.429  0.4405 -0.5055 -0.0011
   81SOPE   O11 7343   6.468   0.592   6.296  0.1811  0.0610 -0.0480
   81SOPE    C1 7344   6.605   0.636   6.283  0.3075 -0.8388  0.0355
   81SOPE    HA 7345   6.651   0.612   6.184  1.1979  1.6432 -0.2312
   81SOPE    HB 7346   6.671   0.605   6.366 -1.1157 -0.8155  1.2063
   81SOPE    C2 7347   6.613   0.792   6.278 -0.3291 -0.3488 -0.3183
   81SOPE    HS 7348   6.565   0.830   6.370 -0.5854 -0.6563 -0.3226
   81SOPE   O21 7349   6.532   0.823   6.162  0.2161  1.1382 -0.0224
   81SOPE   C21 7350   6.486   0.945   6.171 -0.5138  0.3345 -0.0660
   81SOPE   O22 7351   6.523   1.028   6.254 -0.4132  0.6972  0.1758
   81SOPE   C22 7352   6.368   0.961   6.074  0.2188 -0.8537 -0.1477
   81SOPE   H2R 7353   6.290   0.894   6.115  1.6109 -1.3042  1.9313
   81SOPE   H2S 7354   6.411   0.922   5.979  2.4583 -1.1303  0.9199
   81SOPE    C3 7355   6.753   0.851   6.256  0.0200  0.5341  0.0779
   81SOPE    HX 7356   6.799   0.862   6.356  0.2828  3.3066 -0.2774
   81SOPE    HY 7357   6.751   0.957   6.222 -1.4598  0.2493 -0.8264
   81SOPE   O31 7358   6.834   0.773   6.167  0.4286 -0.3270  0.0582
   81SOPE   C31 7359   6.820   0.786   6.033 -0.3687  0.3765 -0.2098
   81SOPE   O32 7360   6.754   0.877   5.985 -0.3910  0.3738 -0.0545
   81SOPE   C32 7361   6.924   0.702   5.967 -0.3354  1.0483 -0.0617
   81SOPE   H2X 7362   6.936   0.603   6.015  2.4989  0.3667 -1.8769
   81SOPE   H2Y 7363   7.022   0.754   5.968  0.4283 -0.3293  1.0859
   81SOPE   C23 7364   6.320   1.105   6.058  0.3084 -0.2410 -0.3752
   81SOPE   H3R 7365   6.400   1.179   6.078 -1.5342  1.3894  1.3875
   81SOPE   H3S 7366   6.245   1.138   6.133 -1.4165 -1.1531 -1.6210
   81SOPE   C24 7367   6.271   1.127   5.911 -0.2987  0.8069 -0.0410
   81SOPE   H4R 7368   6.210   1.039   5.882  2.4806 -0.2834 -3.2592
   81SOPE   H4S 7369   6.209   1.217   5.890 -0.5056  0.1387 -2.5866
   81SOPE   C25 7370   6.374   1.122   5.789 -0.2697  1.1320 -0.3017
   81SOPE   H5R 7371   6.443   1.208   5.806 -1.2374  2.4373 -2.5470
   81SOPE   H5S 7372   6.434   1.029   5.790 -0.4346  0.9392  2.9943
   81SOPE   C26 7373   6.308   1.148   5.657 -0.4723  0.4172 -0.5442
   81SOPE   H6R 7374   6.241   1.062   5.634 -2.1533  2.3123 -3.1982
   81SOPE   H6S 7375   6.242   1.237   5.672 -1.0723 -0.2480  1.0677
   81SOPE   C27 7376   6.403   1.182   5.537 -0.4934  0.2830 -0.4154
   81SOPE   H7R 7377   6.448   1.282   5.552 -0.1450 -0.1458  1.8680
   81SOPE   H7S 7378   6.486   1.107   5.532 -0.3667  0.4085 -0.2058
   81SOPE   C28 7379   6.330   1.172   5.396 -0.0218  0.5325  0.5449
   81SOPE   H8R 7380   6.347   1.070   5.355  0.6936  0.2261  1.5475
   81SOPE   H8S 7381   6.221   1.170   5.420 -0.7817  1.1870 -2.4576
   81SOPE   C29 7382   6.369   1.282   5.304  0.9322 -0.2986  0.2637
   81SOPE   H91 7383   6.390   1.376   5.356 -2.3318  1.3497 -1.0934
   81SOPE  C210 7384   6.396   1.279   5.175 -0.2056 -0.2070 -0.6446
   81SOPE  H101 7385   6.435   1.371   5.130 -1.8075  0.2713 -1.1284
   81SOPE  C211 7386   6.399   1.159   5.086 -0.0826 -0.8071 -0.7035
   81SOPE  H11R 7387   6.377   1.071   5.151  2.3298  0.8679  2.6595
   81SOPE  H11S 7388   6.505   1.145   5.055  0.0989  0.9856 -0.9846
   81SOPE  C212 7389   6.312   1.164   4.965 -0.3256 -0.2305 -0.3968
   81SOPE  H12R 7390   6.204   1.159   4.993 -0.0528 -1.5871  0.5126
   81SOPE  H12S 7391   6.330   1.070   4.908 -0.2032 -0.5676  0.1951
   81SOPE  C213 7392   6.347   1.267   4.856  0.1313  0.0713 -0.0724
   81SOPE  H13R 7393   6.458   1.272   4.843 -0.0964 -1.0717 -3.9908
   81SOPE  H13S 7394   6.309   1.360   4.902 -0.1500  1.8885 -3.6121
   81SOPE  C214 7395   6.279   1.244   4.722  0.2753 -0.0803 -0.5072
   81SOPE  H14R 7396   6.227   1.337   4.692  0.1845  0.4102  1.0967
   81SOPE  H14S 7397   6.200   1.167   4.739 -2.2199  2.4741  0.1617
   81SOPE  C215 7398   6.383   1.194   4.612  0.4079 -0.5364  0.6488
   81SOPE  H15R 7399   6.413   1.091   4.639  2.8171  0.2789  1.2562
   81SOPE  H15S 7400   6.467   1.266   4.619  0.0074  0.0041  0.0001
   81SOPE  C216 7401   6.318   1.212   4.477 -0.5920  0.6400  0.7085
   81SOPE  H16R 7402   6.301   1.320   4.454 -4.0049  0.2754  1.0659
   81SOPE  H16S 7403   6.218   1.166   4.463  0.5815 -1.0739 -3.5379
   81SOPE  C217 7404   6.405   1.158   4.362 -0.3575 -0.4387  0.4891
   81SOPE  H17R 7405   6.350   1.176   4.266 -0.3428 -0.7941  0.4126
   81SOPE  H17S 7406   6.416   1.048   4.361  1.3153 -0.3103  1.5935
   81SOPE  C218 7407   6.539   1.221   4.360 -0.4680 -0.3530 -0.2607
   81SOPE  H18R 7408   6.596   1.172   4.278  0.0304 -2.5762  1.3158
   81SOPE  H18S 7409   6.587   1.205   4.459  1.5433  0.6351 -1.0286
   81SOPE  H18T 7410   6.535   1.332   4.357 -0.8306 -0.3861 -2.1577
   81SOPE   C33 7411   6.889   0.680   5.814  0.2976  0.5523  0.3802
   81SOPE   H3X 7412   6.878   0.782   5.771 -0.5373 -0.6439 -2.4401
   81SOPE   H3Y 7413   6.791   0.629   5.804 -0.7067  2.8926 -3.8963
   81SOPE   C34 7414   6.994   0.599   5.730  0.6015 -0.2126 -0.1196
   81SOPE   H4X 7415   7.020   0.504   5.782  0.7953 -0.3299 -0.4286
   81SOPE   H4Y 7416   7.087   0.658   5.723 -0.3588  1.4087  0.2332
   81SOPE   C35 7417   6.954   0.574   5.587  0.2876 -0.4656  0.2553
   81SOPE   H5X 7418   6.845   0.553   5.585  0.3265 -0.7067  0.6481
   81SOPE   H5Y 7419   7.002   0.479   5.556 -0.4988 -0.6493 -0.4418
   81SOPE   C36 7420   7.002   0.671   5.480 -0.3562 -0.3049  0.3415
   81SOPE   H6X 7421   6.995   0.768   5.535  2.4457 -0.6005  1.3771
   81SOPE   H6Y 7422   6.937   0.657   5.391  0.0251 -3.2842  0.4447
   81SOPE   C37 7423   7.153   0.668   5.448 -0.1301  0.1218  0.0446
   81SOPE   H7X 7424   7.178   0.571   5.400  1.8751  1.0348 -0.8693
   81SOPE   H7Y 7425   7.219   0.671   5.537  1.6965  0.0897 -1.2541
   81SOPE   C38 7426   7.194   0.773   5.345 -0.2666  0.8997  0.4334
   81SOPE   H8X 7427   7.162   0.878   5.363 -2.2995  1.0319 -3.2190
   81SOPE   H8Y 7428   7.133   0.748   5.256 -1.2896 -2.2088  1.8846
   81SOPE   C39 7429   7.351   0.784   5.319  0.7747  0.0568 -0.4582
   81SOPE   H9X 7430   7.395   0.686   5.289  2.2321  0.5947 -0.1517
   81SOPE   H9Y 7431   7.402   0.815   5.413  1.8161 -1.2585 -0.5574
   81SOPE  C310 7432   7.376   0.888   5.217 -0.1506  0.6566 -0.3219
   81SOPE  H10X 7433   7.487   0.885   5.205 -0.1774  0.6694 -0.5651
   81SOPE  H10Y 7434   7.354   0.990   5.256 -1.1998  0.2427  0.1783
   81SOPE  C311 7435   7.297   0.871   5.087 -0.4560 -0.0615 -0.4763
   81SOPE  H11X 7436   7.190   0.901   5.096  0.0991  1.8246  0.3718
   81SOPE  H11Y 7437   7.287   0.763   5.066 -2.2293  0.2797 -1.6524
   81SOPE  C312 7438   7.377   0.937   4.975 -0.0436 -0.8780  0.0545
   81SOPE  H12X 7439   7.476   0.886   4.972  1.0517  1.1694  0.2136
   81SOPE  H12Y 7440   7.389   1.041   5.010  1.3846 -0.2528 -2.1005
   81SOPE  C313 7441   7.301   0.936   4.837  0.1059 -0.8608 -0.2384
   81SOPE  H13X 7442   7.197   0.969   4.858  0.6900  0.3071  0.9327
   81SOPE  H13Y 7443   7.300   0.832   4.797  3.6355 -0.0746 -2.8313
   81SOPE  C314 7444   7.357   1.024   4.719 -0.2299 -0.2249 -0.5632
   81SOPE  H14X 7445   7.465   1.002   4.710 -0.2469 -1.3690  1.4133
   81SOPE  H14Y 7446   7.338   1.131   4.740  0.5351  0.1427 -1.6868
   81SOPE  C315 7447   7.274   0.990   4.591 -0.4453 -0.2273 -0.2068
   81SOPE  H15X 7448   7.167   0.984   4.618 -0.1468  0.1661  1.1379
   81SOPE  H15Y 7449   7.315   0.896   4.547 -0.0736  0.1908 -0.7706
   81SOPE  C316 7450   7.277   1.110   4.493  0.6970 -1.0221  0.5315
   81SOPE  H16X 7451   7.245   1.204   4.543  2.3303 -0.6554  0.9684
   81SOPE  H16Y 7452   7.210   1.095   4.406 -0.7537  1.6542  1.0890
   81SOPE  C317 7453   7.410   1.149   4.419  0.2172  0.2536  0.3340
   81SOPE  H17X 7454   7.431   1.058   4.359 -0.1532 -0.0720  0.6956
   81SOPE  H17Y 7455   7.496   1.161   4.488  2.1607 -1.0026 -1.7161
   81SOPE  C318 7456   7.389   1.268   4.331  0.9408 -0.5647 -0.1369
   81SOPE  H18X 7457   7.467   1.282   4.253  1.4347  0.9358  0.5787
   81SOPE  H18Y 7458   7.379   1.359   4.394 -0.8622  0.9063 -2.3745
   81SOPE  H18Z 7459   7.290   1.247   4.287  1.2039 -2.8570  0.2395
   82SOPE     N 7460   1.288   1.099   6.793  0.7068  0.0666  0.1749
   82SOPE   HN1 7461   1.204   1.160   6.787  0.4014 -0.3795 -0.1846
   82SOPE   HN2 7462   1.260   0.999   6.789 -2.0805  0.7069  1.3108
   82SOPE   HN3 7463   1.322   1.113   6.890 -0.1220 -4.3364  1.3589
   82SOPE   C12 7464   1.387   1.134   6.687 -0.5697 -0.2756 -0.0203
   82SOPE  H12A 7465   1.483   1.090   6.722 -1.3404  0.1916  2.9489
   82SOPE  H12B 7466   1.388   1.245   6.693 -1.4407 -0.2024 -0.9658
   82SOPE   C11 7467   1.340   1.081   6.549  0.3801  0.8715 -0.1538
   82SOPE  H11A 7468   1.341   0.970   6.558  1.7230  0.4521 -3.7999
   82SOPE  H11B 7469   1.421   1.114   6.481 -0.5847  0.7247 -1.4156
   82SOPE     P 7470   1.104   1.087   6.418  0.5241 -0.3276  0.0775
   82SOPE   O13 7471   1.068   1.175   6.308 -0.1438 -0.6231  0.2021
   82SOPE   O14 7472   0.988   1.046   6.507  0.3805  0.2113  0.0217
   82SOPE   O12 7473   1.213   1.143   6.505 -0.9337 -0.1537 -0.2690
   82SOPE   O11 7474   1.157   0.948   6.360  0.4249 -0.1610  0.1135
   82SOPE    C1 7475   1.232   0.951   6.238  0.5048  0.4043 -0.2009
   82SOPE    HA 7476   1.291   0.857   6.233 -1.3621 -0.8003 -0.5415
   82SOPE    HB 7477   1.308   1.032   6.229  3.1319 -1.6954  1.6005
   82SOPE    C2 7478   1.152   0.935   6.102  0.2905  0.4764  0.4929
   82SOPE    HS 7479   1.092   1.029   6.092  1.3315  1.1171  0.1196
   82SOPE   O21 7480   1.058   0.818   6.105 -0.3006 -0.4817  0.2161
   82SOPE   C21 7481   0.931   0.849   6.101  0.4840  0.0515 -0.2476
   82SOPE   O22 7482   0.886   0.960   6.089  0.1300  0.1456  0.7489
   82SOPE   C22 7483   0.844   0.724   6.112 -0.2180 -0.8509 -0.6740
   82SOPE   H2R 7484   0.805   0.725   6.216  0.3473  1.2589 -0.4204
   82SOPE   H2S 7485   0.914   0.640   6.094  2.7474  0.8544  1.8673
   82SOPE    C3 7486   1.243   0.919   5.977 -0.5132 -0.2316 -0.6104
   82SOPE    HX 7487   1.196   0.891   5.881  0.6264  0.6550 -1.4487
   82SOPE    HY 7488   1.310   0.835   6.005  1.3251  1.3035 -0.1992
   82SOPE   O31 7489   1.325   1.032   5.956 -0.1487  0.2283 -0.3130
   82SOPE   C31 7490   1.272   1.136   5.888  0.0554 -0.2146 -0.7908
   82SOPE   O32 7491   1.161   1.134   5.840  0.7367  0.0367  0.4991
   82SOPE   C32 7492   1.376   1.246   5.868  0.2037  0.3368 -0.0193
   82SOPE   H2X 7493   1.472   1.195   5.848 -0.8021 -1.6501 -0.0527
   82SOPE   H2Y 7494   1.382   1.308   5.960  1.6062 -0.9879  0.8333
   82SOPE   C23 7495   0.734   0.718   6.006 -0.1954 -0.0381  0.1224
   82SOPE   H3R 7496   0.687   0.817   5.985 -1.1552 -0.6301 -0.5822
   82SOPE   H3S 7497   0.648   0.667   6.054 -0.0828  0.5465  0.9812
   82SOPE   C24 7498   0.783   0.653   5.872  0.6638  0.0198  0.2374
   82SOPE   H4R 7499   0.845   0.728   5.819  2.1911 -1.8493 -0.7343
   82SOPE   H4S 7500   0.850   0.567   5.893  2.0290  0.3201 -2.5470
   82SOPE   C25 7501   0.658   0.630   5.788  0.0170 -0.0540 -0.1081
   82SOPE   H5R 7502   0.587   0.567   5.847  0.6758 -0.2025  0.5392
   82SOPE   H5S 7503   0.615   0.727   5.755 -2.9933 -1.8874 -2.0778
   82SOPE   C26 7504   0.703   0.551   5.665 -0.9461  0.4071 -0.0209
   82SOPE   H6R 7505   0.753   0.464   5.713  0.4550  0.8187 -0.7089
   82SOPE   H6S 7506   0.614   0.503   5.618 -0.6752  0.4797 -0.6123
   82SOPE   C27 7507   0.788   0.618   5.564  0.2232 -0.4232 -0.5787
   82SOPE   H7R 7508   0.739   0.714   5.539 -0.6552  0.4946  3.8619
   82SOPE   H7S 7509   0.874   0.661   5.621 -0.5367  0.7846 -0.3070
   82SOPE   C28 7510   0.836   0.520   5.461  0.7832 -0.4042  0.9419
   82SOPE   H8R 7511   0.891   0.444   5.519 -0.2287 -1.0026  1.1438
   82SOPE   H8S 7512   0.747   0.473   5.413  0.8499  2.6342 -2.6150
   82SOPE   C29 7513   0.923   0.593   5.360 -0.4017 -0.8180  0.2918
   82SOPE   H91 7514   0.999   0.656   5.407 -1.2507  1.0162 -0.7141
   82SOPE  C210 7515   0.925   0.580   5.226  0.4434  0.6205 -0.2927
   82SOPE  H101 7516   0.994   0.642   5.168  0.2166  0.2869 -0.9324
   82SOPE  C211 7517   0.834   0.497   5.141  0.5870  0.3637  0.2153
   82SOPE  H11R 7518   0.753   0.452   5.203 -0.2186  0.1798 -0.9425
   82SOPE  H11S 7519   0.886   0.417   5.084 -1.8888 -1.5190  0.3910
   82SOPE  C212 7520   0.767   0.584   5.034  0.2947  0.2907 -0.4559
   82SOPE  H12R 7521   0.837   0.630   4.961  0.0157  1.4126 -0.0448
   82SOPE  H12S 7522   0.704   0.664   5.077 -0.7429 -0.1370 -1.1497
   82SOPE  C213 7523   0.686   0.494   4.944  0.4987  0.5692  0.7339
   82SOPE  H13R 7524   0.613   0.446   5.013  1.1359 -0.9867  0.3529
   82SOPE  H13S 7525   0.747   0.414   4.899 -2.9092 -1.1415 -1.2632
   82SOPE  C214 7526   0.614   0.574   4.831 -0.0988  0.8540  0.5083
   82SOPE  H14R 7527   0.687   0.657   4.817  1.7903 -1.1941 -3.2048
   82SOPE  H14S 7528   0.515   0.609   4.867  0.1507  0.9797  1.0722
   82SOPE  C215 7529   0.621   0.496   4.704  0.4003  0.5144 -0.3617
   82SOPE  H15R 7530   0.577   0.394   4.699 -1.5627  1.3500 -1.1128
   82SOPE  H15S 7531   0.730   0.482   4.693  0.5083 -0.0587  1.1691
   82SOPE  C216 7532   0.561   0.569   4.581 -0.3103  0.1215 -0.2125
   82SOPE  H16R 7533   0.582   0.678   4.588 -2.0888  0.4104  1.2918
   82SOPE  H16S 7534   0.451   0.561   4.571 -0.4310  2.9466 -2.3313
   82SOPE  C217 7535   0.626   0.513   4.451  0.0569  0.2626 -0.5455
   82SOPE  H17R 7536   0.571   0.418   4.431 -1.6565  1.1168 -0.0418
   82SOPE  H17S 7537   0.736   0.501   4.455  0.2106  0.9116 -2.0784
   82SOPE  C218 7538   0.605   0.598   4.318  0.6748  0.6386  0.6181
   82SOPE  H18R 7539   0.631   0.544   4.225  0.9045 -0.1662  1.1388
   82SOPE  H18S 7540   0.651   0.699   4.323 -0.7467  1.2392  3.0960
   82SOPE  H18T 7541   0.497   0.608   4.295  0.3660 -0.2186  1.5947
   82SOPE   C33 7542   1.341   1.324   5.736 -0.2463 -0.0088  0.4267
   82SOPE   H3X 7543   1.396   1.420   5.741 -0.5488  0.2180 -0.4012
   82SOPE   H3Y 7544   1.232   1.334   5.715 -0.1714 -1.5742 -0.9160
   82SOPE   C34 7545   1.386   1.244   5.612 -0.4442 -0.3519  0.0843
   82SOPE   H4X 7546   1.366   1.135   5.618  0.4212 -0.4368  2.7355
   82SOPE   H4Y 7547   1.497   1.257   5.612 -0.2147 -1.9309 -1.8886
   82SOPE   C35 7548   1.320   1.301   5.487  0.0815 -1.3059 -1.1371
   82SOPE   H5X 7549   1.315   1.412   5.493 -1.8340 -1.3381 -1.5962
   82SOPE   H5Y 7550   1.215   1.271   5.510 -0.0453 -0.0048  0.1334
   82SOPE   C36 7551   1.383   1.246   5.361 -0.1176 -0.2325  0.4832
   82SOPE   H6X 7552   1.378   1.135   5.369  1.9570 -0.4042 -0.0239
   82SOPE   H6Y 7553   1.493   1.266   5.364 -0.6413  3.3840  0.1782
   82SOPE   C37 7554   1.322   1.296   5.223 -0.2136  0.1015  0.0086
   82SOPE   H7X 7555   1.323   1.407   5.218 -0.2297  0.0746 -0.6602
   82SOPE   H7Y 7556   1.214   1.272   5.215 -0.3381 -0.4021  2.5563
   82SOPE   C38 7557   1.384   1.237   5.099  0.1242  0.0754  0.4425
   82SOPE   H8X 7558   1.343   1.135   5.087 -1.7568  0.5914  1.9741
   82SOPE   H8Y 7559   1.494   1.222   5.112  0.3745  1.0347 -0.4633
   82SOPE   C39 7560   1.354   1.325   4.975 -0.2633  0.5615  0.2910
   82SOPE   H9X 7561   1.378   1.432   4.993  1.4163  0.1391  0.7743
   82SOPE   H9Y 7562   1.246   1.309   4.954  0.2906  0.4435 -2.9962
   82SOPE  C310 7563   1.441   1.283   4.851 -0.9404  0.2542 -0.5143
   82SOPE  H10X 7564   1.415   1.178   4.826 -2.5292  0.8653 -1.6065
   82SOPE  H10Y 7565   1.549   1.290   4.875 -0.1028 -0.9843 -3.5412
   82SOPE  C311 7566   1.417   1.367   4.722 -0.0935  0.4215  0.1701
   82SOPE  H11X 7567   1.463   1.467   4.742 -0.0275  0.4294 -0.0138
   82SOPE  H11Y 7568   1.308   1.384   4.713 -0.2181 -0.6916 -0.6616
   82SOPE  C312 7569   1.470   1.296   4.596  0.4252 -0.2521  0.0832
   82SOPE  H12X 7570   1.430   1.194   4.581 -0.7306  0.3598 -1.1747
   82SOPE  H12Y 7571   1.580   1.291   4.613  0.6456 -2.7812 -1.6329
   82SOPE  C313 7572   1.426   1.374   4.462 -0.4427  0.4853 -0.2143
   82SOPE  H13X 7573   1.454   1.481   4.464 -1.8701  0.8944 -0.5216
   82SOPE  H13Y 7574   1.315   1.385   4.457 -0.7646 -1.8975  0.4902
   82SOPE  C314 7575   1.484   1.297   4.338  0.1529 -0.0256 -0.0037
   82SOPE  H14X 7576   1.435   1.201   4.313  0.5101 -0.0470 -0.6476
   82SOPE  H14Y 7577   1.593   1.280   4.356 -0.4214 -0.7979  3.6414
   82SOPE  C315 7578   1.467   1.377   4.206  0.2129 -0.5861  0.0680
   82SOPE  H15X 7579   1.516   1.472   4.235  1.7908 -2.1868  3.1256
   82SOPE  H15Y 7580   1.357   1.393   4.199  0.2487 -0.1193  0.4958
   82SOPE  C316 7581   1.519   1.312   4.074 -0.0250  0.3648 -0.4161
   82SOPE  H16X 7582   1.461   1.221   4.049 -0.0431 -0.2148  1.5678
   82SOPE  H16Y 7583   1.626   1.284   4.089 -0.0478  1.0822  1.2731
   82SOPE  C317 7584   1.512   1.417   3.968 -0.5873 -0.1280 -0.4731
   82SOPE  H17X 7585   1.569   1.504   4.008 -0.5022 -1.1541  1.7917
   82SOPE  H17Y 7586   1.408   1.446   3.942 -1.0260 -1.6598 -0.5462
   82SOPE  C318 7587   1.587   1.372   3.842  0.0944  0.4785  0.0645
   82SOPE  H18X 7588   1.532   1.293   3.787 -0.8550  0.5284  0.9116
   82SOPE  H18Y 7589   1.689   1.339   3.872  0.7169  1.2885 -1.0581
   82SOPE  H18Z 7590   1.593   1.458   3.773 -2.5503 -0.2500 -1.2106
   83SOPE     N 7591   1.520   6.516   1.876  0.5168  0.1786 -0.2513
   83SOPE   HN1 7592   1.476   6.478   1.790 -2.2161 -3.7960  2.5173
   83SOPE   HN2 7593   1.495   6.613   1.905  1.0869  0.3854 -0.4525
   83SOPE   HN3 7594   1.620   6.491   1.873  0.8012  1.2743 -0.3927
   83SOPE   C12 7595   1.462   6.433   1.991  0.4743 -0.7821 -0.4709
   83SOPE  H12A 7596   1.357   6.455   2.020  1.0224 -1.7157  2.5670
   83SOPE  H12B 7597   1.514   6.455   2.087  0.5535 -0.3899 -0.6017
   83SOPE   C11 7598   1.487   6.283   1.960 -0.4697  0.3274  0.5234
   83SOPE  H11A 7599   1.432   6.254   1.868 -0.0492 -0.3554  0.4847
   83SOPE  H11B 7600   1.438   6.233   2.047 -0.9459  2.2594  1.4284
   83SOPE     P 7601   1.668   6.107   1.909  0.0973 -0.2552  0.0135
   83SOPE   O13 7602   1.676   6.097   1.765  0.1854  0.3600  0.0248
   83SOPE   O14 7603   1.573   6.009   1.968  0.2097  0.0691 -0.5699
   83SOPE   O12 7604   1.628   6.252   1.955 -0.0037 -0.4270 -0.6819
   83SOPE   O11 7605   1.813   6.072   1.961  0.0853 -0.2838  0.4404
   83SOPE    C1 7606   1.892   6.170   2.032  0.1631 -0.6404  0.2665
   83SOPE    HA 7607   1.886   6.272   1.989 -2.3420  0.0381  1.9789
   83SOPE    HB 7608   2.000   6.153   2.013 -0.3422 -2.0806 -1.7151
   83SOPE    C2 7609   1.855   6.176   2.180 -0.3961  0.0300 -0.2926
   83SOPE    HS 7610   1.944   6.208   2.239  0.2024 -1.2780 -0.4608
   83SOPE   O21 7611   1.819   6.052   2.236 -0.3763 -0.0146 -0.4102
   83SOPE   C21 7612   1.920   5.972   2.248 -0.1496  0.1939 -0.6767
   83SOPE   O22 7613   2.039   5.998   2.223  0.8821 -0.1303 -0.1678
   83SOPE   C22 7614   1.867   5.848   2.322 -0.1817 -0.0702 -0.4149
   83SOPE   H2R 7615   1.914   5.763   2.269  1.1410 -0.3435  1.1373
   83SOPE   H2S 7616   1.758   5.844   2.301 -0.4064 -0.0013  0.6671
   83SOPE    C3 7617   1.761   6.294   2.222  0.1232 -0.0839  0.4381
   83SOPE    HX 7618   1.657   6.254   2.219  0.2805 -0.5085  0.6136
   83SOPE    HY 7619   1.766   6.372   2.143  2.2702  0.3037  0.9153
   83SOPE   O31 7620   1.782   6.342   2.354 -0.2696  0.1253  0.0964
   83SOPE   C31 7621   1.871   6.433   2.363  0.7838 -0.3306 -0.5046
   83SOPE   O32 7622   1.940   6.473   2.268 -0.5569 -0.3490 -0.0644
   83SOPE   C32 7623   1.885   6.478   2.512 -0.4703  0.2218  0.3068
   83SOPE   H2X 7624   1.788   6.529   2.532 -0.7158 -0.5494  1.1373
   83SOPE   H2Y 7625   1.978   6.538   2.519 -0.1311 -0.3061  0.3149
   83SOPE   C23 7626   1.886   5.850   2.474  0.4559 -0.3411 -0.2678
   83SOPE   H3R 7627   1.849   5.951   2.503  1.9491  0.0853  0.2618
   83SOPE   H3S 7628   1.996   5.857   2.491  0.2351  1.1348  0.7619
   83SOPE   C24 7629   1.825   5.726   2.537  0.3623  0.0179  0.0454
   83SOPE   H4R 7630   1.716   5.741   2.553  0.1449 -3.2401  2.6819
   83SOPE   H4S 7631   1.827   5.640   2.467 -1.0809 -0.2916  0.3488
   83SOPE   C25 7632   1.912   5.689   2.662 -0.8942 -0.0207  0.0799
   83SOPE   H5R 7633   1.872   5.600   2.714 -0.8096  2.0679  4.1380
   83SOPE   H5S 7634   2.010   5.656   2.623 -0.5111  1.2996 -0.1391
   83SOPE   C26 7635   1.942   5.800   2.761  0.3097  0.0395  0.3049
   83SOPE   H6R 7636   2.049   5.796   2.791  0.9708  3.5342 -1.1270
   83SOPE   H6S 7637   1.934   5.897   2.707 -1.9787 -0.6541 -0.6995
   83SOPE   C27 7638   1.843   5.804   2.882  0.1742 -0.6617  0.9736
   83SOPE   H7R 7639   1.740   5.826   2.847 -0.2704 -1.2452  1.8625
   83SOPE   H7S 7640   1.845   5.711   2.943 -0.2746 -1.3053  0.0293
   83SOPE   C28 7641   1.883   5.912   2.984  0.2691 -0.1422  1.2647
   83SOPE   H8R 7642   1.986   5.890   3.017  1.3362  0.7259 -1.2925
   83SOPE   H8S 7643   1.881   6.011   2.934 -1.9915  0.0319  1.5757
   83SOPE   C29 7644   1.782   5.915   3.098 -0.0698 -0.5568  0.3900
   83SOPE   H91 7645   1.697   5.980   3.073  0.6472  0.0600 -0.5061
   83SOPE  C210 7646   1.797   5.849   3.210  0.2278 -0.1059  1.1939
   83SOPE  H101 7647   1.713   5.869   3.279 -2.6145  2.3617 -2.5754
   83SOPE  C211 7648   1.906   5.759   3.259  0.4600 -0.0412  0.1461
   83SOPE  H11R 7649   1.992   5.755   3.188  0.4850 -0.0937  0.1795
   83SOPE  H11S 7650   1.866   5.658   3.279  0.9459 -0.2372  0.1180
   83SOPE  C212 7651   1.934   5.817   3.399  0.2235 -0.1575 -0.5445
   83SOPE  H12R 7652   1.845   5.831   3.464  0.5236  1.0175 -0.3571
   83SOPE  H12S 7653   1.983   5.916   3.382 -0.2759  0.5975  1.9996
   83SOPE  C213 7654   2.040   5.741   3.479 -0.7188 -1.1648 -1.1259
   83SOPE  H13R 7655   2.141   5.765   3.441 -0.6682 -0.3259 -0.5136
   83SOPE  H13S 7656   2.016   5.636   3.452 -0.9478 -1.0788 -1.2619
   83SOPE  C214 7657   2.029   5.749   3.635 -0.5560 -0.0449  0.2428
   83SOPE  H14R 7658   1.948   5.687   3.678 -0.6339  0.9386  1.5840
   83SOPE  H14S 7659   2.023   5.859   3.652  3.3156  0.3929 -0.4409
   83SOPE  C215 7660   2.151   5.699   3.700 -0.3919 -0.3912  0.6358
   83SOPE  H15R 7661   2.244   5.745   3.659  1.7564 -3.0518  2.2022
   83SOPE  H15S 7662   2.165   5.591   3.675 -0.1732  0.2916 -2.7323
   83SOPE  C216 7663   2.155   5.719   3.853  0.1720  0.2686 -0.7422
   83SOPE  H16R 7664   2.128   5.822   3.884 -0.3715  0.3069 -1.3131
   83SOPE  H16S 7665   2.258   5.694   3.885  0.6716 -0.4555 -2.7513
   83SOPE  C217 7666   2.065   5.607   3.924 -0.0574  0.0001 -0.0462
   83SOPE  H17R 7667   2.092   5.507   3.884 -1.1592 -0.5549  0.5765
   83SOPE  H17S 7668   1.960   5.635   3.904 -0.1188 -0.0067  0.2687
   83SOPE  C218 7669   2.093   5.611   4.070  0.8919 -0.5837  0.3966
   83SOPE  H18R 7670   2.193   5.652   4.094 -0.2833  0.9536  3.0281
   83SOPE  H18S 7671   2.100   5.507   4.110 -0.1147 -0.2911  1.3966
   83SOPE  H18T 7672   2.010   5.666   4.120 -0.0052 -1.0863 -0.4910
   83SOPE   C33 7673   1.903   6.367   2.614  0.6800  0.1638 -0.0490
   83SOPE   H3X 7674   1.991   6.301   2.602  0.3020 -1.0036  2.7817
   83SOPE   H3Y 7675   1.812   6.303   2.617 -0.3751  1.6170  0.8074
   83SOPE   C34 7676   1.921   6.420   2.756 -0.0285  0.5581 -0.2047
   83SOPE   H4X 7677   1.832   6.483   2.779  0.7937  0.9059  2.3200
   83SOPE   H4Y 7678   2.001   6.495   2.771  0.6529 -0.2737  0.4322
   83SOPE   C35 7679   1.958   6.310   2.860  0.0133 -0.0667 -0.4180
   83SOPE   H5X 7680   2.067   6.306   2.841 -0.0249 -0.7825 -0.5283
   83SOPE   H5Y 7681   1.911   6.210   2.842  0.9253 -0.4384 -0.7564
   83SOPE   C36 7682   1.923   6.373   2.994  0.2534  0.1909 -0.9466
   83SOPE   H6X 7683   1.814   6.398   2.993  0.6806  2.5683  1.4639
   83SOPE   H6Y 7684   1.980   6.465   3.019 -0.5914  0.2590  0.8720
   83SOPE   C37 7685   1.945   6.274   3.107 -0.6751  0.2765  0.3934
   83SOPE   H7X 7686   2.044   6.224   3.110 -0.5818  0.4800  0.8375
   83SOPE   H7Y 7687   1.865   6.199   3.090  2.1927 -3.2490  1.1968
   83SOPE   C38 7688   1.921   6.346   3.235 -0.4014 -0.0888  0.1376
   83SOPE   H8X 7689   1.837   6.419   3.231 -0.7274 -0.4333  0.5806
   83SOPE   H8Y 7690   2.010   6.404   3.267 -1.4334  0.9745  1.1849
   83SOPE   C39 7691   1.891   6.237   3.342  0.1606 -0.0841  0.1432
   83SOPE   H9X 7692   1.958   6.152   3.315 -1.2108 -1.4885  0.9845
   83SOPE   H9Y 7693   1.788   6.198   3.331  1.6890 -5.2497  0.9084
   83SOPE  C310 7694   1.931   6.280   3.484  0.5584 -0.5657  0.3194
   83SOPE  H10X 7695   1.892   6.381   3.510  1.7517  0.0375 -0.1552
   83SOPE  H10Y 7696   2.041   6.300   3.478  0.7567 -1.8550 -0.7870
   83SOPE  C311 7697   1.890   6.186   3.595  0.0830  0.0908 -0.1088
   83SOPE  H11X 7698   1.950   6.227   3.679 -0.0684  2.4849 -1.0781
   83SOPE  H11Y 7699   1.924   6.082   3.574 -1.8904 -0.9153  1.4174
   83SOPE  C312 7700   1.738   6.175   3.638  0.4090 -0.0318  0.0893
   83SOPE  H12X 7701   1.692   6.117   3.555  2.0819 -2.6505  0.8536
   83SOPE  H12Y 7702   1.689   6.274   3.643 -0.5204 -0.5280  1.3962
   83SOPE  C313 7703   1.715   6.110   3.780  0.5733 -0.3232 -0.4444
   83SOPE  H13X 7704   1.610   6.124   3.814  0.2502  1.0865 -1.8660
   83SOPE  H13Y 7705   1.766   6.172   3.857 -0.5669 -1.0059  0.9007
   83SOPE  C314 7706   1.762   5.964   3.802 -0.3424  0.6188 -0.0743
   83SOPE  H14X 7707   1.872   5.970   3.797 -0.4192  1.1663 -1.8756
   83SOPE  H14Y 7708   1.723   5.910   3.712  1.0620  1.4718 -1.2326
   83SOPE  C315 7709   1.710   5.891   3.930  0.4821  0.1252 -0.1746
   83SOPE  H15X 7710   1.702   5.782   3.912  1.2300  0.1926 -1.0105
   83SOPE  H15Y 7711   1.609   5.930   3.955 -0.8434 -2.1310 -1.6768
   83SOPE  C316 7712   1.793   5.912   4.058  0.4997 -0.2981 -0.1924
   83SOPE  H16X 7713   1.896   5.884   4.027  0.5129  0.2492 -0.6523
   83SOPE  H16Y 7714   1.763   5.831   4.128  1.4251 -0.4344  0.0529
   83SOPE  C317 7715   1.770   6.046   4.123 -0.0159 -0.4926 -0.1518
   83SOPE  H17X 7716   1.668   6.039   4.166 -0.9548 -0.0530 -2.1820
   83SOPE  H17Y 7717   1.761   6.135   4.058  0.6233  3.3331  4.4828
   83SOPE  C318 7718   1.867   6.083   4.232  0.2099  0.4348 -0.3398
   83SOPE  H18X 7719   1.822   6.160   4.298  0.2412 -0.1466  0.3749
   83SOPE  H18Y 7720   1.945   6.136   4.174 -2.1628  1.7867 -2.5285
   83SOPE  H18Z 7721   1.914   5.997   4.285 -1.6142 -1.2074 -1.2154
   84SOPE     N 7722   2.080   4.565   1.601 -0.2649  0.6631  0.1472
   84SOPE   HN1 7723   2.102   4.466   1.579  0.8740  0.7910  0.5761
   84SOPE   HN2 7724   1.977   4.568   1.604 -0.2928 -0.2902  0.4513
   84SOPE   HN3 7725   2.110   4.629   1.525  1.4077 -0.1309  0.0860
   84SOPE   C12 7726   2.149   4.606   1.734 -0.2068  0.0809  0.4188
   84SOPE  H12A 7727   2.121   4.711   1.758 -3.2081 -0.8483  1.4748
   84SOPE  H12B 7728   2.259   4.589   1.735  0.7069  4.4314  3.0059
   84SOPE   C11 7729   2.101   4.529   1.853  0.5466  0.1147  0.1241
   84SOPE  H11A 7730   2.001   4.567   1.884  0.2819 -1.6126  1.5702
   84SOPE  H11B 7731   2.154   4.538   1.951  0.9887 -1.5128  0.0648
   84SOPE     P 7732   2.179   4.280   1.861 -0.1184  0.2478 -0.0849
   84SOPE   O13 7733   2.314   4.335   1.892  0.4442 -0.3976  0.2692
   84SOPE   O14 7734   2.168   4.186   1.750 -0.2016  0.0453  0.0346
   84SOPE   O12 7735   2.079   4.390   1.822 -0.1055 -0.3461  0.6007
   84SOPE   O11 7736   2.110   4.219   1.989 -0.5986 -0.0315  0.3425
   84SOPE    C1 7737   2.025   4.292   2.074 -0.1309  0.0177  0.2793
   84SOPE    HA 7738   1.925   4.301   2.027 -1.1795 -0.6984  2.2325
   84SOPE    HB 7739   2.071   4.386   2.111  0.6626 -1.2188  2.6988
   84SOPE    C2 7740   1.985   4.213   2.196 -0.0917  0.0711 -0.0002
   84SOPE    HS 7741   1.884   4.248   2.227  0.0491 -0.4583  1.1131
   84SOPE   O21 7742   2.082   4.219   2.302 -0.0291 -0.1566 -0.0347
   84SOPE   C21 7743   2.081   4.338   2.367  0.0468  0.5621 -0.2964
   84SOPE   O22 7744   2.008   4.430   2.345  0.1048 -0.2338 -0.1905
   84SOPE   C22 7745   2.200   4.330   2.460  0.6869 -0.3723  0.3453
   84SOPE   H2R 7746   2.206   4.434   2.500  1.5825 -0.2779 -0.0112
   84SOPE   H2S 7747   2.290   4.307   2.398 -1.8171 -2.9365 -2.7151
   84SOPE    C3 7748   1.955   4.066   2.161  0.0032  0.0532 -0.1444
   84SOPE    HX 7749   2.046   4.014   2.123 -0.0807  0.8917 -1.5817
   84SOPE    HY 7750   1.887   4.058   2.074  0.2761  1.3438 -0.5028
   84SOPE   O31 7751   1.884   4.006   2.275 -0.1897 -0.0702 -0.1124
   84SOPE   C31 7752   1.955   3.914   2.339 -0.1738 -0.1724  0.3021
   84SOPE   O32 7753   2.071   3.898   2.319  0.0528 -0.4575 -0.4924
   84SOPE   C32 7754   1.871   3.841   2.451 -0.5382  0.2234 -0.2162
   84SOPE   H2X 7755   1.941   3.772   2.503 -0.3749  0.2613 -0.3855
   84SOPE   H2Y 7756   1.800   3.772   2.398 -0.8623  0.0576  0.4245
   84SOPE   C23 7757   2.205   4.232   2.575  0.5960 -0.4031 -0.5492
   84SOPE   H3R 7758   2.310   4.232   2.612  0.3769 -1.8074  0.1566
   84SOPE   H3S 7759   2.190   4.128   2.541  0.0009 -0.3349 -0.5032
   84SOPE   C24 7760   2.095   4.266   2.690  0.6130  0.0275  0.3705
   84SOPE   H4R 7761   2.119   4.371   2.718 -0.5996  0.0300  1.4832
   84SOPE   H4S 7762   1.995   4.256   2.643 -0.0797 -0.9007  1.9572
   84SOPE   C25 7763   2.111   4.184   2.814 -0.2737  0.9392 -0.3230
   84SOPE   H5R 7764   2.091   4.078   2.789 -0.1452  0.2467  2.2194
   84SOPE   H5S 7765   2.214   4.183   2.856  0.1935  1.4936 -1.4254
   84SOPE   C26 7766   2.014   4.242   2.925 -0.0844 -0.2482  0.5894
   84SOPE   H6R 7767   2.034   4.351   2.926  0.5143 -0.3532  0.3843
   84SOPE   H6S 7768   1.909   4.225   2.892  0.4818 -0.9537 -0.9067
   84SOPE   C27 7769   2.048   4.180   3.059 -0.3110  0.2894 -1.1964
   84SOPE   H7R 7770   2.053   4.070   3.042  1.0411  0.6424 -3.4966
   84SOPE   H7S 7771   2.146   4.215   3.097 -0.4060 -1.2327  0.5976
   84SOPE   C28 7772   1.950   4.212   3.173 -0.2046  0.9284 -0.1384
   84SOPE   H8R 7773   1.851   4.172   3.143  0.2953 -0.1908 -0.3671
   84SOPE   H8S 7774   1.982   4.157   3.265 -1.6665 -0.6005 -0.4915
   84SOPE   C29 7775   1.937   4.356   3.196  0.1394 -0.2505 -0.2455
   84SOPE   H91 7776   1.897   4.417   3.113 -0.3280 -0.3430 -0.0898
   84SOPE  C210 7777   1.974   4.412   3.309  0.2034  0.3077  0.2736
   84SOPE  H101 7778   1.968   4.521   3.323 -0.7930  0.1465  1.2532
   84SOPE  C211 7779   2.038   4.343   3.427 -0.1373 -0.1231 -0.6199
   84SOPE  H11R 7780   2.140   4.309   3.398  0.9505  0.0676  2.5970
   84SOPE  H11S 7781   1.973   4.261   3.462  0.1960 -0.7541 -1.4573
   84SOPE  C212 7782   2.043   4.428   3.557 -0.0229 -0.0782  1.0045
   84SOPE  H12R 7783   1.940   4.465   3.572  0.0969  0.4463  0.5666
   84SOPE  H12S 7784   2.113   4.514   3.549  0.6483 -0.4962  2.1651
   84SOPE  C213 7785   2.091   4.354   3.683 -0.2423 -0.9673  0.4679
   84SOPE  H13R 7786   2.196   4.318   3.678 -0.2059 -0.7723 -0.3464
   84SOPE  H13S 7787   2.023   4.268   3.698 -1.2919 -0.4642 -1.1635
   84SOPE  C214 7788   2.078   4.435   3.812 -0.0509  0.6688  0.3543
   84SOPE  H14R 7789   1.978   4.484   3.812 -0.7631 -0.6788  2.1048
   84SOPE  H14S 7790   2.155   4.515   3.805  1.7989 -1.1421 -1.7832
   84SOPE  C215 7791   2.084   4.345   3.933 -0.2068 -0.4246 -0.4450
   84SOPE  H15R 7792   2.096   4.403   4.026  1.0607  0.9194 -1.4108
   84SOPE  H15S 7793   2.182   4.294   3.934  0.8008  1.4236 -0.4948
   84SOPE  C216 7794   1.961   4.266   3.966  0.9649 -0.0584 -0.2909
   84SOPE  H16R 7795   1.973   4.204   4.057  2.1708 -1.2457 -1.2231
   84SOPE  H16S 7796   1.938   4.195   3.884  2.5515 -1.6576  0.5673
   84SOPE  C217 7797   1.832   4.348   3.996  0.4303 -0.6337 -0.1405
   84SOPE  H17R 7798   1.780   4.388   3.906 -1.3336 -0.9972  0.6758
   84SOPE  H17S 7799   1.845   4.433   4.066  0.3640 -0.9447  0.2481
   84SOPE  C218 7800   1.728   4.260   4.068 -0.3495  0.2311 -0.3261
   84SOPE  H18R 7801   1.770   4.189   4.141 -0.4889 -1.2459 -1.6423
   84SOPE  H18S 7802   1.655   4.205   4.005  0.4560 -1.3932  0.1247
   84SOPE  H18T 7803   1.667   4.324   4.137 -1.0673 -1.6915  0.8938
   84SOPE   C33 7804   1.817   3.952   2.551 -0.3541  0.2163 -0.2123
   84SOPE   H3X 7805   1.795   4.044   2.492 -2.1101 -1.6652 -2.7019
   84SOPE   H3Y 7806   1.888   3.982   2.631 -1.3625 -3.2422  2.2303
   84SOPE   C34 7807   1.695   3.897   2.630 -0.3552  0.2520  0.0957
   84SOPE   H4X 7808   1.625   3.844   2.561 -1.2369 -1.0342  1.8801
   84SOPE   H4Y 7809   1.633   3.981   2.666 -1.7120 -0.4391 -0.5433
   84SOPE   C35 7810   1.742   3.795   2.735  0.5520 -0.0749 -0.1710
   84SOPE   H5X 7811   1.845   3.822   2.765  1.5401 -2.3019 -1.3661
   84SOPE   H5Y 7812   1.745   3.691   2.696 -1.7322 -0.5419  0.7291
   84SOPE   C36 7813   1.635   3.793   2.848 -0.0840 -0.8499 -0.0002
   84SOPE   H6X 7814   1.534   3.811   2.804  0.1409 -0.7149 -0.4708
   84SOPE   H6Y 7815   1.638   3.881   2.915 -0.7402 -0.9487  0.1598
   84SOPE   C37 7816   1.643   3.673   2.946 -0.8362  0.0036  0.9370
   84SOPE   H7X 7817   1.746   3.665   2.988 -0.3613  2.3806  0.3653
   84SOPE   H7Y 7818   1.618   3.586   2.882 -0.4946  0.8183 -0.3407
   84SOPE   C38 7819   1.548   3.679   3.063 -0.2035 -0.0820 -0.1687
   84SOPE   H8X 7820   1.450   3.659   3.015 -0.0381  0.5526 -0.7781
   84SOPE   H8Y 7821   1.560   3.777   3.113  1.1776  0.1014 -0.8169
   84SOPE   C39 7822   1.581   3.573   3.175 -0.4342  0.3416  0.3129
   84SOPE   H9X 7823   1.675   3.610   3.222 -1.6846 -0.5919  3.8705
   84SOPE   H9Y 7824   1.589   3.469   3.138 -1.1658  0.7331 -1.0299
   84SOPE  C310 7825   1.483   3.567   3.286  0.4910 -0.0308 -0.0409
   84SOPE  H10X 7826   1.487   3.462   3.325  0.8762 -0.4842 -1.2672
   84SOPE  H10Y 7827   1.381   3.574   3.243 -0.4482 -1.5089  1.7596
   84SOPE  C311 7828   1.510   3.678   3.395  0.3791  0.8196 -0.3910
   84SOPE  H11X 7829   1.473   3.769   3.343 -0.2075  0.5973 -0.3731
   84SOPE  H11Y 7830   1.620   3.679   3.407  0.8047 -0.4713 -3.3161
   84SOPE  C312 7831   1.431   3.659   3.522 -0.5381  0.1243 -0.0576
   84SOPE  H12X 7832   1.324   3.673   3.496  0.6450  1.3548 -5.3640
   84SOPE  H12Y 7833   1.456   3.735   3.599  1.8239 -0.3184 -0.3372
   84SOPE  C313 7834   1.455   3.527   3.601 -0.1342 -0.6039  0.1086
   84SOPE  H13X 7835   1.563   3.501   3.593 -0.8327 -3.6643 -0.9675
   84SOPE  H13Y 7836   1.409   3.442   3.546  1.1393 -1.7255  0.7086
   84SOPE  C314 7837   1.415   3.537   3.751 -0.3355  0.0856 -0.4477
   84SOPE  H14X 7838   1.458   3.632   3.790 -1.8114  1.0309 -1.0342
   84SOPE  H14Y 7839   1.444   3.449   3.812  2.6987  1.4832  0.3264
   84SOPE  C315 7840   1.264   3.555   3.777 -0.8010  0.1123 -0.2381
   84SOPE  H15X 7841   1.206   3.466   3.746 -0.1722 -0.2308 -0.4497
   84SOPE  H15Y 7842   1.221   3.634   3.711  0.8255 -0.2006 -1.7587
   84SOPE  C316 7843   1.228   3.593   3.925 -0.0182  0.0203  0.5878
   84SOPE  H16X 7844   1.121   3.623   3.929  0.4830  2.4271 -1.5574
   84SOPE  H16Y 7845   1.282   3.685   3.955  0.3351 -0.3060  0.9720
   84SOPE  C317 7846   1.259   3.484   4.030 -0.3383  0.0546  0.4457
   84SOPE  H17X 7847   1.233   3.530   4.128 -0.9128  0.2116  0.2246
   84SOPE  H17Y 7848   1.367   3.462   4.023 -0.2818  0.8378 -2.5831
   84SOPE  C318 7849   1.189   3.349   4.016 -0.0788 -0.2121 -0.5123
   84SOPE  H18X 7850   1.184   3.310   3.913 -1.0000  0.3164 -0.6781
   84SOPE  H18Y 7851   1.096   3.353   4.077  0.9029  0.3902  1.0386
   84SOPE  H18Z 7852   1.241   3.267   4.069  2.1718 -0.7489 -3.3003
   85SOPE     N 7853   5.078   5.042   2.466  0.3521 -0.5597  0.0379
   85SOPE   HN1 7854   5.108   4.947   2.495 -1.3652 -1.7746 -1.8877
   85SOPE   HN2 7855   4.974   5.046   2.471  0.1985 -3.7021  1.6628
   85SOPE   HN3 7856   5.105   5.048   2.366 -1.7039 -2.6772 -0.7496
   85SOPE   C12 7857   5.136   5.159   2.541  0.0630  0.2746  0.0622
   85SOPE  H12A 7858   5.247   5.161   2.534  0.1318  0.2915  0.9746
   85SOPE  H12B 7859   5.124   5.139   2.650 -2.6862  1.8955  0.1451
   85SOPE   C11 7860   5.072   5.289   2.485 -0.2128  0.5026 -0.0329
   85SOPE  H11A 7861   5.103   5.379   2.541  3.9650  0.6956 -2.2767
   85SOPE  H11B 7862   4.964   5.282   2.510  0.0191  2.0473  1.6171
   85SOPE     P 7863   5.077   5.430   2.250 -0.0839  0.3427 -0.3784
   85SOPE   O13 7864   4.937   5.421   2.214 -0.1017 -0.6475 -0.6145
   85SOPE   O14 7865   5.178   5.413   2.148  0.5699 -0.1580 -0.1719
   85SOPE   O12 7866   5.091   5.304   2.340 -0.2576 -0.7837 -0.8234
   85SOPE   O11 7867   5.119   5.558   2.333 -0.1251  0.4212  0.0360
   85SOPE    C1 7868   5.015   5.626   2.402 -0.3826  0.0454 -0.5440
   85SOPE    HA 7869   4.938   5.552   2.434 -1.1430 -0.2908 -2.9702
   85SOPE    HB 7870   4.965   5.707   2.345 -1.1625 -0.2351 -0.2777
   85SOPE    C2 7871   5.076   5.688   2.534 -0.4526  0.5784  0.2975
   85SOPE    HS 7872   5.123   5.784   2.505 -1.2076  0.6034 -0.9026
   85SOPE   O21 7873   5.178   5.611   2.599  0.2435  0.0782  0.2327
   85SOPE   C21 7874   5.299   5.618   2.537 -0.2210  0.1888  0.7293
   85SOPE   O22 7875   5.339   5.710   2.466 -0.9232 -0.0308 -0.0838
   85SOPE   C22 7876   5.379   5.494   2.563  0.0067 -0.5719 -0.1024
   85SOPE   H2R 7877   5.483   5.509   2.526 -0.1421  1.2209  0.1145
   85SOPE   H2S 7878   5.332   5.420   2.495  1.4841  0.0375 -1.8629
   85SOPE    C3 7879   4.960   5.708   2.633  0.1638 -0.0700 -0.1741
   85SOPE    HX 7880   4.888   5.624   2.627 -1.2361  1.0565  0.3173
   85SOPE    HY 7881   4.902   5.794   2.594 -1.9927  0.6186  3.9171
   85SOPE   O31 7882   5.010   5.746   2.762  0.1075 -0.3792 -0.5940
   85SOPE   C31 7883   5.022   5.639   2.848  0.3238 -0.5467  0.1225
   85SOPE   O32 7884   4.995   5.524   2.824 -0.2482 -0.5272  0.0620
   85SOPE   C32 7885   5.098   5.689   2.978 -0.0340 -0.3361 -0.1803
   85SOPE   H2X 7886   5.040   5.781   2.999 -1.2635 -0.9099 -0.9509
   85SOPE   H2Y 7887   5.204   5.714   2.954  0.1252 -0.4602  0.3720
   85SOPE   C23 7888   5.375   5.460   2.706 -0.6200  0.4303 -0.1422
   85SOPE   H3R 7889   5.269   5.455   2.740 -0.4488  1.1255  0.5500
   85SOPE   H3S 7890   5.424   5.543   2.763  0.7166  1.9776 -3.3044
   85SOPE   C24 7891   5.437   5.327   2.752  0.2814  0.6900  0.0056
   85SOPE   H4R 7892   5.421   5.248   2.675  0.8632  0.1946  0.3856
   85SOPE   H4S 7893   5.546   5.345   2.745  0.3363 -0.2348 -3.1589
   85SOPE   C25 7894   5.393   5.273   2.886 -0.1698 -0.7182  0.1520
   85SOPE   H5R 7895   5.283   5.258   2.888 -0.2505 -1.2131 -3.0336
   85SOPE   H5S 7896   5.439   5.173   2.894 -2.6265 -1.9551 -0.3770
   85SOPE   C26 7897   5.443   5.358   2.999  1.1030  0.3861  0.4356
   85SOPE   H6R 7898   5.554   5.354   2.997  1.1299 -0.1669  1.8153
   85SOPE   H6S 7899   5.409   5.459   2.969 -1.8745  0.4805  3.5343
   85SOPE   C27 7900   5.390   5.316   3.135 -0.5270  0.1387  0.1925
   85SOPE   H7R 7901   5.281   5.335   3.141 -0.9929 -1.7948 -1.0453
   85SOPE   H7S 7902   5.400   5.206   3.142  1.3433  0.3298  1.1019
   85SOPE   C28 7903   5.463   5.388   3.257 -0.3169  0.0184  0.1369
   85SOPE   H8R 7904   5.569   5.357   3.264 -0.3111  0.0017 -0.0327
   85SOPE   H8S 7905   5.462   5.497   3.237 -0.9462  0.0450  0.2706
   85SOPE   C29 7906   5.397   5.339   3.385  0.0972 -0.0429 -0.6235
   85SOPE   H91 7907   5.380   5.231   3.386 -5.2603  0.4851  1.3669
   85SOPE  C210 7908   5.355   5.412   3.489 -0.1600  0.2325 -0.3066
   85SOPE  H101 7909   5.301   5.359   3.570  0.6430  1.3264  0.9953
   85SOPE  C211 7910   5.360   5.561   3.497 -1.1628  0.1810 -0.6074
   85SOPE  H11R 7911   5.267   5.601   3.452 -1.6605 -2.2137 -1.9314
   85SOPE  H11S 7912   5.445   5.607   3.442  0.0598 -0.6057  0.5691
   85SOPE  C212 7913   5.362   5.624   3.638 -0.0478  0.2756  0.1128
   85SOPE  H12R 7914   5.365   5.734   3.627  0.2237  0.2084 -0.5383
   85SOPE  H12S 7915   5.455   5.609   3.696 -0.5473  1.6108  1.3125
   85SOPE  C213 7916   5.237   5.569   3.717 -0.6130  0.2455  0.0685
   85SOPE  H13R 7917   5.243   5.465   3.755 -4.1537  0.2602  0.9847
   85SOPE  H13S 7918   5.143   5.580   3.659 -0.2040  0.7872 -0.5061
   85SOPE  C214 7919   5.218   5.656   3.845  0.1670  0.5006  0.0986
   85SOPE  H14R 7920   5.217   5.761   3.810 -1.9996  0.7319  0.7350
   85SOPE  H14S 7921   5.307   5.637   3.909  0.5858  1.8079 -0.0754
   85SOPE  C215 7922   5.089   5.630   3.924  0.2157  0.1215 -0.4697
   85SOPE  H15R 7923   5.074   5.521   3.933  2.0096 -0.1875 -0.8168
   85SOPE  H15S 7924   5.007   5.673   3.861 -2.1711 -0.2734  2.1671
   85SOPE  C216 7925   5.085   5.694   4.064 -0.2686  0.1707  0.2729
   85SOPE  H16R 7926   5.110   5.802   4.055 -1.6623  0.7568  2.5272
   85SOPE  H16S 7927   5.165   5.652   4.128  1.8507  1.0125 -1.7163
   85SOPE  C217 7928   4.950   5.684   4.133  0.0534 -0.9660  0.7037
   85SOPE  H17R 7929   4.956   5.731   4.233 -2.2391  1.1216 -0.0422
   85SOPE  H17S 7930   4.918   5.580   4.156 -0.4003 -0.6636  1.4862
   85SOPE  C218 7931   4.822   5.733   4.062  0.5750  0.5002  0.5321
   85SOPE  H18R 7932   4.824   5.836   4.020 -3.7579 -0.3881 -2.4928
   85SOPE  H18S 7933   4.739   5.733   4.135  2.1405 -0.2474  2.4273
   85SOPE  H18T 7934   4.793   5.672   3.974 -0.2668  0.0065  1.1442
   85SOPE   C33 7935   5.106   5.599   3.099 -0.1118 -0.5237 -0.9802
   85SOPE   H3X 7936   5.184   5.634   3.170  0.2608  0.5635 -1.9073
   85SOPE   H3Y 7937   5.148   5.502   3.064  1.6544  0.2697 -1.1292
   85SOPE   C34 7938   4.978   5.585   3.187  0.2171 -0.7546 -0.7759
   85SOPE   H4X 7939   4.892   5.538   3.134 -0.0420  0.7966 -1.8353
   85SOPE   H4Y 7940   4.940   5.689   3.187 -0.3594 -0.9546 -1.6750
   85SOPE   C35 7941   5.003   5.517   3.314 -0.4065 -0.4338 -0.2296
   85SOPE   H5X 7942   5.043   5.591   3.387 -0.5502 -1.3537  0.8107
   85SOPE   H5Y 7943   5.079   5.440   3.290  0.0660  0.9024 -3.4717
   85SOPE   C36 7944   4.875   5.467   3.382 -0.4388  0.2560  0.0369
   85SOPE   H6X 7945   4.847   5.374   3.329  0.2365  1.1123 -1.9182
   85SOPE   H6Y 7946   4.794   5.539   3.357  0.4010  1.5216  0.8085
   85SOPE   C37 7947   4.895   5.452   3.534  0.7532 -0.5213 -0.1628
   85SOPE   H7X 7948   4.921   5.547   3.586  0.0430  0.3304 -1.3055
   85SOPE   H7Y 7949   4.981   5.381   3.529 -1.1684 -2.9741 -0.1889
   85SOPE   C38 7950   4.780   5.384   3.613  0.1293  0.0950  0.7072
   85SOPE   H8X 7951   4.764   5.284   3.565 -0.9626  0.2176  0.7961
   85SOPE   H8Y 7952   4.687   5.439   3.589 -0.8101 -1.7030 -0.0483
   85SOPE   C39 7953   4.792   5.378   3.757 -0.1297  0.1608  0.0244
   85SOPE   H9X 7954   4.814   5.478   3.800  0.1859 -0.5602  1.6267
   85SOPE   H9Y 7955   4.887   5.334   3.793 -1.4132 -0.6247  2.7046
   85SOPE  C310 7956   4.678   5.292   3.819  0.1012 -0.3805 -0.6638
   85SOPE  H10X 7957   4.681   5.185   3.788 -2.5549 -0.3638 -1.2005
   85SOPE  H10Y 7958   4.584   5.330   3.774  1.3410  0.1487 -3.0081
   85SOPE  C311 7959   4.661   5.306   3.972 -0.0409  0.2921 -0.2061
   85SOPE  H11X 7960   4.560   5.267   3.997  0.0570 -0.0103 -0.2761
   85SOPE  H11Y 7961   4.670   5.414   3.997  1.2982  0.6383 -1.9732
   85SOPE  C312 7962   4.779   5.220   4.036  0.8572  0.4785  0.0703
   85SOPE  H12X 7963   4.869   5.270   3.995  0.2128  1.3125 -0.3579
   85SOPE  H12Y 7964   4.772   5.113   4.006  1.1814  0.1955  0.9734
   85SOPE  C313 7965   4.776   5.235   4.183  0.1543  0.2031  0.2592
   85SOPE  H13X 7966   4.679   5.192   4.216 -0.9136  1.9271 -0.4977
   85SOPE  H13Y 7967   4.774   5.344   4.204 -1.6043 -0.2902  3.4160
   85SOPE  C314 7968   4.902   5.162   4.235 -0.0066 -0.6949  0.4915
   85SOPE  H14X 7969   4.963   5.230   4.299 -2.1469 -0.7014  2.6659
   85SOPE  H14Y 7970   4.962   5.143   4.144 -0.6103 -0.8197  0.1110
   85SOPE  C315 7971   4.864   5.039   4.318 -0.2093  0.3020  0.5150
   85SOPE  H15X 7972   4.822   4.962   4.250  1.3335 -0.6980  0.6571
   85SOPE  H15Y 7973   4.779   5.065   4.384 -0.9893  1.0537 -0.7414
   85SOPE  C316 7974   4.982   4.982   4.393  0.7868 -0.3623  0.0307
   85SOPE  H16X 7975   4.945   4.914   4.473 -0.8461  0.2369 -0.1642
   85SOPE  H16Y 7976   5.040   5.060   4.446 -2.3971  1.4645  1.1594
   85SOPE  C317 7977   5.067   4.896   4.299  0.1166  0.3210 -0.4402
   85SOPE  H17X 7978   5.162   4.874   4.353 -1.0976  0.3589  1.7958
   85SOPE  H17Y 7979   5.084   4.962   4.212 -2.3660  0.8999 -0.5432
   85SOPE  C318 7980   5.001   4.763   4.256  0.1676 -0.4915  0.4125
   85SOPE  H18X 7981   5.040   4.740   4.155  2.1919  2.0466  0.5104
   85SOPE  H18Y 7982   4.891   4.762   4.265  0.1965 -2.0352  0.9098
   85SOPE  H18Z 7983   5.041   4.679   4.318 -0.4622 -1.3701 -0.3379
   86SOPE     N 7984   6.318   1.453   1.787  0.3527  0.4468  0.6281
   86SOPE   HN1 7985   6.252   1.374   1.775  0.8769  0.2128 -0.9351
   86SOPE   HN2 7986   6.337   1.460   1.890  0.4754 -0.9646  0.7169
   86SOPE   HN3 7987   6.281   1.542   1.747  0.6459 -0.2568 -1.2923
   86SOPE   C12 7988   6.444   1.408   1.714  0.7177  0.2909  0.3598
   86SOPE  H12A 7989   6.408   1.356   1.623  0.9659  0.8913 -0.0816
   86SOPE  H12B 7990   6.486   1.331   1.783  0.5303  1.1253  1.4328
   86SOPE   C11 7991   6.547   1.518   1.681  0.4522 -0.0963  0.0641
   86SOPE  H11A 7992   6.502   1.582   1.601 -1.1856  1.2671  1.9857
   86SOPE  H11B 7993   6.643   1.475   1.646 -0.1257 -1.3196 -0.0722
   86SOPE     P 7994   6.547   1.744   1.813  0.2783  0.2632  0.0447
   86SOPE   O13 7995   6.403   1.766   1.794  0.0815 -0.4522 -0.4635
   86SOPE   O14 7996   6.644   1.835   1.749  0.3256  0.2979  0.1369
   86SOPE   O12 7997   6.575   1.589   1.797 -0.2737  0.0653  0.3643
   86SOPE   O11 7998   6.583   1.755   1.967 -0.0745  0.3233 -0.6371
   86SOPE    C1 7999   6.477   1.747   2.069 -0.2457  0.1952  0.6693
   86SOPE    HA 8000   6.406   1.664   2.051  0.1052  0.5314 -3.0635
   86SOPE    HB 8001   6.416   1.839   2.080  0.6006  0.6891  1.3397
   86SOPE    C2 8002   6.541   1.697   2.205 -0.3298  0.0246  0.2716
   86SOPE    HS 8003   6.455   1.655   2.260 -1.2088  0.3691 -0.7987
   86SOPE   O21 8004   6.603   1.799   2.274 -0.2824  0.1270  0.0602
   86SOPE   C21 8005   6.525   1.901   2.319 -0.7540 -0.1201  0.1235
   86SOPE   O22 8006   6.402   1.889   2.322  0.0191  0.0577 -0.0338
   86SOPE   C22 8007   6.604   2.027   2.362 -0.2683  0.5432  0.1454
   86SOPE   H2R 8008   6.531   2.104   2.394 -1.6391 -1.2822  1.6367
   86SOPE   H2S 8009   6.660   2.073   2.278  0.7520  0.8290  0.9616
   86SOPE    C3 8010   6.645   1.582   2.180  0.3532 -0.7771  0.1162
   86SOPE    HX 8011   6.727   1.626   2.118  0.0646 -0.2466  0.1080
   86SOPE    HY 8012   6.592   1.508   2.117 -2.3743  1.0753  0.0781
   86SOPE   O31 8013   6.687   1.516   2.302  0.0669  0.1531 -0.4544
   86SOPE   C31 8014   6.789   1.574   2.353 -0.5172 -0.2602  0.6295
   86SOPE   O32 8015   6.862   1.654   2.291 -0.4479 -0.3108 -0.0489
   86SOPE   C32 8016   6.812   1.516   2.492 -0.7194  0.6521  0.0005
   86SOPE   H2X 8017   6.822   1.409   2.465 -0.9656  1.0611 -1.8854
   86SOPE   H2Y 8018   6.718   1.533   2.549 -0.4006 -0.4144  0.8802
   86SOPE   C23 8019   6.698   1.991   2.478 -0.2074  0.7630  0.5626
   86SOPE   H3R 8020   6.777   2.068   2.488  1.2189 -0.6688  0.8088
   86SOPE   H3S 8021   6.762   1.904   2.452  1.9520  2.5639 -0.4556
   86SOPE   C24 8022   6.631   1.977   2.609 -0.1053  0.3794  0.4667
   86SOPE   H4R 8023   6.579   2.074   2.627  2.9084  2.3679 -0.7511
   86SOPE   H4S 8024   6.555   1.896   2.610 -0.1850  0.4274 -0.4134
   86SOPE   C25 8025   6.730   1.963   2.724 -0.5312  0.4870 -1.0049
   86SOPE   H5R 8026   6.799   1.876   2.725 -0.7778  0.2758  0.2437
   86SOPE   H5S 8027   6.801   2.048   2.725 -1.1170  0.9922 -1.2885
   86SOPE   C26 8028   6.652   1.952   2.864 -0.3064  0.2106 -0.1139
   86SOPE   H6R 8029   6.546   1.987   2.859 -1.2941 -2.5028  0.4190
   86SOPE   H6S 8030   6.654   1.847   2.898  1.3418 -0.1605 -1.2570
   86SOPE   C27 8031   6.733   2.028   2.970 -0.6816  0.4175  0.3148
   86SOPE   H7R 8032   6.841   2.004   2.980 -0.5326 -0.1022 -1.9475
   86SOPE   H7S 8033   6.739   2.133   2.933  0.0767 -0.0078 -0.8459
   86SOPE   C28 8034   6.661   2.025   3.100  0.1720 -0.2259 -0.1662
   86SOPE   H8R 8035   6.719   2.094   3.165  0.6582 -0.3003 -0.5235
   86SOPE   H8S 8036   6.551   2.044   3.105  0.6885  3.1679  0.7171
   86SOPE   C29 8037   6.693   1.893   3.173  0.4724 -0.2373 -0.0429
   86SOPE   H91 8038   6.774   1.834   3.128 -1.6289 -3.1429 -0.3053
   86SOPE  C210 8039   6.641   1.859   3.293  0.4713 -0.4065  0.3780
   86SOPE  H101 8040   6.668   1.761   3.335  0.5260  0.5592  2.7669
   86SOPE  C211 8041   6.541   1.935   3.367 -0.1187 -0.4279 -0.0300
   86SOPE  H11R 8042   6.437   1.897   3.357 -0.9125  1.5500  0.2304
   86SOPE  H11S 8043   6.530   2.041   3.337 -0.1149 -0.6027 -0.6692
   86SOPE  C212 8044   6.580   1.949   3.521  0.9818 -0.0306 -0.0381
   86SOPE  H12R 8045   6.579   1.848   3.568 -0.0602 -0.8202 -1.6555
   86SOPE  H12S 8046   6.497   2.007   3.565  0.1660 -0.1717 -1.3500
   86SOPE  C213 8047   6.711   2.024   3.549 -0.1603 -0.3452  0.5122
   86SOPE  H13R 8048   6.707   2.129   3.513 -1.1932 -0.5839 -0.1113
   86SOPE  H13S 8049   6.796   1.974   3.497  0.2082 -0.7896  1.5148
   86SOPE  C214 8050   6.757   2.036   3.704 -0.3004  0.2238  0.8285
   86SOPE  H14R 8051   6.860   2.076   3.709  0.4722 -1.4346 -0.4843
   86SOPE  H14S 8052   6.761   1.934   3.748 -0.4147 -0.2052 -0.1292
   86SOPE  C215 8053   6.663   2.132   3.783 -0.0026  0.2745 -0.0225
   86SOPE  H15R 8054   6.570   2.076   3.805 -1.0293  0.9494 -2.3069
   86SOPE  H15S 8055   6.642   2.225   3.726  0.9695  0.3892 -0.2131
   86SOPE  C216 8056   6.717   2.163   3.922  0.4832 -0.0815 -0.1160
   86SOPE  H16R 8057   6.825   2.191   3.919  0.7070 -0.6963  1.3829
   86SOPE  H16S 8058   6.709   2.064   3.971  2.2805  0.1576  0.7454
   86SOPE  C217 8059   6.629   2.265   3.982 -0.4549  0.1786  0.8243
   86SOPE  H17R 8060   6.626   2.247   4.091  0.8905  1.8582  1.1778
   86SOPE  H17S 8061   6.527   2.239   3.945  0.3515 -1.0808 -0.6225
   86SOPE  C218 8062   6.658   2.410   3.948 -0.5858  0.2239 -0.0757
   86SOPE  H18R 8063   6.758   2.447   3.981 -0.4200  0.4109 -0.7707
   86SOPE  H18S 8064   6.586   2.469   4.009  0.7623  1.4238  0.4134
   86SOPE  H18T 8065   6.643   2.428   3.840  0.9353 -0.2668 -0.3813
   86SOPE   C33 8066   6.941   1.560   2.576  0.5203  0.8514  0.2912
   86SOPE   H3X 8067   6.916   1.665   2.604  0.2401  0.9763 -0.4128
   86SOPE   H3Y 8068   7.033   1.565   2.515  2.2148 -1.9059  2.3924
   86SOPE   C34 8069   6.965   1.470   2.698 -0.3041  0.1013  0.6460
   86SOPE   H4X 8070   7.068   1.488   2.734 -0.4972  1.1558  0.6794
   86SOPE   H4Y 8071   6.976   1.369   2.653 -2.4832  0.1686 -0.1459
   86SOPE   C35 8072   6.880   1.486   2.823  0.5173 -0.2099  0.2630
   86SOPE   H5X 8073   6.779   1.443   2.810 -0.0101  1.1736 -0.3900
   86SOPE   H5Y 8074   6.864   1.595   2.835  1.0512  0.0449 -1.1883
   86SOPE   C36 8075   6.945   1.426   2.952 -0.5024  0.1149  0.1272
   86SOPE   H6X 8076   7.048   1.468   2.953 -0.0368 -0.9944  0.0885
   86SOPE   H6Y 8077   6.950   1.315   2.952 -1.7038  0.0338 -1.2224
   86SOPE   C37 8078   6.880   1.486   3.078 -0.5108  0.0599  0.4752
   86SOPE   H7X 8079   6.774   1.454   3.091  0.0212 -1.4605  1.2976
   86SOPE   H7Y 8080   6.884   1.596   3.064 -4.2813  0.5369  1.9604
   86SOPE   C38 8081   6.942   1.449   3.218 -0.5029 -0.3759  0.3697
   86SOPE   H8X 8082   7.049   1.472   3.231 -0.6476 -0.1825  1.2850
   86SOPE   H8Y 8083   6.928   1.340   3.234  0.2799 -0.4098  0.8765
   86SOPE   C39 8084   6.867   1.527   3.328 -0.7140 -0.2152  0.6752
   86SOPE   H9X 8085   6.764   1.486   3.319 -1.1855  0.9582  0.5833
   86SOPE   H9Y 8086   6.856   1.635   3.306 -0.5797  0.2390  2.6973
   86SOPE  C310 8087   6.934   1.502   3.461 -0.0093 -0.1779 -0.0370
   86SOPE  H10X 8088   7.041   1.529   3.453  0.3450 -0.5924  2.5473
   86SOPE  H10Y 8089   6.924   1.402   3.507  1.0313 -0.0449  0.5063
   86SOPE  C311 8090   6.872   1.598   3.562 -0.1070  0.5479  0.3479
   86SOPE  H11X 8091   6.769   1.631   3.536  0.6324  2.6182 -0.1430
   86SOPE  H11Y 8092   6.924   1.696   3.558  1.6543 -0.2873  1.2813
   86SOPE  C312 8093   6.887   1.543   3.706  0.7367 -0.1521  0.3873
   86SOPE  H12X 8094   6.993   1.517   3.726  1.3276  1.2309 -0.8031
   86SOPE  H12Y 8095   6.841   1.442   3.705  1.6929 -0.6164  1.2563
   86SOPE  C313 8096   6.811   1.626   3.819 -0.2593 -0.7788  0.7327
   86SOPE  H13X 8097   6.711   1.654   3.780 -0.2722  1.4997  2.2513
   86SOPE  H13Y 8098   6.862   1.722   3.842 -1.2032  0.1473 -0.8746
   86SOPE  C314 8099   6.801   1.548   3.946  0.3103  0.5252 -0.4513
   86SOPE  H14X 8100   6.784   1.439   3.931 -0.7421  0.3821  1.5017
   86SOPE  H14Y 8101   6.713   1.587   4.000 -0.3603  0.8243 -1.7288
   86SOPE  C315 8102   6.926   1.555   4.037  0.2212  0.3606  1.0151
   86SOPE  H15X 8103   6.948   1.662   4.056  2.3999  0.3621 -1.0243
   86SOPE  H15Y 8104   7.016   1.516   3.985 -0.0798  0.7615  0.1842
   86SOPE  C316 8105   6.911   1.485   4.178 -0.1910 -0.1040 -0.0288
   86SOPE  H16X 8106   6.899   1.375   4.173 -0.3701 -0.0682 -0.3617
   86SOPE  H16Y 8107   6.826   1.523   4.239 -1.6896 -1.1722 -1.3594
   86SOPE  C317 8108   7.042   1.502   4.250 -0.0069  0.1289  0.4602
   86SOPE  H17X 8109   7.057   1.612   4.254  0.5339  0.0568  0.5201
   86SOPE  H17Y 8110   7.122   1.448   4.194  0.0667 -0.5997  1.2514
   86SOPE  C318 8111   7.036   1.457   4.395 -0.7673 -0.4676  0.2476
   86SOPE  H18X 8112   6.959   1.506   4.459 -2.0407 -0.9898 -0.8273
   86SOPE  H18Y 8113   7.128   1.500   4.439 -1.2715  3.2283 -1.8814
   86SOPE  H18Z 8114   7.031   1.346   4.402 -2.0497 -0.5715 -1.5901
   87SOPE     N 8115   0.029   0.902   2.319  0.5373 -0.0759 -0.2435
   87SOPE   HN1 8116  -0.034   0.976   2.355  0.8432 -0.5491  1.3359
   87SOPE   HN2 8117  -0.007   0.813   2.359  0.0951 -0.3011 -1.1176
   87SOPE   HN3 8118   0.126   0.927   2.345  0.4060 -0.7109  0.8963
   87SOPE   C12 8119   0.029   0.889   2.174 -0.1507 -0.5947 -0.4341
   87SOPE  H12A 8120   0.072   0.789   2.150 -1.1652 -1.2561  0.4197
   87SOPE  H12B 8121   0.107   0.952   2.125 -1.3877  0.2980 -1.3268
   87SOPE   C11 8122  -0.108   0.909   2.108  0.2244 -0.4210  0.2870
   87SOPE  H11A 8123  -0.164   0.817   2.134 -0.3975 -0.2441 -0.3741
   87SOPE  H11B 8124  -0.097   0.900   1.997 -1.0241  0.3181  0.0859
   87SOPE     P 8125  -0.325   1.066   2.100  0.0665 -0.0525  0.1011
   87SOPE   O13 8126  -0.333   1.057   1.952 -0.4653 -0.2398 -0.1409
   87SOPE   O14 8127  -0.371   1.194   2.158 -0.2190 -0.2053  0.0575
   87SOPE   O12 8128  -0.167   1.041   2.128 -0.4705  0.0785 -0.1560
   87SOPE   O11 8129  -0.380   0.936   2.167  0.1418  0.0301  0.0901
   87SOPE    C1 8130  -0.378   0.927   2.310 -0.0444  0.0058  0.3263
   87SOPE    HA 8131  -0.362   1.026   2.358 -0.8788  0.7393 -0.8485
   87SOPE    HB 8132  -0.309   0.849   2.348 -1.3859 -0.3520  2.1519
   87SOPE    C2 8133  -0.517   0.895   2.363  0.4788  0.2513  0.6455
   87SOPE    HS 8134  -0.591   0.938   2.292 -2.2032 -2.8027  1.3340
   87SOPE   O21 8135  -0.536   0.952   2.489  0.0493 -0.4469 -0.3830
   87SOPE   C21 8136  -0.663   0.975   2.522 -0.5082  0.1879  0.4800
   87SOPE   O22 8137  -0.759   0.972   2.450 -0.2450  0.0147  0.5077
   87SOPE   C22 8138  -0.665   1.014   2.675 -0.0046 -0.7528  0.5773
   87SOPE   H2R 8139  -0.575   1.078   2.684 -0.5086 -0.1019  0.9835
   87SOPE   H2S 8140  -0.640   0.925   2.737 -0.8283 -1.2181  0.2547
   87SOPE    C3 8141  -0.545   0.737   2.361 -0.4436 -0.2270 -0.5028
   87SOPE    HX 8142  -0.525   0.712   2.254 -0.5110 -0.1787 -0.5272
   87SOPE    HY 8143  -0.655   0.726   2.371 -0.5855  1.3186 -0.2424
   87SOPE   O31 8144  -0.461   0.652   2.441 -0.2657  0.2325 -0.1957
   87SOPE   C31 8145  -0.501   0.650   2.565  0.3508 -0.3194  0.6951
   87SOPE   O32 8146  -0.604   0.696   2.607  0.1990  0.3696  0.2572
   87SOPE   C32 8147  -0.405   0.564   2.646 -0.3423 -0.1101 -0.1877
   87SOPE   H2X 8148  -0.319   0.633   2.661 -0.3723  0.4191 -2.1209
   87SOPE   H2Y 8149  -0.375   0.479   2.581 -1.4883  0.6977 -1.8484
   87SOPE   C23 8150  -0.791   1.090   2.729 -0.4796 -0.0195 -0.1038
   87SOPE   H3R 8151  -0.876   1.060   2.665 -0.5846 -1.6953  0.7694
   87SOPE   H3S 8152  -0.782   1.198   2.704 -1.7741  0.1439  0.0568
   87SOPE   C24 8153  -0.818   1.088   2.877  0.5647  0.2177 -0.1168
   87SOPE   H4R 8154  -0.896   1.165   2.894 -1.2081 -1.4002 -0.5377
   87SOPE   H4S 8155  -0.856   0.987   2.902  2.9688 -0.5493  0.7729
   87SOPE   C25 8156  -0.708   1.119   2.980  0.0651  0.5001  0.0425
   87SOPE   H5R 8157  -0.628   1.042   2.973 -0.8738 -0.4302 -0.7026
   87SOPE   H5S 8158  -0.660   1.212   2.943 -0.1402  0.2436 -0.9035
   87SOPE   C26 8159  -0.778   1.124   3.118 -0.0959 -0.0627  0.1466
   87SOPE   H6R 8160  -0.854   1.205   3.110  2.3580  2.3125 -0.6105
   87SOPE   H6S 8161  -0.826   1.027   3.144 -1.4984  0.4938 -0.2386
   87SOPE   C27 8162  -0.686   1.173   3.225  0.3830  0.6734  0.0044
   87SOPE   H7R 8163  -0.590   1.117   3.220  1.3229  2.1218  0.9901
   87SOPE   H7S 8164  -0.653   1.274   3.191  0.1627  0.8405  0.2853
   87SOPE   C28 8165  -0.756   1.179   3.360  0.0382 -0.7397  0.1318
   87SOPE   H8R 8166  -0.702   1.242   3.434 -1.2894  0.1316  0.3924
   87SOPE   H8S 8167  -0.855   1.229   3.350  1.3880  2.0269 -0.3375
   87SOPE   C29 8168  -0.781   1.041   3.425  0.0390 -0.2804  0.2049
   87SOPE   H91 8169  -0.836   0.973   3.360 -0.1060  1.0671 -1.1558
   87SOPE  C210 8170  -0.738   0.992   3.539 -0.2997 -0.2337 -0.1197
   87SOPE  H101 8171  -0.783   0.901   3.582 -2.0727  0.8516  0.4145
   87SOPE  C211 8172  -0.647   1.068   3.633  0.3514  0.1965  0.6798
   87SOPE  H11R 8173  -0.702   1.145   3.691 -1.6624  0.2218 -1.1313
   87SOPE  H11S 8174  -0.576   1.129   3.573  0.4852 -0.0508  0.5831
   87SOPE  C212 8175  -0.583   0.974   3.741 -0.2888 -0.6674  0.5880
   87SOPE  H12R 8176  -0.489   1.023   3.774  1.4964 -1.1918 -3.1538
   87SOPE  H12S 8177  -0.541   0.880   3.698 -0.3537 -0.9002  1.0230
   87SOPE  C213 8178  -0.680   0.944   3.859 -0.2469  0.3050 -0.6461
   87SOPE  H13R 8179  -0.769   0.894   3.815  1.4516 -0.6025 -3.3028
   87SOPE  H13S 8180  -0.718   1.044   3.890  1.0828  0.9280 -0.9412
   87SOPE  C214 8181  -0.610   0.875   3.971  0.0204  0.0721 -0.4873
   87SOPE  H14R 8182  -0.541   0.943   4.025 -2.1934  1.4146  0.8208
   87SOPE  H14S 8183  -0.558   0.792   3.919 -0.7958 -0.8900  0.1848
   87SOPE  C215 8184  -0.712   0.822   4.071 -0.8151  0.0836  0.1331
   87SOPE  H15R 8185  -0.791   0.757   4.027 -0.4511  0.1682 -0.6649
   87SOPE  H15S 8186  -0.768   0.904   4.121 -1.3252 -0.4849  0.5168
   87SOPE  C216 8187  -0.648   0.730   4.178 -0.3066  0.2451 -0.4501
   87SOPE  H16R 8188  -0.578   0.790   4.240 -1.3944  0.1132  0.9563
   87SOPE  H16S 8189  -0.595   0.643   4.134  1.5906 -0.0677  2.2473
   87SOPE  C217 8190  -0.750   0.674   4.277  0.1428  0.4196  0.8021
   87SOPE  H17R 8191  -0.780   0.760   4.340 -1.4023  0.3527  0.2038
   87SOPE  H17S 8192  -0.694   0.606   4.345  0.6789  1.2137  1.1676
   87SOPE  C218 8193  -0.875   0.607   4.209  0.8816 -0.1277 -0.0914
   87SOPE  H18R 8194  -0.949   0.574   4.286 -0.9470  0.5601 -1.4682
   87SOPE  H18S 8195  -0.845   0.520   4.146  1.6029  1.2200 -1.6767
   87SOPE  H18T 8196  -0.941   0.679   4.156 -2.4591 -1.8918  1.3185
   87SOPE   C33 8197  -0.450   0.523   2.785  0.5971 -0.1160  0.1874
   87SOPE   H3X 8198  -0.536   0.455   2.774  1.4785 -1.0245 -1.4944
   87SOPE   H3Y 8199  -0.484   0.610   2.845  1.0162 -0.4752  0.9648
   87SOPE   C34 8200  -0.343   0.443   2.865 -0.1053  0.5562  0.2224
   87SOPE   H4X 8201  -0.242   0.487   2.873  0.3004 -0.3331  0.1296
   87SOPE   H4Y 8202  -0.337   0.347   2.809 -3.0773  0.3864 -0.0131
   87SOPE   C35 8203  -0.388   0.406   3.006 -0.0625 -0.1067 -0.6805
   87SOPE   H5X 8204  -0.451   0.314   3.002  0.5268 -0.4902 -1.6754
   87SOPE   H5Y 8205  -0.444   0.490   3.052 -0.7536 -1.1731  0.4727
   87SOPE   C36 8206  -0.276   0.373   3.109  0.1032 -0.4738  0.0492
   87SOPE   H6X 8207  -0.210   0.462   3.116 -0.2560 -0.2273  0.3658
   87SOPE   H6Y 8208  -0.221   0.289   3.061 -1.3532 -0.3358 -2.0313
   87SOPE   C37 8209  -0.313   0.327   3.254  0.2889  0.2498 -0.6967
   87SOPE   H7X 8210  -0.312   0.216   3.256 -2.1412  0.1011 -2.5943
   87SOPE   H7Y 8211  -0.420   0.355   3.265  0.2185 -0.2970  0.0779
   87SOPE   C38 8212  -0.229   0.390   3.362 -0.2001 -0.5123  0.5674
   87SOPE   H8X 8213  -0.247   0.500   3.361 -0.6175 -0.5819  0.1473
   87SOPE   H8Y 8214  -0.123   0.369   3.339  0.3825  0.3617  2.2593
   87SOPE   C39 8215  -0.268   0.327   3.495  0.1684  0.1989 -0.3316
   87SOPE   H9X 8216  -0.250   0.217   3.486  0.0068  0.3586 -3.5481
   87SOPE   H9Y 8217  -0.377   0.350   3.495 -0.3501 -2.0191 -0.7524
   87SOPE  C310 8218  -0.175   0.382   3.601 -0.5399 -0.2207 -0.0380
   87SOPE  H10X 8219  -0.183   0.493   3.598  1.8675  0.0206  0.4547
   87SOPE  H10Y 8220  -0.072   0.349   3.578 -1.6603 -2.2216 -2.7070
   87SOPE  C311 8221  -0.194   0.323   3.737 -0.1659  0.0733  0.0604
   87SOPE  H11X 8222  -0.136   0.382   3.811 -2.1263  0.9252  1.0195
   87SOPE  H11Y 8223  -0.160   0.218   3.745  2.6030  0.9460  0.8766
   87SOPE  C312 8224  -0.338   0.322   3.800 -0.0639  0.1274  0.6537
   87SOPE  H12X 8225  -0.413   0.264   3.741 -2.3389  0.9321  2.6223
   87SOPE  H12Y 8226  -0.365   0.430   3.802  1.8206  0.6450  2.7518
   87SOPE  C313 8227  -0.334   0.262   3.941 -0.4627 -0.2818  0.4918
   87SOPE  H13X 8228  -0.239   0.297   3.987  0.4561 -0.3269 -1.2863
   87SOPE  H13Y 8229  -0.315   0.153   3.937 -0.1098 -0.1893 -0.6587
   87SOPE  C314 8230  -0.451   0.298   4.039  0.1837 -0.0132  0.1230
   87SOPE  H14X 8231  -0.543   0.251   4.000 -0.2055 -0.3774  1.4547
   87SOPE  H14Y 8232  -0.468   0.408   4.042 -1.9600 -0.3429  2.0831
   87SOPE  C315 8233  -0.416   0.262   4.184  0.3050 -0.9094 -0.2994
   87SOPE  H15X 8234  -0.312   0.296   4.203  0.5807 -1.3355 -1.0065
   87SOPE  H15Y 8235  -0.436   0.156   4.210 -0.4410 -0.1921  2.3878
   87SOPE  C316 8236  -0.503   0.343   4.282 -0.6059 -0.0155 -0.1809
   87SOPE  H16X 8237  -0.509   0.451   4.253 -1.8420 -0.3083 -1.1241
   87SOPE  H16Y 8238  -0.466   0.331   4.386 -2.0904 -1.0440  0.2662
   87SOPE  C317 8239  -0.645   0.276   4.292  0.2313  0.1895 -0.2981
   87SOPE  H17X 8240  -0.625   0.169   4.314 -1.2652 -0.1288 -0.3840
   87SOPE  H17Y 8241  -0.689   0.281   4.190  1.7835 -2.5645 -1.2072
   87SOPE  C318 8242  -0.744   0.339   4.393 -0.3485 -0.0150  1.1886
   87SOPE  H18X 8243  -0.682   0.379   4.475  0.8335 -0.1960  0.4131
   87SOPE  H18Y 8244  -0.824   0.263   4.410 -0.4844 -1.0029 -2.7761
   87SOPE  H18Z 8245  -0.795   0.423   4.341  0.6897  0.1962  0.4772
   88SOPE     N 8246   0.405   0.727   1.923 -0.0191 -0.5071 -0.0388
   88SOPE   HN1 8247   0.321   0.676   1.956  0.0376 -0.9833 -0.6168
   88SOPE   HN2 8248   0.389   0.830   1.929  1.9329  0.0618 -2.7284
   88SOPE   HN3 8249   0.421   0.714   1.821 -1.4358 -1.4669 -0.1638
   88SOPE   C12 8250   0.518   0.690   2.014 -0.8624  0.0148 -0.8051
   88SOPE  H12A 8251   0.598   0.765   1.993 -0.6671  0.3416  0.9696
   88SOPE  H12B 8252   0.566   0.594   1.986  0.9872  1.1767 -1.8556
   88SOPE   C11 8253   0.472   0.719   2.161  0.4494 -0.0373  0.7474
   88SOPE  H11A 8254   0.439   0.825   2.160 -0.3437 -0.2409 -1.6739
   88SOPE  H11B 8255   0.556   0.706   2.232  0.9929  2.3512  0.6196
   88SOPE     P 8256   0.383   0.476   2.224 -0.0983 -0.4500  0.3834
   88SOPE   O13 8257   0.468   0.421   2.113  0.3404 -0.1062 -0.2299
   88SOPE   O14 8258   0.249   0.410   2.244 -0.6433  0.4297  0.4700
   88SOPE   O12 8259   0.361   0.632   2.193 -0.1125  0.0755 -0.6869
   88SOPE   O11 8260   0.466   0.471   2.354 -0.8894 -0.3069  0.6684
   88SOPE    C1 8261   0.439   0.559   2.460  0.5996 -0.0081 -0.6224
   88SOPE    HA 8262   0.390   0.654   2.429  2.8883  1.4665  0.0564
   88SOPE    HB 8263   0.536   0.592   2.503 -0.1597  0.6469  0.6364
   88SOPE    C2 8264   0.342   0.499   2.561  0.7246  0.2137 -0.3409
   88SOPE    HS 8265   0.238   0.529   2.536  1.1709  1.0698 -1.2862
   88SOPE   O21 8266   0.371   0.545   2.697  0.2641 -0.1191  0.4586
   88SOPE   C21 8267   0.360   0.676   2.718 -0.2791  0.1066 -0.1636
   88SOPE   O22 8268   0.318   0.753   2.635 -0.2266 -0.5744 -0.0054
   88SOPE   C22 8269   0.411   0.708   2.850 -0.3057  0.0226  0.0150
   88SOPE   H2R 8270   0.521   0.693   2.853 -0.4986 -1.6355 -0.5189
   88SOPE   H2S 8271   0.359   0.642   2.922 -1.9661  0.7808 -0.4464
   88SOPE    C3 8272   0.353   0.344   2.556  0.1257  0.3211  0.4836
   88SOPE    HX 8273   0.455   0.312   2.588  1.0387  3.4261  0.9874
   88SOPE    HY 8274   0.338   0.296   2.457 -1.2335 -0.8236  1.2099
   88SOPE   O31 8275   0.261   0.286   2.648  0.1577  0.2994  0.4484
   88SOPE   C31 8276   0.260   0.160   2.661 -0.1478  0.3170  0.4760
   88SOPE   O32 8277   0.342   0.085   2.613 -0.4118  0.7106 -0.1120
   88SOPE   C32 8278   0.137   0.116   2.743  0.2766 -0.2568  0.7064
   88SOPE   H2X 8279   0.134   0.005   2.746  1.0786 -0.2693  1.2140
   88SOPE   H2Y 8280   0.045   0.137   2.684  0.5185 -0.5710  0.2098
   88SOPE   C23 8281   0.365   0.855   2.873 -0.2166  0.1507 -0.2686
   88SOPE   H3R 8282   0.255   0.863   2.858 -0.5314  0.0852  1.6977
   88SOPE   H3S 8283   0.415   0.920   2.797  0.6782 -0.9955 -0.6844
   88SOPE   C24 8284   0.401   0.913   3.011 -0.1387  0.2564  0.2871
   88SOPE   H4R 8285   0.333   0.866   3.085 -0.5903  2.3035  1.2435
   88SOPE   H4S 8286   0.507   0.882   3.028 -0.2622  0.2832  1.1500
   88SOPE   C25 8287   0.377   1.062   3.027  0.2314 -0.1696 -0.3830
   88SOPE   H5R 8288   0.468   1.125   3.018  0.2856 -0.2701 -0.5309
   88SOPE   H5S 8289   0.303   1.090   2.949 -1.3535  1.8681  1.6802
   88SOPE   C26 8290   0.325   1.094   3.172 -1.0453  0.3327  0.0347
   88SOPE   H6R 8291   0.294   1.201   3.165 -0.0898  0.7970  2.2145
   88SOPE   H6S 8292   0.229   1.041   3.191 -1.4106  0.4445 -1.3799
   88SOPE   C27 8293   0.426   1.073   3.288 -0.0110  0.1262 -0.1007
   88SOPE   H7R 8294   0.457   0.966   3.285  0.2272  0.0798  2.0740
   88SOPE   H7S 8295   0.521   1.128   3.273  0.7010 -0.4102  1.9638
   88SOPE   C28 8296   0.359   1.094   3.433  0.1968  0.8004 -0.2792
   88SOPE   H8R 8297   0.276   1.020   3.437  0.2751  0.6958 -0.5390
   88SOPE   H8S 8298   0.435   1.064   3.509 -0.7170  1.3356  0.8771
   88SOPE   C29 8299   0.322   1.236   3.455  0.1728 -0.2385  0.0169
   88SOPE   H91 8300   0.267   1.287   3.374  0.7565  2.1634  1.0515
   88SOPE  C210 8301   0.340   1.314   3.565  0.1520 -0.2473  0.3697
   88SOPE  H101 8302   0.296   1.415   3.565 -0.5131 -0.5307  0.0575
   88SOPE  C211 8303   0.412   1.268   3.692 -0.0178 -0.1348 -0.0843
   88SOPE  H11R 8304   0.389   1.161   3.713 -2.0379  0.4748  1.1453
   88SOPE  H11S 8305   0.371   1.329   3.775 -0.8795 -0.3835 -0.3085
   88SOPE  C212 8306   0.570   1.279   3.670 -0.0895 -0.6629 -0.4708
   88SOPE  H12R 8307   0.594   1.384   3.643 -0.3104 -0.7468 -1.0156
   88SOPE  H12S 8308   0.605   1.214   3.586  2.5314  1.0991 -0.8859
   88SOPE  C213 8309   0.645   1.243   3.800  0.4224  0.4691  0.1794
   88SOPE  H13R 8310   0.732   1.177   3.778  0.5202  0.0645  1.6856
   88SOPE  H13S 8311   0.580   1.175   3.859 -0.1227  1.6520  0.9670
   88SOPE  C214 8312   0.689   1.374   3.874 -0.2329 -0.3901  0.4234
   88SOPE  H14R 8313   0.746   1.443   3.809  0.1667 -0.5950  0.5531
   88SOPE  H14S 8314   0.758   1.342   3.956  1.0277  1.7247  0.2514
   88SOPE  C215 8315   0.574   1.449   3.951  0.0878  0.1400 -0.1878
   88SOPE  H15R 8316   0.502   1.373   3.988  0.1165 -0.5177 -1.4337
   88SOPE  H15S 8317   0.511   1.514   3.887  1.9569  2.4935  0.2054
   88SOPE  C216 8318   0.631   1.532   4.067 -0.1986 -0.1238  0.0024
   88SOPE  H16R 8319   0.721   1.582   4.025  0.3676  0.3669  1.6900
   88SOPE  H16S 8320   0.650   1.458   4.148 -0.1985 -0.9643 -0.7584
   88SOPE  C217 8321   0.524   1.637   4.113  0.0799  0.5279 -0.2158
   88SOPE  H17R 8322   0.424   1.591   4.132  1.3154 -2.5604 -0.7251
   88SOPE  H17S 8323   0.511   1.701   4.023  1.0934 -0.4021 -1.0477
   88SOPE  C218 8324   0.564   1.711   4.241 -0.5247 -0.4536  0.3037
   88SOPE  H18R 8325   0.502   1.803   4.246  1.9453  1.4496 -1.3935
   88SOPE  H18S 8326   0.669   1.747   4.231 -0.3249 -0.8411  0.9528
   88SOPE  H18T 8327   0.547   1.650   4.332  0.9598  1.8444  2.2659
   88SOPE   C33 8328   0.124   0.178   2.880 -0.4208 -0.0841  0.0471
   88SOPE   H3X 8329   0.035   0.146   2.937 -1.5813  1.6453 -0.7159
   88SOPE   H3Y 8330   0.120   0.288   2.870  0.8171 -0.0237  0.0612
   88SOPE   C34 8331   0.235   0.129   2.980  0.1470 -0.7920 -0.6560
   88SOPE   H4X 8332   0.339   0.142   2.942 -1.0751  0.7882 -3.8533
   88SOPE   H4Y 8333   0.220   0.020   2.994  0.3885 -0.5024  2.4558
   88SOPE   C35 8334   0.228   0.188   3.121  0.8126 -0.0782 -0.0363
   88SOPE   H5X 8335   0.246   0.297   3.111 -1.1094  0.5703  2.6495
   88SOPE   H5Y 8336   0.318   0.143   3.169  0.3187 -0.5273  0.4793
   88SOPE   C36 8337   0.097   0.161   3.202  0.2759  0.4298 -0.6221
   88SOPE   H6X 8338   0.073   0.053   3.193 -0.5078  0.3723  1.5765
   88SOPE   H6Y 8339   0.012   0.206   3.147 -1.1800 -2.9359 -1.4143
   88SOPE   C37 8340   0.107   0.207   3.344 -0.2454 -0.4599 -0.4095
   88SOPE   H7X 8341   0.003   0.193   3.381 -0.3580 -0.8806 -0.8797
   88SOPE   H7Y 8342   0.128   0.316   3.351  1.1504 -0.6863 -0.8000
   88SOPE   C38 8343   0.209   0.132   3.432 -0.0998 -0.0636 -0.0320
   88SOPE   H8X 8344   0.316   0.134   3.400 -0.3656 -2.3346 -1.2520
   88SOPE   H8Y 8345   0.180   0.027   3.415 -1.5244 -0.0439  1.9364
   88SOPE   C39 8346   0.208   0.177   3.582  0.6251 -0.2467 -0.4704
   88SOPE   H9X 8347   0.291   0.119   3.628 -0.4610 -1.8426 -0.4285
   88SOPE   H9Y 8348   0.111   0.140   3.621  0.8188 -0.0573  0.2086
   88SOPE  C310 8349   0.238   0.327   3.605 -0.1670 -0.8138 -0.1976
   88SOPE  H10X 8350   0.192   0.395   3.530 -1.2362 -0.5657  0.6690
   88SOPE  H10Y 8351   0.349   0.331   3.595 -0.2474  0.7316 -0.8242
   88SOPE  C311 8352   0.194   0.361   3.752  0.3374  0.5644 -0.6825
   88SOPE  H11X 8353   0.251   0.298   3.824 -0.7061 -1.2595 -1.3773
   88SOPE  H11Y 8354   0.086   0.334   3.755  0.6700 -1.0405 -1.8698
   88SOPE  C312 8355   0.215   0.506   3.772  0.1569  0.3442  0.1667
   88SOPE  H12X 8356   0.180   0.520   3.877 -1.3698  3.0799 -0.6121
   88SOPE  H12Y 8357   0.144   0.571   3.716 -0.7311 -0.9703 -0.2763
   88SOPE  C313 8358   0.361   0.543   3.763 -0.1663 -0.0030  0.2872
   88SOPE  H13X 8359   0.389   0.550   3.656  0.4257  1.1307  0.5028
   88SOPE  H13Y 8360   0.419   0.467   3.819  0.2069 -1.1441 -1.5907
   88SOPE  C314 8361   0.386   0.686   3.826  0.0821  0.6384  0.1382
   88SOPE  H14X 8362   0.344   0.763   3.759 -2.5441  0.1569  1.0941
   88SOPE  H14Y 8363   0.496   0.696   3.837  0.3228  1.2480 -2.2465
   88SOPE  C315 8364   0.327   0.703   3.971 -0.0641 -0.2466 -0.2107
   88SOPE  H15X 8365   0.335   0.604   4.020  1.4241 -0.0120  0.0580
   88SOPE  H15Y 8366   0.216   0.709   3.968 -0.1252 -1.3173 -0.8464
   88SOPE  C316 8367   0.377   0.824   4.053 -0.2076  0.9898  0.2225
   88SOPE  H16X 8368   0.486   0.805   4.060 -0.0773  1.4328 -0.5299
   88SOPE  H16Y 8369   0.327   0.821   4.153 -0.1620 -0.4785  0.2130
   88SOPE  C317 8370   0.348   0.954   3.972 -0.1291  0.1996  0.1362
   88SOPE  H17X 8371   0.249   0.940   3.923 -0.1973  0.4055  0.2134
   88SOPE  H17Y 8372   0.421   0.970   3.890  0.0137  0.0354  0.2301
   88SOPE  C318 8373   0.356   1.082   4.055 -0.2617  0.3196  0.2952
   88SOPE  H18X 8374   0.331   1.170   3.992 -0.4548  0.1027  0.0677
   88SOPE  H18Y 8375   0.457   1.099   4.098  0.2973  3.3910 -1.8043
   88SOPE  H18Z 8376   0.282   1.075   4.137 -0.0148 -1.4315  0.4077
   89SAPC     N 8377   6.215   2.531   6.474 -0.0842  0.1019  0.5842
   89SAPC   C12 8378   6.192   2.617   6.351  0.6708  0.7263  0.1131
   89SAPC  H12A 8379   6.207   2.569   6.255 -0.3838 -0.0691  0.3247
   89SAPC  H12B 8380   6.281   2.678   6.350  0.6029  0.8286 -0.7545
   89SAPC   C13 8381   6.099   2.439   6.505  0.0406  0.2143  0.5124
   89SAPC  H13A 8382   6.069   2.374   6.424 -1.9920 -0.3058  1.6063
   89SAPC  H13B 8383   6.111   2.394   6.603  2.0409  1.4980  0.9235
   89SAPC  H13C 8384   6.018   2.510   6.515 -0.7921 -0.6650  0.2079
   89SAPC   C14 8385   6.341   2.460   6.456 -0.1019 -0.5039 -0.1410
   89SAPC  H14A 8386   6.425   2.528   6.451 -0.4746  0.0295  0.7815
   89SAPC  H14B 8387   6.364   2.403   6.545  1.8391 -0.0174 -0.2729
   89SAPC  H14C 8388   6.337   2.380   6.383 -2.5642  0.0610 -0.7123
   89SAPC   C15 8389   6.234   2.612   6.601  0.5054 -0.1631  0.3639
   89SAPC  H15A 8390   6.155   2.685   6.608 -0.0906 -0.8041  0.4689
   89SAPC  H15B 8391   6.214   2.549   6.687  0.4390 -0.1677  0.3446
   89SAPC  H15C 8392   6.330   2.661   6.597  0.5881 -0.3412  0.1286
   89SAPC   C11 8393   6.067   2.703   6.346 -0.0351  0.9535 -0.0134
   89SAPC  H11A 8394   6.080   2.772   6.260  1.0924 -2.0775 -2.4375
   89SAPC  H11B 8395   6.072   2.762   6.440 -1.7594  0.5526  0.3571
   89SAPC     P 8396   5.883   2.573   6.214 -0.1332 -0.3665 -0.2173
   89SAPC   O13 8397   5.908   2.425   6.226 -0.3809 -0.0748  0.1777
   89SAPC   O14 8398   5.740   2.611   6.200 -0.4540  1.0130  0.3298
   89SAPC   O12 8399   5.943   2.642   6.348  0.6573 -0.7819  0.2740
   89SAPC   O11 8400   5.967   2.641   6.099  0.4366  0.1894  0.0118
   89SAPC    C1 8401   6.079   2.577   6.028  0.9996 -0.8358 -0.5860
   89SAPC    HA 8402   6.170   2.619   6.075 -0.6076 -0.1426  2.1537
   89SAPC    HB 8403   6.071   2.467   6.040  0.0535 -0.5645  1.7520
   89SAPC    C2 8404   6.079   2.608   5.874  0.7751 -0.0763 -1.0235
   89SAPC    HS 8405   6.092   2.714   5.844  0.8779  0.4384  0.7475
   89SAPC   O21 8406   5.960   2.553   5.822 -0.1467 -0.4138  0.2463
   89SAPC   C21 8407   5.870   2.647   5.820 -0.4889  0.8539  0.1323
   89SAPC   O22 8408   5.882   2.764   5.857 -0.4386  0.5831  0.4356
   89SAPC   C22 8409   5.742   2.601   5.753  0.2025  0.2366 -0.2123
   89SAPC   H2R 8410   5.660   2.657   5.803  0.2126  1.3546 -1.4081
   89SAPC   H2S 8411   5.749   2.636   5.648  0.9510 -1.3153 -0.7130
   89SAPC    C3 8412   6.213   2.542   5.815 -0.4487 -0.2086 -0.0618
   89SAPC    HX 8413   6.208   2.437   5.848  0.1859 -0.5993 -1.1540
   89SAPC    HY 8414   6.301   2.589   5.864 -2.6969  1.3211  2.7554
   89SAPC   O31 8415   6.218   2.562   5.669  0.8850 -0.1246 -0.1751
   89SAPC   C31 8416   6.171   2.458   5.605  0.1967 -0.3970  0.2068
   89SAPC   O32 8417   6.151   2.350   5.658  0.6797 -0.0947 -0.6516
   89SAPC   C32 8418   6.152   2.484   5.455  0.5721 -0.5782  0.1905
   89SAPC   H2X 8419   6.254   2.517   5.424  0.4698 -0.2360  0.2106
   89SAPC   H2Y 8420   6.095   2.580   5.454  1.8531  0.2349  1.1773
   89SAPC   C23 8421   5.707   2.448   5.770  0.1018  0.1031 -0.3951
   89SAPC   H3R 8422   5.598   2.432   5.757 -0.3796  0.3871  2.6942
   89SAPC   H3S 8423   5.725   2.416   5.875  0.8426  4.2341  0.9317
   89SAPC   C24 8424   5.778   2.363   5.668  0.2166  0.4813  0.0395
   89SAPC   H4R 8425   5.887   2.382   5.671  0.2159  1.2444 -2.4174
   89SAPC   H4S 8426   5.749   2.400   5.568 -2.5262 -0.8076  0.2394
   89SAPC   C25 8427   5.739   2.220   5.689  0.1905  0.3060  0.3925
   89SAPC   H5R 8428   5.745   2.188   5.795 -2.9208 -1.4748  0.1582
   89SAPC   C26 8429   5.683   2.139   5.597 -0.0356 -0.6088  0.2627
   89SAPC   H6R 8430   5.640   2.044   5.631 -1.4733 -0.1455 -0.1927
   89SAPC   C27 8431   5.664   2.167   5.449 -0.1176  0.3326 -0.7109
   89SAPC   H7R 8432   5.718   2.085   5.398 -3.1714 -0.7243 -2.4791
   89SAPC   H7S 8433   5.728   2.254   5.421 -0.5395  0.9381  0.1222
   89SAPC   C28 8434   5.527   2.210   5.405  0.0760 -0.3279  0.8193
   89SAPC   H8R 8435   5.446   2.137   5.419 -0.9563  0.4992 -0.5982
   89SAPC   C29 8436   5.491   2.324   5.342 -0.2012  0.4525 -0.3219
   89SAPC   H9R 8437   5.389   2.333   5.303  0.3046  1.3920 -1.4798
   89SAPC  C210 8438   5.576   2.444   5.320 -0.0652  0.7036 -0.6332
   89SAPC  H10R 8439   5.602   2.447   5.212 -1.4276  2.1275 -0.9516
   89SAPC  H10S 8440   5.666   2.442   5.385  0.8233 -0.5631 -1.8403
   89SAPC  C211 8441   5.501   2.569   5.345  0.1089 -0.8498 -0.2481
   89SAPC  H11R 8442   5.487   2.602   5.449 -1.0226 -0.6333 -0.4490
   89SAPC  C212 8443   5.450   2.656   5.249 -0.4251  0.3188  0.3406
   89SAPC  H12R 8444   5.406   2.753   5.278 -0.3946  0.5678 -0.4333
   89SAPC  C213 8445   5.458   2.631   5.099  0.9436 -0.1612  0.1534
   89SAPC  H13R 8446   5.418   2.531   5.071 -2.7914  1.2973 -0.4243
   89SAPC  H13S 8447   5.566   2.619   5.078  0.6744  0.0583 -1.5061
   89SAPC  C214 8448   5.397   2.729   5.001 -0.1894 -0.2510 -0.3326
   89SAPC  H14R 8449   5.474   2.787   4.947 -0.3297 -0.3422 -0.6335
   89SAPC  C215 8450   5.269   2.768   4.990 -0.2097 -0.3711  0.3785
   89SAPC  H15R 8451   5.244   2.845   4.915  1.9581 -0.1617 -0.2058
   89SAPC  C216 8452   5.161   2.713   5.068  0.8172  0.5544 -0.1125
   89SAPC  H16R 8453   5.204   2.626   5.121 -0.3512 -0.1475 -0.2886
   89SAPC  H16S 8454   5.084   2.680   4.995 -0.1160 -0.1335  1.1373
   89SAPC  C217 8455   5.074   2.799   5.154  1.0151 -0.0380 -0.1844
   89SAPC  H17R 8456   5.147   2.837   5.229  0.9195  1.4874 -0.8262
   89SAPC  H17S 8457   4.991   2.746   5.205 -0.1416  0.4856 -1.4588
   89SAPC  C218 8458   5.007   2.917   5.076 -0.2068  0.1923  0.0257
   89SAPC  H18R 8459   4.934   2.881   5.000 -0.8495  2.8339 -0.7294
   89SAPC  H18S 8460   5.092   2.967   5.025 -0.1200  2.2621  2.0318
   89SAPC  C219 8461   4.911   3.002   5.166  0.0377  0.2306 -0.3890
   89SAPC  H19R 8462   4.843   2.924   5.208  0.7112 -0.3765 -0.4071
   89SAPC  H19S 8463   4.843   3.063   5.103  1.2164 -0.0017 -1.9341
   89SAPC  C220 8464   4.989   3.076   5.272  0.0959  0.2540 -0.1238
   89SAPC  H20R 8465   5.027   3.169   5.226 -0.3043 -0.0442 -1.0821
   89SAPC  H20S 8466   5.071   3.010   5.309  1.3689  1.5145 -0.6263
   89SAPC  H20T 8467   4.924   3.106   5.356  0.6808 -0.4550  0.6029
   89SAPC   C33 8468   6.102   2.366   5.380 -0.4485  0.1474  0.0616
   89SAPC   H3X 8469   6.012   2.327   5.431  0.1069  1.0356  1.8312
   89SAPC   H3Y 8470   6.186   2.294   5.393 -1.1123 -0.3768  1.7547
   89SAPC   C34 8471   6.080   2.392   5.228 -0.3558 -0.4935  0.3536
   89SAPC   H4X 8472   6.172   2.444   5.193 -0.5341 -1.0319 -0.9653
   89SAPC   H4Y 8473   6.003   2.470   5.212  0.8801  0.4259 -1.4823
   89SAPC   C35 8474   6.047   2.257   5.145 -0.7103  0.3594 -0.7246
   89SAPC   H5X 8475   6.131   2.185   5.152 -0.5722  0.2395 -2.9066
   89SAPC   H5Y 8476   6.040   2.295   5.041  0.1125  0.8300 -0.6167
   89SAPC   C36 8477   5.915   2.198   5.185 -0.4136  0.4612  0.2372
   89SAPC   H6X 8478   5.841   2.280   5.177 -0.6353  0.2964  0.5708
   89SAPC   H6Y 8479   5.913   2.144   5.282 -1.2098 -1.9129 -1.0039
   89SAPC   C37 8480   5.867   2.097   5.071  0.5282  0.5101 -0.4116
   89SAPC   H7X 8481   5.936   2.014   5.042 -1.9571 -1.7928 -0.1450
   89SAPC   H7Y 8482   5.837   2.157   4.983 -0.8630  2.0257  1.0253
   89SAPC   C38 8483   5.743   2.026   5.121  0.0724  0.3636 -0.4010
   89SAPC   H8X 8484   5.672   2.109   5.144 -0.9688 -0.7860  0.6299
   89SAPC   H8Y 8485   5.761   1.962   5.210 -1.5800 -0.6201 -0.7339
   89SAPC   C39 8486   5.673   1.931   5.014 -0.2439 -0.7377  0.2704
   89SAPC   H9X 8487   5.734   1.839   5.003 -0.4908 -0.9118  0.3638
   89SAPC   H9Y 8488   5.680   1.971   4.910 -0.5474  0.6271  0.7488
   89SAPC  C310 8489   5.524   1.912   5.031  0.6607  0.4777 -0.8487
   89SAPC  H10X 8490   5.463   2.002   5.010  0.1635  0.1157 -0.9628
   89SAPC  H10Y 8491   5.501   1.879   5.134 -1.9396 -2.5141 -2.2092
   89SAPC  C311 8492   5.458   1.795   4.948  0.9219  0.0787  0.1968
   89SAPC  H11X 8493   5.351   1.821   4.932  1.5058  1.9479 -1.0144
   89SAPC  H11Y 8494   5.479   1.703   5.006  1.4660  0.0433 -0.0522
   89SAPC  C312 8495   5.523   1.763   4.809  0.6208  0.1190  0.1162
   89SAPC  H12X 8496   5.633   1.752   4.817  0.7617  0.9541 -0.5076
   89SAPC  H12Y 8497   5.511   1.848   4.739  1.0015  1.1868  1.3121
   89SAPC  C313 8498   5.475   1.646   4.733 -0.3736  0.7599 -0.1328
   89SAPC  H13X 8499   5.370   1.676   4.711 -0.1281 -0.3651 -3.3642
   89SAPC  H13Y 8500   5.469   1.553   4.792  1.0759  1.6507  1.5204
   89SAPC  C314 8501   5.543   1.620   4.598  0.5254  0.3352 -0.3500
   89SAPC  H14X 8502   5.645   1.592   4.632 -0.2081 -1.1148  0.7436
   89SAPC  H14Y 8503   5.551   1.719   4.547 -0.3540  1.0471  0.8456
   89SAPC  C315 8504   5.479   1.514   4.511 -0.4893 -0.0276  0.0319
   89SAPC  H15X 8505   5.369   1.517   4.497 -0.4409 -3.2208 -2.1120
   89SAPC  H15Y 8506   5.486   1.413   4.557 -1.5606 -0.8679 -1.5444
   89SAPC  C316 8507   5.538   1.512   4.368 -0.5964 -0.2496 -0.5998
   89SAPC  H16X 8508   5.642   1.476   4.380 -0.2424  1.1894  1.0612
   89SAPC  H16Y 8509   5.540   1.611   4.319  1.0220 -0.9196 -1.9785
   89SAPC  C317 8510   5.462   1.423   4.270 -0.0576 -0.2244 -0.0207
   89SAPC  H17X 8511   5.357   1.460   4.267  0.1241  0.2321 -0.9392
   89SAPC  H17Y 8512   5.467   1.320   4.310  2.1422 -0.4311 -0.7272
   89SAPC  C318 8513   5.525   1.420   4.128 -0.2444 -0.2983 -0.7922
   89SAPC  H18X 8514   5.523   1.522   4.083  1.7007 -0.0030 -0.2810
   89SAPC  H18Y 8515   5.472   1.348   4.062  2.1119 -2.7091 -0.2118
   89SAPC  H18Z 8516   5.635   1.403   4.126  0.2183  1.2137  3.1078
   90SAPC     N 8517   2.547   6.069   6.375  0.0753  0.1003  1.1641
   90SAPC   C12 8518   2.423   6.056   6.284  0.0443  0.3295  0.8366
   90SAPC  H12A 8519   2.377   5.966   6.321  1.0751  0.1872  1.8411
   90SAPC  H12B 8520   2.452   6.037   6.182 -1.7032 -1.9242  0.6882
   90SAPC   C13 8521   2.620   6.196   6.349  1.0587  0.3131  0.0673
   90SAPC  H13A 8522   2.609   6.224   6.246  0.1592  0.0759  0.0930
   90SAPC  H13B 8523   2.559   6.265   6.406  0.2601 -0.1802 -0.1888
   90SAPC  H13C 8524   2.727   6.189   6.359  1.8230 -0.1844 -5.4199
   90SAPC   C14 8525   2.496   6.068   6.523 -0.4592  0.1070  0.0614
   90SAPC  H14A 8526   2.447   6.162   6.540 -0.0541  0.1516  1.0557
   90SAPC  H14B 8527   2.434   5.980   6.532 -0.1447 -0.5839 -3.1468
   90SAPC  H14C 8528   2.579   6.050   6.590 -2.0556 -3.4234  1.3522
   90SAPC   C15 8529   2.635   5.949   6.364 -0.3641  0.3108 -0.5462
   90SAPC  H15A 8530   2.581   5.861   6.396  0.4417 -0.6360 -1.6895
   90SAPC  H15B 8531   2.666   5.932   6.262 -0.4777 -2.9140 -0.1517
   90SAPC  H15C 8532   2.721   5.953   6.429  1.2144 -0.9316 -2.4174
   90SAPC   C11 8533   2.313   6.172   6.272 -0.0108  0.5629  0.3905
   90SAPC  H11A 8534   2.230   6.135   6.207 -0.3130 -1.1692  1.6896
   90SAPC  H11B 8535   2.356   6.254   6.211 -0.5683 -0.3146 -1.2408
   90SAPC     P 8536   2.278   6.356   6.452  0.1140 -0.6239 -0.2983
   90SAPC   O13 8537   2.173   6.373   6.555  0.4878  0.3301  0.7291
   90SAPC   O14 8538   2.416   6.397   6.479 -0.1750 -0.1790  1.0319
   90SAPC   O12 8539   2.267   6.211   6.398  0.4608  0.0125  0.3393
   90SAPC   O11 8540   2.229   6.428   6.326  0.1813  0.8086  0.2313
   90SAPC    C1 8541   2.116   6.514   6.315 -0.8018  0.2499 -0.0262
   90SAPC    HA 8542   2.097   6.582   6.401 -1.9463 -0.1355  0.0442
   90SAPC    HB 8543   2.129   6.575   6.223  0.5156  0.1953  0.1118
   90SAPC    C2 8544   1.983   6.429   6.291 -0.3087 -0.3469  0.2080
   90SAPC    HS 8545   1.985   6.363   6.381  1.0122  1.1993  1.3620
   90SAPC   O21 8546   1.991   6.357   6.168  0.6474  0.0691 -0.1602
   90SAPC   C21 8547   1.929   6.246   6.151  0.4243 -0.0059  0.5109
   90SAPC   O22 8548   1.858   6.187   6.234  0.4988  0.2956 -0.1836
   90SAPC   C22 8549   1.953   6.187   6.013  0.2847  0.3530 -0.5146
   90SAPC   H2R 8550   2.002   6.269   5.956  1.2830  0.4912  0.5065
   90SAPC   H2S 8551   2.030   6.109   6.029 -1.3340 -1.2753 -0.3433
   90SAPC    C3 8552   1.863   6.526   6.293 -0.0114  0.2890  0.6507
   90SAPC    HX 8553   1.842   6.554   6.398  1.1433 -0.8743  1.2146
   90SAPC    HY 8554   1.771   6.470   6.266 -0.1807  0.5008  0.7919
   90SAPC   O31 8555   1.890   6.635   6.202  0.8367  0.2518 -0.2991
   90SAPC   C31 8556   1.874   6.608   6.072  0.6200 -0.0868 -0.5229
   90SAPC   O32 8557   1.833   6.506   6.019 -0.4152 -0.6357 -0.6875
   90SAPC   C32 8558   1.915   6.738   5.994  0.0523 -0.3499 -0.5148
   90SAPC   H2X 8559   2.024   6.753   6.009  0.4284 -3.0175 -0.1233
   90SAPC   H2Y 8560   1.853   6.821   6.034 -0.3657 -0.4859 -0.8697
   90SAPC   C23 8561   1.840   6.145   5.925 -0.0881  0.1334 -0.0501
   90SAPC   H3R 8562   1.779   6.238   5.915 -0.2525 -0.0782 -1.2192
   90SAPC   H3S 8563   1.782   6.069   5.981  2.6227 -1.1625  1.1702
   90SAPC   C24 8564   1.871   6.104   5.778 -0.3747 -0.0040  0.3360
   90SAPC   H4R 8565   1.903   5.997   5.771  1.7037  0.6254 -0.5751
   90SAPC   H4S 8566   1.950   6.177   5.751 -0.2145  0.2913  1.5275
   90SAPC   C25 8567   1.742   6.125   5.704 -0.2536  0.8237 -0.5735
   90SAPC   H5R 8568   1.665   6.058   5.745  2.2720 -0.4330  2.4902
   90SAPC   C26 8569   1.704   6.217   5.615  0.1481 -0.1329 -0.3002
   90SAPC   H6R 8570   1.601   6.221   5.578 -0.8897  0.2077  2.4422
   90SAPC   C27 8571   1.789   6.326   5.560 -0.2065  0.1404  0.0876
   90SAPC   H7R 8572   1.892   6.291   5.536  0.4833  2.1520 -0.0632
   90SAPC   H7S 8573   1.815   6.408   5.630  3.5908 -0.3559 -0.5104
   90SAPC   C28 8574   1.730   6.387   5.434 -0.0539 -0.2107 -0.3880
   90SAPC   H8R 8575   1.690   6.489   5.443 -2.9934 -1.2106 -1.2179
   90SAPC   C29 8576   1.699   6.333   5.318 -0.3067 -0.1791 -0.1247
   90SAPC   H9R 8577   1.658   6.398   5.240 -2.0760  0.5940  1.3701
   90SAPC  C210 8578   1.735   6.194   5.271  0.0204 -0.1623  0.2046
   90SAPC  H10R 8579   1.683   6.178   5.174  0.2523  1.9240 -0.3228
   90SAPC  H10S 8580   1.705   6.114   5.342  0.8396  1.1465  2.1330
   90SAPC  C211 8581   1.880   6.174   5.246 -0.1528  0.4749 -0.4167
   90SAPC  H11R 8582   1.951   6.251   5.279 -0.9006 -0.5606  4.3446
   90SAPC  C212 8583   1.927   6.073   5.177 -0.8408  0.5297  0.1812
   90SAPC  H12R 8584   2.029   6.067   5.135 -2.1028 -2.0342 -2.9279
   90SAPC  C213 8585   1.840   5.960   5.121 -0.4418 -0.4893 -0.6884
   90SAPC  H13R 8586   1.810   5.988   5.017 -4.3966  1.4872  0.7965
   90SAPC  H13S 8587   1.741   5.961   5.170 -0.4752 -0.2158 -0.7560
   90SAPC  C214 8588   1.903   5.834   5.134 -0.5789  1.1286  0.6597
   90SAPC  H14R 8589   1.927   5.792   5.035 -0.8996  0.4759  0.8515
   90SAPC  C215 8590   1.906   5.755   5.237 -0.1811  0.2017  0.0582
   90SAPC  H15R 8591   1.945   5.652   5.236 -2.8369 -0.9384  2.0080
   90SAPC  C216 8592   1.860   5.794   5.377 -1.1096  0.0619 -0.0265
   90SAPC  H16R 8593   1.751   5.814   5.376 -1.0741  0.3171  0.5859
   90SAPC  H16S 8594   1.907   5.887   5.416 -0.7806 -0.5698  1.1131
   90SAPC  C217 8595   1.882   5.688   5.490  0.3880 -0.4525  0.3578
   90SAPC  H17R 8596   1.989   5.660   5.492  1.0080  1.7510  1.4162
   90SAPC  H17S 8597   1.838   5.586   5.481  1.8063 -0.9424 -1.7290
   90SAPC  C218 8598   1.861   5.758   5.626 -0.1923  0.3982  0.2024
   90SAPC  H18R 8599   1.759   5.802   5.623  0.6180  2.4085  0.4547
   90SAPC  H18S 8600   1.932   5.842   5.640 -1.3180  1.5228 -0.6613
   90SAPC  C219 8601   1.879   5.656   5.739 -0.9604 -0.3915  1.1953
   90SAPC  H19R 8602   1.980   5.614   5.718 -0.7236  1.0958 -1.0463
   90SAPC  H19S 8603   1.804   5.576   5.720 -1.9704  0.5991  0.9629
   90SAPC  C220 8604   1.883   5.716   5.876 -0.2650  0.3886  0.4303
   90SAPC  H20R 8605   1.904   5.641   5.955 -0.9864  3.0063  3.3184
   90SAPC  H20S 8606   1.779   5.749   5.901 -0.5126 -0.9493  1.2612
   90SAPC  H20T 8607   1.957   5.798   5.870  0.7638 -0.5675 -5.5152
   90SAPC   C33 8608   1.883   6.734   5.834 -0.4232 -0.1452 -0.0324
   90SAPC   H3X 8609   1.773   6.724   5.823 -0.5501 -2.9641  2.5568
   90SAPC   H3Y 8610   1.934   6.644   5.795  1.3399 -0.4373  2.6644
   90SAPC   C34 8611   1.941   6.855   5.766 -0.7423  0.8015  0.1197
   90SAPC   H4X 8612   2.052   6.857   5.780 -0.8929 -0.0377  1.5671
   90SAPC   H4Y 8613   1.900   6.949   5.809  0.4715  1.8235 -0.8704
   90SAPC   C35 8614   1.900   6.853   5.617  0.3412 -0.2316 -0.0617
   90SAPC   H5X 8615   1.790   6.865   5.611  0.3194  2.8314  3.2304
   90SAPC   H5Y 8616   1.931   6.757   5.569  0.1251 -0.6996  0.7270
   90SAPC   C36 8617   1.952   6.974   5.537 -1.0137 -0.4907 -0.6292
   90SAPC   H6X 8618   2.060   6.952   5.531 -0.4750  0.8441  2.4337
   90SAPC   H6Y 8619   1.942   7.067   5.596  0.5413  0.4654 -1.7820
   90SAPC   C37 8620   1.884   6.990   5.397 -0.6393 -0.7665 -0.2028
   90SAPC   H7X 8621   1.918   7.085   5.351  1.5112 -0.9599  0.8513
   90SAPC   H7Y 8622   1.774   6.989   5.414 -0.5366  0.0193  0.6264
   90SAPC   C38 8623   1.913   6.876   5.303 -0.0525  0.2173  0.0975
   90SAPC   H8X 8624   1.833   6.800   5.315 -0.2000  0.3352 -0.1152
   90SAPC   H8Y 8625   2.011   6.828   5.320 -0.3234 -1.3591 -2.1917
   90SAPC   C39 8626   1.928   6.929   5.160  0.0086 -0.1160  0.8088
   90SAPC   H9X 8627   2.030   6.971   5.147 -0.6597  1.1507 -0.7912
   90SAPC   H9Y 8628   1.856   7.011   5.139  1.6397  1.4184  1.0288
   90SAPC  C310 8629   1.900   6.822   5.051  0.0702  0.5256  0.6835
   90SAPC  H10X 8630   1.793   6.796   5.061 -0.2134  2.2104  3.2345
   90SAPC  H10Y 8631   1.959   6.730   5.067 -2.8160 -1.3182  1.4014
   90SAPC  C311 8632   1.934   6.879   4.912 -0.1562 -0.0102  0.1048
   90SAPC  H11X 8633   2.042   6.853   4.901  0.2341  0.5416  2.2985
   90SAPC  H11Y 8634   1.946   6.989   4.914 -0.2703 -0.0086  0.7261
   90SAPC  C312 8635   1.854   6.829   4.789 -0.1874  1.1149  0.9746
   90SAPC  H12X 8636   1.752   6.873   4.793 -1.0993 -0.9047  1.1408
   90SAPC  H12Y 8637   1.841   6.720   4.803 -0.7734  0.7943 -1.5851
   90SAPC  C313 8638   1.923   6.842   4.650 -0.2486  0.2576  0.9200
   90SAPC  H13X 8639   1.995   6.760   4.628  0.5406  1.2497 -0.2987
   90SAPC  H13Y 8640   1.987   6.930   4.671 -0.7075  0.4474  1.5495
   90SAPC  C314 8641   1.838   6.869   4.522  0.4995  0.4757 -1.2766
   90SAPC  H14X 8642   1.767   6.952   4.542  0.5088  0.1237  0.3742
   90SAPC  H14Y 8643   1.774   6.782   4.497  0.3214  0.0124  0.6521
   90SAPC  C315 8644   1.921   6.893   4.398 -0.3590 -0.3122 -0.5867
   90SAPC  H15X 8645   1.973   6.801   4.367  1.0925  0.4268 -0.4347
   90SAPC  H15Y 8646   2.001   6.969   4.413  0.6005 -1.4574  0.2879
   90SAPC  C316 8647   1.834   6.906   4.279 -0.6134  0.3402  0.6758
   90SAPC  H16X 8648   1.744   6.969   4.292 -1.0992  0.1728 -1.4430
   90SAPC  H16Y 8649   1.795   6.807   4.245 -0.3285  0.9389 -1.5978
   90SAPC  C317 8650   1.911   6.966   4.162 -0.2675  0.2807  0.4244
   90SAPC  H17X 8651   2.002   6.903   4.154 -0.7142 -0.6683  2.3455
   90SAPC  H17Y 8652   1.940   7.072   4.180  0.2271  0.3343 -0.6062
   90SAPC  C318 8653   1.825   6.972   4.037 -0.3600 -0.1435 -0.5825
   90SAPC  H18X 8654   1.738   7.038   4.060 -0.0304  0.5454 -1.2479
   90SAPC  H18Y 8655   1.781   6.876   4.004 -1.1439  1.1076 -3.5431
   90SAPC  H18Z 8656   1.870   7.010   3.943 -0.9211 -1.8541 -1.5822
   91SAPC     N 8657   0.161   6.392   6.602  0.4684  0.1974  0.0729
   91SAPC   C12 8658   0.284   6.470   6.659  0.2398 -0.5168  0.0784
   91SAPC  H12A 8659   0.328   6.421   6.744  0.9647 -1.7573 -0.9671
   91SAPC  H12B 8660   0.251   6.566   6.693  0.7935 -0.1419 -0.4198
   91SAPC   C13 8661   0.037   6.405   6.696 -0.7584  0.4572 -0.4480
   91SAPC  H13A 8662  -0.044   6.359   6.641  1.0015 -3.0591 -0.3993
   91SAPC  H13B 8663   0.045   6.352   6.790 -0.8903  0.2388 -0.5578
   91SAPC  H13C 8664   0.024   6.510   6.716  0.1908  0.4887  0.0436
   91SAPC   C14 8665   0.122   6.443   6.467  0.7937  0.2164 -0.0305
   91SAPC  H14A 8666   0.019   6.421   6.442  0.1482  2.8395 -0.0346
   91SAPC  H14B 8667   0.119   6.551   6.463 -0.2311  0.4969  4.2071
   91SAPC  H14C 8668   0.193   6.407   6.394  1.1940 -1.2042  1.0297
   91SAPC   C15 8669   0.193   6.242   6.595  0.1647  0.4714 -0.0052
   91SAPC  H15A 8670   0.279   6.220   6.533  1.9814  1.5174  2.0051
   91SAPC  H15B 8671   0.223   6.217   6.695 -1.7906 -0.0213  0.4951
   91SAPC  H15C 8672   0.100   6.196   6.565 -0.6179  1.0922  1.3871
   91SAPC   C11 8673   0.416   6.486   6.578  1.3197 -0.7180 -0.4354
   91SAPC  H11A 8674   0.480   6.553   6.639 -1.8402  2.5417 -0.3746
   91SAPC  H11B 8675   0.393   6.541   6.484  1.0723 -1.5521 -0.8736
   91SAPC     P 8676   0.550   6.279   6.668  0.0107 -0.1562 -0.3002
   91SAPC   O13 8677   0.616   6.367   6.767  0.6005 -0.7681  0.0805
   91SAPC   O14 8678   0.452   6.180   6.729  0.3099 -0.0199  0.1397
   91SAPC   O12 8679   0.474   6.356   6.550 -0.0750 -0.5169 -0.0969
   91SAPC   O11 8680   0.659   6.198   6.588  0.3720  1.1157  0.3174
   91SAPC    C1 8681   0.776   6.274   6.542 -0.0010  0.2983 -0.3774
   91SAPC    HA 8682   0.787   6.379   6.578 -1.2535  0.5481 -0.6729
   91SAPC    HB 8683   0.870   6.220   6.566 -1.2642 -1.2304  1.4558
   91SAPC    C2 8684   0.782   6.294   6.387  0.2989 -0.5395  0.1478
   91SAPC    HS 8685   0.888   6.320   6.365  0.2633 -0.0112  0.6042
   91SAPC   O21 8686   0.691   6.392   6.335 -0.1463  0.5710 -0.2379
   91SAPC   C21 8687   0.722   6.518   6.349 -0.0819  0.4922  0.0542
   91SAPC   O22 8688   0.825   6.560   6.403 -0.1918 -0.1997 -0.0522
   91SAPC   C22 8689   0.619   6.605   6.269  0.0068 -0.3271 -0.0303
   91SAPC   H2R 8690   0.677   6.624   6.176 -1.2064 -1.9124 -1.1656
   91SAPC   H2S 8691   0.528   6.544   6.249 -0.5722  0.6869 -0.5866
   91SAPC    C3 8692   0.759   6.164   6.302  0.2347 -0.4066 -0.0123
   91SAPC    HX 8693   0.651   6.138   6.300  0.6480 -2.2514 -0.5947
   91SAPC    HY 8694   0.826   6.085   6.342  2.3041  0.9069 -0.7239
   91SAPC   O31 8695   0.803   6.178   6.162  0.1791  0.2991 -0.1443
   91SAPC   C31 8696   0.727   6.246   6.077  0.1443 -0.0673  0.1841
   91SAPC   O32 8697   0.619   6.296   6.098  0.4230  0.4878 -0.4675
   91SAPC   C32 8698   0.799   6.252   5.937 -0.1617 -0.2295 -0.1705
   91SAPC   H2X 8699   0.799   6.147   5.901  3.3052  0.4530 -2.6399
   91SAPC   H2Y 8700   0.901   6.294   5.932  0.8594 -2.6528 -1.8438
   91SAPC   C23 8701   0.579   6.735   6.338 -0.1528  0.6128  0.4836
   91SAPC   H3R 8702   0.669   6.800   6.347 -0.3316  0.8559  0.5579
   91SAPC   H3S 8703   0.537   6.714   6.439 -1.1527  2.2409  0.4457
   91SAPC   C24 8704   0.486   6.823   6.259 -0.9268 -0.2073 -0.7432
   91SAPC   H4R 8705   0.544   6.852   6.169 -1.2893  0.3476 -0.8047
   91SAPC   H4S 8706   0.476   6.912   6.325  1.4914 -0.4404  0.0436
   91SAPC   C25 8707   0.358   6.761   6.222  0.0836  0.5610  0.0171
   91SAPC   H5R 8708   0.277   6.768   6.296 -1.5427 -0.3184 -1.5968
   91SAPC   C26 8709   0.341   6.688   6.109  0.3722 -0.4737  0.1406
   91SAPC   H6R 8710   0.243   6.639   6.097 -0.7152  1.6105  0.1064
   91SAPC   C27 8711   0.437   6.678   5.990  0.8579  0.2266  0.1321
   91SAPC   H7R 8712   0.541   6.692   6.026  1.1561 -2.5720  0.5744
   91SAPC   H7S 8713   0.410   6.751   5.910 -2.5090  0.1731  1.0571
   91SAPC   C28 8714   0.414   6.533   5.941 -0.9616 -0.2688 -0.0600
   91SAPC   H8R 8715   0.446   6.450   6.005 -1.1897 -2.5505 -2.7236
   91SAPC   C29 8716   0.366   6.508   5.818 -0.0021  0.7397 -0.9093
   91SAPC   H9R 8717   0.362   6.401   5.794 -0.5193  0.8111 -1.1549
   91SAPC  C210 8718   0.320   6.588   5.700  0.0588  0.0432 -0.5565
   91SAPC  H10R 8719   0.310   6.692   5.738  1.4995 -0.2635  0.7667
   91SAPC  H10S 8720   0.222   6.544   5.673 -0.1028 -0.8324  1.3100
   91SAPC  C211 8721   0.420   6.593   5.589  0.4561 -0.4082 -0.5467
   91SAPC  H11R 8722   0.525   6.585   5.620  0.4277 -0.5949 -0.4997
   91SAPC  C212 8723   0.396   6.614   5.459  0.2394  0.1343 -0.3375
   91SAPC  H12R 8724   0.479   6.626   5.388  0.2713 -1.4721 -0.6064
   91SAPC  C213 8725   0.264   6.638   5.394 -0.4203 -0.6368 -0.5158
   91SAPC  H13R 8726   0.280   6.696   5.301 -0.4773  1.6256  0.8098
   91SAPC  H13S 8727   0.207   6.696   5.470 -0.3739 -2.9734  1.4305
   91SAPC  C214 8728   0.198   6.509   5.365  0.3830  0.2828  0.5443
   91SAPC  H14R 8729   0.157   6.460   5.454 -0.0044 -0.4806 -0.0386
   91SAPC  C215 8730   0.167   6.467   5.242 -0.2511  0.0741 -0.2405
   91SAPC  H15R 8731   0.124   6.366   5.239  1.6550 -0.8126  0.3424
   91SAPC  C216 8732   0.198   6.537   5.107 -0.5075  0.0894  0.8909
   91SAPC  H16R 8733   0.232   6.642   5.108  1.3184 -0.3401 -2.2431
   91SAPC  H16S 8734   0.120   6.522   5.030  0.4826 -0.6892  0.0058
   91SAPC  C217 8735   0.307   6.457   5.036 -0.4014  0.9120  0.2347
   91SAPC  H17R 8736   0.269   6.355   5.012 -0.2895  1.4887 -2.6650
   91SAPC  H17S 8737   0.398   6.446   5.098  0.1888 -2.1242 -0.9999
   91SAPC  C218 8738   0.346   6.507   4.894 -0.0793 -0.0482  0.2547
   91SAPC  H18R 8739   0.445   6.462   4.869 -0.8167 -0.8717 -1.3223
   91SAPC  H18S 8740   0.364   6.615   4.916 -1.6792  0.2700  0.1070
   91SAPC  C219 8741   0.248   6.478   4.781 -0.2650 -0.6075  0.2265
   91SAPC  H19R 8742   0.154   6.537   4.793  0.1856  0.0648  0.5303
   91SAPC  H19S 8743   0.221   6.371   4.790  0.0839 -0.6357  0.9748
   91SAPC  C220 8744   0.312   6.510   4.645 -0.6031 -0.8044 -0.1540
   91SAPC  H20R 8745   0.239   6.499   4.562 -0.3213  0.8805 -0.6816
   91SAPC  H20S 8746   0.394   6.439   4.622 -1.2452 -2.0220  1.1996
   91SAPC  H20T 8747   0.344   6.617   4.641 -0.1565 -0.9242  0.2523
   91SAPC   C33 8748   0.717   6.334   5.830  0.5468 -0.4260 -0.8840
   91SAPC   H3X 8749   0.725   6.443   5.846 -0.8078 -0.5452  0.8992
   91SAPC   H3Y 8750   0.610   6.310   5.845 -0.0677  1.1290 -2.4711
   91SAPC   C34 8751   0.762   6.312   5.688  0.5501  0.0531  0.1900
   91SAPC   H4X 8752   0.757   6.207   5.652 -2.1171  0.9258 -2.3653
   91SAPC   H4Y 8753   0.865   6.352   5.699 -0.0152  1.3363  1.0878
   91SAPC   C35 8754   0.709   6.401   5.578 -0.2083 -0.0030 -0.1235
   91SAPC   H5X 8755   0.729   6.507   5.605 -0.8862 -0.1645  1.0952
   91SAPC   H5Y 8756   0.600   6.386   5.568 -0.4868  0.9218  1.2138
   91SAPC   C36 8757   0.769   6.370   5.441 -0.2098  0.3184 -0.5130
   91SAPC   H6X 8758   0.739   6.265   5.422  0.2109 -0.0377  0.7115
   91SAPC   H6Y 8759   0.877   6.384   5.463 -0.3312  1.0375 -0.3681
   91SAPC   C37 8760   0.715   6.464   5.334  0.5063 -0.6098  0.3059
   91SAPC   H7X 8761   0.740   6.570   5.351 -0.4625  0.0029 -1.7498
   91SAPC   H7Y 8762   0.604   6.450   5.329  0.6198 -1.0558 -2.2506
   91SAPC   C38 8763   0.771   6.435   5.197  0.4528  0.0359 -1.0414
   91SAPC   H8X 8764   0.758   6.327   5.175  0.3228 -0.0665 -0.4754
   91SAPC   H8Y 8765   0.882   6.446   5.198  0.4499  0.1108 -1.4214
   91SAPC   C39 8766   0.698   6.519   5.085  0.3200  0.2980  0.4307
   91SAPC   H9X 8767   0.722   6.627   5.078  1.1229  0.0318 -1.4656
   91SAPC   H9Y 8768   0.587   6.514   5.087  0.1894  2.5434  1.5244
   91SAPC  C310 8769   0.746   6.469   4.951  0.3450 -0.2184  0.0532
   91SAPC  H10X 8770   0.694   6.375   4.923 -0.6188  0.2118  0.3590
   91SAPC  H10Y 8771   0.857   6.465   4.954  0.4460  1.7646  0.5740
   91SAPC  C311 8772   0.724   6.576   4.842  0.0481  0.1038  0.0893
   91SAPC  H11X 8773   0.808   6.649   4.839  0.6590 -0.6079 -1.4814
   91SAPC  H11Y 8774   0.629   6.632   4.854 -0.5663 -0.9790  0.3866
   91SAPC  C312 8775   0.709   6.497   4.702  0.0495  0.4974 -0.1124
   91SAPC  H12X 8776   0.616   6.438   4.715 -0.0128  1.0512  2.5352
   91SAPC  H12Y 8777   0.792   6.425   4.685 -1.8013 -1.2617 -2.3654
   91SAPC  C313 8778   0.706   6.582   4.575 -0.8020  0.2532  0.1026
   91SAPC  H13X 8779   0.644   6.670   4.601 -2.1749 -1.2175  2.1965
   91SAPC  H13Y 8780   0.672   6.533   4.482  2.8563  1.9094 -2.3408
   91SAPC  C314 8781   0.846   6.634   4.532  0.1096 -0.3019 -0.6268
   91SAPC  H14X 8782   0.928   6.560   4.541 -0.2532 -0.5670  0.7044
   91SAPC  H14Y 8783   0.869   6.715   4.605  1.4630 -0.6466 -0.6337
   91SAPC  C315 8784   0.846   6.708   4.396  1.0495 -0.1951  0.6059
   91SAPC  H15X 8785   0.777   6.793   4.415 -0.8128 -0.9561 -2.2078
   91SAPC  H15Y 8786   0.798   6.638   4.325  0.3098  0.2875  0.6237
   91SAPC  C316 8787   0.984   6.760   4.357  1.2378  0.0035  0.0288
   91SAPC  H16X 8788   1.061   6.680   4.346  0.0127 -1.5828  2.1922
   91SAPC  H16Y 8789   1.026   6.825   4.437 -1.5089 -1.7615  3.1307
   91SAPC  C317 8790   0.977   6.834   4.223  0.0099 -0.1865 -0.9464
   91SAPC  H17X 8791   1.080   6.872   4.206  0.5236  0.6441  2.9522
   91SAPC  H17Y 8792   0.923   6.931   4.229  0.8109  0.3491 -2.1363
   91SAPC  C318 8793   0.920   6.758   4.098 -0.6773 -0.3101 -0.0488
   91SAPC  H18X 8794   0.809   6.749   4.105 -0.6302 -0.0334  1.6193
   91SAPC  H18Y 8795   0.981   6.665   4.099  3.4603  2.1400 -1.1240
   91SAPC  H18Z 8796   0.929   6.805   3.998 -4.1840 -2.6849 -1.6752
   92SAPC     N 8797   1.125   4.906   6.900  0.1406  0.2990 -0.2291
   92SAPC   C12 8798   1.023   4.960   6.802 -0.3613 -0.0659 -0.2082
   92SAPC  H12A 8799   1.070   4.978   6.706  1.2914  0.7636  0.7202
   92SAPC  H12B 8800   0.988   5.056   6.839 -0.2708 -0.3870  0.7160
   92SAPC   C13 8801   1.195   4.795   6.825  0.5890  0.4780 -0.4614
   92SAPC  H13A 8802   1.256   4.833   6.744 -1.5110  1.4725 -1.6610
   92SAPC  H13B 8803   1.248   4.726   6.889 -0.7584 -1.4308 -1.3168
   92SAPC  H13C 8804   1.122   4.734   6.776  0.9965 -1.7809  1.5656
   92SAPC   C14 8805   1.225   5.007   6.946 -0.6789  0.5763 -0.0992
   92SAPC  H14A 8806   1.272   5.040   6.855 -0.4428  0.5241  0.0033
   92SAPC  H14B 8807   1.175   5.090   6.994  0.3326 -0.2881  2.6701
   92SAPC  H14C 8808   1.297   4.963   7.013 -2.0654 -1.7227 -0.0111
   92SAPC   C15 8809   1.048   4.846   7.016 -0.3098  0.0109 -0.2235
   92SAPC  H15A 8810   0.965   4.781   6.990  0.6122 -1.7782  1.0131
   92SAPC  H15B 8811   1.106   4.782   7.081  3.1214  1.5945 -1.5159
   92SAPC  H15C 8812   1.003   4.922   7.078  1.6134  0.5794  0.5211
   92SAPC   C11 8813   0.898   4.867   6.771 -0.1554 -0.3747 -0.5823
   92SAPC  H11A 8814   0.822   4.927   6.716 -1.6147  1.1461  2.7998
   92SAPC  H11B 8815   0.837   4.842   6.861  0.0711  0.6450 -0.1296
   92SAPC     P 8816   0.982   4.721   6.564  0.5804  0.3947  0.1735
   92SAPC   O13 8817   1.131   4.747   6.548  0.6610 -0.2939 -0.6291
   92SAPC   O14 8818   0.934   4.589   6.513  0.3546  0.6108  0.1265
   92SAPC   O12 8819   0.929   4.744   6.708 -0.2528 -0.2896 -0.1691
   92SAPC   O11 8820   0.906   4.837   6.486  0.1459 -0.3177 -0.0404
   92SAPC    C1 8821   0.769   4.821   6.459  0.1709 -0.1362  0.6241
   92SAPC    HA 8822   0.720   4.755   6.534 -1.5249  0.4297  0.0415
   92SAPC    HB 8823   0.718   4.919   6.469  0.1478  0.1708 -1.9826
   92SAPC    C2 8824   0.738   4.764   6.318 -0.5066 -0.1398  0.0556
   92SAPC    HS 8825   0.787   4.666   6.300 -0.9223 -0.3638  0.1071
   92SAPC   O21 8826   0.772   4.864   6.224 -0.0108  0.6446 -0.1507
   92SAPC   C21 8827   0.813   4.830   6.099  0.5341  0.1800 -0.2443
   92SAPC   O22 8828   0.837   4.718   6.060 -0.3418  0.3823  0.6090
   92SAPC   C22 8829   0.829   4.953   6.018  0.1670  0.5049  0.2512
   92SAPC   H2R 8830   0.731   5.005   6.016  1.0631  2.5552  2.8540
   92SAPC   H2S 8831   0.898   5.022   6.071  1.5150 -0.8963  0.4008
   92SAPC    C3 8832   0.583   4.742   6.311 -0.0059 -0.0641  0.3410
   92SAPC    HX 8833   0.545   4.847   6.311  0.7143  0.2030  0.1455
   92SAPC    HY 8834   0.546   4.679   6.395 -1.9881  0.0459 -0.3919
   92SAPC   O31 8835   0.542   4.677   6.189  0.0748 -0.6756  0.1694
   92SAPC   C31 8836   0.551   4.542   6.184 -0.0549  0.2661  0.0435
   92SAPC   O32 8837   0.587   4.471   6.279  0.1518 -0.6641 -0.2470
   92SAPC   C32 8838   0.494   4.495   6.046  0.0864  0.4009 -0.2041
   92SAPC   H2X 8839   0.384   4.480   6.049  0.0663  0.4941 -0.4055
   92SAPC   H2Y 8840   0.537   4.395   6.024  0.6310  0.1836  1.7408
   92SAPC   C23 8841   0.889   4.926   5.878 -0.3184 -0.4275 -0.1758
   92SAPC   H3R 8842   0.980   4.864   5.891 -2.7761 -4.0217  1.5101
   92SAPC   H3S 8843   0.915   5.024   5.833 -3.3571 -0.2376 -1.7643
   92SAPC   C24 8844   0.792   4.859   5.781  0.0392 -0.6686 -0.1775
   92SAPC   H4R 8845   0.770   4.752   5.802 -1.7486 -0.0217  1.5841
   92SAPC   H4S 8846   0.837   4.861   5.679 -3.2464 -1.3724 -1.8105
   92SAPC   C25 8847   0.656   4.930   5.754 -0.4017  0.5719  0.4006
   92SAPC   H5R 8848   0.589   4.926   5.841  1.3124  2.8441  1.9442
   92SAPC   C26 8849   0.621   5.010   5.655  0.3409 -0.5104 -0.1903
   92SAPC   H6R 8850   0.525   5.064   5.658  1.7471  2.3141 -1.2755
   92SAPC   C27 8851   0.694   5.031   5.527  0.3203 -0.0862  0.2777
   92SAPC   H7R 8852   0.700   4.937   5.469  1.5422  1.7165 -2.7955
   92SAPC   H7S 8853   0.797   5.073   5.529  0.5116 -0.0726 -3.0067
   92SAPC   C28 8854   0.625   5.122   5.432  0.0118  0.4240 -0.3809
   92SAPC   H8R 8855   0.598   5.217   5.481  2.5297  1.0341 -0.0542
   92SAPC   C29 8856   0.593   5.097   5.300 -0.4936 -0.2975 -0.8642
   92SAPC   H9R 8857   0.530   5.168   5.245  0.4006  1.5899  0.4438
   92SAPC  C210 8858   0.634   4.976   5.217  0.4778 -0.4886 -0.9035
   92SAPC  H10R 8859   0.582   4.989   5.119 -1.5969  0.3998  0.2492
   92SAPC  H10S 8860   0.580   4.888   5.259 -1.5181  1.0764  0.0132
   92SAPC  C211 8861   0.785   4.965   5.188 -0.2482 -0.0002 -0.2028
   92SAPC  H11R 8862   0.843   4.941   5.278  1.3046  0.5975 -1.0127
   92SAPC  C212 8863   0.854   5.004   5.075  0.0214  0.6228  0.2681
   92SAPC  H12R 8864   0.962   4.995   5.062 -0.0752  1.6634 -1.6454
   92SAPC  C213 8865   0.788   5.052   4.949 -0.0915  0.1577  0.5008
   92SAPC  H13R 8866   0.844   5.136   4.902  1.6297  0.0724  2.3102
   92SAPC  H13S 8867   0.695   5.109   4.968  0.0881  0.2664  1.0775
   92SAPC  C214 8868   0.769   4.938   4.854  0.2657 -1.0818  0.6742
   92SAPC  H14R 8869   0.681   4.885   4.893  0.8196 -1.1486  1.8439
   92SAPC  C215 8870   0.852   4.889   4.754 -0.0344 -0.1899  0.1778
   92SAPC  H15R 8871   0.824   4.799   4.697 -2.0271  1.7513 -2.1565
   92SAPC  C216 8872   0.989   4.934   4.700 -0.2832  0.6818 -0.5246
   92SAPC  H16R 8873   1.065   4.853   4.709  0.4095  1.3957  0.1118
   92SAPC  H16S 8874   1.026   5.012   4.770 -1.5116 -1.1745  2.3747
   92SAPC  C217 8875   0.982   4.988   4.551  0.0153 -0.5097  0.0790
   92SAPC  H17R 8876   1.082   5.033   4.538 -0.0149 -0.5572 -0.3155
   92SAPC  H17S 8877   0.909   5.069   4.534  1.1250  0.0672 -2.2007
   92SAPC  C218 8878   0.977   4.875   4.442 -0.1318  0.1550 -0.5818
   92SAPC  H18R 8879   0.884   4.818   4.464 -0.3452  0.1102 -1.5444
   92SAPC  H18S 8880   1.067   4.812   4.451 -0.8507 -0.8829 -0.4831
   92SAPC  C219 8881   0.945   4.921   4.295 -1.1003 -0.0327 -0.4264
   92SAPC  H19R 8882   1.003   5.011   4.266 -0.8579 -0.6619 -2.0036
   92SAPC  H19S 8883   0.838   4.949   4.299 -1.2510 -0.5383 -0.8088
   92SAPC  C220 8884   0.956   4.803   4.193 -0.0487 -0.1048 -0.3128
   92SAPC  H20R 8885   0.888   4.821   4.107 -1.4308 -1.6340  0.4095
   92SAPC  H20S 8886   0.911   4.714   4.242  0.4501 -0.0021  0.3415
   92SAPC  H20T 8887   1.063   4.784   4.166  0.3695 -1.3231  1.9468
   92SAPC   C33 8888   0.512   4.587   5.919 -0.4374 -0.1061  0.1219
   92SAPC   H3X 8889   0.617   4.623   5.917 -0.7446  0.7991 -0.5210
   92SAPC   H3Y 8890   0.455   4.682   5.929  0.8287  0.5865  1.0653
   92SAPC   C34 8891   0.481   4.518   5.790 -0.2437  0.1029  0.4545
   92SAPC   H4X 8892   0.381   4.471   5.795 -0.4715  0.2941 -1.6658
   92SAPC   H4Y 8893   0.565   4.450   5.763  0.4486  1.1966 -0.2359
   92SAPC   C35 8894   0.479   4.617   5.673 -0.5373  0.2060  0.1968
   92SAPC   H5X 8895   0.575   4.668   5.653  0.7248 -2.4121 -0.9162
   92SAPC   H5Y 8896   0.410   4.699   5.700  1.7407  2.1719  0.3784
   92SAPC   C36 8897   0.435   4.545   5.549  0.1567 -0.5931  0.4108
   92SAPC   H6X 8898   0.327   4.522   5.561 -0.0057  0.3085  0.7391
   92SAPC   H6Y 8899   0.477   4.443   5.542  0.8185 -0.3476  0.6890
   92SAPC   C37 8900   0.452   4.628   5.420  0.2602  0.4779 -0.8854
   92SAPC   H7X 8901   0.561   4.646   5.406  0.2550  1.3078  0.0541
   92SAPC   H7Y 8902   0.396   4.724   5.431  1.5101  1.1090  0.3614
   92SAPC   C38 8903   0.388   4.563   5.293 -0.3196 -0.5994 -0.5376
   92SAPC   H8X 8904   0.288   4.529   5.327 -0.8396 -0.7602 -2.1279
   92SAPC   H8Y 8905   0.447   4.473   5.264  1.3351  0.9850 -2.3739
   92SAPC   C39 8906   0.367   4.662   5.178 -0.4706  0.5756  0.6881
   92SAPC   H9X 8907   0.460   4.718   5.150  1.0617 -1.1302  2.1269
   92SAPC   H9Y 8908   0.295   4.742   5.204  0.3941  0.9031  2.1703
   92SAPC  C310 8909   0.315   4.584   5.045  0.0033 -0.7590 -0.4858
   92SAPC  H10X 8910   0.220   4.527   5.059 -0.0470 -0.2505  1.5005
   92SAPC  H10Y 8911   0.393   4.508   5.025  3.0011  2.2044 -0.7929
   92SAPC  C311 8912   0.315   4.680   4.918  0.4597  0.6008  0.2289
   92SAPC  H11X 8913   0.419   4.704   4.889  1.3186  0.1574  2.7268
   92SAPC  H11Y 8914   0.269   4.776   4.948  0.5192  0.3759  1.0640
   92SAPC  C312 8915   0.220   4.625   4.814  0.1459  0.3828 -0.0060
   92SAPC  H12X 8916   0.119   4.640   4.856  0.3535  0.3130  0.5306
   92SAPC  H12Y 8917   0.231   4.516   4.795  0.9105  0.4594 -0.0489
   92SAPC  C313 8918   0.234   4.697   4.684  0.0566  0.0028  0.1280
   92SAPC  H13X 8919   0.343   4.697   4.660  0.7378 -1.2378  2.8362
   92SAPC  H13Y 8920   0.217   4.806   4.694  2.0535  0.5258 -1.3920
   92SAPC  C314 8921   0.136   4.637   4.584 -0.4093 -0.3783 -1.4005
   92SAPC  H14X 8922   0.032   4.656   4.617 -0.3845 -0.5385 -1.2259
   92SAPC  H14Y 8923   0.142   4.527   4.572 -1.2205 -0.6754  0.6092
   92SAPC  C315 8924   0.151   4.688   4.445 -0.3132  0.3142  0.1237
   92SAPC  H15X 8925   0.156   4.799   4.445  0.0859  0.4612 -4.2699
   92SAPC  H15Y 8926   0.064   4.661   4.381  0.2366 -0.4004 -0.3362
   92SAPC  C316 8927   0.279   4.643   4.370  0.2087 -0.6676 -0.1580
   92SAPC  H16X 8928   0.276   4.532   4.365  4.2898 -0.9589  0.2067
   92SAPC  H16Y 8929   0.370   4.664   4.430  0.8955 -1.4717 -0.8796
   92SAPC  C317 8930   0.302   4.700   4.226  0.0794 -0.4935  0.0987
   92SAPC  H17X 8931   0.311   4.810   4.243  0.8693 -0.4968 -0.2384
   92SAPC  H17Y 8932   0.207   4.674   4.175 -1.4621  3.0830  0.8681
   92SAPC  C318 8933   0.429   4.643   4.170  0.1794  0.1718 -0.6329
   92SAPC  H18X 8934   0.521   4.687   4.214 -0.8863  0.8515  1.0097
   92SAPC  H18Y 8935   0.432   4.642   4.059 -0.6684 -2.6899 -0.7002
   92SAPC  H18Z 8936   0.428   4.535   4.199 -0.5942  0.6645  1.3715
   93SAPC     N 8937   0.427   2.102   6.344  0.5183 -0.3148 -0.0404
   93SAPC   C12 8938   0.538   1.997   6.325 -1.0197  0.5006  0.5612
   93SAPC  H12A 8939   0.496   1.898   6.317  1.4475 -0.5342 -0.2793
   93SAPC  H12B 8940   0.594   1.992   6.417 -0.6247 -1.5877  0.2378
   93SAPC   C13 8941   0.482   2.236   6.375 -0.3690  0.1452 -0.3430
   93SAPC  H13A 8942   0.534   2.231   6.470 -1.8093  1.3463  0.5595
   93SAPC  H13B 8943   0.548   2.277   6.300  0.2925  0.1927  0.2506
   93SAPC  H13C 8944   0.398   2.302   6.390 -0.9624 -0.6655 -0.0183
   93SAPC   C14 8945   0.344   2.120   6.222  0.1135  0.2517  0.3958
   93SAPC  H14A 8946   0.291   2.032   6.188  1.3575 -0.1716 -0.4985
   93SAPC  H14B 8947   0.274   2.201   6.239 -0.8326 -0.2806 -0.7870
   93SAPC  H14C 8948   0.403   2.159   6.141 -1.5378  0.9770 -0.5130
   93SAPC   C15 8949   0.341   2.072   6.459 -0.6130  0.8797  0.1660
   93SAPC  H15A 8950   0.311   1.968   6.455  1.6918  0.1775  0.0223
   93SAPC  H15B 8951   0.393   2.069   6.553 -1.0729  1.1764  0.4342
   93SAPC  H15C 8952   0.255   2.137   6.471 -0.6955  0.9045 -0.5067
   93SAPC   C11 8953   0.637   2.017   6.207  0.1776 -0.5214  0.5014
   93SAPC  H11A 8954   0.583   2.025   6.110  1.0732  0.2989  0.0558
   93SAPC  H11B 8955   0.710   1.934   6.202  2.1266  0.8050  3.9691
   93SAPC     P 8956   0.824   2.142   6.322 -0.6829 -0.1313  0.0066
   93SAPC   O13 8957   0.842   2.280   6.366 -0.1539  0.7028 -0.3087
   93SAPC   O14 8958   0.797   2.043   6.425  0.2645  0.3228  0.0388
   93SAPC   O12 8959   0.703   2.144   6.221 -0.6743 -0.3844  0.3695
   93SAPC   O11 8960   0.947   2.079   6.245 -0.4894 -0.3040  0.0549
   93SAPC    C1 8961   0.972   2.111   6.104 -0.1903  0.0699 -0.2316
   93SAPC    HA 8962   1.009   2.020   6.052 -0.8718  0.1344 -0.8366
   93SAPC    HB 8963   0.876   2.147   6.063 -1.0331 -0.0079  1.5590
   93SAPC    C2 8964   1.070   2.230   6.096  0.5466  0.2970  0.1791
   93SAPC    HS 8965   1.035   2.317   6.156 -0.0161 -0.3935  0.8687
   93SAPC   O21 8966   1.087   2.254   5.953 -0.1783  0.1284  0.4369
   93SAPC   C21 8967   1.022   2.358   5.910 -0.4690 -0.0789 -0.4396
   93SAPC   O22 8968   0.939   2.424   5.971 -0.4115 -0.1489 -0.2193
   93SAPC   C22 8969   1.064   2.371   5.763 -0.2234 -0.4604  0.0213
   93SAPC   H2R 8970   0.975   2.353   5.698  1.9998 -0.4591 -3.2615
   93SAPC   H2S 8971   1.107   2.472   5.750  0.6891 -0.8823 -0.3442
   93SAPC    C3 8972   1.206   2.189   6.159  0.0265 -0.1016 -1.0690
   93SAPC    HX 8973   1.197   2.190   6.269 -1.5160  0.9648 -1.1711
   93SAPC    HY 8974   1.282   2.262   6.125 -0.2513 -0.0848 -1.6796
   93SAPC   O31 8975   1.243   2.050   6.120  0.4740 -0.7691  0.0107
   93SAPC   C31 8976   1.297   2.041   5.992  0.4825 -0.0888 -0.5019
   93SAPC   O32 8977   1.339   2.134   5.925 -0.0887  0.1940  0.2228
   93SAPC   C32 8978   1.292   1.900   5.945 -0.0799 -0.3624  0.0837
   93SAPC   H2X 8979   1.219   1.833   5.996  0.9833 -2.4063 -0.9425
   93SAPC   H2Y 8980   1.391   1.851   5.956  0.3365  0.3965 -0.2105
   93SAPC   C23 8981   1.179   2.281   5.704 -0.0109 -0.3259 -0.1602
   93SAPC   H3R 8982   1.143   2.176   5.712  2.4307 -1.3016 -1.1702
   93SAPC   H3S 8983   1.270   2.295   5.765 -0.8424  0.7192  0.8920
   93SAPC   C24 8984   1.200   2.305   5.554  0.0528  0.9200 -0.0906
   93SAPC   H4R 8985   1.214   2.415   5.552  0.6190  0.8478 -0.6434
   93SAPC   H4S 8986   1.100   2.292   5.508  0.5681  0.6903 -1.1859
   93SAPC   C25 8987   1.309   2.219   5.492  0.9496  0.0749  0.1928
   93SAPC   H5R 8988   1.406   2.214   5.543 -0.1132  0.4322  2.3806
   93SAPC   C26 8989   1.285   2.145   5.381  0.5275  0.9112 -0.7307
   93SAPC   H6R 8990   1.372   2.106   5.326 -0.7013 -0.4446 -1.7582
   93SAPC   C27 8991   1.151   2.127   5.310 -0.2925 -0.7937 -0.6874
   93SAPC   H7R 8992   1.178   2.094   5.208 -0.1751 -1.4517 -0.4469
   93SAPC   H7S 8993   1.110   2.229   5.294  2.8989  0.4376 -1.9252
   93SAPC   C28 8994   1.054   2.029   5.365  0.5201  0.1963  0.8287
   93SAPC   H8R 8995   1.074   1.994   5.468 -0.2156 -0.2348  0.8367
   93SAPC   C29 8996   0.951   1.974   5.299 -0.3986  0.7830  0.0515
   93SAPC   H9R 8997   0.881   1.907   5.351  0.3376  0.0837  0.1765
   93SAPC  C210 8998   0.909   2.012   5.161 -0.9586  0.0560 -0.2130
   93SAPC  H10R 8999   0.948   2.109   5.124 -2.2882  0.2503 -1.1752
   93SAPC  H10S 9000   0.808   2.056   5.147 -0.3058  1.7381  0.0878
   93SAPC  C211 9001   0.925   1.901   5.059 -0.0552  0.8117  0.8296
   93SAPC  H11R 9002   0.945   1.801   5.101  2.2027  0.9674  0.2260
   93SAPC  C212 9003   0.926   1.904   4.927 -0.5450  0.1544 -0.3339
   93SAPC  H12R 9004   0.930   1.814   4.864  0.3825  1.3193 -2.0330
   93SAPC  C213 9005   0.916   2.029   4.848  0.1870 -0.2760 -0.0160
   93SAPC  H13R 9006   1.000   2.019   4.776 -0.1403 -0.2222 -0.4146
   93SAPC  H13S 9007   0.935   2.120   4.909  1.6659  0.0391 -0.9170
   93SAPC  C214 9008   0.790   2.062   4.766  0.4011  0.2735 -0.0221
   93SAPC  H14R 9009   0.701   2.095   4.821 -0.5080 -0.6049 -0.9340
   93SAPC  C215 9010   0.776   2.056   4.630 -0.3087  1.3782 -0.9155
   93SAPC  H15R 9011   0.674   2.067   4.591 -0.3028  0.7701 -1.1232
   93SAPC  C216 9012   0.878   1.998   4.533 -0.0503 -0.3658  0.5563
   93SAPC  H16R 9013   0.843   1.918   4.465  2.2537 -0.3594 -0.7407
   93SAPC  H16S 9014   0.963   1.949   4.585  0.2588  2.4203  2.9599
   93SAPC  C217 9015   0.919   2.106   4.436 -0.5899 -0.0202  0.3749
   93SAPC  H17R 9016   0.972   2.182   4.497 -0.8835  0.1204  0.4560
   93SAPC  H17S 9017   0.836   2.148   4.377 -1.6478 -1.4088  0.8211
   93SAPC  C218 9018   1.027   2.050   4.340  0.3124  0.7527  0.0510
   93SAPC  H18R 9019   0.981   1.969   4.279 -0.5935  0.6656  0.8310
   93SAPC  H18S 9020   1.108   2.004   4.401  0.4559  0.8934 -0.0346
   93SAPC  C219 9021   1.086   2.159   4.247  0.4387 -0.1093  0.4789
   93SAPC  H19R 9022   1.005   2.188   4.177 -0.6210 -2.1958  0.7648
   93SAPC  H19S 9023   1.166   2.107   4.191  0.1272  0.3490 -0.4054
   93SAPC  C220 9024   1.144   2.284   4.315 -0.0889  0.0744  0.1133
   93SAPC  H20R 9025   1.201   2.265   4.409  0.1101 -0.9746 -0.2149
   93SAPC  H20S 9026   1.067   2.362   4.331  0.0821  0.4193 -0.6771
   93SAPC  H20T 9027   1.213   2.330   4.240  0.0868  1.3032  0.9875
   93SAPC   C33 9028   1.253   1.891   5.795 -0.9318  0.4267 -0.2824
   93SAPC   H3X 9029   1.338   1.933   5.738  1.8691 -2.1888  1.6336
   93SAPC   H3Y 9030   1.161   1.945   5.765 -1.1251 -0.2324 -0.9236
   93SAPC   C34 9031   1.238   1.744   5.751  0.1909  0.2737 -0.0364
   93SAPC   H4X 9032   1.162   1.706   5.823  0.6117  0.6624  0.6249
   93SAPC   H4Y 9033   1.332   1.686   5.767 -0.5409 -0.7506  0.6406
   93SAPC   C35 9034   1.189   1.719   5.607 -0.3221 -0.1056  0.1645
   93SAPC   H5X 9035   1.114   1.799   5.591  0.9981  0.8085 -1.8297
   93SAPC   H5Y 9036   1.154   1.614   5.595  0.1445  0.0319 -3.3813
   93SAPC   C36 9037   1.300   1.718   5.503 -0.1160  0.2460 -0.3868
   93SAPC   H6X 9038   1.370   1.634   5.521  2.0661  1.9857 -0.3877
   93SAPC   H6Y 9039   1.355   1.814   5.513  1.4029 -0.6040 -0.3184
   93SAPC   C37 9040   1.247   1.697   5.359 -0.2555 -0.1026 -0.3740
   93SAPC   H7X 9041   1.149   1.748   5.347 -0.4449 -0.3546  0.0912
   93SAPC   H7Y 9042   1.243   1.588   5.341  2.1128  0.0079 -1.9464
   93SAPC   C38 9043   1.348   1.734   5.250  0.3584  0.3115  0.3334
   93SAPC   H8X 9044   1.438   1.670   5.265 -0.6119 -1.4089 -0.8600
   93SAPC   H8Y 9045   1.357   1.844   5.246  0.8290  0.3558  1.9176
   93SAPC   C39 9046   1.286   1.695   5.111  0.3205  0.0684  0.3758
   93SAPC   H9X 9047   1.178   1.718   5.119  1.0287  3.8584  0.6731
   93SAPC   H9Y 9048   1.304   1.586   5.098 -1.0720 -0.0784 -0.6015
   93SAPC  C310 9049   1.355   1.763   4.987 -0.2629 -0.1483 -0.2098
   93SAPC  H10X 9050   1.457   1.720   4.980 -0.6925 -1.5193  1.4075
   93SAPC  H10Y 9051   1.370   1.870   5.010  0.0362 -0.0593 -0.7937
   93SAPC  C311 9052   1.277   1.748   4.854  0.0104  0.8734 -0.5454
   93SAPC  H11X 9053   1.194   1.821   4.868 -2.3149 -1.4769 -1.4559
   93SAPC  H11Y 9054   1.225   1.651   4.861  0.0520  0.8930  0.1650
   93SAPC  C312 9055   1.362   1.777   4.735  0.8916  0.1783 -0.2753
   93SAPC  H12X 9056   1.461   1.729   4.747  1.6285  1.7855  0.4468
   93SAPC  H12Y 9057   1.387   1.885   4.741 -2.0660  0.9640 -0.2802
   93SAPC  C313 9058   1.310   1.750   4.598  0.3666 -0.5107 -0.1100
   93SAPC  H13X 9059   1.223   1.815   4.573  0.4910  0.1092  0.9908
   93SAPC  H13Y 9060   1.274   1.645   4.593 -3.3041  0.5457  1.0849
   93SAPC  C314 9061   1.407   1.768   4.476 -0.2443 -0.1715  0.5387
   93SAPC  H14X 9062   1.487   1.691   4.487  0.8503  0.7566 -0.6035
   93SAPC  H14Y 9063   1.458   1.865   4.487  0.7306 -0.4257 -1.3385
   93SAPC  C315 9064   1.342   1.744   4.335 -0.0375 -0.0778 -0.1137
   93SAPC  H15X 9065   1.257   1.816   4.329  0.8007  0.8496 -1.2828
   93SAPC  H15Y 9066   1.297   1.642   4.329  1.2022 -0.5755 -1.7224
   93SAPC  C316 9067   1.445   1.765   4.221 -0.0111  0.6718 -0.2731
   93SAPC  H16X 9068   1.510   1.675   4.217 -0.8251 -0.0212  1.2642
   93SAPC  H16Y 9069   1.516   1.844   4.253  1.4622 -0.8976  0.4801
   93SAPC  C317 9070   1.379   1.788   4.082  0.5049 -0.7563  0.0084
   93SAPC  H17X 9071   1.316   1.877   4.101  0.8258 -0.6801  0.7785
   93SAPC  H17Y 9072   1.319   1.702   4.045  2.6317 -2.3980  0.1908
   93SAPC  C318 9073   1.487   1.837   3.987 -0.7443  0.6306  0.7167
   93SAPC  H18X 9074   1.422   1.880   3.907 -3.6332  0.5768  2.8953
   93SAPC  H18Y 9075   1.547   1.751   3.951  1.1745  1.3265  2.1155
   93SAPC  H18Z 9076   1.560   1.907   4.034  0.4082 -1.2045  1.7468
   94SAPC     N 9077   6.348   6.125   6.295  0.4076 -0.3476  0.4344
   94SAPC   C12 9078   6.276   6.071   6.407  0.3537  0.0265  0.4163
   94SAPC  H12A 9079   6.232   5.978   6.376  2.6288 -1.6735  1.9230
   94SAPC  H12B 9080   6.208   6.150   6.435  0.1347  0.3362 -0.9434
   94SAPC   C13 9081   6.393   6.263   6.327  0.4604 -0.3760 -1.3563
   94SAPC  H13A 9082   6.461   6.276   6.410 -0.0644  0.6898 -1.0700
   94SAPC  H13B 9083   6.457   6.298   6.247  2.3131  2.8003  1.2715
   94SAPC  H13C 9084   6.313   6.335   6.334 -1.8697 -2.7098 -2.3034
   94SAPC   C14 9085   6.469   6.042   6.265 -0.0516  0.2079  0.1445
   94SAPC  H14A 9086   6.521   6.084   6.180  0.7550  0.9023  0.9541
   94SAPC  H14B 9087   6.535   6.037   6.350 -1.3546  1.2729  1.2827
   94SAPC  H14C 9088   6.440   5.941   6.241  1.0747 -0.2027  0.4658
   94SAPC   C15 9089   6.256   6.123   6.179 -0.1818 -0.4153  0.3275
   94SAPC  H15A 9090   6.300   6.180   6.098  0.4010  1.6304  2.0062
   94SAPC  H15B 9091   6.232   6.027   6.136 -2.4488  0.3069 -0.1856
   94SAPC  H15C 9092   6.162   6.167   6.208  0.1455  0.4473  0.1064
   94SAPC   C11 9093   6.359   6.033   6.534 -0.6405  0.0513  0.4989
   94SAPC  H11A 9094   6.313   6.045   6.634  1.3629 -1.6687  1.6835
   94SAPC  H11B 9095   6.441   6.108   6.533 -1.4009  0.9225  1.1160
   94SAPC     P 9096   6.538   5.859   6.563  0.1728  0.2177 -0.0583
   94SAPC   O13 9097   6.606   5.961   6.656  0.3949 -0.2441 -0.1340
   94SAPC   O14 9098   6.531   5.724   6.622  0.1687 -0.0679  0.5470
   94SAPC   O12 9099   6.396   5.897   6.514  0.2294  0.0551 -0.2806
   94SAPC   O11 9100   6.621   5.845   6.427 -0.2386 -0.2876 -0.4300
   94SAPC    C1 9101   6.640   5.712   6.381  0.0499 -0.4120  0.1152
   94SAPC    HA 9102   6.749   5.706   6.361  0.4805  1.1174  1.7752
   94SAPC    HB 9103   6.606   5.631   6.449 -0.7529  0.5989  0.9484
   94SAPC    C2 9104   6.574   5.692   6.239  0.0345 -0.6797  0.4063
   94SAPC    HS 9105   6.591   5.596   6.185 -1.6476 -0.2043 -1.0910
   94SAPC   O21 9106   6.601   5.809   6.156  0.2590  0.3944 -0.2790
   94SAPC   C21 9107   6.724   5.825   6.124 -0.2393 -0.3965  0.0726
   94SAPC   O22 9108   6.804   5.733   6.124  0.4833  0.2454 -0.2830
   94SAPC   C22 9109   6.747   5.969   6.069  0.6578  0.0888  0.2015
   94SAPC   H2R 9110   6.654   5.989   6.012 -0.3276  0.4870  1.8611
   94SAPC   H2S 9111   6.728   6.032   6.159 -4.7685  0.0805 -0.5797
   94SAPC    C3 9112   6.419   5.679   6.268  0.4995  0.2439  0.5667
   94SAPC    HX 9113   6.375   5.777   6.295 -0.8577 -0.3376  0.5632
   94SAPC    HY 9114   6.409   5.592   6.336 -0.5310 -1.4895 -1.6669
   94SAPC   O31 9115   6.353   5.628   6.145  0.2652 -0.4641 -0.2336
   94SAPC   C31 9116   6.291   5.711   6.060  0.0304 -0.0858 -0.4431
   94SAPC   O32 9117   6.288   5.833   6.062  0.4254  0.7737 -0.0499
   94SAPC   C32 9118   6.231   5.630   5.941 -0.2381  0.2746  0.3021
   94SAPC   H2X 9119   6.132   5.585   5.961 -0.3489  0.0213 -0.7317
   94SAPC   H2Y 9120   6.300   5.544   5.923 -0.4111  0.2917 -0.5151
   94SAPC   C23 9121   6.870   5.994   5.976 -0.4580 -0.0481  0.6680
   94SAPC   H3R 9122   6.958   5.984   6.044  1.4778  1.4817 -1.4463
   94SAPC   H3S 9123   6.873   6.100   5.943  0.6229 -0.1098  0.5077
   94SAPC   C24 9124   6.872   5.918   5.838 -0.2468  0.2036 -0.0901
   94SAPC   H4R 9125   6.909   5.816   5.862 -1.1977 -0.5220 -1.5432
   94SAPC   H4S 9126   6.948   5.966   5.773  0.0125 -0.5331 -0.3441
   94SAPC   C25 9127   6.745   5.903   5.758 -0.8114 -0.3541 -0.4398
   94SAPC   H5R 9128   6.701   5.807   5.791  0.5920 -0.3452  1.6228
   94SAPC   C26 9129   6.699   5.971   5.648 -0.0023  0.6185  0.0889
   94SAPC   H6R 9130   6.608   5.929   5.603  0.2281 -0.0600  0.2435
   94SAPC   C27 9131   6.780   6.082   5.584  0.8419 -0.0401 -0.0662
   94SAPC   H7R 9132   6.848   6.039   5.507 -0.5110 -0.7345 -0.9123
   94SAPC   H7S 9133   6.842   6.121   5.668 -1.4533 -0.4004  1.9337
   94SAPC   C28 9134   6.693   6.193   5.521 -0.2480  0.6255 -0.3721
   94SAPC   H8R 9135   6.650   6.257   5.599  1.1119 -0.2956  1.1879
   94SAPC   C29 9136   6.674   6.204   5.387 -0.5575  0.3346  0.1134
   94SAPC   H9R 9137   6.601   6.278   5.351 -0.5744  0.7033  0.8685
   94SAPC  C210 9138   6.752   6.129   5.283 -0.6942  0.7446 -0.3600
   94SAPC  H10R 9139   6.714   6.026   5.266  1.1931 -0.1699  0.5561
   94SAPC  H10S 9140   6.853   6.113   5.328 -0.5536  2.5882  0.0904
   94SAPC  C211 9141   6.784   6.212   5.167 -0.0410  0.0815  0.9257
   94SAPC  H11R 9142   6.747   6.315   5.160  2.6992  1.1711  0.9180
   94SAPC  C212 9143   6.857   6.169   5.059  0.3458 -0.7361 -0.5344
   94SAPC  H12R 9144   6.889   6.241   4.983 -0.0064 -0.7653 -0.7082
   94SAPC  C213 9145   6.919   6.035   5.035 -0.1960  0.4156 -0.6692
   94SAPC  H13R 9146   6.892   5.955   5.108  1.1969  0.9310  0.4601
   94SAPC  H13S 9147   7.028   6.039   5.057 -0.4328  0.9316  0.5020
   94SAPC  C214 9148   6.921   5.984   4.903  0.2272  0.6690  0.4427
   94SAPC  H14R 9149   6.884   6.057   4.830 -1.4409 -0.3750  0.1949
   94SAPC  C215 9150   6.970   5.865   4.858  0.2398  0.0510 -0.3254
   94SAPC  H15R 9151   6.978   5.844   4.750  0.6728 -1.4371 -0.0246
   94SAPC  C216 9152   7.032   5.759   4.947 -0.7249  0.9380  0.0952
   94SAPC  H16R 9153   6.986   5.747   5.048  0.2067  1.5717  0.6111
   94SAPC  H16S 9154   7.140   5.776   4.965 -0.8787  0.4811  1.5694
   94SAPC  C217 9155   7.016   5.626   4.874 -1.0170  0.4163  0.4319
   94SAPC  H17R 9156   6.909   5.610   4.849 -0.7800  0.8293 -0.9155
   94SAPC  H17S 9157   7.048   5.545   4.942  1.2457  1.5290  0.7813
   94SAPC  C218 9158   7.094   5.598   4.746  0.0229 -0.3225  0.4911
   94SAPC  H18R 9159   7.041   5.649   4.663  0.8970 -0.7363 -0.3360
   94SAPC  H18S 9160   7.074   5.491   4.721 -0.1205 -0.1366 -0.2234
   94SAPC  C219 9161   7.244   5.632   4.738  0.1178  0.2258 -0.3805
   94SAPC  H19R 9162   7.247   5.743   4.743  0.8671  0.1718  0.7220
   94SAPC  H19S 9163   7.279   5.590   4.642 -3.4560 -1.2215 -1.2223
   94SAPC  C220 9164   7.326   5.564   4.849 -0.5034  0.1592  0.2133
   94SAPC  H20R 9165   7.430   5.606   4.844  0.3488 -1.9900 -1.6758
   94SAPC  H20S 9166   7.331   5.453   4.847  1.6840  0.2015  0.6474
   94SAPC  H20T 9167   7.284   5.598   4.946 -1.4812 -1.0366  0.2209
   94SAPC   C33 9168   6.209   5.710   5.811 -0.1477 -0.1144 -0.1442
   94SAPC   H3X 9169   6.304   5.756   5.776 -1.1476  1.5680 -0.7807
   94SAPC   H3Y 9170   6.147   5.801   5.826 -3.6604 -2.4065  0.4476
   94SAPC   C34 9171   6.159   5.637   5.682  0.3728 -0.1985 -0.7662
   94SAPC   H4X 9172   6.055   5.622   5.717  0.9495  0.4067  1.3769
   94SAPC   H4Y 9173   6.217   5.543   5.667  1.0986 -0.1221  1.2479
   94SAPC   C35 9174   6.133   5.729   5.559  0.1448  0.7790  0.4434
   94SAPC   H5X 9175   6.232   5.757   5.518  0.3011 -1.5551 -0.9414
   94SAPC   H5Y 9176   6.075   5.816   5.597  0.9260  2.5107 -2.0793
   94SAPC   C36 9177   6.063   5.661   5.441  0.4305  0.1625  0.4858
   94SAPC   H6X 9178   5.966   5.625   5.483  0.3870 -0.7547 -0.3731
   94SAPC   H6Y 9179   6.123   5.573   5.413 -0.0954  0.8359 -3.2855
   94SAPC   C37 9180   6.053   5.748   5.319  0.2127  0.3484  0.8879
   94SAPC   H7X 9181   6.158   5.762   5.284  0.9194  0.6990  3.0035
   94SAPC   H7Y 9182   6.022   5.850   5.350 -1.3927  1.1186 -2.7170
   94SAPC   C38 9183   5.962   5.694   5.202 -0.7111  0.1652 -0.0096
   94SAPC   H8X 9184   5.862   5.692   5.250 -1.2772 -1.7313 -1.1848
   94SAPC   H8Y 9185   6.011   5.600   5.169  1.0385 -0.0901  2.9430
   94SAPC   C39 9186   5.938   5.787   5.072  0.0190 -0.5488 -0.3061
   94SAPC   H9X 9187   5.923   5.887   5.117 -2.0249 -0.9967  0.1310
   94SAPC   H9Y 9188   5.844   5.741   5.034  0.5159 -0.8421 -1.2160
   94SAPC  C310 9189   6.052   5.777   4.970 -0.2187 -0.3919  0.4827
   94SAPC  H10X 9190   6.064   5.669   4.945 -0.2847 -0.5730  1.2140
   94SAPC  H10Y 9191   6.143   5.824   5.013  0.6191 -1.8539  0.3765
   94SAPC  C311 9192   6.027   5.845   4.833 -0.0267  0.3995 -0.1561
   94SAPC  H11X 9193   5.980   5.945   4.847  0.6519  0.6435  0.4224
   94SAPC  H11Y 9194   5.947   5.785   4.785  1.4401 -1.7360 -0.0606
   94SAPC  C312 9195   6.145   5.850   4.732 -0.6499  0.4873 -0.2685
   94SAPC  H12X 9196   6.234   5.893   4.781  0.1764 -1.5923  0.1825
   94SAPC  H12Y 9197   6.116   5.918   4.649 -3.3376 -1.4182 -1.0587
   94SAPC  C313 9198   6.178   5.706   4.683  0.3898  0.4164 -0.5812
   94SAPC  H13X 9199   6.095   5.635   4.700 -0.4735  1.7284  0.9411
   94SAPC  H13Y 9200   6.256   5.664   4.749 -0.9862 -1.2420  0.0717
   94SAPC  C314 9201   6.226   5.691   4.542  0.2602 -0.3174  0.3288
   94SAPC  H14X 9202   6.318   5.753   4.530  0.1694 -0.1108  0.7253
   94SAPC  H14Y 9203   6.147   5.736   4.479 -1.7572 -1.8928  1.6169
   94SAPC  C315 9204   6.250   5.550   4.484 -0.2850 -0.1201  0.6100
   94SAPC  H15X 9205   6.157   5.507   4.443 -0.0599 -1.0836  1.0835
   94SAPC  H15Y 9206   6.279   5.484   4.568  2.7947  2.6520  1.9880
   94SAPC  C316 9207   6.358   5.554   4.373  0.6866  0.6786 -0.4042
   94SAPC  H16X 9208   6.457   5.583   4.414  0.2205  0.5741  0.8368
   94SAPC  H16Y 9209   6.338   5.633   4.297  1.2968  1.6072  0.3776
   94SAPC  C317 9210   6.359   5.410   4.315  0.1932 -0.3701 -0.2286
   94SAPC  H17X 9211   6.265   5.389   4.260 -0.4134  1.8742 -0.1635
   94SAPC  H17Y 9212   6.362   5.340   4.401 -3.7107  0.9518  1.2085
   94SAPC  C318 9213   6.476   5.376   4.222 -0.0411 -0.4305 -0.0547
   94SAPC  H18X 9214   6.474   5.268   4.196 -2.2403  0.3175 -3.8078
   94SAPC  H18Y 9215   6.577   5.390   4.266  0.2504 -1.9990 -0.1621
   94SAPC  H18Z 9216   6.470   5.439   4.130  0.6461 -1.7171 -1.0163
   95SAPC     N 9217   3.517   0.775   1.825 -0.4222 -0.4077  0.2611
   95SAPC   C12 9218   3.579   0.781   1.967  0.4630  0.0089  0.2137
   95SAPC  H12A 9219   3.684   0.758   1.953 -0.3136 -3.8037 -0.5103
   95SAPC  H12B 9220   3.557   0.692   2.024  4.4777 -0.6968  0.9276
   95SAPC   C13 9221   3.368   0.754   1.832  0.5437  0.4356 -0.5977
   95SAPC  H13A 9222   3.334   0.743   1.730 -0.5745 -1.6159 -0.0478
   95SAPC  H13B 9223   3.349   0.658   1.875 -0.7815 -0.6774 -3.4080
   95SAPC  H13C 9224   3.318   0.837   1.878 -0.3371  0.4722 -1.5807
   95SAPC   C14 9225   3.537   0.904   1.747 -0.2773 -0.2910 -0.4916
   95SAPC  H14A 9226   3.504   0.993   1.799  0.5099  0.1624 -0.7628
   95SAPC  H14B 9227   3.644   0.918   1.744 -0.0395 -1.7098  0.1536
   95SAPC  H14C 9228   3.484   0.909   1.653 -0.4893  1.2748 -0.3142
   95SAPC   C15 9229   3.578   0.665   1.741 -0.4839 -0.6568 -0.4110
   95SAPC  H15A 9230   3.685   0.673   1.736 -0.5165 -0.7015 -1.4316
   95SAPC  H15B 9231   3.543   0.566   1.768 -0.6689 -0.7042 -0.8237
   95SAPC  H15C 9232   3.538   0.684   1.642  1.2961  1.0837 -0.8548
   95SAPC   C11 9233   3.550   0.909   2.061 -0.1475  0.1913 -0.6670
   95SAPC  H11A 9234   3.601   0.888   2.157 -2.3189  1.2237  0.7907
   95SAPC  H11B 9235   3.441   0.915   2.084  0.1251 -0.6096  0.9533
   95SAPC     P 9236   3.719   1.106   2.024 -0.0276 -0.2057 -0.2487
   95SAPC   O13 9237   3.821   1.021   1.974 -0.5665  0.6183 -0.8783
   95SAPC   O14 9238   3.708   1.238   1.953 -0.2054 -0.5139  0.2222
   95SAPC   O12 9239   3.584   1.033   2.003 -0.1067 -0.5928  0.4377
   95SAPC   O11 9240   3.726   1.129   2.182  0.3578 -0.1933 -0.5599
   95SAPC    C1 9241   3.835   1.205   2.245 -0.4347 -1.0037 -0.1834
   95SAPC    HA 9242   3.887   1.264   2.165 -0.7615 -1.3883 -0.6860
   95SAPC    HB 9243   3.794   1.284   2.312  1.8363  0.0322  0.1206
   95SAPC    C2 9244   3.934   1.123   2.322 -0.2269  0.3984 -0.0800
   95SAPC    HS 9245   3.998   1.194   2.379 -1.1634  0.9831  0.2679
   95SAPC   O21 9246   4.002   1.024   2.235 -0.4194 -0.5141 -1.2876
   95SAPC   C21 9247   4.095   1.086   2.168 -0.4245  0.0289 -0.7541
   95SAPC   O22 9248   4.115   1.207   2.168 -0.4762 -0.6003  1.2625
   95SAPC   C22 9249   4.167   0.984   2.083 -0.0856  0.3833 -0.0746
   95SAPC   H2R 9250   4.090   0.945   2.013  0.3048 -0.0829 -0.2495
   95SAPC   H2S 9251   4.233   1.038   2.012  0.3088  0.7683  0.5672
   95SAPC    C3 9252   3.859   1.042   2.431 -0.3713 -0.4098 -0.0772
   95SAPC    HX 9253   3.800   0.965   2.377 -2.0992  0.3846  0.5858
   95SAPC    HY 9254   3.784   1.108   2.481 -1.4687 -1.1986 -0.6515
   95SAPC   O31 9255   3.948   0.986   2.526 -0.7600 -0.7753 -0.1905
   95SAPC   C31 9256   3.969   0.861   2.513 -0.3037  0.6092  0.3890
   95SAPC   O32 9257   3.910   0.786   2.437 -0.2210  0.2575  0.1731
   95SAPC   C32 9258   4.064   0.806   2.623 -0.1040  0.5074 -0.4469
   95SAPC   H2X 9259   4.164   0.847   2.599  1.8929 -2.0008  2.7096
   95SAPC   H2Y 9260   4.076   0.697   2.606 -3.6813 -0.2524  0.9122
   95SAPC   C23 9261   4.244   0.878   2.172  0.6385  0.1982 -0.0565
   95SAPC   H3R 9262   4.265   0.795   2.102 -0.4013  1.0820 -1.4718
   95SAPC   H3S 9263   4.176   0.843   2.252 -0.4372  0.7864 -0.6895
   95SAPC   C24 9264   4.379   0.923   2.230  0.0231  0.6802  0.3652
   95SAPC   H4R 9265   4.449   0.950   2.150  0.4175  1.2537  0.8987
   95SAPC   H4S 9266   4.425   0.829   2.269  1.8087  0.5443 -1.8589
   95SAPC   C25 9267   4.379   1.029   2.334  0.4508  1.4248  0.5615
   95SAPC   H5R 9268   4.334   1.121   2.294 -2.4477 -0.4545 -0.8333
   95SAPC   C26 9269   4.402   1.028   2.470  0.5630 -0.0514 -1.2380
   95SAPC   H6R 9270   4.408   1.124   2.524 -0.1478 -1.4909  1.5639
   95SAPC   C27 9271   4.429   0.905   2.558 -0.2057 -0.4993 -0.0751
   95SAPC   H7R 9272   4.420   0.811   2.499 -0.8815 -0.5577  0.1173
   95SAPC   H7S 9273   4.361   0.910   2.645 -1.3899  0.7852 -1.0157
   95SAPC   C28 9274   4.570   0.911   2.609 -0.2350  0.3942 -0.4038
   95SAPC   H8R 9275   4.642   0.930   2.528  0.8069 -0.4275  0.2988
   95SAPC   C29 9276   4.621   0.886   2.733 -0.0068 -0.1364  0.6893
   95SAPC   H9R 9277   4.731   0.898   2.740  0.1302 -0.5763 -0.4479
   95SAPC  C210 9278   4.558   0.854   2.863 -0.1422 -0.0676 -0.1355
   95SAPC  H10R 9279   4.558   0.743   2.866 -0.4687 -0.0455  1.2113
   95SAPC  H10S 9280   4.453   0.890   2.862 -1.3909 -3.3217 -0.0482
   95SAPC  C211 9281   4.621   0.926   2.978 -0.0647  0.4958 -0.4168
   95SAPC  H11R 9282   4.656   1.030   2.968 -0.7111  0.7590  0.0187
   95SAPC  C212 9283   4.654   0.868   3.093  0.6676 -0.3438 -0.9465
   95SAPC  H12R 9284   4.701   0.926   3.174 -1.1812 -1.7304  1.2649
   95SAPC  C213 9285   4.601   0.726   3.134 -0.6851 -0.0027 -0.1150
   95SAPC  H13R 9286   4.538   0.681   3.054  1.8509  1.7237 -3.3217
   95SAPC  H13S 9287   4.546   0.754   3.227 -0.8882  0.0409 -0.2482
   95SAPC  C214 9288   4.705   0.635   3.182  0.4390 -0.0564 -0.1173
   95SAPC  H14R 9289   4.776   0.606   3.103  3.7667 -0.9729  2.9848
   95SAPC  C215 9290   4.737   0.605   3.308 -0.3624  0.2151 -0.1811
   95SAPC  H15R 9291   4.825   0.539   3.315 -0.8277 -0.4909 -0.8327
   95SAPC  C216 9292   4.662   0.645   3.433  0.0291 -0.9184 -0.0663
   95SAPC  H16R 9293   4.561   0.599   3.434 -0.3242 -0.1667 -0.4637
   95SAPC  H16S 9294   4.642   0.754   3.441 -1.1735 -1.1795  0.7548
   95SAPC  C217 9295   4.730   0.616   3.569 -0.2034 -0.5957 -0.4840
   95SAPC  H17R 9296   4.840   0.632   3.574 -0.5343  1.7690  1.3229
   95SAPC  H17S 9297   4.721   0.507   3.587  2.4606 -0.5219  2.3364
   95SAPC  C218 9298   4.668   0.693   3.681 -0.0060  0.2025 -0.2327
   95SAPC  H18R 9299   4.560   0.666   3.686  0.0099  0.3457  1.9576
   95SAPC  H18S 9300   4.676   0.803   3.678 -1.8585  0.5068  2.4188
   95SAPC  C219 9301   4.736   0.667   3.825 -0.4849  0.2379  0.1772
   95SAPC  H19R 9302   4.672   0.697   3.910  1.6358 -0.6411  2.2120
   95SAPC  H19S 9303   4.827   0.730   3.830  1.2487 -1.8529 -1.9836
   95SAPC  C220 9304   4.780   0.523   3.851 -0.1823 -0.5540  0.3540
   95SAPC  H20R 9305   4.799   0.494   3.956 -0.2681  1.4788  0.9789
   95SAPC  H20S 9306   4.873   0.501   3.796  0.3754  1.0066  0.6087
   95SAPC  H20T 9307   4.709   0.442   3.825  1.2862 -1.5866 -0.5713
   95SAPC   C33 9308   4.028   0.836   2.767 -0.4067 -0.3369 -0.2957
   95SAPC   H3X 9309   3.929   0.791   2.792 -1.3373  2.9810  2.8074
   95SAPC   H3Y 9310   4.022   0.941   2.803 -2.1978 -1.0980  1.8459
   95SAPC   C34 9311   4.138   0.778   2.860 -0.8504 -0.5910  0.4359
   95SAPC   H4X 9312   4.235   0.830   2.844 -0.0808 -2.2828 -0.6072
   95SAPC   H4Y 9313   4.147   0.673   2.825 -0.7225 -0.6865  0.7552
   95SAPC   C35 9314   4.104   0.784   3.011  0.8388  0.5010  0.3029
   95SAPC   H5X 9315   3.999   0.748   3.020  0.7334  0.3899 -1.1408
   95SAPC   H5Y 9316   4.083   0.890   3.036 -0.8907  0.1453  0.4508
   95SAPC   C36 9317   4.208   0.723   3.111  0.1058 -0.1917  0.5619
   95SAPC   H6X 9318   4.303   0.780   3.119 -0.6838  0.9752  2.1912
   95SAPC   H6Y 9319   4.224   0.619   3.075 -0.3729  0.1085 -0.5684
   95SAPC   C37 9320   4.160   0.719   3.261 -0.5287 -0.0832  0.1248
   95SAPC   H7X 9321   4.054   0.687   3.261 -0.3649 -0.6426  0.2486
   95SAPC   H7Y 9322   4.157   0.822   3.303 -2.4931 -0.3931  0.8251
   95SAPC   C38 9323   4.235   0.617   3.345  0.2238  0.2261 -0.3900
   95SAPC   H8X 9324   4.344   0.637   3.346  0.1451  0.9947 -2.6115
   95SAPC   H8Y 9325   4.228   0.508   3.327  0.6170  0.4400 -1.8913
   95SAPC   C39 9326   4.203   0.631   3.499  0.3365 -0.2108  0.0940
   95SAPC   H9X 9327   4.096   0.621   3.526  0.7669 -2.1849  1.2494
   95SAPC   H9Y 9328   4.236   0.731   3.536 -0.0902 -0.3689  0.9202
   95SAPC  C310 9329   4.279   0.535   3.586 -0.1588  0.1028 -0.9288
   95SAPC  H10X 9330   4.285   0.575   3.689  0.1596  0.4494 -1.0795
   95SAPC  H10Y 9331   4.386   0.529   3.557 -0.0120  0.3961 -0.4539
   95SAPC  C311 9332   4.216   0.396   3.607  0.9236  0.3570  0.6084
   95SAPC  H11X 9333   4.209   0.333   3.516  1.7829 -0.1189  0.8717
   95SAPC  H11Y 9334   4.108   0.397   3.634  0.9514 -1.2529  0.8443
   95SAPC  C312 9335   4.292   0.315   3.709 -0.6237 -0.3552 -0.0168
   95SAPC  H12X 9336   4.288   0.366   3.808  0.8725  1.0522 -0.6392
   95SAPC  H12Y 9337   4.396   0.305   3.672  0.3034 -2.1052  2.7623
   95SAPC  C313 9338   4.245   0.167   3.729  0.5437 -0.4074 -0.3439
   95SAPC  H13X 9339   4.240   0.127   3.625  0.2299 -1.1504 -0.0488
   95SAPC  H13Y 9340   4.144   0.160   3.775  0.5392 -0.7198 -0.3985
   95SAPC  C314 9341   4.343   0.071   3.801  0.7268 -0.9742  0.0905
   95SAPC  H14X 9342   4.446   0.100   3.771  0.4390  0.2841  0.2325
   95SAPC  H14Y 9343   4.319  -0.033   3.771  2.9421 -2.4993  3.1176
   95SAPC  C315 9344   4.336   0.095   3.952  0.3058  0.9488 -0.0368
   95SAPC  H15X 9345   4.242   0.041   3.977  0.6294  0.1786 -0.4423
   95SAPC  H15Y 9346   4.319   0.200   3.981  0.0458  1.2506 -1.2373
   95SAPC  C316 9347   4.461   0.039   4.029 -0.8148 -0.0539 -0.3186
   95SAPC  H16X 9348   4.524  -0.015   3.955  0.1476 -0.3842  0.7112
   95SAPC  H16Y 9349   4.427  -0.039   4.101 -0.4452  1.7323  1.8946
   95SAPC  C317 9350   4.528   0.153   4.102  0.1627 -0.3315  0.4456
   95SAPC  H17X 9351   4.610   0.111   4.164  1.1359  0.1434 -0.5032
   95SAPC  H17Y 9352   4.457   0.191   4.179  0.7470 -0.1806  0.9176
   95SAPC  C318 9353   4.579   0.273   4.022 -0.1819 -0.1333  0.0804
   95SAPC  H18X 9354   4.505   0.335   3.967  0.4449  1.7690  1.2657
   95SAPC  H18Y 9355   4.650   0.238   3.944  0.4177 -3.3575  1.8615
   95SAPC  H18Z 9356   4.624   0.348   4.091 -0.7645 -0.0945  0.4221
   96SAPC     N 9357   4.062   2.586   1.942  0.2221 -0.2947  0.3465
   96SAPC   C12 9358   4.000   2.595   2.080 -0.2446  0.4431  0.0127
   96SAPC  H12A 9359   4.046   2.520   2.142 -0.9405 -0.2321 -0.2695
   96SAPC  H12B 9360   3.893   2.576   2.077 -0.2665  0.3816  0.8834
   96SAPC   C13 9361   4.096   2.449   1.903 -0.7282  0.2459 -0.3013
   96SAPC  H13A 9362   4.155   2.394   1.975  1.3167 -0.8113 -2.6796
   96SAPC  H13B 9363   4.013   2.380   1.895 -2.3421  2.1630 -1.0883
   96SAPC  H13C 9364   4.145   2.442   1.808  1.0514 -0.9981  0.6564
   96SAPC   C14 9365   3.973   2.646   1.844 -0.1674 -0.1536  0.4611
   96SAPC  H14A 9366   3.999   2.626   1.741 -0.1965  0.7581  0.2668
   96SAPC  H14B 9367   3.874   2.603   1.852 -0.1590 -0.0815  0.9595
   96SAPC  H14C 9368   3.965   2.751   1.869 -1.1402 -0.4101  1.3122
   96SAPC   C15 9369   4.186   2.667   1.931 -0.2653 -0.0629 -0.1028
   96SAPC  H15A 9370   4.249   2.632   2.011 -0.0510  2.0110  0.7012
   96SAPC  H15B 9371   4.235   2.663   1.835 -1.5873  2.7508 -0.9972
   96SAPC  H15C 9372   4.176   2.774   1.947  2.5327  0.8356 -3.2838
   96SAPC   C11 9373   4.003   2.729   2.158  0.0865 -0.3001 -0.2405
   96SAPC  H11A 9374   4.111   2.746   2.178 -0.0305  0.8374 -0.5334
   96SAPC  H11B 9375   3.946   2.713   2.252  0.6655 -1.2586 -0.0400
   96SAPC     P 9376   3.799   2.870   2.084  0.0414  0.0060  0.1777
   96SAPC   O13 9377   3.776   2.994   2.006  0.2220 -0.2509  0.5658
   96SAPC   O14 9378   3.727   2.747   2.042 -0.6336  0.2057  0.0095
   96SAPC   O12 9379   3.958   2.848   2.082 -0.3191 -0.4063 -0.1294
   96SAPC   O11 9380   3.776   2.901   2.238 -0.6295  0.2329 -0.0034
   96SAPC    C1 9381   3.639   2.898   2.285  0.2091 -0.1669 -0.1131
   96SAPC    HA 9382   3.602   3.000   2.311  1.3310  0.4209 -0.7321
   96SAPC    HB 9383   3.574   2.855   2.205 -1.4714 -1.2202  1.7416
   96SAPC    C2 9384   3.642   2.810   2.421 -0.1198  0.1042  0.3829
   96SAPC    HS 9385   3.538   2.818   2.458 -0.1853  0.5175  0.1128
   96SAPC   O21 9386   3.744   2.855   2.513 -0.7412  0.1062  0.1815
   96SAPC   C21 9387   3.720   2.967   2.580 -0.0978  0.5379 -1.2139
   96SAPC   O22 9388   3.619   3.037   2.576 -0.5651  0.5229 -0.4490
   96SAPC   C22 9389   3.839   2.986   2.672 -0.2924  0.2367 -1.3455
   96SAPC   H2R 9390   3.891   2.890   2.690  1.3072  0.7539 -2.9050
   96SAPC   H2S 9391   3.909   3.063   2.632  1.1670  1.1511  2.4786
   96SAPC    C3 9392   3.673   2.658   2.394  0.0947  0.0330  0.1182
   96SAPC    HX 9393   3.752   2.646   2.317  0.7436 -1.2996  0.9632
   96SAPC    HY 9394   3.593   2.607   2.336  1.3352  0.1667 -1.7903
   96SAPC   O31 9395   3.686   2.589   2.516 -0.0088 -0.0091  0.0851
   96SAPC   C31 9396   3.810   2.558   2.545  0.0395 -0.3500  0.6546
   96SAPC   O32 9397   3.909   2.576   2.475 -0.1406 -0.3966 -0.3079
   96SAPC   C32 9398   3.813   2.511   2.690  0.3544  0.8702  0.0525
   96SAPC   H2X 9399   3.775   2.407   2.695 -0.5050  1.1062 -0.9547
   96SAPC   H2Y 9400   3.748   2.584   2.742 -0.0779  1.1161 -0.8010
   96SAPC   C23 9401   3.794   3.047   2.809 -1.2167  0.2176  0.1834
   96SAPC   H3R 9402   3.704   2.990   2.842 -1.3556 -0.9616 -2.0021
   96SAPC   H3S 9403   3.767   3.154   2.802  1.4160  0.8808 -1.4568
   96SAPC   C24 9404   3.891   3.031   2.926 -0.2010 -0.1481 -0.3782
   96SAPC   H4R 9405   3.930   2.927   2.920  0.1008 -0.1417  1.0514
   96SAPC   H4S 9406   3.820   3.032   3.012 -0.2640  0.0338 -0.4317
   96SAPC   C25 9407   4.003   3.130   2.927 -0.8387 -0.0257 -0.7697
   96SAPC   H5R 9408   4.061   3.130   2.834 -0.9675 -1.0854 -0.8636
   96SAPC   C26 9409   4.055   3.201   3.029  0.4155 -0.3313 -1.1044
   96SAPC   H6R 9410   4.132   3.276   3.006 -0.7771  0.9453 -1.1086
   96SAPC   C27 9411   3.997   3.214   3.169 -0.1452  0.0378  0.7660
   96SAPC   H7R 9412   4.066   3.175   3.247  1.9164  1.8639 -0.0495
   96SAPC   H7S 9413   3.900   3.162   3.176 -0.3226  0.2653  0.0694
   96SAPC   C28 9414   3.956   3.357   3.200  0.6049 -0.2003  0.0036
   96SAPC   H8R 9415   3.960   3.417   3.107 -3.1069  0.1470 -0.0670
   96SAPC   C29 9416   3.915   3.413   3.315 -0.1027 -0.1821  0.1099
   96SAPC   H9R 9417   3.874   3.515   3.310  1.1328  0.2839 -1.1286
   96SAPC  C210 9418   3.915   3.347   3.448  0.0003 -0.3800  0.5147
   96SAPC  H10R 9419   4.007   3.290   3.475 -1.6227 -3.0366  0.8366
   96SAPC  H10S 9420   3.836   3.271   3.467 -0.3009  0.0435  0.9908
   96SAPC  C211 9421   3.892   3.445   3.560 -0.0103 -0.8530 -0.3189
   96SAPC  H11R 9422   3.869   3.549   3.531 -1.5427 -0.4853  1.9492
   96SAPC  C212 9423   3.884   3.416   3.698  0.0756 -0.3744 -0.5912
   96SAPC  H12R 9424   3.858   3.496   3.768 -3.0920 -0.4058 -1.5420
   96SAPC  C213 9425   3.913   3.283   3.763  0.2631  0.4655  0.2857
   96SAPC  H13R 9426   3.910   3.204   3.685  1.3502 -0.5378  1.2216
   96SAPC  H13S 9427   3.831   3.263   3.836  0.5411 -0.8200  0.2776
   96SAPC  C214 9428   4.055   3.292   3.823 -0.2595  0.1105  0.7358
   96SAPC  H14R 9429   4.129   3.338   3.757 -0.2306 -0.7430  0.1645
   96SAPC  C215 9430   4.098   3.244   3.942 -0.1605  0.1150 -0.8469
   96SAPC  H15R 9431   4.200   3.258   3.981 -0.6112 -1.1716  0.8836
   96SAPC  C216 9432   3.994   3.180   4.035 -0.3188  0.3376  0.6477
   96SAPC  H16R 9433   4.028   3.082   4.074  1.1890 -0.5213 -2.5047
   96SAPC  H16S 9434   3.891   3.166   3.995 -0.8214 -0.2929  2.0855
   96SAPC  C217 9435   3.971   3.272   4.164 -0.6240  0.5276 -0.5533
   96SAPC  H17R 9436   3.924   3.366   4.130 -1.6988 -0.1799 -1.0969
   96SAPC  H17S 9437   4.075   3.295   4.194  0.5995 -0.4317 -3.6953
   96SAPC  C218 9438   3.905   3.196   4.279 -0.1387  0.0440  0.1616
   96SAPC  H18R 9439   3.811   3.146   4.248 -0.1172  0.7251 -1.0760
   96SAPC  H18S 9440   3.878   3.268   4.359 -1.2625  1.5530 -1.5121
   96SAPC  C219 9441   4.001   3.096   4.349  0.1721  0.5955  0.1323
   96SAPC  H19R 9442   4.091   3.141   4.395 -0.1385  1.8380 -0.4221
   96SAPC  H19S 9443   4.047   3.022   4.280  0.7684 -0.8214  1.9501
   96SAPC  C220 9444   3.926   3.031   4.464  1.0236  0.1918 -0.0572
   96SAPC  H20R 9445   3.917   3.100   4.550 -1.8079 -1.2043  0.9121
   96SAPC  H20S 9446   3.957   2.929   4.497 -0.5789  0.4538  2.5594
   96SAPC  H20T 9447   3.817   3.014   4.453  1.2227 -2.0400  0.9225
   96SAPC   C33 9448   3.950   2.513   2.774 -0.2002 -0.0291  0.5505
   96SAPC   H3X 9449   3.984   2.619   2.766 -1.6908  0.4476  0.0552
   96SAPC   H3Y 9450   4.036   2.455   2.735 -0.0569  0.2169  0.4997
   96SAPC   C34 9451   3.928   2.486   2.918  0.3863  0.9403  0.0613
   96SAPC   H4X 9452   3.837   2.534   2.961 -1.1761 -1.7982  0.1016
   96SAPC   H4Y 9453   4.013   2.535   2.970 -0.7276  0.2131  2.8004
   96SAPC   C35 9454   3.930   2.334   2.953 -0.4474  0.1931  0.5361
   96SAPC   H5X 9455   4.019   2.276   2.921 -1.6993 -2.6648  1.9007
   96SAPC   H5Y 9456   3.847   2.295   2.891 -2.0714  3.0701  0.7068
   96SAPC   C36 9457   3.890   2.315   3.100 -0.1957  0.2903 -0.3215
   96SAPC   H6X 9458   3.800   2.374   3.127 -0.5464 -0.9972  1.5379
   96SAPC   H6Y 9459   3.968   2.361   3.163 -1.6907  0.9425  1.1340
   96SAPC   C37 9460   3.875   2.172   3.143  1.0474 -0.0404  0.4684
   96SAPC   H7X 9461   3.964   2.109   3.121  0.9329 -0.5380  1.3761
   96SAPC   H7Y 9462   3.796   2.129   3.078  0.5369  0.5407  0.6948
   96SAPC   C38 9463   3.829   2.150   3.288 -0.0633 -0.0929 -0.1457
   96SAPC   H8X 9464   3.904   2.192   3.359 -2.2869 -0.6560  2.7471
   96SAPC   H8Y 9465   3.832   2.041   3.309  1.6604  0.2761  1.8908
   96SAPC   C39 9466   3.689   2.202   3.313 -0.4273 -0.3166 -0.0938
   96SAPC   H9X 9467   3.611   2.154   3.250 -2.5285  1.4352  1.0779
   96SAPC   H9Y 9468   3.679   2.312   3.306 -2.0113 -0.3302  1.3281
   96SAPC  C310 9469   3.640   2.169   3.457 -0.2099 -0.0715 -0.0770
   96SAPC  H10X 9470   3.545   2.219   3.485  1.1838  1.7161  1.7092
   96SAPC  H10Y 9471   3.730   2.205   3.510  1.0636 -2.5802 -0.3681
   96SAPC  C311 9472   3.624   2.018   3.486 -0.3450  0.0463  0.8364
   96SAPC  H11X 9473   3.722   1.970   3.462 -0.6742 -0.3937  0.3513
   96SAPC  H11Y 9474   3.553   1.979   3.411  1.2431 -2.0839  0.3471
   96SAPC  C312 9475   3.593   1.991   3.635 -0.5169 -0.4407  0.2871
   96SAPC  H12X 9476   3.511   1.916   3.636 -1.5802  0.6691  2.7005
   96SAPC  H12Y 9477   3.553   2.085   3.678 -1.4181  0.5027 -2.3719
   96SAPC  C313 9478   3.719   1.945   3.705 -0.1875 -0.3542 -0.2817
   96SAPC  H13X 9479   3.793   2.027   3.712  0.9474 -1.4505  1.1229
   96SAPC  H13Y 9480   3.764   1.858   3.652 -0.2701  0.1497 -1.1917
   96SAPC  C314 9481   3.697   1.883   3.842  0.7546 -0.1675  0.4651
   96SAPC  H14X 9482   3.646   1.955   3.911 -1.1957 -0.6988 -0.3554
   96SAPC  H14Y 9483   3.799   1.864   3.883  1.2429  1.7931  0.2945
   96SAPC  C315 9484   3.613   1.755   3.841  0.5499  0.8194 -0.2826
   96SAPC  H15X 9485   3.644   1.694   3.754  1.1744  0.1967  0.3591
   96SAPC  H15Y 9486   3.506   1.775   3.820  0.5255 -0.4987 -1.5366
   96SAPC  C316 9487   3.629   1.684   3.977 -0.7743  0.6752  0.1702
   96SAPC  H16X 9488   3.625   1.757   4.061 -0.5579  0.6144  0.2342
   96SAPC  H16Y 9489   3.723   1.626   3.988 -3.1547 -3.5261  0.3062
   96SAPC  C317 9490   3.514   1.577   3.999 -0.7997  0.0609  0.4986
   96SAPC  H17X 9491   3.491   1.523   3.906  0.2320 -1.2018  0.9471
   96SAPC  H17Y 9492   3.423   1.628   4.038 -1.6740  0.4417 -1.8989
   96SAPC  C318 9493   3.555   1.475   4.108  0.4266  0.1642 -0.4186
   96SAPC  H18X 9494   3.598   1.527   4.196  1.3181  1.1065 -1.3818
   96SAPC  H18Y 9495   3.633   1.407   4.067  0.5371  0.9090 -1.4703
   96SAPC  H18Z 9496   3.464   1.432   4.155 -0.1546 -0.0510 -1.6981
   97SAPC     N 9497   2.150   1.057   1.760 -0.6582 -0.4964 -0.0030
   97SAPC   C12 9498   2.046   1.056   1.871  0.4415 -0.6060  0.3625
   97SAPC  H12A 9499   2.051   0.959   1.918 -0.7563 -0.7496  0.2267
   97SAPC  H12B 9500   1.946   1.055   1.830 -0.4561 -0.3764  2.4027
   97SAPC   C13 9501   2.129   1.188   1.692 -0.0108  0.0855  0.1310
   97SAPC  H13A 9502   2.098   1.263   1.764 -0.6302  1.2086 -1.2742
   97SAPC  H13B 9503   2.219   1.222   1.643  1.4318 -2.6313  0.6768
   97SAPC  H13C 9504   2.048   1.172   1.623  0.9867 -2.0229 -0.6141
   97SAPC   C14 9505   2.292   1.047   1.804  1.1923  0.0465  0.5570
   97SAPC  H14A 9506   2.306   1.121   1.881 -0.2253 -1.6887  2.6211
   97SAPC  H14B 9507   2.326   0.949   1.837  1.4747 -0.7733 -1.9873
   97SAPC  H14C 9508   2.358   1.061   1.720 -1.5920 -2.0166 -2.1896
   97SAPC   C15 9509   2.125   0.949   1.659  0.2867 -0.2309  0.6302
   97SAPC  H15A 9510   2.022   0.957   1.628  0.6119  0.3458 -0.3457
   97SAPC  H15B 9511   2.190   0.956   1.574 -2.3718  0.7394 -1.4627
   97SAPC  H15C 9512   2.139   0.848   1.694 -2.3374 -1.6480 -2.0198
   97SAPC   C11 9513   2.058   1.182   1.964  0.1785 -0.7074 -0.2227
   97SAPC  H11A 9514   2.161   1.222   1.968 -0.6686  1.5208  1.3067
   97SAPC  H11B 9515   2.037   1.144   2.067 -1.7173  0.5178 -0.1179
   97SAPC     P 9516   1.982   1.434   1.913 -0.2728  0.0901  0.1392
   97SAPC   O13 9517   2.100   1.482   1.841 -0.1088 -0.8353 -0.2042
   97SAPC   O14 9518   1.855   1.491   1.870  0.1911 -0.2607  0.3008
   97SAPC   O12 9519   1.960   1.278   1.921 -0.1300  0.1540 -0.5208
   97SAPC   O11 9520   2.000   1.479   2.061  0.0486 -0.0930 -0.2712
   97SAPC    C1 9521   1.919   1.572   2.135 -0.3604  0.6092 -0.4369
   97SAPC    HA 9522   1.913   1.668   2.080 -2.0313  1.3436  0.9350
   97SAPC    HB 9523   1.817   1.529   2.128  0.1910 -1.8339  3.5301
   97SAPC    C2 9524   1.974   1.610   2.287 -0.1558  0.0906  0.1327
   97SAPC    HS 9525   1.949   1.709   2.330  0.2302 -0.4960  1.7955
   97SAPC   O21 9526   2.119   1.592   2.295 -0.2988 -0.1141  0.1397
   97SAPC   C21 9527   2.192   1.682   2.228  0.2719  0.4419  0.1717
   97SAPC   O22 9528   2.148   1.777   2.166  1.0967 -0.5317  0.1812
   97SAPC   C22 9529   2.335   1.637   2.240 -0.1896  0.9176  0.5717
   97SAPC   H2R 9530   2.333   1.538   2.292  0.0144  1.0173  0.7674
   97SAPC   H2S 9531   2.366   1.623   2.134 -2.2761 -1.4198  0.1674
   97SAPC    C3 9532   1.923   1.506   2.386  0.7871  0.0808 -0.0225
   97SAPC    HX 9533   1.925   1.414   2.324  1.2878 -0.1083  0.2730
   97SAPC    HY 9534   1.815   1.533   2.396  0.8498  0.1872  0.3931
   97SAPC   O31 9535   1.992   1.497   2.510 -0.1239  0.4881 -0.3454
   97SAPC   C31 9536   2.027   1.370   2.546  0.3363  0.0896  0.1863
   97SAPC   O32 9537   2.008   1.267   2.490  0.7158 -0.3696 -0.3344
   97SAPC   C32 9538   2.120   1.384   2.667  0.0355  0.3483 -0.4849
   97SAPC   H2X 9539   2.207   1.447   2.637  0.2429 -0.0193 -0.6602
   97SAPC   H2Y 9540   2.160   1.282   2.685 -2.4350 -0.4837  0.8034
   97SAPC   C23 9541   2.414   1.743   2.319  0.2489 -0.0244  0.0035
   97SAPC   H3R 9542   2.386   1.843   2.278 -2.3019 -0.6826 -0.0583
   97SAPC   H3S 9543   2.519   1.721   2.290  0.8427 -1.5763  2.8992
   97SAPC   C24 9544   2.402   1.717   2.471  0.5976 -0.2418 -0.3019
   97SAPC   H4R 9545   2.474   1.637   2.501 -0.3818 -0.5459  1.3684
   97SAPC   H4S 9546   2.298   1.683   2.489  0.6877 -0.6046 -0.4491
   97SAPC   C25 9547   2.442   1.834   2.557  1.2308 -0.1909  0.1437
   97SAPC   H5R 9548   2.512   1.906   2.512  0.5523  0.7112  0.4886
   97SAPC   C26 9549   2.387   1.858   2.679 -0.1311 -1.6322  0.7201
   97SAPC   H6R 9550   2.416   1.951   2.732 -2.0406 -1.0831  0.8919
   97SAPC   C27 9551   2.292   1.779   2.759 -0.0513  0.5126  0.1553
   97SAPC   H7R 9552   2.343   1.685   2.787  0.5706  1.0238  0.7632
   97SAPC   H7S 9553   2.202   1.745   2.703 -0.4749 -0.2245  1.2534
   97SAPC   C28 9554   2.240   1.850   2.882 -0.4473 -0.1225 -0.4893
   97SAPC   H8R 9555   2.155   1.917   2.860 -0.5727 -0.1122  0.0010
   97SAPC   C29 9556   2.296   1.854   3.005  0.5459  0.1540 -0.0366
   97SAPC   H9R 9557   2.253   1.911   3.089  1.3551 -0.3335  0.7366
   97SAPC  C210 9558   2.423   1.781   3.045 -0.2037 -0.5050  0.6612
   97SAPC  H10R 9559   2.425   1.692   2.979 -0.6813  2.0248 -3.0550
   97SAPC  H10S 9560   2.410   1.751   3.151 -0.5625  1.8205  1.3413
   97SAPC  C211 9561   2.545   1.860   3.016  0.0210 -0.1881  0.0999
   97SAPC  H11R 9562   2.564   1.865   2.908  1.6689 -0.1046  0.3723
   97SAPC  C212 9563   2.618   1.916   3.109 -0.0530 -0.4151 -1.2077
   97SAPC  H12R 9564   2.706   1.974   3.078  1.3726 -2.2995 -0.9040
   97SAPC  C213 9565   2.583   1.934   3.254  0.0980  0.4754 -0.1422
   97SAPC  H13R 9566   2.472   1.938   3.260 -0.0248 -1.2409 -0.5999
   97SAPC  H13S 9567   2.611   2.030   3.302 -1.1788  0.1363  1.3510
   97SAPC  C214 9568   2.631   1.818   3.339 -0.3386 -0.1330  0.6100
   97SAPC  H14R 9569   2.615   1.718   3.296  1.9914 -0.7182  1.0090
   97SAPC  C215 9570   2.688   1.813   3.462 -0.4734  0.1651 -0.6277
   97SAPC  H15R 9571   2.716   1.712   3.496 -1.5837 -0.0752 -0.3805
   97SAPC  C216 9572   2.702   1.922   3.569  0.8353  0.2484 -0.5137
   97SAPC  H16R 9573   2.632   2.003   3.538  0.8635 -0.1135 -1.5405
   97SAPC  H16S 9574   2.806   1.961   3.582  0.6970  0.5942 -0.4117
   97SAPC  C217 9575   2.648   1.891   3.711  0.5682 -0.2009 -0.1766
   97SAPC  H17R 9576   2.539   1.869   3.714  0.3628  0.8592  0.4021
   97SAPC  H17S 9577   2.657   1.979   3.778 -0.4065 -0.4831  0.3483
   97SAPC  C218 9578   2.707   1.754   3.772  0.8106  0.0226  0.1055
   97SAPC  H18R 9579   2.802   1.744   3.714 -0.9351 -2.2950 -2.6156
   97SAPC  H18S 9580   2.637   1.669   3.762 -0.6034  1.0940  0.6434
   97SAPC  C219 9581   2.740   1.762   3.924 -0.2528 -0.8159  0.1021
   97SAPC  H19R 9582   2.836   1.815   3.939 -0.7754  0.1506  0.1147
   97SAPC  H19S 9583   2.757   1.660   3.965  1.8227 -1.3217 -1.8512
   97SAPC  C220 9584   2.643   1.846   4.004  0.2357  0.0541  0.3411
   97SAPC  H20R 9585   2.651   1.816   4.111  3.3196  0.5357  0.3281
   97SAPC  H20S 9586   2.539   1.832   3.969 -0.2453 -0.3638  1.8860
   97SAPC  H20T 9587   2.670   1.953   4.016 -1.9443  0.4163  3.1910
   97SAPC   C33 9588   2.048   1.446   2.791  0.2638  0.5560 -0.1503
   97SAPC   H3X 9589   1.968   1.370   2.806 -0.5247  1.4494  0.2427
   97SAPC   H3Y 9590   1.999   1.545   2.782  0.6879  0.6778 -1.2619
   97SAPC   C34 9591   2.136   1.446   2.917  0.0528 -0.4754 -0.3714
   97SAPC   H4X 9592   2.232   1.489   2.882 -0.3439  0.7100 -0.0517
   97SAPC   H4Y 9593   2.150   1.343   2.956 -0.1205  0.3824  2.1992
   97SAPC   C35 9594   2.086   1.542   3.023 -0.4001  0.2632 -0.3700
   97SAPC   H5X 9595   1.981   1.510   3.042 -0.2432 -1.2851 -1.7748
   97SAPC   H5Y 9596   2.083   1.643   2.977  0.0249 -1.4176 -4.5348
   97SAPC   C36 9597   2.174   1.544   3.150  0.3398 -0.6028  0.6030
   97SAPC   H6X 9598   2.278   1.568   3.118  0.6892 -1.7058  0.8878
   97SAPC   H6Y 9599   2.170   1.445   3.199  0.3506  0.9767  4.0769
   97SAPC   C37 9600   2.129   1.648   3.251  0.5443 -0.4262 -0.5500
   97SAPC   H7X 9601   2.022   1.629   3.275  0.3994  0.0971 -0.7662
   97SAPC   H7Y 9602   2.146   1.754   3.225 -0.7079  0.1651  0.9026
   97SAPC   C38 9603   2.200   1.637   3.386  0.7023  0.8242 -0.2896
   97SAPC   H8X 9604   2.309   1.631   3.362  0.5925 -0.7897 -0.4898
   97SAPC   H8Y 9605   2.185   1.543   3.442  1.2621 -0.3470 -2.0311
   97SAPC   C39 9606   2.166   1.741   3.490  0.2071 -0.0132 -0.5876
   97SAPC   H9X 9607   2.059   1.743   3.519  0.5504 -1.0812  0.8830
   97SAPC   H9Y 9608   2.176   1.840   3.441  0.9038  0.4436  0.4638
   97SAPC  C310 9609   2.249   1.739   3.622  0.3475 -0.0375  0.7363
   97SAPC  H10X 9610   2.352   1.758   3.585  0.2346  0.4969  0.6865
   97SAPC  H10Y 9611   2.239   1.638   3.668 -0.8246  0.3147  1.2932
   97SAPC  C311 9612   2.204   1.836   3.734  0.7398 -0.0825 -0.5254
   97SAPC  H11X 9613   2.130   1.909   3.694 -0.0933 -0.1906  0.7683
   97SAPC  H11Y 9614   2.301   1.884   3.759  1.1919 -1.0133 -0.4356
   97SAPC  C312 9615   2.144   1.759   3.852  0.6511 -0.1306  0.4709
   97SAPC  H12X 9616   2.208   1.670   3.871 -1.1311 -1.5645 -0.0113
   97SAPC  H12Y 9617   2.043   1.717   3.835  0.8287 -0.3144 -0.1299
   97SAPC  C313 9618   2.134   1.840   3.975  0.2986  0.5344 -0.1715
   97SAPC  H13X 9619   2.237   1.855   4.014  1.0999 -0.2034 -1.9206
   97SAPC  H13Y 9620   2.090   1.781   4.058 -0.5456  0.6445 -0.5286
   97SAPC  C314 9621   2.037   1.957   3.949 -0.0386 -0.0788 -0.2723
   97SAPC  H14X 9622   1.929   1.931   3.940 -0.2508 -0.5735  2.8403
   97SAPC  H14Y 9623   2.078   2.013   3.862  0.9269 -1.0917 -0.4808
   97SAPC  C315 9624   2.038   2.061   4.058 -0.0645 -0.4612 -0.1745
   97SAPC  H15X 9625   1.972   2.029   4.142  1.6656  2.0173  2.3058
   97SAPC  H15Y 9626   2.005   2.162   4.026  0.8932  0.0186  0.3220
   97SAPC  C316 9627   2.184   2.080   4.105  0.4786  0.7328 -0.2554
   97SAPC  H16X 9628   2.250   2.061   4.018 -1.0663 -2.0082 -0.9504
   97SAPC  H16Y 9629   2.200   2.002   4.183 -3.5932 -0.9840 -0.8835
   97SAPC  C317 9630   2.226   2.219   4.169  0.0574 -0.0428 -0.2289
   97SAPC  H17X 9631   2.162   2.245   4.257  0.3750 -0.4092  0.1168
   97SAPC  H17Y 9632   2.194   2.295   4.095  0.3156 -0.0695 -0.3681
   97SAPC  C318 9633   2.370   2.232   4.207 -0.0247  0.0434 -1.0847
   97SAPC  H18X 9634   2.435   2.238   4.117  2.0776  0.8083  0.4077
   97SAPC  H18Y 9635   2.399   2.145   4.269  0.1602  0.0603 -1.1482
   97SAPC  H18Z 9636   2.384   2.332   4.254 -0.4977 -0.3629 -0.0538
   98SAPC     N 9637   0.623   3.388   1.610  0.2189 -0.2002  0.4000
   98SAPC   C12 9638   0.509   3.486   1.607 -0.3358 -0.2486  0.7051
   98SAPC  H12A 9639   0.422   3.447   1.658 -0.9815 -0.2105 -0.3532
   98SAPC  H12B 9640   0.486   3.490   1.502  0.3900 -3.4989  0.3250
   98SAPC   C13 9641   0.687   3.379   1.746 -0.3670 -0.7629  0.0270
   98SAPC  H13A 9642   0.626   3.338   1.825 -0.1273  0.6433  0.9925
   98SAPC  H13B 9643   0.781   3.325   1.744 -0.0967 -0.3596  1.1058
   98SAPC  H13C 9644   0.711   3.482   1.770 -1.1007 -0.5943  0.0678
   98SAPC   C14 9645   0.570   3.257   1.568  0.0365  0.3978 -0.0639
   98SAPC  H14A 9646   0.487   3.221   1.628  0.2818  1.9337  1.2720
   98SAPC  H14B 9647   0.536   3.264   1.466 -0.8937  2.1392  0.3282
   98SAPC  H14C 9648   0.654   3.189   1.579  2.0352  2.7107 -0.3978
   98SAPC   C15 9649   0.735   3.425   1.514 -0.1727 -0.3425 -0.2031
   98SAPC  H15A 9650   0.779   3.520   1.539 -1.3207 -0.0136  0.6287
   98SAPC  H15B 9651   0.810   3.348   1.503 -1.5001 -1.8058  0.5159
   98SAPC  H15C 9652   0.692   3.438   1.415 -0.2301  2.8012  0.1458
   98SAPC   C11 9653   0.535   3.632   1.664 -0.1706  0.1514  0.1244
   98SAPC  H11A 9654   0.457   3.700   1.624 -1.4383  1.0277  3.6389
   98SAPC  H11B 9655   0.635   3.663   1.629  0.7813 -1.7694  0.9943
   98SAPC     P 9656   0.564   3.756   1.886  0.0833 -0.1031 -0.4447
   98SAPC   O13 9657   0.692   3.805   1.827  0.5084 -0.3547 -1.0005
   98SAPC   O14 9658   0.453   3.855   1.885  0.1567  0.5930 -0.2906
   98SAPC   O12 9659   0.512   3.627   1.802  0.4150 -0.0734 -0.5240
   98SAPC   O11 9660   0.581   3.707   2.035  0.0749  0.7543 -0.2915
   98SAPC    C1 9661   0.471   3.672   2.118  0.2516  0.0932  0.1089
   98SAPC    HA 9662   0.393   3.616   2.061  1.0263 -0.5468 -0.3419
   98SAPC    HB 9663   0.506   3.609   2.203 -1.0653 -0.7672  0.0443
   98SAPC    C2 9664   0.402   3.784   2.191 -0.0915 -0.0664  0.0067
   98SAPC    HS 9665   0.328   3.810   2.113 -1.2952 -0.0741  1.1176
   98SAPC   O21 9666   0.496   3.890   2.214 -0.1444  0.2965  0.1562
   98SAPC   C21 9667   0.439   4.008   2.207 -0.8236  0.2935 -0.3746
   98SAPC   O22 9668   0.329   4.029   2.163  0.4334  0.5168  0.4357
   98SAPC   C22 9669   0.528   4.117   2.265 -0.4794  0.2565  0.0620
   98SAPC   H2R 9670   0.577   4.069   2.352 -2.0059 -0.6472  0.4563
   98SAPC   H2S 9671   0.615   4.120   2.195 -0.2096 -1.1381  0.3086
   98SAPC    C3 9672   0.332   3.733   2.318  1.1187 -0.3136  0.2155
   98SAPC    HX 9673   0.249   3.666   2.285  1.7635 -1.0436  0.0337
   98SAPC    HY 9674   0.290   3.828   2.357  0.0527 -0.5901 -0.2037
   98SAPC   O31 9675   0.414   3.681   2.425  0.6262 -0.2577 -0.3358
   98SAPC   C31 9676   0.410   3.550   2.441  0.5122  0.2072  0.1879
   98SAPC   O32 9677   0.377   3.476   2.348  0.1738 -0.2991  0.1847
   98SAPC   C32 9678   0.475   3.509   2.576 -0.4445  1.0403  0.1256
   98SAPC   H2X 9679   0.391   3.482   2.645  0.0797 -0.7474  0.1082
   98SAPC   H2Y 9680   0.519   3.603   2.615  0.6095  0.6157 -0.0057
   98SAPC   C23 9681   0.457   4.254   2.293  0.5001 -0.1138 -0.9690
   98SAPC   H3R 9682   0.360   4.271   2.241  0.6513 -1.5791 -1.8012
   98SAPC   H3S 9683   0.521   4.322   2.234  1.8552 -2.1452 -1.9804
   98SAPC   C24 9684   0.456   4.296   2.436  0.2706  0.2348 -0.3244
   98SAPC   H4R 9685   0.455   4.405   2.455 -0.8703  0.1326  0.2799
   98SAPC   H4S 9686   0.554   4.261   2.476 -0.7992 -0.3912  1.9288
   98SAPC   C25 9687   0.344   4.241   2.522 -0.6383  0.1447 -0.3762
   98SAPC   H5R 9688   0.244   4.270   2.487 -0.7295  0.0815 -0.1742
   98SAPC   C26 9689   0.365   4.175   2.641 -0.0797 -0.7432  0.7989
   98SAPC   H6R 9690   0.274   4.127   2.679 -0.5469 -2.6595 -2.3792
   98SAPC   C27 9691   0.491   4.147   2.707  0.1593  0.7064 -0.7043
   98SAPC   H7R 9692   0.562   4.090   2.643  0.0569 -0.5391  0.2442
   98SAPC   H7S 9693   0.460   4.078   2.788 -1.4625  2.0492 -0.1183
   98SAPC   C28 9694   0.562   4.259   2.782  0.8480 -0.2406  0.2853
   98SAPC   H8R 9695   0.525   4.357   2.748 -0.4135 -1.1417 -1.0796
   98SAPC   C29 9696   0.657   4.240   2.878 -0.0387 -0.4312 -0.0070
   98SAPC   H9R 9697   0.700   4.331   2.923 -0.8979  0.8316 -1.6191
   98SAPC  C210 9698   0.701   4.109   2.932  0.1446 -0.5979  0.1135
   98SAPC  H10R 9699   0.693   4.028   2.857  0.0818  0.6977 -1.3079
   98SAPC  H10S 9700   0.631   4.075   3.012  1.8204  0.6647  2.2363
   98SAPC  C211 9701   0.839   4.095   2.984 -0.0314  0.3389 -0.1849
   98SAPC  H11R 9702   0.914   4.072   2.906 -0.2639  1.7553 -0.8644
   98SAPC  C212 9703   0.872   4.123   3.116  0.2972 -0.4624 -0.1574
   98SAPC  H12R 9704   0.974   4.105   3.153  0.3684  0.6489  0.2108
   98SAPC  C213 9705   0.773   4.154   3.230  0.1263  0.0656  0.4820
   98SAPC  H13R 9706   0.677   4.190   3.188  0.8038 -1.0765 -2.2538
   98SAPC  H13S 9707   0.813   4.237   3.291 -3.9236  2.5985  0.0693
   98SAPC  C214 9708   0.748   4.034   3.315  0.7600 -0.0530  0.3928
   98SAPC  H14R 9709   0.709   3.945   3.263 -0.5938  0.4064  0.5893
   98SAPC  C215 9710   0.753   4.026   3.447  0.1787  0.2955  0.2149
   98SAPC  H15R 9711   0.741   3.924   3.487 -0.2893 -0.0547 -0.7856
   98SAPC  C216 9712   0.797   4.124   3.553  0.4426 -1.0121  0.3702
   98SAPC  H16R 9713   0.706   4.159   3.605  3.0571  0.3338  4.5031
   98SAPC  H16S 9714   0.841   4.217   3.511 -1.0252 -0.2007  0.5735
   98SAPC  C217 9715   0.894   4.068   3.660  0.2573  0.0815  0.1076
   98SAPC  H17R 9716   0.842   3.981   3.707  1.1659 -0.8079 -0.4957
   98SAPC  H17S 9717   0.906   4.144   3.740  0.5714  0.5751 -0.4125
   98SAPC  C218 9718   1.028   4.020   3.612  0.0159  0.2389 -0.0857
   98SAPC  H18R 9719   1.081   4.103   3.560  1.5107 -0.0896  0.8501
   98SAPC  H18S 9720   1.015   3.938   3.539 -1.9251 -1.0697  1.6331
   98SAPC  C219 9721   1.112   3.977   3.732  0.4562 -0.1060  0.4508
   98SAPC  H19R 9722   1.050   3.904   3.788  0.3573  0.0456  0.5402
   98SAPC  H19S 9723   1.131   4.062   3.801  1.8038 -0.4478  0.5118
   98SAPC  C220 9724   1.241   3.912   3.691  0.0476  0.4914  0.3437
   98SAPC  H20R 9725   1.307   3.887   3.777 -3.1827 -0.3949  2.7969
   98SAPC  H20S 9726   1.300   3.983   3.629  0.9057 -1.3668 -1.0300
   98SAPC  H20T 9727   1.220   3.822   3.630  2.3645 -0.7244  1.2265
   98SAPC   C33 9728   0.586   3.396   2.561  0.2701 -0.3714 -0.9060
   98SAPC   H3X 9729   0.632   3.427   2.465 -0.2097 -1.0317 -1.3537
   98SAPC   H3Y 9730   0.520   3.308   2.547 -1.6861  0.5628  1.5652
   98SAPC   C34 9731   0.660   3.374   2.694  0.2053  0.2850 -0.5356
   98SAPC   H4X 9732   0.600   3.416   2.778  0.4465  1.9168 -1.1384
   98SAPC   H4Y 9733   0.753   3.432   2.710  1.0086 -0.6096 -1.7438
   98SAPC   C35 9734   0.703   3.225   2.717  0.3678 -0.3213 -0.4756
   98SAPC   H5X 9735   0.769   3.190   2.635 -0.6451 -0.3709 -1.2873
   98SAPC   H5Y 9736   0.612   3.162   2.722  0.4503 -0.3629  1.8198
   98SAPC   C36 9737   0.784   3.204   2.854 -0.0484 -0.3569  0.2273
   98SAPC   H6X 9738   0.867   3.277   2.850  0.1756 -0.6776 -1.7802
   98SAPC   H6Y 9739   0.833   3.104   2.863  0.9398  0.0108 -0.8582
   98SAPC   C37 9740   0.703   3.215   2.983 -0.1622 -0.3239  0.7946
   98SAPC   H7X 9741   0.610   3.158   2.966  0.3494 -0.6488 -1.2113
   98SAPC   H7Y 9742   0.672   3.321   2.999  0.8226  0.7532 -3.2032
   98SAPC   C38 9743   0.785   3.164   3.102 -0.9209  0.2835 -0.4638
   98SAPC   H8X 9744   0.867   3.232   3.132  1.2605 -1.4202 -2.2112
   98SAPC   H8Y 9745   0.835   3.068   3.076 -1.0785  0.2362 -0.5961
   98SAPC   C39 9746   0.697   3.144   3.226 -0.8003  0.3558 -0.0907
   98SAPC   H9X 9747   0.755   3.091   3.305 -0.9448  0.2810 -0.0349
   98SAPC   H9Y 9748   0.610   3.078   3.202 -0.2595 -0.6572  0.6648
   98SAPC  C310 9749   0.646   3.273   3.283 -0.2568 -0.2009  0.1700
   98SAPC  H10X 9750   0.591   3.340   3.214 -0.7224 -3.2282 -2.6635
   98SAPC  H10Y 9751   0.733   3.332   3.319 -0.9788  0.8729  0.2158
   98SAPC  C311 9752   0.559   3.244   3.409 -0.6558  0.5313  0.2231
   98SAPC  H11X 9753   0.626   3.191   3.480  1.1522 -0.3416 -1.9950
   98SAPC  H11Y 9754   0.481   3.171   3.378  0.2926  0.0323 -1.0767
   98SAPC  C312 9755   0.495   3.364   3.499 -0.4798 -0.7963 -0.2962
   98SAPC  H12X 9756   0.414   3.402   3.433  0.4691  0.0159 -1.0315
   98SAPC  H12Y 9757   0.561   3.453   3.495  1.7074 -2.3897 -1.4363
   98SAPC  C313 9758   0.444   3.323   3.635 -0.0936  0.3895 -0.1491
   98SAPC  H13X 9759   0.368   3.243   3.630 -2.2065  2.1473  1.8442
   98SAPC  H13Y 9760   0.389   3.412   3.671 -0.2535  0.5371 -0.7406
   98SAPC  C314 9761   0.552   3.272   3.729 -0.3409  0.7653  0.2373
   98SAPC  H14X 9762   0.644   3.332   3.715  0.4813 -0.5606 -0.1885
   98SAPC  H14Y 9763   0.589   3.171   3.699 -0.8596  0.7964 -0.5473
   98SAPC  C315 9764   0.518   3.267   3.874 -0.8562  0.0450  0.0262
   98SAPC  H15X 9765   0.458   3.178   3.904  1.7719 -1.8930 -0.1211
   98SAPC  H15Y 9766   0.465   3.363   3.890 -0.0984  0.4927 -0.1219
   98SAPC  C316 9767   0.649   3.267   3.969  0.3373 -0.8783  0.0537
   98SAPC  H16X 9768   0.697   3.367   3.960  1.3526 -1.4973 -1.7708
   98SAPC  H16Y 9769   0.726   3.206   3.918 -0.0168  0.0226 -1.6216
   98SAPC  C317 9770   0.624   3.210   4.105  0.8253 -0.0553  0.2117
   98SAPC  H17X 9771   0.564   3.117   4.113 -0.2508  0.7331  1.9889
   98SAPC  H17Y 9772   0.569   3.290   4.159  0.5764  0.8744 -1.3608
   98SAPC  C318 9773   0.751   3.174   4.178 -0.2657  0.2922 -0.1228
   98SAPC  H18X 9774   0.803   3.266   4.212  0.2629  0.3645 -1.1043
   98SAPC  H18Y 9775   0.823   3.103   4.133 -0.9153 -0.4578  0.0020
   98SAPC  H18Z 9776   0.714   3.124   4.270 -1.6772  1.8228  0.1936
   99SAPC     N 9777   4.507   0.368   2.095  0.6539  1.0198  0.9001
   99SAPC   C12 9778   4.415   0.355   2.209  0.0366 -0.0170 -0.1876
   99SAPC  H12A 9779   4.425   0.448   2.263 -3.7462  0.4616 -0.0561
   99SAPC  H12B 9780   4.445   0.274   2.275  1.7783 -1.4558 -2.5764
   99SAPC   C13 9781   4.504   0.251   2.000  0.3536  0.0584  0.3428
   99SAPC  H13A 9782   4.402   0.247   1.965 -0.1428  0.2100  1.7215
   99SAPC  H13B 9783   4.570   0.274   1.917 -0.9694 -2.0509 -1.4132
   99SAPC  H13C 9784   4.542   0.159   2.040 -0.1149 -0.1816  0.2486
   99SAPC   C14 9785   4.453   0.491   2.014 -0.2291 -0.1772 -0.5260
   99SAPC  H14A 9786   4.525   0.523   1.940  0.0795 -0.1002 -0.1901
   99SAPC  H14B 9787   4.358   0.462   1.971 -0.4261 -0.3989  0.0464
   99SAPC  H14C 9788   4.428   0.576   2.074  1.6472 -0.4999  0.7967
   99SAPC   C15 9789   4.644   0.394   2.127  0.1011  0.5956  0.2957
   99SAPC  H15A 9790   4.716   0.374   2.049 -0.8919  1.2296 -0.8121
   99SAPC  H15B 9791   4.654   0.496   2.160 -1.5525  0.9408 -0.1483
   99SAPC  H15C 9792   4.691   0.347   2.211 -1.9837  0.5264  1.4998
   99SAPC   C11 9793   4.270   0.348   2.163 -1.2135 -0.4816  0.2282
   99SAPC  H11A 9794   4.242   0.296   2.069 -1.9674 -1.5741  1.0362
   99SAPC  H11B 9795   4.247   0.455   2.147 -1.1539 -0.4712  0.2111
   99SAPC     P 9796   4.225   0.141   2.315  0.3648 -0.0472 -0.3323
   99SAPC   O13 9797   4.210   0.060   2.190  0.2533 -0.6394 -0.0840
   99SAPC   O14 9798   4.352   0.131   2.392 -0.1323  0.5142  0.1416
   99SAPC   O12 9799   4.207   0.295   2.276 -0.2201 -0.1487 -0.0358
   99SAPC   O11 9800   4.109   0.112   2.417  0.3931  0.0972 -0.1789
   99SAPC    C1 9801   4.012   0.209   2.447 -0.1573  0.6019 -0.5562
   99SAPC    HA 9802   3.954   0.249   2.361 -0.8596  0.6682 -0.0605
   99SAPC    HB 9803   3.944   0.156   2.516 -2.0517  1.7103 -1.4943
   99SAPC    C2 9804   4.053   0.320   2.540 -0.1402 -0.7511 -0.8227
   99SAPC    HS 9805   4.121   0.386   2.483  1.2889 -1.0147  0.4889
   99SAPC   O21 9806   4.108   0.276   2.665  0.7050 -0.3810 -0.1277
   99SAPC   C21 9807   4.206   0.344   2.714 -0.2954 -1.0423 -0.1012
   99SAPC   O22 9808   4.271   0.426   2.646 -0.2044 -0.0882 -0.6324
   99SAPC   C22 9809   4.251   0.312   2.858 -0.4451 -0.0185  0.0331
   99SAPC   H2R 9810   4.167   0.305   2.931  0.4148  3.1470  1.4900
   99SAPC   H2S 9811   4.294   0.210   2.851 -0.8561 -0.3948  2.1086
   99SAPC    C3 9812   3.930   0.416   2.556 -0.2315 -0.2942 -0.4521
   99SAPC    HX 9813   3.893   0.445   2.456 -0.7729 -2.8152 -1.0592
   99SAPC    HY 9814   3.980   0.504   2.603 -1.6271  0.3975 -0.2270
   99SAPC   O31 9815   3.822   0.355   2.634  0.3380  0.3179 -0.1424
   99SAPC   C31 9816   3.807   0.404   2.757  0.4686 -0.7736  0.1913
   99SAPC   O32 9817   3.881   0.489   2.806  0.5425  0.2859  0.6860
   99SAPC   C32 9818   3.686   0.331   2.823  0.4119 -0.1105  0.0808
   99SAPC   H2X 9819   3.706   0.222   2.813  1.0787 -0.0515  0.7009
   99SAPC   H2Y 9820   3.600   0.361   2.759  1.2163 -0.0955 -1.0224
   99SAPC   C23 9821   4.356   0.408   2.913 -0.2489  0.2125 -0.2620
   99SAPC   H3R 9822   4.324   0.515   2.909  1.5126  0.7293 -1.5052
   99SAPC   H3S 9823   4.453   0.399   2.860  0.0844  1.3870  0.1127
   99SAPC   C24 9824   4.390   0.373   3.058 -0.0320  0.4336 -0.2644
   99SAPC   H4R 9825   4.295   0.386   3.115 -0.0389 -3.0509  0.7862
   99SAPC   H4S 9826   4.462   0.446   3.101 -0.6113  0.2464  1.0879
   99SAPC   C25 9827   4.439   0.228   3.084 -0.2455  0.5012 -0.3625
   99SAPC   H5R 9828   4.414   0.150   3.011  0.8473 -2.6239  2.3542
   99SAPC   C26 9829   4.514   0.189   3.183 -0.2933 -0.5678 -0.5813
   99SAPC   H6R 9830   4.543   0.083   3.189  0.5531 -0.2768  2.7235
   99SAPC   C27 9831   4.568   0.269   3.297  0.5476 -0.2974  0.6739
   99SAPC   H7R 9832   4.518   0.233   3.389  0.4022 -3.2985 -0.4436
   99SAPC   H7S 9833   4.540   0.376   3.295  1.2140 -0.1245  0.1117
   99SAPC   C28 9834   4.716   0.249   3.314 -0.3493 -0.7513  0.7789
   99SAPC   H8R 9835   4.780   0.276   3.228  1.9170 -1.0337  2.2728
   99SAPC   C29 9836   4.783   0.205   3.422  1.1335 -0.0426  0.1668
   99SAPC   H9R 9837   4.888   0.177   3.409  0.6931 -1.3567 -0.8214
   99SAPC  C210 9838   4.719   0.194   3.553  0.0292 -0.1997  0.5878
   99SAPC  H10R 9839   4.670   0.095   3.568 -1.0179  0.2336  0.1141
   99SAPC  H10S 9840   4.625   0.252   3.544  0.2343  0.1983  0.9593
   99SAPC  C211 9841   4.826   0.230   3.661 -0.1371  0.7170  0.7602
   99SAPC  H11R 9842   4.844   0.333   3.694  0.1134  0.6514  0.8348
   99SAPC  C212 9843   4.897   0.137   3.727  0.4448  0.5440 -1.4639
   99SAPC  H12R 9844   4.957   0.171   3.812 -0.4896  0.2218 -0.6586
   99SAPC  C213 9845   4.889  -0.020   3.722  0.3142  0.1026 -0.0594
   99SAPC  H13R 9846   4.991  -0.062   3.724  0.5837  0.7756  0.9577
   99SAPC  H13S 9847   4.846  -0.052   3.624  0.6926 -2.7575  0.6453
   99SAPC  C214 9848   4.803  -0.077   3.835  0.3070 -0.2993 -0.4052
   99SAPC  H14R 9849   4.709  -0.021   3.847  0.1328 -0.6047 -0.3219
   99SAPC  C215 9850   4.818  -0.188   3.908 -0.6682 -0.3412 -0.1469
   99SAPC  H15R 9851   4.740  -0.202   3.983 -0.5939  1.0704  0.2170
   99SAPC  C216 9852   4.919  -0.299   3.884  0.0124  0.2159 -0.7774
   99SAPC  H16R 9853   4.944  -0.355   3.977 -1.2461 -1.0978 -1.1974
   99SAPC  H16S 9854   5.014  -0.263   3.840 -0.6462  2.4494 -0.4778
   99SAPC  C217 9855   4.862  -0.400   3.784 -0.1969 -0.2453 -0.3256
   99SAPC  H17R 9856   4.941  -0.477   3.772  1.2756  0.9645  1.1359
   99SAPC  H17S 9857   4.843  -0.351   3.686 -0.0405  1.6763  0.5563
   99SAPC  C218 9858   4.724  -0.460   3.813 -0.3490 -0.7589  0.8770
   99SAPC  H18R 9859   4.651  -0.385   3.777  1.1848  0.2142 -0.3302
   99SAPC  H18S 9860   4.703  -0.474   3.922 -0.8682  0.8293  0.9985
   99SAPC  C219 9861   4.681  -0.584   3.731 -0.5015 -0.3694 -0.6174
   99SAPC  H19R 9862   4.750  -0.667   3.755 -1.9843 -0.9921  1.7919
   99SAPC  H19S 9863   4.692  -0.564   3.622 -0.8410  1.0295 -0.4211
   99SAPC  C220 9864   4.538  -0.632   3.761  0.4935  0.7819  0.2260
   99SAPC  H20R 9865   4.506  -0.694   3.675  2.4288 -0.0442  0.0506
   99SAPC  H20S 9866   4.467  -0.547   3.746  0.7201  0.7910 -0.9063
   99SAPC  H20T 9867   4.532  -0.676   3.863 -2.5952  0.2014 -0.1069
   99SAPC   C33 9868   3.659   0.374   2.975 -0.0232 -0.6770  0.5574
   99SAPC   H3X 9869   3.555   0.341   2.993  0.0340 -1.7003 -0.8572
   99SAPC   H3Y 9870   3.642   0.484   2.975 -0.0293 -0.6412 -1.6682
   99SAPC   C34 9871   3.764   0.334   3.077 -0.0125 -0.7142  0.0888
   99SAPC   H4X 9872   3.854   0.399   3.068 -0.0019  0.0543  4.0366
   99SAPC   H4Y 9873   3.802   0.232   3.053 -0.5550 -1.1534  1.0575
   99SAPC   C35 9874   3.726   0.348   3.220  0.1741 -0.1855 -0.8354
   99SAPC   H5X 9875   3.622   0.314   3.235 -0.3791  2.2682  1.6558
   99SAPC   H5Y 9876   3.739   0.454   3.251 -0.2655 -0.6885  1.2662
   99SAPC   C36 9877   3.813   0.267   3.313 -0.6370  0.1826  0.4936
   99SAPC   H6X 9878   3.921   0.290   3.306 -1.0124  1.6939 -0.9737
   99SAPC   H6Y 9879   3.799   0.159   3.292 -1.1923 -0.2766  2.9108
   99SAPC   C37 9880   3.776   0.289   3.463  0.5433  0.1570  0.1589
   99SAPC   H7X 9881   3.666   0.281   3.477  0.5200  1.1510  0.6712
   99SAPC   H7Y 9882   3.812   0.391   3.491  1.6550 -0.0866 -0.3237
   99SAPC   C38 9883   3.848   0.190   3.553 -0.0972  1.0541 -0.3772
   99SAPC   H8X 9884   3.957   0.186   3.531 -0.0970 -0.3414 -0.1722
   99SAPC   H8Y 9885   3.803   0.089   3.542  0.3077  0.9314 -0.9252
   99SAPC   C39 9886   3.824   0.235   3.699  0.6464  0.1840  0.3808
   99SAPC   H9X 9887   3.730   0.293   3.714  0.4126 -0.5990  2.2496
   99SAPC   H9Y 9888   3.902   0.311   3.720  2.1411 -1.4626  1.0084
   99SAPC  C310 9889   3.829   0.128   3.801 -0.1381  0.1258  0.4373
   99SAPC  H10X 9890   3.927   0.083   3.775 -0.9140 -0.5191 -1.5896
   99SAPC  H10Y 9891   3.746   0.057   3.779  0.4840 -1.1830  2.0975
   99SAPC  C311 9892   3.813   0.187   3.945 -0.3800  0.4414  0.4662
   99SAPC  H11X 9893   3.916   0.214   3.976  0.5734 -3.2458  0.9459
   99SAPC  H11Y 9894   3.795   0.099   4.011 -2.4459  0.9230  0.6163
   99SAPC  C312 9895   3.710   0.306   3.968 -0.2386 -0.1207  0.1493
   99SAPC  H12X 9896   3.612   0.263   3.935 -0.1633 -0.3372  0.2077
   99SAPC  H12Y 9897   3.737   0.399   3.912  1.5611 -1.2527 -0.9506
   99SAPC  C313 9898   3.697   0.340   4.115 -0.6879  0.0338 -0.1712
   99SAPC  H13X 9899   3.619   0.418   4.129 -0.2858  1.3344 -3.9557
   99SAPC  H13Y 9900   3.782   0.409   4.135  0.0249 -0.1465 -2.3141
   99SAPC  C314 9901   3.668   0.228   4.216 -0.6368 -0.6844 -0.5346
   99SAPC  H14X 9902   3.759   0.164   4.213 -0.2180 -0.2056  1.0856
   99SAPC  H14Y 9903   3.580   0.173   4.177  1.6734 -2.7016 -3.3937
   99SAPC  C315 9904   3.652   0.277   4.365  0.2353 -0.3605 -0.0686
   99SAPC  H15X 9905   3.650   0.185   4.427 -1.4988 -1.2571 -1.3498
   99SAPC  H15Y 9906   3.550   0.321   4.368  0.4281  0.0491  2.1554
   99SAPC  C316 9907   3.749   0.373   4.404 -0.3513 -0.4487 -0.5956
   99SAPC  H16X 9908   3.726   0.470   4.354  0.8947  0.7875  1.1083
   99SAPC  H16Y 9909   3.850   0.344   4.369  0.0638 -0.4875  0.5972
   99SAPC  C317 9910   3.757   0.385   4.559  0.0241  0.1641  0.2010
   99SAPC  H17X 9911   3.778   0.284   4.601 -2.2199 -0.2186  0.5061
   99SAPC  H17Y 9912   3.659   0.413   4.603 -0.5303  1.1810 -1.5631
   99SAPC  C318 9913   3.863   0.476   4.608 -0.2153 -1.2728 -0.3937
   99SAPC  H18X 9914   3.856   0.494   4.717 -1.3610  1.1002 -0.8066
   99SAPC  H18Y 9915   3.849   0.575   4.560 -0.2043 -0.4770  1.1790
   99SAPC  H18Z 9916   3.963   0.437   4.577  0.7461  0.4526  0.3787
  100SAPC     N 9917   2.031   5.934   1.649  0.6879 -0.2609 -0.1635
  100SAPC   C12 9918   2.048   6.018   1.774 -0.4816 -0.6169  0.3392
  100SAPC  H12A 9919   2.051   5.953   1.860  2.1097 -0.8701  0.1385
  100SAPC  H12B 9920   1.960   6.080   1.775  0.3622  0.6521 -0.5253
  100SAPC   C13 9921   1.900   5.860   1.663  0.5680  0.2052  0.3225
  100SAPC  H13A 9922   1.822   5.928   1.693  0.6912  0.9212 -0.9242
  100SAPC  H13B 9923   1.858   5.815   1.574  0.2681  0.2735  0.4309
  100SAPC  H13C 9924   1.905   5.783   1.739 -0.5498  0.9069  1.1271
  100SAPC   C14 9925   2.018   6.017   1.529 -0.9808 -0.4591 -0.1234
  100SAPC  H14A 9926   2.102   6.085   1.520 -1.1869 -0.1894  0.0006
  100SAPC  H14B 9927   2.013   5.959   1.438 -0.6314  2.1340 -1.8980
  100SAPC  H14C 9928   1.930   6.079   1.539 -0.1914  0.7271 -0.2829
  100SAPC   C15 9929   2.144   5.843   1.622  0.7105  0.3572  0.5595
  100SAPC  H15A 9930   2.167   5.783   1.709 -3.2447 -0.2482  1.4159
  100SAPC  H15B 9931   2.118   5.775   1.542 -0.6724  2.5216 -0.9282
  100SAPC  H15C 9932   2.237   5.894   1.602  0.4204 -0.0764 -2.3023
  100SAPC   C11 9933   2.178   6.107   1.793 -0.4632 -0.1185 -0.4569
  100SAPC  H11A 9934   2.271   6.045   1.791 -0.2836  0.1545 -0.7205
  100SAPC  H11B 9935   2.180   6.143   1.898 -0.6652  1.1795 -0.8791
  100SAPC     P 9936   2.132   6.345   1.726 -0.0950  0.3273  0.2825
  100SAPC   O13 9937   2.150   6.439   1.614 -0.3612  0.5058  0.4179
  100SAPC   O14 9938   1.992   6.323   1.772 -0.1660  0.2712  0.1084
  100SAPC   O12 9939   2.197   6.209   1.692 -0.3615 -0.5415 -0.1644
  100SAPC   O11 9940   2.222   6.396   1.847  0.3625  0.3567 -0.0865
  100SAPC    C1 9941   2.364   6.378   1.840 -0.4227 -0.0956 -0.3996
  100SAPC    HA 9942   2.391   6.270   1.846  4.4232  0.9185 -0.2962
  100SAPC    HB 9943   2.414   6.411   1.747  1.4345  0.9251  0.9008
  100SAPC    C2 9944   2.438   6.443   1.960  1.0552  0.9177  0.1421
  100SAPC    HS 9945   2.544   6.413   1.950  0.5482 -0.9283  0.0757
  100SAPC   O21 9946   2.385   6.419   2.091  0.1086  0.3977  0.0027
  100SAPC   C21 9947   2.390   6.303   2.149 -0.6260 -0.2941  0.5359
  100SAPC   O22 9948   2.451   6.205   2.112 -0.1779  0.0654 -0.1175
  100SAPC   C22 9949   2.305   6.312   2.273 -0.0008  0.2111 -0.2616
  100SAPC   H2R 9950   2.351   6.394   2.334  2.1585 -0.5273 -0.8146
  100SAPC   H2S 9951   2.199   6.342   2.254 -0.3904 -0.7305  0.3296
  100SAPC    C3 9952   2.434   6.598   1.955  0.0625 -0.3419  0.1162
  100SAPC    HX 9953   2.326   6.623   1.945 -0.0919 -1.4532 -1.2743
  100SAPC    HY 9954   2.492   6.615   1.863 -0.6566  3.0791  0.1643
  100SAPC   O31 9955   2.491   6.666   2.075  0.0390  0.0577  0.7662
  100SAPC   C31 9956   2.623   6.687   2.068  0.1891  0.1791 -1.2991
  100SAPC   O32 9957   2.694   6.661   1.975  0.4338  0.2700  0.3669
  100SAPC   C32 9958   2.666   6.757   2.198 -0.4988 -0.2695  0.6331
  100SAPC   H2X 9959   2.588   6.748   2.277  0.8015  0.3444  2.0395
  100SAPC   H2Y 9960   2.671   6.866   2.177  1.4200 -0.5190 -0.4469
  100SAPC   C23 9961   2.289   6.178   2.350  0.0703  0.3917 -0.2251
  100SAPC   H3R 9962   2.379   6.114   2.363  0.8597  0.9443 -2.4710
  100SAPC   H3S 9963   2.224   6.116   2.284 -1.6123  2.5888 -0.7326
  100SAPC   C24 9964   2.211   6.205   2.479  0.2164 -0.6110  0.0573
  100SAPC   H4R 9965   2.118   6.264   2.463  0.2671 -0.1928  1.1891
  100SAPC   H4S 9966   2.277   6.274   2.535 -0.9400 -0.1526  0.8902
  100SAPC   C25 9967   2.183   6.084   2.557 -0.8912  0.7853  0.0948
  100SAPC   H5R 9968   2.105   6.021   2.509 -0.5610  1.5305 -1.4912
  100SAPC   C26 9969   2.239   6.039   2.665 -0.3788  0.4638 -0.8913
  100SAPC   H6R 9970   2.213   5.933   2.682 -0.0576  0.0298 -2.8180
  100SAPC   C27 9971   2.337   6.111   2.753  0.0472 -0.1189 -0.1444
  100SAPC   H7R 9972   2.291   6.144   2.849  0.4620  0.0044  0.0116
  100SAPC   H7S 9973   2.368   6.205   2.703  1.8265 -0.3842  0.4024
  100SAPC   C28 9974   2.454   6.027   2.780 -0.4537 -0.3344 -0.7258
  100SAPC   H8R 9975   2.502   5.992   2.687 -0.9090 -0.0398 -1.0795
  100SAPC   C29 9976   2.501   5.991   2.898 -0.0237 -0.1922 -0.3064
  100SAPC   H9R 9977   2.595   5.934   2.902  0.2603  0.3162  0.6816
  100SAPC  C210 9978   2.453   6.032   3.037 -0.3853  0.3294 -0.3386
  100SAPC  H10R 9979   2.422   6.138   3.024 -2.8954 -0.3178 -0.1020
  100SAPC  H10S 9980   2.555   6.031   3.083  0.4423 -0.5773 -2.0814
  100SAPC  C211 9981   2.343   5.951   3.095  0.5491  0.4595  1.1881
  100SAPC  H11R 9982   2.276   5.900   3.024 -2.9816  1.6566  3.3846
  100SAPC  C212 9983   2.314   5.931   3.224 -0.1250  0.2601 -0.4079
  100SAPC  H12R 9984   2.223   5.877   3.256  0.3811  0.0247  0.7061
  100SAPC  C213 9985   2.392   5.994   3.333  0.2906  0.9469  0.0241
  100SAPC  H13R 9986   2.501   5.990   3.310  0.2726  1.0014 -0.0665
  100SAPC  H13S 9987   2.370   5.933   3.424 -1.1181  3.8917  1.8230
  100SAPC  C214 9988   2.372   6.145   3.352  0.4449 -0.8570 -0.8640
  100SAPC  H14R 9989   2.357   6.210   3.264 -2.8405 -0.7879 -0.4004
  100SAPC  C215 9990   2.356   6.207   3.472 -0.2879 -0.0551  0.0241
  100SAPC  H15R 9991   2.338   6.315   3.470  0.5210  0.0962  0.3780
  100SAPC  C216 9992   2.378   6.155   3.611 -0.1484 -0.0336  0.0843
  100SAPC  H16R 9993   2.447   6.230   3.655  1.1457 -0.8806 -0.4541
  100SAPC  H16S 9994   2.425   6.055   3.613 -1.2903 -0.6124 -0.7868
  100SAPC  C217 9995   2.248   6.139   3.688 -0.9079  0.2578 -0.2721
  100SAPC  H17R 9996   2.180   6.070   3.633 -1.2487  0.6624 -0.3722
  100SAPC  H17S 9997   2.187   6.232   3.683 -1.6953 -0.1443  1.3550
  100SAPC  C218 9998   2.279   6.102   3.833 -0.4064  0.2199  0.4080
  100SAPC  H18R 9999   2.384   6.134   3.851 -0.7053  1.3804  0.2005
  100SAPC  H18S10000   2.281   5.994   3.857  3.3744  0.0530  0.0240
  100SAPC  C21910001   2.187   6.174   3.938  0.1162 -0.1096 -0.1576
  100SAPC  H19R10002   2.081   6.151   3.912  0.0065  0.0837  0.1182
  100SAPC  H19S10003   2.205   6.282   3.951  1.0079 -0.4589  1.8976
  100SAPC  C22010004   2.213   6.108   4.082 -0.5969 -0.2014 -0.0434
  100SAPC  H20R10005   2.199   5.997   4.082 -0.0368 -0.2830 -1.2555
  100SAPC  H20S10006   2.137   6.159   4.145 -1.5911 -0.9314 -0.6153
  100SAPC  H20T10007   2.319   6.123   4.110 -0.2045  0.2164 -1.6698
  100SAPC   C3310008   2.798   6.705   2.248 -0.2463  0.5072 -0.4540
  100SAPC   H3X10009   2.874   6.736   2.173 -1.2362  1.2616 -1.1692
  100SAPC   H3Y10010   2.806   6.594   2.250  0.3155  0.5518  0.9202
  100SAPC   C3410011   2.831   6.759   2.392  0.3663 -0.6221  0.4337
  100SAPC   H4X10012   2.733   6.772   2.443 -0.6016 -0.4651 -1.3959
  100SAPC   H4Y10013   2.879   6.858   2.377  0.8969 -0.8299  0.7178
  100SAPC   C3510014   2.919   6.663   2.462 -1.0795  0.7007 -0.5676
  100SAPC   H5X10015   2.993   6.612   2.396 -1.4425  0.9532 -1.1678
  100SAPC   H5Y10016   2.874   6.571   2.506  1.7515 -0.0219  1.1046
  100SAPC   C3610017   2.996   6.729   2.581 -0.5340  0.1805 -0.0424
  100SAPC   H6X10018   3.036   6.828   2.548  0.5670  0.1547  1.1400
  100SAPC   H6Y10019   3.084   6.666   2.604 -1.1997 -1.0198 -0.6911
  100SAPC   C3710020   2.900   6.740   2.704  0.4203  0.5256  0.0614
  100SAPC   H7X10021   2.847   6.643   2.711 -0.3744  0.8662 -0.9566
  100SAPC   H7Y10022   2.825   6.820   2.683  0.2100  0.3751  0.2400
  100SAPC   C3810023   2.973   6.771   2.833  0.1723 -0.3076  0.0105
  100SAPC   H8X10024   3.003   6.877   2.852  2.0671 -0.5836 -1.1323
  100SAPC   H8Y10025   3.064   6.707   2.836 -0.0653 -0.6020  1.9323
  100SAPC   C3910026   2.885   6.749   2.956 -0.3113  0.3353 -0.7756
  100SAPC   H9X10027   2.865   6.640   2.949  1.2895 -0.2459  2.1240
  100SAPC   H9Y10028   2.794   6.807   2.930 -0.8553 -1.0770 -2.1559
  100SAPC  C31010029   2.958   6.782   3.091  0.0154  0.4918 -0.1069
  100SAPC  H10X10030   2.999   6.885   3.086  0.5247  0.5138  2.7821
  100SAPC  H10Y10031   3.037   6.706   3.110 -1.2389 -0.9591 -0.5294
  100SAPC  C31110032   2.864   6.791   3.215  0.1435 -0.3559  0.5670
  100SAPC  H11X10033   2.821   6.689   3.217 -2.2456  0.5153 -1.4112
  100SAPC  H11Y10034   2.782   6.866   3.209 -0.6626 -1.1577  1.3160
  100SAPC  C31210035   2.937   6.802   3.350 -0.1839  0.2002  0.4400
  100SAPC  H12X10036   2.995   6.896   3.342  2.3491 -1.0702  2.3974
  100SAPC  H12Y10037   3.005   6.714   3.361 -2.4953 -1.5938  1.4068
  100SAPC  C31310038   2.846   6.796   3.476 -0.3234  0.7755  0.0144
  100SAPC  H13X10039   2.796   6.697   3.466  1.9078 -0.5747  1.4989
  100SAPC  H13Y10040   2.785   6.888   3.487  2.8334  2.7735  2.3358
  100SAPC  C31410041   2.932   6.784   3.599 -1.0322 -0.2250 -0.1244
  100SAPC  H14X10042   3.024   6.845   3.588  0.7395 -1.9606  3.4975
  100SAPC  H14Y10043   2.971   6.681   3.615 -2.5258 -0.8843 -0.4753
  100SAPC  C31510044   2.873   6.836   3.721  0.4058 -0.3587  0.2092
  100SAPC  H15X10045   2.777   6.781   3.721 -0.2640  0.7536 -0.7950
  100SAPC  H15Y10046   2.841   6.943   3.714 -2.6758 -1.1535  0.8144
  100SAPC  C31610047   2.965   6.819   3.847 -0.5746  0.1712  0.1680
  100SAPC  H16X10048   3.046   6.895   3.853  0.7985 -1.0680 -1.5436
  100SAPC  H16Y10049   3.013   6.719   3.853 -0.9246  0.0676  1.4675
  100SAPC  C31710050   2.883   6.818   3.976 -0.1229  0.3018 -0.2563
  100SAPC  H17X10051   2.813   6.736   3.947  1.5136 -0.5318 -2.1245
  100SAPC  H17Y10052   2.822   6.907   4.002 -1.6309 -1.1660  1.5465
  100SAPC  C31810053   2.955   6.779   4.102 -0.9365 -0.6001  0.1347
  100SAPC  H18X10054   2.878   6.767   4.182 -2.3466  0.1059 -1.0739
  100SAPC  H18Y10055   3.031   6.850   4.140 -2.1641  0.9266 -0.1506
  100SAPC  H18Z10056   3.005   6.681   4.088  0.8072  0.3918 -0.8167
  101OSM      N10057   3.538   3.777   7.053 -0.1787 -0.2172 -1.1097
  101OSM    C1510058   3.630   3.709   7.145  0.1665  0.0039 -0.0953
  101OSM   H15A10059   3.639   3.604   7.121  1.8824 -0.0312  0.5179
  101OSM   H15B10060   3.601   3.704   7.249 -1.2007 -1.6098 -0.5144
  101OSM   H15C10061   3.731   3.747   7.145  1.2356 -2.5644  1.5768
  101OSM    C1410062   3.413   3.697   7.041 -0.6950 -0.2574  0.2493
  101OSM   H14A10063   3.427   3.602   6.990 -0.7170  0.3278 -0.8936
  101OSM   H14B10064   3.345   3.755   6.980  0.8099  1.0317 -0.2736
  101OSM   H14C10065   3.369   3.680   7.138  0.1215  0.2088  0.7076
  101OSM    C1310066   3.490   3.903   7.119  0.2576  0.4334  0.4301
  101OSM   H13A10067   3.423   3.958   7.055  0.3554  0.4377  0.3308
  101OSM   H13B10068   3.575   3.961   7.153 -0.2211  1.0727  0.5500
  101OSM   H13C10069   3.447   3.890   7.217  1.6762  0.4715  1.0888
  101OSM    C1210070   3.594   3.797   6.916 -0.4075  0.0202  0.4832
  101OSM   H12A10071   3.517   3.847   6.858 -0.2451 -0.6795 -0.3604
  101OSM   H12B10072   3.601   3.697   6.876 -0.6031 -0.4365  1.5686
  101OSM    C1110073   3.728   3.874   6.908  0.0384  0.8698  0.3012
  101OSM   H11A10074   3.715   3.970   6.961  1.3539  1.4780 -0.4356
  101OSM   H11B10075   3.751   3.889   6.801  2.2332  2.1110  0.8818
  101OSM      P10076   3.897   3.668   6.899 -0.2298 -0.2409  0.0009
  101OSM    O1310077   4.032   3.653   6.954 -0.4620 -0.0130 -0.1464
  101OSM    O1410078   3.799   3.559   6.915  0.1935  0.0619  0.2811
  101OSM    O1110079   3.912   3.714   6.752  0.6089 -0.2386 -0.7554
  101OSM    O1210080   3.835   3.796   6.964  0.0411  0.4123 -0.0671
  101OSM    C1S10081   3.978   3.631   6.663 -0.1443  0.8253 -0.1252
  101OSM    H1S10082   3.992   3.525   6.695  0.7811  0.7702 -0.6727
  101OSM    H1T10083   4.082   3.667   6.647 -0.1899 -0.1284 -3.3752
  101OSM     NF10084   4.017   3.583   6.422 -0.9392  0.1770 -0.2408
  101OSM    HNF10085   4.062   3.651   6.364 -0.9266  0.0083 -0.4263
  101OSM    C2S10086   3.918   3.636   6.522  1.4376 -0.3361  0.1249
  101OSM    H2S10087   3.834   3.563   6.524  0.5470  0.5099 -2.4090
  101OSM    C3S10088   3.868   3.774   6.485  0.0162 -1.0692 -0.1480
  101OSM    H3S10089   3.953   3.843   6.504 -0.4623 -0.6353  0.4491
  101OSM     O310090   3.751   3.829   6.548 -0.4324 -0.2366  0.0630
  101OSM    HO310091   3.766   3.803   6.639  2.9034 -2.7713 -1.0070
  101OSM    C4S10092   3.837   3.770   6.337  0.2762  0.0832 -0.8533
  101OSM    H4S10093   3.770   3.689   6.305  0.3428 -0.8063  1.1236
  101OSM    C5S10094   3.905   3.841   6.240  0.5881  0.5327 -0.0517
  101OSM    H5S10095   3.990   3.905   6.268 -0.9443  1.1467  3.8650
  101OSM    C6S10096   3.878   3.823   6.097  0.3910 -0.2847  0.0544
  101OSM    H6S10097   3.914   3.908   6.034  1.0161  0.6347  1.6027
  101OSM    H6T10098   3.774   3.820   6.060  0.9746  1.2914 -1.9091
  101OSM    C7S10099   3.941   3.690   6.049  0.1014  0.1047  0.0191
  101OSM    H7S10100   3.875   3.606   6.081  0.1130  0.5207  1.1873
  101OSM    H7T10101   4.043   3.674   6.091 -0.1095 -1.0322  0.1377
  101OSM    C8S10102   3.958   3.672   5.899  0.3894 -0.3401 -0.0671
  101OSM    H8S10103   3.986   3.566   5.883  1.5833  0.1075 -1.1130
  101OSM    H8T10104   4.039   3.725   5.844  1.0201 -2.0927 -0.8884
  101OSM    C9S10105   3.833   3.715   5.827  0.4787  0.4863  0.2123
  101OSM    H9S10106   3.816   3.825   5.829  0.4499  0.5282 -1.0907
  101OSM    H9T10107   3.762   3.659   5.891 -0.2142  0.8513 -0.2214
  101OSM   C10S10108   3.830   3.672   5.685  0.6394 -0.0920  0.1999
  101OSM   H10S10109   3.802   3.565   5.684 -1.2770  0.3636  0.6479
  101OSM   H10T10110   3.930   3.673   5.636  0.0619 -0.9262 -1.0642
  101OSM   C11S10111   3.719   3.733   5.597  0.7743 -1.0876  0.1851
  101OSM   H11S10112   3.728   3.844   5.601 -2.1750 -0.8041  2.6753
  101OSM   H11T10113   3.615   3.706   5.626 -1.6182  1.9096 -4.3526
  101OSM   C12S10114   3.751   3.671   5.457 -0.3682 -0.0328 -0.3280
  101OSM   H12S10115   3.739   3.561   5.467  0.6476 -0.2103 -0.9480
  101OSM   H12T10116   3.856   3.693   5.430 -0.2541 -0.1210  0.0377
  101OSM   C13S10117   3.659   3.729   5.347 -0.9056 -0.3311 -0.1930
  101OSM   H13S10118   3.661   3.839   5.360 -2.0984 -0.4405  1.1552
  101OSM   H13T10119   3.559   3.683   5.360 -0.3693 -1.7169 -0.7261
  101OSM   C14S10120   3.710   3.692   5.208  0.0006 -0.0494 -0.7883
  101OSM   H14S10121   3.715   3.581   5.202  0.8627 -0.1199  0.9296
  101OSM   H14T10122   3.812   3.727   5.181 -1.3080  2.4179 -3.0804
  101OSM   C15S10123   3.631   3.747   5.090  1.0116 -0.6014  1.0306
  101OSM   H15S10124   3.611   3.855   5.106  2.5144 -0.0479 -0.5724
  101OSM   H15T10125   3.532   3.697   5.078  0.2121  0.8867  1.2169
  101OSM   C16S10126   3.708   3.722   4.962 -0.2165  0.3874  0.5350
  101OSM   H16S10127   3.736   3.615   4.950  1.3353  0.4240  3.1515
  101OSM   H16T10128   3.803   3.779   4.962  1.3788 -2.1189  0.5630
  101OSM   C17S10129   3.615   3.741   4.841  0.2472  0.0642  0.1288
  101OSM   H17S10130   3.565   3.840   4.847  1.0302  0.6344 -2.0934
  101OSM   H17T10131   3.541   3.658   4.832 -0.5302  0.7912 -0.3032
  101OSM   C18S10132   3.700   3.730   4.713  0.2107  0.0964  0.2532
  101OSM   H18S10133   3.757   3.635   4.712  1.7344  0.8576  3.0940
  101OSM   H18T10134   3.772   3.815   4.722 -0.6303  0.7738  0.8216
  101OSM   H18U10135   3.631   3.736   4.627 -0.4756 -0.4156  0.7594
  101OSM    C1F10136   4.059   3.459   6.415 -0.2856 -0.1715  0.3195
  101OSM     OF10137   4.014   3.370   6.487  0.6881 -0.2126  0.6636
  101OSM    C2F10138   4.172   3.424   6.330 -0.4020 -0.3150  0.0580
  101OSM    H2F10139   4.261   3.489   6.344  0.7927 -1.3436 -2.1396
  101OSM    H2G10140   4.149   3.455   6.226  0.2089  0.7418  0.2275
  101OSM    C3F10141   4.231   3.275   6.344 -0.2893 -0.1505 -0.3308
  101OSM    H3F10142   4.138   3.225   6.310 -2.4578  1.6825  2.4402
  101OSM    H3G10143   4.242   3.261   6.453  1.3948 -3.1707 -0.7868
  101OSM    C4F10144   4.364   3.250   6.270 -0.3225  0.3249  0.5653
  101OSM    H4F10145   4.445   3.298   6.328  1.1410 -2.3585  0.9380
  101OSM    H4G10146   4.355   3.306   6.174  0.3823  1.7535  1.3147
  101OSM    C5F10147   4.391   3.101   6.242 -0.8521  1.1213  0.4123
  101OSM    H5F10148   4.314   3.046   6.184 -1.2373  2.2068 -0.1361
  101OSM    H5G10149   4.400   3.055   6.343  2.5130 -1.7805 -0.9779
  101OSM    C6F10150   4.519   3.083   6.156 -0.4532 -0.6417 -0.1040
  101OSM    H6F10151   4.592   3.160   6.188 -1.4720 -0.1624  1.1451
  101OSM    H6G10152   4.487   3.115   6.055  0.6162  0.5890 -0.0804
  101OSM    C7F10153   4.574   2.941   6.156  0.5749  0.2656 -0.2179
  101OSM    H7F10154   4.484   2.876   6.148  1.1908 -0.5631 -0.4777
  101OSM    H7G10155   4.612   2.922   6.259 -0.2520  2.1535  0.4880
  101OSM    C8F10156   4.673   2.903   6.047  0.0760  0.3983 -0.9254
  101OSM    H8F10157   4.624   2.928   5.950 -2.0094 -1.3235 -0.3927
  101OSM    H8G10158   4.695   2.794   6.050  0.9581  0.5877 -0.1314
  101OSM    C9F10159   4.813   2.962   6.060  0.3336 -0.5926  0.3315
  101OSM    H9F10160   4.862   2.954   6.158  0.3397 -1.4470  0.2747
  101OSM   C10F10161   4.888   3.007   5.961  0.9373  0.0197  0.3558
  101OSM   H10F10162   4.986   3.052   5.986  0.1598  1.1737  1.4598
  101OSM   C11F10163   4.859   3.011   5.804 -0.6520 -1.3493 -0.7669
  101OSM   H11F10164   4.780   2.935   5.780 -2.7764  0.9518 -1.5220
  101OSM   H11G10165   4.955   3.004   5.749  0.0016  1.3736 -0.1238
  101OSM   C12F10166   4.798   3.152   5.780  0.2755  0.5892 -0.3333
  101OSM   H12F10167   4.859   3.233   5.825  0.1138  0.1836  0.6552
  101OSM   H12G10168   4.695   3.163   5.820  0.3888 -1.8060  0.8426
  101OSM   C13F10169   4.775   3.170   5.626 -0.3939 -0.0094 -0.4031
  101OSM   H13F10170   4.683   3.113   5.600 -0.4918  0.1094 -0.3180
  101OSM   H13G10171   4.859   3.123   5.571  0.1584  0.0949  0.3400
  101OSM   C14F10172   4.766   3.323   5.583 -0.5249  0.4548 -0.0138
  101OSM   H14F10173   4.869   3.360   5.567 -0.8458  0.7022 -1.6134
  101OSM   H14G10174   4.715   3.380   5.664 -2.8752 -1.4218 -0.0510
  101OSM   C15F10175   4.686   3.346   5.452 -0.4966  0.2089 -0.4763
  101OSM   H15F10176   4.585   3.305   5.469  1.0344 -4.2228 -0.8641
  101OSM   H15G10177   4.727   3.278   5.374 -0.0296 -2.3674  1.8694
  101OSM   C16F10178   4.663   3.494   5.415  0.2676  0.7770  0.1633
  101OSM   H16F10179   4.758   3.545   5.387 -0.6058  1.6504 -1.3563
  101OSM   H16G10180   4.603   3.541   5.495 -2.3115 -0.3739 -0.9939
  101OSM   C17F10181   4.582   3.503   5.277 -0.0520 -0.0184 -0.0756
  101OSM   H17F10182   4.560   3.610   5.253  2.5580  0.3354 -1.1400
  101OSM   H17G10183   4.485   3.450   5.293 -1.2531  1.4002 -2.1744
  101OSM   C18F10184   4.655   3.433   5.158 -0.5117  0.0980  0.1778
  101OSM   H18F10185   4.748   3.489   5.136 -0.4859 -0.3229 -0.8087
  101OSM   H18G10186   4.592   3.433   5.067 -1.9066 -0.1591  1.1005
  101OSM   H18H10187   4.693   3.332   5.184 -1.1211  0.2095  1.6438
  102OSM      N10188   3.943   3.108   6.774  0.3096  0.0865  0.1229
  102OSM    C1510189   3.847   3.219   6.800 -0.4558 -0.5348  0.0115
  102OSM   H15A10190   3.825   3.220   6.906  2.9489  0.8680  0.8414
  102OSM   H15B10191   3.757   3.208   6.742 -0.2088 -2.5391 -0.0759
  102OSM   H15C10192   3.894   3.313   6.775 -2.4305  0.4880 -0.0152
  102OSM    C1410193   4.056   3.115   6.868 -0.2700 -0.3659 -0.3801
  102OSM   H14A10194   4.118   3.028   6.853 -1.2748 -1.3905  1.1501
  102OSM   H14B10195   4.004   3.102   6.961 -0.0376 -1.9208 -0.4406
  102OSM   H14C10196   4.108   3.210   6.866  1.6497 -1.2966  1.7613
  102OSM    C1310197   3.881   2.964   6.785  0.5492 -0.5150 -0.2586
  102OSM   H13A10198   3.831   2.942   6.878 -0.8464 -0.5723 -0.9929
  102OSM   H13B10199   3.952   2.885   6.765  2.1625  1.0389 -0.9695
  102OSM   H13C10200   3.811   2.951   6.703  1.0624  0.2684 -0.8497
  102OSM    C1210201   3.993   3.116   6.629  0.1592  0.2144  0.2033
  102OSM   H12A10202   4.052   3.207   6.621 -1.2121  1.1998  0.9551
  102OSM   H12B10203   3.904   3.127   6.569 -0.6423 -1.6103  0.9837
  102OSM    C1110204   4.076   2.995   6.577 -0.4154 -0.3495 -0.3909
  102OSM   H11A10205   4.104   3.024   6.473 -0.2368  0.4251 -0.1332
  102OSM   H11B10206   4.001   2.914   6.562 -0.2470 -0.4777 -0.5525
  102OSM      P10207   4.248   2.818   6.640  0.3982  0.2154 -0.2518
  102OSM    O1310208   4.393   2.836   6.624 -0.2436  0.6105 -0.0396
  102OSM    O1410209   4.201   2.742   6.759 -1.0732 -0.1219 -0.1457
  102OSM    O1110210   4.194   2.757   6.508 -0.8869 -0.4445  0.0202
  102OSM    O1210211   4.191   2.962   6.654  0.0171 -0.1654  0.1497
  102OSM    C1S10212   4.244   2.790   6.378  0.6968 -0.5867 -0.0379
  102OSM    H1S10213   4.353   2.771   6.373  0.8168 -0.1338  0.6744
  102OSM    H1T10214   4.237   2.900   6.362 -0.5138 -0.4101  1.4681
  102OSM     NF10215   4.240   2.701   6.134  0.3748  0.0239  0.0699
  102OSM    HNF10216   4.198   2.755   6.062  0.6610 -1.3493 -1.1667
  102OSM    C2S10217   4.164   2.710   6.263  0.0180  0.2970  0.5249
  102OSM    H2S10218   4.157   2.604   6.297  2.1440  0.1683  0.6632
  102OSM    C3S10219   4.021   2.753   6.254  0.4450  0.2012 -0.8390
  102OSM    H3S10220   4.018   2.858   6.218  1.2311  0.0002 -1.5228
  102OSM     O310221   3.942   2.740   6.379 -0.1099  0.0173  0.3666
  102OSM    HO310222   4.005   2.731   6.451  0.7401 -0.4197 -0.4067
  102OSM    C4S10223   3.950   2.677   6.148  0.2886 -0.5683  0.1056
  102OSM    H4S10224   3.920   2.576   6.180 -2.2598 -0.8726 -2.7434
  102OSM    C5S10225   3.894   2.722   6.027  0.2082 -0.3446 -0.1000
  102OSM    H5S10226   3.892   2.830   6.005  0.3111  0.0355  1.6020
  102OSM    C6S10227   3.812   2.624   5.944 -0.3301 -0.0711 -0.2607
  102OSM    H6S10228   3.716   2.671   5.914 -0.7156 -1.5102 -1.4063
  102OSM    H6T10229   3.796   2.528   5.996 -3.2502  1.6845  2.4137
  102OSM    C7S10230   3.878   2.618   5.796  0.8641 -0.3595  0.6657
  102OSM    H7S10231   3.987   2.603   5.811  0.9464  1.1936  1.9126
  102OSM    H7T10232   3.860   2.719   5.753 -1.5114 -1.1667 -0.4166
  102OSM    C8S10233   3.809   2.501   5.719  0.5454 -0.0918  0.1552
  102OSM    H8S10234   3.702   2.524   5.702  0.5093 -1.0877 -1.0945
  102OSM    H8T10235   3.817   2.413   5.787 -3.3214 -1.2175 -0.5941
  102OSM    C9S10236   3.868   2.464   5.585  0.5328 -0.6303 -0.7262
  102OSM    H9S10237   3.829   2.365   5.554 -3.9048  0.7981 -0.3821
  102OSM    H9T10238   3.976   2.447   5.603  0.8339  0.8429 -1.0037
  102OSM   C10S10239   3.827   2.562   5.475  0.5536 -0.6359 -0.5867
  102OSM   H10S10240   3.858   2.666   5.497  1.6183 -1.2239  0.8407
  102OSM   H10T10241   3.717   2.551   5.486  0.5128  0.4588  0.2817
  102OSM   C11S10242   3.868   2.518   5.339  0.1726 -0.2271  0.2727
  102OSM   H11S10243   3.819   2.420   5.321  1.4012 -0.5525 -1.5930
  102OSM   H11T10244   3.976   2.490   5.337  0.2012 -0.1765  0.9185
  102OSM   C12S10245   3.848   2.615   5.225  0.0009 -0.1381 -0.0307
  102OSM   H12S10246   3.918   2.697   5.249 -1.0260  0.2599  1.8080
  102OSM   H12T10247   3.745   2.655   5.238  0.3549  0.0818  3.0622
  102OSM   C13S10248   3.876   2.554   5.090  0.5403  0.4056  0.6208
  102OSM   H13S10249   3.824   2.457   5.079 -0.2550  0.6344  2.1230
  102OSM   H13T10250   3.982   2.525   5.075  0.0051 -1.6838  0.6391
  102OSM   C14S10251   3.848   2.646   4.974  0.9605  0.0902 -0.1974
  102OSM   H14S10252   3.890   2.748   4.988  2.2370  0.0697 -2.9968
  102OSM   H14T10253   3.739   2.649   4.956  1.0702  1.4586 -0.8292
  102OSM   C15S10254   3.926   2.606   4.857 -0.1180 -0.2417 -0.0989
  102OSM   H15S10255   3.903   2.499   4.838  0.2902 -0.2712 -0.4301
  102OSM   H15T10256   4.034   2.608   4.882 -0.0271  2.7432 -0.3011
  102OSM   C16S10257   3.915   2.693   4.730  0.3663  0.1322  0.6297
  102OSM   H16S10258   3.987   2.776   4.743  0.6232  0.4785 -2.2514
  102OSM   H16T10259   3.812   2.732   4.739  0.9565  1.6925  0.9826
  102OSM   C17S10260   3.945   2.623   4.601 -0.3403 -0.2167  0.8165
  102OSM   H17S10261   3.887   2.663   4.515  0.1472 -0.3131  0.4329
  102OSM   H17T10262   3.939   2.513   4.614  1.5984 -0.6638 -1.4684
  102OSM   C18S10263   4.091   2.643   4.559  0.9420  0.3503 -1.0055
  102OSM   H18S10264   4.116   2.748   4.583 -1.6974  0.4151  2.1916
  102OSM   H18T10265   4.092   2.617   4.451 -0.7752 -0.4225 -0.8658
  102OSM   H18U10266   4.161   2.576   4.614  0.5889  0.7745 -0.0198
  102OSM    C1F10267   4.354   2.634   6.119 -0.4182  0.1940  0.0962
  102OSM     OF10268   4.406   2.576   6.212 -0.7946 -0.6299  0.6837
  102OSM    C2F10269   4.422   2.642   5.985  0.2024 -0.4816  0.0329
  102OSM    H2F10270   4.433   2.747   5.951 -0.3847 -0.1989  0.7057
  102OSM    H2G10271   4.349   2.601   5.911 -1.9571  0.3965  1.5599
  102OSM    C3F10272   4.544   2.555   5.979 -0.4713  0.3790  0.1538
  102OSM    H3F10273   4.522   2.448   5.998 -2.4185  0.3664 -1.7394
  102OSM    H3G10274   4.628   2.591   6.041 -0.6350  1.8712 -0.4424
  102OSM    C4F10275   4.607   2.542   5.832  0.0109 -0.3373  0.4870
  102OSM    H4F10276   4.556   2.458   5.781 -0.8358  0.7676 -0.5444
  102OSM    H4G10277   4.715   2.520   5.846  0.1688 -0.3909 -0.7704
  102OSM    C5F10278   4.592   2.666   5.738 -0.4342  0.7848  0.5296
  102OSM    H5F10279   4.625   2.752   5.799  1.4274  0.8729 -0.5514
  102OSM    H5G10280   4.487   2.702   5.725  0.0759  2.1556  0.0786
  102OSM    C6F10281   4.678   2.648   5.615 -1.1504  0.2476  1.0165
  102OSM    H6F10282   4.780   2.611   5.640 -1.2464 -0.0316  0.9936
  102OSM    H6G10283   4.696   2.741   5.556  1.7653 -0.4585  0.6351
  102OSM    C7F10284   4.627   2.541   5.517  0.4573  0.5080  0.0706
  102OSM    H7F10285   4.524   2.557   5.480  0.4958  0.9741  0.1617
  102OSM    H7G10286   4.620   2.443   5.569 -0.8228 -0.2224 -1.4101
  102OSM    C8F10287   4.719   2.511   5.392 -0.3978  0.1988 -0.0596
  102OSM    H8F10288   4.818   2.470   5.419  0.1929  0.7125 -1.3427
  102OSM    H8G10289   4.739   2.606   5.338 -0.6164  0.4765  0.3416
  102OSM    C9F10290   4.643   2.410   5.305 -0.0751 -0.8978 -0.0974
  102OSM    H9F10291   4.614   2.312   5.346 -0.9957 -0.5131  0.1947
  102OSM   C10F10292   4.608   2.434   5.176  0.4830 -0.0682  0.3049
  102OSM   H10F10293   4.564   2.354   5.115  3.4120 -1.0464 -0.7397
  102OSM   C11F10294   4.629   2.557   5.093  0.7375 -0.4077  0.5210
  102OSM   H11F10295   4.627   2.643   5.163  2.1540 -0.2634  0.4186
  102OSM   H11G10296   4.549   2.566   5.017  0.9430 -2.7410 -0.0471
  102OSM   C12F10297   4.759   2.543   5.015  0.3847 -0.4118  0.3664
  102OSM   H12F10298   4.843   2.517   5.083 -1.6503 -0.1051  3.1784
  102OSM   H12G10299   4.804   2.632   4.965  0.7800 -1.7155 -1.7116
  102OSM   C13F10300   4.745   2.421   4.919  0.2951 -0.2412  0.3239
  102OSM   H13F10301   4.654   2.434   4.857  0.8325  0.0675 -0.4199
  102OSM   H13G10302   4.734   2.330   4.982 -0.4538  0.0353  0.5988
  102OSM   C14F10303   4.860   2.414   4.814 -0.0883  0.0544 -0.1156
  102OSM   H14F10304   4.952   2.370   4.859 -0.0329  0.9244  0.6500
  102OSM   H14G10305   4.887   2.520   4.791 -1.1491  0.5832  0.9809
  102OSM   C15F10306   4.820   2.344   4.684 -0.4219  0.7404  0.3873
  102OSM   H15F10307   4.722   2.369   4.638 -1.6377 -2.8111  0.7618
  102OSM   H15G10308   4.806   2.236   4.700 -2.7525  0.3015 -3.2667
  102OSM   C16F10309   4.930   2.355   4.570  0.1944  0.1245 -0.7590
  102OSM   H16F10310   5.020   2.306   4.613  0.5096  0.2506 -1.2633
  102OSM   H16G10311   4.964   2.459   4.552  0.7772  0.1709  0.4931
  102OSM   C17F10312   4.885   2.295   4.433  0.0152 -0.8305  0.4452
  102OSM   H17F10313   4.787   2.343   4.414  0.7929  2.0043  2.7950
  102OSM   H17G10314   4.869   2.186   4.444 -2.4674 -0.5674  0.0627
  102OSM   C18F10315   4.963   2.339   4.311 -0.5650 -0.5792  0.0280
  102OSM   H18F10316   4.948   2.448   4.296  3.0821  0.1131  0.4153
  102OSM   H18G10317   4.930   2.270   4.231  0.5132 -1.7754  0.5739
  102OSM   H18H10318   5.072   2.323   4.326 -0.7703 -0.3162  2.1157
  103OSM      N10319   3.184   6.611   6.702  0.2820  0.1542  0.6412
  103OSM    C1510320   3.151   6.698   6.811 -0.1305 -0.3404  0.3455
  103OSM   H15A10321   3.048   6.690   6.845  0.1194  0.7289  1.4034
  103OSM   H15B10322   3.177   6.794   6.772 -1.4300  0.0413  0.3656
  103OSM   H15C10323   3.210   6.685   6.901  0.4691  2.9219  0.5360
  103OSM    C1410324   3.086   6.616   6.591 -0.2345  0.3893 -0.1686
  103OSM   H14A10325   2.987   6.591   6.627 -0.8413  2.0221 -0.5874
  103OSM   H14B10326   3.107   6.541   6.516  0.9345  0.0067  0.5122
  103OSM   H14C10327   3.101   6.712   6.544 -1.0899  0.0402 -1.2235
  103OSM    C1310328   3.318   6.656   6.647 -0.0453 -0.6627 -0.2543
  103OSM   H13A10329   3.324   6.761   6.622 -1.4240 -0.2575  0.9328
  103OSM   H13B10330   3.358   6.603   6.562 -0.1283  0.7816 -1.2361
  103OSM   H13C10331   3.397   6.645   6.719  0.2475  0.4367 -0.3847
  103OSM    C1210332   3.192   6.463   6.748 -0.0103  0.5252  0.1101
  103OSM   H12A10333   3.095   6.428   6.780 -0.1092  0.1812 -0.5633
  103OSM   H12B10334   3.257   6.453   6.834 -0.2292  0.2968  0.2513
  103OSM    C1110335   3.239   6.361   6.643 -0.1342 -0.3820  0.9354
  103OSM   H11A10336   3.187   6.378   6.546  3.8659  0.3440 -1.2836
  103OSM   H11B10337   3.208   6.258   6.671 -0.1414 -2.0316 -4.1423
  103OSM      P10338   3.496   6.356   6.706 -0.0047 -0.2903 -0.0791
  103OSM    O1310339   3.599   6.453   6.664 -0.5316 -0.6023  0.6643
  103OSM    O1410340   3.441   6.361   6.842  0.7062  0.1478 -0.1314
  103OSM    O1110341   3.543   6.211   6.690  0.3870 -0.2483  0.3814
  103OSM    O1210342   3.379   6.367   6.605 -0.2335  0.4585 -0.6372
  103OSM    C1S10343   3.455   6.102   6.661 -0.4679  0.1291  0.4331
  103OSM    H1S10344   3.360   6.105   6.719 -1.6681  0.6534 -1.4813
  103OSM    H1T10345   3.496   6.008   6.703 -1.9627 -0.5982  0.3377
  103OSM     NF10346   3.322   5.966   6.494 -0.7295 -0.0187  0.2248
  103OSM    HNF10347   3.341   5.869   6.497 -0.3253  0.0756  0.9893
  103OSM    C2S10348   3.428   6.068   6.513 -0.3041 -0.3049  0.1178
  103OSM    H2S10349   3.383   6.159   6.467  0.0974 -0.6102 -0.9185
  103OSM    C3S10350   3.558   6.039   6.432 -0.6597  0.2539  1.0040
  103OSM    H3S10351   3.600   5.947   6.476  2.0645 -0.5492 -2.8065
  103OSM     O310352   3.663   6.138   6.447 -0.1038  0.1373 -0.2577
  103OSM    HO310353   3.650   6.172   6.536  0.9067  0.6342 -0.2815
  103OSM    C4S10354   3.538   6.012   6.283 -0.5867  0.4130 -0.8823
  103OSM    H4S10355   3.513   5.905   6.269  0.3963 -0.2203  1.6152
  103OSM    C5S10356   3.538   6.102   6.182  0.2484  0.1998 -1.2829
  103OSM    H5S10357   3.534   6.208   6.210 -0.3613 -0.3132  0.8211
  103OSM    C6S10358   3.517   6.051   6.040 -0.1044 -0.1517  0.1599
  103OSM    H6S10359   3.419   6.000   6.033 -0.0829 -0.3304  1.0291
  103OSM    H6T10360   3.585   5.964   6.032 -2.7684 -2.3052 -0.5312
  103OSM    C7S10361   3.537   6.152   5.929 -0.7159 -0.5303  0.4094
  103OSM    H7S10362   3.642   6.189   5.934 -0.7338 -0.1799 -1.1217
  103OSM    H7T10363   3.458   6.228   5.946 -0.6685 -0.0581 -1.2597
  103OSM    C8S10364   3.504   6.083   5.789 -0.6963  0.1745  0.5142
  103OSM    H8S10365   3.505   6.162   5.711  0.4131  0.2521  0.5917
  103OSM    H8T10366   3.401   6.042   5.781 -1.0830  1.3953 -1.2494
  103OSM    C9S10367   3.606   5.982   5.743 -0.6314 -0.5731 -0.0465
  103OSM    H9S10368   3.618   5.903   5.820 -0.8303 -0.1930  0.3751
  103OSM    H9T10369   3.711   6.013   5.729 -0.7929  0.7225  1.4142
  103OSM   C10S10370   3.559   5.900   5.615  0.3354 -0.1594 -0.2130
  103OSM   H10S10371   3.469   5.837   5.627  2.6259 -3.6214  0.1742
  103OSM   H10T10372   3.640   5.826   5.596 -1.7329 -2.7255  0.4127
  103OSM   C11S10373   3.556   5.994   5.494 -0.0408 -0.5657  0.0396
  103OSM   H11S10374   3.613   6.084   5.524  0.1325 -0.3541 -0.9157
  103OSM   H11T10375   3.451   6.026   5.478  0.0621  0.6792  1.5916
  103OSM   C12S10376   3.624   5.943   5.360  0.3618 -0.0607  1.0989
  103OSM   H12S10377   3.586   5.841   5.337  3.0426 -0.6296 -1.4491
  103OSM   H12T10378   3.733   5.923   5.371 -0.2486 -3.3644  2.3900
  103OSM   C13S10379   3.591   6.023   5.239 -0.1140 -0.1941  1.0030
  103OSM   H13S10380   3.665   6.104   5.227 -1.5192  1.2728  1.8187
  103OSM   H13T10381   3.487   6.058   5.255 -0.1286 -0.7751  2.3480
  103OSM   C14S10382   3.589   5.938   5.104  0.2365  0.6770 -0.3047
  103OSM   H14S10383   3.510   5.860   5.109  1.0598 -0.1204  0.2889
  103OSM   H14T10384   3.684   5.881   5.096 -1.2323 -1.7727 -1.5878
  103OSM   C15S10385   3.557   6.023   4.982  0.0121  1.0055  0.0839
  103OSM   H15S10386   3.631   6.105   4.964 -0.9991  2.7350  3.0914
  103OSM   H15T10387   3.454   6.063   4.991 -0.9768 -1.2495 -0.7189
  103OSM   C16S10388   3.562   5.922   4.860 -0.6914 -0.1262 -0.2629
  103OSM   H16S10389   3.489   5.840   4.873 -0.5668 -0.4043 -1.2429
  103OSM   H16T10390   3.660   5.871   4.870 -2.4676 -3.2791  2.9737
  103OSM   C17S10391   3.539   5.982   4.724 -0.3664  0.1714  0.0568
  103OSM   H17S10392   3.615   6.055   4.689  0.2155 -0.8697 -0.9504
  103OSM   H17T10393   3.448   6.045   4.731 -1.5828 -1.4407 -0.7135
  103OSM   C18S10394   3.524   5.881   4.617  0.1733 -0.4016  0.2552
  103OSM   H18S10395   3.616   5.818   4.614  0.2048 -0.3194 -0.5267
  103OSM   H18T10396   3.490   5.924   4.521 -1.2310  3.5019  2.2658
  103OSM   H18U10397   3.447   5.803   4.635 -1.0603  0.9545  1.1402
  103OSM    C1F10398   3.194   5.991   6.506 -1.1965 -0.1824  0.6850
  103OSM     OF10399   3.144   6.089   6.550 -0.1395 -0.3118 -0.3931
  103OSM    C2F10400   3.110   5.880   6.478  0.2976 -0.3188  0.4008
  103OSM    H2F10401   3.025   5.877   6.550  1.9286  1.5253  2.5694
  103OSM    H2G10402   3.181   5.795   6.485  1.4504  0.5080 -0.7923
  103OSM    C3F10403   3.052   5.877   6.336 -0.0135 -0.2227 -0.3307
  103OSM    H3F10404   2.992   5.967   6.310 -1.7172 -1.1556  0.1603
  103OSM    H3G10405   2.973   5.799   6.332  1.6943 -1.9563 -1.7043
  103OSM    C4F10406   3.153   5.863   6.223 -0.1551 -0.1790  0.7181
  103OSM    H4F10407   3.232   5.940   6.237  1.4193 -1.4669 -0.6629
  103OSM    H4G10408   3.104   5.876   6.124 -1.0649 -2.1158  0.8636
  103OSM    C5F10409   3.221   5.726   6.234 -0.4961 -0.5114 -0.1602
  103OSM    H5F10410   3.150   5.641   6.249  1.0151 -1.9605 -0.9305
  103OSM    H5G10411   3.280   5.729   6.328 -3.3189 -0.2539  1.7340
  103OSM    C6F10412   3.319   5.686   6.120  0.2571  0.1136 -0.6732
  103OSM    H6F10413   3.369   5.595   6.158  0.4981  0.0489 -1.1422
  103OSM    H6G10414   3.392   5.770   6.116 -0.1258  0.4671 -0.3837
  103OSM    C7F10415   3.256   5.671   5.986  0.3197 -0.4001  0.8684
  103OSM    H7F10416   3.186   5.757   5.982 -0.6246 -0.9717  3.2517
  103OSM    H7G10417   3.202   5.574   5.986  2.2064 -1.4972  1.3114
  103OSM    C8F10418   3.354   5.687   5.866 -0.7136  0.2606  0.1655
  103OSM    H8F10419   3.433   5.609   5.861  1.2505  2.1800 -4.0693
  103OSM    H8G10420   3.406   5.785   5.864  0.4426 -0.3424 -0.7503
  103OSM    C9F10421   3.274   5.676   5.737 -0.0270 -0.1679 -0.6547
  103OSM    H9F10422   3.178   5.729   5.738 -0.3576 -0.7544 -0.0137
  103OSM   C10F10423   3.317   5.619   5.627 -0.4935  0.4963 -0.2011
  103OSM   H10F10424   3.254   5.625   5.536  0.3825 -1.0692 -0.9546
  103OSM   C11F10425   3.440   5.533   5.593  0.4067  0.4971 -0.7476
  103OSM   H11F10426   3.416   5.426   5.612  0.1553  0.8481  1.0527
  103OSM   H11G10427   3.530   5.555   5.652 -0.0803 -2.6532  1.4423
  103OSM   C12F10428   3.492   5.542   5.452 -0.4608  0.0940  0.0224
  103OSM   H12F10429   3.581   5.476   5.440 -1.0441 -0.5864 -0.6329
  103OSM   H12G10430   3.530   5.645   5.435 -0.5754 -0.3179 -3.3975
  103OSM   C13F10431   3.393   5.506   5.337 -0.2675 -0.3876  0.5562
  103OSM   H13F10432   3.293   5.553   5.346  0.1962  0.7072  0.2046
  103OSM   H13G10433   3.370   5.398   5.350  0.6310 -0.9191 -1.8216
  103OSM   C14F10434   3.455   5.515   5.195  0.4190 -0.5697  0.0531
  103OSM   H14F10435   3.535   5.441   5.175 -0.3592 -1.2708 -0.4898
  103OSM   H14G10436   3.497   5.615   5.170 -3.5648  1.0027 -1.1176
  103OSM   C15F10437   3.355   5.467   5.094  0.2487  0.2458  0.2441
  103OSM   H15F10438   3.284   5.551   5.080  0.0351 -0.1534 -1.3331
  103OSM   H15G10439   3.312   5.369   5.122  2.0176  0.1518  3.0624
  103OSM   C16F10440   3.428   5.454   4.955 -0.3306 -0.5092  0.9014
  103OSM   H16F10441   3.531   5.415   4.969 -0.0791  0.2805  1.3316
  103OSM   H16G10442   3.452   5.556   4.917  1.3899 -0.0573  2.9900
  103OSM   C17F10443   3.346   5.367   4.852  0.5315  1.1330  0.1332
  103OSM   H17F10444   3.244   5.412   4.851 -1.0158 -1.9130  3.0622
  103OSM   H17G10445   3.340   5.264   4.892  0.1872  1.5589  1.2166
  103OSM   C18F10446   3.403   5.357   4.712 -0.0152  0.0396 -0.1011
  103OSM   H18F10447   3.425   5.456   4.668 -0.1946  0.1466  0.0472
  103OSM   H18G10448   3.326   5.311   4.645  0.0526  0.0769 -0.2054
  103OSM   H18H10449   3.490   5.289   4.712 -0.1206 -0.0997 -0.2657
  104OSM      N10450   3.818   5.681   6.916  0.1143  0.0692 -0.1093
  104OSM    C1510451   3.734   5.559   6.955 -0.1915 -0.0770  0.8136
  104OSM   H15A10452   3.768   5.460   6.928  1.4402  0.7941 -0.4864
  104OSM   H15B10453   3.634   5.565   6.916  0.2179 -3.3930 -1.1951
  104OSM   H15C10454   3.710   5.561   7.060  0.5833  0.1314  0.9992
  104OSM    C1410455   3.770   5.809   6.979 -0.3425 -0.0244  0.3401
  104OSM   H14A10456   3.827   5.895   6.948 -1.2496 -0.0473 -1.6059
  104OSM   H14B10457   3.784   5.789   7.084  1.6658 -0.0002  0.1059
  104OSM   H14C10458   3.663   5.822   6.969 -0.4260 -0.3389  0.7894
  104OSM    C1310459   3.958   5.665   6.963  0.0035 -0.7007 -0.9625
  104OSM   H13A10460   3.967   5.682   7.069  1.9596  2.2862 -1.4966
  104OSM   H13B10461   4.025   5.726   6.904 -0.0136 -1.9836 -2.3752
  104OSM   H13C10462   3.994   5.566   6.939 -0.3521 -1.4927  1.4969
  104OSM    C1210463   3.828   5.706   6.762  0.5524  0.1796  0.0355
  104OSM   H12A10464   3.878   5.628   6.707 -0.6789 -0.5313 -0.1168
  104OSM   H12B10465   3.879   5.801   6.761 -2.9294  2.3067  2.6575
  104OSM    C1110466   3.689   5.724   6.690  0.7250  0.1301 -0.7886
  104OSM   H11A10467   3.707   5.765   6.588 -0.7647  0.1747 -1.0580
  104OSM   H11B10468   3.635   5.802   6.747  1.1990  1.3699 -1.9707
  104OSM      P10469   3.495   5.584   6.595  0.2194  0.4110  0.4513
  104OSM    O1310470   3.418   5.466   6.638 -0.0645  0.5926  0.2301
  104OSM    O1410471   3.428   5.717   6.601  0.1764  0.0895  0.0702
  104OSM    O1110472   3.562   5.567   6.453 -0.2715  0.1262  0.3479
  104OSM    O1210473   3.624   5.599   6.686  0.2495  0.3210 -0.2768
  104OSM    C1S10474   3.650   5.457   6.432  0.5543  0.0729 -0.0383
  104OSM    H1S10475   3.630   5.364   6.490  0.8355  0.0509  0.0249
  104OSM    H1T10476   3.752   5.487   6.466  1.3243 -1.2579 -1.0521
  104OSM     NF10477   3.737   5.286   6.271  0.4837  0.3595 -0.0550
  104OSM    HNF10478   3.832   5.301   6.245  0.2084 -0.1078 -1.3967
  104OSM    C2S10479   3.663   5.410   6.287  0.2313 -0.0761 -0.0088
  104OSM    H2S10480   3.559   5.391   6.255 -0.6565  0.2903  2.4936
  104OSM    C3S10481   3.709   5.526   6.193  0.2928 -0.0605  0.4910
  104OSM    H3S10482   3.812   5.560   6.217 -0.1554  1.7699 -0.0064
  104OSM     O310483   3.627   5.640   6.203  0.2020 -0.8876 -0.2223
  104OSM    HO310484   3.584   5.627   6.288  0.8510 -1.5583  0.0182
  104OSM    C4S10485   3.690   5.489   6.045 -0.3769 -0.7735 -0.3712
  104OSM    H4S10486   3.583   5.491   6.020 -0.0378  0.4613 -1.9141
  104OSM    C5S10487   3.782   5.446   5.960 -0.2152  0.0280 -0.4326
  104OSM    H5S10488   3.883   5.417   5.992 -0.3718 -0.4848 -0.4006
  104OSM    C6S10489   3.746   5.408   5.822 -0.4189  0.5281  0.2037
  104OSM    H6S10490   3.790   5.488   5.758  0.5914  0.2850  0.5787
  104OSM    H6T10491   3.638   5.407   5.794 -0.0096  1.6997 -1.5646
  104OSM    C7S10492   3.821   5.281   5.780 -0.5369  0.6629 -0.2030
  104OSM    H7S10493   3.824   5.206   5.862  2.1351  0.6762 -0.1836
  104OSM    H7T10494   3.930   5.304   5.778 -0.5304  0.6153 -0.3410
  104OSM    C8S10495   3.776   5.212   5.657  0.0856  0.1689 -0.2483
  104OSM    H8S10496   3.670   5.187   5.638  0.0563  1.0416 -1.3581
  104OSM    H8T10497   3.828   5.114   5.666 -1.8123 -1.0368 -1.7053
  104OSM    C9S10498   3.830   5.280   5.528 -0.4860  1.1688 -0.9538
  104OSM    H9S10499   3.940   5.295   5.537 -0.3569 -0.5580  1.4824
  104OSM    H9T10500   3.780   5.378   5.544 -0.4451  0.9594  0.7048
  104OSM   C10S10501   3.785   5.205   5.400 -0.2886 -0.4971  0.3718
  104OSM   H10S10502   3.819   5.263   5.312 -1.0472 -3.3178 -1.9375
  104OSM   H10T10503   3.675   5.198   5.390 -0.2735  0.8345 -1.0315
  104OSM   C11S10504   3.854   5.066   5.398  0.7300  0.8590 -0.1427
  104OSM   H11S10505   3.815   5.010   5.485  0.5586 -0.7793 -1.2199
  104OSM   H11T10506   3.963   5.073   5.414  0.9972 -0.8105 -0.9882
  104OSM   C12S10507   3.822   4.980   5.274  0.1610 -0.4804  0.4325
  104OSM   H12S10508   3.713   4.957   5.276  0.2392 -1.2963 -1.7085
  104OSM   H12T10509   3.875   4.883   5.286  0.3173 -0.3233  1.0119
  104OSM   C13S10510   3.857   5.036   5.139 -0.0898  0.3530 -0.0519
  104OSM   H13S10511   3.966   5.050   5.119 -0.5135  0.4964 -2.6592
  104OSM   H13T10512   3.804   5.133   5.136 -3.2647 -1.2124  0.8002
  104OSM   C14S10513   3.810   4.952   5.023 -0.2536  0.2565 -0.5455
  104OSM   H14S10514   3.796   4.847   5.058 -1.4521  0.4040 -0.5502
  104OSM   H14T10515   3.889   4.936   4.946 -1.4167 -0.9900 -1.5373
  104OSM   C15S10516   3.685   5.009   4.954  0.5729 -0.1712 -0.1468
  104OSM   H15S10517   3.612   5.025   5.036  0.0878 -0.5957 -0.4885
  104OSM   H15T10518   3.641   4.927   4.893  0.8279  0.2884 -0.9583
  104OSM   C16S10519   3.706   5.132   4.866  0.1070  0.7406  0.3751
  104OSM   H16S10520   3.785   5.197   4.909 -0.5042  0.6355  1.7020
  104OSM   H16T10521   3.605   5.179   4.872  0.0340  0.6885 -0.3386
  104OSM   C17S10522   3.746   5.094   4.723 -0.0837  0.2958 -0.5455
  104OSM   H17S10523   3.848   5.053   4.716  0.0789  0.7264 -0.7317
  104OSM   H17T10524   3.749   5.197   4.680  2.1802  0.6769  0.4153
  104OSM   C18S10525   3.645   5.006   4.646  0.0492 -0.5981  0.6810
  104OSM   H18S10526   3.545   5.053   4.633  0.4393 -0.3391 -1.7170
  104OSM   H18T10527   3.633   4.912   4.704 -2.3837  0.4941  2.1397
  104OSM   H18U10528   3.674   4.993   4.540 -1.4866  2.5953 -0.2729
  104OSM    C1F10529   3.705   5.166   6.322  0.2130  0.7830 -0.4604
  104OSM     OF10530   3.600   5.133   6.378 -0.1762  0.6101 -0.0660
  104OSM    C2F10531   3.811   5.054   6.314  0.5994 -0.1031 -0.6922
  104OSM    H2F10532   3.822   5.029   6.422  3.1737  1.1562 -0.5960
  104OSM    H2G10533   3.910   5.088   6.279  0.4634 -0.9381 -1.9261
  104OSM    C3F10534   3.777   4.944   6.214  0.8015 -0.3043 -0.3336
  104OSM    H3F10535   3.739   4.994   6.122 -0.5904  0.7858  0.7908
  104OSM    H3G10536   3.694   4.883   6.255 -0.4469  1.6936  0.1835
  104OSM    C4F10537   3.885   4.846   6.181  0.4398 -0.0606  0.3507
  104OSM    H4F10538   3.851   4.766   6.111  1.7688  2.3021 -3.2807
  104OSM    H4G10539   3.944   4.802   6.264  0.6972 -0.8884 -0.2580
  104OSM    C5F10540   3.996   4.910   6.092 -1.0890 -0.2573 -0.3204
  104OSM    H5F10541   4.088   4.848   6.097 -0.3152  0.9157  1.2446
  104OSM    H5G10542   4.032   5.000   6.147 -0.5750  0.0968 -1.2226
  104OSM    C6F10543   3.978   4.944   5.945  0.2577 -0.0988 -0.1321
  104OSM    H6F10544   3.888   5.009   5.936 -1.1195 -1.5036  2.4270
  104OSM    H6G10545   3.965   4.852   5.884 -1.9713  0.2873 -0.3301
  104OSM    C7F10546   4.091   5.030   5.888 -0.7404 -0.3942 -0.0190
  104OSM    H7F10547   4.117   5.115   5.955 -1.8642  0.4319 -0.6047
  104OSM    H7G10548   4.059   5.075   5.791 -1.7313 -1.5113 -0.2402
  104OSM    C8F10549   4.224   4.955   5.847  0.1618  0.4481  0.4975
  104OSM    H8F10550   4.206   4.878   5.768  2.1231 -1.1726  1.5245
  104OSM    H8G10551   4.256   4.891   5.932  2.3798  1.9410  0.8672
  104OSM    C9F10552   4.342   5.030   5.803 -0.3419  0.1520  0.2802
  104OSM    H9F10553   4.396   5.071   5.890  0.6933  0.0521 -0.3059
  104OSM   C10F10554   4.382   5.056   5.678  0.7424  0.3918 -0.7665
  104OSM   H10F10555   4.474   5.114   5.666  0.1032  1.3469 -1.2175
  104OSM   C11F10556   4.332   4.995   5.552 -0.0393 -0.1552 -0.0563
  104OSM   H11F10557   4.254   5.063   5.512  1.6086  0.3500 -2.7086
  104OSM   H11G10558   4.284   4.896   5.568 -1.1247  0.2396 -0.7372
  104OSM   C12F10559   4.431   4.973   5.439 -0.1472 -0.8643  0.0279
  104OSM   H12F10560   4.521   4.924   5.482  2.0074  2.5522 -0.1819
  104OSM   H12G10561   4.455   5.079   5.417 -0.3272 -0.8426 -0.0705
  104OSM   C13F10562   4.369   4.903   5.318 -0.6166 -0.8744  0.0649
  104OSM   H13F10563   4.283   4.963   5.281 -0.0307 -0.0601 -0.0071
  104OSM   H13G10564   4.345   4.800   5.351  2.6479 -1.3220  1.4446
  104OSM   C14F10565   4.469   4.873   5.203  0.5730  0.0680  0.4042
  104OSM   H14F10566   4.547   4.800   5.234  1.3965  0.0531 -1.5393
  104OSM   H14G10567   4.517   4.967   5.167 -0.0078  1.0327  2.0169
  104OSM   C15F10568   4.394   4.810   5.085 -0.1893  0.3686 -0.1994
  104OSM   H15F10569   4.314   4.879   5.051  0.0748  0.2915 -1.0001
  104OSM   H15G10570   4.343   4.717   5.116 -1.7574  1.4475  0.6035
  104OSM   C16F10571   4.498   4.795   4.977 -0.7093 -0.5244 -0.4019
  104OSM   H16F10572   4.575   4.722   5.009 -0.8286 -0.3257  0.3440
  104OSM   H16G10573   4.547   4.892   4.955  1.0107 -0.5468  2.7528
  104OSM   C17F10574   4.437   4.747   4.846  0.0077 -0.0751  0.7471
  104OSM   H17F10575   4.372   4.828   4.808  0.6610  1.8124  3.3992
  104OSM   H17G10576   4.378   4.659   4.880  1.6484 -1.1331  0.9964
  104OSM   C18F10577   4.542   4.703   4.742 -0.1334 -0.0765  0.0466
  104OSM   H18F10578   4.600   4.619   4.787 -0.8375  0.5707  2.2704
  104OSM   H18G10579   4.614   4.786   4.722  0.9520 -1.3004 -1.4331
  104OSM   H18H10580   4.498   4.667   4.647 -0.2791 -1.5771  0.6432
  105OSM      N10581   5.434   4.434   6.459 -0.3670  0.3211 -1.0537
  105OSM    C1510582   5.316   4.350   6.445  0.3970  0.5236  0.5287
  105OSM   H15A10583   5.293   4.290   6.532 -1.2534  1.7603  1.0110
  105OSM   H15B10584   5.322   4.295   6.352 -0.2673  0.8865  0.2583
  105OSM   H15C10585   5.224   4.407   6.438 -0.1609 -0.1967  1.7175
  105OSM    C1410586   5.458   4.493   6.323  0.5074 -0.4310  0.4634
  105OSM   H14A10587   5.363   4.530   6.286  1.5048  2.6258  0.6448
  105OSM   H14B10588   5.505   4.416   6.263  0.3662 -1.5105  1.6994
  105OSM   H14C10589   5.524   4.579   6.321 -0.3322  0.2165 -0.5469
  105OSM    C1310590   5.398   4.543   6.559 -0.5587  0.2802  0.1706
  105OSM   H13A10591   5.391   4.511   6.662 -1.4734  1.2075  0.4114
  105OSM   H13B10592   5.306   4.589   6.528  0.2857  1.4181 -0.7655
  105OSM   H13C10593   5.475   4.619   6.567  0.1346 -0.5104  1.3851
  105OSM    C1210594   5.561   4.350   6.495  0.2848 -0.5476 -0.2501
  105OSM   H12A10595   5.537   4.303   6.589 -1.2578 -0.8389 -0.7588
  105OSM   H12B10596   5.649   4.412   6.507 -1.1043  2.2907 -3.1394
  105OSM    C1110597   5.602   4.247   6.386 -1.0661  0.3662 -0.4867
  105OSM   H11A10598   5.521   4.184   6.344  1.2440 -2.1378 -1.5206
  105OSM   H11B10599   5.673   4.185   6.446 -2.2062 -1.3432 -0.8388
  105OSM      P10600   5.745   4.234   6.166 -0.0101 -0.2037 -0.0867
  105OSM    O1310601   5.728   4.304   6.037 -0.0794 -0.5435 -0.2095
  105OSM    O1410602   5.881   4.214   6.209  0.4137  0.0734 -0.1907
  105OSM    O1110603   5.671   4.093   6.156  0.3014 -0.7300  0.4780
  105OSM    O1210604   5.667   4.305   6.278 -0.4796  0.2969 -0.0835
  105OSM    C1S10605   5.567   4.060   6.065 -0.2395 -0.1524  0.1327
  105OSM    H1S10606   5.498   4.145   6.052  1.3607  1.1723 -0.1084
  105OSM    H1T10607   5.507   3.982   6.115 -1.3298  0.5811 -0.0131
  105OSM     NF10608   5.521   3.993   5.828 -0.1727  0.1524  0.7534
  105OSM    HNF10609   5.519   3.911   5.772  1.5032  0.9549 -0.5724
  105OSM    C2S10610   5.627   4.010   5.930  0.3157 -0.2143  0.4053
  105OSM    H2S10611   5.695   4.087   5.887  0.8768 -1.3335 -0.7784
  105OSM    C3S10612   5.717   3.892   5.949  0.0872 -0.4838 -0.5833
  105OSM    H3S10613   5.654   3.801   5.965 -0.0376 -0.3762 -0.4589
  105OSM     O310614   5.805   3.888   6.064 -0.0563 -0.7218 -0.3802
  105OSM    HO310615   5.777   3.965   6.114 -0.4876 -2.5556  2.4716
  105OSM    C4S10616   5.782   3.854   5.819 -0.2159 -0.5734 -0.2554
  105OSM    H4S10617   5.714   3.794   5.757 -2.6737  2.0160 -0.2387
  105OSM    C5S10618   5.893   3.905   5.761 -0.0414  0.2888 -0.2017
  105OSM    H5S10619   5.961   3.965   5.824 -0.4386 -0.7794  1.3093
  105OSM    C6S10620   5.945   3.895   5.619 -0.2615  0.4652 -0.0611
  105OSM    H6S10621   5.969   3.996   5.580 -0.1126  0.1273 -0.8595
  105OSM    H6T10622   5.876   3.837   5.554 -0.5332  0.0098  0.6233
  105OSM    C7S10623   6.082   3.818   5.621 -0.2998 -0.4144  0.2919
  105OSM    H7S10624   6.078   3.719   5.672 -2.0492 -1.4784 -1.7696
  105OSM    H7T10625   6.147   3.884   5.683 -1.4521 -0.9885  2.2245
  105OSM    C8S10626   6.149   3.796   5.481 -1.1132 -0.4911 -0.1914
  105OSM    H8S10627   6.240   3.735   5.502 -2.1275 -1.3368  2.0293
  105OSM    H8T10628   6.192   3.888   5.436 -0.6177 -1.0670 -0.9259
  105OSM    C9S10629   6.060   3.743   5.362  0.2138 -0.1655 -0.8220
  105OSM    H9S10630   5.983   3.820   5.337  0.3888 -0.5500 -2.6994
  105OSM    H9T10631   6.018   3.642   5.380  3.0044 -1.2155  0.1484
  105OSM   C10S10632   6.138   3.731   5.229 -0.4794 -0.4500 -0.6848
  105OSM   H10S10633   6.188   3.632   5.235 -1.5188 -0.9944 -0.7275
  105OSM   H10T10634   6.211   3.813   5.215  0.0502 -0.8302 -0.1790
  105OSM   C11S10635   6.042   3.708   5.109 -0.5672 -0.1358 -0.6793
  105OSM   H11S10636   5.979   3.798   5.099  0.5032  0.6760 -0.2491
  105OSM   H11T10637   5.970   3.624   5.123 -1.3533  0.6634  0.1394
  105OSM   C12S10638   6.118   3.678   4.974 -0.0342  0.4391  0.3523
  105OSM   H12S10639   6.166   3.578   4.970  0.9083  0.9043 -2.6627
  105OSM   H12T10640   6.198   3.754   4.967 -0.2628  0.7135  0.6853
  105OSM   C13S10641   6.014   3.692   4.868 -0.0053 -0.6170  0.3606
  105OSM   H13S10642   5.974   3.794   4.888  0.4650 -0.2148 -0.6703
  105OSM   H13T10643   5.929   3.621   4.880  0.7734 -1.7329 -0.4906
  105OSM   C14S10644   6.047   3.677   4.724  0.2267  0.6602 -0.7544
  105OSM   H14S10645   5.960   3.699   4.659  0.4270 -0.1620 -1.3117
  105OSM   H14T10646   6.081   3.576   4.695  0.8428  1.1334 -1.7503
  105OSM   C15S10647   6.164   3.763   4.669 -0.0576 -0.7695 -1.0145
  105OSM   H15S10648   6.262   3.757   4.721  0.4159  1.6901 -1.4749
  105OSM   H15T10649   6.137   3.870   4.680 -0.8998 -0.7792 -2.6112
  105OSM   C16S10650   6.185   3.743   4.523 -0.3593  0.1104 -0.1514
  105OSM   H16S10651   6.082   3.743   4.481 -0.6116 -1.0961  0.3993
  105OSM   H16T10652   6.218   3.637   4.513 -2.9014 -0.8472  0.6062
  105OSM   C17S10653   6.284   3.830   4.459  0.6931  0.4948 -0.1999
  105OSM   H17S10654   6.273   3.934   4.496  1.6502  0.9450 -1.1450
  105OSM   H17T10655   6.257   3.835   4.352  2.0494  0.2383 -0.5717
  105OSM   C18S10656   6.425   3.785   4.488 -0.6424  0.5075  0.0351
  105OSM   H18S10657   6.439   3.774   4.598  1.7284 -0.4238 -0.2961
  105OSM   H18T10658   6.500   3.859   4.454  0.2464  0.3454  1.5367
  105OSM   H18U10659   6.443   3.683   4.447  2.1837  0.5046  1.0449
  105OSM    C1F10660   5.458   4.095   5.791  0.1244 -0.0685  0.3437
  105OSM     OF10661   5.492   4.209   5.824 -0.3681  0.3479 -0.1535
  105OSM    C2F10662   5.336   4.087   5.710 -0.2825  0.4209  0.2189
  105OSM    H2F10663   5.305   3.984   5.684 -0.7448 -0.5336  4.0141
  105OSM    H2G10664   5.349   4.148   5.617 -3.4106  2.1317  0.7408
  105OSM    C3F10665   5.214   4.145   5.777 -0.1151 -0.3845  0.0417
  105OSM    H3F10666   5.231   4.251   5.808  0.7254 -0.2622 -0.8195
  105OSM    H3G10667   5.191   4.083   5.866 -2.5326 -1.6406 -1.3393
  105OSM    C4F10668   5.094   4.146   5.687 -0.2865  0.0136  0.5505
  105OSM    H4F10669   5.022   4.070   5.725 -1.7103  0.4713 -1.0723
  105OSM    H4G10670   5.118   4.126   5.580  0.2992 -0.0219  0.6889
  105OSM    C5F10671   5.017   4.281   5.693  0.0131  0.4472 -0.4085
  105OSM    H5F10672   4.986   4.310   5.796 -0.6020 -1.0281 -0.1611
  105OSM    H5G10673   4.919   4.259   5.646  0.0215  1.4972 -0.9452
  105OSM    C6F10674   5.079   4.399   5.608  0.3266 -0.2650 -0.0597
  105OSM    H6F10675   5.119   4.356   5.513 -2.4742  0.7665 -1.8037
  105OSM    H6G10676   5.169   4.440   5.659  0.4056  0.0744 -0.4652
  105OSM    C7F10677   4.989   4.518   5.576 -0.2099 -0.0810  0.3341
  105OSM    H7F10678   4.971   4.575   5.669 -1.7414 -1.7698  1.1400
  105OSM    H7G10679   4.891   4.481   5.538 -0.4989 -1.4383  2.2801
  105OSM    C8F10680   5.044   4.617   5.469 -0.4703 -0.4039 -0.9268
  105OSM    H8F10681   5.138   4.668   5.495 -0.5132 -0.6516 -0.2704
  105OSM    H8G10682   4.979   4.706   5.456 -2.6288 -1.6652  0.5297
  105OSM    C9F10683   5.055   4.547   5.340  0.8743  0.0655  0.9399
  105OSM    H9F10684   5.137   4.475   5.332 -0.3762 -1.3828  0.5896
  105OSM   C10F10685   4.980   4.564   5.228  0.3119 -0.7969  0.0990
  105OSM   H10F10686   5.000   4.498   5.142 -0.0392 -0.6254 -0.1139
  105OSM   C11F10687   4.878   4.677   5.211  0.0051 -0.4146  0.4937
  105OSM   H11F10688   4.828   4.698   5.308 -0.9681 -0.6337  0.0476
  105OSM   H11G10689   4.802   4.648   5.135 -0.8724  0.9800  0.8056
  105OSM   C12F10690   4.929   4.811   5.154 -0.4877  0.4718  0.1520
  105OSM   H12F10691   4.996   4.855   5.231 -0.0554  1.2436 -0.6537
  105OSM   H12G10692   4.845   4.881   5.141  1.3592  2.3212 -2.7466
  105OSM   C13F10693   4.995   4.795   5.010  0.4892  0.1657 -0.2679
  105OSM   H13F10694   5.077   4.721   5.018 -0.1715 -0.3741  2.0619
  105OSM   H13G10695   5.031   4.897   4.984 -1.6698  0.6777 -1.5123
  105OSM   C14F10696   4.881   4.767   4.905  0.5633 -0.2135  0.3130
  105OSM   H14F10697   4.812   4.854   4.898 -0.9727 -1.3670  0.6866
  105OSM   H14G10698   4.826   4.679   4.943  0.3682  0.4389  1.6012
  105OSM   C15F10699   4.943   4.751   4.766 -0.2557 -0.6652  1.1280
  105OSM   H15F10700   4.983   4.850   4.736 -0.1735 -1.8626 -3.4381
  105OSM   H15G10701   4.864   4.721   4.693  0.1066  0.6822  0.1448
  105OSM   C16F10702   5.051   4.646   4.744 -0.1281 -0.3961 -0.0099
  105OSM   H16F10703   5.013   4.557   4.797 -1.6416  0.1774 -0.0715
  105OSM   H16G10704   5.145   4.674   4.796 -1.7216 -1.1207  3.5580
  105OSM   C17F10705   5.070   4.629   4.588 -0.1212 -0.2870  0.0333
  105OSM   H17F10706   5.077   4.731   4.544 -2.1161  0.5941  1.6385
  105OSM   H17G10707   4.975   4.582   4.557 -0.6190  1.3589 -1.0772
  105OSM   C18F10708   5.188   4.542   4.550  0.2191  0.1059  0.0099
  105OSM   H18F10709   5.192   4.542   4.439  2.1091 -0.8328  0.0392
  105OSM   H18G10710   5.180   4.438   4.588 -1.3406 -0.4355 -1.6371
  105OSM   H18H10711   5.285   4.588   4.578  1.6463 -1.8520 -1.4074
  106OSM      N10712   4.183   1.625   6.308  0.5326 -0.6185  0.1704
  106OSM    C1510713   4.210   1.511   6.402 -0.1862  0.4071  0.0783
  106OSM   H15A10714   4.129   1.440   6.412 -2.0309  2.5047  1.1055
  106OSM   H15B10715   4.229   1.555   6.499 -0.7110  1.4759 -0.2770
  106OSM   H15C10716   4.300   1.466   6.362  0.2328  0.2555  1.1662
  106OSM    C1410717   4.135   1.580   6.173  0.5700 -0.0091 -0.1363
  106OSM   H14A10718   4.038   1.531   6.168  0.0466  1.0805 -1.0324
  106OSM   H14B10719   4.209   1.516   6.127 -0.3232 -1.2634  0.1222
  106OSM   H14C10720   4.123   1.663   6.105  1.5444  0.2231 -0.0311
  106OSM    C1310721   4.080   1.719   6.354 -0.3589 -0.4685 -0.2001
  106OSM   H13A10722   3.983   1.673   6.347 -0.2753 -0.8568  0.9581
  106OSM   H13B10723   4.077   1.805   6.289  1.5746  0.6735  1.1123
  106OSM   H13C10724   4.083   1.755   6.455 -1.4673  2.9419 -1.2668
  106OSM    C1210725   4.314   1.697   6.278 -1.1190  0.1059 -0.2916
  106OSM   H12A10726   4.365   1.745   6.360  2.3091 -2.1426 -0.8707
  106OSM   H12B10727   4.299   1.778   6.209 -0.0141  0.1864 -0.4662
  106OSM    C1110728   4.428   1.611   6.213 -0.5563 -0.5611 -0.4834
  106OSM   H11A10729   4.512   1.679   6.188 -0.7884 -0.1138 -0.0772
  106OSM   H11B10730   4.398   1.557   6.121  2.1210 -1.8486 -0.6781
  106OSM      P10731   4.573   1.399   6.295  0.5453 -0.1906 -0.1622
  106OSM    O1310732   4.690   1.422   6.373 -0.6334 -0.2195  0.6644
  106OSM    O1410733   4.504   1.274   6.330  0.0378  0.1941  0.2830
  106OSM    O1110734   4.599   1.410   6.142  0.2199  0.4953 -0.0997
  106OSM    O1210735   4.479   1.521   6.314 -0.0644  0.1714  0.3775
  106OSM    C1S10736   4.643   1.294   6.068  0.0376  0.1490 -0.5909
  106OSM    H1S10737   4.576   1.206   6.076  1.8136 -1.3344 -1.3975
  106OSM    H1T10738   4.740   1.265   6.112 -0.0999  0.4878 -0.0515
  106OSM     NF10739   4.714   1.197   5.863  0.3723 -0.0276  0.5721
  106OSM    HNF10740   4.813   1.189   5.849  0.3105  1.3766 -0.9755
  106OSM    C2S10741   4.666   1.319   5.916  0.5364  0.6091 -0.0617
  106OSM    H2S10742   4.569   1.355   5.874 -0.5398 -1.4024  0.5556
  106OSM    C3S10743   4.755   1.452   5.887 -0.2971  0.6381 -0.3010
  106OSM    H3S10744   4.856   1.432   5.929  0.3943  2.0712 -1.2120
  106OSM     O310745   4.704   1.572   5.946 -0.0918 -0.0752  0.5704
  106OSM    HO310746   4.626   1.538   5.991 -3.0955  1.7743 -2.7412
  106OSM    C4S10747   4.788   1.482   5.746 -0.2668 -0.2036  0.4916
  106OSM    H4S10748   4.873   1.437   5.693 -0.9256  1.4639 -2.1811
  106OSM    C5S10749   4.716   1.558   5.662 -0.6035 -0.3176 -0.2281
  106OSM    H5S10750   4.628   1.615   5.696  0.1192  0.8603 -0.2590
  106OSM    C6S10751   4.739   1.568   5.513  0.0373 -0.3046  0.0070
  106OSM    H6S10752   4.836   1.520   5.490 -0.7602 -2.1855  0.3967
  106OSM    H6T10753   4.735   1.675   5.482  2.9273  0.4129  1.7219
  106OSM    C7S10754   4.644   1.485   5.426 -0.3980  0.4573 -0.6650
  106OSM    H7S10755   4.537   1.499   5.450 -0.2758 -0.6954  0.6834
  106OSM    H7T10756   4.656   1.378   5.453 -2.8554  0.5875  1.3482
  106OSM    C8S10757   4.639   1.518   5.277 -0.4126  0.0805 -0.5797
  106OSM    H8S10758   4.742   1.502   5.237 -0.2449 -0.1203 -0.0787
  106OSM    H8T10759   4.610   1.623   5.258 -0.8961 -0.1571 -1.1809
  106OSM    C9S10760   4.543   1.429   5.201  0.3519 -0.5393  0.4207
  106OSM    H9S10761   4.440   1.469   5.219  0.3746  0.0102 -0.5810
  106OSM    H9T10762   4.557   1.326   5.237  0.0228 -0.2849  1.3027
  106OSM   C10S10763   4.577   1.442   5.052 -0.0767 -0.1233  0.1309
  106OSM   H10S10764   4.680   1.404   5.040 -0.5805 -1.7546  0.6913
  106OSM   H10T10765   4.573   1.550   5.026 -0.7239 -0.0696  0.4313
  106OSM   C11S10766   4.504   1.346   4.961  0.8138 -0.6300 -0.6508
  106OSM   H11S10767   4.396   1.370   4.975  0.5075 -2.0616 -0.3694
  106OSM   H11T10768   4.516   1.237   4.978 -1.3569 -0.9614 -0.9280
  106OSM   C12S10769   4.533   1.349   4.807 -0.7761  0.1327  0.6359
  106OSM   H12S10770   4.492   1.259   4.756 -0.4753  0.2203  0.2309
  106OSM   H12T10771   4.644   1.339   4.812 -0.7961 -0.2777  0.2898
  106OSM   C13S10772   4.497   1.485   4.731  0.9068  0.3233 -0.2363
  106OSM   H13S10773   4.542   1.567   4.792  2.1877 -0.5600  0.0395
  106OSM   H13T10774   4.387   1.493   4.718  0.8009 -0.1160  0.3643
  106OSM   C14S10775   4.554   1.495   4.586 -0.6000 -0.0767 -0.7826
  106OSM   H14S10776   4.665   1.499   4.588 -0.6524  2.8515 -0.3190
  106OSM   H14T10777   4.508   1.589   4.550 -1.5706 -0.9867 -2.0317
  106OSM   C15S10778   4.525   1.373   4.495 -0.4146  0.1028  0.2685
  106OSM   H15S10779   4.567   1.281   4.542 -0.5815  0.2367  0.6785
  106OSM   H15T10780   4.580   1.390   4.400  1.0060 -1.3695  0.7722
  106OSM   C16S10781   4.373   1.337   4.473 -0.4727 -0.0429 -0.2939
  106OSM   H16S10782   4.338   1.410   4.397  1.9541  1.4198 -0.1272
  106OSM   H16T10783   4.314   1.354   4.566 -0.4888 -0.2618 -0.2628
  106OSM   C17S10784   4.350   1.195   4.414 -0.6891 -1.2211 -0.7470
  106OSM   H17S10785   4.411   1.115   4.462  1.8569 -0.8815 -3.1389
  106OSM   H17T10786   4.380   1.199   4.306 -2.2998 -0.1408 -1.1851
  106OSM   C18S10787   4.206   1.145   4.430 -0.6064  0.4371 -0.0256
  106OSM   H18S10788   4.163   1.160   4.531 -4.0012 -0.3710 -1.2115
  106OSM   H18T10789   4.193   1.038   4.405 -3.2330  0.2265  1.8561
  106OSM   H18U10790   4.136   1.205   4.369  0.6398  0.4249 -1.5212
  106OSM    C1F10791   4.640   1.084   5.846 -0.0535 -0.1628 -0.1120
  106OSM     OF10792   4.525   1.075   5.889  0.0693  0.0752  0.3342
  106OSM    C2F10793   4.706   0.970   5.775 -0.7431  0.5279 -0.2959
  106OSM    H2F10794   4.698   0.869   5.820 -1.7153  0.9481  0.5162
  106OSM    H2G10795   4.815   0.992   5.775 -0.8775  1.3554  1.3895
  106OSM    C3F10796   4.662   0.964   5.624  0.0955  0.6554 -0.3385
  106OSM    H3F10797   4.720   1.049   5.582  2.9749 -0.4170  1.1662
  106OSM    H3G10798   4.554   0.979   5.607 -0.2495 -2.1841 -1.0490
  106OSM    C4F10799   4.709   0.837   5.553 -0.4002  0.1584  0.4155
  106OSM    H4F10800   4.674   0.742   5.600 -0.3964 -1.5753 -2.7717
  106OSM    H4G10801   4.819   0.833   5.548 -0.4259  0.7844 -1.7481
  106OSM    C5F10802   4.656   0.830   5.412  0.3136  0.0675  0.4412
  106OSM    H5F10803   4.724   0.885   5.343 -1.9894  0.7219 -1.4659
  106OSM    H5G10804   4.553   0.871   5.408  0.4138  0.3213  0.3978
  106OSM    C6F10805   4.645   0.689   5.356  0.3515  0.1842  0.0707
  106OSM    H6F10806   4.557   0.634   5.396  0.6887  0.8349  1.8040
  106OSM    H6G10807   4.730   0.621   5.380 -1.5511 -1.8127  1.5052
  106OSM    C7F10808   4.621   0.697   5.204  0.2315  0.1999 -0.0608
  106OSM    H7F10809   4.709   0.734   5.146  2.3538 -3.4638  0.5048
  106OSM    H7G10810   4.538   0.768   5.183 -0.1900  0.0668  1.0823
  106OSM    C8F10811   4.583   0.567   5.139  0.2293 -0.0388 -0.8078
  106OSM    H8F10812   4.472   0.564   5.143  0.2108  1.3189  0.4916
  106OSM    H8G10813   4.622   0.480   5.197  1.9388  0.4658 -1.1587
  106OSM    C9F10814   4.621   0.561   4.990 -0.1689  0.1633 -0.2557
  106OSM    H9F10815   4.724   0.581   4.957 -0.3285  0.8901 -0.3241
  106OSM   C10F10816   4.541   0.570   4.889 -0.3851  0.1130  0.0757
  106OSM   H10F10817   4.580   0.574   4.786 -2.4661 -0.0428 -0.7719
  106OSM   C11F10818   4.391   0.563   4.891 -0.1321 -0.7109  0.3363
  106OSM   H11F10819   4.350   0.665   4.877 -1.9063 -1.1702  1.9066
  106OSM   H11G10820   4.348   0.504   4.975 -1.8032 -0.4385 -0.3016
  106OSM   C12F10821   4.342   0.497   4.760 -0.2182 -0.5308  0.1670
  106OSM   H12F10822   4.236   0.467   4.777  0.3227 -1.7634  1.5414
  106OSM   H12G10823   4.398   0.404   4.738  0.9476  0.0786  0.4646
  106OSM   C13F10824   4.359   0.578   4.635 -0.5420  0.1108 -0.1478
  106OSM   H13F10825   4.464   0.615   4.626 -0.1360 -0.7840  0.7721
  106OSM   H13G10826   4.294   0.668   4.640  0.6840  0.9766  1.0599
  106OSM   C14F10827   4.314   0.503   4.511  0.0290 -0.6824 -0.3167
  106OSM   H14F10828   4.204   0.508   4.520 -0.3272  0.2416 -3.8897
  106OSM   H14G10829   4.356   0.400   4.511  2.0879 -0.0204  3.1895
  106OSM   C15F10830   4.349   0.583   4.377 -0.0901 -0.1234  0.6440
  106OSM   H15F10831   4.444   0.538   4.342 -0.5184 -0.4817 -0.0659
  106OSM   H15G10832   4.355   0.691   4.405  2.0339  0.1763 -0.7828
  106OSM   C16F10833   4.237   0.577   4.269 -0.0034 -0.0541  0.4606
  106OSM   H16F10834   4.257   0.621   4.169 -1.1102  0.3254  0.3914
  106OSM   H16G10835   4.144   0.625   4.305  0.4591  0.9752  0.3197
  106OSM   C17F10836   4.210   0.430   4.236  0.1348  0.4073  0.1636
  106OSM   H17F10837   4.172   0.376   4.325 -1.8712  2.5181  0.6977
  106OSM   H17G10838   4.308   0.385   4.210  0.6006  1.4602  0.0143
  106OSM   C18F10839   4.116   0.399   4.123  0.6999  0.1174 -0.5691
  106OSM   H18F10840   4.025   0.459   4.145  0.4269 -0.1378 -0.9884
  106OSM   H18G10841   4.085   0.292   4.124  0.9244  0.0503 -0.6208
  106OSM   H18H10842   4.151   0.425   4.021 -1.7355  0.2773 -1.4185
  107OSM      N10843   5.560   6.033   6.540 -0.3710  0.3325  0.0184
  107OSM    C1510844   5.703   6.005   6.537 -0.0131  0.4163  0.3806
  107OSM   H15A10845   5.743   6.029   6.440 -1.1677 -0.8111 -0.4253
  107OSM   H15B10846   5.725   5.904   6.567  1.6301  0.4282 -0.6232
  107OSM   H15C10847   5.751   6.075   6.604  0.1839 -0.6214  1.3609
  107OSM    C1410848   5.536   6.096   6.680  0.6334 -0.3372  0.9462
  107OSM   H14A10849   5.593   6.046   6.756 -0.3684 -2.1593  0.5595
  107OSM   H14B10850   5.429   6.081   6.691 -0.0172  0.8044 -2.5788
  107OSM   H14C10851   5.551   6.203   6.688  0.1394  0.0594 -2.0841
  107OSM    C1310852   5.517   6.118   6.427  0.6680  0.0349  0.2926
  107OSM   H13A10853   5.410   6.116   6.413  0.4368 -1.5983  1.9277
  107OSM   H13B10854   5.566   6.101   6.333 -2.6328 -1.7011 -1.2871
  107OSM   H13C10855   5.541   6.221   6.451 -0.5983  0.4340 -0.0498
  107OSM    C1210856   5.486   5.903   6.540  0.1577 -0.2851  0.3059
  107OSM   H12A10857   5.536   5.830   6.603  0.5767  1.0105  1.5310
  107OSM   H12B10858   5.482   5.873   6.437 -0.7149 -0.4523  0.3772
  107OSM    C1110859   5.339   5.913   6.600  0.8715  0.9022 -0.4121
  107OSM   H11A10860   5.339   5.932   6.709 -1.0497 -1.3056  0.0494
  107OSM   H11B10861   5.305   5.808   6.588  0.3108  1.0702 -0.3012
  107OSM      P10862   5.186   5.981   6.403 -0.0909 -0.0999  0.1067
  107OSM    O1310863   5.082   5.877   6.433  0.1166  0.5017 -0.6272
  107OSM    O1410864   5.143   6.104   6.340  0.3632  0.3918  0.3144
  107OSM    O1110865   5.299   5.919   6.314 -0.4300  0.8135  0.3037
  107OSM    O1210866   5.262   6.016   6.537 -0.0147  0.2772 -0.1913
  107OSM    C1S10867   5.272   5.828   6.212 -0.3365  0.2442  0.0186
  107OSM    H1S10868   5.195   5.754   6.242  0.3436 -0.1911  0.7249
  107OSM    H1T10869   5.368   5.776   6.191 -1.4145 -1.6931 -0.4150
  107OSM     NF10870   5.179   5.810   5.977 -0.3482 -0.0729  0.5583
  107OSM    HNF10871   5.240   5.804   5.899  1.1168  2.6780  1.3379
  107OSM    C2S10872   5.229   5.905   6.083 -0.5341  0.1676  0.5531
  107OSM    H2S10873   5.149   5.979   6.107  0.8885  1.2139  2.2979
  107OSM    C3S10874   5.356   5.984   6.034  0.2259  0.0382  0.7708
  107OSM    H3S10875   5.443   5.916   6.025 -0.6745 -0.8885 -1.7199
  107OSM     O310876   5.391   6.097   6.110 -0.1720 -0.2350 -0.0233
  107OSM    HO310877   5.341   6.088   6.191  0.8653 -0.9498  0.5705
  107OSM    C4S10878   5.321   6.040   5.905 -1.1443 -0.6794 -0.0375
  107OSM    H4S10879   5.255   6.128   5.914  3.1919  3.0421 -1.1308
  107OSM    C5S10880   5.365   6.002   5.782  0.2127 -0.1111  0.4729
  107OSM    H5S10881   5.417   5.906   5.769 -2.1595 -1.5366  0.9411
  107OSM    C6S10882   5.332   6.068   5.646 -0.5645 -0.3070 -0.3546
  107OSM    H6S10883   5.412   6.137   5.612 -1.1177  1.4186  1.6071
  107OSM    H6T10884   5.247   6.137   5.664 -0.7390 -0.3070 -1.1604
  107OSM    C7S10885   5.269   5.965   5.548  0.1618 -0.1808 -0.0342
  107OSM    H7S10886   5.187   5.909   5.597 -0.0631 -1.6603 -1.9794
  107OSM    H7T10887   5.352   5.898   5.515  0.4265 -0.7833  1.7499
  107OSM    C8S10888   5.206   6.036   5.430  0.5406 -0.7607  0.2815
  107OSM    H8S10889   5.132   6.115   5.455 -0.5710 -2.4761  2.7561
  107OSM    H8T10890   5.162   5.950   5.375  2.4205 -1.0974 -0.7780
  107OSM    C9S10891   5.307   6.084   5.329  0.1108 -0.7860 -0.0918
  107OSM    H9S10892   5.358   5.996   5.283  1.0610 -0.1647 -0.2463
  107OSM    H9T10893   5.379   6.151   5.380 -0.0087  0.1033 -1.0450
  107OSM   C10S10894   5.241   6.163   5.210 -0.5477 -0.6642 -0.7343
  107OSM   H10S10895   5.184   6.246   5.257  0.0398 -0.3837 -0.5170
  107OSM   H10T10896   5.156   6.102   5.171 -1.6229  0.1151  0.3316
  107OSM   C11S10897   5.329   6.224   5.100 -0.3000  0.4548 -0.3202
  107OSM   H11S10898   5.387   6.141   5.055 -1.4991  0.5796 -2.2109
  107OSM   H11T10899   5.398   6.302   5.137  1.6605  0.5916 -3.8106
  107OSM   C12S10900   5.242   6.279   4.989 -0.5599  0.3151  0.2187
  107OSM   H12S10901   5.164   6.357   5.006 -0.2237  0.8222 -0.5178
  107OSM   H12T10902   5.179   6.192   4.960  0.7518  0.0236 -1.9007
  107OSM   C13S10903   5.324   6.316   4.866  0.1097  0.5063 -0.8499
  107OSM   H13S10904   5.383   6.224   4.846 -0.8712 -1.0804  2.6510
  107OSM   H13T10905   5.395   6.396   4.895 -0.7308  0.2889  2.2517
  107OSM   C14S10906   5.235   6.360   4.750  0.0326  0.2932 -0.3738
  107OSM   H14S10907   5.186   6.452   4.790  3.2409  1.4079  1.3421
  107OSM   H14T10908   5.154   6.285   4.738 -0.5218  0.6211  1.0474
  107OSM   C15S10909   5.308   6.386   4.621  0.0287  0.0118 -0.2178
  107OSM   H15S10910   5.372   6.298   4.598 -0.9339 -0.4051 -1.4000
  107OSM   H15T10911   5.369   6.478   4.636 -1.5923  0.9680  0.8394
  107OSM   C16S10912   5.223   6.400   4.491  0.8494  0.1633 -0.4212
  107OSM   H16S10913   5.165   6.305   4.487  0.6236  0.2660  0.2947
  107OSM   H16T10914   5.277   6.412   4.394  1.6641  3.5221  0.3127
  107OSM   C17S10915   5.127   6.522   4.494  0.4634 -0.4636  0.4607
  107OSM   H17S10916   5.187   6.615   4.496 -0.0039  0.0492 -3.0222
  107OSM   H17T10917   5.059   6.526   4.582 -0.2485 -1.8386 -0.0027
  107OSM   C18S10918   5.028   6.552   4.377 -0.6035 -0.1260  0.0223
  107OSM   H18S10919   4.978   6.649   4.397  0.0136 -0.5327  4.2492
  107OSM   H18T10920   4.953   6.471   4.388 -2.7999  2.0494  2.4526
  107OSM   H18U10921   5.089   6.545   4.284  1.7987  1.3209  1.4126
  107OSM    C1F10922   5.076   5.732   5.994 -0.3540 -0.4074 -0.0964
  107OSM     OF10923   5.014   5.734   6.101  0.3645 -0.3967 -0.3833
  107OSM    C2F10924   5.058   5.634   5.885  0.0159  0.3736 -0.5436
  107OSM    H2F10925   5.134   5.555   5.896  0.2393  0.9011  3.1823
  107OSM    H2G10926   5.072   5.683   5.787 -0.4321 -1.1910 -1.4171
  107OSM    C3F10927   4.909   5.577   5.886 -0.1854  0.1790 -0.1457
  107OSM    H3F10928   4.845   5.665   5.864  0.6019  0.4758 -1.3582
  107OSM    H3G10929   4.883   5.543   5.989  1.9329  1.9835  1.0883
  107OSM    C4F10930   4.901   5.466   5.772  0.8165 -0.6955  0.1275
  107OSM    H4F10931   4.962   5.385   5.817  0.0255 -0.8888  0.8704
  107OSM    H4G10932   4.940   5.495   5.671 -1.3658  1.5946 -0.1622
  107OSM    C5F10933   4.759   5.415   5.760  0.4134  0.5443  0.5839
  107OSM    H5F10934   4.693   5.502   5.742  1.2513  0.9317 -0.7627
  107OSM    H5G10935   4.745   5.383   5.865 -0.6985  1.6949  0.8034
  107OSM    C6F10936   4.749   5.306   5.654  0.0016 -0.2934  0.2738
  107OSM    H6F10937   4.675   5.227   5.680  1.4651 -1.7068  0.3433
  107OSM    H6G10938   4.843   5.247   5.648 -0.5447 -1.2997  1.1603
  107OSM    C7F10939   4.722   5.369   5.510  0.0341 -0.4596  0.3472
  107OSM    H7F10940   4.790   5.452   5.481 -0.4022 -0.3435 -0.3824
  107OSM    H7G10941   4.624   5.418   5.528  0.0735 -0.3366  0.2334
  107OSM    C8F10942   4.684   5.263   5.404 -0.7098  0.0109 -0.2051
  107OSM    H8F10943   4.619   5.316   5.331 -0.5772  0.5618  0.0726
  107OSM    H8G10944   4.642   5.173   5.454 -1.8020  0.9835  0.6662
  107OSM    C9F10945   4.805   5.206   5.329 -0.5079  0.1236 -0.1149
  107OSM    H9F10946   4.885   5.164   5.392  0.8397 -0.9462 -2.4269
  107OSM   C10F10947   4.831   5.200   5.194  0.7273 -0.3744 -0.2747
  107OSM   H10F10948   4.921   5.142   5.169  1.1793 -0.6031  1.6821
  107OSM   C11F10949   4.750   5.247   5.079  0.3334 -0.1891 -0.0307
  107OSM   H11F10950   4.647   5.208   5.093  0.5256 -1.1062 -1.0474
  107OSM   H11G10951   4.781   5.185   4.992 -0.7815 -1.2517  0.3106
  107OSM   C12F10952   4.756   5.400   5.039  0.3409  1.0815 -0.2429
  107OSM   H12F10953   4.767   5.454   5.136  2.9890  0.3646 -0.0842
  107OSM   H12G10954   4.666   5.433   4.983 -0.5277  1.4391  1.3045
  107OSM   C13F10955   4.894   5.434   4.956 -0.3125  0.2077 -0.1752
  107OSM   H13F10956   4.979   5.420   5.025 -1.3212  0.0330  1.0738
  107OSM   H13G10957   4.887   5.541   4.926 -1.6485 -0.5004 -2.7297
  107OSM   C14F10958   4.911   5.356   4.828 -0.3076  0.3565  0.4522
  107OSM   H14F10959   4.829   5.367   4.754  0.8323 -1.0389 -1.0831
  107OSM   H14G10960   4.921   5.247   4.848  0.6846  0.4892  0.7154
  107OSM   C15F10961   5.034   5.409   4.752 -0.2658 -0.3592 -0.5332
  107OSM   H15F10962   5.122   5.366   4.805 -1.1331  0.4869  1.7448
  107OSM   H15G10963   5.051   5.518   4.765  1.9796 -0.5915 -1.1958
  107OSM   C16F10964   5.050   5.367   4.608  0.8976  0.0527 -0.2503
  107OSM   H16F10965   4.950   5.392   4.567 -0.2638 -0.3663  2.1231
  107OSM   H16G10966   5.057   5.256   4.600 -1.5770 -0.1868  0.1666
  107OSM   C17F10967   5.171   5.435   4.546  0.1411 -0.1331 -0.8221
  107OSM   H17F10968   5.154   5.544   4.553 -1.3843 -0.4651  3.0514
  107OSM   H17G10969   5.163   5.404   4.439  1.3483 -0.9641 -0.6873
  107OSM   C18F10970   5.301   5.398   4.616 -0.0352 -0.1436 -0.3362
  107OSM   H18F10971   5.302   5.444   4.717 -3.5430  1.5005 -0.9172
  107OSM   H18G10972   5.391   5.431   4.559 -0.8003  3.0017  0.0937
  107OSM   H18H10973   5.311   5.291   4.646  2.4333  0.3753  1.0031
  108OSM      N10974   6.535   0.855   6.777 -0.0422  0.1682 -0.0467
  108OSM    C1510975   6.564   0.965   6.871  0.8164 -0.1981 -0.4329
  108OSM   H15A10976   6.640   1.032   6.833  2.0504 -1.3683 -0.0965
  108OSM   H15B10977   6.600   0.922   6.963  1.0276 -1.2787 -0.9965
  108OSM   H15C10978   6.467   1.009   6.886 -0.3528 -3.4124  2.8862
  108OSM    C1410979   6.643   0.756   6.773 -0.1557 -0.2670  0.3717
  108OSM   H14A10980   6.604   0.678   6.708  1.1147 -0.5576 -0.0595
  108OSM   H14B10981   6.666   0.723   6.873  0.9782  2.3844  1.0763
  108OSM   H14C10982   6.734   0.797   6.734 -0.9528 -0.4151 -1.7789
  108OSM    C1310983   6.412   0.790   6.816 -0.5039 -0.5966  0.1205
  108OSM   H13A10984   6.329   0.858   6.831  1.5916  1.8264  1.4598
  108OSM   H13B10985   6.421   0.736   6.909  1.5026 -1.5869 -0.5994
  108OSM   H13C10986   6.383   0.721   6.738  1.9181 -0.4088 -1.0476
  108OSM    C1210987   6.528   0.927   6.642  0.1847 -0.2040 -0.5816
  108OSM   H12A10988   6.456   1.006   6.657  1.1691  0.3502  1.5522
  108OSM   H12B10989   6.479   0.864   6.569 -2.2891  1.8776 -0.8849
  108OSM    C1110990   6.664   0.987   6.587 -0.2229 -1.0629  0.5937
  108OSM   H11A10991   6.655   1.015   6.480  2.1959 -0.1739  0.5620
  108OSM   H11B10992   6.739   0.905   6.588  0.1191 -0.7531  1.0107
  108OSM      P10993   6.629   1.234   6.638 -0.1064  0.0092 -0.0269
  108OSM    O1310994   6.483   1.210   6.651 -0.1266  0.0173  0.0704
  108OSM    O1410995   6.690   1.329   6.731 -0.1514  0.0800  0.3391
  108OSM    O1110996   6.644   1.279   6.487 -0.1029  0.3132  0.4509
  108OSM    O1210997   6.710   1.097   6.653  0.2937 -0.1988 -0.5269
  108OSM    C1S10998   6.774   1.314   6.437 -0.0611 -0.3087 -0.7951
  108OSM    H1S10999   6.856   1.252   6.479 -1.3172 -0.4902  1.5807
  108OSM    H1T11000   6.800   1.417   6.470 -0.8404 -0.3960  0.1738
  108OSM     NF11001   6.922   1.247   6.249 -0.5226 -0.2211 -0.1401
  108OSM    HNF11002   6.957   1.326   6.199 -1.2441  0.7327  0.8123
  108OSM    C2S11003   6.786   1.270   6.291 -0.1077 -0.0890  0.6019
  108OSM    H2S11004   6.732   1.173   6.294 -0.0803 -0.1215  0.1719
  108OSM    C3S11005   6.704   1.362   6.197 -0.0532 -0.4023 -0.5974
  108OSM    H3S11006   6.760   1.458   6.193 -3.2339  1.5293 -1.6169
  108OSM     O311007   6.576   1.385   6.253 -0.3520 -0.6346  0.0011
  108OSM    HO311008   6.581   1.351   6.343 -2.5511  3.0361  1.7263
  108OSM    C4S11009   6.692   1.301   6.055 -1.0892  0.8869 -0.4768
  108OSM    H4S11010   6.644   1.202   6.052 -2.7700  1.6452  0.4264
  108OSM    C5S11011   6.756   1.343   5.941  0.0511 -0.1988 -0.6462
  108OSM    H5S11012   6.809   1.440   5.948 -1.2630  0.5499 -0.8011
  108OSM    C6S11013   6.755   1.282   5.809 -0.3940  0.5018 -0.2065
  108OSM    H6S11014   6.796   1.360   5.740 -2.6942  0.0335 -2.2556
  108OSM    H6T11015   6.649   1.262   5.783 -0.6050 -0.0357  0.9968
  108OSM    C7S11016   6.838   1.153   5.792 -0.7011 -0.0728  0.7405
  108OSM    H7S11017   6.797   1.074   5.859  1.7980 -1.5511  0.6694
  108OSM    H7T11018   6.941   1.174   5.828  0.8314 -3.5410 -1.0941
  108OSM    C8S11019   6.834   1.092   5.651  0.1984  0.0036  0.3929
  108OSM    H8S11020   6.747   1.025   5.638  0.7567 -0.6253 -0.1902
  108OSM    H8T11021   6.926   1.035   5.624  1.4643  2.2260 -0.2450
  108OSM    C9S11022   6.811   1.192   5.536 -0.4129  0.0628  0.1116
  108OSM    H9S11023   6.894   1.265   5.522  0.1714  0.3460  3.8919
  108OSM    H9T11024   6.726   1.263   5.544 -0.2045  0.7983 -3.1059
  108OSM   C10S11025   6.795   1.120   5.411 -0.0248 -0.2976  0.6694
  108OSM   H10S11026   6.723   1.037   5.424 -1.4910  0.7923 -0.2643
  108OSM   H10T11027   6.889   1.069   5.381 -0.4810 -1.3077  0.8938
  108OSM   C11S11028   6.745   1.210   5.300  0.2782  0.2781 -0.0375
  108OSM   H11S11029   6.658   1.272   5.332  1.7803  1.9826  0.9595
  108OSM   H11T11030   6.721   1.147   5.212  0.8723 -0.5063  0.3582
  108OSM   C12S11031   6.852   1.302   5.233  0.1296 -0.1394  0.0966
  108OSM   H12S11032   6.936   1.237   5.201 -0.3909 -0.7552 -0.0402
  108OSM   H12T11033   6.898   1.374   5.304 -0.4505  0.7866 -0.4425
  108OSM   C13S11034   6.799   1.382   5.111 -0.1153 -0.0058 -1.0642
  108OSM   H13S11035   6.704   1.432   5.140  0.1643 -0.9930  1.8990
  108OSM   H13T11036   6.771   1.309   5.032 -0.5463 -2.1225  0.9335
  108OSM   C14S11037   6.889   1.487   5.046  0.1159 -0.4668 -0.5650
  108OSM   H14S11038   6.974   1.450   4.985  1.9213  2.0801  0.2103
  108OSM   H14T11039   6.944   1.546   5.123 -0.2200 -2.0282  0.9210
  108OSM   C15S11040   6.808   1.582   4.953  0.3830 -0.0358  0.6853
  108OSM   H15S11041   6.882   1.653   4.909 -1.7198  1.7080 -0.1908
  108OSM   H15T11042   6.720   1.624   5.006  0.1054 -0.1097  0.2866
  108OSM   C16S11043   6.752   1.506   4.831  0.1511 -0.0885  0.1562
  108OSM   H16S11044   6.679   1.430   4.865 -0.8351  0.5243 -0.5305
  108OSM   H16T11045   6.833   1.452   4.778  0.9717 -0.2754  1.5572
  108OSM   C17S11046   6.698   1.609   4.730 -0.4374  0.6761  0.5161
  108OSM   H17S11047   6.792   1.662   4.703 -0.2223 -0.0849 -0.2707
  108OSM   H17T11048   6.629   1.672   4.790 -1.2261 -1.5623  2.0878
  108OSM   C18S11049   6.620   1.554   4.610 -0.4804 -0.0504  0.5254
  108OSM   H18S11050   6.695   1.490   4.558 -0.2003  1.5406 -1.1567
  108OSM   H18T11051   6.587   1.637   4.543  0.7329 -1.2467 -1.6760
  108OSM   H18U11052   6.533   1.498   4.650 -2.4195  0.9194 -2.0097
  108OSM    C1F11053   7.001   1.152   6.298 -0.1083 -0.0477  0.9645
  108OSM     OF11054   6.968   1.074   6.384 -0.0941  0.0182 -0.0407
  108OSM    C2F11055   7.143   1.155   6.238 -0.6269 -0.1838 -0.4131
  108OSM    H2F11056   7.219   1.121   6.312  0.4201  0.0060 -1.3766
  108OSM    H2G11057   7.173   1.260   6.217  0.2222 -0.2532  0.4047
  108OSM    C3F11058   7.149   1.064   6.112  0.5914 -0.3435 -0.3804
  108OSM    H3F11059   7.057   1.071   6.050 -0.2952  0.4959  0.9712
  108OSM    H3G11060   7.157   0.958   6.145  0.2551  0.4574  2.5716
  108OSM    C4F11061   7.271   1.098   6.024 -0.4455 -0.5015 -0.5241
  108OSM    H4F11062   7.354   1.071   6.092  0.1105  2.2528  0.0095
  108OSM    H4G11063   7.283   1.208   6.021  1.3268 -0.5105  2.4682
  108OSM    C5F11064   7.270   1.032   5.884  0.4129 -0.2762 -0.3909
  108OSM    H5F11065   7.185   1.069   5.823 -0.1058 -1.5488 -0.4724
  108OSM    H5G11066   7.254   0.925   5.910 -0.7943 -0.4087 -1.5667
  108OSM    C6F11067   7.405   1.046   5.818 -0.5950  0.5657  0.3695
  108OSM    H6F11068   7.482   0.996   5.882  0.9940  0.8695 -1.2280
  108OSM    H6G11069   7.438   1.152   5.817  0.1244  0.3749 -1.9578
  108OSM    C7F11070   7.401   0.988   5.679 -0.4478  0.0838  1.1112
  108OSM    H7F11071   7.331   1.049   5.619  1.0978  0.1457 -0.7537
  108OSM    H7G11072   7.374   0.881   5.671  0.6802 -0.0949 -1.2018
  108OSM    C8F11073   7.542   0.985   5.608 -0.1695  0.3771  0.7056
  108OSM    H8F11074   7.537   0.961   5.500 -0.4596  0.7427  0.6361
  108OSM    H8G11075   7.587   0.889   5.642 -0.0161 -0.4695 -1.7244
  108OSM    C9F11076   7.637   1.098   5.636 -0.0063 -0.2552 -0.2410
  108OSM    H9F11077   7.610   1.181   5.701  0.1678  0.9070 -1.6031
  108OSM   C10F11078   7.756   1.117   5.577  0.0559  0.3141  0.6645
  108OSM   H10F11079   7.813   1.201   5.620  0.5976 -0.6417  1.8894
  108OSM   C11F11080   7.821   1.018   5.485 -0.1085 -0.7683 -0.2501
  108OSM   H11F11081   7.777   0.917   5.492 -1.5028 -0.1809 -0.2488
  108OSM   H11G11082   7.929   1.005   5.511  0.3870  1.5118 -0.8923
  108OSM   C12F11083   7.814   1.070   5.335 -0.1430 -0.0415 -0.3935
  108OSM   H12F11084   7.875   1.162   5.324  4.9400 -2.9829  0.3553
  108OSM   H12G11085   7.705   1.087   5.317 -0.1426  0.3452 -0.0369
  108OSM   C13F11086   7.865   0.968   5.232  0.1939  0.4455  0.5089
  108OSM   H13F11087   7.797   0.880   5.230  0.9128 -0.1133 -0.0311
  108OSM   H13G11088   7.970   0.934   5.246 -0.1967 -1.7821 -1.4553
  108OSM   C14F11089   7.860   1.025   5.087 -0.0643  0.1845  0.4038
  108OSM   H14F11090   7.959   1.069   5.065  0.0586 -0.2720  0.0497
  108OSM   H14G11091   7.791   1.113   5.086  0.4939  0.6758  1.8359
  108OSM   C15F11092   7.806   0.916   4.998  0.4494 -0.3141 -0.0547
  108OSM   H15F11093   7.705   0.886   5.033 -0.4640  1.2608 -1.2022
  108OSM   H15G11094   7.864   0.822   5.005 -0.7534 -0.9362  2.6411
  108OSM   C16F11095   7.788   0.958   4.848 -0.1431 -0.0840 -0.0512
  108OSM   H16F11096   7.730   0.881   4.792 -0.1209 -0.8464  0.9580
  108OSM   H16G11097   7.892   0.955   4.809  0.6524 -2.6951  1.9711
  108OSM   C17F11098   7.723   1.090   4.823  0.4193 -0.8736  0.1548
  108OSM   H17F11099   7.783   1.168   4.875  0.8735 -1.6740  0.8527
  108OSM   H17G11100   7.619   1.087   4.862  0.9404 -0.6048  1.6408
  108OSM   C18F11101   7.727   1.135   4.672 -0.0444 -0.8225 -0.9008
  108OSM   H18F11102   7.667   1.225   4.649  0.7810 -0.3258 -1.1512
  108OSM   H18G11103   7.678   1.048   4.623 -0.3529 -1.5374  0.6001
  108OSM   H18H11104   7.828   1.148   4.628 -0.0710 -3.1996 -1.8377
  109OSM      N11105   2.389   1.852   6.782  0.1050 -0.1147  0.3267
  109OSM    C1511106   2.372   1.872   6.929  0.1365  0.3812  0.5045
  109OSM   H15A11107   2.375   1.978   6.948  3.4901  0.5690 -0.3918
  109OSM   H15B11108   2.463   1.845   6.979  1.3818 -1.5749 -2.4931
  109OSM   H15C11109   2.281   1.826   6.964  0.4297  0.2550  1.1014
  109OSM    C1411110   2.369   1.708   6.746  0.8213  0.3839 -0.3302
  109OSM   H14A11111   2.447   1.645   6.787 -0.2963 -0.3964  0.6552
  109OSM   H14B11112   2.381   1.702   6.639  3.9958  1.7875 -0.1768
  109OSM   H14C11113   2.276   1.665   6.780  1.5444 -1.4782 -0.5565
  109OSM    C1311114   2.275   1.925   6.711  0.3370 -0.1890  0.1029
  109OSM   H13A11115   2.292   2.032   6.714  1.6926 -0.3384 -0.9351
  109OSM   H13B11116   2.178   1.902   6.752  0.4017  2.3144  1.8934
  109OSM   H13C11117   2.266   1.892   6.608  1.5330  0.0697 -0.1046
  109OSM    C1211118   2.518   1.911   6.716  0.7157  0.6510  0.3309
  109OSM   H12A11119   2.510   2.019   6.714 -0.3904  0.6025 -2.3244
  109OSM   H12B11120   2.521   1.880   6.613 -2.7259 -1.8313  0.7949
  109OSM    C1111121   2.653   1.867   6.776  0.5231  0.3036 -0.1793
  109OSM   H11A11122   2.667   1.907   6.879 -0.3471 -0.7316  0.3739
  109OSM   H11B11123   2.731   1.917   6.716 -1.9813  1.2967 -2.8554
  109OSM      P11124   2.729   1.639   6.682 -0.0179  0.2074 -0.0311
  109OSM    O1311125   2.874   1.655   6.664  0.0341  0.0237  0.2506
  109OSM    O1411126   2.680   1.503   6.692 -0.1217  0.2041 -0.8093
  109OSM    O1111127   2.650   1.699   6.554 -0.3734  0.2330  0.3323
  109OSM    O1211128   2.668   1.726   6.789 -0.1438  0.0142 -0.0554
  109OSM    C1S11129   2.721   1.757   6.442 -0.2652 -0.0793  0.6304
  109OSM    H1S11130   2.818   1.807   6.465 -0.7913  0.9580  0.6509
  109OSM    H1T11131   2.656   1.834   6.394  1.5216  1.0763 -0.0468
  109OSM     NF11132   2.844   1.682   6.237 -0.3560  0.7465 -0.4434
  109OSM    HNF11133   2.801   1.680   6.147 -2.4202 -0.7449  0.4944
  109OSM    C2S11134   2.742   1.643   6.332 -0.6535 -0.0194 -0.4828
  109OSM    H2S11135   2.776   1.552   6.386 -1.7535 -0.5002 -0.5634
  109OSM    C3S11136   2.604   1.605   6.270  0.3608 -0.3707 -0.3180
  109OSM    H3S11137   2.576   1.677   6.191  2.9861 -1.2546 -2.2223
  109OSM     O311138   2.494   1.600   6.365  0.8246  0.1963 -0.5291
  109OSM    HO311139   2.532   1.617   6.451  0.0296  3.3150 -0.6574
  109OSM    C4S11140   2.620   1.478   6.188  0.0712  0.3062  0.0699
  109OSM    H4S11141   2.640   1.499   6.082 -0.4302  1.1522  0.1383
  109OSM    C5S11142   2.607   1.351   6.229 -0.3266 -0.0372  0.3369
  109OSM    H5S11143   2.567   1.335   6.330 -0.7796  0.4760  0.2403
  109OSM    C6S11144   2.647   1.230   6.152 -0.3154  0.0745  0.4025
  109OSM    H6S11145   2.563   1.157   6.152  0.0420 -0.4214 -1.5439
  109OSM    H6T11146   2.729   1.174   6.202 -0.6310 -2.0318 -1.2678
  109OSM    C7S11147   2.712   1.248   6.012  0.6825 -0.6413 -0.2047
  109OSM    H7S11148   2.793   1.324   6.017 -1.5641  2.0221 -1.7060
  109OSM    H7T11149   2.635   1.283   5.940 -1.1490 -0.2045  1.8510
  109OSM    C8S11150   2.767   1.109   5.969 -0.1836 -1.3078  0.4462
  109OSM    H8S11151   2.687   1.032   5.966 -0.6951 -0.8888  2.4117
  109OSM    H8T11152   2.849   1.071   6.034 -0.0478 -0.1124  0.9884
  109OSM    C9S11153   2.802   1.127   5.812  0.1551 -0.5385  0.9245
  109OSM    H9S11154   2.900   1.178   5.798 -0.4249  0.2863 -0.2130
  109OSM    H9T11155   2.724   1.189   5.763  2.6656  1.1659 -1.2046
  109OSM   C10S11156   2.809   0.995   5.743  0.6384  0.3623 -0.3311
  109OSM   H10S11157   2.723   0.940   5.786  1.9281 -0.2991  1.5511
  109OSM   H10T11158   2.896   0.943   5.788  0.0697 -0.0848  0.2734
  109OSM   C11S11159   2.830   0.981   5.590  0.0905  0.1164  0.2223
  109OSM   H11S11160   2.744   1.030   5.541  0.9041  0.3881 -0.9803
  109OSM   H11T11161   2.825   0.873   5.562 -3.1379  0.3345 -0.3650
  109OSM   C12S11162   2.954   1.052   5.530  0.5041  0.1403 -0.4406
  109OSM   H12S11163   3.045   1.023   5.586  1.3725  0.1821 -1.7740
  109OSM   H12T11164   2.944   1.161   5.551 -0.0857  0.0332 -0.1170
  109OSM   C13S11165   2.951   1.032   5.377 -0.9265 -0.0532 -0.3745
  109OSM   H13S11166   3.017   1.106   5.327 -2.4319  1.8421  0.2984
  109OSM   H13T11167   2.847   1.066   5.358  0.0610  3.9789  0.5507
  109OSM   C14S11168   2.970   0.881   5.334  0.2888 -0.3659 -0.2009
  109OSM   H14S11169   2.904   0.820   5.398  0.3718  0.5601  0.7886
  109OSM   H14T11170   3.080   0.863   5.340  0.3499 -0.2829 -0.9196
  109OSM   C15S11171   2.924   0.848   5.186  0.4871 -0.3255 -0.2244
  109OSM   H15S11172   2.815   0.872   5.184 -0.1964 -2.8667  1.3458
  109OSM   H15T11173   2.930   0.737   5.174 -2.3875 -0.6231  0.2379
  109OSM   C16S11174   2.985   0.931   5.080 -0.9304 -0.1725  0.5002
  109OSM   H16S11175   2.954   1.037   5.072  2.3656  0.9748  1.2866
  109OSM   H16T11176   2.949   0.880   4.989  0.0989  0.5656 -0.3402
  109OSM   C17S11177   3.143   0.932   5.079  0.0610  0.3968  0.0710
  109OSM   H17S11178   3.181   0.836   5.037  2.1862  0.8282  0.9009
  109OSM   H17T11179   3.193   0.934   5.178  1.0160 -0.8002 -0.3531
  109OSM   C18S11180   3.209   1.049   4.995  0.5291 -0.0100 -0.6011
  109OSM   H18S11181   3.147   1.081   4.909 -1.9404  0.7269  1.3040
  109OSM   H18T11182   3.313   1.019   4.972  0.9854  1.6091 -0.7566
  109OSM   H18U11183   3.210   1.138   5.062 -1.0968 -0.8233  0.6059
  109OSM    C1F11184   2.972   1.677   6.267  0.2206 -0.2401 -0.2040
  109OSM     OF11185   3.021   1.639   6.373 -0.0254 -0.1834  0.2228
  109OSM    C2F11186   3.063   1.724   6.157  0.0514  0.5734 -0.7035
  109OSM    H2F11187   2.997   1.749   6.071  0.4785 -1.5467 -1.7234
  109OSM    H2G11188   3.116   1.637   6.111 -0.7005  0.1751 -0.8435
  109OSM    C3F11189   3.169   1.827   6.192  0.4666 -0.2863  0.7847
  109OSM    H3F11190   3.245   1.781   6.258  2.6816 -0.6431 -1.8407
  109OSM    H3G11191   3.137   1.917   6.250  0.4536 -1.1718  2.1871
  109OSM    C4F11192   3.251   1.869   6.067 -0.2619  0.2875 -0.5028
  109OSM    H4F11193   3.345   1.913   6.106 -0.0104 -0.2044 -0.5481
  109OSM    H4G11194   3.190   1.945   6.013 -0.3960  1.6711  1.4964
  109OSM    C5F11195   3.298   1.757   5.970 -0.3914  0.4501  0.1716
  109OSM    H5F11196   3.203   1.706   5.941 -0.7691 -0.2386  2.4138
  109OSM    H5G11197   3.332   1.672   6.033 -1.1183  1.6370  2.2844
  109OSM    C6F11198   3.390   1.806   5.854 -0.5086  0.7071 -0.6047
  109OSM    H6F11199   3.490   1.829   5.898 -1.0486 -4.3220  4.3615
  109OSM    H6G11200   3.346   1.905   5.827  0.5646  1.2641 -0.3820
  109OSM    C7F11201   3.400   1.706   5.730 -0.3776 -0.1844 -0.3453
  109OSM    H7F11202   3.307   1.647   5.715 -0.8345 -0.3215  2.4929
  109OSM    H7G11203   3.473   1.633   5.770 -0.8744 -0.1513  0.6361
  109OSM    C8F11204   3.447   1.793   5.608  0.0186  0.1878 -0.1652
  109OSM    H8F11205   3.530   1.859   5.640 -1.3598  2.8736 -1.7568
  109OSM    H8G11206   3.368   1.868   5.586 -1.6472 -0.7399  2.2095
  109OSM    C9F11207   3.477   1.701   5.490 -0.2008 -0.3702  0.0175
  109OSM    H9F11208   3.546   1.617   5.507  2.9931  1.7082 -1.6919
  109OSM   C10F11209   3.411   1.702   5.377  0.7804 -0.3333  0.1878
  109OSM   H10F11210   3.432   1.619   5.308  2.3250 -0.2140  0.4812
  109OSM   C11F11211   3.313   1.812   5.332  1.2903  0.1508 -0.1960
  109OSM   H11F11212   3.287   1.890   5.406  0.9424  0.6618 -0.8488
  109OSM   H11G11213   3.216   1.760   5.315  0.6145  0.7373  1.6191
  109OSM   C12F11214   3.337   1.883   5.192 -0.2206  0.0733 -0.0362
  109OSM   H12F11215   3.421   1.956   5.200  0.5281 -0.7308 -0.3734
  109OSM   H12G11216   3.242   1.927   5.153 -0.2237  0.9298  0.8936
  109OSM   C13F11217   3.374   1.784   5.079 -0.2782  0.0966 -0.4395
  109OSM   H13F11218   3.289   1.717   5.057  2.4304 -3.2945 -1.4593
  109OSM   H13G11219   3.461   1.718   5.100 -1.3255 -1.3316 -0.4994
  109OSM   C14F11220   3.404   1.859   4.950  0.3237 -0.2094 -0.0561
  109OSM   H14F11221   3.494   1.923   4.944 -0.0303  0.4606  1.4371
  109OSM   H14G11222   3.327   1.937   4.935  0.7444  0.5732  1.6363
  109OSM   C15F11223   3.392   1.762   4.825 -0.3389  0.1358 -0.4598
  109OSM   H15F11224   3.285   1.759   4.795  0.1463 -0.7236 -2.2600
  109OSM   H15G11225   3.408   1.653   4.844  1.4857  0.1882 -1.3939
  109OSM   C16F11226   3.473   1.812   4.706  0.0468 -0.6629 -0.6362
  109OSM   H16F11227   3.581   1.793   4.727 -0.6734 -2.0163  2.4790
  109OSM   H16G11228   3.455   1.920   4.687 -0.4144 -0.9512 -1.9054
  109OSM   C17F11229   3.441   1.738   4.580 -0.7737  0.1661  0.7928
  109OSM   H17F11230   3.487   1.785   4.490 -0.1360 -1.5235  0.2077
  109OSM   H17G11231   3.333   1.748   4.555 -0.4536  0.9288 -0.3819
  109OSM   C18F11232   3.482   1.592   4.575 -0.6279 -0.3147  0.4415
  109OSM   H18F11233   3.454   1.543   4.480  0.2360  0.7811 -0.3988
  109OSM   H18G11234   3.426   1.541   4.657  2.2315 -1.9041  1.5615
  109OSM   H18H11235   3.591   1.581   4.595 -0.5050 -0.2883 -0.2219
  110OSM      N11236   0.123   4.664   6.771 -0.5627 -0.0437 -0.0231
  110OSM    C1511237   0.246   4.700   6.859 -0.8099  0.8274  0.0880
  110OSM   H15A11238   0.339   4.672   6.810 -1.0139 -2.3658  1.2896
  110OSM   H15B11239   0.239   4.657   6.957  0.3941  1.7553  0.6054
  110OSM   H15C11240   0.251   4.807   6.868  1.8202  0.6674  1.6269
  110OSM    C1411241   0.134   4.520   6.745  0.3855 -0.2095 -0.4541
  110OSM   H14A11242   0.233   4.475   6.740  1.4728  1.9751  0.2935
  110OSM   H14B11243   0.071   4.486   6.664  0.7727 -1.3741 -0.2841
  110OSM   H14C11244   0.085   4.476   6.830 -0.3180  1.2665 -0.0827
  110OSM    C1311245  -0.003   4.690   6.843 -0.5498 -0.5746  0.2758
  110OSM   H13A11246  -0.085   4.665   6.778 -0.3168  0.7388 -0.5459
  110OSM   H13B11247  -0.018   4.793   6.869  0.2247 -0.3541 -0.1143
  110OSM   H13C11248  -0.001   4.648   6.943  0.2186  0.3862  0.6799
  110OSM    C1211249   0.130   4.742   6.635  0.2982 -0.1828 -0.8322
  110OSM   H12A11250   0.043   4.718   6.576 -0.0019  0.4147 -0.6419
  110OSM   H12B11251   0.212   4.699   6.580  1.5855  1.8453 -0.6241
  110OSM    C1111252   0.150   4.891   6.647  0.8798 -0.0848  0.3215
  110OSM   H11A11253   0.077   4.929   6.722  2.0750  1.4674  0.7647
  110OSM   H11B11254   0.119   4.938   6.551  2.3680  0.6332  0.1643
  110OSM      P11255   0.407   4.897   6.588  0.0127 -0.2385  0.4247
  110OSM    O1311256   0.507   5.006   6.608 -0.5203  0.7859  0.1894
  110OSM    O1411257   0.448   4.762   6.619  0.1638  0.3233 -0.6527
  110OSM    O1111258   0.340   4.910   6.445  0.0409  0.1399  0.1892
  110OSM    O1211259   0.288   4.933   6.686 -0.0082 -0.0393 -0.0443
  110OSM    C1S11260   0.346   5.035   6.384 -0.5992  0.3213 -0.6784
  110OSM    H1S11261   0.450   5.075   6.387 -0.8760  1.1310 -1.2901
  110OSM    H1T11262   0.276   5.109   6.428 -1.5297 -0.9998  0.1209
  110OSM     NF11263   0.347   5.167   6.189  0.1344 -0.3765 -0.1689
  110OSM    HNF11264   0.278   5.236   6.208 -0.4699 -1.1794  0.5792
  110OSM    C2S11265   0.315   5.031   6.235  0.4463  0.4484  0.4101
  110OSM    H2S11266   0.381   4.954   6.188 -3.0226 -3.3575  1.1656
  110OSM    C3S11267   0.163   4.985   6.206  0.3235  0.2671 -0.5371
  110OSM    H3S11268   0.101   5.074   6.231 -2.4416 -1.2604 -1.6066
  110OSM     O311269   0.112   4.879   6.290 -0.0458 -0.4242  0.0338
  110OSM    HO311270   0.186   4.869   6.351  0.2281 -2.3913 -0.5701
  110OSM    C4S11271   0.150   4.945   6.067 -0.2320 -0.1165 -0.3811
  110OSM    H4S11272   0.236   4.884   6.038  1.0452  0.5204  1.8392
  110OSM    C5S11273   0.049   4.985   5.984  0.5253  1.1652  0.1081
  110OSM    H5S11274  -0.021   5.065   6.010 -1.3879 -1.0275  2.1718
  110OSM    C6S11275   0.030   4.937   5.840 -0.0010  0.7128  0.1224
  110OSM    H6S11276  -0.032   5.010   5.784  1.9480  2.6025  0.2767
  110OSM    H6T11277  -0.028   4.842   5.843 -1.9160  1.8400  2.5384
  110OSM    C7S11278   0.166   4.910   5.757 -0.0168  0.1963 -0.2152
  110OSM    H7S11279   0.216   4.824   5.807 -2.1315  0.0148  1.7448
  110OSM    H7T11280   0.228   4.999   5.778 -1.5179  0.7992  1.9643
  110OSM    C8S11281   0.154   4.889   5.609  0.5015  0.2924  0.1474
  110OSM    H8S11282   0.253   4.857   5.571  0.9079 -1.0631  2.1704
  110OSM    H8T11283   0.112   4.980   5.562  1.5544 -0.2932 -2.0388
  110OSM    C9S11284   0.061   4.772   5.573 -0.7180  0.4766  0.5026
  110OSM    H9S11285  -0.039   4.791   5.616 -0.8162 -0.5692  0.7635
  110OSM    H9T11286   0.109   4.681   5.617 -0.2497  0.2234 -0.5101
  110OSM   C10S11287   0.036   4.744   5.420  0.0003  0.0343  0.4777
  110OSM   H10S11288  -0.021   4.649   5.411  2.1768 -1.4164  1.3346
  110OSM   H10T11289   0.139   4.712   5.395  0.1760 -0.3686  1.6801
  110OSM   C11S11290  -0.002   4.860   5.325 -0.2214 -0.2832 -0.2990
  110OSM   H11S11291   0.070   4.944   5.336 -0.1097 -0.5130  0.8566
  110OSM   H11T11292  -0.102   4.900   5.354  0.3555  0.0321  1.3920
  110OSM   C12S11293  -0.003   4.824   5.178  0.2570 -0.1579 -0.1784
  110OSM   H12S11294  -0.082   4.746   5.171 -0.8868  1.0061 -0.7399
  110OSM   H12T11295   0.095   4.781   5.149  2.1947  2.4669  1.9327
  110OSM   C13S11296  -0.041   4.939   5.078  0.0493  0.0710 -0.0184
  110OSM   H13S11297   0.027   5.024   5.099 -2.0301  1.7087  0.3170
  110OSM   H13T11298  -0.144   4.973   5.100 -0.2279  0.4064 -1.7093
  110OSM   C14S11299  -0.026   4.895   4.937 -0.1488  0.5238  0.2453
  110OSM   H14S11300  -0.067   4.792   4.929  2.3037 -0.4853 -0.3956
  110OSM   H14T11301   0.079   4.879   4.903  0.2872  1.8636  0.8758
  110OSM   C15S11302  -0.116   4.977   4.840 -0.8879  0.0268  0.5471
  110OSM   H15S11303  -0.212   5.000   4.892 -0.5106  0.5659  1.0096
  110OSM   H15T11304  -0.145   4.906   4.760 -2.9170 -1.6503  2.6221
  110OSM   C16S11305  -0.047   5.103   4.783  0.4393  0.7408 -0.1731
  110OSM   H16S11306   0.033   5.069   4.714  1.2773 -0.9719  1.5591
  110OSM   H16T11307   0.000   5.157   4.869  0.3930  1.1561 -0.4050
  110OSM   C17S11308  -0.155   5.183   4.708  0.0843 -0.3088  0.0846
  110OSM   H17S11309  -0.230   5.202   4.788  2.8017  1.8049  2.3782
  110OSM   H17T11310  -0.190   5.121   4.623  2.4809  0.0805 -1.2908
  110OSM   C18S11311  -0.119   5.321   4.659 -0.1830 -0.0078  0.2248
  110OSM   H18S11312  -0.170   5.352   4.566 -1.2569  2.9793  1.6839
  110OSM   H18T11313  -0.011   5.341   4.643 -0.7963  4.1841  0.1007
  110OSM   H18U11314  -0.144   5.396   4.738 -2.3003 -1.4182  0.9819
  110OSM    C1F11315   0.470   5.203   6.155 -0.9768 -0.1186  0.2342
  110OSM     OF11316   0.561   5.128   6.175 -0.4011 -0.2246 -0.1776
  110OSM    C2F11317   0.484   5.339   6.098  0.1109 -0.2111  0.6677
  110OSM    H2F11318   0.585   5.360   6.058 -0.7534  2.9285 -0.1144
  110OSM    H2G11319   0.477   5.411   6.182  0.6177  0.3792  0.2122
  110OSM    C3F11320   0.379   5.369   5.985 -0.0158  0.4740  0.7033
  110OSM    H3F11321   0.396   5.475   5.959  1.9303 -0.4225 -2.1323
  110OSM    H3G11322   0.281   5.372   6.037 -0.0594  0.5231  0.6161
  110OSM    C4F11323   0.367   5.281   5.860  0.1857 -0.2423  0.0058
  110OSM    H4F11324   0.362   5.173   5.886  1.0361 -0.6482 -1.4353
  110OSM    H4G11325   0.467   5.305   5.817  0.5490  1.8956  1.8143
  110OSM    C5F11326   0.258   5.322   5.762 -0.3065  0.1376 -0.7268
  110OSM    H5F11327   0.263   5.433   5.764  2.0251  0.0587 -0.1384
  110OSM    H5G11328   0.160   5.282   5.797 -0.1445  0.1255 -0.2768
  110OSM    C6F11329   0.282   5.255   5.617  0.4114 -0.0966 -0.3433
  110OSM    H6F11330   0.248   5.149   5.614  1.9257 -0.6011 -0.5484
  110OSM    H6G11331   0.388   5.248   5.584 -0.1950 -0.6770 -2.3262
  110OSM    C7F11332   0.213   5.337   5.496 -0.1103  0.0048  0.4425
  110OSM    H7F11333   0.246   5.443   5.493  1.5604 -0.4984 -1.6329
  110OSM    H7G11334   0.106   5.339   5.526  0.0234  0.9751  0.9057
  110OSM    C8F11335   0.234   5.273   5.362  0.2449  0.6402 -0.7508
  110OSM    H8F11336   0.197   5.168   5.371  0.7926  0.4347 -0.8113
  110OSM    H8G11337   0.340   5.264   5.329  1.2824 -2.2700  2.7378
  110OSM    C9F11338   0.152   5.334   5.254  0.5539  0.0798 -0.1213
  110OSM    H9F11339   0.056   5.375   5.287 -0.5565 -2.3709 -0.1023
  110OSM   C10F11340   0.186   5.330   5.124  0.1075 -0.3872 -0.2512
  110OSM   H10F11341   0.106   5.378   5.066  0.1519  3.4270  2.4258
  110OSM   C11F11342   0.319   5.287   5.065  0.6428  0.1522  0.2036
  110OSM   H11F11343   0.372   5.205   5.118 -1.3272 -1.6034 -0.3985
  110OSM   H11G11344   0.386   5.373   5.049 -0.1246  0.6803 -0.2506
  110OSM   C12F11345   0.285   5.230   4.925 -0.3690 -0.0052  0.4357
  110OSM   H12F11346   0.244   5.303   4.852 -1.7152 -0.5204  0.6555
  110OSM   H12G11347   0.206   5.152   4.922  0.7297 -1.1378 -1.9632
  110OSM   C13F11348   0.412   5.169   4.860  0.8961  0.1829 -0.5088
  110OSM   H13F11349   0.458   5.091   4.925 -0.5647 -0.7206 -0.5139
  110OSM   H13G11350   0.487   5.249   4.843 -1.4192  2.9339  1.1933
  110OSM   C14F11351   0.372   5.089   4.735 -0.0384  0.2282 -0.5603
  110OSM   H14F11352   0.310   5.000   4.762  3.3116 -1.7086  1.4971
  110OSM   H14G11353   0.462   5.032   4.704 -1.8920 -2.4389 -1.4144
  110OSM   C15F11354   0.310   5.173   4.623  0.1743 -0.5112  0.2851
  110OSM   H15F11355   0.368   5.268   4.626  0.0700 -0.4449  0.2351
  110OSM   H15G11356   0.208   5.207   4.653  0.0642 -0.7874  0.2259
  110OSM   C16F11357   0.321   5.110   4.482 -0.4070 -0.1346 -0.1311
  110OSM   H16F11358   0.255   5.168   4.415 -3.6061 -0.6535  2.2991
  110OSM   H16G11359   0.286   5.004   4.491  0.3512 -0.4125 -0.4296
  110OSM   C17F11360   0.456   5.114   4.420 -0.0207 -0.0871  0.3208
  110OSM   H17F11361   0.521   5.075   4.502  2.2823  1.2116 -0.8069
  110OSM   H17G11362   0.498   5.216   4.412  2.3641 -1.0950 -1.3164
  110OSM   C18F11363   0.477   5.031   4.298 -0.4701  0.2903  0.4041
  110OSM   H18F11364   0.464   4.921   4.308 -2.5583  0.2992 -1.3932
  110OSM   H18G11365   0.568   5.063   4.244 -2.0492  0.4836 -2.3140
  110OSM   H18H11366   0.398   5.041   4.221 -0.7308 -2.2509  0.2296
  111OSM      N11367   2.307   5.047   6.826  0.2714 -0.1004  0.1029
  111OSM    C1511368   2.310   5.118   6.968 -0.1531  0.3141  0.5460
  111OSM   H15A11369   2.223   5.105   7.031  1.7586 -1.1076  3.0864
  111OSM   H15B11370   2.336   5.223   6.968 -0.2581  0.3409  0.6184
  111OSM   H15C11371   2.385   5.064   7.025  0.8391 -0.5549 -1.4743
  111OSM    C1411372   2.204   5.119   6.745 -0.0950 -0.0078  0.3889
  111OSM   H14A11373   2.220   5.111   6.639 -0.6047  3.3321 -0.0453
  111OSM   H14B11374   2.209   5.225   6.766 -1.3306  0.2193 -0.3611
  111OSM   H14C11375   2.103   5.084   6.763 -0.4568  1.2346  0.9083
  111OSM    C1311376   2.444   5.063   6.759 -0.5025  0.0376  0.2317
  111OSM   H13A11377   2.531   5.055   6.823 -0.5577  0.4001  0.3586
  111OSM   H13B11378   2.468   5.163   6.724 -1.3181  0.3207  0.4722
  111OSM   H13C11379   2.452   4.995   6.675 -0.9951 -1.3706  1.2922
  111OSM    C1211380   2.268   4.900   6.835 -1.0112 -0.4760 -0.1269
  111OSM   H12A11381   2.353   4.842   6.869 -0.3895  0.7643  0.4805
  111OSM   H12B11382   2.238   4.866   6.737  0.4810 -1.4302 -0.2939
  111OSM    C1111383   2.160   4.855   6.927  0.5620 -0.6425 -0.1167
  111OSM   H11A11384   2.183   4.893   7.029 -0.1707 -0.6491  0.0580
  111OSM   H11B11385   2.150   4.744   6.931  0.0533 -0.6582 -1.3704
  111OSM      P11386   1.936   4.863   6.783 -0.0317  0.0190 -0.0212
  111OSM    O1311387   1.894   4.730   6.829  0.2934 -0.2290  0.2576
  111OSM    O1411388   1.835   4.965   6.767  0.8728  0.0720 -0.7842
  111OSM    O1111389   2.020   4.856   6.646  0.2626  0.5956 -0.6455
  111OSM    O1211390   2.036   4.913   6.895 -0.6410  0.3751  0.3561
  111OSM    C1S11391   1.965   4.791   6.529  0.3952  0.2389  0.4637
  111OSM    H1S11392   1.863   4.829   6.508  1.1499  0.9326 -2.2680
  111OSM    H1T11393   1.970   4.680   6.539  0.6218  0.0636 -1.3390
  111OSM     NF11394   1.957   4.794   6.274  0.1722 -0.4992 -0.5567
  111OSM    HNF11395   1.989   4.723   6.212  1.8541  0.4875 -0.8727
  111OSM    C2S11396   2.039   4.827   6.392  0.6734  0.5543 -0.3382
  111OSM    H2S11397   2.056   4.937   6.396  1.1432  0.4516  1.0805
  111OSM    C3S11398   2.178   4.762   6.398  0.1685 -0.3752 -0.1266
  111OSM    H3S11399   2.158   4.652   6.403  0.1802 -0.4738 -1.6588
  111OSM     O311400   2.252   4.811   6.511 -0.7221  0.5030 -0.4430
  111OSM    HO311401   2.194   4.867   6.562  0.3310 -1.1696  2.8723
  111OSM    C4S11402   2.257   4.781   6.269 -0.5703  0.9679 -0.4278
  111OSM    H4S11403   2.271   4.886   6.238 -2.7815  1.3924 -0.1791
  111OSM    C5S11404   2.303   4.681   6.185 -0.0195 -0.1451  0.1570
  111OSM    H5S11405   2.280   4.576   6.208 -0.1470  0.1840  1.6153
  111OSM    C6S11406   2.372   4.712   6.052  0.2243  0.2033 -0.0445
  111OSM    H6S11407   2.467   4.656   6.038  0.3261  0.1844  0.6436
  111OSM    H6T11408   2.417   4.814   6.041 -1.1350  0.8144 -0.1437
  111OSM    C7S11409   2.272   4.680   5.940 -0.0720 -0.6011  0.4560
  111OSM    H7S11410   2.176   4.733   5.957  1.0506  2.8999 -2.6643
  111OSM    H7T11411   2.260   4.569   5.941 -0.1447 -0.6039 -0.1621
  111OSM    C8S11412   2.317   4.728   5.806  0.0700 -0.7375  0.6650
  111OSM    H8S11413   2.419   4.686   5.789  0.3308 -0.9098  2.4377
  111OSM    H8T11414   2.328   4.838   5.811  0.8359 -0.5358 -2.8788
  111OSM    C9S11415   2.222   4.691   5.688  0.3644  0.8490 -1.1629
  111OSM    H9S11416   2.122   4.729   5.719  0.2921 -0.9881  1.1999
  111OSM    H9T11417   2.221   4.580   5.696  1.5977  0.9006  0.2470
  111OSM   C10S11418   2.277   4.746   5.565  0.2223 -0.2257  0.1611
  111OSM   H10S11419   2.383   4.715   5.550  1.2063  3.6021 -2.4055
  111OSM   H10T11420   2.277   4.857   5.568 -3.3282 -0.0631 -1.0685
  111OSM   C11S11421   2.187   4.728   5.442  0.1352 -0.4096 -0.4625
  111OSM   H11S11422   2.088   4.777   5.451 -0.9992 -2.1683 -2.6249
  111OSM   H11T11423   2.158   4.621   5.440  0.7087 -0.5643 -0.6561
  111OSM   C12S11424   2.248   4.778   5.312  0.1442 -0.5790 -0.2199
  111OSM   H12S11425   2.333   4.711   5.287 -2.6622 -3.8247 -1.8260
  111OSM   H12T11426   2.288   4.882   5.325 -1.2340 -0.2141  1.4658
  111OSM   C13S11427   2.154   4.771   5.195 -0.8100  0.0390 -0.3880
  111OSM   H13S11428   2.083   4.856   5.190  0.7218  1.4685  1.0086
  111OSM   H13T11429   2.095   4.681   5.224 -0.1040  0.3907  2.4668
  111OSM   C14S11430   2.219   4.767   5.053  0.3090 -0.0624  0.2847
  111OSM   H14S11431   2.307   4.698   5.056  0.4302  0.0589 -0.3319
  111OSM   H14T11432   2.251   4.866   5.015 -0.0030 -0.4020 -0.8990
  111OSM   C15S11433   2.122   4.699   4.951 -0.2760  0.2801  0.6980
  111OSM   H15S11434   2.023   4.748   4.955 -0.5388  0.2216 -2.3593
  111OSM   H15T11435   2.100   4.594   4.977  1.0685 -0.4015 -0.7315
  111OSM   C16S11436   2.182   4.688   4.812 -0.2512 -0.9603  0.8241
  111OSM   H16S11437   2.213   4.584   4.786  0.1232 -0.8050  0.6557
  111OSM   H16T11438   2.276   4.747   4.811  1.3977 -3.4279  0.4962
  111OSM   C17S11439   2.096   4.747   4.694  0.0792 -0.5335 -0.2504
  111OSM   H17S11440   2.003   4.688   4.685 -1.9106  2.2892  0.4006
  111OSM   H17T11441   2.154   4.746   4.600 -1.1536  0.9341 -1.0657
  111OSM   C18S11442   2.050   4.890   4.711 -0.9754  0.2698  0.4922
  111OSM   H18S11443   1.953   4.899   4.764 -1.1030 -0.6142  0.4228
  111OSM   H18T11444   2.042   4.934   4.609  0.5802 -3.1292 -1.2776
  111OSM   H18U11445   2.121   4.947   4.774 -0.7746  1.5090 -0.7940
  111OSM    C1F11446   1.841   4.844   6.231  0.2895 -0.3432  0.4197
  111OSM     OF11447   1.785   4.939   6.290 -0.5596 -0.2258  0.1283
  111OSM    C2F11448   1.795   4.793   6.097  0.2393  0.1342 -0.0844
  111OSM    H2F11449   1.748   4.693   6.100 -0.4818  0.4117 -1.3331
  111OSM    H2G11450   1.892   4.779   6.044  0.5233 -0.6125  0.6166
  111OSM    C3F11451   1.694   4.875   6.020 -0.0931 -0.4011 -0.3848
  111OSM    H3F11452   1.728   4.980   6.031 -0.9276 -0.0030 -1.4911
  111OSM    H3G11453   1.604   4.872   6.084 -0.1912  0.6087 -0.4547
  111OSM    C4F11454   1.676   4.837   5.876 -0.1207  0.1725 -0.0099
  111OSM    H4F11455   1.594   4.905   5.844 -0.4530 -1.6811 -3.5694
  111OSM    H4G11456   1.637   4.734   5.863 -0.7477  0.6587 -2.5452
  111OSM    C5F11457   1.799   4.849   5.777  0.2670 -0.0002  0.0789
  111OSM    H5F11458   1.892   4.802   5.817  0.2046 -0.7631 -0.6489
  111OSM    H5G11459   1.822   4.957   5.785  0.6373 -0.1413  1.1032
  111OSM    C6F11460   1.760   4.819   5.627  0.2588 -0.6100 -0.1519
  111OSM    H6F11461   1.705   4.723   5.621 -1.1724  0.1635  0.2124
  111OSM    H6G11462   1.863   4.812   5.586  1.8446  2.4621  2.8422
  111OSM    C7F11463   1.672   4.932   5.561  0.0752 -0.4559 -0.3829
  111OSM    H7F11464   1.729   5.026   5.578  1.7813 -1.6587  1.0299
  111OSM    H7G11465   1.575   4.929   5.615  0.0535 -2.2348 -0.4326
  111OSM    C8F11466   1.643   4.904   5.417  0.0474  0.1630 -0.2561
  111OSM    H8F11467   1.565   4.972   5.377 -1.7301 -3.5537 -3.8506
  111OSM    H8G11468   1.594   4.806   5.399 -1.1934  0.5530  0.8426
  111OSM    C9F11469   1.760   4.915   5.318  0.0896  0.7641 -0.1018
  111OSM    H9F11470   1.834   4.991   5.347 -0.1794  0.4877  1.4115
  111OSM   C10F11471   1.783   4.835   5.212 -0.1014  0.1447 -0.6332
  111OSM   H10F11472   1.878   4.851   5.159  1.7032 -3.4731  1.1634
  111OSM   C11F11473   1.684   4.734   5.151  0.0422  0.3427  0.0237
  111OSM   H11F11474   1.587   4.735   5.204 -0.2220  1.1485 -0.4586
  111OSM   H11G11475   1.734   4.635   5.156  0.1175  0.3979  0.3933
  111OSM   C12F11476   1.640   4.768   5.005 -0.2291 -0.2772 -0.1942
  111OSM   H12F11477   1.605   4.873   5.009 -1.1844 -0.5974  0.5749
  111OSM   H12G11478   1.550   4.709   4.977 -1.3078  0.4392  1.5267
  111OSM   C13F11479   1.746   4.735   4.900 -0.5441 -0.6634  0.6417
  111OSM   H13F11480   1.805   4.645   4.927  0.5964 -0.2791 -0.5192
  111OSM   H13G11481   1.817   4.818   4.884 -1.5369 -0.0608 -0.8788
  111OSM   C14F11482   1.679   4.712   4.757  0.4185 -0.1008  0.3909
  111OSM   H14F11483   1.610   4.625   4.762 -0.6160  0.6818  0.1038
  111OSM   H14G11484   1.761   4.693   4.684 -0.0546 -0.0423 -0.1612
  111OSM   C15F11485   1.603   4.831   4.705  0.1827  0.7025  0.0231
  111OSM   H15F11486   1.649   4.925   4.741 -0.6917  1.1801 -0.0604
  111OSM   H15G11487   1.500   4.839   4.747 -0.3934  0.2589 -1.2416
  111OSM   C16F11488   1.586   4.835   4.560 -0.0520  0.6040  0.1425
  111OSM   H16F11489   1.533   4.740   4.537 -0.4202  1.2373 -1.9169
  111OSM   H16G11490   1.683   4.844   4.506 -0.2169  0.4410 -0.1887
  111OSM   C17F11491   1.498   4.949   4.511  0.1039 -1.1348  0.4912
  111OSM   H17F11492   1.510   5.043   4.570 -0.5129 -0.5690 -0.2748
  111OSM   H17G11493   1.395   4.914   4.533 -0.2022 -0.3863  0.2666
  111OSM   C18F11494   1.502   4.968   4.356 -0.2337  0.2169  0.5028
  111OSM   H18F11495   1.497   4.865   4.315 -2.5151 -0.0409  1.2909
  111OSM   H18G11496   1.596   5.018   4.323  0.0153 -2.0895 -2.7993
  111OSM   H18H11497   1.413   5.026   4.325 -0.5541 -1.4156 -1.9920
  112OSM      N11498   5.751   0.632   6.126  0.4638 -0.2453 -0.1849
  112OSM    C1511499   5.656   0.598   6.016 -0.0823 -0.3104  0.3575
  112OSM   H15A11500   5.707   0.579   5.923 -0.2230 -0.1278  0.2422
  112OSM   H15B11501   5.581   0.675   6.008 -0.7652 -0.9158  0.9017
  112OSM   H15C11502   5.605   0.505   6.032 -0.3875 -0.3571 -0.7866
  112OSM    C1411503   5.806   0.769   6.105  0.3571  0.8008  0.1623
  112OSM   H14A11504   5.873   0.781   6.021  0.8094 -2.0927 -0.0080
  112OSM   H14B11505   5.864   0.808   6.187  0.6093  3.9304 -1.3457
  112OSM   H14C11506   5.732   0.847   6.096  1.0183  1.4630  0.3574
  112OSM    C1311507   5.668   0.630   6.253  0.2012  0.6966 -0.0852
  112OSM   H13A11508   5.599   0.713   6.262 -0.4815  0.0885  0.5594
  112OSM   H13B11509   5.727   0.642   6.343  1.0673 -1.0579 -0.3772
  112OSM   H13C11510   5.615   0.537   6.273 -0.4332  0.8367 -1.0618
  112OSM    C1211511   5.861   0.528   6.129 -0.1800  0.7744  0.1696
  112OSM   H12A11512   5.926   0.553   6.212 -1.6938  2.1396  1.0135
  112OSM   H12B11513   5.918   0.543   6.039 -0.5484 -0.9812 -0.3860
  112OSM    C1111514   5.830   0.375   6.127 -0.0450  0.5786 -0.3215
  112OSM   H11A11515   5.930   0.329   6.139 -0.0528  0.7007  0.2366
  112OSM   H11B11516   5.788   0.354   6.026 -0.8859 -0.0037  0.1342
  112OSM      P11517   5.798   0.282   6.361 -0.2424  0.2444 -0.1085
  112OSM    O1311518   5.889   0.385   6.409 -0.5744 -0.2363 -0.3570
  112OSM    O1411519   5.694   0.239   6.452 -0.4297 -0.4660  0.4034
  112OSM    O1111520   5.887   0.165   6.311  0.2372  0.1579 -0.0718
  112OSM    O1211521   5.737   0.342   6.230  0.1692  0.8254 -0.1318
  112OSM    C1S11522   5.814   0.037   6.285 -0.1862  0.2286  1.1308
  112OSM    H1S11523   5.713   0.040   6.330 -0.0641  2.8040  1.3617
  112OSM    H1T11524   5.869  -0.051   6.327  2.1794  0.2505 -1.6194
  112OSM     NF11525   5.721  -0.122   6.116 -0.5687 -0.6880 -0.1224
  112OSM    HNF11526   5.760  -0.203   6.072 -1.8745 -0.1559 -2.3951
  112OSM    C2S11527   5.806   0.001   6.130  0.0917  0.8276  0.0743
  112OSM    H2S11528   5.746   0.087   6.094 -0.5292  0.1657 -0.5360
  112OSM    C3S11529   5.935   0.011   6.051 -0.3184 -0.1889  0.5989
  112OSM    H3S11530   6.006  -0.069   6.080  1.2125  1.2951  1.0493
  112OSM     O311531   6.010   0.124   6.083 -0.2508  0.0515 -0.5426
  112OSM    HO311532   5.970   0.150   6.167 -2.2937 -0.4519 -1.2943
  112OSM    C4S11533   5.907  -0.005   5.910  0.1602  0.2643 -0.1248
  112OSM    H4S11534   5.902  -0.113   5.885 -4.9290  0.0024  0.7595
  112OSM    C5S11535   5.880   0.090   5.815  0.4787  0.3617 -0.0552
  112OSM    H5S11536   5.892   0.198   5.834  0.3574  0.7279 -1.9317
  112OSM    C6S11537   5.841   0.060   5.673 -0.4844  0.3348  0.2640
  112OSM    H6S11538   5.733   0.041   5.658 -0.0990 -1.1856 -0.8707
  112OSM    H6T11539   5.892  -0.035   5.646 -0.8418 -0.5885  2.6015
  112OSM    C7S11540   5.881   0.172   5.578  0.3180 -0.3442 -0.2121
  112OSM    H7S11541   5.991   0.188   5.578  0.5531 -1.8097 -0.3928
  112OSM    H7T11542   5.825   0.257   5.622 -1.9811 -2.1837  0.6063
  112OSM    C8S11543   5.839   0.145   5.441  0.1145 -0.2131 -0.3595
  112OSM    H8S11544   5.728   0.151   5.441  0.1279  0.2984 -1.3453
  112OSM    H8T11545   5.859   0.041   5.407 -1.6279 -1.9536  3.4040
  112OSM    C9S11546   5.868   0.259   5.346 -0.0242  0.7098 -0.1115
  112OSM    H9S11547   5.970   0.302   5.351  0.3879  0.1446 -2.4128
  112OSM    H9T11548   5.807   0.350   5.368  0.4399  1.3337 -1.2962
  112OSM   C10S11549   5.838   0.219   5.198 -0.5554  0.0723  0.1558
  112OSM   H10S11550   5.729   0.210   5.178 -0.2160 -2.4755 -1.0128
  112OSM   H10T11551   5.886   0.120   5.184  2.2022  1.2521  0.5882
  112OSM   C11S11552   5.907   0.311   5.098 -0.1142  0.3454 -0.5211
  112OSM   H11S11553   6.017   0.297   5.102 -0.1128  0.5767  0.8202
  112OSM   H11T11554   5.872   0.413   5.125 -2.0386 -0.1127 -1.1338
  112OSM   C12S11555   5.866   0.275   4.952 -0.1772 -0.9642 -0.1889
  112OSM   H12S11556   5.761   0.309   4.937  0.4242  0.9708 -0.2670
  112OSM   H12T11557   5.891   0.167   4.939  0.6354 -0.5985 -1.8961
  112OSM   C13S11558   5.956   0.347   4.850  0.8170  0.8920  0.0142
  112OSM   H13S11559   6.060   0.307   4.858  0.8727  1.1680  0.7016
  112OSM   H13T11560   5.951   0.454   4.877 -1.7066  0.2732  2.4057
  112OSM   C14S11561   5.910   0.332   4.702  0.1736 -0.3659  0.7980
  112OSM   H14S11562   5.899   0.223   4.683 -0.7647 -0.7558  3.1697
  112OSM   H14T11563   5.985   0.368   4.629 -0.0524  0.4638  0.9630
  112OSM   C15S11564   5.770   0.397   4.675  0.5521  1.2332  0.0787
  112OSM   H15S11565   5.767   0.501   4.714 -2.5269  0.5488  1.9806
  112OSM   H15T11566   5.695   0.341   4.734 -1.7334  2.9417 -1.0649
  112OSM   C16S11567   5.733   0.389   4.526  0.3685 -0.2534  0.1643
  112OSM   H16S11568   5.817   0.426   4.464  0.5547  0.2461  0.6980
  112OSM   H16T11569   5.648   0.460   4.513  0.2960 -0.0329  1.6411
  112OSM   C17S11570   5.685   0.255   4.481  0.8263  0.6744  0.4239
  112OSM   H17S11571   5.587   0.235   4.531  0.6178  1.5399  0.3792
  112OSM   H17T11572   5.755   0.180   4.524 -1.8990 -2.4640 -0.1348
  112OSM   C18S11573   5.676   0.226   4.326 -0.3115 -0.1619 -0.5638
  112OSM   H18S11574   5.780   0.213   4.289  0.7480  0.9943  1.8150
  112OSM   H18T11575   5.629   0.317   4.283 -0.0463  0.3167  0.1482
  112OSM   H18U11576   5.623   0.131   4.305  0.0226 -0.8910  1.6216
  112OSM    C1F11577   5.594  -0.123   6.155 -0.1219 -0.0142  0.1330
  112OSM     OF11578   5.539  -0.020   6.184  0.0324  0.5283  0.0208
  112OSM    C2F11579   5.523  -0.249   6.146  0.8435 -0.3258  0.4077
  112OSM    H2F11580   5.517  -0.282   6.252  1.5915 -1.0423  0.2348
  112OSM    H2G11581   5.588  -0.324   6.095  0.3196 -0.5558  0.0575
  112OSM    C3F11582   5.390  -0.231   6.062 -0.1609  0.1810 -0.3630
  112OSM    H3F11583   5.353  -0.126   6.072  0.3792  0.1993  1.9669
  112OSM    H3G11584   5.317  -0.297   6.114  3.1970 -1.0372  3.2655
  112OSM    C4F11585   5.413  -0.263   5.914  0.0781 -0.0732 -0.5152
  112OSM    H4F11586   5.465  -0.360   5.905  0.4970 -0.0917  1.6365
  112OSM    H4G11587   5.484  -0.186   5.877 -1.8379  1.4739 -1.1816
  112OSM    C5F11588   5.276  -0.272   5.851 -0.0118  0.0779 -0.1255
  112OSM    H5F11589   5.215  -0.194   5.902 -1.8246 -0.5669 -1.1954
  112OSM    H5G11590   5.246  -0.378   5.862 -0.9166  0.3245 -0.1424
  112OSM    C6F11591   5.279  -0.230   5.700 -0.2916 -0.3001  0.1035
  112OSM    H6F11592   5.333  -0.133   5.695  0.5835 -0.5542  2.6549
  112OSM    H6G11593   5.173  -0.214   5.673 -0.0764  1.4197  0.1417
  112OSM    C7F11594   5.340  -0.334   5.614 -0.2515  0.2786  0.2660
  112OSM    H7F11595   5.268  -0.418   5.601 -0.0249 -0.1043  1.3506
  112OSM    H7G11596   5.432  -0.382   5.654 -0.1015 -1.3180 -1.8492
  112OSM    C8F11597   5.373  -0.291   5.463  0.6434  0.0426  0.1306
  112OSM    H8F11598   5.280  -0.236   5.436 -0.2321 -1.3726  0.1761
  112OSM    H8G11599   5.385  -0.384   5.404 -1.3577 -1.4853  1.9443
  112OSM    C9F11600   5.490  -0.197   5.456  0.2488  0.0799 -0.1370
  112OSM    H9F11601   5.483  -0.116   5.529 -0.3871  2.7374 -2.9761
  112OSM   C10F11602   5.603  -0.211   5.376 -0.1722  0.2687 -0.1105
  112OSM   H10F11603   5.684  -0.137   5.375  0.2979 -0.2245  0.5126
  112OSM   C11F11604   5.620  -0.326   5.281  0.2988  0.4052  0.4689
  112OSM   H11F11605   5.574  -0.424   5.304 -0.6147  0.2210 -1.8164
  112OSM   H11G11606   5.730  -0.341   5.286  0.5869  2.2285  0.4842
  112OSM   C12F11607   5.594  -0.281   5.134 -0.3629 -0.1433 -0.1024
  112OSM   H12F11608   5.483  -0.282   5.132 -0.6670  3.7278  2.8439
  112OSM   H12G11609   5.629  -0.355   5.060 -0.4878 -2.4534  2.0322
  112OSM   C13F11610   5.647  -0.142   5.106 -0.4864 -1.1959  0.5252
  112OSM   H13F11611   5.749  -0.135   5.150 -0.0410  1.1324 -0.7404
  112OSM   H13G11612   5.577  -0.072   5.156 -0.5353 -1.4560  0.8277
  112OSM   C14F11613   5.639  -0.085   4.955 -0.3490  0.5832 -0.1016
  112OSM   H14F11614   5.668   0.021   4.966 -0.0405  0.2695  2.6656
  112OSM   H14G11615   5.534  -0.091   4.919  0.2571 -0.6595 -1.8505
  112OSM   C15F11616   5.720  -0.155   4.851 -0.1945  0.3554  0.6910
  112OSM   H15F11617   5.701  -0.265   4.849  2.9976 -0.3567  2.2689
  112OSM   H15G11618   5.828  -0.166   4.875  0.1937 -1.6559 -1.5282
  112OSM   C16F11619   5.708  -0.091   4.713 -0.6529  0.1231 -1.2063
  112OSM   H16F11620   5.774  -0.002   4.708 -0.7562  0.3028  0.1696
  112OSM   H16G11621   5.605  -0.052   4.694 -0.5310  0.8674 -0.4036
  112OSM   C17F11622   5.766  -0.185   4.604  0.0423  0.0102  0.3566
  112OSM   H17F11623   5.729  -0.289   4.614 -0.3057  0.2522  1.8586
  112OSM   H17G11624   5.873  -0.186   4.633  0.0783  0.5819  0.2480
  112OSM   C18F11625   5.746  -0.142   4.461 -0.0068  0.1001 -0.7023
  112OSM   H18F11626   5.740  -0.031   4.463  2.7162  0.3174 -0.5090
  112OSM   H18G11627   5.651  -0.181   4.419 -0.0394 -1.0480  0.3823
  112OSM   H18H11628   5.833  -0.165   4.396  1.0626 -0.5498  0.9108
  113OSM      N11629   2.487   2.780   6.785  0.0014  0.0055  0.4809
  113OSM    C1511630   2.591   2.833   6.876 -0.1210  0.7497 -0.4214
  113OSM   H15A11631   2.673   2.764   6.865 -2.3850 -1.9392 -1.8604
  113OSM   H15B11632   2.559   2.820   6.979 -0.4029  1.6778 -0.3809
  113OSM   H15C11633   2.613   2.938   6.869  3.0288  0.0942 -2.0473
  113OSM    C1411634   2.485   2.634   6.803 -0.7210 -0.0516  0.6146
  113OSM   H14A11635   2.466   2.615   6.908 -1.2890  0.3891  0.5954
  113OSM   H14B11636   2.578   2.580   6.790 -1.1534 -0.9615  1.2252
  113OSM   H14C11637   2.417   2.589   6.733 -0.1643 -0.1529  0.1367
  113OSM    C1311638   2.352   2.839   6.821  0.3416 -0.8356 -0.1036
  113OSM   H13A11639   2.283   2.798   6.749  3.1081  0.8568 -4.0502
  113OSM   H13B11640   2.363   2.946   6.809  1.1136 -0.8528  0.3832
  113OSM   H13C11641   2.330   2.816   6.924  0.9840 -0.5883  0.0960
  113OSM    C1211642   2.530   2.829   6.646  0.4485 -0.7160  0.5809
  113OSM   H12A11643   2.634   2.807   6.626  0.4744 -1.7380  1.6969
  113OSM   H12B11644   2.542   2.935   6.635 -1.9744 -0.1407  2.6078
  113OSM    C1111645   2.439   2.776   6.532 -0.0840  0.4367  0.4034
  113OSM   H11A11646   2.421   2.669   6.554 -0.0934  0.1299 -1.0044
  113OSM   H11B11647   2.505   2.780   6.442  1.8171  2.3318  1.7837
  113OSM      P11648   2.285   2.971   6.458  0.2483 -0.1690 -0.3211
  113OSM    O1311649   2.152   3.017   6.500 -0.1521 -0.4675  0.4729
  113OSM    O1411650   2.392   3.067   6.468 -0.1983 -0.1849  0.0624
  113OSM    O1111651   2.283   2.918   6.312  0.0631  0.5121  0.9607
  113OSM    O1211652   2.316   2.840   6.527  0.1216  0.2784  0.5587
  113OSM    C1S11653   2.187   2.828   6.261  0.8321  0.4182  0.5573
  113OSM    H1S11654   2.082   2.858   6.276  0.1396 -0.8898 -1.3073
  113OSM    H1T11655   2.192   2.724   6.301  1.0785 -0.6992 -2.1510
  113OSM     NF11656   2.117   2.751   6.029 -0.2295  0.6121 -0.2899
  113OSM    HNF11657   2.101   2.653   6.037  1.2025  0.1556 -2.1608
  113OSM    C2S11658   2.226   2.803   6.110 -0.1119 -0.9680  0.1906
  113OSM    H2S11659   2.264   2.894   6.058 -0.3314  0.5585  2.5400
  113OSM    C3S11660   2.350   2.707   6.096  0.0835  0.0468  0.3161
  113OSM    H3S11661   2.307   2.607   6.119  0.9163 -0.5182 -0.5088
  113OSM     O311662   2.468   2.723   6.182  0.1462  0.2486  1.2739
  113OSM    HO311663   2.448   2.793   6.245 -0.2209  1.0494  0.2801
  113OSM    C4S11664   2.400   2.691   5.952 -0.8476 -0.6297 -0.4922
  113OSM    H4S11665   2.373   2.596   5.904  1.9774 -1.0356 -1.4389
  113OSM    C5S11666   2.497   2.773   5.900 -0.5383  0.2991  0.2944
  113OSM    H5S11667   2.551   2.840   5.968 -1.6554  0.2334  1.2805
  113OSM    C6S11668   2.571   2.760   5.775 -0.4684 -0.2009  0.0606
  113OSM    H6S11669   2.667   2.708   5.797 -0.8821 -1.1256 -0.2426
  113OSM    H6T11670   2.579   2.864   5.739  1.2183 -0.7787 -1.4092
  113OSM    C7S11671   2.505   2.666   5.676 -0.5629 -0.5298  0.8997
  113OSM    H7S11672   2.410   2.711   5.640 -0.4258  0.3134  1.5483
  113OSM    H7T11673   2.484   2.566   5.720 -1.6271 -0.4740  0.5594
  113OSM    C8S11674   2.602   2.641   5.548 -0.4751 -0.3240  0.2564
  113OSM    H8S11675   2.676   2.560   5.568 -3.0603 -2.3269  2.3343
  113OSM    H8T11676   2.655   2.739   5.542 -0.7299 -0.2743 -2.2398
  113OSM    C9S11677   2.525   2.647   5.415 -0.2642 -0.7147  0.1858
  113OSM    H9S11678   2.460   2.737   5.415 -0.7305 -1.0315 -1.1681
  113OSM    H9T11679   2.449   2.567   5.407  1.4804 -2.5814  1.2674
  113OSM   C10S11680   2.617   2.637   5.291 -0.7604 -0.5804  0.0041
  113OSM   H10S11681   2.698   2.564   5.308  0.2869  0.6967  0.7310
  113OSM   H10T11682   2.682   2.727   5.285 -1.2139 -0.3108 -1.0062
  113OSM   C11S11683   2.536   2.612   5.163  0.5293  0.1861  0.2823
  113OSM   H11S11684   2.464   2.696   5.149 -2.9938 -2.8164 -1.3115
  113OSM   H11T11685   2.479   2.518   5.176  1.1122 -0.0190  1.4535
  113OSM   C12S11686   2.614   2.594   5.039  0.1430 -0.2605  0.4390
  113OSM   H12S11687   2.674   2.500   5.034  1.4991  0.5436  1.2727
  113OSM   H12T11688   2.687   2.674   5.016  1.0339 -1.3294 -0.5991
  113OSM   C13S11689   2.518   2.593   4.920 -0.6889 -0.6487 -0.2871
  113OSM   H13S11690   2.432   2.663   4.920  0.7686  1.2319  1.1465
  113OSM   H13T11691   2.473   2.491   4.915  0.4655 -1.1286 -1.6032
  113OSM   C14S11692   2.583   2.607   4.781 -0.2191  0.1989 -0.3221
  113OSM   H14S11693   2.661   2.530   4.761  1.2622  1.5988 -0.2263
  113OSM   H14T11694   2.640   2.703   4.774 -1.6112  1.0331 -0.4798
  113OSM   C15S11695   2.486   2.602   4.664  0.0932 -0.4482  0.0631
  113OSM   H15S11696   2.546   2.612   4.570 -0.1393 -0.6750 -0.1120
  113OSM   H15T11697   2.415   2.686   4.672  1.2436  0.6384 -0.8061
  113OSM   C16S11698   2.401   2.468   4.662 -0.7396  0.1604  0.5815
  113OSM   H16S11699   2.349   2.488   4.566  2.3660  2.3925 -0.8117
  113OSM   H16T11700   2.319   2.471   4.736 -1.3796 -2.4749  0.0698
  113OSM   C17S11701   2.468   2.331   4.670  0.0796  0.6953  0.4115
  113OSM   H17S11702   2.504   2.314   4.773 -3.3288 -0.1355  1.6215
  113OSM   H17T11703   2.549   2.339   4.594  0.5964  0.8743  0.9777
  113OSM   C18S11704   2.370   2.218   4.629 -0.5687  0.9155  0.9892
  113OSM   H18S11705   2.425   2.122   4.632 -3.2125 -0.6571  2.7415
  113OSM   H18T11706   2.312   2.237   4.536 -1.3126 -1.7768  0.8298
  113OSM   H18U11707   2.302   2.202   4.716 -0.0748  1.7595  1.5538
  113OSM    C1F11708   2.023   2.830   5.989  0.0025  0.3862 -0.1009
  113OSM     OF11709   2.036   2.946   6.017  0.6808 -0.1232  0.2743
  113OSM    C2F11710   1.897   2.788   5.921 -0.6999  0.2228 -0.0965
  113OSM    H2F11711   1.813   2.841   5.971 -0.5802 -0.1594  0.5239
  113OSM    H2G11712   1.885   2.680   5.941 -2.5567  0.7157  1.7672
  113OSM    C3F11713   1.896   2.825   5.769  0.3280 -0.3649 -0.1477
  113OSM    H3F11714   1.937   2.927   5.756 -0.0620 -0.1440  0.3352
  113OSM    H3G11715   1.794   2.809   5.726  0.4193 -1.1396 -0.0840
  113OSM    C4F11716   1.985   2.725   5.697 -0.5616  0.1761  0.5987
  113OSM    H4F11717   1.958   2.618   5.709  0.1116 -0.3040 -1.6588
  113OSM    H4G11718   2.090   2.735   5.732 -0.1154  0.3946 -0.7287
  113OSM    C5F11719   1.984   2.770   5.548  0.0386  0.5724 -0.2855
  113OSM    H5F11720   2.029   2.872   5.559 -0.9707  0.7763  2.8719
  113OSM    H5G11721   1.880   2.777   5.510 -0.2784  0.1767  0.5129
  113OSM    C6F11722   2.076   2.676   5.466 -0.2734 -0.3341 -0.6213
  113OSM    H6F11723   2.029   2.576   5.459  1.7475 -1.4514  0.8327
  113OSM    H6G11724   2.171   2.660   5.523  0.3648  0.1486 -1.5232
  113OSM    C7F11725   2.108   2.729   5.325 -0.8006  0.7754 -0.4152
  113OSM    H7F11726   2.184   2.809   5.337  0.0385  0.0517 -0.7934
  113OSM    H7G11727   2.012   2.769   5.285 -0.7530 -0.4329 -1.7992
  113OSM    C8F11728   2.160   2.629   5.220  0.3137  0.0646 -0.0329
  113OSM    H8F11729   2.241   2.570   5.269  1.8018  1.5762 -0.5446
  113OSM    H8G11730   2.212   2.678   5.134  3.3191 -1.8511  0.5069
  113OSM    C9F11731   2.056   2.533   5.180 -0.3635 -0.0782  0.5335
  113OSM    H9F11732   2.033   2.463   5.261 -0.6058  1.0906  1.5065
  113OSM   C10F11733   2.002   2.514   5.058 -0.3620  0.1874  0.5843
  113OSM   H10F11734   1.932   2.433   5.031 -0.7896  0.4772  0.8040
  113OSM   C11F11735   2.022   2.613   4.945 -0.0480  0.7717 -0.7044
  113OSM   H11F11736   2.125   2.655   4.941  0.1104  0.3056 -1.9268
  113OSM   H11G11737   1.945   2.693   4.950 -0.7385  0.1118 -0.5289
  113OSM   C12F11738   2.015   2.543   4.804 -0.1735  0.5373 -0.5169
  113OSM   H12F11739   1.913   2.504   4.781  0.7087 -1.4497 -1.2940
  113OSM   H12G11740   2.089   2.461   4.798 -0.2548  0.5284 -1.5071
  113OSM   C13F11741   2.033   2.637   4.689 -0.0907  0.7465  0.1519
  113OSM   H13F11742   2.139   2.670   4.692  0.4788 -0.8787 -0.7778
  113OSM   H13G11743   1.964   2.724   4.703  2.1996  3.2921 -2.6990
  113OSM   C14F11744   2.015   2.558   4.550 -0.3539 -0.3736  0.2120
  113OSM   H14F11745   1.912   2.517   4.537 -0.6940  0.7105 -0.6948
  113OSM   H14G11746   2.086   2.475   4.535 -0.4938 -0.3819 -0.3978
  113OSM   C15F11747   2.061   2.653   4.431  0.7911 -0.3462 -0.1225
  113OSM   H15F11748   2.167   2.675   4.457 -0.0418  1.5459  2.0227
  113OSM   H15G11749   2.013   2.752   4.447 -0.1564 -0.6458 -0.9378
  113OSM   C16F11750   2.030   2.600   4.284  0.7996  0.8419 -0.1968
  113OSM   H16F11751   2.086   2.503   4.279  1.3815  1.2094 -1.1981
  113OSM   H16G11752   2.067   2.680   4.216  1.7547 -0.0151 -0.7235
  113OSM   C17F11753   1.883   2.581   4.248 -0.0464 -0.3345  0.6155
  113OSM   H17F11754   1.848   2.685   4.261 -0.4926 -0.5475  1.1571
  113OSM   H17G11755   1.838   2.528   4.335  0.6156 -2.1499 -0.1073
  113OSM   C18F11756   1.859   2.522   4.108 -0.2787 -0.4600  0.2904
  113OSM   H18F11757   1.758   2.548   4.070  0.2363  0.6317 -0.3692
  113OSM   H18G11758   1.862   2.412   4.124  0.4087 -0.5066 -0.0978
  113OSM   H18H11759   1.936   2.544   4.031 -0.9720  0.2501 -0.2125
  114OSM      N11760   6.537   1.692   6.524 -0.3034 -0.6535 -0.2447
  114OSM    C1511761   6.444   1.773   6.621 -0.3646  0.2571  0.1799
  114OSM   H15A11762   6.384   1.838   6.560 -1.4440 -1.6496 -0.8767
  114OSM   H15B11763   6.500   1.844   6.680  0.0996  0.1462 -0.1157
  114OSM   H15C11764   6.374   1.712   6.676 -2.2086  1.5113 -0.6603
  114OSM    C1411765   6.641   1.611   6.593  0.3798  0.1867 -0.0143
  114OSM   H14A11766   6.695   1.672   6.663  0.7717  0.2642 -0.3833
  114OSM   H14B11767   6.712   1.584   6.517 -0.4791 -1.2918 -0.3375
  114OSM   H14C11768   6.607   1.525   6.649 -1.3591 -0.8082 -2.4260
  114OSM    C1311769   6.448   1.588   6.444 -0.3933 -0.4186 -0.7647
  114OSM   H13A11770   6.507   1.519   6.386 -0.4427 -0.9854 -0.1467
  114OSM   H13B11771   6.368   1.628   6.383 -0.2052 -1.7501 -1.9195
  114OSM   H13C11772   6.398   1.535   6.524  1.8915 -0.7008  0.5830
  114OSM    C1211773   6.607   1.793   6.434 -0.3409 -0.8190  0.9676
  114OSM   H12A11774   6.665   1.869   6.484 -0.2495  0.4553 -0.9635
  114OSM   H12B11775   6.537   1.843   6.369  2.3038  1.8364 -0.0366
  114OSM    C1111776   6.711   1.738   6.331 -0.0844  0.2888 -0.4856
  114OSM   H11A11777   6.705   1.802   6.240 -1.8434  0.3862 -0.3302
  114OSM   H11B11778   6.674   1.638   6.299  1.5125  0.2273 -2.3378
  114OSM      P11779   6.930   1.842   6.438 -0.4099 -0.0449  0.1312
  114OSM    O1311780   6.843   1.946   6.494 -0.0079  0.2840 -1.0674
  114OSM    O1411781   7.031   1.777   6.525 -0.0700 -0.0017 -0.1616
  114OSM    O1111782   6.994   1.898   6.306  0.0836  0.0036  0.0590
  114OSM    O1211783   6.841   1.724   6.382  0.0823 -0.5712  0.0418
  114OSM    C1S11784   7.076   1.807   6.230 -0.2253 -0.3963 -0.0461
  114OSM    H1S11785   7.073   1.704   6.272 -2.2669  0.4399  2.0333
  114OSM    H1T11786   7.179   1.848   6.219 -0.4868  0.0190 -1.0295
  114OSM     NF11787   7.112   1.696   6.022  0.2167  0.5355 -0.0050
  114OSM    HNF11788   7.182   1.740   5.968  0.6789 -1.5476 -1.2279
  114OSM    C2S11789   7.022   1.787   6.083  0.5461 -0.1150 -0.1254
  114OSM    H2S11790   6.923   1.736   6.091 -0.0307  0.7718 -1.4048
  114OSM    C3S11791   7.005   1.920   6.009 -0.4338 -0.3463 -0.4834
  114OSM    H3S11792   7.102   1.973   6.018 -1.1274  0.8623  0.1662
  114OSM     O311793   6.916   2.008   6.070  0.2414  0.0161 -0.0696
  114OSM    HO311794   6.941   1.994   6.162  2.1285 -2.3255 -0.8304
  114OSM    C4S11795   6.977   1.894   5.871  0.2111  0.1954  0.4979
  114OSM    H4S11796   7.069   1.891   5.810  1.0490 -3.3542  1.6660
  114OSM    C5S11797   6.854   1.888   5.804 -0.7228  0.1976 -0.1827
  114OSM    H5S11798   6.763   1.898   5.863 -1.5770 -0.6492 -1.3112
  114OSM    C6S11799   6.834   1.870   5.648 -0.1407  0.0400  0.3724
  114OSM    H6S11800   6.734   1.906   5.617 -0.0690  1.4270  1.6303
  114OSM    H6T11801   6.836   1.761   5.626 -0.7157  0.2784 -0.9075
  114OSM    C7S11802   6.957   1.914   5.566 -0.7767 -0.2669 -0.6488
  114OSM    H7S11803   7.048   1.864   5.606  0.9256  2.8791 -0.2387
  114OSM    H7T11804   6.974   2.023   5.576 -0.3208 -0.5327  2.6920
  114OSM    C8S11805   6.956   1.883   5.414 -0.2147 -0.2142  0.8570
  114OSM    H8S11806   6.907   1.787   5.387  2.0779 -1.2155 -0.0440
  114OSM    H8T11807   7.061   1.876   5.377 -0.4997 -1.0771  0.1626
  114OSM    C9S11808   6.887   1.985   5.323  0.0803 -0.1196  0.4286
  114OSM    H9S11809   6.948   2.078   5.332  0.2668 -0.0226 -1.3751
  114OSM    H9T11810   6.786   2.010   5.361  0.4504  1.3402  0.4977
  114OSM   C10S11811   6.874   1.938   5.174 -0.2795 -0.3587 -0.0633
  114OSM   H10S11812   6.785   1.872   5.171  0.2147 -1.0069 -0.8931
  114OSM   H10T11813   6.968   1.882   5.155  0.1450  0.3966 -0.2188
  114OSM   C11S11814   6.869   2.049   5.064 -0.5742 -1.3762 -0.1975
  114OSM   H11S11815   6.954   2.121   5.062 -1.3660 -0.1679  3.1318
  114OSM   H11T11816   6.784   2.117   5.089  0.2822  0.6689 -2.4771
  114OSM   C12S11817   6.829   1.984   4.929 -0.1931  0.3059  0.0067
  114OSM   H12S11818   6.746   1.911   4.943 -1.3871  1.6678  0.2281
  114OSM   H12T11819   6.919   1.931   4.893 -1.3456  0.8047 -4.0158
  114OSM   C13S11820   6.787   2.066   4.802 -0.1568 -0.5757 -0.1658
  114OSM   H13S11821   6.882   2.116   4.774  0.9523 -3.5421 -2.2013
  114OSM   H13T11822   6.726   2.152   4.838  3.0254  1.8347 -0.1191
  114OSM   C14S11823   6.726   1.986   4.688 -0.2788 -0.4605 -0.4368
  114OSM   H14S11824   6.624   1.946   4.705  0.1215 -1.4630 -0.3256
  114OSM   H14T11825   6.792   1.902   4.657 -2.3998 -1.4164 -2.6333
  114OSM   C15S11826   6.705   2.086   4.571 -0.3160  0.4959  1.1429
  114OSM   H15S11827   6.807   2.121   4.542 -0.4119 -0.7057 -0.7807
  114OSM   H15T11828   6.641   2.174   4.594 -0.0200  1.5991 -1.7848
  114OSM   C16S11829   6.641   2.015   4.451  0.2366 -0.8857  0.0085
  114OSM   H16S11830   6.635   2.093   4.372  0.3462 -0.2074  0.6513
  114OSM   H16T11831   6.541   1.974   4.477 -0.7827  1.4435  0.0181
  114OSM   C17S11832   6.716   1.892   4.406 -0.8060  0.4325 -0.2084
  114OSM   H17S11833   6.713   1.812   4.484 -1.0553 -1.1010 -1.7169
  114OSM   H17T11834   6.822   1.924   4.399  0.0618 -1.7972  1.5088
  114OSM   C18S11835   6.662   1.847   4.269  0.7626  0.0706  0.0810
  114OSM   H18S11836   6.552   1.829   4.266  0.9265 -1.0060 -0.0797
  114OSM   H18T11837   6.709   1.751   4.239  3.9322  1.0045  1.6502
  114OSM   H18U11838   6.685   1.931   4.200 -0.5382  0.8952  0.6088
  114OSM    C1F11839   7.113   1.562   6.037  0.1809  0.4336  0.4696
  114OSM     OF11840   7.029   1.504   6.110  0.1058  0.5692  0.8341
  114OSM    C2F11841   7.219   1.486   5.969 -0.5845  0.1815 -0.4119
  114OSM    H2F11842   7.262   1.416   6.043 -1.0281  0.3591  0.0194
  114OSM    H2G11843   7.298   1.563   5.953  0.4254 -0.2665  2.0145
  114OSM    C3F11844   7.170   1.423   5.836 -0.2665  0.1826 -0.3232
  114OSM    H3F11845   7.085   1.355   5.858 -0.6718  0.5224 -0.8149
  114OSM    H3G11846   7.257   1.378   5.784 -0.4211  0.3564 -0.7349
  114OSM    C4F11847   7.120   1.515   5.729  0.0129 -0.0333  0.3015
  114OSM    H4F11848   7.151   1.621   5.743 -1.4845  0.6599 -1.2221
  114OSM    H4G11849   7.009   1.516   5.723 -0.0944  0.7460  1.9773
  114OSM    C5F11850   7.175   1.476   5.586  0.2313  0.5179 -0.3712
  114OSM    H5F11851   7.155   1.370   5.562  0.0657  0.1347  1.3894
  114OSM    H5G11852   7.286   1.485   5.584  0.6178 -2.8189  0.3230
  114OSM    C6F11853   7.111   1.563   5.481 -0.1210  0.7496 -0.4143
  114OSM    H6F11854   7.129   1.670   5.506  0.3514  0.1635  2.0755
  114OSM    H6G11855   7.002   1.539   5.478  0.1940 -0.6519 -1.0680
  114OSM    C7F11856   7.159   1.533   5.338  0.1485 -0.5626 -0.7174
  114OSM    H7F11857   7.087   1.579   5.267 -0.2922 -1.3409 -0.7840
  114OSM    H7G11858   7.141   1.426   5.316 -1.7275 -0.6327  0.9145
  114OSM    C8F11859   7.312   1.579   5.313 -0.0229  0.2913 -0.8258
  114OSM    H8F11860   7.358   1.520   5.231 -0.8839 -2.3059  0.4355
  114OSM    H8G11861   7.364   1.547   5.407 -1.5672 -0.1191 -0.0797
  114OSM    C9F11862   7.304   1.731   5.296 -0.1788  0.2627  0.1956
  114OSM    H9F11863   7.295   1.787   5.391  1.0047  0.4190  0.2348
  114OSM   C10F11864   7.313   1.805   5.190 -0.6876 -0.0170  0.4593
  114OSM   H10F11865   7.306   1.914   5.205 -0.6215  0.2140 -1.0703
  114OSM   C11F11866   7.344   1.757   5.047  0.8166  0.8610 -0.6998
  114OSM   H11F11867   7.341   1.645   5.045  0.0182  0.8826 -1.8237
  114OSM   H11G11868   7.449   1.789   5.029  1.2373 -0.4069 -0.6578
  114OSM   C12F11869   7.251   1.780   4.930  0.5555 -0.6604  0.8932
  114OSM   H12F11870   7.275   1.881   4.892 -1.4794 -1.3368 -2.5829
  114OSM   H12G11871   7.145   1.792   4.959  1.1819  2.5458  2.3287
  114OSM   C13F11872   7.271   1.683   4.811 -0.7662  0.3705 -0.0989
  114OSM   H13F11873   7.288   1.576   4.836 -2.3655 -0.1279 -0.9971
  114OSM   H13G11874   7.368   1.711   4.764  0.9343 -3.4985  0.6973
  114OSM   C14F11875   7.153   1.682   4.719 -0.3068  0.4579  1.0512
  114OSM   H14F11876   7.079   1.620   4.773  1.6109 -3.3870 -0.4156
  114OSM   H14G11877   7.179   1.623   4.629 -0.9368  1.1195  0.4094
  114OSM   C15F11878   7.092   1.819   4.682  0.6579 -0.0577 -0.0858
  114OSM   H15F11879   7.107   1.903   4.753  0.2868  2.1845 -2.4729
  114OSM   H15G11880   6.985   1.801   4.661  0.9556  0.1771 -2.0215
  114OSM   C16F11881   7.161   1.879   4.561  0.2098 -0.1531 -0.6095
  114OSM   H16F11882   7.172   1.808   4.476  0.8769 -1.1053  0.2460
  114OSM   H16G11883   7.266   1.899   4.590  0.4040 -0.9049 -0.7674
  114OSM   C17F11884   7.108   2.024   4.522 -0.3845  0.2525 -0.1972
  114OSM   H17F11885   7.093   2.075   4.619  3.6789  1.0540  0.1606
  114OSM   H17G11886   7.007   2.020   4.476  0.5564  1.3276 -2.4944
  114OSM   C18F11887   7.208   2.091   4.435  0.0947 -0.5019  0.0212
  114OSM   H18F11888   7.296   2.119   4.498  0.2429 -0.5336 -0.1705
  114OSM   H18G11889   7.176   2.185   4.384  0.0687 -0.0003  0.9399
  114OSM   H18H11890   7.233   2.010   4.363  1.6117 -0.1723  0.1504
  115OSM      N11891   6.401   4.237   6.396 -0.1874  0.4915  0.1394
  115OSM    C1511892   6.468   4.106   6.421  0.1591  0.0130 -0.0627
  115OSM   H15A11893   6.563   4.117   6.470  1.0460 -1.6212 -1.2940
  115OSM   H15B11894   6.484   4.051   6.329 -1.7531 -1.6460  0.5231
  115OSM   H15C11895   6.422   4.038   6.491  0.4774 -2.5640 -2.1717
  115OSM    C1411896   6.286   4.222   6.299  0.1071 -0.1489 -0.4161
  115OSM   H14A11897   6.309   4.167   6.209  0.9599 -1.3863  0.5217
  115OSM   H14B11898   6.242   4.318   6.276 -0.7763 -0.4050  0.1509
  115OSM   H14C11899   6.214   4.157   6.347  0.3257 -0.0842  0.0102
  115OSM    C1311900   6.355   4.293   6.532  0.0192  0.5081 -0.4158
  115OSM   H13A11901   6.432   4.270   6.605  1.1565  2.5459 -0.8731
  115OSM   H13B11902   6.262   4.246   6.557 -0.7886  1.6042 -1.2654
  115OSM   H13C11903   6.351   4.401   6.533  2.0056  0.6564  2.1129
  115OSM    C1211904   6.498   4.337   6.332  0.2188 -0.2135 -0.3053
  115OSM   H12A11905   6.579   4.360   6.400 -0.3971  1.0688  0.0177
  115OSM   H12B11906   6.444   4.431   6.329 -0.2247 -0.4531  0.0014
  115OSM    C1111907   6.554   4.296   6.197  0.6532 -0.4187  0.3421
  115OSM   H11A11908   6.477   4.248   6.132 -0.8591 -0.0352  1.7691
  115OSM   H11B11909   6.637   4.222   6.198  1.8253  0.7048 -2.5261
  115OSM      P11910   6.734   4.481   6.180  0.2572  0.0466 -0.2584
  115OSM    O1311911   6.752   4.600   6.098 -0.0005  0.2319 -0.3786
  115OSM    O1411912   6.741   4.488   6.328 -0.6071  0.7065 -0.2335
  115OSM    O1111913   6.847   4.382   6.134  0.4584  0.0217  0.1089
  115OSM    O1211914   6.598   4.416   6.131  0.0430 -0.1012  0.0457
  115OSM    C1S11915   6.836   4.314   6.009  0.4248 -0.7664  0.3310
  115OSM    H1S11916   6.760   4.359   5.941  0.3296 -0.3602  0.6974
  115OSM    H1T11917   6.793   4.213   6.023 -0.1670 -0.6365 -0.5188
  115OSM     NF11918   6.973   4.265   5.809 -0.4794 -0.2222  0.0021
  115OSM    HNF11919   6.990   4.170   5.782  0.2779 -0.6702  1.8305
  115OSM    C2S11920   6.982   4.308   5.946 -0.3436 -0.0721  0.2953
  115OSM    H2S11921   7.045   4.399   5.944  1.0136 -0.9333  1.6438
  115OSM    C3S11922   7.062   4.208   6.039 -0.9743  0.3267 -0.1880
  115OSM    H3S11923   7.012   4.112   6.062  1.2649 -1.0242 -0.6029
  115OSM     O311924   7.098   4.276   6.155 -0.2889 -0.1946  0.0564
  115OSM    HO311925   7.038   4.351   6.157 -1.4563 -1.0435  2.6588
  115OSM    C4S11926   7.194   4.167   5.976 -0.1387 -0.3582 -0.1059
  115OSM    H4S11927   7.259   4.250   5.944 -1.8309  1.2563  0.4841
  115OSM    C5S11928   7.222   4.045   5.930 -0.1439 -0.0007 -0.4992
  115OSM    H5S11929   7.152   3.962   5.942  2.0004 -1.8208  0.2572
  115OSM    C6S11930   7.353   4.014   5.861 -0.3745 -0.0969 -0.0632
  115OSM    H6S11931   7.333   3.920   5.805  1.0491 -1.1875  1.1498
  115OSM    H6T11932   7.422   3.971   5.937 -1.8374 -0.6894  0.9916
  115OSM    C7S11933   7.417   4.119   5.771 -0.3931 -0.1740 -0.1469
  115OSM    H7S11934   7.517   4.092   5.729  0.6261  1.3104  1.2149
  115OSM    H7T11935   7.446   4.210   5.826 -2.2593 -0.2266  0.9961
  115OSM    C8S11936   7.335   4.159   5.653 -0.5350 -0.0732 -0.3749
  115OSM    H8S11937   7.310   4.267   5.646  0.0425  0.0889  0.0178
  115OSM    H8T11938   7.235   4.110   5.650  0.1626 -1.6390  0.6907
  115OSM    C9S11939   7.406   4.131   5.519  0.2734 -0.2987  0.2047
  115OSM    H9S11940   7.424   4.022   5.513  0.9573 -0.1383 -0.9597
  115OSM    H9T11941   7.506   4.180   5.521  0.1534 -0.0835  1.6511
  115OSM   C10S11942   7.325   4.162   5.396  0.7117  0.5302 -0.4102
  115OSM   H10S11943   7.289   4.267   5.389 -0.8208  0.1446  1.3056
  115OSM   H10T11944   7.248   4.083   5.394  1.3528 -0.2791  2.5248
  115OSM   C11S11945   7.399   4.151   5.256 -0.7824 -0.1771 -0.1269
  115OSM   H11S11946   7.452   4.053   5.251 -0.4585 -0.2362  2.9258
  115OSM   H11T11947   7.472   4.234   5.243  1.5384 -2.3031 -1.6184
  115OSM   C12S11948   7.299   4.174   5.150 -0.5561 -0.4502  0.5909
  115OSM   H12S11949   7.229   4.259   5.169 -0.5136  0.4090 -2.5547
  115OSM   H12T11950   7.240   4.081   5.138  1.1564 -1.5403  0.2607
  115OSM   C13S11951   7.357   4.215   5.015  0.2912 -0.2981  0.2159
  115OSM   H13S11952   7.441   4.155   4.975  1.6096  1.5804  0.0518
  115OSM   H13T11953   7.399   4.317   5.025 -0.6820  0.5783 -3.2528
  115OSM   C14S11954   7.245   4.217   4.912  0.3562  0.0821 -0.2532
  115OSM   H14S11955   7.161   4.284   4.941  0.8534  0.6861 -0.1798
  115OSM   H14T11956   7.200   4.116   4.898  1.2509 -0.1876 -1.3639
  115OSM   C15S11957   7.293   4.265   4.776  0.2054 -0.8820 -0.2244
  115OSM   H15S11958   7.382   4.207   4.741 -1.1782 -2.1003 -1.9667
  115OSM   H15T11959   7.325   4.370   4.786  3.7668 -1.7715 -0.8807
  115OSM   C16S11960   7.177   4.237   4.672 -0.8272 -0.5726 -0.3425
  115OSM   H16S11961   7.087   4.290   4.710  0.7998  0.2838  2.6642
  115OSM   H16T11962   7.148   4.130   4.668  0.7624 -0.9959 -1.4494
  115OSM   C17S11963   7.225   4.267   4.533 -0.3087  0.1149  0.3322
  115OSM   H17S11964   7.327   4.223   4.527 -0.7432 -0.9901  0.7287
  115OSM   H17T11965   7.225   4.377   4.516 -2.8139 -0.1849 -2.4575
  115OSM   C18S11966   7.135   4.218   4.426  0.0669  0.3639  0.0931
  115OSM   H18S11967   7.030   4.255   4.436  0.5499  2.6635 -2.1152
  115OSM   H18T11968   7.133   4.107   4.432 -0.7004  0.2381 -1.7443
  115OSM   H18U11969   7.164   4.254   4.325 -0.1382  2.6590  0.7931
  115OSM    C1F11970   6.927   4.345   5.718  0.3182  0.0869  0.0476
  115OSM     OF11971   6.894   4.460   5.740  0.6646 -0.1200 -0.3655
  115OSM    C2F11972   6.926   4.284   5.583 -0.3959  0.4862  0.0849
  115OSM    H2F11973   6.858   4.197   5.596 -0.8045  0.7681 -0.1467
  115OSM    H2G11974   7.031   4.256   5.561 -0.5933 -2.9800  2.7122
  115OSM    C3F11975   6.863   4.372   5.468 -0.1390  0.5697 -0.4017
  115OSM    H3F11976   6.918   4.468   5.465  3.1486 -1.1909 -2.2095
  115OSM    H3G11977   6.760   4.398   5.499  0.9252  1.2628  2.9631
  115OSM    C4F11978   6.866   4.299   5.335 -0.0911 -0.3124  0.4290
  115OSM    H4F11979   6.797   4.212   5.337  1.3974 -1.6131 -1.3633
  115OSM    H4G11980   6.971   4.267   5.318  0.7875  2.5163  0.0586
  115OSM    C5F11981   6.824   4.395   5.219  0.4342  0.4558  0.1418
  115OSM    H5F11982   6.902   4.474   5.228 -0.2726  1.2139 -0.2886
  115OSM    H5G11983   6.729   4.448   5.240 -0.5138 -0.9406 -0.5026
  115OSM    C6F11984   6.823   4.347   5.077 -0.3012 -0.1114  0.6147
  115OSM    H6F11985   6.767   4.251   5.070 -0.1909 -0.1118 -0.4400
  115OSM    H6G11986   6.925   4.312   5.052 -0.9445 -2.7142  1.2795
  115OSM    C7F11987   6.759   4.453   4.984 -0.7178 -0.5182 -0.6076
  115OSM    H7F11988   6.817   4.548   4.993 -2.6346  0.5737  1.1930
  115OSM    H7G11989   6.653   4.469   5.013 -0.4680  2.7905 -1.0621
  115OSM    C8F11990   6.750   4.413   4.834  0.0082 -0.2798 -0.1465
  115OSM    H8F11991   6.848   4.377   4.797 -0.2551  0.1024 -1.2432
  115OSM    H8G11992   6.741   4.508   4.778 -0.8065  0.4887  1.2287
  115OSM    C9F11993   6.634   4.317   4.795  0.5365  0.7978  0.0403
  115OSM    H9F11994   6.658   4.209   4.796 -1.2815  0.3524  0.0111
  115OSM   C10F11995   6.509   4.351   4.765  0.9190 -0.2622 -0.2944
  115OSM   H10F11996   6.449   4.265   4.733  1.2391 -0.1977 -1.0774
  115OSM   C11F11997   6.444   4.486   4.760  0.4534  1.0322  0.5521
  115OSM   H11F11998   6.398   4.491   4.659 -0.1103  0.9489  0.8020
  115OSM   H11G11999   6.523   4.564   4.765  1.5134 -0.0357  1.0062
  115OSM   C12F12000   6.365   4.523   4.886 -0.1459  0.1663 -0.4838
  115OSM   H12F12001   6.417   4.485   4.977  0.0269  1.1300 -0.1713
  115OSM   H12G12002   6.266   4.474   4.875  0.6354 -1.5744 -0.1013
  115OSM   C13F12003   6.344   4.670   4.907  0.7631  0.3048 -0.4420
  115OSM   H13F12004   6.263   4.676   4.982  2.2704  0.7506  1.2230
  115OSM   H13G12005   6.304   4.722   4.817 -1.1991  0.9435  0.7431
  115OSM   C14F12006   6.468   4.743   4.969  0.7486 -0.3763 -0.1575
  115OSM   H14F12007   6.446   4.852   4.968  0.8823 -0.3508 -0.5683
  115OSM   H14G12008   6.559   4.734   4.907  0.4001 -1.4334 -0.5370
  115OSM   C15F12009   6.486   4.701   5.119  0.3121 -0.0923 -0.6528
  115OSM   H15F12010   6.553   4.781   5.158  0.3795 -0.2570 -0.4302
  115OSM   H15G12011   6.545   4.606   5.117  0.0334 -0.3041  0.7254
  115OSM   C16F12012   6.366   4.688   5.211 -0.6438 -0.4746  0.2051
  115OSM   H16F12013   6.298   4.608   5.176  1.4632 -1.5600 -1.6521
  115OSM   H16G12014   6.304   4.780   5.211  1.6064  1.1218 -0.1854
  115OSM   C17F12015   6.419   4.661   5.351  0.0559 -0.4141  0.1863
  115OSM   H17F12016   6.344   4.692   5.427  0.8023 -2.3740  1.8216
  115OSM   H17G12017   6.502   4.729   5.378 -1.8850  3.6953 -3.1087
  115OSM   C18F12018   6.447   4.511   5.378  0.2575 -0.8894  0.7322
  115OSM   H18F12019   6.355   4.449   5.374 -0.1957 -0.3756  2.5187
  115OSM   H18G12020   6.488   4.506   5.481 -1.5416 -2.1627  1.4238
  115OSM   H18H12021   6.518   4.468   5.303  1.7519 -1.5719  2.4511
  116OSM      N12022   1.436   2.452   6.764 -0.2233  0.9487 -0.1598
  116OSM    C1512023   1.423   2.599   6.793 -0.0914 -1.1691 -0.5733
  116OSM   H15A12024   1.508   2.652   6.753  1.4435 -1.5578  2.0033
  116OSM   H15B12025   1.425   2.623   6.898 -0.9013  3.2862 -1.3337
  116OSM   H15C12026   1.336   2.644   6.745  1.8597  2.2609 -1.2526
  116OSM    C1412027   1.568   2.399   6.813  0.2341 -1.0558  0.1642
  116OSM   H14A12028   1.565   2.293   6.831  0.0630 -1.5184 -2.2801
  116OSM   H14B12029   1.598   2.434   6.910 -1.1140 -1.1145  0.6293
  116OSM   H14C12030   1.639   2.430   6.738  0.7870 -0.2048  1.0180
  116OSM    C1312031   1.327   2.401   6.857  0.2135  0.1086 -0.4390
  116OSM   H13A12032   1.237   2.454   6.831  0.3779  0.5170 -0.1970
  116OSM   H13B12033   1.356   2.408   6.961  0.0881  3.3999 -0.4907
  116OSM   H13C12034   1.317   2.295   6.845  4.0022 -0.3121 -1.4534
  116OSM    C1212035   1.398   2.407   6.622 -0.7918 -0.5210 -0.2300
  116OSM   H12A12036   1.399   2.299   6.626  0.2452 -0.5184 -0.3126
  116OSM   H12B12037   1.480   2.425   6.554 -0.1738 -3.7774 -0.5412
  116OSM    C1112038   1.255   2.443   6.560 -0.4265 -0.2046 -0.3588
  116OSM   H11A12039   1.186   2.387   6.627 -0.1111 -1.2540 -0.8931
  116OSM   H11B12040   1.235   2.401   6.460 -1.0434  0.3358 -0.4682
  116OSM      P12041   1.088   2.659   6.552 -0.1908 -0.2155 -0.0292
  116OSM    O1312042   0.980   2.568   6.594  0.5750 -0.4484  0.4178
  116OSM    O1412043   1.094   2.790   6.624  0.2427  0.4600 -0.1691
  116OSM    O1112044   1.071   2.687   6.403  0.5745  0.3121 -0.0773
  116OSM    O1212045   1.227   2.582   6.564  0.1661  0.3267  0.2954
  116OSM    C1S12046   1.176   2.722   6.311  0.1518  0.4610 -0.2334
  116OSM    H1S12047   1.260   2.650   6.322 -0.0521  0.1973 -0.3932
  116OSM    H1T12048   1.213   2.824   6.335  0.0586 -0.0523  2.4922
  116OSM     NF12049   1.243   2.721   6.083 -0.0716  0.4745  0.2852
  116OSM    HNF12050   1.275   2.815   6.070 -2.1201  1.3726  1.3870
  116OSM    C2S12051   1.125   2.705   6.166  0.3641 -0.1818  0.0358
  116OSM    H2S12052   1.091   2.600   6.163  1.4673 -0.5443 -1.8547
  116OSM    C3S12053   1.008   2.798   6.134  1.0711 -0.6419  0.5647
  116OSM    H3S12054   1.044   2.903   6.148  1.1269 -0.7247  1.0588
  116OSM     O312055   0.899   2.797   6.225  0.3673 -0.1651  0.4091
  116OSM    HO312056   0.925   2.745   6.302  0.3536 -2.2526 -0.9380
  116OSM    C4S12057   0.958   2.790   5.989  0.6364 -0.1915 -0.0599
  116OSM    H4S12058   0.883   2.710   5.977 -0.8095  0.7468  2.0899
  116OSM    C5S12059   0.988   2.880   5.899 -0.0564  0.5924  0.4121
  116OSM    H5S12060   1.049   2.964   5.935  2.8623 -0.7279 -1.1037
  116OSM    C6S12061   0.948   2.875   5.752 -0.3059  0.5164 -0.3827
  116OSM    H6S12062   0.985   2.959   5.690 -0.0578  0.3069 -0.5194
  116OSM    H6T12063   0.840   2.902   5.749  0.0691  2.0408 -1.4944
  116OSM    C7S12064   0.973   2.749   5.673 -0.2616 -0.5089  0.4757
  116OSM    H7S12065   0.971   2.661   5.740 -1.0982  0.7149  2.1276
  116OSM    H7T12066   1.080   2.754   5.642  0.0916 -0.9288  1.5969
  116OSM    C8S12067   0.879   2.731   5.548 -0.1263 -0.2399 -0.0540
  116OSM    H8S12068   0.860   2.828   5.498 -2.0293 -0.3660  0.3394
  116OSM    H8T12069   0.787   2.694   5.598 -0.1476 -2.5477 -1.6463
  116OSM    C9S12070   0.911   2.622   5.444  0.5568 -0.7315 -0.2015
  116OSM    H9S12071   0.832   2.614   5.367  0.1649  1.1425 -0.0386
  116OSM    H9T12072   0.911   2.520   5.490 -0.4107  0.0905  1.7497
  116OSM   C10S12073   1.044   2.660   5.378  0.4039 -0.3191  0.0558
  116OSM   H10S12074   1.117   2.658   5.462  0.9159  1.1918 -0.3123
  116OSM   H10T12075   1.043   2.757   5.323  1.7802 -1.7195 -2.6248
  116OSM   C11S12076   1.088   2.552   5.273  0.3120  0.4319 -1.0256
  116OSM   H11S12077   1.080   2.448   5.313  0.7413  0.4691 -0.8382
  116OSM   H11T12078   1.193   2.572   5.243  0.1496 -0.0070 -1.9128
  116OSM   C12S12079   1.002   2.554   5.151 -0.1427  0.3345  0.3119
  116OSM   H12S12080   0.964   2.658   5.145  3.5514  1.8568  0.4058
  116OSM   H12T12081   0.925   2.474   5.159 -0.5980  0.7662  0.2594
  116OSM   C13S12082   1.097   2.528   5.023  0.7522 -0.2011  0.0694
  116OSM   H13S12083   1.167   2.612   5.007  2.1843 -1.1341  1.2016
  116OSM   H13T12084   1.032   2.525   4.933 -0.8332 -2.9316  1.1714
  116OSM   C14S12085   1.164   2.389   5.025  0.0186  0.0900 -0.3122
  116OSM   H14S12086   1.094   2.305   5.038  0.1397  0.0966  0.3883
  116OSM   H14T12087   1.236   2.390   5.109  1.8706  2.1965 -1.7767
  116OSM   C15S12088   1.238   2.355   4.905 -0.3480  0.0206 -0.1038
  116OSM   H15S12089   1.324   2.424   4.905 -2.1621  2.4247  1.3376
  116OSM   H15T12090   1.194   2.368   4.804  0.8221 -1.5973 -0.8592
  116OSM   C16S12091   1.282   2.204   4.904  0.8909 -0.4356  0.1525
  116OSM   H16S12092   1.207   2.123   4.907  0.9962 -0.6641 -1.8206
  116OSM   H16T12093   1.340   2.194   4.998  1.7903 -0.4659 -0.3950
  116OSM   C17S12094   1.369   2.173   4.778 -0.1510 -0.3525 -0.0750
  116OSM   H17S12095   1.459   2.112   4.802  2.2741  3.0156  0.0738
  116OSM   H17T12096   1.415   2.269   4.748  0.3206 -0.0952  1.3663
  116OSM   C18S12097   1.291   2.115   4.654  0.0967  0.1780  0.0265
  116OSM   H18S12098   1.360   2.080   4.574 -0.3953 -0.0394 -0.3079
  116OSM   H18T12099   1.222   2.193   4.616 -0.3791  0.0994  0.7030
  116OSM   H18U12100   1.231   2.029   4.690  1.2140 -0.3690  0.6565
  116OSM    C1F12101   1.328   2.619   6.057 -0.1533  0.6372 -0.7240
  116OSM     OF12102   1.318   2.510   6.121 -0.7096  0.1343  0.0193
  116OSM    C2F12103   1.433   2.635   5.961 -0.3382  0.5010 -0.0130
  116OSM    H2F12104   1.528   2.610   6.013 -1.2820 -2.7047  0.3976
  116OSM    H2G12105   1.458   2.733   5.917  1.1468 -0.0431 -0.4438
  116OSM    C3F12106   1.437   2.525   5.850 -0.4607  0.2699 -0.4924
  116OSM    H3F12107   1.342   2.536   5.793 -0.0138  1.0353 -1.1112
  116OSM    H3G12108   1.430   2.421   5.887  1.2327 -0.2475 -1.5173
  116OSM    C4F12109   1.566   2.536   5.771 -0.5698  0.7159 -0.7621
  116OSM    H4F12110   1.646   2.529   5.847 -1.3160 -0.2862 -0.0364
  116OSM    H4G12111   1.570   2.635   5.721 -2.2967  1.7734  1.0261
  116OSM    C5F12112   1.592   2.432   5.658 -0.3450 -0.1791 -0.4903
  116OSM    H5F12113   1.509   2.426   5.585 -0.8649 -2.0129  0.1956
  116OSM    H5G12114   1.610   2.330   5.699  1.0409  1.0112  2.0859
  116OSM    C6F12115   1.724   2.472   5.590 -0.4383  0.8746  0.2199
  116OSM    H6F12116   1.813   2.469   5.657  0.2784 -0.2384 -0.7402
  116OSM    H6G12117   1.727   2.579   5.563  0.3567  0.7292 -0.2893
  116OSM    C7F12118   1.765   2.395   5.465 -0.5358  0.0442 -0.2717
  116OSM    H7F12119   1.713   2.296   5.464  0.4345 -0.5705  2.0849
  116OSM    H7G12120   1.874   2.370   5.461 -0.8344 -1.2085 -1.0531
  116OSM    C8F12121   1.729   2.479   5.335 -0.5161  0.8916 -1.1256
  116OSM    H8F12122   1.783   2.425   5.254 -0.0329  1.2605 -1.0517
  116OSM    H8G12123   1.773   2.580   5.344 -0.1647  0.8514 -2.1649
  116OSM    C9F12124   1.581   2.502   5.302 -1.4712 -0.1946  0.1227
  116OSM    H9F12125   1.526   2.555   5.381 -1.3241 -0.5058  0.4359
  116OSM   C10F12126   1.523   2.478   5.181 -0.7996  0.2143 -0.0519
  116OSM   H10F12127   1.422   2.518   5.167  0.5894  4.2997  0.1920
  116OSM   C11F12128   1.595   2.415   5.066 -0.8392 -0.5932 -0.3015
  116OSM   H11F12129   1.521   2.339   5.030 -1.2384 -0.3397 -0.0277
  116OSM   H11G12130   1.686   2.359   5.094 -0.3985 -0.1355 -0.8122
  116OSM   C12F12131   1.625   2.518   4.959 -0.7441  0.3409  0.0609
  116OSM   H12F12132   1.720   2.570   4.981 -0.8306  0.1721  0.8679
  116OSM   H12G12133   1.545   2.595   4.947 -2.2236 -1.2602 -0.7935
  116OSM   C13F12134   1.628   2.457   4.817  0.5275 -0.3180  0.2532
  116OSM   H13F12135   1.533   2.400   4.808 -1.3867  2.2647  2.6308
  116OSM   H13G12136   1.714   2.387   4.802  1.1503  0.4930 -0.0460
  116OSM   C14F12137   1.641   2.555   4.700 -0.0903  0.0945 -0.4670
  116OSM   H14F12138   1.718   2.529   4.624 -0.2781  0.2571 -0.7133
  116OSM   H14G12139   1.682   2.649   4.742  0.2332 -0.6871  1.0351
  116OSM   C15F12140   1.509   2.566   4.633  0.9761 -0.1176 -0.3614
  116OSM   H15F12141   1.438   2.617   4.701  1.8076 -0.6471  0.9320
  116OSM   H15G12142   1.470   2.465   4.607  0.5470  0.0219 -0.2645
  116OSM   C16F12143   1.513   2.645   4.503  0.4358  0.0227 -0.8510
  116OSM   H16F12144   1.411   2.629   4.461  0.2167 -2.0919  0.2955
  116OSM   H16G12145   1.583   2.611   4.424  1.2127  0.4653 -0.3598
  116OSM   C17F12146   1.534   2.795   4.518  0.3093 -0.1041  0.3577
  116OSM   H17F12147   1.530   2.835   4.414  3.9574 -0.8049 -0.1652
  116OSM   H17G12148   1.637   2.816   4.555  1.0273 -0.9703 -1.0806
  116OSM   C18F12149   1.442   2.864   4.616 -0.6461 -0.2863 -0.0816
  116OSM   H18F12150   1.463   2.846   4.723  3.4263  0.6825 -0.5594
  116OSM   H18G12151   1.335   2.845   4.592 -0.3364 -2.6956  0.1983
  116OSM   H18H12152   1.471   2.971   4.622  2.0140 -0.9079 -0.4762
  117OSM      N12153   1.295   3.885   6.260 -0.3273  0.6258 -0.4727
  117OSM    C1512154   1.253   3.829   6.388  0.2797 -0.1335 -0.0758
  117OSM   H15A12155   1.336   3.814   6.456  0.1052 -0.6531  0.0281
  117OSM   H15B12156   1.201   3.737   6.369  1.5434 -0.9380  0.2627
  117OSM   H15C12157   1.181   3.901   6.424 -0.6632 -0.4635 -1.2574
  117OSM    C1412158   1.395   3.995   6.274 -0.6050 -0.3367 -0.2711
  117OSM   H14A12159   1.475   3.960   6.338 -0.0150 -0.0837 -0.8526
  117OSM   H14B12160   1.353   4.074   6.334  2.4374 -0.3051  2.1253
  117OSM   H14C12161   1.436   4.031   6.181  0.3812 -3.2562 -1.0753
  117OSM    C1312162   1.371   3.783   6.188  0.5805 -0.2017  0.6728
  117OSM   H13A12163   1.462   3.755   6.239  0.8447  0.4493  0.5760
  117OSM   H13B12164   1.394   3.831   6.094  0.1525 -1.0755  0.1104
  117OSM   H13C12165   1.319   3.693   6.158  1.5742 -0.7609  0.5767
  117OSM    C1212166   1.173   3.915   6.176  0.3881  0.4266  0.4031
  117OSM   H12A12167   1.113   3.826   6.180 -0.0509  0.7268  0.5836
  117OSM   H12B12168   1.210   3.947   6.079  0.1549  0.0562  0.1914
  117OSM    C1112169   1.088   4.039   6.228 -0.6362 -0.4339 -0.3427
  117OSM   H11A12170   1.012   4.069   6.153  0.2130  0.7689 -0.7604
  117OSM   H11B12171   1.164   4.120   6.244  0.8162 -1.5931 -1.1561
  117OSM      P12172   0.977   4.129   6.447 -0.2571 -0.0616 -0.2725
  117OSM    O1312173   0.878   4.084   6.545 -0.4854 -0.2492  0.0150
  117OSM    O1412174   1.104   4.186   6.500  0.5756 -0.2489 -0.7093
  117OSM    O1112175   0.906   4.218   6.337  0.9625 -0.9367 -0.1470
  117OSM    O1212176   1.028   4.006   6.351 -0.0972 -0.8671  0.0381
  117OSM    C1S12177   0.927   4.362   6.323  0.9180  0.1160 -0.3015
  117OSM    H1S12178   0.997   4.399   6.401  1.8864 -2.3298  0.0718
  117OSM    H1T12179   0.832   4.413   6.348  0.9704 -0.8958  2.2695
  117OSM     NF12180   1.029   4.533   6.166  0.2669 -0.2815  0.3114
  117OSM    HNF12181   0.963   4.599   6.132 -0.1297  0.1493  1.8347
  117OSM    C2S12182   0.976   4.397   6.177 -0.0805 -1.0190  0.2828
  117OSM    H2S12183   1.063   4.334   6.150  1.0314 -0.0450  1.4306
  117OSM    C3S12184   0.868   4.367   6.074 -0.3770 -0.3820 -0.3028
  117OSM    H3S12185   0.781   4.436   6.082 -2.0482 -2.5573  1.5311
  117OSM     O312186   0.806   4.238   6.089  0.3548  0.2192  0.2113
  117OSM    HO312187   0.815   4.211   6.181  1.7828 -4.2809 -0.9589
  117OSM    C4S12188   0.933   4.374   5.942  0.8705 -0.3051  0.0990
  117OSM    H4S12189   1.020   4.311   5.918 -0.4256 -1.4564 -1.8792
  117OSM    C5S12190   0.882   4.455   5.846 -0.3383  0.7615 -0.6524
  117OSM    H5S12191   0.787   4.507   5.864  0.0212  0.7613  1.5124
  117OSM    C6S12192   0.943   4.479   5.711 -0.2961 -0.2607 -0.1090
  117OSM    H6S12193   1.044   4.435   5.698 -0.0317 -0.2714  1.6971
  117OSM    H6T12194   0.948   4.590   5.704  1.5785 -0.1661  1.7103
  117OSM    C7S12195   0.845   4.439   5.604 -0.2552 -1.2909  0.3381
  117OSM    H7S12196   0.751   4.497   5.616  0.7859  0.1643  1.7810
  117OSM    H7T12197   0.811   4.333   5.608  2.9005 -2.4443 -0.2805
  117OSM    C8S12198   0.908   4.457   5.464  1.1159  0.0137 -0.2608
  117OSM    H8S12199   0.992   4.384   5.456 -1.1601 -3.0238  1.3891
  117OSM    H8T12200   0.941   4.562   5.455 -0.5939  0.6126  0.2389
  117OSM    C9S12201   0.810   4.428   5.349 -0.2013 -0.2653  0.6091
  117OSM    H9S12202   0.713   4.482   5.358  0.5470  1.7279 -1.8944
  117OSM    H9T12203   0.795   4.321   5.326  1.4296 -0.0853 -1.6657
  117OSM   C10S12204   0.869   4.489   5.214  0.0887 -0.0229 -0.6556
  117OSM   H10S12205   0.967   4.441   5.191 -0.2641 -0.1984 -1.9020
  117OSM   H10T12206   0.884   4.599   5.220 -2.9756  0.6142 -2.4155
  117OSM   C11S12207   0.776   4.464   5.096  0.2103 -0.1098 -0.4800
  117OSM   H11S12208   0.676   4.510   5.112 -0.3509 -1.3095 -0.4205
  117OSM   H11T12209   0.775   4.353   5.100  0.7389 -0.1494 -1.1782
  117OSM   C12S12210   0.833   4.520   4.970 -0.4446  0.4850 -0.1027
  117OSM   H12S12211   0.930   4.470   4.952  0.0903  1.0058  1.1875
  117OSM   H12T12212   0.858   4.628   4.974  2.2874  0.0399 -2.4437
  117OSM   C13S12213   0.756   4.490   4.843  0.4528 -0.2795 -0.0283
  117OSM   H13S12214   0.674   4.565   4.836 -0.9609 -1.7126  0.6323
  117OSM   H13T12215   0.702   4.395   4.857  1.3687 -0.5720  1.8792
  117OSM   C14S12216   0.846   4.501   4.716  0.2172  0.0415  0.6593
  117OSM   H14S12217   0.912   4.412   4.720 -1.6050 -1.3971  0.3537
  117OSM   H14T12218   0.910   4.591   4.706  1.6795 -1.0673 -0.3437
  117OSM   C15S12219   0.758   4.480   4.592  0.6324  0.6927 -0.1570
  117OSM   H15S12220   0.683   4.561   4.602 -2.0003 -1.5939 -0.1757
  117OSM   H15T12221   0.697   4.388   4.605  1.9724 -0.0912  0.8693
  117OSM   C16S12222   0.823   4.502   4.457 -0.1339  0.8236 -0.3861
  117OSM   H16S12223   0.930   4.473   4.469 -0.7872 -2.7292 -1.9967
  117OSM   H16T12224   0.836   4.610   4.431  0.5609  0.5671 -1.1420
  117OSM   C17S12225   0.760   4.432   4.340  0.1291  0.0341 -0.5909
  117OSM   H17S12226   0.816   4.464   4.249  0.2203  2.7900  0.3532
  117OSM   H17T12227   0.657   4.470   4.318 -0.0529 -1.3106 -2.3363
  117OSM   C18S12228   0.756   4.277   4.332  0.6465 -0.3340 -0.2671
  117OSM   H18S12229   0.720   4.233   4.236  1.8054 -1.3074 -0.2796
  117OSM   H18T12230   0.687   4.238   4.411  1.2693  0.1687  0.5405
  117OSM   H18U12231   0.849   4.235   4.376 -0.1435 -1.4110  0.4247
  117OSM    C1F12232   1.137   4.576   6.217  0.0632  0.3178  1.1104
  117OSM     OF12233   1.217   4.503   6.276 -0.3659  0.2966  0.1570
  117OSM    C2F12234   1.158   4.725   6.206  0.5981 -0.5394 -0.5463
  117OSM    H2F12235   1.138   4.772   6.304 -0.5558 -1.8867 -0.0976
  117OSM    H2G12236   1.074   4.765   6.145  0.2864  1.2465  0.9800
  117OSM    C3F12237   1.300   4.757   6.163  0.1775 -0.0740  0.0376
  117OSM    H3F12238   1.371   4.703   6.229 -0.0321 -0.4838 -0.0655
  117OSM    H3G12239   1.324   4.864   6.179  0.5907  0.0918 -1.5625
  117OSM    C4F12240   1.339   4.713   6.014 -0.1559 -0.4005 -0.3312
  117OSM    H4F12241   1.327   4.604   5.999 -1.1471 -0.1193 -1.7729
  117OSM    H4G12242   1.450   4.720   6.008  0.1791 -0.6921  3.1094
  117OSM    C5F12243   1.287   4.808   5.907 -0.5556 -0.0444 -0.1641
  117OSM    H5F12244   1.326   4.912   5.918  1.0630 -0.5339 -0.9291
  117OSM    H5G12245   1.176   4.804   5.905 -0.8329  3.3992  0.6369
  117OSM    C6F12246   1.324   4.771   5.766  0.5978  0.6953 -0.5399
  117OSM    H6F12247   1.312   4.660   5.773  0.2213  0.8230  1.3273
  117OSM    H6G12248   1.431   4.799   5.756  0.6923  1.5145  2.0039
  117OSM    C7F12249   1.230   4.833   5.656 -0.0124  0.1683 -0.0188
  117OSM    H7F12250   1.128   4.824   5.699 -0.1096  0.9938 -0.0564
  117OSM    H7G12251   1.226   4.764   5.569  1.3576 -0.3809  0.3097
  117OSM    C8F12252   1.258   4.975   5.616  0.3058 -0.2129 -0.3925
  117OSM    H8F12253   1.365   4.980   5.586  0.3047 -0.6815 -0.4749
  117OSM    H8G12254   1.254   5.043   5.704  0.3141 -0.4049 -0.2418
  117OSM    C9F12255   1.158   5.027   5.511 -0.7050  0.2725 -0.1602
  117OSM    H9F12256   1.057   5.055   5.545 -1.6134 -2.2224 -0.6413
  117OSM   C10F12257   1.187   5.018   5.378 -0.0840 -0.1423  0.2311
  117OSM   H10F12258   1.101   5.028   5.309  0.2937 -0.9739 -0.3790
  117OSM   C11F12259   1.312   4.983   5.303  0.2465  0.2344 -0.1354
  117OSM   H11F12260   1.369   4.895   5.339  0.3482 -0.5159 -2.0118
  117OSM   H11G12261   1.375   5.073   5.322 -1.3330  1.2958  0.3477
  117OSM   C12F12262   1.293   4.980   5.152 -0.2341  0.4448  0.4965
  117OSM   H12F12263   1.204   4.923   5.118  0.5238  0.1573 -1.0668
  117OSM   H12G12264   1.392   4.947   5.113 -0.1706  0.0510  0.9837
  117OSM   C13F12265   1.259   5.119   5.092 -1.1007 -0.2006  0.7692
  117OSM   H13F12266   1.316   5.196   5.148  0.3024 -0.6570  0.0235
  117OSM   H13G12267   1.150   5.142   5.099 -1.0099  1.4041 -1.8228
  117OSM   C14F12268   1.289   5.120   4.941 -0.3688 -0.4628 -0.1947
  117OSM   H14F12269   1.254   5.032   4.882 -0.0155  1.7087 -4.0093
  117OSM   H14G12270   1.399   5.120   4.924 -0.3051 -1.2226  0.1673
  117OSM   C15F12271   1.243   5.244   4.869  0.4908 -0.3216 -0.6628
  117OSM   H15F12272   1.278   5.337   4.917 -2.2932  1.6523 -2.1780
  117OSM   H15G12273   1.133   5.252   4.879  0.7686  4.4800  0.9037
  117OSM   C16F12274   1.278   5.252   4.723 -0.2080  0.7752 -0.6140
  117OSM   H16F12275   1.222   5.172   4.670  0.3370 -1.8392  2.5017
  117OSM   H16G12276   1.386   5.225   4.725 -0.2116  0.7537  1.5340
  117OSM   C17F12277   1.248   5.384   4.648 -0.2953  0.4807  0.2082
  117OSM   H17F12278   1.284   5.466   4.713  4.1361 -0.4665 -0.7531
  117OSM   H17G12279   1.137   5.379   4.644 -0.2803 -1.9955  1.2221
  117OSM   C18F12280   1.313   5.383   4.517 -0.1393 -0.0696 -0.4314
  117OSM   H18F12281   1.275   5.461   4.448 -0.7313 -0.0125 -0.0444
  117OSM   H18G12282   1.308   5.291   4.454 -0.7254 -0.5530  0.3024
  117OSM   H18H12283   1.421   5.404   4.532 -0.0731 -1.4720  1.3379
  118OSM      N12284   2.712   3.586   6.531 -0.0288  0.1168  0.4603
  118OSM    C1512285   2.817   3.631   6.429 -0.2606  0.1791  0.2377
  118OSM   H15A12286   2.768   3.648   6.334  0.0372 -1.1795 -0.1800
  118OSM   H15B12287   2.886   3.549   6.417 -1.4922 -1.2470  2.3038
  118OSM   H15C12288   2.864   3.721   6.466  0.2761 -0.0191  0.0435
  118OSM    C1412289   2.772   3.570   6.662 -0.4063  0.2009 -0.3086
  118OSM   H14A12290   2.843   3.647   6.687  1.0394 -1.0379 -0.4713
  118OSM   H14B12291   2.831   3.480   6.654 -2.2036 -1.0024 -0.6107
  118OSM   H14C12292   2.711   3.568   6.752  0.7774  1.5834  0.5671
  118OSM    C1312293   2.606   3.695   6.526  0.4305 -0.1419 -1.2521
  118OSM   H13A12294   2.561   3.697   6.428 -0.9983  1.0115 -0.6084
  118OSM   H13B12295   2.642   3.791   6.559 -0.6861 -0.8700  2.5964
  118OSM   H13C12296   2.528   3.670   6.597 -0.6839  3.2465 -1.1343
  118OSM    C1212297   2.640   3.456   6.491 -0.2640 -0.4331  0.9688
  118OSM   H12A12298   2.556   3.439   6.557 -2.6449 -0.1817 -1.7898
  118OSM   H12B12299   2.708   3.376   6.516  0.8969 -0.4730 -1.9554
  118OSM    C1112300   2.591   3.437   6.347  0.1093 -0.2489  1.2466
  118OSM   H11A12301   2.555   3.333   6.335  1.2786 -0.4391 -1.3079
  118OSM   H11B12302   2.673   3.451   6.273 -1.7939  1.2599 -0.6806
  118OSM      P12303   2.335   3.507   6.346 -0.4341  0.6690 -0.0872
  118OSM    O1312304   2.321   3.534   6.490 -0.2080 -0.2940 -0.3088
  118OSM    O1412305   2.247   3.586   6.258 -0.7051 -0.6685 -0.3272
  118OSM    O1112306   2.315   3.349   6.320 -0.5058 -0.1329  0.1508
  118OSM    O1212307   2.489   3.530   6.300 -0.4607 -0.0964 -0.4271
  118OSM    C1S12308   2.193   3.306   6.258 -0.2637  0.4605  0.2045
  118OSM    H1S12309   2.106   3.373   6.269  0.4863  1.3175  1.1184
  118OSM    H1T12310   2.163   3.210   6.304 -1.4168  0.4283 -0.5782
  118OSM     NF12311   2.078   3.240   6.062 -0.1845 -0.8555  0.1812
  118OSM    HNF12312   2.062   3.141   6.054 -0.6329 -1.0109  2.5258
  118OSM    C2S12313   2.210   3.285   6.102 -0.5680 -0.6308  0.0272
  118OSM    H2S12314   2.234   3.385   6.061 -1.8670 -0.7882 -1.2082
  118OSM    C3S12315   2.331   3.194   6.075  0.5454  0.3909 -0.3061
  118OSM    H3S12316   2.325   3.100   6.134 -0.5213  1.4998  1.4476
  118OSM     O312317   2.457   3.244   6.121  0.2028 -0.6606  0.7204
  118OSM    HO312318   2.427   3.313   6.181  1.3162 -1.2653  2.0091
  118OSM    C4S12319   2.335   3.154   5.925  0.7476  1.3155  0.2429
  118OSM    H4S12320   2.261   3.078   5.897 -0.1547  2.6877 -1.2660
  118OSM    C5S12321   2.413   3.203   5.828  0.0073 -0.3440 -0.2253
  118OSM    H5S12322   2.485   3.284   5.850 -0.5016 -0.4488  2.0026
  118OSM    C6S12323   2.401   3.187   5.679 -0.3065 -0.2325  0.8689
  118OSM    H6S12324   2.498   3.156   5.634  0.0543 -0.1032  1.5410
  118OSM    H6T12325   2.391   3.282   5.623  0.3001 -1.3707 -1.2985
  118OSM    C7S12326   2.294   3.086   5.641  0.2304  0.3893 -0.0484
  118OSM    H7S12327   2.197   3.088   5.696  0.3367 -0.2510  0.1709
  118OSM    H7T12328   2.350   2.996   5.673  2.3522  1.4195 -0.6594
  118OSM    C8S12329   2.265   3.071   5.488 -0.3474 -0.4649 -0.6978
  118OSM    H8S12330   2.230   3.172   5.460 -0.9664 -0.1891  0.9374
  118OSM    H8T12331   2.181   2.998   5.488 -2.4032  1.7571 -0.9014
  118OSM    C9S12332   2.381   3.038   5.402 -0.4308 -0.0492 -0.3367
  118OSM    H9S12333   2.428   2.944   5.438 -0.4747  0.5614  1.4079
  118OSM    H9T12334   2.466   3.108   5.413  0.0872 -0.6660 -0.3303
  118OSM   C10S12335   2.336   3.045   5.257 -0.1586 -0.3468  0.0366
  118OSM   H10S12336   2.291   3.144   5.238 -1.5393 -0.9260  0.1386
  118OSM   H10T12337   2.258   2.966   5.250  0.0655 -0.4765 -1.0526
  118OSM   C11S12338   2.444   3.019   5.146  0.6638  0.1793 -0.8637
  118OSM   H11S12339   2.508   2.937   5.184 -0.1236 -0.4686 -0.8958
  118OSM   H11T12340   2.518   3.101   5.137  0.4050  0.5195  0.0114
  118OSM   C12S12341   2.366   3.003   5.015 -0.0211  0.1427  0.2048
  118OSM   H12S12342   2.294   3.086   4.998 -0.4668  0.0991  1.7756
  118OSM   H12T12343   2.316   2.906   5.039 -1.0469  0.8979  1.2206
  118OSM   C13S12344   2.468   2.999   4.896 -0.0887  0.1464 -0.4420
  118OSM   H13S12345   2.544   2.921   4.915  1.4973  1.6603 -0.3220
  118OSM   H13T12346   2.515   3.100   4.896 -0.0279  0.1752 -2.6946
  118OSM   C14S12347   2.417   2.975   4.749 -0.0143  0.8766 -0.3425
  118OSM   H14S12348   2.363   2.878   4.744  0.0431  0.8785 -1.0441
  118OSM   H14T12349   2.506   2.962   4.684  0.5196 -2.6219  0.8436
  118OSM   C15S12350   2.334   3.093   4.696  0.1199 -0.0318  0.6046
  118OSM   H15S12351   2.384   3.187   4.728 -1.4092  1.1059 -0.2207
  118OSM   H15T12352   2.236   3.099   4.748  0.0639 -0.0117  0.4966
  118OSM   C16S12353   2.317   3.100   4.539 -0.1876 -0.3816 -0.4218
  118OSM   H16S12354   2.415   3.084   4.489 -0.6038  0.3784 -1.5031
  118OSM   H16T12355   2.279   3.197   4.502  1.4330 -0.2124 -1.7599
  118OSM   C17S12356   2.228   2.988   4.480 -0.3599 -0.2033  0.5080
  118OSM   H17S12357   2.169   2.953   4.568 -0.8390  2.3704  1.2693
  118OSM   H17T12358   2.297   2.908   4.446  0.7262  0.5598  0.8599
  118OSM   C18S12359   2.130   3.023   4.367 -0.1846  0.0288  0.1033
  118OSM   H18S12360   2.197   3.039   4.280  0.8635 -1.7795  0.5273
  118OSM   H18T12361   2.068   3.114   4.383  0.5035  0.6657 -0.7150
  118OSM   H18U12362   2.060   2.945   4.332  0.9085 -1.3309  0.8469
  118OSM    C1F12363   1.979   3.327   6.037 -0.3966 -0.3470  0.1130
  118OSM     OF12364   1.992   3.444   6.065 -0.4330 -0.4999  0.0049
  118OSM    C2F12365   1.848   3.273   5.977 -0.5307  0.1468  0.3790
  118OSM    H2F12366   1.784   3.261   6.067  1.1493  1.7168  1.8843
  118OSM    H2G12367   1.869   3.172   5.937 -0.9071  0.5678 -0.9463
  118OSM    C3F12368   1.776   3.358   5.871  0.0478  0.5430  0.2370
  118OSM    H3F12369   1.760   3.459   5.915 -0.6635 -0.1066  1.5450
  118OSM    H3G12370   1.677   3.311   5.853  0.5994 -0.0812 -1.3736
  118OSM    C4F12371   1.853   3.363   5.736  0.5121  0.3018 -0.6753
  118OSM    H4F12372   1.963   3.353   5.749  0.4249 -0.5222 -0.5155
  118OSM    H4G12373   1.818   3.449   5.675 -0.3504  0.7375  0.4009
  118OSM    C5F12374   1.800   3.246   5.654 -0.7168  0.3904  0.0490
  118OSM    H5F12375   1.691   3.249   5.632 -0.8904 -1.0134  0.6868
  118OSM    H5G12376   1.818   3.148   5.702 -2.8377  0.1612  0.4615
  118OSM    C6F12377   1.866   3.242   5.515 -0.0647 -0.1467 -0.4138
  118OSM    H6F12378   1.976   3.238   5.528  0.2031 -3.0985 -2.6178
  118OSM    H6G12379   1.842   3.336   5.462 -1.4008  0.3815  1.0613
  118OSM    C7F12380   1.821   3.121   5.429 -0.1183  0.0727  0.8701
  118OSM    H7F12381   1.714   3.099   5.448  0.0564 -2.1755 -0.4606
  118OSM    H7G12382   1.878   3.031   5.457  1.2383  0.7939  0.5226
  118OSM    C8F12383   1.827   3.138   5.272 -0.3101 -0.3755 -0.5267
  118OSM    H8F12384   1.755   3.220   5.253 -1.8475 -1.4179  0.6070
  118OSM    H8G12385   1.779   3.058   5.212 -1.1011  1.7431 -2.8789
  118OSM    C9F12386   1.963   3.159   5.209 -0.8218  0.3904 -0.7899
  118OSM    H9F12387   2.019   3.234   5.266 -0.8120 -1.2270  1.4676
  118OSM   C10F12388   2.013   3.094   5.105 -0.6185  0.1037  0.2000
  118OSM   H10F12389   2.114   3.125   5.073  0.4511 -2.2620  1.0599
  118OSM   C11F12390   1.962   2.982   5.026 -0.3779 -0.3652  0.2291
  118OSM   H11F12391   1.907   2.908   5.088  0.7027 -1.7103 -0.3549
  118OSM   H11G12392   2.044   2.917   4.987  0.3691  0.8077 -0.1928
  118OSM   C12F12393   1.888   3.031   4.899  0.0639  0.1711  0.0990
  118OSM   H12F12394   1.882   2.945   4.828  2.1855 -1.2632  1.5491
  118OSM   H12G12395   1.946   3.101   4.836 -2.1760  1.5491 -0.5418
  118OSM   C13F12396   1.746   3.083   4.921 -0.6179 -0.0309  0.4579
  118OSM   H13F12397   1.743   3.182   4.971  1.5853  0.1093  0.4257
  118OSM   H13G12398   1.700   3.009   4.990  1.8608 -1.6429  0.5512
  118OSM   C14F12399   1.662   3.097   4.793 -0.9870  1.0548 -0.5674
  118OSM   H14F12400   1.555   3.114   4.820 -1.0024 -1.3306  1.2335
  118OSM   H14G12401   1.665   3.008   4.728 -2.1223 -0.4034  1.2461
  118OSM   C15F12402   1.709   3.220   4.701  0.4907  0.3017 -0.1323
  118OSM   H15F12403   1.815   3.225   4.668  0.5755  1.9056  0.3028
  118OSM   H15G12404   1.706   3.303   4.774  1.7890  1.0939 -0.9533
  118OSM   C16F12405   1.614   3.237   4.586 -0.3747  0.4027 -0.2333
  118OSM   H16F12406   1.513   3.258   4.628  0.0173  0.9610  0.4390
  118OSM   H16G12407   1.615   3.149   4.518  0.1071  0.6111 -0.5014
  118OSM   C17F12408   1.648   3.362   4.498  0.7400  0.7764 -0.0085
  118OSM   H17F12409   1.754   3.351   4.467  0.4128  1.0589 -1.2988
  118OSM   H17G12410   1.648   3.447   4.568 -1.3068  0.1303  0.8624
  118OSM   C18F12411   1.555   3.390   4.373  0.1270  0.2135  0.6312
  118OSM   H18F12412   1.457   3.435   4.400  0.4382  1.8753 -0.7848
  118OSM   H18G12413   1.547   3.299   4.311  1.6949  2.3852 -3.0770
  118OSM   H18H12414   1.601   3.465   4.305  0.4718  1.3093  2.0315
  119OSM      N12415   4.988   0.351   6.491 -1.1896 -0.1267 -0.5289
  119OSM    C1512416   5.106   0.440   6.532  0.0295  0.0205 -0.4744
  119OSM   H15A12417   5.183   0.450   6.457  1.1374  2.2205  0.8652
  119OSM   H15B12418   5.146   0.413   6.629  0.1961 -0.9533 -0.7951
  119OSM   H15C12419   5.079   0.543   6.548  2.7184  0.8405 -0.7717
  119OSM    C1412420   5.049   0.229   6.429 -0.4504  0.4463  0.4629
  119OSM   H14A12421   4.968   0.162   6.409  0.3286 -0.6781  0.9984
  119OSM   H14B12422   5.115   0.182   6.500 -0.3229 -0.3286 -0.1546
  119OSM   H14C12423   5.109   0.240   6.340 -0.0127 -2.1120  0.3676
  119OSM    C1312424   4.914   0.307   6.615  0.4488 -0.1672  0.3493
  119OSM   H13A12425   4.988   0.284   6.691  1.4617 -3.2819 -1.3911
  119OSM   H13B12426   4.851   0.224   6.588  0.1017  0.4174 -0.7101
  119OSM   H13C12427   4.848   0.387   6.646  1.5957  1.9575 -2.2465
  119OSM    C1212428   4.894   0.416   6.393  0.2653 -0.5686  0.1220
  119OSM   H12A12429   4.955   0.442   6.307  1.8381 -0.6151  1.1732
  119OSM   H12B12430   4.847   0.501   6.439 -2.2407 -2.3212  1.0208
  119OSM    C1112431   4.780   0.320   6.348 -0.5141  0.1654 -0.9031
  119OSM   H11A12432   4.802   0.212   6.352  0.1892  0.2738 -1.7207
  119OSM   H11B12433   4.759   0.336   6.240 -0.1178  1.3645 -0.8204
  119OSM      P12434   4.534   0.398   6.371 -0.2898  0.3491 -0.4027
  119OSM    O1312435   4.436   0.309   6.434 -0.2818  0.6913 -0.4513
  119OSM    O1412436   4.518   0.543   6.399  0.6632 -0.1421  0.4662
  119OSM    O1112437   4.532   0.376   6.213 -0.2580 -0.4927  0.4307
  119OSM    O1212438   4.670   0.360   6.429 -0.1969  0.4249 -0.2887
  119OSM    C1S12439   4.431   0.448   6.133  0.0001 -0.0038 -0.1718
  119OSM    H1S12440   4.452   0.557   6.136  0.4270 -0.1051  1.6469
  119OSM    H1T12441   4.327   0.438   6.170  0.0895  0.4594  0.2222
  119OSM     NF12442   4.306   0.478   5.919  0.0423  0.0835 -0.2790
  119OSM    HNF12443   4.219   0.434   5.897 -0.6380 -0.0650  2.4048
  119OSM    C2S12444   4.413   0.406   5.981 -0.7706 -0.4244  0.7540
  119OSM    H2S12445   4.513   0.433   5.940 -1.1207  0.3549  0.3969
  119OSM    C3S12446   4.402   0.257   5.967 -0.6938 -0.8381 -0.5764
  119OSM    H3S12447   4.300   0.234   6.004 -0.7507  1.6357  1.0276
  119OSM     O312448   4.507   0.186   6.034 -0.1390 -0.4406  0.4737
  119OSM    HO312449   4.531   0.245   6.105  2.0360  2.0562 -2.0551
  119OSM    C4S12450   4.410   0.216   5.824  0.0568 -0.3589 -0.2602
  119OSM    H4S12451   4.511   0.236   5.787 -0.0058 -1.7456 -1.2772
  119OSM    C5S12452   4.318   0.148   5.752 -0.7885  0.4393  0.3247
  119OSM    H5S12453   4.222   0.118   5.797 -0.2010  1.9032  2.8086
  119OSM    C6S12454   4.349   0.106   5.609 -0.6082  0.2235 -0.0038
  119OSM    H6S12455   4.260   0.100   5.543  0.6020 -1.2966 -1.5980
  119OSM    H6T12456   4.386   0.001   5.606 -2.1129 -0.3235 -0.4083
  119OSM    C7S12457   4.452   0.186   5.527  0.2631  0.3702  0.7017
  119OSM    H7S12458   4.546   0.195   5.585  1.0428 -1.3810 -0.2329
  119OSM    H7T12459   4.413   0.290   5.523  3.5398  1.7628  1.4360
  119OSM    C8S12460   4.498   0.133   5.389  0.9933 -0.4232 -0.6695
  119OSM    H8S12461   4.557   0.039   5.401  2.9291  0.9444  1.1179
  119OSM    H8T12462   4.576   0.198   5.344 -0.5219  0.9105 -1.4454
  119OSM    C9S12463   4.379   0.099   5.294  0.2649 -0.8260 -0.8618
  119OSM    H9S12464   4.311   0.026   5.342 -0.4503  0.4941  0.2097
  119OSM    H9T12465   4.415   0.043   5.205 -0.0892 -2.6071  0.0844
  119OSM   C10S12466   4.297   0.222   5.256 -0.2845  0.3496 -0.3062
  119OSM   H10S12467   4.368   0.300   5.219  0.9255  0.8907  2.8317
  119OSM   H10T12468   4.252   0.264   5.348 -2.5408 -0.3779 -1.0120
  119OSM   C11S12469   4.192   0.189   5.150 -0.7160 -0.3927 -0.4935
  119OSM   H11S12470   4.130   0.281   5.145 -0.8088 -0.5061 -1.7177
  119OSM   H11T12471   4.127   0.111   5.195  1.1602  0.2166  3.8897
  119OSM   C12S12472   4.252   0.156   5.011  0.2915 -0.2087 -0.2728
  119OSM   H12S12473   4.294   0.054   5.009  1.7542  0.3848 -1.9481
  119OSM   H12T12474   4.343   0.218   4.993  0.8110  0.3170  3.3633
  119OSM   C13S12475   4.143   0.157   4.902  0.3024  0.4532 -0.7280
  119OSM   H13S12476   4.099   0.259   4.898 -1.3285 -0.2136 -0.5700
  119OSM   H13T12477   4.061   0.086   4.926  0.7711 -0.3368 -1.4032
  119OSM   C14S12478   4.196   0.125   4.760 -1.0947 -0.2953 -1.0754
  119OSM   H14S12479   4.264   0.038   4.776 -1.3033 -0.0838  1.4185
  119OSM   H14T12480   4.259   0.211   4.732 -0.5770 -0.2945  0.0448
  119OSM   C15S12481   4.091   0.087   4.648  0.7255  0.5670  0.8146
  119OSM   H15S12482   4.011   0.164   4.650  2.1433  2.3043 -2.3462
  119OSM   H15T12483   4.040  -0.009   4.668  1.1967 -0.0252 -0.7057
  119OSM   C16S12484   4.166   0.085   4.512  0.2099 -0.9828  0.6973
  119OSM   H16S12485   4.253   0.016   4.514  2.4385  1.2467 -4.3226
  119OSM   H16T12486   4.200   0.190   4.501 -1.0844 -0.2796  2.7594
  119OSM   C17S12487   4.078   0.060   4.388 -0.2456 -0.3140  0.5806
  119OSM   H17S12488   4.008   0.145   4.382 -2.1458 -1.2892  4.7978
  119OSM   H17T12489   4.023  -0.034   4.410  1.8100 -1.5533  0.6981
  119OSM   C18S12490   4.157   0.039   4.260  0.4327  0.5377  0.5410
  119OSM   H18S12491   4.240  -0.030   4.289  1.7889  1.2396 -1.4854
  119OSM   H18T12492   4.190   0.138   4.222 -1.6953  1.2919  0.5531
  119OSM   H18U12493   4.105  -0.010   4.175 -1.1262  1.6061  0.8397
  119OSM    C1F12494   4.325   0.613   5.906 -0.7376  0.5235 -0.0664
  119OSM     OF12495   4.431   0.663   5.922 -0.5639 -0.1048 -0.1119
  119OSM    C2F12496   4.209   0.688   5.867 -0.4841 -0.8975 -1.0784
  119OSM    H2F12497   4.201   0.784   5.921  3.4479 -1.0591  0.0677
  119OSM    H2G12498   4.116   0.627   5.863 -0.6217 -0.9854  1.5621
  119OSM    C3F12499   4.234   0.742   5.728 -0.5134  0.2782  0.1585
  119OSM    H3F12500   4.333   0.793   5.723 -0.0190 -0.7803 -1.2793
  119OSM    H3G12501   4.150   0.814   5.718 -0.2893  0.3260 -1.6976
  119OSM    C4F12502   4.235   0.630   5.624  0.0171 -0.5771  0.3683
  119OSM    H4F12503   4.142   0.572   5.641 -1.1338  0.9858 -0.2868
  119OSM    H4G12504   4.317   0.557   5.640 -1.1790 -1.8393  0.9185
  119OSM    C5F12505   4.241   0.683   5.482 -0.4028  0.2117  0.2648
  119OSM    H5F12506   4.340   0.730   5.462  0.1580 -1.5016 -1.3538
  119OSM    H5G12507   4.161   0.757   5.464 -1.8310 -0.9073  1.7647
  119OSM    C6F12508   4.231   0.558   5.392  0.4257 -0.6088 -1.0980
  119OSM    H6F12509   4.172   0.479   5.443  0.9952 -0.7938 -0.7059
  119OSM    H6G12510   4.333   0.513   5.380  0.4575 -0.5940 -0.8798
  119OSM    C7F12511   4.184   0.574   5.241 -0.4109 -0.0370 -0.3067
  119OSM    H7F12512   4.222   0.481   5.194 -1.7576 -0.8409  0.1236
  119OSM    H7G12513   4.233   0.662   5.196  1.6164 -1.1205 -0.3423
  119OSM    C8F12514   4.032   0.582   5.233  0.4685  0.0142  0.0299
  119OSM    H8F12515   3.998   0.673   5.287  0.7289 -0.2695  0.6787
  119OSM    H8G12516   4.002   0.492   5.291  0.9392 -0.5317 -0.5593
  119OSM    C9F12517   3.966   0.578   5.097  0.0413  0.2386  0.3941
  119OSM    H9F12518   3.981   0.674   5.045 -1.9849  0.0437 -0.6348
  119OSM   C10F12519   3.888   0.472   5.050 -0.0889 -0.4355 -0.2858
  119OSM   H10F12520   3.854   0.485   4.947 -1.5328  0.3545  0.2604
  119OSM   C11F12521   3.851   0.336   5.100  0.3414 -0.2832  0.3346
  119OSM   H11F12522   3.888   0.329   5.204  1.0713 -0.8831  0.0435
  119OSM   H11G12523   3.913   0.258   5.051 -0.0721 -1.5801  1.7615
  119OSM   C12F12524   3.699   0.301   5.091  0.1135  0.2978 -0.1534
  119OSM   H12F12525   3.639   0.384   5.134  0.5217  1.1131 -1.1135
  119OSM   H12G12526   3.672   0.224   5.167 -2.7912  2.2353  0.9086
  119OSM   C13F12527   3.657   0.248   4.958 -0.4109  0.8679  0.4099
  119OSM   H13F12528   3.722   0.285   4.876 -0.5176 -2.1467 -1.2072
  119OSM   H13G12529   3.552   0.283   4.942 -0.4585  0.8997  0.7827
  119OSM   C14F12530   3.661   0.094   4.953 -0.2119  0.0228 -0.2238
  119OSM   H14F12531   3.571   0.056   5.007 -1.0417  1.4502 -0.5481
  119OSM   H14G12532   3.754   0.053   4.996  0.3053  0.5256 -0.8383
  119OSM   C15F12533   3.657   0.037   4.807  0.0020 -1.0557 -0.6582
  119OSM   H15F12534   3.647  -0.073   4.814  1.7357 -1.1463  1.9749
  119OSM   H15G12535   3.753   0.042   4.752  0.2993 -0.8736 -0.1321
  119OSM   C16F12536   3.543   0.093   4.723  0.3365  0.0611 -0.6309
  119OSM   H16F12537   3.565   0.198   4.693 -0.6505  0.1260 -1.1782
  119OSM   H16G12538   3.460   0.091   4.796 -0.2960  1.2340 -1.2928
  119OSM   C17F12539   3.507   0.004   4.598 -0.1809 -0.0268  0.0514
  119OSM   H17F12540   3.600   0.015   4.538  2.0677 -1.2326  3.0514
  119OSM   H17G12541   3.421   0.051   4.545  0.3760 -0.4355 -1.2568
  119OSM   C18F12542   3.477  -0.145   4.613 -0.2192  0.4034 -0.1801
  119OSM   H18F12543   3.470  -0.200   4.516  0.9638  0.1951 -0.1588
  119OSM   H18G12544   3.380  -0.166   4.663 -0.7591 -0.3783 -1.4888
  119OSM   H18H12545   3.561  -0.193   4.667  0.2203  2.0255  0.6395
  120OSM      N12546   6.476   5.033   6.456  0.2837  0.0010 -0.0853
  120OSM    C1512547   6.442   5.061   6.595  0.2034  0.1592  0.2476
  120OSM   H15A12548   6.362   4.994   6.623  0.8558 -0.2010  1.2818
  120OSM   H15B12549   6.411   5.162   6.614  1.2517  0.2924  1.3189
  120OSM   H15C12550   6.526   5.036   6.658 -1.4397 -0.7030  2.2296
  120OSM    C1412551   6.562   4.910   6.460  0.5270 -0.2580 -0.1513
  120OSM   H14A12552   6.653   4.919   6.516  1.5943 -1.7481 -1.5496
  120OSM   H14B12553   6.580   4.870   6.361 -1.9982  0.2097 -0.8898
  120OSM   H14C12554   6.499   4.832   6.500 -1.1109 -0.3568 -2.6278
  120OSM    C1312555   6.354   5.021   6.373 -0.0857 -0.1665  0.0000
  120OSM   H13A12556   6.286   4.939   6.392 -1.1002  0.6724  0.0323
  120OSM   H13B12557   6.383   5.003   6.271  2.1772  0.5218  0.4548
  120OSM   H13C12558   6.292   5.109   6.378  1.7390  1.3804 -2.5903
  120OSM    C1212559   6.562   5.153   6.414  0.6806 -0.2882  0.3272
  120OSM   H12A12560   6.593   5.137   6.312  0.5349 -0.5577  0.3260
  120OSM   H12B12561   6.651   5.159   6.475  1.5339 -0.3799 -0.8719
  120OSM    C1112562   6.491   5.302   6.414  0.2008 -0.1005 -0.0294
  120OSM   H11A12563   6.411   5.291   6.338 -0.6639  1.8611  0.5396
  120OSM   H11B12564   6.563   5.375   6.369  0.3418  0.4302  1.0189
  120OSM      P12565   6.288   5.395   6.554 -0.2073  0.1034  0.2501
  120OSM    O1312566   6.218   5.277   6.603  0.1960 -0.0959  0.4191
  120OSM    O1412567   6.266   5.519   6.621 -0.8412  0.0461 -0.9910
  120OSM    O1112568   6.236   5.400   6.402  0.0917 -0.2222  0.1760
  120OSM    O1212569   6.440   5.349   6.547 -0.0263 -0.6217 -0.3051
  120OSM    C1S12570   6.117   5.475   6.377  0.3226  0.5303  0.3022
  120OSM    H1S12571   6.129   5.585   6.381 -0.3821  0.7827 -2.5938
  120OSM    H1T12572   6.036   5.460   6.452 -1.6860 -1.1517 -2.0369
  120OSM     NF12573   5.943   5.512   6.210  0.5961 -0.3082 -0.1616
  120OSM    HNF12574   5.856   5.468   6.188 -0.2757  1.0294  0.4844
  120OSM    C2S12575   6.070   5.436   6.236  0.4086 -0.7037  0.3714
  120OSM    H2S12576   6.144   5.477   6.164 -0.5643  1.7173  0.6532
  120OSM    C3S12577   6.053   5.283   6.213  0.9528 -0.0231 -0.2297
  120OSM    H3S12578   5.961   5.250   6.267  1.5466  2.3375  2.4404
  120OSM     O312579   6.142   5.195   6.280 -0.3558  0.4044  0.1880
  120OSM    HO312580   6.190   5.256   6.338 -0.7454 -2.2175  3.5861
  120OSM    C4S12581   6.054   5.252   6.062  0.0064  0.0878 -0.0004
  120OSM    H4S12582   5.962   5.261   6.003  0.9764  1.1424 -1.4158
  120OSM    C5S12583   6.161   5.223   5.983 -0.7854 -0.2128  0.0310
  120OSM    H5S12584   6.260   5.228   6.032 -2.1257  0.5058  2.8345
  120OSM    C6S12585   6.181   5.206   5.835 -0.5444  0.2448  0.4417
  120OSM    H6S12586   6.200   5.097   5.823 -0.7449  0.3564 -1.1438
  120OSM    H6T12587   6.268   5.256   5.789 -0.0194 -0.8669  0.1861
  120OSM    C7S12588   6.059   5.228   5.743  0.7482  0.0880 -0.0519
  120OSM    H7S12589   6.019   5.326   5.778  2.2224  0.3214  1.0633
  120OSM    H7T12590   5.976   5.156   5.758  1.4868 -0.7633 -0.0147
  120OSM    C8S12591   6.094   5.241   5.596 -0.6583 -0.3259  0.3448
  120OSM    H8S12592   6.165   5.162   5.561 -0.2055 -0.8858  2.3636
  120OSM    H8T12593   6.139   5.338   5.565 -0.1959 -0.7816 -0.4311
  120OSM    C9S12594   5.964   5.237   5.503 -0.9299 -0.0632 -0.0656
  120OSM    H9S12595   5.905   5.328   5.526 -2.3285 -0.7698 -0.6799
  120OSM    H9T12596   5.905   5.148   5.535 -1.8161  1.2033  2.0102
  120OSM   C10S12597   6.003   5.236   5.349  0.5855 -0.2250 -0.5568
  120OSM   H10S12598   6.046   5.136   5.329  3.4012  0.5083  1.3233
  120OSM   H10T12599   6.081   5.310   5.323  2.4125 -2.6046 -2.2219
  120OSM   C11S12600   5.875   5.270   5.268  0.6449  0.3750 -0.6679
  120OSM   H11S12601   5.868   5.381   5.275  0.2586  0.6512 -3.7610
  120OSM   H11T12602   5.791   5.216   5.316  0.9318  0.1253 -0.4397
  120OSM   C12S12603   5.879   5.242   5.124 -0.0562  0.1025  0.4936
  120OSM   H12S12604   5.884   5.132   5.109  5.1245 -0.2852  2.7494
  120OSM   H12T12605   5.985   5.265   5.100  0.1229  0.1887  1.3387
  120OSM   C13S12606   5.789   5.332   5.040  0.1209 -0.5006  1.2471
  120OSM   H13S12607   5.804   5.441   5.053 -0.7067 -0.4217  1.6007
  120OSM   H13T12608   5.679   5.322   5.052 -0.4784 -0.9988 -3.0302
  120OSM   C14S12609   5.810   5.317   4.889 -0.2070 -0.2600 -0.2900
  120OSM   H14S12610   5.745   5.233   4.856  0.7576 -0.8783 -0.6431
  120OSM   H14T12611   5.916   5.289   4.871 -0.4426  0.6725 -3.9377
  120OSM   C15S12612   5.778   5.449   4.809  0.0070  1.0856 -0.3310
  120OSM   H15S12613   5.847   5.529   4.843  0.7102 -0.6084  2.6251
  120OSM   H15T12614   5.669   5.467   4.819  0.2599  2.0442  0.9283
  120OSM   C16S12615   5.815   5.432   4.661 -0.2854  0.3374  0.1649
  120OSM   H16S12616   5.771   5.344   4.610 -0.6627  0.9855 -0.6666
  120OSM   H16T12617   5.923   5.409   4.662 -0.2224  0.6202 -0.1857
  120OSM   C17S12618   5.781   5.561   4.583 -0.5850 -0.1583  0.1378
  120OSM   H17S12619   5.848   5.573   4.495  1.1086 -0.0619  1.3968
  120OSM   H17T12620   5.798   5.656   4.639 -1.7093 -0.6941  1.4499
  120OSM   C18S12621   5.636   5.567   4.536 -0.0371 -0.1063 -0.0631
  120OSM   H18S12622   5.620   5.665   4.487  1.6213  0.7413  1.0039
  120OSM   H18T12623   5.576   5.557   4.629 -0.9661 -1.8894 -0.7927
  120OSM   H18U12624   5.604   5.486   4.467  0.2045 -0.4931  0.2756
  120OSM    C1F12625   5.943   5.645   6.206 -0.2920 -0.3760 -0.0110
  120OSM     OF12626   6.045   5.712   6.197  0.2975 -0.8348 -0.4529
  120OSM    C2F12627   5.808   5.710   6.214  0.3326 -0.1486 -0.4301
  120OSM    H2F12628   5.816   5.766   6.309  1.4561  0.9941 -1.1692
  120OSM    H2G12629   5.725   5.636   6.204  1.8113 -2.0660  0.7136
  120OSM    C3F12630   5.786   5.817   6.108 -0.0762 -0.5337 -0.0897
  120OSM    H3F12631   5.854   5.905   6.113  1.1795 -1.4568 -0.4600
  120OSM    H3G12632   5.686   5.857   6.135  0.4998  0.4499  0.6485
  120OSM    C4F12633   5.781   5.766   5.961 -0.5964 -0.0505  0.2814
  120OSM    H4F12634   5.694   5.698   5.946 -1.4388  0.2068  3.2996
  120OSM    H4G12635   5.876   5.714   5.938 -0.3900 -0.5965  2.1517
  120OSM    C5F12636   5.767   5.887   5.872 -0.1649 -0.2354 -0.2130
  120OSM    H5F12637   5.850   5.958   5.894 -0.5154  0.2826 -0.5393
  120OSM    H5G12638   5.672   5.934   5.904 -0.7395 -2.0827  0.9180
  120OSM    C6F12639   5.770   5.864   5.722  0.1691  0.6193  0.4178
  120OSM    H6F12640   5.694   5.789   5.693 -0.4015  1.0932  0.6799
  120OSM    H6G12641   5.870   5.823   5.692  0.2659  1.8603 -1.0781
  120OSM    C7F12642   5.756   6.001   5.655  0.2560  0.0385 -0.0688
  120OSM    H7F12643   5.835   6.073   5.688  0.0721 -1.3224  3.8995
  120OSM    H7G12644   5.658   6.045   5.681  0.0685 -1.3295  1.7819
  120OSM    C8F12645   5.771   5.986   5.508  0.2266 -0.0991  0.0405
  120OSM    H8F12646   5.784   5.878   5.483 -2.0634 -0.5402  0.4513
  120OSM    H8G12647   5.860   6.040   5.469  0.1478 -0.8152 -1.1807
  120OSM    C9F12648   5.653   6.020   5.416 -0.2767 -0.0119 -0.1643
  120OSM    H9F12649   5.556   5.998   5.462  0.5368 -0.7354  1.2451
  120OSM   C10F12650   5.657   6.086   5.299 -1.0368 -0.3342  0.2598
  120OSM   H10F12651   5.562   6.122   5.257 -0.3700 -0.1563 -1.1642
  120OSM   C11F12652   5.778   6.133   5.228  0.4592  0.9214 -0.2651
  120OSM   H11F12653   5.872   6.083   5.260  0.8944  1.8374 -0.0789
  120OSM   H11G12654   5.780   6.242   5.250 -2.1198  0.8986  0.3419
  120OSM   C12F12655   5.758   6.107   5.077  0.2181 -0.4335  0.0823
  120OSM   H12F12656   5.655   6.136   5.046  0.0643  1.1757  1.9127
  120OSM   H12G12657   5.767   5.997   5.075 -3.2383 -0.8472  0.7076
  120OSM   C13F12658   5.867   6.181   4.999  0.4252  0.4128  0.7606
  120OSM   H13F12659   5.967   6.133   5.002  0.8796  1.3103  0.3813
  120OSM   H13G12660   5.879   6.280   5.048  4.2936 -0.5537  2.0612
  120OSM   C14F12661   5.832   6.195   4.847  0.4668 -1.2013  0.0692
  120OSM   H14F12662   5.834   6.093   4.803 -1.0435 -0.3211 -2.2063
  120OSM   H14G12663   5.915   6.253   4.801  0.7607 -1.5676  0.1335
  120OSM   C15F12664   5.691   6.264   4.809 -0.1818  0.0057 -0.2374
  120OSM   H15F12665   5.675   6.350   4.878  0.9420 -1.3463  1.8091
  120OSM   H15G12666   5.602   6.202   4.832 -1.5386  1.7541 -0.5385
  120OSM   C16F12667   5.686   6.297   4.656 -0.2067  0.0347  0.4440
  120OSM   H16F12668   5.782   6.348   4.633  0.9022 -1.2071  2.0646
  120OSM   H16G12669   5.594   6.358   4.646 -2.0557 -2.1734  2.7019
  120OSM   C17F12670   5.677   6.162   4.581 -0.1680  0.3367 -0.6566
  120OSM   H17F12671   5.586   6.109   4.617  0.0329  1.8010  2.3040
  120OSM   H17G12672   5.760   6.097   4.616 -0.0661  1.3747  1.2100
  120OSM   C18F12673   5.676   6.176   4.432 -0.5495  0.4996 -0.1757
  120OSM   H18F12674   5.756   6.244   4.395  0.2796 -0.8417 -0.9398
  120OSM   H18G12675   5.580   6.216   4.395  0.7851  2.9456 -1.2684
  120OSM   H18H12676   5.684   6.081   4.374 -1.8757 -0.8569  1.7376
  121OSM      N12677   6.633   3.096   6.607  0.1389  0.2758 -0.2732
  121OSM    C1512678   6.562   3.101   6.739  0.1089 -0.2816 -0.1191
  121OSM   H15A12679   6.528   3.199   6.771 -2.3095 -0.7973 -0.9131
  121OSM   H15B12680   6.623   3.064   6.820  1.6614 -1.0507 -1.5869
  121OSM   H15C12681   6.474   3.038   6.739  1.0651 -1.6612 -0.6955
  121OSM    C1412682   6.769   3.146   6.618  0.0003  0.2890 -0.2557
  121OSM   H14A12683   6.844   3.080   6.657  0.9429  0.7056 -1.2829
  121OSM   H14B12684   6.778   3.244   6.664  0.7546  0.3187 -0.4603
  121OSM   H14C12685   6.804   3.169   6.518 -1.7265  0.5728 -0.8422
  121OSM    C1312686   6.647   2.942   6.584  0.0196  0.3190  0.2122
  121OSM   H13A12687   6.553   2.889   6.585  0.9429 -1.4058 -0.1542
  121OSM   H13B12688   6.718   2.902   6.655  0.8184  0.6816 -0.3656
  121OSM   H13C12689   6.698   2.924   6.491  0.8395 -1.0129  0.8942
  121OSM    C1212690   6.540   3.155   6.504  0.0503 -0.7857 -0.5343
  121OSM   H12A12691   6.498   3.245   6.545 -0.1487 -1.1119 -0.0148
  121OSM   H12B12692   6.458   3.088   6.485  0.1006 -1.1206  0.3900
  121OSM    C1112693   6.592   3.186   6.359 -0.2619 -0.3535 -0.4447
  121OSM   H11A12694   6.501   3.197   6.296 -0.2962  0.0308 -0.3338
  121OSM   H11B12695   6.657   3.101   6.330 -0.8628 -0.2127 -2.4236
  121OSM      P12696   6.603   3.453   6.342 -0.0450 -0.2390 -0.1409
  121OSM    O1312697   6.460   3.450   6.388 -0.4958 -0.0370 -0.1799
  121OSM    O1412698   6.694   3.562   6.386  0.2287 -0.8393 -0.4192
  121OSM    O1112699   6.586   3.458   6.183 -0.1484 -0.3113 -0.2187
  121OSM    O1212700   6.668   3.312   6.362  0.0192 -0.1625  0.7259
  121OSM    C1S12701   6.690   3.406   6.100 -0.0190 -0.1477 -0.5545
  121OSM    H1S12702   6.694   3.296   6.113  0.2448 -0.2569 -1.4807
  121OSM    H1T12703   6.789   3.441   6.139  0.1442 -0.9460 -0.2284
  121OSM     NF12704   6.782   3.404   5.872 -0.1569 -0.2811 -0.6370
  121OSM    HNF12705   6.857   3.465   5.849  0.7495 -2.0294 -2.7480
  121OSM    C2S12706   6.670   3.452   5.949 -0.6108  0.8642 -0.3519
  121OSM    H2S12707   6.583   3.398   5.906 -0.4427  2.1006 -2.3900
  121OSM    C3S12708   6.640   3.602   5.939  0.0378  0.0043  0.5772
  121OSM    H3S12709   6.726   3.658   5.982 -0.2846 -0.1115  1.3929
  121OSM     O312710   6.527   3.650   6.007  0.1505  0.2065 -0.0817
  121OSM    HO312711   6.506   3.579   6.069  0.4739  1.4557  1.5234
  121OSM    C4S12712   6.633   3.645   5.788  0.1846 -0.2323 -0.5550
  121OSM    H4S12713   6.731   3.663   5.743  0.0784 -0.2612 -0.7955
  121OSM    C5S12714   6.528   3.660   5.701 -1.0632 -0.2048 -0.0916
  121OSM    H5S12715   6.423   3.642   5.732 -1.3980  1.5325 -0.1182
  121OSM    C6S12716   6.553   3.705   5.558  0.4867 -0.0785  0.0121
  121OSM    H6S12717   6.661   3.732   5.546  1.0019 -1.0176  2.1362
  121OSM    H6T12718   6.497   3.800   5.550 -2.0898 -1.6426 -2.6654
  121OSM    C7S12719   6.520   3.601   5.449  0.2546  0.4689  0.5153
  121OSM    H7S12720   6.412   3.576   5.458  0.5806 -2.8003 -2.4718
  121OSM    H7T12721   6.579   3.506   5.453 -0.1412  0.1553 -0.5807
  121OSM    C8S12722   6.530   3.656   5.307 -0.0759  0.0685 -0.2020
  121OSM    H8S12723   6.634   3.695   5.292  0.1647  0.4121  1.9923
  121OSM    H8T12724   6.463   3.743   5.291 -4.1545 -2.5186  1.2490
  121OSM    C9S12725   6.497   3.547   5.204 -0.1735  0.1551  0.9454
  121OSM    H9S12726   6.400   3.495   5.220  0.0343 -0.1449  1.2366
  121OSM    H9T12727   6.572   3.469   5.229  1.0621  0.4063 -1.6959
  121OSM   C10S12728   6.495   3.585   5.055 -0.3166 -0.6388 -0.5077
  121OSM   H10S12729   6.591   3.633   5.024 -1.5480  0.3440 -3.0831
  121OSM   H10T12730   6.413   3.657   5.034  1.5271  1.0943 -2.3065
  121OSM   C11S12731   6.471   3.471   4.954 -0.4936 -0.0279  0.3597
  121OSM   H11S12732   6.382   3.413   4.988  1.7742 -3.4807  0.9823
  121OSM   H11T12733   6.566   3.414   4.958  0.4209  1.3943 -0.4405
  121OSM   C12S12734   6.427   3.523   4.821 -0.0014 -0.4794 -0.1811
  121OSM   H12S12735   6.522   3.574   4.792  0.7546 -1.2418  0.8914
  121OSM   H12T12736   6.338   3.587   4.838 -1.0094 -1.5676 -1.2256
  121OSM   C13S12737   6.395   3.425   4.707 -0.5549  0.2747 -0.4334
  121OSM   H13S12738   6.371   3.486   4.617  0.5406 -0.2180 -1.0786
  121OSM   H13T12739   6.307   3.359   4.725  0.2715 -0.4666  1.1529
  121OSM   C14S12740   6.523   3.351   4.656  0.4608  0.4056 -0.8782
  121OSM   H14S12741   6.612   3.417   4.648  1.5511 -1.0713 -1.5879
  121OSM   H14T12742   6.500   3.328   4.550  0.3580 -1.1676 -0.5402
  121OSM   C15S12743   6.565   3.215   4.721 -0.8013  0.1852  0.0523
  121OSM   H15S12744   6.466   3.166   4.725 -0.6951 -0.5067 -2.9235
  121OSM   H15T12745   6.607   3.238   4.821  0.6782 -1.9095 -0.0323
  121OSM   C16S12746   6.655   3.126   4.628  0.0649  0.0007 -0.2693
  121OSM   H16S12747   6.751   3.182   4.618 -0.0382  0.0737 -0.8805
  121OSM   H16T12748   6.612   3.122   4.526  2.3252 -0.0923 -1.2738
  121OSM   C17S12749   6.672   2.982   4.685 -0.0186 -0.2652  0.1128
  121OSM   H17S12750   6.574   2.935   4.705  1.0576 -1.6150  2.6881
  121OSM   H17T12751   6.719   2.971   4.786 -1.4527 -0.6758  0.7509
  121OSM   C18S12752   6.754   2.884   4.597  0.0605 -0.4522 -0.0449
  121OSM   H18S12753   6.749   2.783   4.642 -0.8981  0.0661  1.0611
  121OSM   H18T12754   6.857   2.927   4.593  0.0246 -0.2547  0.9369
  121OSM   H18U12755   6.709   2.882   4.496 -1.4322 -3.3296  0.5677
  121OSM    C1F12756   6.805   3.278   5.841 -0.4974  0.5896  0.0282
  121OSM     OF12757   6.710   3.199   5.844  0.0073 -0.0560 -0.2757
  121OSM    C2F12758   6.945   3.233   5.801  0.2203 -0.1625 -0.7432
  121OSM    H2F12759   7.017   3.274   5.875 -1.5742  0.6066  0.6480
  121OSM    H2G12760   6.976   3.289   5.710  1.2649  2.3861  1.0408
  121OSM    C3F12761   6.956   3.082   5.795  0.3094  0.1658 -0.0635
  121OSM    H3F12762   6.890   3.047   5.713  0.6975 -0.3899 -0.1402
  121OSM    H3G12763   6.913   3.034   5.886 -1.6115  1.7434 -0.0730
  121OSM    C4F12764   7.097   3.019   5.772 -0.2484 -0.6368 -0.1202
  121OSM    H4F12765   7.096   2.908   5.764 -0.6148 -0.6062 -0.4854
  121OSM    H4G12766   7.161   3.046   5.859  1.2606 -0.4782 -1.2391
  121OSM    C5F12767   7.170   3.083   5.648 -0.1355  0.1763 -0.0921
  121OSM    H5F12768   7.277   3.090   5.677 -0.9610 -2.1363  4.3822
  121OSM    H5G12769   7.136   3.186   5.623 -3.9869 -1.4730 -2.5058
  121OSM    C6F12770   7.142   2.996   5.526 -0.1083 -0.2828 -0.9218
  121OSM    H6F12771   7.033   2.999   5.502 -0.8659 -1.5422  1.9633
  121OSM    H6G12772   7.177   2.891   5.524  1.3555  0.1222  0.6719
  121OSM    C7F12773   7.214   3.064   5.403  0.0773 -0.8392 -0.3793
  121OSM    H7F12774   7.324   3.069   5.417  0.4662  4.8846 -2.5789
  121OSM    H7G12775   7.189   3.172   5.407 -0.6353 -1.0341  1.5672
  121OSM    C8F12776   7.190   2.988   5.274 -0.2373  0.1677 -0.1589
  121OSM    H8F12777   7.082   2.995   5.249 -0.0276 -1.4959 -1.7809
  121OSM    H8G12778   7.210   2.880   5.291  1.9299  0.6254  0.4924
  121OSM    C9F12779   7.287   3.055   5.183 -0.5056 -0.1264 -0.6957
  121OSM    H9F12780   7.249   3.149   5.142 -3.0105 -1.1615 -0.9226
  121OSM   C10F12781   7.403   3.009   5.138  0.2824 -0.1654  0.0443
  121OSM   H10F12782   7.464   3.070   5.070 -1.8572 -1.1964 -3.0062
  121OSM   C11F12783   7.478   2.886   5.186  0.0379 -0.3499  0.3988
  121OSM   H11F12784   7.420   2.818   5.252  0.1773  0.5833  1.5173
  121OSM   H11G12785   7.569   2.922   5.239  0.4846 -0.5915 -0.1916
  121OSM   C12F12786   7.533   2.818   5.056 -0.5639 -0.2469 -0.6665
  121OSM   H12F12787   7.450   2.799   4.985 -1.6892  2.7600 -0.2652
  121OSM   H12G12788   7.566   2.715   5.083 -0.6965  0.0127  0.5565
  121OSM   C13F12789   7.660   2.876   4.982  0.6267 -0.4461  0.8115
  121OSM   H13F12790   7.744   2.881   5.054 -0.4241  0.7070  2.0200
  121OSM   H13G12791   7.626   2.974   4.942  0.5021 -0.0591  1.8444
  121OSM   C14F12792   7.712   2.792   4.861  0.5726  0.2955 -0.3046
  121OSM   H14F12793   7.761   2.703   4.906 -0.6522 -0.7408 -0.9599
  121OSM   H14G12794   7.786   2.848   4.801 -1.1883  2.0219 -0.9746
  121OSM   C15F12795   7.598   2.752   4.765  0.1942  0.2539 -0.2863
  121OSM   H15F12796   7.527   2.834   4.741 -2.3609 -2.1422 -1.5782
  121OSM   H15G12797   7.523   2.694   4.823 -0.4843  1.1486 -0.2569
  121OSM   C16F12798   7.644   2.677   4.632  0.3161 -0.1433 -0.1998
  121OSM   H16F12799   7.678   2.761   4.568 -0.5208  1.6761  1.6241
  121OSM   H16G12800   7.547   2.640   4.591 -1.2165 -0.4931  3.3145
  121OSM   C17F12801   7.731   2.557   4.662  0.2689  0.1993  0.8084
  121OSM   H17F12802   7.831   2.601   4.683  1.9079  0.3613 -5.3287
  121OSM   H17G12803   7.736   2.498   4.568 -0.6817 -0.2110  1.0070
  121OSM   C18F12804   7.666   2.473   4.776  0.1692 -0.2465  0.8834
  121OSM   H18F12805   7.742   2.396   4.797  0.4075 -0.3170 -0.1559
  121OSM   H18G12806   7.570   2.434   4.735  0.0857 -0.4164  1.2461
  121OSM   H18H12807   7.644   2.521   4.873  1.1794  2.5127 -0.1481
  122OSM      N12808   5.937   4.946   6.570  0.2398 -0.4397  0.2514
  122OSM    C1512809   6.043   4.890   6.659  0.2074 -0.3361  0.1717
  122OSM   H15A12810   6.133   4.866   6.603  0.5384  1.5570 -0.1748
  122OSM   H15B12811   6.008   4.797   6.703  0.7907 -0.4877  0.3352
  122OSM   H15C12812   6.074   4.952   6.742  1.7255 -1.2630  0.3482
  122OSM    C1412813   5.809   4.951   6.652 -0.0261 -0.3686 -0.2126
  122OSM   H14A12814   5.767   4.853   6.668 -1.9451  0.2132 -1.3326
  122OSM   H14B12815   5.734   5.008   6.599  1.2502  0.6336 -1.0096
  122OSM   H14C12816   5.826   4.998   6.748 -1.3361 -1.3602  0.5392
  122OSM    C1312817   5.978   5.092   6.539 -0.1451  0.8746  0.2940
  122OSM   H13A12818   6.082   5.089   6.510 -0.0751  0.0804  0.6052
  122OSM   H13B12819   5.980   5.149   6.630 -1.9421 -1.1578  1.7205
  122OSM   H13C12820   5.918   5.142   6.464 -0.7843  0.6624  0.6517
  122OSM    C1212821   5.929   4.869   6.434  0.3043 -0.1811 -0.0797
  122OSM   H12A12822   5.853   4.909   6.369  0.0420  1.3805  1.1250
  122OSM   H12B12823   5.885   4.774   6.461  0.5449  0.1135  1.4386
  122OSM    C1112824   6.057   4.847   6.349 -0.1834 -0.1485  0.0842
  122OSM   H11A12825   6.087   4.953   6.336 -1.1203  0.2467  1.0217
  122OSM   H11B12826   6.041   4.809   6.246  0.2845  1.8134 -0.7647
  122OSM      P12827   6.229   4.644   6.357 -0.1827  0.0996  0.2682
  122OSM    O1312828   6.334   4.596   6.444 -0.1925  0.3407  0.1013
  122OSM    O1412829   6.126   4.548   6.319  0.3787 -0.4206 -0.5634
  122OSM    O1112830   6.294   4.707   6.226  0.5173  0.1890  0.0212
  122OSM    O1212831   6.163   4.774   6.421 -0.2221  0.0579  0.5375
  122OSM    C1S12832   6.379   4.634   6.140  0.3860  0.2844  1.3229
  122OSM    H1S12833   6.361   4.525   6.154 -1.0858  0.4623  0.9607
  122OSM    H1T12834   6.487   4.650   6.159  0.6048  1.4359 -0.6632
  122OSM     NF12835   6.397   4.576   5.898 -0.3791 -0.2910 -0.1914
  122OSM    HNF12836   6.473   4.602   5.839 -0.0770  1.5664  0.9585
  122OSM    C2S12837   6.354   4.675   5.992  0.1006 -0.5441 -0.1878
  122OSM    H2S12838   6.243   4.672   5.984  0.1394 -0.1080 -0.9690
  122OSM    C3S12839   6.411   4.819   5.969 -0.2065  0.0374  0.2945
  122OSM    H3S12840   6.515   4.820   6.007 -0.3549 -1.0070  0.7737
  122OSM     O312841   6.341   4.912   6.048 -0.1684 -0.1996  0.7614
  122OSM    HO312842   6.292   4.847   6.099  0.7125 -1.9326 -0.4893
  122OSM    C4S12843   6.410   4.871   5.831  0.4507  0.7873  0.0900
  122OSM    H4S12844   6.313   4.897   5.785 -0.4906 -1.0421  0.9497
  122OSM    C5S12845   6.525   4.895   5.759 -0.6746  0.6447 -0.1825
  122OSM    H5S12846   6.616   4.874   5.816 -0.7867  0.8499  0.0747
  122OSM    C6S12847   6.545   4.933   5.612  0.0905  0.7247 -0.1677
  122OSM    H6S12848   6.616   4.867   5.556  2.1835  3.0208 -0.3706
  122OSM    H6T12849   6.600   5.029   5.609 -0.2194  0.9684  1.1937
  122OSM    C7S12850   6.419   4.981   5.547  0.7334  0.2862  0.1309
  122OSM    H7S12851   6.372   5.063   5.605 -1.4855  1.3044 -2.8422
  122OSM    H7T12852   6.336   4.907   5.535 -0.3490  1.6027 -0.9129
  122OSM    C8S12853   6.454   5.032   5.406  0.1559 -0.2107 -0.2759
  122OSM    H8S12854   6.500   4.947   5.351  0.0218  0.5595 -1.6059
  122OSM    H8T12855   6.527   5.115   5.419  3.1319 -2.7076  0.1586
  122OSM    C9S12856   6.336   5.083   5.321 -0.0645 -0.3905  0.2212
  122OSM    H9S12857   6.299   5.172   5.376 -0.7960  0.0754 -0.9701
  122OSM    H9T12858   6.253   5.009   5.326 -1.4982  1.2337  3.6088
  122OSM   C10S12859   6.379   5.118   5.177  0.3218 -0.0304  0.2226
  122OSM   H10S12860   6.427   5.029   5.131 -2.9702 -0.7715 -2.1155
  122OSM   H10T12861   6.454   5.201   5.171  0.7538 -0.5082 -1.9351
  122OSM   C11S12862   6.263   5.143   5.087  0.4047 -0.0995  0.1038
  122OSM   H11S12863   6.215   5.241   5.109  1.1338  0.1359  0.6704
  122OSM   H11T12864   6.177   5.075   5.106  0.9277 -0.6384  0.5698
  122OSM   C12S12865   6.312   5.140   4.935 -0.5159  0.3863 -0.5158
  122OSM   H12S12866   6.371   5.047   4.934  1.2406  1.4391  0.3394
  122OSM   H12T12867   6.383   5.225   4.933 -0.4739  0.5578  2.9514
  122OSM   C13S12868   6.204   5.154   4.831  0.4521 -0.2557 -0.6612
  122OSM   H13S12869   6.268   5.170   4.741  2.5505  0.4349  0.8884
  122OSM   H13T12870   6.135   5.240   4.844  0.9739 -0.1849  2.1342
  122OSM   C14S12871   6.129   5.027   4.808  0.2898  0.7425 -0.4068
  122OSM   H14S12872   6.059   5.010   4.892 -0.0160 -1.2911 -1.0298
  122OSM   H14T12873   6.195   4.937   4.814 -0.9799 -0.1541  0.5085
  122OSM   C15S12874   6.038   5.028   4.684  0.2074  0.1475 -0.2158
  122OSM   H15S12875   6.018   5.129   4.641  0.2225 -0.1064 -0.8231
  122OSM   H15T12876   5.940   4.981   4.703 -1.1962  2.1691 -1.9797
  122OSM   C16S12877   6.122   4.963   4.567  0.1188  0.7894  0.4926
  122OSM   H16S12878   6.224   5.002   4.548 -0.4504  1.1952 -1.9642
  122OSM   H16T12879   6.049   4.977   4.485  0.0703  0.6449  0.5116
  122OSM   C17S12880   6.137   4.805   4.582  0.0204 -0.1472 -0.1606
  122OSM   H17S12881   6.039   4.760   4.608 -0.5092  0.6469 -0.7670
  122OSM   H17T12882   6.204   4.789   4.669 -0.6289 -1.3266  0.1474
  122OSM   C18S12883   6.183   4.724   4.461  0.1230 -0.7833  0.2345
  122OSM   H18S12884   6.287   4.747   4.429  0.0752 -0.4636  0.3056
  122OSM   H18T12885   6.112   4.745   4.378  1.7629  1.5865 -0.6816
  122OSM   H18U12886   6.188   4.615   4.482  1.2901 -0.2250  3.4343
  122OSM    C1F12887   6.336   4.462   5.899 -0.6382  1.0738  0.0224
  122OSM     OF12888   6.221   4.447   5.948  0.4388  0.5148 -0.4233
  122OSM    C2F12889   6.410   4.342   5.844  0.8722 -0.4335  0.1786
  122OSM    H2F12890   6.513   4.336   5.883  0.9903 -0.5230 -0.1483
  122OSM    H2G12891   6.416   4.354   5.734 -0.8173 -0.5170  0.0504
  122OSM    C3F12892   6.347   4.204   5.875 -1.0780  1.0487 -0.0200
  122OSM    H3F12893   6.255   4.181   5.817 -2.0093  0.4531  1.6092
  122OSM    H3G12894   6.331   4.196   5.985 -2.6997 -0.3534 -0.3246
  122OSM    C4F12895   6.453   4.089   5.840  0.1296  0.6622  0.0859
  122OSM    H4F12896   6.419   3.984   5.846  0.1871  0.6363 -0.0264
  122OSM    H4G12897   6.533   4.081   5.917  0.2184 -0.9947 -0.1404
  122OSM    C5F12898   6.526   4.098   5.701  0.7952  0.8343 -0.1588
  122OSM    H5F12899   6.570   3.997   5.685 -1.2346  0.1574 -1.9843
  122OSM    H5G12900   6.598   4.182   5.712  0.9140  0.9096 -1.3612
  122OSM    C6F12901   6.423   4.120   5.587 -0.1645 -0.2238 -0.0371
  122OSM    H6F12902   6.380   4.223   5.590 -0.4462 -0.3402 -0.0984
  122OSM    H6G12903   6.342   4.045   5.590 -0.5733  0.2155  2.0519
  122OSM    C7F12904   6.496   4.104   5.456  0.0827  0.5175  0.3977
  122OSM    H7F12905   6.537   4.001   5.449 -0.1774  0.2743  1.9531
  122OSM    H7G12906   6.581   4.175   5.452 -0.2444  0.8650 -1.4582
  122OSM    C8F12907   6.410   4.137   5.338 -0.2162 -0.5493  0.2423
  122OSM    H8F12908   6.349   4.229   5.355  3.4803  2.0590  0.7428
  122OSM    H8G12909   6.335   4.058   5.318  0.4837 -0.9807 -0.7520
  122OSM    C9F12910   6.498   4.159   5.215 -0.5473  0.2346  0.6589
  122OSM    H9F12911   6.566   4.243   5.235 -0.0571 -0.1660  0.6951
  122OSM   C10F12912   6.499   4.098   5.099 -0.3832  0.5329 -0.3015
  122OSM   H10F12913   6.569   4.147   5.030  1.7333  0.9382  1.9955
  122OSM   C11F12914   6.404   3.990   5.048 -0.7691 -0.5216  0.4671
  122OSM   H11F12915   6.343   3.947   5.130 -0.1834 -0.3308  1.0057
  122OSM   H11G12916   6.463   3.912   4.995 -1.8837  0.5167 -2.5120
  122OSM   C12F12917   6.319   4.055   4.935 -0.3106  0.1731  0.4294
  122OSM   H12F12918   6.246   3.985   4.888  0.9431 -0.4894 -0.6144
  122OSM   H12G12919   6.389   4.084   4.854 -1.2983 -1.6909 -1.1677
  122OSM   C13F12920   6.234   4.179   4.988  0.4766 -0.3975 -0.1033
  122OSM   H13F12921   6.189   4.230   4.901  2.0632  0.4856 -0.4467
  122OSM   H13G12922   6.292   4.267   5.023  0.7736  0.3252 -2.3057
  122OSM   C14F12923   6.117   4.144   5.090 -0.3898 -0.2693  0.1807
  122OSM   H14F12924   6.173   4.084   5.166 -1.4256 -2.1905 -0.5003
  122OSM   H14G12925   6.039   4.076   5.050 -1.2762  0.7169  0.2005
  122OSM   C15F12926   6.057   4.272   5.134  0.1016 -0.1738  0.4022
  122OSM   H15F12927   6.004   4.324   5.052  1.5616  0.5843 -0.0905
  122OSM   H15G12928   6.146   4.335   5.156  0.3613 -0.4200  0.0802
  122OSM   C16F12929   5.973   4.245   5.261 -0.4059 -0.0958 -0.1217
  122OSM   H16F12930   6.044   4.237   5.346  1.4336 -0.7575 -1.6499
  122OSM   H16G12931   5.928   4.144   5.247 -0.1973 -0.8637  3.6482
  122OSM   C17F12932   5.862   4.340   5.289  0.3168  0.2544  0.0397
  122OSM   H17F12933   5.794   4.341   5.201  1.6618 -1.1488 -1.0495
  122OSM   H17G12934   5.893   4.446   5.301 -0.8331  0.4267  1.9367
  122OSM   C18F12935   5.775   4.288   5.410  0.1495 -0.0227 -0.2780
  122OSM   H18F12936   5.690   4.357   5.426 -0.2328 -0.7035  0.7121
  122OSM   H18G12937   5.836   4.289   5.503 -2.2587  1.3385  1.3837
  122OSM   H18H12938   5.735   4.186   5.389 -0.3766  0.5041 -2.0181
  123OSM      N12939   2.486   3.049   1.415  0.3959  0.4139  0.4418
  123OSM    C1512940   2.559   2.941   1.342 -0.1884 -0.1318  0.2352
  123OSM   H15A12941   2.560   2.851   1.402  0.0857  1.3081  2.5249
  123OSM   H15B12942   2.662   2.969   1.322 -0.6955  0.7159 -1.3507
  123OSM   H15C12943   2.523   2.907   1.246  1.2960 -1.5719  0.1352
  123OSM    C1412944   2.573   3.079   1.534  0.1922  0.2087  0.1667
  123OSM   H14A12945   2.571   2.993   1.598  0.3978 -0.9158 -1.2859
  123OSM   H14B12946   2.516   3.147   1.595 -0.1799  0.3357 -0.3194
  123OSM   H14C12947   2.670   3.114   1.502 -0.2860  0.2730 -1.2901
  123OSM    C1312948   2.483   3.175   1.341  0.4371 -0.0820 -0.3187
  123OSM   H13A12949   2.585   3.211   1.338  0.8703 -1.0838  1.0211
  123OSM   H13B12950   2.433   3.244   1.407 -2.2314 -1.4479 -0.7785
  123OSM   H13C12951   2.428   3.171   1.248 -0.1079  0.0927 -0.0098
  123OSM    C1212952   2.345   3.005   1.441  0.1747  0.0204 -1.1160
  123OSM   H12A12953   2.351   2.916   1.502  2.7912  0.7528 -0.1866
  123OSM   H12B12954   2.298   2.977   1.348  0.7046  1.4916 -1.8409
  123OSM    C1112955   2.247   3.099   1.519 -0.3380 -0.4579 -0.1574
  123OSM   H11A12956   2.286   3.201   1.538 -1.2981 -0.5200  2.4795
  123OSM   H11B12957   2.241   3.061   1.623  1.3611  1.2573  0.6195
  123OSM      P12958   2.020   3.204   1.498  0.0661 -0.6896 -0.1398
  123OSM    O1312959   2.020   3.328   1.412  0.6863  0.1403  0.0369
  123OSM    O1412960   1.893   3.137   1.513  0.5035  0.2066 -0.7929
  123OSM    O1112961   2.068   3.257   1.642 -0.0694  0.4982  0.3055
  123OSM    O1212962   2.124   3.113   1.447 -0.5468 -0.1544 -0.6293
  123OSM    C1S12963   2.005   3.205   1.763 -0.8830 -0.3308 -0.1139
  123OSM    H1S12964   2.025   3.095   1.761  2.1871  0.0930  1.0233
  123OSM    H1T12965   1.896   3.226   1.765 -1.3709 -2.5851 -0.2008
  123OSM     NF12966   2.005   3.223   2.018 -0.0631  0.1483 -0.2850
  123OSM    HNF12967   1.946   3.292   2.058  1.8773  0.8542  1.5042
  123OSM    C2S12968   2.065   3.273   1.895  0.0492 -0.4475  0.2116
  123OSM    H2S12969   2.166   3.227   1.897  0.0026 -0.8025 -2.6685
  123OSM    C3S12970   2.072   3.431   1.888 -0.5124 -0.1836  0.4731
  123OSM    H3S12971   1.968   3.470   1.899 -0.1025  1.6829 -1.5895
  123OSM     O312972   2.123   3.486   1.765  0.0263 -0.2050  1.2975
  123OSM    HO312973   2.136   3.416   1.700 -0.4594  1.8371 -1.1286
  123OSM    C4S12974   2.162   3.487   1.991  0.1017  0.3315  0.3367
  123OSM    H4S12975   2.268   3.474   1.967 -0.2018  0.2784 -1.0490
  123OSM    C5S12976   2.122   3.545   2.106 -0.0113  0.4143 -0.0898
  123OSM    H5S12977   2.015   3.563   2.127 -1.0774 -1.4615 -3.3072
  123OSM    C6S12978   2.224   3.590   2.205 -0.5401  0.1369  0.4342
  123OSM    H6S12979   2.201   3.685   2.258  0.8035  1.1520 -0.7266
  123OSM    H6T12980   2.323   3.604   2.157 -0.5103  0.5888  0.6174
  123OSM    C7S12981   2.243   3.494   2.328 -0.4054  0.4577  0.3073
  123OSM    H7S12982   2.331   3.531   2.385 -0.9869  2.1516  0.1359
  123OSM    H7T12983   2.270   3.397   2.281 -1.5762  0.7944 -1.1244
  123OSM    C8S12984   2.127   3.496   2.432  0.0550  1.0747  0.4226
  123OSM    H8S12985   2.038   3.453   2.380 -0.6404  2.2914  0.5836
  123OSM    H8T12986   2.103   3.602   2.451 -0.2188  0.8249  1.5644
  123OSM    C9S12987   2.162   3.418   2.559 -0.1871  0.1371 -0.1858
  123OSM    H9S12988   2.255   3.361   2.542  0.9177  1.5853  0.7430
  123OSM    H9T12989   2.091   3.344   2.602  2.0542 -0.6292  2.4772
  123OSM   C10S12990   2.186   3.508   2.677 -0.7762 -0.2443  0.2294
  123OSM   H10S12991   2.245   3.597   2.645 -0.9494  0.4665  1.8007
  123OSM   H10T12992   2.248   3.456   2.753 -2.6305  2.3410  3.8178
  123OSM   C11S12993   2.069   3.566   2.765  0.0979  0.8782 -0.5070
  123OSM   H11S12994   2.017   3.478   2.807  0.7373  0.8552  0.2514
  123OSM   H11T12995   1.997   3.623   2.702  0.8388  1.5701 -0.7510
  123OSM   C12S12996   2.131   3.662   2.870 -0.3555 -0.2402  0.5944
  123OSM   H12S12997   2.163   3.764   2.841 -1.0829 -0.3184 -0.5424
  123OSM   H12T12998   2.231   3.620   2.894 -0.5018 -0.4815  0.7907
  123OSM   C13S12999   2.047   3.685   2.995 -0.8154 -0.5401 -0.7613
  123OSM   H13S13000   2.018   3.585   3.034 -4.6210  0.7516  0.1000
  123OSM   H13T13001   1.956   3.743   2.967  0.9265  3.0608  0.4363
  123OSM   C14S13002   2.124   3.758   3.110  0.1363  0.0758 -1.1508
  123OSM   H14S13003   2.173   3.854   3.084  0.2184  0.2622 -0.3429
  123OSM   H14T13004   2.202   3.688   3.148  0.3274  0.8961  0.0076
  123OSM   C15S13005   2.032   3.777   3.229 -0.3242  0.3584 -0.7122
  123OSM   H15S13006   2.003   3.679   3.273 -1.5715  1.3950  0.8980
  123OSM   H15T13007   1.940   3.825   3.189 -0.4307 -0.5616 -1.6269
  123OSM   C16S13008   2.093   3.848   3.347  0.2129  0.4102 -0.3286
  123OSM   H16S13009   2.143   3.939   3.308 -0.9342  0.7545 -1.0624
  123OSM   H16T13010   2.168   3.785   3.398  0.5338 -0.5104 -1.8795
  123OSM   C17S13011   1.985   3.895   3.440 -0.4906 -0.2062  0.0444
  123OSM   H17S13012   1.901   3.937   3.381  1.0308  0.2953 -1.8748
  123OSM   H17T13013   2.023   3.983   3.496 -0.1435 -1.2484  1.4891
  123OSM   C18S13014   1.921   3.793   3.539  0.1701  0.4712  0.4691
  123OSM   H18S13015   1.853   3.843   3.612 -0.4264  1.1541 -0.5358
  123OSM   H18T13016   1.993   3.728   3.595  1.0290 -0.8394 -2.0002
  123OSM   H18U13017   1.862   3.717   3.484 -1.1319  2.6189 -1.2236
  123OSM    C1F13018   2.013   3.094   2.055 -0.0213  0.3948 -0.8426
  123OSM     OF13019   2.085   3.005   2.007 -0.4203  0.0897 -0.3041
  123OSM    C2F13020   1.932   3.056   2.174 -0.5320 -0.9529 -0.1590
  123OSM    H2F13021   1.990   2.971   2.216  0.9907  0.1121 -0.0292
  123OSM    H2G13022   1.834   3.023   2.133 -0.5400  0.3601 -1.2797
  123OSM    C3F13023   1.915   3.171   2.276 -0.4751  0.9018 -0.4885
  123OSM    H3F13024   1.851   3.251   2.233 -1.3203 -0.7193 -2.3831
  123OSM    H3G13025   2.013   3.221   2.295 -0.9978  1.4428  0.9232
  123OSM    C4F13026   1.855   3.120   2.409 -0.2194  0.0819  0.1615
  123OSM    H4F13027   1.938   3.076   2.468 -2.1618 -2.0429  1.4456
  123OSM    H4G13028   1.772   3.049   2.390  0.8546 -0.9868 -0.6709
  123OSM    C5F13029   1.792   3.234   2.488  0.2814 -0.2882 -0.4647
  123OSM    H5F13030   1.685   3.231   2.458  0.1276  0.3769 -0.0089
  123OSM    H5G13031   1.820   3.340   2.467  1.0393  0.1315  2.2979
  123OSM    C6F13032   1.795   3.201   2.642 -0.6772 -0.9824  0.3451
  123OSM    H6F13033   1.835   3.287   2.700 -1.1172 -0.4123 -0.1789
  123OSM    H6G13034   1.868   3.119   2.660  0.3718 -0.4721 -1.3264
  123OSM    C7F13035   1.655   3.166   2.692 -0.1120 -0.1214 -0.0160
  123OSM    H7F13036   1.622   3.074   2.640  0.7304 -0.3230 -0.2086
  123OSM    H7G13037   1.581   3.244   2.664 -0.0505 -0.4082 -1.0129
  123OSM    C8F13038   1.638   3.165   2.844  0.0343 -0.6554 -0.1489
  123OSM    H8F13039   1.530   3.139   2.844  0.4106 -2.3819  1.7387
  123OSM    H8G13040   1.654   3.268   2.884  2.5953 -0.3836 -1.6310
  123OSM    C9F13041   1.722   3.075   2.932 -0.1876 -0.0797 -0.0726
  123OSM    H9F13042   1.817   3.045   2.883  0.8072  0.8632  1.2039
  123OSM   C10F13043   1.698   3.033   3.053  1.0430 -0.1813 -0.1070
  123OSM   H10F13044   1.768   2.960   3.098  1.6878 -0.6831 -1.8040
  123OSM   C11F13045   1.579   3.071   3.144  0.0530 -0.8324  0.3342
  123OSM   H11F13046   1.500   2.997   3.171 -0.8699 -0.6299 -1.6342
  123OSM   H11G13047   1.524   3.155   3.098  0.2710 -1.3743 -0.9761
  123OSM   C12F13048   1.637   3.122   3.285 -0.1085 -0.2693  0.5804
  123OSM   H12F13049   1.691   3.218   3.276  1.7871 -1.3373  0.1562
  123OSM   H12G13050   1.704   3.044   3.326  1.6235 -0.2899 -2.0945
  123OSM   C13F13051   1.519   3.139   3.387  0.2531 -0.4171  0.5459
  123OSM   H13F13052   1.439   3.199   3.339 -1.9184 -2.8514  0.9364
  123OSM   H13G13053   1.553   3.205   3.470 -1.6120 -1.1901  1.9829
  123OSM   C14F13054   1.477   3.013   3.461  0.4093 -0.0134  0.0675
  123OSM   H14F13055   1.444   2.941   3.384 -1.5069  1.7031 -0.8053
  123OSM   H14G13056   1.382   3.032   3.515  1.9022  3.6528  1.7908
  123OSM   C15F13057   1.583   2.968   3.553 -0.5686 -0.2184  0.3578
  123OSM   H15F13058   1.642   3.055   3.587  0.8774 -1.1634  0.3206
  123OSM   H15G13059   1.653   2.900   3.500  0.7672  0.0999  1.6768
  123OSM   C16F13060   1.535   2.913   3.689  0.3580 -0.7549 -0.1312
  123OSM   H16F13061   1.462   2.834   3.659 -0.5487 -0.3065  0.8431
  123OSM   H16G13062   1.472   2.987   3.743  1.3147  1.3065 -1.7065
  123OSM   C17F13063   1.643   2.846   3.769 -0.0646 -0.6233  0.4010
  123OSM   H17F13064   1.678   2.753   3.719 -0.9738 -0.6272 -0.2587
  123OSM   H17G13065   1.609   2.818   3.871 -0.6695  0.8981  0.6497
  123OSM   C18F13066   1.766   2.939   3.780  0.1925  0.0416 -0.2390
  123OSM   H18F13067   1.804   2.970   3.680 -1.0706  0.9595 -0.4600
  123OSM   H18G13068   1.844   2.884   3.837  0.6841  0.3273 -0.6148
  123OSM   H18H13069   1.741   3.031   3.838 -0.7292  0.0489 -0.6364
  124OSM      N13070   3.596   5.011   2.220 -0.0294  0.5536  0.2126
  124OSM    C1513071   3.508   4.959   2.334  0.2295  0.2655 -0.2745
  124OSM   H15A13072   3.520   4.853   2.349  0.7814 -0.0295 -2.4657
  124OSM   H15B13073   3.403   4.979   2.318  0.1989  0.8745  0.5812
  124OSM   H15C13074   3.521   5.011   2.428 -0.6226 -0.6798  0.3854
  124OSM    C1413075   3.723   4.942   2.241  0.4088 -0.5044 -0.4486
  124OSM   H14A13076   3.782   4.977   2.324  0.7357 -0.2067 -0.8012
  124OSM   H14B13077   3.792   4.944   2.158 -0.2919 -2.1587 -1.1187
  124OSM   H14C13078   3.703   4.837   2.257  1.2860 -0.8491 -1.4532
  124OSM    C1313079   3.535   4.983   2.087 -0.2815 -0.5552  0.2100
  124OSM   H13A13080   3.605   5.022   2.013  0.1602 -0.0903  0.8619
  124OSM   H13B13081   3.442   5.036   2.072 -0.5633  0.0949  3.5972
  124OSM   H13C13082   3.526   4.877   2.072 -0.9387 -0.3806 -0.7370
  124OSM    C1213083   3.624   5.161   2.239 -0.1326  0.5188  0.0451
  124OSM   H12A13084   3.684   5.176   2.328  0.7888 -0.6026 -0.3663
  124OSM   H12B13085   3.531   5.216   2.246 -1.1616 -1.1714  0.2439
  124OSM    C1113086   3.714   5.220   2.130  0.4068 -0.1333 -0.6018
  124OSM   H11A13087   3.666   5.217   2.030 -1.2609  3.1913 -0.0337
  124OSM   H11B13088   3.813   5.169   2.134  0.5718  0.2515  1.8890
  124OSM      P13089   3.632   5.472   2.161 -0.0792  0.2324 -0.0653
  124OSM    O1313090   3.653   5.561   2.048  0.2582 -0.2227 -0.0860
  124OSM    O1413091   3.497   5.402   2.155 -0.5679 -0.4293  0.1109
  124OSM    O1113092   3.643   5.543   2.302  0.5741 -0.4384  0.5481
  124OSM    O1213093   3.740   5.360   2.162  0.1272  0.2919  0.2358
  124OSM    C1S13094   3.768   5.561   2.365 -0.1007  0.5829 -0.0742
  124OSM    H1S13095   3.796   5.668   2.364 -0.5801  0.7327  1.0051
  124OSM    H1T13096   3.855   5.508   2.321  1.4234  1.0103  2.2422
  124OSM     NF13097   3.892   5.509   2.568  0.0859 -0.9651 -0.1380
  124OSM    HNF13098   3.943   5.424   2.559  0.9546 -0.7489  2.0707
  124OSM    C2S13099   3.757   5.520   2.511 -0.3015  0.3157  0.0396
  124OSM    H2S13100   3.714   5.611   2.557 -0.5451 -0.5491  1.6027
  124OSM    C3S13101   3.674   5.390   2.541 -0.2931  0.0290  0.2574
  124OSM    H3S13102   3.707   5.295   2.494  1.9229  0.3472  1.0568
  124OSM     O313103   3.537   5.419   2.503  0.4726  0.2108  0.4568
  124OSM    HO313104   3.544   5.492   2.440 -0.3520  1.0067  1.2604
  124OSM    C4S13105   3.673   5.363   2.694  0.8440 -0.3707  0.2589
  124OSM    H4S13106   3.626   5.452   2.739  2.7032  1.3217 -0.9952
  124OSM    C5S13107   3.751   5.275   2.759  0.0517  0.0857 -0.1714
  124OSM    H5S13108   3.827   5.231   2.693 -0.6727 -0.2422 -0.8121
  124OSM    C6S13109   3.770   5.247   2.905 -0.6935 -0.0182  0.0339
  124OSM    H6S13110   3.872   5.283   2.930 -0.4469 -0.0348 -0.9213
  124OSM    H6T13111   3.755   5.141   2.934  1.3569 -1.2796 -3.0699
  124OSM    C7S13112   3.675   5.335   3.002 -0.6614  0.3953  0.6359
  124OSM    H7S13113   3.569   5.326   2.970 -0.5101 -1.1147  0.4732
  124OSM    H7T13114   3.707   5.442   3.003 -1.1688  0.5931  3.1318
  124OSM    C8S13115   3.679   5.279   3.139 -0.5475  0.0315  0.0571
  124OSM    H8S13116   3.782   5.246   3.164 -0.5090  0.2971  0.2457
  124OSM    H8T13117   3.616   5.187   3.138  0.1087 -0.4580  1.2035
  124OSM    C9S13118   3.640   5.381   3.244  0.3468  0.0470 -0.3482
  124OSM    H9S13119   3.540   5.422   3.220 -0.6181 -2.5351 -1.0394
  124OSM    H9T13120   3.719   5.459   3.244  0.5795 -0.1567 -2.0604
  124OSM   C10S13121   3.627   5.322   3.380  0.9261 -0.3705 -0.4058
  124OSM   H10S13122   3.723   5.288   3.425 -0.6276 -2.0220  1.9053
  124OSM   H10T13123   3.564   5.231   3.379  1.2164 -0.5829  0.1276
  124OSM   C11S13124   3.563   5.416   3.489 -0.5975 -0.5598  0.5006
  124OSM   H11S13125   3.456   5.416   3.458 -0.3430 -1.3221 -0.4064
  124OSM   H11T13126   3.592   5.523   3.477 -0.1402 -0.8185 -0.9084
  124OSM   C12S13127   3.596   5.358   3.627  0.9906 -0.2784 -0.2068
  124OSM   H12S13128   3.702   5.385   3.650  1.2172  0.5470 -2.0340
  124OSM   H12T13129   3.593   5.247   3.624  1.8508 -0.2955 -2.6518
  124OSM   C13S13130   3.509   5.419   3.738  0.6288  0.2295  0.1195
  124OSM   H13S13131   3.413   5.372   3.710  0.2040  1.5390 -0.6837
  124OSM   H13T13132   3.491   5.528   3.734  1.0438  0.3713  1.4121
  124OSM   C14S13133   3.555   5.380   3.880  0.5472 -0.3289 -0.0050
  124OSM   H14S13134   3.662   5.407   3.888  0.9194 -1.7249 -0.0102
  124OSM   H14T13135   3.549   5.269   3.884 -0.4551 -0.2628  1.9092
  124OSM   C15S13136   3.476   5.444   3.990 -0.3025  0.3854 -0.6793
  124OSM   H15S13137   3.371   5.428   3.956 -0.0270 -1.7138 -0.6618
  124OSM   H15T13138   3.490   5.554   4.003  3.5502  0.0257 -0.8914
  124OSM   C16S13139   3.493   5.391   4.129 -1.2839  0.1607 -0.0747
  124OSM   H16S13140   3.488   5.280   4.119 -0.2152  0.2155 -1.5756
  124OSM   H16T13141   3.423   5.422   4.209 -2.5875 -2.8213  0.0814
  124OSM   C17S13142   3.641   5.416   4.181 -0.1817  0.0603  0.2302
  124OSM   H17S13143   3.651   5.523   4.207 -0.3492 -0.1127  1.0168
  124OSM   H17T13144   3.720   5.389   4.107  3.3713 -0.4879  3.8649
  124OSM   C18S13145   3.670   5.333   4.309 -0.4655 -0.2115  0.2731
  124OSM   H18S13146   3.778   5.340   4.336 -0.8417 -1.4326  2.2876
  124OSM   H18T13147   3.640   5.228   4.288 -1.2696  0.4447 -2.1642
  124OSM   H18U13148   3.610   5.364   4.397  1.8495 -2.5500  2.8625
  124OSM    C1F13149   3.963   5.619   2.605  0.6548 -0.2193  0.2538
  124OSM     OF13150   3.919   5.731   2.590 -0.2087 -0.0097 -0.3111
  124OSM    C2F13151   4.099   5.592   2.667 -0.8316  0.1002 -0.1971
  124OSM    H2F13152   4.176   5.654   2.615  0.7081 -2.7488 -1.5190
  124OSM    H2G13153   4.123   5.484   2.659 -1.8317 -0.2124  0.8101
  124OSM    C3F13154   4.110   5.648   2.809  0.1820 -0.0083  0.2924
  124OSM    H3F13155   4.099   5.757   2.789  0.5759 -0.2233 -1.2833
  124OSM    H3G13156   4.216   5.637   2.839  0.5776  1.3839 -0.5212
  124OSM    C4F13157   4.006   5.600   2.912  0.1919 -0.1187  0.0973
  124OSM    H4F13158   4.008   5.489   2.901  1.0370 -0.0192 -0.8525
  124OSM    H4G13159   3.901   5.634   2.898 -0.7638 -3.2108 -1.0727
  124OSM    C5F13160   4.057   5.624   3.055  0.6049 -0.0172  0.3079
  124OSM    H5F13161   4.154   5.572   3.071  0.2295 -0.7658  0.2407
  124OSM    H5G13162   3.986   5.573   3.124 -0.0848  0.8338  0.2394
  124OSM    C6F13163   4.053   5.772   3.101 -0.0424 -0.4092  0.4927
  124OSM    H6F13164   3.958   5.824   3.078  0.1100 -0.4642 -0.3101
  124OSM    H6G13165   4.132   5.819   3.038 -0.5000  2.3881  1.8326
  124OSM    C7F13166   4.086   5.783   3.251  1.0380  0.2728  0.3626
  124OSM    H7F13167   4.185   5.743   3.279 -0.5894 -4.5455  0.0831
  124OSM    H7G13168   4.012   5.726   3.311  0.8565  0.4037  0.2658
  124OSM    C8F13169   4.075   5.928   3.302  0.2092 -0.2147  0.6510
  124OSM    H8F13170   4.150   5.991   3.251 -3.6106  1.9259 -2.9704
  124OSM    H8G13171   4.104   5.910   3.407  0.7155 -1.0510  0.3816
  124OSM    C9F13172   3.937   5.998   3.292 -0.5170  0.1426  0.0399
  124OSM    H9F13173   3.880   5.993   3.198 -0.6289 -0.5739  0.1381
  124OSM   C10F13174   3.888   6.072   3.394  0.1133  0.8437 -0.3846
  124OSM   H10F13175   3.788   6.113   3.374 -0.5299 -0.1207  0.7026
  124OSM   C11F13176   3.949   6.101   3.528  0.5036  0.1047 -0.2946
  124OSM   H11F13177   4.019   6.021   3.558 -2.3523 -2.4021  0.1222
  124OSM   H11G13178   3.869   6.096   3.604  0.0909 -1.4172 -0.8038
  124OSM   C12F13179   4.026   6.230   3.539  0.7322  0.6863 -0.3159
  124OSM   H12F13180   3.956   6.315   3.551  0.5615  1.0171 -3.0214
  124OSM   H12G13181   4.075   6.257   3.443  1.2826 -2.3211 -0.9822
  124OSM   C13F13182   4.143   6.212   3.633 -0.2470 -0.5436 -0.3822
  124OSM   H13F13183   4.228   6.281   3.614  2.9336 -3.5323  1.8345
  124OSM   H13G13184   4.192   6.114   3.615  1.0914 -0.2804  1.5542
  124OSM   C14F13185   4.094   6.203   3.781 -0.0858 -0.9325 -0.0357
  124OSM   H14F13186   4.160   6.118   3.810 -2.4770 -3.0481 -0.4330
  124OSM   H14G13187   3.989   6.169   3.794 -0.7743  1.4122  0.8655
  124OSM   C15F13188   4.136   6.324   3.864  0.1778 -1.0185  0.4664
  124OSM   H15F13189   4.042   6.364   3.909 -0.8718 -0.5883 -1.9411
  124OSM   H15G13190   4.179   6.403   3.799 -0.4517 -1.9303 -1.1197
  124OSM   C16F13191   4.229   6.301   3.975 -0.2335  0.6384 -0.3857
  124OSM   H16F13192   4.329   6.284   3.929 -0.3420 -0.2017 -0.3316
  124OSM   H16G13193   4.185   6.214   4.029  0.7814  0.9852  1.0590
  124OSM   C17F13194   4.235   6.418   4.077 -0.1725 -0.2462  0.0701
  124OSM   H17F13195   4.314   6.385   4.148 -1.6130 -2.2693  0.8162
  124OSM   H17G13196   4.141   6.436   4.133  0.0148 -0.7224  0.5449
  124OSM   C18F13197   4.268   6.559   4.027  0.3110 -1.0898 -0.1817
  124OSM   H18F13198   4.165   6.587   3.996  0.3002 -0.4866  0.4069
  124OSM   H18G13199   4.348   6.573   3.951 -1.1066  1.6172 -1.3162
  124OSM   H18H13200   4.292   6.625   4.113  0.6739 -0.9115 -0.4134
  125OSM      N13201   4.126   1.608   1.701  0.1290 -0.0828  0.0629
  125OSM    C1513202   4.087   1.461   1.674 -0.3535 -0.0805  0.2995
  125OSM   H15A13203   4.002   1.455   1.608  0.4945 -0.6776 -0.7652
  125OSM   H15B13204   4.061   1.418   1.770  1.9811 -0.0783  1.0066
  125OSM   H15C13205   4.178   1.415   1.638 -0.8770 -0.2238 -0.8804
  125OSM    C1413206   4.241   1.607   1.796 -0.0297 -0.3857 -0.0881
  125OSM   H14A13207   4.324   1.555   1.750  0.6587  1.4557 -1.0597
  125OSM   H14B13208   4.223   1.564   1.893  1.2912 -1.9837 -0.5029
  125OSM   H14C13209   4.264   1.712   1.810 -2.3376  0.1006  0.4804
  125OSM    C1313210   4.178   1.683   1.580  0.6085 -0.2362 -0.6911
  125OSM   H13A13211   4.115   1.679   1.492 -2.3361 -0.6305  1.3022
  125OSM   H13B13212   4.278   1.649   1.555  0.3749 -1.3339 -0.1997
  125OSM   H13C13213   4.187   1.789   1.599 -0.6848 -0.2069 -0.1357
  125OSM    C1213214   4.009   1.675   1.773 -0.5306  0.4521  0.2529
  125OSM   H12A13215   3.983   1.600   1.847  1.5046  0.0935  0.6544
  125OSM   H12B13216   3.924   1.681   1.707  0.0361  0.0368 -0.5251
  125OSM    C1113217   4.029   1.813   1.848 -0.2511  0.3499  0.3533
  125OSM   H11A13218   4.086   1.788   1.941  0.3594 -0.2659 -0.1777
  125OSM   H11B13219   3.921   1.832   1.864 -1.3772 -3.1161 -1.9240
  125OSM      P13220   4.197   2.002   1.812  0.1586 -0.3781 -0.0756
  125OSM    O1313221   4.329   1.941   1.769  0.0159 -0.4152  0.0125
  125OSM    O1413222   4.159   2.139   1.765 -0.3642 -0.0861  0.0484
  125OSM    O1113223   4.179   2.001   1.966  0.1507 -0.1445 -0.0598
  125OSM    O1213224   4.084   1.915   1.764  0.0441  0.5240  0.5799
  125OSM    C1S13225   4.072   2.057   2.037  0.2340  0.1044  0.0610
  125OSM    H1S13226   3.976   2.009   2.008 -0.3408 -0.8264  3.1175
  125OSM    H1T13227   4.061   2.165   2.013 -0.5171  0.2362  0.9224
  125OSM     NF13228   3.974   2.140   2.258  0.5013  0.1332 -0.3792
  125OSM    HNF13229   4.005   2.228   2.293 -0.0500  1.1315 -2.2452
  125OSM    C2S13230   4.075   2.048   2.199 -0.1461  0.0006 -0.0405
  125OSM    H2S13231   4.047   1.946   2.233 -0.8803  0.4261  0.6438
  125OSM    C3S13232   4.226   2.072   2.251 -0.1393  0.9360  0.2502
  125OSM    H3S13233   4.248   2.180   2.247  1.8009  0.5796  0.1124
  125OSM     O313234   4.334   2.010   2.182 -0.3363  0.0349  0.5258
  125OSM    HO313235   4.301   1.991   2.094  0.4917 -2.7356  0.7180
  125OSM    C4S13236   4.248   2.030   2.395  0.8097 -0.4063 -0.5343
  125OSM    H4S13237   4.228   1.922   2.402  4.1068 -1.2377 -2.0077
  125OSM    C5S13238   4.276   2.104   2.507 -0.0342 -0.3783  0.2166
  125OSM    H5S13239   4.286   2.213   2.497  0.1516 -0.3118  1.0204
  125OSM    C6S13240   4.293   2.041   2.646 -0.2786  0.1889  0.7125
  125OSM    H6S13241   4.311   1.932   2.628  0.5509  0.1333  1.8013
  125OSM    H6T13242   4.193   2.037   2.693 -0.5686 -0.8708  0.0507
  125OSM    C7S13243   4.394   2.123   2.722  0.4207  1.0469 -0.2370
  125OSM    H7S13244   4.367   2.231   2.714 -1.0772  0.8296  1.3960
  125OSM    H7T13245   4.490   2.106   2.668 -0.7860 -1.5240 -1.7406
  125OSM    C8S13246   4.396   2.080   2.866 -0.5248 -0.2925 -0.0213
  125OSM    H8S13247   4.489   2.134   2.896 -0.8568  1.6781 -2.1876
  125OSM    H8T13248   4.418   1.972   2.875  0.4142  0.0051  1.6873
  125OSM    C9S13249   4.294   2.141   2.968  0.2218 -0.9094  0.0970
  125OSM    H9S13250   4.195   2.118   2.923  0.9420  0.4977 -2.3989
  125OSM    H9T13251   4.306   2.251   2.962 -1.0511 -0.6703  1.4620
  125OSM   C10S13252   4.301   2.090   3.106 -0.0692  0.5648 -0.1562
  125OSM   H10S13253   4.268   1.985   3.116 -0.2930  0.7447  1.2177
  125OSM   H10T13254   4.235   2.150   3.171  0.9946  1.3159  0.2624
  125OSM   C11S13255   4.450   2.097   3.157 -0.3480 -0.3883  0.3070
  125OSM   H11S13256   4.476   2.204   3.140  0.1455 -0.3369  1.3293
  125OSM   H11T13257   4.513   2.026   3.099  1.3046 -0.3547  1.9602
  125OSM   C12S13258   4.474   2.069   3.311  0.7163  0.1398 -0.0075
  125OSM   H12S13259   4.584   2.059   3.325  0.6990  0.2914  0.2451
  125OSM   H12T13260   4.426   1.970   3.326 -0.0941  0.1617 -2.1464
  125OSM   C13S13261   4.426   2.180   3.402 -0.3838  0.6432 -0.4446
  125OSM   H13S13262   4.320   2.202   3.376 -0.8431  1.2764  1.7503
  125OSM   H13T13263   4.484   2.271   3.377 -0.3324  0.2311 -1.9420
  125OSM   C14S13264   4.408   2.133   3.550  0.2370 -0.1968  0.0495
  125OSM   H14S13265   4.399   2.226   3.610  1.6855  0.0843 -0.1369
  125OSM   H14T13266   4.499   2.082   3.587 -0.1886 -0.5941  0.5463
  125OSM   C15S13267   4.274   2.050   3.563 -0.2109  0.2193 -1.0245
  125OSM   H15S13268   4.270   1.971   3.486 -0.4470 -0.0060 -0.7832
  125OSM   H15T13269   4.178   2.102   3.542 -0.7225 -0.5874 -0.7455
  125OSM   C16S13270   4.257   1.983   3.702 -0.1610 -0.1398  0.4656
  125OSM   H16S13271   4.268   2.063   3.779  2.7273 -1.8381  1.9612
  125OSM   H16T13272   4.340   1.910   3.709 -1.6086 -1.9834 -0.7197
  125OSM   C17S13273   4.124   1.908   3.714 -0.3654 -0.8262  0.1017
  125OSM   H17S13274   4.122   1.844   3.623 -1.3550  0.8415 -1.0911
  125OSM   H17T13275   4.039   1.979   3.716  1.2081  1.2211 -1.7446
  125OSM   C18S13276   4.114   1.834   3.846  0.0360  0.2146  0.2590
  125OSM   H18S13277   4.205   1.780   3.880 -1.2076 -1.8265  0.5558
  125OSM   H18T13278   4.028   1.763   3.848  0.0816  0.1723  1.8721
  125OSM   H18U13279   4.086   1.907   3.925 -0.3998 -0.6151  0.8825
  125OSM    C1F13280   3.842   2.132   2.241  0.9182  0.0854 -0.2019
  125OSM     OF13281   3.805   2.039   2.174  0.1499  0.2156  0.3030
  125OSM    C2F13282   3.750   2.230   2.318 -0.6023  0.6595 -0.6561
  125OSM    H2F13283   3.696   2.298   2.249  0.6614  1.3033 -1.0480
  125OSM    H2G13284   3.815   2.286   2.388 -1.4144  1.2086 -0.3276
  125OSM    C3F13285   3.653   2.151   2.418  0.1821 -0.9419 -0.1316
  125OSM    H3F13286   3.576   2.098   2.357 -0.3519  0.5733 -0.8105
  125OSM    H3G13287   3.601   2.236   2.467  3.7447  1.0170  0.5816
  125OSM    C4F13288   3.718   2.058   2.519 -0.1690 -0.5383  0.2067
  125OSM    H4F13289   3.790   1.986   2.476  2.3701  1.6438  0.5105
  125OSM    H4G13290   3.637   2.015   2.581  1.2926  0.2637  2.8237
  125OSM    C5F13291   3.822   2.137   2.613  0.1721 -0.4891 -0.4244
  125OSM    H5F13292   3.762   2.199   2.683  0.6114 -1.5522  0.9408
  125OSM    H5G13293   3.892   2.203   2.557 -0.1634  0.0714 -0.1862
  125OSM    C6F13294   3.903   2.041   2.699 -0.3947 -0.3731 -0.0390
  125OSM    H6F13295   3.970   2.099   2.765 -0.5038  0.6690 -0.8167
  125OSM    H6G13296   3.964   1.979   2.630  2.0053  1.4729  0.2760
  125OSM    C7F13297   3.826   1.943   2.788  0.7571 -0.4086  0.0387
  125OSM    H7F13298   3.781   1.863   2.726  0.8468  0.5465 -1.2991
  125OSM    H7G13299   3.742   1.992   2.842 -0.7094 -1.8247 -0.8730
  125OSM    C8F13300   3.918   1.876   2.896 -0.1149  0.3645  0.0051
  125OSM    H8F13301   3.975   1.951   2.956  2.3439  1.5305 -3.4930
  125OSM    H8G13302   4.000   1.833   2.835  1.1331  1.5605  0.7594
  125OSM    C9F13303   3.848   1.777   2.971 -0.4602  0.4367  0.4237
  125OSM    H9F13304   3.762   1.737   2.915  0.8463 -0.8718 -0.7041
  125OSM   C10F13305   3.861   1.743   3.103 -0.0199  0.3628  0.5753
  125OSM   H10F13306   3.803   1.661   3.148 -0.8862  1.0657  0.7805
  125OSM   C11F13307   3.974   1.782   3.199  0.5617  0.0749  0.3653
  125OSM   H11F13308   3.945   1.842   3.288  0.6930  0.4952  0.1294
  125OSM   H11G13309   4.044   1.847   3.141  1.1929 -1.4857 -0.6774
  125OSM   C12F13310   4.064   1.664   3.233  0.5296  0.4753  0.3041
  125OSM   H12F13311   4.152   1.699   3.291  1.0529  0.3115 -0.3893
  125OSM   H12G13312   4.106   1.622   3.140 -0.5326  0.9636 -0.4129
  125OSM   C13F13313   3.998   1.560   3.324 -0.1062  0.8678  0.0207
  125OSM   H13F13314   3.899   1.529   3.284 -1.9497  1.0811  3.9349
  125OSM   H13G13315   3.973   1.608   3.422  1.5603 -2.6043  2.3423
  125OSM   C14F13316   4.082   1.440   3.350 -0.1927 -0.4488  0.0985
  125OSM   H14F13317   4.173   1.471   3.405 -1.3700  1.3780  1.1347
  125OSM   H14G13318   4.132   1.400   3.259  1.6426 -1.7649  1.6216
  125OSM   C15F13319   4.011   1.329   3.423 -0.0338 -0.1046 -0.4807
  125OSM   H15F13320   4.069   1.235   3.423  0.2262  0.0246  1.1143
  125OSM   H15G13321   3.916   1.315   3.367 -1.3144 -0.9037  1.7792
  125OSM   C16F13322   3.972   1.358   3.569  0.3962  1.4184 -0.3872
  125OSM   H16F13323   3.885   1.426   3.571  0.1243  1.0598  0.8375
  125OSM   H16G13324   4.051   1.395   3.638  0.0942 -1.7820  1.9134
  125OSM   C17F13325   3.930   1.224   3.645 -0.6477 -0.1611 -0.2772
  125OSM   H17F13326   4.020   1.161   3.631 -0.2710  0.6112 -1.5185
  125OSM   H17G13327   3.858   1.167   3.582  1.5873 -1.3107 -1.9156
  125OSM   C18F13328   3.881   1.243   3.788  0.5057 -0.9569  0.5579
  125OSM   H18F13329   3.973   1.257   3.848 -0.2939 -0.2006  1.6381
  125OSM   H18G13330   3.839   1.149   3.832  2.8149 -2.5730 -0.4642
  125OSM   H18H13331   3.823   1.335   3.809  1.2643 -0.9360  2.8109
  126OSM      N13332   2.452   2.205   1.688 -0.2551  0.7253  0.3198
  126OSM    C1513333   2.564   2.250   1.598  0.6198  0.8605  0.4048
  126OSM   H15A13334   2.647   2.183   1.586  0.7876  1.3551 -1.4804
  126OSM   H15B13335   2.603   2.346   1.628 -0.1588  1.1299  0.5756
  126OSM   H15C13336   2.518   2.261   1.501 -1.0194 -2.4041  0.7035
  126OSM    C1413337   2.325   2.276   1.642  0.3762  0.7236 -0.2243
  126OSM   H14A13338   2.293   2.232   1.549  2.3998 -0.9949 -0.1924
  126OSM   H14B13339   2.331   2.383   1.639 -0.9055  0.9623  2.4361
  126OSM   H14C13340   2.248   2.249   1.713  1.8014  0.5361  1.3406
  126OSM    C1313341   2.432   2.056   1.682 -0.2855  0.1390 -0.5044
  126OSM   H13A13342   2.486   2.014   1.765  0.0768 -1.2728 -1.4241
  126OSM   H13B13343   2.468   2.006   1.593  2.8028  1.2840  0.0065
  126OSM   H13C13344   2.328   2.027   1.690  0.4573 -2.3180  1.5113
  126OSM    C1213345   2.481   2.246   1.837  0.1975 -0.4993 -0.1509
  126OSM   H12A13346   2.575   2.204   1.869  0.4312  1.0681  1.3683
  126OSM   H12B13347   2.405   2.211   1.905  0.1487  1.9851  1.1712
  126OSM    C1113348   2.490   2.405   1.864 -0.8880  0.6835  0.4434
  126OSM   H11A13349   2.497   2.409   1.975 -2.7288  0.6501  0.5771
  126OSM   H11B13350   2.394   2.457   1.843 -0.9046 -0.2506 -2.1798
  126OSM      P13351   2.760   2.433   1.862 -0.3941 -0.0117  0.4784
  126OSM    O1313352   2.775   2.288   1.856  0.1372 -0.3617  0.3999
  126OSM    O1413353   2.859   2.508   1.775  0.2784 -0.2871  0.2361
  126OSM    O1113354   2.773   2.487   2.010  0.0794  0.1824 -0.0224
  126OSM    O1213355   2.611   2.468   1.815  0.3659  0.1231 -0.2041
  126OSM    C1S13356   2.710   2.605   2.054 -0.1814  0.1181 -0.2228
  126OSM    H1S13357   2.600   2.601   2.070  0.1144  0.2296  2.3452
  126OSM    H1T13358   2.732   2.694   1.993  2.7829 -0.5797 -0.3176
  126OSM     NF13359   2.706   2.746   2.261  0.5887  0.1252 -0.3770
  126OSM    HNF13360   2.763   2.827   2.256  0.0902  0.4459 -0.9334
  126OSM    C2S13361   2.770   2.631   2.201 -0.4525  0.4205  0.5557
  126OSM    H2S13362   2.736   2.543   2.261 -3.6954  1.2989  0.1454
  126OSM    C3S13363   2.931   2.631   2.197 -0.0749 -0.9431 -0.6147
  126OSM    H3S13364   2.960   2.721   2.138 -0.9315 -0.1735  0.1143
  126OSM     O313365   2.992   2.517   2.140 -0.0683  0.1492 -0.8587
  126OSM    HO313366   2.913   2.479   2.099 -1.3005  1.5568  0.1221
  126OSM    C4S13367   2.978   2.644   2.332  0.7466  0.5924 -0.3513
  126OSM    H4S13368   3.006   2.743   2.371  0.9224 -0.0091  1.0944
  126OSM    C5S13369   2.983   2.543   2.423  1.0731  0.9760  0.6331
  126OSM    H5S13370   2.944   2.450   2.379 -1.5048  2.0775  0.4286
  126OSM    C6S13371   3.018   2.547   2.568  0.1434 -0.4284  0.0941
  126OSM    H6S13372   3.100   2.620   2.583 -0.4578  0.2425  0.2353
  126OSM    H6T13373   3.045   2.444   2.599  0.3517 -0.2942  0.3533
  126OSM    C7S13374   2.889   2.589   2.646 -0.3858  0.2991  0.5236
  126OSM    H7S13375   2.818   2.505   2.631  2.2933 -1.9624 -0.5026
  126OSM    H7T13376   2.846   2.684   2.609 -0.4517  0.2260  0.4111
  126OSM    C8S13377   2.911   2.595   2.794  0.2581  0.2588  0.1258
  126OSM    H8S13378   2.989   2.673   2.809  2.5912 -1.7602 -0.9011
  126OSM    H8T13379   2.950   2.499   2.834 -2.5759 -1.9632 -2.0171
  126OSM    C9S13380   2.778   2.633   2.863 -0.1096 -0.4023  0.2195
  126OSM    H9S13381   2.700   2.556   2.846  1.4468 -2.3849  1.4605
  126OSM    H9T13382   2.731   2.724   2.821 -1.0320 -0.5971  0.8167
  126OSM   C10S13383   2.793   2.652   3.015  1.2026  0.4388 -0.4679
  126OSM   H10S13384   2.821   2.561   3.070 -2.0112  0.0227  0.7279
  126OSM   H10T13385   2.693   2.686   3.051  0.8761 -1.6654  0.7416
  126OSM   C11S13386   2.885   2.767   3.049 -0.4301 -0.1494 -0.5379
  126OSM   H11S13387   2.860   2.855   2.987  0.2325  1.3579  1.2584
  126OSM   H11T13388   2.989   2.731   3.034 -1.5613 -2.5756 -3.7379
  126OSM   C12S13389   2.864   2.794   3.202 -0.6267 -0.3666  0.0510
  126OSM   H12S13390   2.909   2.720   3.272  0.2946  0.5579  0.4664
  126OSM   H12T13391   2.753   2.792   3.216 -0.6211 -0.5256  0.0755
  126OSM   C13S13392   2.928   2.924   3.249  0.2170 -1.1755 -0.7078
  126OSM   H13S13393   2.871   3.005   3.200  1.6577 -0.3796 -1.1378
  126OSM   H13T13394   3.034   2.924   3.215  0.3994 -0.0835 -0.1613
  126OSM   C14S13395   2.937   2.943   3.405 -0.2434 -0.2543  0.2601
  126OSM   H14S13396   2.833   2.934   3.444  0.1197 -0.1628  1.2786
  126OSM   H14T13397   2.956   3.050   3.432 -0.1085 -0.1336 -0.3038
  126OSM   C15S13398   3.028   2.837   3.472 -0.0658 -0.4593 -0.2158
  126OSM   H15S13399   3.132   2.852   3.435  0.2436 -1.4598  0.2218
  126OSM   H15T13400   2.995   2.734   3.448  1.5253 -0.4421 -2.8589
  126OSM   C16S13401   3.019   2.851   3.626  0.8236 -0.8114 -0.5884
  126OSM   H16S13402   3.036   2.751   3.673 -1.7644 -0.0258  2.3853
  126OSM   H16T13403   2.919   2.878   3.665  1.7243  1.6294  0.1774
  126OSM   C17S13404   3.137   2.953   3.678 -0.2637  0.0152  0.2952
  126OSM   H17S13405   3.132   3.055   3.634  1.7004 -0.0619 -0.1829
  126OSM   H17T13406   3.232   2.920   3.633 -0.1862  1.8366 -0.9937
  126OSM   C18S13407   3.150   2.959   3.830  0.5781  0.4033 -1.0456
  126OSM   H18S13408   3.058   3.007   3.868 -0.6978  0.1961 -3.6272
  126OSM   H18T13409   3.231   3.023   3.873 -0.2085 -0.1448  1.3970
  126OSM   H18U13410   3.161   2.854   3.864  0.1007  0.6955  0.0537
  126OSM    C1F13411   2.574   2.748   2.300  0.0047 -0.0591 -0.7172
  126OSM     OF13412   2.514   2.644   2.314 -0.1931  0.4109 -0.0756
  126OSM    C2F13413   2.505   2.881   2.330 -0.2722 -0.7405 -0.9049
  126OSM    H2F13414   2.559   2.961   2.275 -1.6409  0.7158 -0.2010
  126OSM    H2G13415   2.501   2.900   2.439 -3.3626  0.3447 -1.1116
  126OSM    C3F13416   2.362   2.895   2.278 -0.3876 -0.2673  0.2502
  126OSM    H3F13417   2.309   2.798   2.280  1.9251 -1.5909  0.4117
  126OSM    H3G13418   2.360   2.923   2.170  1.9295  1.9176  0.6698
  126OSM    C4F13419   2.284   2.987   2.366 -0.6285  0.8228 -0.4134
  126OSM    H4F13420   2.193   3.029   2.318 -1.5403 -0.6628 -0.0644
  126OSM    H4G13421   2.348   3.067   2.407 -1.2563  0.7008  0.8523
  126OSM    C5F13422   2.220   2.909   2.490 -0.3527 -0.1642 -0.0886
  126OSM    H5F13423   2.288   2.836   2.537 -1.7304  0.3023  2.8499
  126OSM    H5G13424   2.126   2.859   2.457 -0.1270  0.3663 -1.6111
  126OSM    C6F13425   2.169   3.001   2.605 -0.1428  0.4606 -0.1837
  126OSM    H6F13426   2.149   3.103   2.565  0.0151  0.0602 -1.3007
  126OSM    H6G13427   2.260   3.018   2.666 -0.2038 -0.4887  0.1883
  126OSM    C7F13428   2.048   2.949   2.691 -0.6215 -0.5189  0.2638
  126OSM    H7F13429   1.955   2.942   2.630 -2.2518  1.2238  2.3576
  126OSM    H7G13430   2.035   3.028   2.768 -0.5985 -1.2187  1.0017
  126OSM    C8F13431   2.051   2.807   2.747 -0.5093 -0.4753  0.0558
  126OSM    H8F13432   2.052   2.736   2.661  1.7566  1.8107 -1.9562
  126OSM    H8G13433   1.955   2.780   2.796 -0.8751 -0.1741 -0.4850
  126OSM    C9F13434   2.170   2.775   2.836  0.3983  0.1816 -0.2934
  126OSM    H9F13435   2.266   2.758   2.785  1.5146  1.9082  1.1133
  126OSM   C10F13436   2.165   2.739   2.967  0.5547  0.1633 -0.5951
  126OSM   H10F13437   2.259   2.725   3.023  1.8783 -0.2247 -2.7971
  126OSM   C11F13438   2.041   2.746   3.062  0.1272  0.1305  0.5328
  126OSM   H11F13439   2.006   2.641   3.068  2.8821 -0.9410 -0.5836
  126OSM   H11G13440   1.956   2.808   3.024 -1.2471 -2.1703 -0.3461
  126OSM   C12F13441   2.082   2.813   3.195  0.5478 -0.1613 -0.0539
  126OSM   H12F13442   2.099   2.922   3.179  1.2508 -0.1045  0.9895
  126OSM   H12G13443   2.172   2.768   3.241  0.7666 -4.1831 -3.7839
  126OSM   C13F13444   1.960   2.805   3.297 -0.3322  0.0095 -0.3417
  126OSM   H13F13445   1.922   2.703   3.319 -1.2329  0.2565 -0.7232
  126OSM   H13G13446   1.874   2.843   3.238  0.6850  0.9896 -1.2317
  126OSM   C14F13447   1.970   2.896   3.424 -0.4124 -0.0169  0.5814
  126OSM   H14F13448   1.871   2.913   3.471 -0.5662 -0.9109  0.6071
  126OSM   H14G13449   2.023   2.988   3.391 -0.6405 -0.0621  0.0714
  126OSM   C15F13450   2.055   2.827   3.540  0.6769 -0.0329  0.4144
  126OSM   H15F13451   2.080   2.904   3.616  0.0557  1.7747 -1.1264
  126OSM   H15G13452   2.151   2.806   3.488 -0.6858 -1.5147 -1.6556
  126OSM   C16F13453   1.977   2.702   3.594 -0.5849  0.8723  0.5867
  126OSM   H16F13454   1.968   2.620   3.520  1.7875 -0.1568  1.3382
  126OSM   H16G13455   1.878   2.746   3.620 -0.0167  2.1368  0.7190
  126OSM   C17F13456   2.031   2.628   3.714 -0.4904  0.3727 -0.1196
  126OSM   H17F13457   2.030   2.693   3.804 -0.5112 -1.4489  1.2364
  126OSM   H17G13458   2.136   2.608   3.684 -0.1250  3.2319 -1.1120
  126OSM   C18F13459   1.955   2.495   3.744  0.4792 -0.8556 -0.5080
  126OSM   H18F13460   1.864   2.508   3.807 -0.5958 -0.0646 -2.1693
  126OSM   H18G13461   2.014   2.432   3.814 -1.6238 -0.4204  1.7806
  126OSM   H18H13462   1.925   2.441   3.652  0.5582  0.0639 -1.0843
  127OSM      N13463   2.797   4.909   2.000  0.6154  0.2435  0.7922
  127OSM    C1513464   2.856   4.995   2.103 -0.0381  0.2033  0.2576
  127OSM   H15A13465   2.928   5.062   2.056 -0.4845 -0.0078 -0.7551
  127OSM   H15B13466   2.904   4.928   2.173 -0.6391  0.4151  0.8773
  127OSM   H15C13467   2.772   5.038   2.155 -2.0295  0.9905 -3.2990
  127OSM    C1413468   2.693   4.979   1.924  0.0682 -0.0286  0.0977
  127OSM   H14A13469   2.720   5.084   1.920  1.1991 -0.3008  0.2661
  127OSM   H14B13470   2.594   4.958   1.961  0.0852  1.1262  0.8448
  127OSM   H14C13471   2.684   4.944   1.822  0.1661 -0.8386  0.3637
  127OSM    C1313472   2.903   4.869   1.905  0.2941 -0.3636  0.1479
  127OSM   H13A13473   2.981   4.943   1.899 -1.8808  2.1764  1.0271
  127OSM   H13B13474   2.861   4.847   1.808 -1.0027  0.0511  0.5897
  127OSM   H13C13475   2.947   4.780   1.946  0.5254 -0.1013  0.4748
  127OSM    C1213476   2.738   4.780   2.058  0.3997  0.0488 -0.3965
  127OSM   H12A13477   2.813   4.722   2.109 -0.1544  1.7986  2.6062
  127OSM   H12B13478   2.706   4.718   1.975 -0.4845 -0.0690  0.0203
  127OSM    C1113479   2.604   4.794   2.147  0.2342  0.3540 -0.7205
  127OSM   H11A13480   2.638   4.854   2.234 -0.5202 -1.2489  0.7381
  127OSM   H11B13481   2.585   4.694   2.191  0.7976 -0.2957 -1.9147
  127OSM      P13482   2.389   4.778   2.003 -0.1757 -0.0721 -0.3881
  127OSM    O1313483   2.379   4.846   1.867 -0.1035 -0.4916 -0.1477
  127OSM    O1413484   2.418   4.632   2.014  0.6047 -0.2307  0.9327
  127OSM    O1113485   2.263   4.818   2.091 -0.5139  0.0240  0.0227
  127OSM    O1213486   2.492   4.861   2.083 -0.0977 -0.5978 -0.4286
  127OSM    C1S13487   2.250   4.760   2.220 -0.8056  0.5881 -0.3437
  127OSM    H1S13488   2.330   4.790   2.290  0.6302 -0.2501 -1.5584
  127OSM    H1T13489   2.263   4.650   2.220  1.2768  0.6954  2.7153
  127OSM     NF13490   2.107   4.703   2.415  0.2408  0.1171  0.3035
  127OSM    HNF13491   2.059   4.616   2.401  0.4464  0.2828 -1.7276
  127OSM    C2S13492   2.110   4.782   2.294  0.6050  0.0557  0.1738
  127OSM    H2S13493   2.112   4.890   2.319 -1.9462  0.2405 -0.1436
  127OSM    C3S13494   1.992   4.747   2.191 -0.1242  0.5552  0.4136
  127OSM    H3S13495   1.994   4.639   2.166  2.8560  0.4065  0.9810
  127OSM     O313496   2.008   4.791   2.054 -0.1215 -0.3748  0.2827
  127OSM    HO313497   2.104   4.801   2.051 -0.2927  1.9822  0.8498
  127OSM    C4S13498   1.855   4.776   2.248 -0.2631  0.7976 -0.2333
  127OSM    H4S13499   1.836   4.882   2.270  2.2021  1.9265 -2.8875
  127OSM    C5S13500   1.766   4.674   2.279 -0.0672  0.7114 -0.1194
  127OSM    H5S13501   1.791   4.568   2.264 -0.2492  0.5684  0.5598
  127OSM    C6S13502   1.628   4.694   2.332 -0.3306 -0.2478  0.3506
  127OSM    H6S13503   1.590   4.593   2.358  0.5480 -0.6303  0.2073
  127OSM    H6T13504   1.567   4.740   2.251  0.8578 -0.0763 -0.4769
  127OSM    C7S13505   1.603   4.785   2.449  0.9777 -0.9269  0.3469
  127OSM    H7S13506   1.496   4.815   2.461  1.2865 -0.1832  1.4393
  127OSM    H7T13507   1.650   4.884   2.432  0.2909 -0.7112 -0.3258
  127OSM    C8S13508   1.650   4.740   2.586 -0.2633  0.3716  0.4885
  127OSM    H8S13509   1.760   4.730   2.593 -0.3742 -0.0410  1.7466
  127OSM    H8T13510   1.613   4.637   2.601  3.3675 -0.8758  1.6839
  127OSM    C9S13511   1.595   4.824   2.703  0.0626  0.1133 -0.4908
  127OSM    H9S13512   1.612   4.775   2.801 -2.3539 -0.1833 -0.1742
  127OSM    H9T13513   1.485   4.834   2.705 -0.1774 -2.1052  0.8157
  127OSM   C10S13514   1.655   4.965   2.712 -0.4285 -0.0040 -0.7902
  127OSM   H10S13515   1.662   5.001   2.607 -1.1454 -0.0519 -0.8618
  127OSM   H10T13516   1.761   4.956   2.744 -0.6212 -0.0804 -0.1638
  127OSM   C11S13517   1.569   5.063   2.796  0.4426 -0.1768 -0.6897
  127OSM   H11S13518   1.468   5.083   2.754  0.3961 -0.4765 -0.7253
  127OSM   H11T13519   1.621   5.161   2.795  1.3586 -0.6525 -0.9295
  127OSM   C12S13520   1.549   5.033   2.943  0.7496  0.1918  0.0518
  127OSM   H12S13521   1.646   5.030   2.997  0.2400 -1.8985  0.9491
  127OSM   H12T13522   1.504   4.932   2.935  0.5333  0.1934  1.0737
  127OSM   C13S13523   1.446   5.125   3.008 -0.3937 -0.3398 -0.3849
  127OSM   H13S13524   1.362   5.113   2.937 -0.1705  0.9449 -0.8987
  127OSM   H13T13525   1.474   5.232   3.000 -2.7765  0.3710  0.0062
  127OSM   C14S13526   1.420   5.093   3.159  0.0038  0.0585  1.0376
  127OSM   H14S13527   1.504   5.136   3.217 -1.1224  0.2582  2.5921
  127OSM   H14T13528   1.416   4.983   3.172 -0.1185  0.0992  1.3504
  127OSM   C15S13529   1.286   5.139   3.218 -0.5734  0.3318 -0.2421
  127OSM   H15S13530   1.196   5.127   3.154 -0.4368 -0.4924 -0.2925
  127OSM   H15T13531   1.284   5.247   3.245 -2.7933  0.2690  0.0538
  127OSM   C16S13532   1.257   5.063   3.347 -0.7258 -0.5354 -0.1932
  127OSM   H16S13533   1.290   4.958   3.338  0.7264 -0.2291  1.0584
  127OSM   H16T13534   1.150   5.076   3.373 -0.2944 -0.0254  1.4668
  127OSM   C17S13535   1.349   5.111   3.465  0.2543 -0.4613  1.1874
  127OSM   H17S13536   1.437   5.162   3.423 -1.3232  1.3638 -0.0777
  127OSM   H17T13537   1.373   5.020   3.524 -4.6974 -2.2207  0.9884
  127OSM   C18S13538   1.287   5.206   3.564  0.4560  0.6461 -0.1998
  127OSM   H18S13539   1.203   5.147   3.608 -0.2681 -0.1232 -2.4676
  127OSM   H18T13540   1.250   5.302   3.523  0.3202  0.7213  0.1014
  127OSM   H18U13541   1.363   5.231   3.641  1.9323 -1.7989 -0.7259
  127OSM    C1F13542   2.154   4.745   2.535  0.2418 -0.0551  0.3826
  127OSM     OF13543   2.232   4.840   2.543 -0.5746 -0.4537 -0.5193
  127OSM    C2F13544   2.102   4.665   2.656  0.0144 -0.3953  0.0720
  127OSM    H2F13545   2.198   4.638   2.705 -0.1584  0.4680  0.9026
  127OSM    H2G13546   2.033   4.587   2.617 -2.1267  2.1194 -1.5346
  127OSM    C3F13547   2.020   4.751   2.750  0.0140  0.4490  0.5368
  127OSM    H3F13548   1.942   4.809   2.696 -0.4719 -1.5349 -1.0255
  127OSM    H3G13549   2.087   4.824   2.799 -1.0482 -0.6749  3.9635
  127OSM    C4F13550   1.951   4.658   2.852 -0.2506  0.3621  0.1274
  127OSM    H4F13551   2.028   4.593   2.899  0.1241 -2.1024 -3.4396
  127OSM    H4G13552   1.881   4.583   2.809 -1.6493 -0.6419  3.7829
  127OSM    C5F13553   1.872   4.734   2.967  0.1515  0.2628 -0.0304
  127OSM    H5F13554   1.844   4.649   3.032  0.7883 -0.5499 -0.7870
  127OSM    H5G13555   1.782   4.775   2.916  1.3290 -0.7062 -3.1965
  127OSM    C6F13556   1.943   4.841   3.045 -0.0656  0.0963  1.0676
  127OSM    H6F13557   1.865   4.884   3.112  0.3155 -0.9149  2.2052
  127OSM    H6G13558   1.974   4.935   2.995 -2.3742  0.6120  0.4768
  127OSM    C7F13559   2.056   4.799   3.131 -0.2564  0.0448 -0.9545
  127OSM    H7F13560   2.147   4.770   3.074  0.2904 -2.6732  1.1308
  127OSM    H7G13561   2.031   4.708   3.188 -0.9610  0.7097 -0.1779
  127OSM    C8F13562   2.093   4.901   3.240  0.1427 -0.1011 -0.0349
  127OSM    H8F13563   2.003   4.917   3.303  2.3640  0.1867  3.3299
  127OSM    H8G13564   2.109   4.997   3.186 -0.2749 -1.2126 -2.2699
  127OSM    C9F13565   2.213   4.871   3.333  0.6557 -0.4321 -0.3389
  127OSM    H9F13566   2.298   4.821   3.284  1.3818  0.8244 -0.4291
  127OSM   C10F13567   2.233   4.901   3.467 -0.9662 -0.3579  0.2187
  127OSM   H10F13568   2.332   4.878   3.510 -1.5557 -1.4920  1.0055
  127OSM   C11F13569   2.142   4.978   3.557  0.4000  1.0681  0.9146
  127OSM   H11F13570   2.044   4.989   3.506  0.2718 -1.8869  0.3459
  127OSM   H11G13571   2.195   5.075   3.568  0.9541  0.7967  0.7355
  127OSM   C12F13572   2.105   4.913   3.685  0.8980 -0.5957  0.1583
  127OSM   H12F13573   2.033   4.829   3.673 -1.9251  1.8782 -1.6558
  127OSM   H12G13574   2.053   4.994   3.741  0.1327 -1.8203  1.2887
  127OSM   C13F13575   2.220   4.862   3.763  0.6764 -0.4942  0.1191
  127OSM   H13F13576   2.307   4.930   3.758 -1.6494  2.7822  0.8848
  127OSM   H13G13577   2.248   4.761   3.726 -0.9446  0.1251 -3.1510
  127OSM   C14F13578   2.181   4.859   3.915 -0.1180  0.7406 -0.6658
  127OSM   H14F13579   2.095   4.790   3.927  1.9518 -1.7065  1.0759
  127OSM   H14G13580   2.153   4.964   3.938  0.0667  0.9423 -1.3523
  127OSM   C15F13581   2.296   4.807   3.997  0.5049 -0.0788 -0.8096
  127OSM   H15F13582   2.379   4.878   3.977 -0.7356  1.8863  0.5945
  127OSM   H15G13583   2.333   4.708   3.965 -1.5098 -1.0879 -0.2005
  127OSM   C16F13584   2.260   4.807   4.147  0.3301  0.0885 -0.4279
  127OSM   H16F13585   2.165   4.751   4.158 -0.3863  1.0096 -1.6639
  127OSM   H16G13586   2.249   4.910   4.189 -0.2571 -0.7152  1.5328
  127OSM   C17F13587   2.373   4.744   4.225  0.4303 -0.3120  0.2784
  127OSM   H17F13588   2.464   4.805   4.206 -1.2970  1.5002 -3.0509
  127OSM   H17G13589   2.379   4.639   4.186  1.8747 -0.6017  1.1834
  127OSM   C18F13590   2.344   4.746   4.374  0.2555  0.2381  0.6121
  127OSM   H18F13591   2.429   4.698   4.427  0.6284  0.5980  0.3460
  127OSM   H18G13592   2.249   4.692   4.388 -2.2949  3.1715 -3.2838
  127OSM   H18H13593   2.339   4.849   4.417  0.1485 -0.1513  1.5621
  128OSM      N13594   1.102   2.745   1.561 -0.3635 -0.4267  0.3697
  128OSM    C1513595   1.175   2.626   1.604 -0.2850  1.0306 -0.1226
  128OSM   H15A13596   1.153   2.543   1.539  1.3858  0.2672  0.2188
  128OSM   H15B13597   1.138   2.610   1.704  1.3463 -0.4061  0.2892
  128OSM   H15C13598   1.282   2.640   1.605 -0.1884  0.4145  1.9129
  128OSM    C1413599   1.147   2.786   1.425 -0.2057 -0.2709 -1.0216
  128OSM   H14A13600   1.112   2.708   1.359 -1.0727  0.5368 -1.5559
  128OSM   H14B13601   1.253   2.802   1.415  0.0414 -1.1046  0.1328
  128OSM   H14C13602   1.096   2.879   1.404  1.1833  0.7803  0.0351
  128OSM    C1313603   0.959   2.715   1.564  0.4796  0.0969 -0.0202
  128OSM   H13A13604   0.946   2.625   1.505  0.1678  1.2579 -1.7986
  128OSM   H13B13605   0.900   2.790   1.513  1.3293  0.0168 -1.1444
  128OSM   H13C13606   0.929   2.704   1.668 -0.2167  2.6226  0.1179
  128OSM    C1213607   1.136   2.859   1.652 -1.0674 -0.5171 -0.2082
  128OSM   H12A13608   1.087   2.948   1.616 -2.7842 -1.2693  0.1291
  128OSM   H12B13609   1.240   2.883   1.636 -1.8109  1.3179 -3.1855
  128OSM    C1113610   1.106   2.838   1.804  0.4960 -0.3501  0.2911
  128OSM   H11A13611   0.998   2.813   1.811  0.2961 -0.3010 -1.9703
  128OSM   H11B13612   1.119   2.935   1.856 -0.8538  0.5653 -0.9769
  128OSM      P13613   1.327   2.762   1.916  0.1293  0.0772  0.3821
  128OSM    O1313614   1.401   2.649   1.974  0.7427 -0.2945  0.4646
  128OSM    O1413615   1.405   2.839   1.816  0.1212 -0.0379  0.0442
  128OSM    O1113616   1.295   2.863   2.030  0.4697 -0.4463  0.2507
  128OSM    O1213617   1.175   2.730   1.870  0.3717  0.0187 -0.1091
  128OSM    C1S13618   1.191   2.837   2.130  0.3057 -0.3363  0.8713
  128OSM    H1S13619   1.123   2.751   2.109  1.2062 -0.4705 -1.8311
  128OSM    H1T13620   1.123   2.922   2.152 -0.5015 -1.1532  1.6407
  128OSM     NF13621   1.174   2.747   2.363  0.0722  0.0367  0.3499
  128OSM    HNF13622   1.156   2.784   2.454 -3.0831 -3.7384  1.5292
  128OSM    C2S13623   1.267   2.802   2.266 -0.6914  0.0140 -0.4552
  128OSM    H2S13624   1.334   2.715   2.252  2.2869  1.9575  0.8841
  128OSM    C3S13625   1.352   2.926   2.312 -0.0786  0.0038  0.3512
  128OSM    H3S13626   1.293   3.018   2.325  2.7644  2.0666 -0.2818
  128OSM     O313627   1.454   2.954   2.220  0.1411 -0.1956  0.1330
  128OSM    HO313628   1.414   2.923   2.139 -1.2859 -0.5108  0.9181
  128OSM    C4S13629   1.411   2.880   2.445  0.0984 -0.0192  0.0197
  128OSM    H4S13630   1.335   2.884   2.524  0.8129  2.0879  0.6815
  128OSM    C5S13631   1.539   2.854   2.469  0.3109  0.1501 -0.2355
  128OSM    H5S13632   1.616   2.862   2.391  3.0232 -1.4280  2.0834
  128OSM    C6S13633   1.608   2.796   2.592 -0.0921 -1.0107  0.2185
  128OSM    H6S13634   1.695   2.857   2.622 -2.0099  1.4948  1.0147
  128OSM    H6T13635   1.649   2.696   2.566  1.1691 -0.4869  0.1456
  128OSM    C7S13636   1.520   2.780   2.716 -1.3270 -0.3844  0.3966
  128OSM    H7S13637   1.439   2.707   2.695  0.4944 -2.1394 -0.9909
  128OSM    H7T13638   1.477   2.871   2.761 -0.7235  0.9894 -1.6422
  128OSM    C8S13639   1.605   2.730   2.840  0.3526  0.1831  0.3034
  128OSM    H8S13640   1.685   2.805   2.853 -0.9249  1.3648  1.7752
  128OSM    H8T13641   1.657   2.639   2.801 -0.4399  0.5548 -1.7532
  128OSM    C9S13642   1.518   2.702   2.965  0.2458  0.1528  0.2302
  128OSM    H9S13643   1.434   2.635   2.937 -2.0554  2.2382  1.6963
  128OSM    H9T13644   1.476   2.802   2.988 -0.6249  0.6256 -2.9492
  128OSM   C10S13645   1.610   2.649   3.080  0.0134 -0.1086 -0.1440
  128OSM   H10S13646   1.708   2.701   3.083  1.2950 -2.2183 -1.8492
  128OSM   H10T13647   1.630   2.539   3.074  1.2449  0.1301 -0.7435
  128OSM   C11S13648   1.540   2.670   3.210 -0.1602 -0.3854  0.5830
  128OSM   H11S13649   1.437   2.628   3.202  0.0231 -0.5809 -1.0750
  128OSM   H11T13650   1.526   2.780   3.225  1.5354  0.1639 -1.4700
  128OSM   C12S13651   1.611   2.596   3.327  0.1303 -0.0030  0.6282
  128OSM   H12S13652   1.713   2.633   3.349 -0.1148  1.0712  0.0829
  128OSM   H12T13653   1.640   2.495   3.291  0.9080  0.9028 -1.4509
  128OSM   C13S13654   1.534   2.603   3.459  0.1545  0.4938 -0.2836
  128OSM   H13S13655   1.433   2.560   3.446 -0.9044  2.2220  1.5312
  128OSM   H13T13656   1.530   2.708   3.497 -0.3245  0.4626 -0.2455
  128OSM   C14S13657   1.601   2.516   3.565  0.2565  0.4545 -0.1683
  128OSM   H14S13658   1.702   2.560   3.578  0.8108 -0.2601 -1.8030
  128OSM   H14T13659   1.614   2.419   3.512  1.2882  0.5623 -0.1289
  128OSM   C15S13660   1.522   2.504   3.692  0.6333 -0.0932 -0.4298
  128OSM   H15S13661   1.450   2.422   3.671  1.9236 -0.9285 -1.8591
  128OSM   H15T13662   1.464   2.596   3.710  1.1718  0.2947 -0.6332
  128OSM   C16S13663   1.601   2.455   3.822 -0.1470  0.0330  0.5241
  128OSM   H16S13664   1.663   2.540   3.858  1.5111 -2.0794  2.9721
  128OSM   H16T13665   1.669   2.374   3.789 -1.0551 -0.7443  0.5040
  128OSM   C17S13666   1.521   2.393   3.938 -0.2030 -0.0573  0.1100
  128OSM   H17S13667   1.597   2.393   4.019 -0.0634  1.5745  0.0030
  128OSM   H17T13668   1.493   2.288   3.913 -1.2587  0.3352 -0.4044
  128OSM   C18S13669   1.407   2.477   3.981  0.1011  0.6206 -0.8462
  128OSM   H18S13670   1.320   2.461   3.913 -0.1891  0.2050 -0.3808
  128OSM   H18T13671   1.434   2.583   3.962 -0.0745  0.6926 -0.6898
  128OSM   H18U13672   1.379   2.460   4.087  5.1357  2.5910  1.0969
  128OSM    C1F13673   1.122   2.628   2.352 -0.0333  0.0782  0.9904
  128OSM     OF13674   1.144   2.553   2.257 -0.0133 -0.0969 -0.4729
  128OSM    C2F13675   1.041   2.592   2.472 -0.5037  0.2008  0.7220
  128OSM    H2F13676   1.013   2.687   2.522 -1.0956  0.3903  0.0486
  128OSM    H2G13677   1.107   2.532   2.538 -2.1872 -0.5978  1.7310
  128OSM    C3F13678   0.909   2.518   2.437 -0.1563 -0.3756 -0.1366
  128OSM    H3F13679   0.932   2.420   2.392  1.2853 -0.8528  1.5142
  128OSM    H3G13680   0.849   2.574   2.362  2.4922  1.3926 -1.0693
  128OSM    C4F13681   0.832   2.485   2.567 -0.0609  0.0726 -0.1206
  128OSM    H4F13682   0.772   2.564   2.617  1.5664  0.8198  0.7302
  128OSM    H4G13683   0.906   2.469   2.648 -0.2476  1.7487  0.4166
  128OSM    C5F13684   0.733   2.367   2.543 -0.7957  0.2831  0.9350
  128OSM    H5F13685   0.791   2.276   2.518 -0.5387  0.7745 -0.3341
  128OSM    H5G13686   0.671   2.376   2.451  1.4851  1.5133 -0.5723
  128OSM    C6F13687   0.647   2.343   2.668 -0.4964 -0.2574  0.2253
  128OSM    H6F13688   0.562   2.278   2.639 -0.8069  0.0021  0.5395
  128OSM    H6G13689   0.606   2.443   2.693  0.5231  0.2444 -0.0502
  128OSM    C7F13690   0.729   2.293   2.790 -0.0143  0.3442  0.4718
  128OSM    H7F13691   0.790   2.377   2.830  0.5602  0.9645 -1.5829
  128OSM    H7G13692   0.805   2.216   2.765  0.2939  0.9656 -0.5655
  128OSM    C8F13693   0.635   2.233   2.893 -0.0968  0.0272 -0.0888
  128OSM    H8F13694   0.710   2.186   2.961  0.1735  0.4243 -0.1137
  128OSM    H8G13695   0.582   2.151   2.838  0.8077 -0.0774 -0.8245
  128OSM    C9F13696   0.545   2.330   2.962 -0.6527  0.2118  0.0200
  128OSM    H9F13697   0.482   2.391   2.897 -0.7032  1.2452  1.0028
  128OSM   C10F13698   0.554   2.359   3.094  0.4457 -0.1634 -0.0552
  128OSM   H10F13699   0.492   2.448   3.116 -0.7233  0.1548 -3.9364
  128OSM   C11F13700   0.640   2.305   3.207 -0.1416  0.5811 -0.4565
  128OSM   H11F13701   0.709   2.386   3.235 -1.2447  1.4421 -0.1531
  128OSM   H11G13702   0.709   2.224   3.177 -0.7837  0.3568 -1.3862
  128OSM   C12F13703   0.555   2.271   3.334 -0.3763  0.3753 -0.1668
  128OSM   H12F13704   0.470   2.204   3.312 -1.1276  2.0191 -2.6631
  128OSM   H12G13705   0.507   2.366   3.368  0.6992  1.9480 -2.6776
  128OSM   C13F13706   0.646   2.210   3.445 -0.8672 -0.1977 -0.7302
  128OSM   H13F13707   0.724   2.288   3.456  0.4120 -1.2229 -2.1213
  128OSM   H13G13708   0.689   2.112   3.415 -0.4948 -0.1661 -0.3019
  128OSM   C14F13709   0.573   2.198   3.577  0.0361 -0.1310  0.1094
  128OSM   H14F13710   0.500   2.115   3.566  2.3544 -2.4890  1.3538
  128OSM   H14G13711   0.508   2.288   3.578 -0.6649 -0.5621 -1.7432
  128OSM   C15F13712   0.659   2.190   3.707 -0.7279 -0.1007 -0.8211
  128OSM   H15F13713   0.735   2.271   3.708 -0.3322 -0.4647 -0.9973
  128OSM   H15G13714   0.720   2.099   3.724  0.8163  1.4225  2.7708
  128OSM   C16F13715   0.585   2.212   3.837 -0.6277 -0.2599  0.0686
  128OSM   H16F13716   0.492   2.152   3.839 -0.2281 -0.8817  0.7072
  128OSM   H16G13717   0.542   2.315   3.841 -0.2435 -0.1073  3.1467
  128OSM   C17F13718   0.678   2.170   3.954 -0.9938  0.4062 -0.2419
  128OSM   H17F13719   0.779   2.209   3.928 -1.0955  0.3533 -0.7288
  128OSM   H17G13720   0.692   2.060   3.962  0.9697  0.6642  0.5970
  128OSM   C18F13721   0.638   2.231   4.092  0.0754  0.8733 -0.1308
  128OSM   H18F13722   0.552   2.177   4.137  0.4041  1.3196  1.0796
  128OSM   H18G13723   0.609   2.338   4.084 -4.2786 -0.2698 -2.7122
  128OSM   H18H13724   0.724   2.213   4.161 -1.3386 -3.2421  0.8928
  129OSM      N13725   3.225   2.522   1.758  0.0119  0.0631  0.0697
  129OSM    C1513726   3.226   2.665   1.763 -0.5469  1.0768 -0.1926
  129OSM   H15A13727   3.279   2.709   1.680  2.9605  0.5009  1.5271
  129OSM   H15B13728   3.281   2.697   1.851 -1.5398  1.6742  0.2299
  129OSM   H15C13729   3.133   2.720   1.759 -0.6467  0.9799  0.5801
  129OSM    C1413730   3.137   2.477   1.639 -0.7203 -0.3285 -0.2168
  129OSM   H14A13731   3.173   2.534   1.555  1.2116  0.5003  1.0775
  129OSM   H14B13732   3.030   2.488   1.649 -1.1453  0.8039 -4.2689
  129OSM   H14C13733   3.149   2.371   1.622  0.8923 -0.1009 -0.7062
  129OSM    C1313734   3.367   2.493   1.737 -0.9016  0.3610 -0.1240
  129OSM   H13A13735   3.392   2.504   1.632  1.2295  1.0130  0.3953
  129OSM   H13B13736   3.394   2.396   1.775  2.0526  1.5641  1.2148
  129OSM   H13C13737   3.430   2.567   1.786 -0.3259  0.9799 -1.7145
  129OSM    C1213738   3.162   2.467   1.882  0.0390  0.8510  0.5881
  129OSM   H12A13739   3.068   2.520   1.888  0.4012  1.3204  3.6965
  129OSM   H12B13740   3.230   2.493   1.962  1.0382 -0.3409  0.1591
  129OSM    C1113741   3.140   2.315   1.895 -1.1880  0.2728 -0.1043
  129OSM   H11A13742   3.084   2.263   1.814 -1.2876 -3.8740  2.3278
  129OSM   H11B13743   3.076   2.294   1.983  0.7997 -0.5818  1.2163
  129OSM      P13744   3.349   2.239   2.040 -0.1198 -0.2477  0.4322
  129OSM    O1313745   3.433   2.118   2.025  0.7419 -0.1300  0.2332
  129OSM    O1413746   3.422   2.367   2.057 -0.4441  0.3197  0.8367
  129OSM    O1113747   3.236   2.217   2.164  0.2504  0.6294  0.0699
  129OSM    O1213748   3.268   2.257   1.908  0.2442  0.3113 -0.3604
  129OSM    C1S13749   3.299   2.222   2.296 -0.7906 -1.2974 -0.2826
  129OSM    H1S13750   3.368   2.308   2.307  0.6858 -2.6941  2.1628
  129OSM    H1T13751   3.366   2.136   2.311 -1.6888 -1.6415  2.1660
  129OSM     NF13752   3.277   2.240   2.541  0.4102  0.2766 -0.5617
  129OSM    HNF13753   3.296   2.154   2.588 -0.4116  0.4027  0.0207
  129OSM    C2S13754   3.194   2.227   2.416  0.6188  0.2302  0.0455
  129OSM    H2S13755   3.138   2.322   2.415 -1.4196 -0.8493  2.3972
  129OSM    C3S13756   3.094   2.109   2.401  0.1481  0.0543  0.0173
  129OSM    H3S13757   3.156   2.017   2.397 -1.0386 -0.8574  1.5088
  129OSM     O313758   3.013   2.108   2.277 -0.1020  0.6794 -0.2636
  129OSM    HO313759   3.059   2.155   2.208 -1.3512  1.6350 -0.4791
  129OSM    C4S13760   3.005   2.091   2.522 -1.0345 -0.2295  0.3058
  129OSM    H4S13761   3.055   2.048   2.609 -0.2645 -0.5709 -0.2942
  129OSM    C5S13762   2.874   2.121   2.529 -0.2732  0.2419  0.2730
  129OSM    H5S13763   2.822   2.152   2.437 -2.5326  0.6105  1.5934
  129OSM    C6S13764   2.782   2.093   2.644 -0.4389 -0.3685  0.8836
  129OSM    H6S13765   2.718   2.012   2.604 -2.0011  0.6155  1.2958
  129OSM    H6T13766   2.715   2.181   2.656 -0.2688  0.3904 -2.6413
  129OSM    C7S13767   2.845   2.049   2.777 -0.0571 -0.2252  0.7821
  129OSM    H7S13768   2.911   1.961   2.763  0.2599  0.3293 -1.7315
  129OSM    H7T13769   2.776   2.015   2.856  1.1655  0.4808  2.2008
  129OSM    C8S13770   2.921   2.171   2.834 -0.1828 -0.0505 -0.0544
  129OSM    H8S13771   2.867   2.261   2.796  0.5658  0.0421 -0.9391
  129OSM    H8T13772   3.024   2.169   2.792 -0.3161 -0.9100 -0.3646
  129OSM    C9S13773   2.930   2.174   2.983 -0.3323  0.1028 -0.3617
  129OSM    H9S13774   2.827   2.188   3.023 -0.6521  1.6194 -1.6246
  129OSM    H9T13775   2.987   2.264   3.013  1.0910 -0.3007 -1.6871
  129OSM   C10S13776   2.974   2.041   3.045 -0.4017 -0.4081 -0.9791
  129OSM   H10S13777   3.076   2.031   3.003 -0.1529 -0.4659 -0.3803
  129OSM   H10T13778   2.918   1.951   3.012 -1.8828  0.2979 -0.4761
  129OSM   C11S13779   2.992   2.056   3.199  0.3545 -0.3754  0.0349
  129OSM   H11S13780   2.907   2.099   3.256 -0.6992  0.4035 -2.0478
  129OSM   H11T13781   3.084   2.118   3.200  0.7243 -0.8998  1.3717
  129OSM   C12S13782   3.029   1.922   3.262  0.3595 -0.4145  0.0356
  129OSM   H12S13783   3.101   1.862   3.202  1.4815 -0.1589  1.0868
  129OSM   H12T13784   2.940   1.856   3.274 -0.1054 -0.1275 -1.6307
  129OSM   C13S13785   3.101   1.937   3.399 -0.2395 -0.2983 -0.7517
  129OSM   H13S13786   3.049   2.007   3.467  1.6799  0.1951  0.2837
  129OSM   H13T13787   3.200   1.986   3.392  1.5433 -2.9431  2.6441
  129OSM   C14S13788   3.139   1.805   3.476 -0.6030 -0.0172 -0.4288
  129OSM   H14S13789   3.198   1.744   3.403  0.1269  1.3975 -1.0563
  129OSM   H14T13790   3.044   1.752   3.501  1.8997 -3.5399  2.7795
  129OSM   C15S13791   3.221   1.829   3.607 -0.0567  0.6860 -0.0582
  129OSM   H15S13792   3.289   1.916   3.592 -1.8460  2.6735  2.5749
  129OSM   H15T13793   3.284   1.738   3.600 -0.4566  0.4630 -0.8940
  129OSM   C16S13794   3.145   1.843   3.737 -0.3194  0.0822 -0.0343
  129OSM   H16S13795   3.063   1.768   3.731 -0.0276 -0.2907  0.5325
  129OSM   H16T13796   3.098   1.943   3.740  0.4985  0.4560  0.4941
  129OSM   C17S13797   3.228   1.831   3.869 -0.4702 -0.2055 -1.4173
  129OSM   H17S13798   3.301   1.914   3.880  0.4834 -1.2848  1.6553
  129OSM   H17T13799   3.295   1.743   3.858  1.5035  0.6801  1.9510
  129OSM   C18S13800   3.146   1.817   4.003 -0.2905  0.2485  0.6292
  129OSM   H18S13801   3.123   1.921   4.037 -1.8037 -0.1210  0.7885
  129OSM   H18T13802   3.200   1.762   4.082 -1.4417  0.5286  1.6478
  129OSM   H18U13803   3.052   1.763   3.981 -0.7800  1.7302 -1.1520
  129OSM    C1F13804   3.342   2.345   2.577  0.4497  0.0409  0.3457
  129OSM     OF13805   3.335   2.447   2.512  0.6601 -0.2872  0.8003
  129OSM    C2F13806   3.441   2.329   2.683  0.4964  0.8294 -0.1353
  129OSM    H2F13807   3.524   2.400   2.667  0.0190  1.2708 -0.7112
  129OSM    H2G13808   3.490   2.229   2.675  1.8185  1.4340  0.1855
  129OSM    C3F13809   3.390   2.348   2.827 -0.6376  0.4195  0.5623
  129OSM    H3F13810   3.303   2.280   2.833 -1.8159  1.7591 -0.5811
  129OSM    H3G13811   3.339   2.447   2.829  0.0556  0.8185 -0.3618
  129OSM    C4F13812   3.495   2.323   2.929 -0.1040 -0.4168 -0.0503
  129OSM    H4F13813   3.572   2.404   2.934 -0.3839 -0.1190 -0.5300
  129OSM    H4G13814   3.550   2.233   2.893  0.1371 -0.4307  0.3485
  129OSM    C5F13815   3.453   2.295   3.071  0.3004 -1.0349 -0.1359
  129OSM    H5F13816   3.544   2.307   3.135  0.3977  0.8629 -0.5607
  129OSM    H5G13817   3.415   2.191   3.080  0.5060 -1.0407  0.7170
  129OSM    C6F13818   3.355   2.404   3.113 -0.1582 -0.2258  0.7937
  129OSM    H6F13819   3.268   2.396   3.045  2.1292 -0.3864 -2.3384
  129OSM    H6G13820   3.395   2.505   3.091  0.1781 -0.3087  1.0056
  129OSM    C7F13821   3.300   2.385   3.256  0.8989  0.0227 -0.1814
  129OSM    H7F13822   3.388   2.389   3.323  0.4832 -0.5781  0.4167
  129OSM    H7G13823   3.258   2.286   3.282 -1.3308  1.3100  1.5482
  129OSM    C8F13824   3.196   2.492   3.312 -0.1892 -0.4737 -0.0877
  129OSM    H8F13825   3.227   2.596   3.292  0.9380 -0.8562 -0.4200
  129OSM    H8G13826   3.178   2.482   3.421 -0.9265 -0.0625 -0.1658
  129OSM    C9F13827   3.069   2.474   3.232 -0.1897 -0.2689 -0.0386
  129OSM    H9F13828   3.070   2.492   3.123 -2.1193 -1.2446 -0.2517
  129OSM   C10F13829   2.947   2.431   3.281  0.4225 -0.8355 -0.0800
  129OSM   H10F13830   2.864   2.419   3.209  0.1608 -0.0699  0.0872
  129OSM   C11F13831   2.916   2.388   3.420 -0.0108  0.4438 -0.4219
  129OSM   H11F13832   3.004   2.404   3.487  0.3942  0.1356 -0.8712
  129OSM   H11G13833   2.897   2.278   3.428  2.8381 -0.0365  1.0420
  129OSM   C12F13834   2.805   2.463   3.492  0.0977 -0.1796  0.1453
  129OSM   H12F13835   2.705   2.421   3.467  0.3075 -0.2945 -0.5224
  129OSM   H12G13836   2.805   2.572   3.474 -0.6673 -0.3579 -1.0160
  129OSM   C13F13837   2.812   2.443   3.645 -0.0353 -0.0069  0.4075
  129OSM   H13F13838   2.912   2.485   3.667 -1.0531  0.9259  3.8538
  129OSM   H13G13839   2.810   2.334   3.667  0.3987 -0.5747 -2.0566
  129OSM   C14F13840   2.702   2.513   3.715  0.5456 -0.4938 -0.1150
  129OSM   H14F13841   2.602   2.467   3.698  0.1487  0.3972 -0.2106
  129OSM   H14G13842   2.692   2.617   3.679 -1.2388 -0.7984 -0.6103
  129OSM   C15F13843   2.720   2.492   3.869  0.3664  0.3237  0.4916
  129OSM   H15F13844   2.819   2.524   3.909  0.3269  1.6562 -0.4201
  129OSM   H15G13845   2.718   2.383   3.890 -2.3819 -0.2481 -2.0831
  129OSM   C16F13846   2.601   2.546   3.950  0.0326 -0.6401 -0.0132
  129OSM   H16F13847   2.503   2.506   3.917 -0.5595  0.7445  0.0250
  129OSM   H16G13848   2.601   2.655   3.932  1.5702 -0.3800  1.2695
  129OSM   C17F13849   2.605   2.541   4.108 -0.2917 -0.0360  0.3644
  129OSM   H17F13850   2.692   2.605   4.135  0.1511 -0.2564 -0.5091
  129OSM   H17G13851   2.624   2.433   4.126  0.8906 -0.0176 -0.6207
  129OSM   C18F13852   2.476   2.585   4.180  1.0970  0.3817  0.1045
  129OSM   H18F13853   2.460   2.695   4.177  0.7052  0.3548  0.9952
  129OSM   H18G13854   2.469   2.550   4.285 -0.6353 -0.0791 -0.1210
  129OSM   H18H13855   2.393   2.536   4.124  2.2723 -2.2386  0.5163
  130OSM      N13856   4.725   4.247   2.510 -0.2511 -0.7122  0.1799
  130OSM    C1513857   4.606   4.278   2.424 -0.3383 -0.2785  0.2294
  130OSM   H15A13858   4.630   4.260   2.320 -0.0664  1.2289  0.0111
  130OSM   H15B13859   4.580   4.382   2.432 -0.0072 -0.2226  0.6068
  130OSM   H15C13860   4.516   4.232   2.464  0.3021 -0.4404  1.5251
  130OSM    C1413861   4.723   4.097   2.523 -0.0397  0.1776 -0.6926
  130OSM   H14A13862   4.656   4.070   2.604 -0.6752  2.0506 -0.5528
  130OSM   H14B13863   4.823   4.059   2.542  1.0366  2.6281 -1.0517
  130OSM   H14C13864   4.671   4.057   2.438 -0.2687  1.4793 -1.1857
  130OSM    C1313865   4.849   4.283   2.429  0.4851  0.0143  0.0839
  130OSM   H13A13866   4.946   4.250   2.465  0.5147 -1.2897 -1.1290
  130OSM   H13B13867   4.850   4.390   2.415 -0.3984  0.3094  1.9581
  130OSM   H13C13868   4.845   4.240   2.331  0.4795 -0.1660  0.1629
  130OSM    C1213869   4.718   4.328   2.631  0.2899  0.1285 -0.5012
  130OSM   H12A13870   4.767   4.276   2.713  1.6045 -0.7237 -1.7787
  130OSM   H12B13871   4.617   4.334   2.669  1.1326  1.8492  1.7060
  130OSM    C1113872   4.764   4.475   2.631 -0.4373  0.0056 -0.3761
  130OSM   H11A13873   4.871   4.463   2.604  0.1218  0.4440  1.4905
  130OSM   H11B13874   4.753   4.522   2.731  0.5561  1.7084 -1.0160
  130OSM      P13875   4.758   4.665   2.466 -0.4135  0.5706  0.2453
  130OSM    O1313876   4.872   4.603   2.398 -0.1603  0.4271 -0.0590
  130OSM    O1413877   4.658   4.737   2.382 -0.0124  0.0509 -0.7392
  130OSM    O1113878   4.805   4.761   2.579 -0.3861  0.3517  0.3728
  130OSM    O1213879   4.681   4.560   2.544  0.1468 -0.3421 -0.0171
  130OSM    C1S13880   4.715   4.807   2.683  0.0931 -0.0619 -0.0857
  130OSM    H1S13881   4.615   4.759   2.677  1.3186 -2.6499 -2.2042
  130OSM    H1T13882   4.701   4.916   2.670  0.5715  0.0122 -0.0058
  130OSM     NF13883   4.702   4.828   2.937 -0.6810  0.1975 -0.1913
  130OSM    HNF13884   4.732   4.905   2.992  3.3392 -1.4199  0.2788
  130OSM    C2S13885   4.793   4.798   2.824 -0.1884  0.4171 -0.6715
  130OSM    H2S13886   4.832   4.694   2.815  2.9064  1.5991 -2.5733
  130OSM    C3S13887   4.920   4.884   2.826 -0.4423 -0.8564 -0.0747
  130OSM    H3S13888   4.891   4.990   2.810 -0.6440 -0.7314  1.0394
  130OSM     O313889   5.014   4.858   2.721 -0.7713  0.4268 -0.1429
  130OSM    HO313890   4.969   4.795   2.666  0.6795 -0.5456 -0.2784
  130OSM    C4S13891   5.006   4.875   2.957  1.1347 -0.1302 -0.0823
  130OSM    H4S13892   5.032   4.770   2.978  1.6346 -0.1937 -0.9567
  130OSM    C5S13893   5.045   4.978   3.034  0.6105  0.1454 -0.2533
  130OSM    H5S13894   5.024   5.085   3.022 -0.3216  0.1645  1.2283
  130OSM    C6S13895   5.128   4.945   3.155 -0.0584 -0.2997  0.3450
  130OSM    H6S13896   5.232   4.979   3.132  0.4925 -2.0618  0.1319
  130OSM    H6T13897   5.120   4.838   3.183 -0.5988 -0.1104  0.9243
  130OSM    C7S13898   5.082   5.030   3.279  0.0726  0.0214  0.4137
  130OSM    H7S13899   4.972   5.035   3.291 -0.5378 -1.8602 -2.9812
  130OSM    H7T13900   5.112   5.134   3.253 -3.4422  0.8108 -0.9757
  130OSM    C8S13901   5.143   4.981   3.409  0.1010  1.2946  0.3206
  130OSM    H8S13902   5.253   4.975   3.400  0.0920  2.0650 -0.4112
  130OSM    H8T13903   5.099   4.880   3.425 -0.4449  0.9322 -2.8152
  130OSM    C9S13904   5.110   5.070   3.532 -0.5837  0.1456 -0.1182
  130OSM    H9S13905   5.002   5.094   3.534 -0.5382  0.3431  0.1021
  130OSM    H9T13906   5.149   5.172   3.512 -1.6449  0.2015 -2.0869
  130OSM   C10S13907   5.168   5.007   3.661 -0.6178 -0.0596  0.1377
  130OSM   H10S13908   5.271   5.046   3.674 -0.7554 -0.1776  1.7119
  130OSM   H10T13909   5.173   4.896   3.653 -1.0792  0.0298 -2.3669
  130OSM   C11S13910   5.081   5.043   3.787  1.0046  0.4929  0.7132
  130OSM   H11S13911   4.975   5.030   3.756  0.9748 -2.1257  1.6405
  130OSM   H11T13912   5.078   5.149   3.821  2.2704  1.2011 -1.2373
  130OSM   C12S13913   5.108   4.937   3.887  0.7368  0.0708  0.4290
  130OSM   H12S13914   5.111   4.835   3.844 -1.5504 -1.2793  3.0992
  130OSM   H12T13915   5.031   4.930   3.967  1.8196 -2.6276  1.3560
  130OSM   C13S13916   5.241   4.965   3.963  0.4925  0.2047  0.0602
  130OSM   H13S13917   5.323   4.962   3.888 -0.5576 -0.0954 -1.1072
  130OSM   H13T13918   5.263   4.886   4.038  0.5848  1.1438  1.0479
  130OSM   C14S13919   5.254   5.102   4.022 -0.4104 -0.2265 -0.0011
  130OSM   H14S13920   5.175   5.115   4.100  1.4366 -1.7829  2.2872
  130OSM   H14T13921   5.260   5.183   3.947 -0.1321 -0.5996 -0.3828
  130OSM   C15S13922   5.384   5.104   4.107 -0.1656 -0.3912 -0.0292
  130OSM   H15S13923   5.470   5.112   4.038  0.4350  3.0945  0.9344
  130OSM   H15T13924   5.396   5.000   4.145  0.7278 -0.1391  0.3993
  130OSM   C16S13925   5.391   5.221   4.206 -0.2075  0.4911 -0.1585
  130OSM   H16S13926   5.486   5.228   4.262 -1.3191  0.7579  1.7741
  130OSM   H16T13927   5.310   5.192   4.275  2.0668 -1.0123  2.0441
  130OSM   C17S13928   5.357   5.363   4.143 -0.2519 -0.4741 -0.0508
  130OSM   H17S13929   5.328   5.419   4.234 -0.5792 -0.7608  0.0223
  130OSM   H17T13930   5.270   5.354   4.074  1.5825 -1.6864 -2.3815
  130OSM   C18S13931   5.474   5.447   4.077  0.4298 -0.3245 -0.1204
  130OSM   H18S13932   5.510   5.381   3.996 -1.4941 -0.8747 -0.5900
  130OSM   H18T13933   5.556   5.463   4.151  0.5915 -2.3553  0.1763
  130OSM   H18U13934   5.445   5.549   4.043  2.3141  1.2352  2.4979
  130OSM    C1F13935   4.605   4.752   2.972  0.0535  0.5403  0.9297
  130OSM     OF13936   4.570   4.652   2.907  0.3874  0.4762  0.5596
  130OSM    C2F13937   4.527   4.782   3.094  0.0984  0.1434  0.0003
  130OSM    H2F13938   4.456   4.866   3.076  1.3954  1.5376  1.0222
  130OSM    H2G13939   4.597   4.816   3.173 -0.9792 -0.1124  1.0961
  130OSM    C3F13940   4.466   4.652   3.160  0.2088 -0.4295  0.4966
  130OSM    H3F13941   4.552   4.584   3.178  1.7864  1.9250  2.5550
  130OSM    H3G13942   4.402   4.600   3.086  1.7945 -0.6885 -0.7461
  130OSM    C4F13943   4.388   4.674   3.288 -0.0065  0.3787  1.4354
  130OSM    H4F13944   4.461   4.705   3.366 -0.3721  0.6448  1.6779
  130OSM    H4G13945   4.343   4.577   3.318  0.8941  0.2647  2.4896
  130OSM    C5F13946   4.275   4.772   3.262 -0.1848 -0.1229 -0.6704
  130OSM    H5F13947   4.231   4.749   3.162 -0.4163 -0.0172 -0.5946
  130OSM    H5G13948   4.315   4.875   3.252  1.3929 -0.6959 -0.4226
  130OSM    C6F13949   4.179   4.779   3.381 -0.0184 -0.8004  0.6485
  130OSM    H6F13950   4.131   4.680   3.397  0.5828 -1.1736  0.1683
  130OSM    H6G13951   4.108   4.857   3.346  1.4374  0.7382  0.9340
  130OSM    C7F13952   4.262   4.827   3.500 -0.2058  0.4916  0.0331
  130OSM    H7F13953   4.303   4.926   3.469  0.5804 -0.0740 -0.8040
  130OSM    H7G13954   4.355   4.773   3.529 -1.2298  0.1596  3.0907
  130OSM    C8F13955   4.181   4.841   3.625 -0.1505  0.1339 -0.3815
  130OSM    H8F13956   4.103   4.920   3.617  0.1796  0.4808 -0.2193
  130OSM    H8G13957   4.247   4.868   3.710  0.5266  0.7836 -1.0991
  130OSM    C9F13958   4.103   4.721   3.677 -0.1357  0.3852 -0.5686
  130OSM    H9F13959   4.144   4.640   3.740 -2.2973 -0.5588 -0.2824
  130OSM   C10F13960   3.971   4.692   3.650 -0.2747  0.1267  0.7103
  130OSM   H10F13961   3.938   4.593   3.684  0.4897 -0.1559  0.6563
  130OSM   C11F13962   3.875   4.757   3.556 -0.6436  0.1194  0.7942
  130OSM   H11F13963   3.799   4.680   3.528  1.4144 -2.1504  1.0951
  130OSM   H11G13964   3.939   4.780   3.468  0.7353  0.9676  1.9853
  130OSM   C12F13965   3.802   4.882   3.606  0.6435  0.5197 -0.3970
  130OSM   H12F13966   3.734   4.916   3.525  1.2606 -1.0819 -1.6575
  130OSM   H12G13967   3.881   4.959   3.614 -0.1881  1.4074 -0.6063
  130OSM   C13F13968   3.728   4.865   3.740 -0.0353  1.4362  0.7721
  130OSM   H13F13969   3.804   4.830   3.813  2.9707 -0.1821 -2.8022
  130OSM   H13G13970   3.655   4.784   3.722  0.0862  1.1554  1.5149
  130OSM   C14F13971   3.635   4.983   3.770  0.3206 -0.4110 -0.5049
  130OSM   H14F13972   3.556   4.994   3.693 -1.7679  0.5234  1.6616
  130OSM   H14G13973   3.698   5.070   3.797  2.2313 -2.9019  4.4506
  130OSM   C15F13974   3.541   4.940   3.888  0.1160  1.2323 -0.2044
  130OSM   H15F13975   3.502   4.838   3.868  4.5144 -1.3175  2.5343
  130OSM   H15G13976   3.457   5.013   3.892 -0.0401  1.0488 -0.1372
  130OSM   C16F13977   3.627   4.935   4.017  0.1198 -0.0341 -0.0957
  130OSM   H16F13978   3.678   5.033   4.022  1.3088 -0.6734  3.5816
  130OSM   H16G13979   3.705   4.856   4.008  0.2561  0.2942 -2.3752
  130OSM   C17F13980   3.555   4.909   4.155  0.1030 -0.6957  0.5742
  130OSM   H17F13981   3.521   5.002   4.207 -0.5487 -1.2463  1.1468
  130OSM   H17G13982   3.644   4.870   4.210  3.2785  2.0185 -2.1582
  130OSM   C18F13983   3.432   4.819   4.141  0.3175  0.3850  0.1897
  130OSM   H18F13984   3.345   4.874   4.100 -1.6007 -1.9261  0.9314
  130OSM   H18G13985   3.402   4.783   4.242  1.6080 -1.1313  0.0853
  130OSM   H18H13986   3.459   4.734   4.074  0.0448  0.4717 -0.0363
  131OSM      N13987   1.795   2.548   1.422 -0.2706 -0.0918  0.5445
  131OSM    C1513988   1.801   2.699   1.403 -1.4536 -0.4942 -0.1182
  131OSM   H15A13989   1.816   2.750   1.496 -1.7180 -0.1250 -0.2752
  131OSM   H15B13990   1.712   2.732   1.351 -1.4609 -0.8782 -0.3609
  131OSM   H15C13991   1.882   2.711   1.332 -0.6233 -4.9411 -0.2573
  131OSM    C1413992   1.685   2.514   1.521  0.1287 -0.1889  0.3448
  131OSM   H14A13993   1.594   2.571   1.512 -0.6425 -1.4080  0.2254
  131OSM   H14B13994   1.717   2.534   1.622 -1.4432  0.5944  0.7194
  131OSM   H14C13995   1.666   2.408   1.518  1.2378 -0.3957  0.1623
  131OSM    C1313996   1.761   2.491   1.288 -0.0852 -0.0139  1.5020
  131OSM   H13A13997   1.751   2.383   1.294  0.7823 -0.0823  1.9862
  131OSM   H13B13998   1.843   2.499   1.217  1.5714  0.0358  3.3240
  131OSM   H13C13999   1.680   2.544   1.242  0.7938  1.2000  1.3058
  131OSM    C1214000   1.927   2.498   1.478 -0.4544 -0.5178  0.3885
  131OSM   H12A14001   1.940   2.532   1.580 -0.0993  0.2840  0.0920
  131OSM   H12B14002   2.002   2.553   1.423 -1.9192  0.3218 -0.8414
  131OSM    C1114003   1.955   2.346   1.471  0.5281 -0.2285 -0.2336
  131OSM   H11A14004   2.058   2.310   1.491  0.0937 -1.3457  0.0633
  131OSM   H11B14005   1.935   2.316   1.365  0.2149  0.3357 -0.3376
  131OSM      P14006   1.909   2.175   1.664 -0.1696  0.2290  0.7163
  131OSM    O1314007   1.801   2.143   1.754  0.6582  0.6034 -0.0790
  131OSM    O1414008   1.950   2.057   1.590 -0.4555  0.2650 -0.3814
  131OSM    O1114009   2.025   2.234   1.749  0.3346  0.0387  0.3909
  131OSM    O1214010   1.865   2.278   1.559 -0.1758  0.0718 -0.1978
  131OSM    C1S14011   2.010   2.357   1.819  0.2658  0.3649 -0.9521
  131OSM    H1S14012   1.904   2.390   1.809 -0.3968 -1.4999 -0.5012
  131OSM    H1T14013   2.063   2.435   1.762  1.3136 -0.4808 -1.1602
  131OSM     NF14014   2.030   2.483   2.036  0.6562  0.1998  0.3609
  131OSM    HNF14015   2.105   2.517   2.091  1.8651  0.6611 -1.4853
  131OSM    C2S14016   2.042   2.348   1.974  1.0798  0.1773  0.1953
  131OSM    H2S14017   1.962   2.280   2.011  0.9962 -0.4278 -1.0550
  131OSM    C3S14018   2.175   2.275   2.003  0.3505  0.4271 -1.3745
  131OSM    H3S14019   2.261   2.344   1.995  2.1656 -0.9591  3.0947
  131OSM     O314020   2.211   2.159   1.928 -0.5424  0.5410  0.1317
  131OSM    HO314021   2.143   2.162   1.861  0.0720  0.1953 -0.5124
  131OSM    C4S14022   2.176   2.244   2.150 -0.8811 -0.5854  0.1190
  131OSM    H4S14023   2.188   2.336   2.209 -3.4266 -1.4194  2.1537
  131OSM    C5S14024   2.155   2.119   2.213 -0.4181 -0.1199 -0.0800
  131OSM    H5S14025   2.123   2.034   2.151  0.2590  0.0280 -0.6490
  131OSM    C6S14026   2.162   2.089   2.360  0.2874  0.0478  0.4039
  131OSM    H6S14027   2.178   2.186   2.412 -1.7987  1.0386 -0.6894
  131OSM    H6T14028   2.255   2.030   2.371 -0.9324 -2.8562 -2.8089
  131OSM    C7S14029   2.022   2.044   2.409 -0.0326 -0.1628 -0.1194
  131OSM    H7S14030   1.998   1.951   2.353  3.0871 -0.7311 -0.7025
  131OSM    H7T14031   1.953   2.124   2.375 -0.2273 -0.3871 -0.2614
  131OSM    C8S14032   2.005   2.015   2.559 -0.2802 -0.4101 -0.0921
  131OSM    H8S14033   2.028   2.101   2.625  0.6086 -1.1229  0.5612
  131OSM    H8T14034   2.074   1.940   2.604  0.9708  1.6501  1.6132
  131OSM    C9S14035   1.862   1.977   2.600  0.9072  1.2069 -0.6764
  131OSM    H9S14036   1.838   1.924   2.506 -1.0786  0.5700  0.1378
  131OSM    H9T14037   1.792   2.062   2.612 -1.0465 -0.3931 -0.1647
  131OSM   C10S14038   1.852   1.884   2.729  0.1274  0.0466 -0.8867
  131OSM   H10S14039   1.937   1.813   2.743 -1.9840 -3.0841 -2.6292
  131OSM   H10T14040   1.754   1.834   2.716 -0.3085  0.0318  1.9377
  131OSM   C11S14041   1.846   1.964   2.856  0.0369  0.0295 -1.4353
  131OSM   H11S14042   1.775   2.044   2.828  1.6055  0.9356 -3.0250
  131OSM   H11T14043   1.943   2.015   2.876  1.3134 -2.6509 -0.2432
  131OSM   C12S14044   1.792   1.892   2.982  0.3023  0.1763 -0.2870
  131OSM   H12S14045   1.854   1.802   3.002  1.0719  0.7060 -0.2510
  131OSM   H12T14046   1.690   1.853   2.966  1.4603 -2.2821 -2.5178
  131OSM   C13S14047   1.795   1.982   3.106 -0.3661 -0.3989 -0.3952
  131OSM   H13S14048   1.747   2.081   3.099  1.4849  0.9061  2.9434
  131OSM   H13T14049   1.899   2.018   3.120 -0.1693 -0.2528 -2.0842
  131OSM   C14S14050   1.763   1.921   3.239  0.2469  0.5322 -0.7139
  131OSM   H14S14051   1.800   1.816   3.234 -0.4894  0.2364 -0.1336
  131OSM   H14T14052   1.655   1.926   3.260  0.3810  0.4922  0.0186
  131OSM   C15S14053   1.826   2.005   3.353  0.0973 -0.0217 -0.3561
  131OSM   H15S14054   1.786   2.108   3.342 -2.3014 -0.6566  1.4419
  131OSM   H15T14055   1.935   2.006   3.335  0.5200 -2.1203  1.5810
  131OSM   C16S14056   1.808   1.939   3.488  0.3405  0.3121  0.3513
  131OSM   H16S14057   1.863   1.842   3.491 -1.7767 -0.9118  2.1247
  131OSM   H16T14058   1.703   1.906   3.500  0.8645 -3.2227 -2.6835
  131OSM   C17S14059   1.869   2.008   3.607  0.2525  0.0402  0.0656
  131OSM   H17S14060   1.971   2.044   3.582  0.3503  0.5081  1.0734
  131OSM   H17T14061   1.876   1.935   3.690 -2.2920 -1.5871 -1.0321
  131OSM   C18S14062   1.792   2.129   3.651 -0.8818 -0.4983  0.5834
  131OSM   H18S14063   1.763   2.186   3.560  2.0434  1.1399  0.5517
  131OSM   H18T14064   1.864   2.197   3.701  0.5037 -0.3384 -1.5255
  131OSM   H18U14065   1.705   2.099   3.713 -1.0731  2.6783  2.0548
  131OSM    C1F14066   1.912   2.548   2.039  0.0907  0.5056  0.6162
  131OSM     OF14067   1.812   2.490   2.009  0.2476  0.3484 -0.0897
  131OSM    C2F14068   1.902   2.683   2.085  0.1742  0.3664  0.2623
  131OSM    H2F14069   1.857   2.741   2.001 -1.9955 -1.2479  0.2258
  131OSM    H2G14070   2.004   2.723   2.103  1.4951 -1.1839 -2.9688
  131OSM    C3F14071   1.815   2.688   2.214 -0.3265  0.4708  0.9208
  131OSM    H3F14072   1.728   2.623   2.188  0.6753 -0.2249 -0.9234
  131OSM    H3G14073   1.777   2.792   2.222 -2.3990 -0.3305  2.6151
  131OSM    C4F14074   1.881   2.643   2.350  0.1330 -0.6469 -0.5973
  131OSM    H4F14075   1.814   2.674   2.434  1.5371  0.3752  0.1890
  131OSM    H4G14076   1.979   2.692   2.365 -0.4251  0.0715  0.8815
  131OSM    C5F14077   1.906   2.494   2.362  0.4897  0.3263  0.7696
  131OSM    H5F14078   1.979   2.462   2.285  1.3365  2.6268  0.5286
  131OSM    H5G14079   1.808   2.445   2.340  2.1779 -2.8655 -0.1823
  131OSM    C6F14080   1.953   2.448   2.499  0.2979 -0.6569 -0.3721
  131OSM    H6F14081   2.051   2.492   2.526 -0.5838 -0.2274  2.4881
  131OSM    H6G14082   1.961   2.337   2.498  1.7919 -0.6010  1.1632
  131OSM    C7F14083   1.857   2.493   2.607 -0.2268 -0.6586  0.1944
  131OSM    H7F14084   1.750   2.497   2.576  0.0271  1.4493 -0.5763
  131OSM    H7G14085   1.880   2.597   2.639  1.4306 -0.7367 -0.6633
  131OSM    C8F14086   1.850   2.398   2.732 -0.2365 -0.2261 -0.0404
  131OSM    H8F14087   1.848   2.294   2.694  0.4987  0.3137 -1.6417
  131OSM    H8G14088   1.754   2.421   2.784 -0.7283  1.2160 -1.5056
  131OSM    C9F14089   1.975   2.404   2.810  0.6301 -0.0944  0.5032
  131OSM    H9F14090   2.065   2.430   2.753  1.0625 -0.0564  1.1890
  131OSM   C10F14091   1.981   2.387   2.944 -0.5999 -0.1499  0.3373
  131OSM   H10F14092   2.077   2.413   2.991 -0.7226  0.9517  0.0048
  131OSM   C11F14093   1.865   2.357   3.035  0.1523 -0.3403  0.1087
  131OSM   H11F14094   1.817   2.258   3.025  1.6183 -1.1088  0.4443
  131OSM   H11G14095   1.790   2.438   3.018  0.9458  0.3678 -0.1230
  131OSM   C12F14096   1.899   2.369   3.182  0.0315 -0.8818  0.2170
  131OSM   H12F14097   1.810   2.345   3.245  0.0846 -1.2292  0.1644
  131OSM   H12G14098   1.931   2.473   3.202  0.7254 -1.2998  1.3602
  131OSM   C13F14099   2.017   2.285   3.226 -0.3496 -0.0372 -0.2174
  131OSM   H13F14100   2.114   2.296   3.173  0.0011  0.2105  0.4769
  131OSM   H13G14101   1.984   2.180   3.214  1.6094 -0.8261  1.0057
  131OSM   C14F14102   2.043   2.309   3.379 -0.2632  0.8232  0.4349
  131OSM   H14F14103   1.955   2.274   3.438 -0.1387 -0.2370  0.0184
  131OSM   H14G14104   2.060   2.418   3.380 -0.7978  0.9093  0.4647
  131OSM   C15F14105   2.168   2.229   3.426 -0.2555 -0.1598 -0.2796
  131OSM   H15F14106   2.250   2.250   3.354 -0.4388 -0.0847 -0.4644
  131OSM   H15G14107   2.160   2.119   3.439 -2.0889 -0.1811 -1.3391
  131OSM   C16F14108   2.224   2.292   3.563  0.2982  0.7639 -0.5526
  131OSM   H16F14109   2.140   2.268   3.631  0.6993 -0.5535 -0.4928
  131OSM   H16G14110   2.222   2.402   3.549  3.4801  0.9719 -0.2591
  131OSM   C17F14111   2.345   2.232   3.625 -0.9883 -0.1208  0.0472
  131OSM   H17F14112   2.434   2.237   3.559 -0.7648 -0.0498  0.3528
  131OSM   H17G14113   2.323   2.125   3.648  0.9853 -0.9484 -1.6739
  131OSM   C18F14114   2.363   2.308   3.760 -0.4479 -0.0750 -0.0580
  131OSM   H18F14115   2.403   2.410   3.737  0.7546 -0.1148  1.6349
  131OSM   H18G14116   2.438   2.257   3.825  0.2058 -0.6762 -1.2443
  131OSM   H18H14117   2.270   2.310   3.820 -0.5174  1.0262 -0.1735
  132OSM      N14118   1.557   3.458   1.761 -0.2211  0.0531  0.0323
  132OSM    C1514119   1.671   3.547   1.795 -0.1953 -0.0269 -0.3797
  132OSM   H15A14120   1.721   3.588   1.709  1.7183 -2.2551 -0.4274
  132OSM   H15B14121   1.748   3.501   1.855  0.1589  1.0265 -0.0163
  132OSM   H15C14122   1.633   3.631   1.851 -1.5526 -0.3520 -0.7618
  132OSM    C1414123   1.491   3.500   1.638 -0.3421  0.7985  0.2331
  132OSM   H14A14124   1.557   3.523   1.556  1.4486  1.0061  1.6665
  132OSM   H14B14125   1.434   3.591   1.648 -1.2805  0.4291 -1.4264
  132OSM   H14C14126   1.420   3.423   1.611 -0.1070 -1.3588  4.7239
  132OSM    C1314127   1.613   3.317   1.727  0.4976 -0.1441  0.2072
  132OSM   H13A14128   1.537   3.248   1.693  1.3679 -1.3823  0.7118
  132OSM   H13B14129   1.656   3.270   1.814 -0.8909 -1.4997  0.2014
  132OSM   H13C14130   1.688   3.326   1.650 -1.5287 -1.0288 -2.0260
  132OSM    C1214131   1.459   3.454   1.880  0.3579 -0.1515  0.6846
  132OSM   H12A14132   1.513   3.410   1.963  1.3407 -2.2550 -0.9716
  132OSM   H12B14133   1.387   3.377   1.855  0.4671 -0.1604  0.3888
  132OSM    C1114134   1.394   3.583   1.906  0.1181  0.2445 -0.2483
  132OSM   H11A14135   1.463   3.670   1.898  0.7672 -0.2838 -0.4700
  132OSM   H11B14136   1.365   3.597   2.012  3.9543  1.8708  0.7560
  132OSM      P14137   1.154   3.515   1.825 -0.7496 -0.3227  0.0067
  132OSM    O1314138   1.079   3.538   1.700 -0.1073 -0.0014  0.3430
  132OSM    O1414139   1.179   3.373   1.851  0.1473  0.7954 -0.7508
  132OSM    O1114140   1.073   3.579   1.942  0.1365 -0.8077 -0.0559
  132OSM    O1214141   1.289   3.601   1.819  0.0062  0.7945  0.0354
  132OSM    C1S14142   0.937   3.529   1.958 -0.7381  0.2857 -0.4637
  132OSM    H1S14143   0.920   3.425   1.922  2.4160 -0.9203  1.1749
  132OSM    H1T14144   0.871   3.589   1.891  0.7103  0.3894 -1.8528
  132OSM     NF14145   0.751   3.490   2.117  0.2596 -0.4399  0.3577
  132OSM    HNF14146   0.675   3.554   2.129  0.8180  0.4216 -0.5747
  132OSM    C2S14147   0.887   3.549   2.108 -0.0025  0.7473  1.1621
  132OSM    H2S14148   0.949   3.482   2.170 -2.7573 -1.7819  1.4362
  132OSM    C3S14149   0.890   3.692   2.146 -0.6063  0.7578  0.0209
  132OSM    H3S14150   0.820   3.747   2.079 -0.4366  0.8019 -0.1204
  132OSM     O314151   1.021   3.751   2.127 -0.6260  0.2157 -0.5553
  132OSM    HO314152   1.075   3.683   2.085 -2.0016 -1.5027  0.3140
  132OSM    C4S14153   0.840   3.695   2.286  0.3446  0.1357 -0.3702
  132OSM    H4S14154   0.898   3.644   2.363  1.9838  3.1743  0.5821
  132OSM    C5S14155   0.756   3.791   2.328 -0.6517  0.2709  0.7227
  132OSM    H5S14156   0.734   3.874   2.260  1.1519 -0.0045 -0.2584
  132OSM    C6S14157   0.713   3.822   2.469  0.2029  0.5709 -0.7059
  132OSM    H6S14158   0.602   3.826   2.457  0.0045 -0.3006  0.6889
  132OSM    H6T14159   0.745   3.928   2.483  3.1091 -0.3326  0.1066
  132OSM    C7S14160   0.761   3.742   2.591  0.4927  0.2192  0.1045
  132OSM    H7S14161   0.777   3.634   2.572  0.0323 -0.2819  2.3706
  132OSM    H7T14162   0.690   3.763   2.673 -0.0863 -0.0258 -0.3308
  132OSM    C8S14163   0.892   3.798   2.647  0.1603  0.1918 -0.2522
  132OSM    H8S14164   0.892   3.904   2.680 -0.8889  0.9958 -2.6226
  132OSM    H8T14165   0.968   3.781   2.567 -0.8706 -0.2188 -1.1652
  132OSM    C9S14166   0.946   3.707   2.758 -0.4046 -0.2673 -0.5552
  132OSM    H9S14167   1.053   3.728   2.775  0.1181 -2.4248 -0.8368
  132OSM    H9T14168   0.947   3.599   2.729 -0.6734 -0.5641  0.4726
  132OSM   C10S14169   0.871   3.703   2.894 -0.7253 -0.4678  0.1349
  132OSM   H10S14170   0.774   3.652   2.876 -2.0843  2.0171 -0.0579
  132OSM   H10T14171   0.852   3.812   2.905 -0.9532 -0.6049  1.1597
  132OSM   C11S14172   0.945   3.645   3.004  0.3429 -0.0797 -0.2294
  132OSM   H11S14173   1.053   3.673   3.005  0.5633 -0.8736 -0.6220
  132OSM   H11T14174   0.961   3.536   2.990  3.0703  0.2660 -0.3744
  132OSM   C12S14175   0.869   3.695   3.135  0.2506  1.1192 -0.2440
  132OSM   H12S14176   0.761   3.673   3.122 -0.0807  1.9577  0.9925
  132OSM   H12T14177   0.883   3.802   3.158  0.3878  0.5242  2.8179
  132OSM   C13S14178   0.899   3.610   3.257  0.5225 -0.7474  0.3152
  132OSM   H13S14179   1.002   3.630   3.296  0.5843 -1.2619  0.4145
  132OSM   H13T14180   0.875   3.504   3.240 -0.4229 -0.9520  2.5661
  132OSM   C14S14181   0.823   3.663   3.391 -0.0190 -0.0593 -0.6140
  132OSM   H14S14182   0.714   3.670   3.375 -0.0075  1.2215 -0.2250
  132OSM   H14T14183   0.855   3.769   3.394 -0.5069  0.2277 -3.2464
  132OSM   C15S14184   0.844   3.575   3.524  0.0173 -0.6675 -0.1548
  132OSM   H15S14185   0.955   3.571   3.532  0.0668  1.4819  0.9976
  132OSM   H15T14186   0.799   3.474   3.518 -1.3705 -0.2675  2.3067
  132OSM   C16S14187   0.777   3.636   3.650  0.0254  0.0688  0.0261
  132OSM   H16S14188   0.666   3.635   3.644 -0.0939 -0.9902  1.7248
  132OSM   H16T14189   0.819   3.740   3.651  1.0826 -0.3288  1.6876
  132OSM   C17S14190   0.822   3.570   3.786 -0.3926 -0.5277  0.4182
  132OSM   H17S14191   0.926   3.533   3.779 -0.3063 -0.2249  0.0457
  132OSM   H17T14192   0.758   3.480   3.799  0.0185 -0.9853 -0.6145
  132OSM   C18S14193   0.810   3.665   3.909 -0.0940 -0.2383  0.7455
  132OSM   H18S14194   0.717   3.725   3.910  0.2792  0.5266 -2.2224
  132OSM   H18T14195   0.891   3.740   3.915  0.8765 -1.3004  1.3469
  132OSM   H18U14196   0.816   3.614   4.008 -1.1114  0.7394  1.3381
  132OSM    C1F14197   0.733   3.361   2.110 -0.6269  0.6513 -0.1836
  132OSM     OF14198   0.827   3.280   2.090  0.1165 -0.2515 -0.2536
  132OSM    C2F14199   0.596   3.303   2.128  0.5188 -0.0190 -0.2367
  132OSM    H2F14200   0.568   3.251   2.034  0.2622 -0.5756  0.1461
  132OSM    H2G14201   0.526   3.384   2.158 -1.0494 -0.4460 -2.5387
  132OSM    C3F14202   0.597   3.193   2.242 -0.7831 -1.1246  0.2304
  132OSM    H3F14203   0.656   3.224   2.331  0.0882 -0.7347 -0.4690
  132OSM    H3G14204   0.646   3.111   2.186  0.5035  1.8306 -3.4807
  132OSM    C4F14205   0.458   3.158   2.283  0.7820  0.0203  0.2122
  132OSM    H4F14206   0.408   3.149   2.185  0.6087 -0.7403  0.3625
  132OSM    H4G14207   0.405   3.235   2.344 -0.1807 -0.5760  0.1608
  132OSM    C5F14208   0.452   3.017   2.348 -0.0373 -0.0838  0.7584
  132OSM    H5F14209   0.510   2.950   2.281 -2.3758  0.7116 -2.2726
  132OSM    H5G14210   0.347   2.980   2.347  0.3106 -1.0701  0.3357
  132OSM    C6F14211   0.492   3.023   2.499  0.6456 -0.2285 -0.2089
  132OSM    H6F14212   0.407   3.088   2.527  1.8742  1.3300  0.0410
  132OSM    H6G14213   0.583   3.085   2.510  0.5129 -0.0243 -0.2619
  132OSM    C7F14214   0.498   2.891   2.559 -0.3039  0.7980 -0.2488
  132OSM    H7F14215   0.579   2.830   2.514 -0.9890 -0.0539 -0.3396
  132OSM    H7G14216   0.407   2.833   2.532  0.5123 -0.3664 -0.5683
  132OSM    C8F14217   0.507   2.894   2.712 -0.2131 -0.0381 -0.5998
  132OSM    H8F14218   0.428   2.963   2.748  1.7191  1.1430  1.5546
  132OSM    H8G14219   0.604   2.935   2.747  0.2807 -2.0662  0.5649
  132OSM    C9F14220   0.508   2.755   2.770 -0.4460 -0.0951 -0.0902
  132OSM    H9F14221   0.586   2.693   2.723  1.2674  0.1002  2.3290
  132OSM   C10F14222   0.424   2.715   2.871 -0.4612 -0.2099  0.0804
  132OSM   H10F14223   0.421   2.613   2.914 -1.5006 -0.1860  0.0834
  132OSM   C11F14224   0.309   2.803   2.925 -0.0912  0.4675 -1.0361
  132OSM   H11F14225   0.225   2.736   2.955  2.1214 -1.2601  1.8832
  132OSM   H11G14226   0.268   2.882   2.859 -0.4756  0.3466 -0.9450
  132OSM   C12F14227   0.375   2.869   3.052  0.0481 -0.1165  0.0674
  132OSM   H12F14228   0.298   2.945   3.078 -1.1898 -0.9125 -1.1436
  132OSM   H12G14229   0.459   2.935   3.022 -0.3045  2.9920  4.7906
  132OSM   C13F14230   0.389   2.775   3.169  0.5330 -0.4020 -0.3437
  132OSM   H13F14231   0.467   2.696   3.171 -1.8715 -2.9313  0.7904
  132OSM   H13G14232   0.295   2.716   3.180  0.8434 -0.9334 -0.5030
  132OSM   C14F14233   0.415   2.871   3.289  0.6835 -0.0397 -0.2673
  132OSM   H14F14234   0.357   2.965   3.282  0.6572 -0.0413 -0.0675
  132OSM   H14G14235   0.519   2.910   3.288 -0.0400  2.0165 -0.4577
  132OSM   C15F14236   0.380   2.796   3.420 -0.6359 -0.1905 -0.5334
  132OSM   H15F14237   0.443   2.704   3.425 -1.1165 -0.4826  0.2644
  132OSM   H15G14238   0.276   2.759   3.417 -0.3422 -1.3215  1.4298
  132OSM   C16F14239   0.416   2.886   3.545  0.1398 -0.4657  0.9812
  132OSM   H16F14240   0.369   2.984   3.521 -1.7643 -0.7639  3.1776
  132OSM   H16G14241   0.525   2.900   3.559  0.1085  3.1887 -1.0955
  132OSM   C17F14242   0.348   2.838   3.678  0.2055 -0.2905  0.5522
  132OSM   H17F14243   0.425   2.779   3.733  0.7674  0.4941  0.6224
  132OSM   H17G14244   0.264   2.768   3.655 -0.2330  1.2782 -3.5678
  132OSM   C18F14245   0.299   2.950   3.773 -0.6060 -0.0591  0.1754
  132OSM   H18F14246   0.195   2.979   3.748 -0.2866  0.8600 -0.1337
  132OSM   H18G14247   0.370   3.035   3.772  0.0459 -0.5909 -0.9970
  132OSM   H18H14248   0.306   2.913   3.877 -1.6328 -0.7143  0.0250
  133OSM      N14249   5.818   2.929   1.888 -0.2889  0.4406  0.3758
  133OSM    C1514250   5.782   3.058   1.813  0.4398  0.0247  0.1439
  133OSM   H15A14251   5.842   3.066   1.723  0.2311 -2.6836 -0.3149
  133OSM   H15B14252   5.808   3.142   1.876 -0.2880  0.3464  0.0214
  133OSM   H15C14253   5.682   3.047   1.773  0.9819 -2.5684 -0.6777
  133OSM    C1414254   5.717   2.906   1.991 -0.0637 -0.2851 -0.1073
  133OSM   H14A14255   5.734   2.825   2.060 -2.3052  0.2573  1.1538
  133OSM   H14B14256   5.630   2.871   1.937  0.2116  1.3338 -1.7061
  133OSM   H14C14257   5.689   2.998   2.038  1.1362 -0.5248  1.1381
  133OSM    C1314258   5.816   2.815   1.788 -0.6500  0.2452 -0.5822
  133OSM   H13A14259   5.716   2.801   1.750 -1.6971 -0.3678  2.1642
  133OSM   H13B14260   5.850   2.722   1.831 -0.4332  1.0413  1.0373
  133OSM   H13C14261   5.864   2.835   1.693 -1.1741  1.8488 -0.5503
  133OSM    C1214262   5.951   2.934   1.959 -0.1981 -0.0144 -1.2241
  133OSM   H12A14263   5.955   3.018   2.027  0.7175 -1.1933  0.2498
  133OSM   H12B14264   6.043   2.937   1.903  0.6463  0.8115  0.1379
  133OSM    C1114265   5.982   2.819   2.056  0.0385 -0.8743 -0.7065
  133OSM   H11A14266   5.920   2.847   2.143  0.7944  2.2599 -1.0521
  133OSM   H11B14267   6.089   2.820   2.086 -0.8873 -3.9401  3.5306
  133OSM      P14268   5.917   2.571   2.082  0.2480 -0.8112 -0.4780
  133OSM    O1314269   5.775   2.586   2.118  0.2871  0.0527 -0.7782
  133OSM    O1414270   5.953   2.447   2.022 -0.4235  0.1297  0.0317
  133OSM    O1114271   6.008   2.582   2.211  0.3424 -0.3502  0.0988
  133OSM    O1214272   5.968   2.689   1.999  0.2462 -0.4904  0.0998
  133OSM    C1S14273   5.960   2.631   2.332 -0.0205  0.4540 -0.0255
  133OSM    H1S14274   5.854   2.603   2.350  0.2593 -0.9241 -0.4692
  133OSM    H1T14275   5.968   2.742   2.339 -0.1719  0.4136  1.1390
  133OSM     NF14276   5.969   2.569   2.578 -0.5584 -0.9174 -0.8400
  133OSM    HNF14277   6.007   2.640   2.636  0.2897 -2.5918  0.7715
  133OSM    C2S14278   6.042   2.559   2.451 -0.1692 -0.1649 -0.3466
  133OSM    H2S14279   6.043   2.450   2.429 -0.4164  0.2050 -2.4434
  133OSM    C3S14280   6.189   2.613   2.445  0.3785  0.1729 -0.1439
  133OSM    H3S14281   6.187   2.715   2.489 -1.9451 -1.6705  4.7367
  133OSM     O314282   6.243   2.626   2.316  0.0367  0.0964  0.0791
  133OSM    HO314283   6.164   2.609   2.265  0.5622 -1.3469 -0.3021
  133OSM    C4S14284   6.276   2.533   2.535  0.1659 -0.2190 -0.5300
  133OSM    H4S14285   6.245   2.542   2.640 -2.7928  1.1774 -1.3954
  133OSM    C5S14286   6.373   2.445   2.493  0.5384 -0.1737  0.5273
  133OSM    H5S14287   6.376   2.425   2.384  3.8626 -2.7263  0.9548
  133OSM    C6S14288   6.455   2.358   2.581 -0.1875 -0.5216  0.2429
  133OSM    H6S14289   6.562   2.367   2.553 -0.1630  2.0453  0.9613
  133OSM    H6T14290   6.425   2.252   2.563 -2.9882 -0.2419  2.4916
  133OSM    C7S14291   6.440   2.392   2.735 -0.4539  0.0899  0.0762
  133OSM    H7S14292   6.340   2.360   2.771 -1.0166 -1.6851 -2.8105
  133OSM    H7T14293   6.454   2.502   2.748  0.4785  0.0520 -0.4883
  133OSM    C8S14294   6.547   2.326   2.830  0.3136 -0.0168  0.2064
  133OSM    H8S14295   6.648   2.326   2.785  0.3116 -0.5651  0.1966
  133OSM    H8T14296   6.523   2.217   2.832  0.3612 -0.0254  0.3978
  133OSM    C9S14297   6.558   2.373   2.965  0.3915 -0.7662  0.0181
  133OSM    H9S14298   6.590   2.479   2.968  3.5735 -1.6346  1.8795
  133OSM    H9T14299   6.643   2.323   3.016 -0.3920 -1.9704  0.1794
  133OSM   C10S14300   6.429   2.361   3.049  0.2686  0.2520 -0.4161
  133OSM   H10S14301   6.405   2.253   3.047  3.0155 -0.5444  1.7719
  133OSM   H10T14302   6.348   2.422   3.003 -1.6579  1.2781  3.8510
  133OSM   C11S14303   6.440   2.422   3.188 -0.4906  0.0492  0.2402
  133OSM   H11S14304   6.338   2.417   3.231 -0.7076 -4.0058 -0.3190
  133OSM   H11T14305   6.465   2.529   3.176 -0.0918 -0.1764 -1.1354
  133OSM   C12S14306   6.555   2.355   3.266 -0.0929 -0.0805 -0.4433
  133OSM   H12S14307   6.650   2.392   3.223  0.3676  0.1837  0.7480
  133OSM   H12T14308   6.548   2.245   3.262 -0.7195 -0.0915  0.5284
  133OSM   C13S14309   6.550   2.407   3.413 -0.2442  0.5283  0.3033
  133OSM   H13S14310   6.522   2.514   3.419 -1.4766  0.1145  3.4612
  133OSM   H13T14311   6.655   2.393   3.446  0.3129  1.9459 -0.7499
  133OSM   C14S14312   6.444   2.330   3.502 -0.5114  0.3640 -0.4544
  133OSM   H14S14313   6.487   2.234   3.536  0.1814 -0.5058 -3.4992
  133OSM   H14T14314   6.364   2.292   3.435 -0.2379 -0.5811 -0.2602
  133OSM   C15S14315   6.382   2.423   3.615  0.7035  0.2413  0.0392
  133OSM   H15S14316   6.311   2.497   3.573  0.5330  0.0844  0.0474
  133OSM   H15T14317   6.459   2.481   3.671  2.1145 -0.0994 -1.4544
  133OSM   C16S14318   6.303   2.334   3.709  0.0601 -0.0855  0.1412
  133OSM   H16S14319   6.363   2.245   3.736  2.2031  0.5625 -2.1576
  133OSM   H16T14320   6.216   2.299   3.650  0.2666 -0.6421  0.1658
  133OSM   C17S14321   6.261   2.411   3.833 -0.4047  0.0804  0.1201
  133OSM   H17S14322   6.202   2.500   3.800  2.9451  2.2262 -0.6368
  133OSM   H17T14323   6.347   2.446   3.895  0.0536 -0.9700  0.0905
  133OSM   C18S14324   6.175   2.315   3.921 -0.0877  0.0107  0.0445
  133OSM   H18S14325   6.212   2.211   3.923  0.2816  0.1309 -0.4837
  133OSM   H18T14326   6.070   2.304   3.885 -1.3166 -0.7910  3.4485
  133OSM   H18U14327   6.160   2.355   4.024  0.6102 -0.3873  0.3082
  133OSM    C1F14328   5.851   2.518   2.603 -0.0697  0.5236 -0.1244
  133OSM     OF14329   5.818   2.423   2.530 -0.4665  0.2537 -0.1900
  133OSM    C2F14330   5.772   2.572   2.705  0.4610 -0.8807  0.2223
  133OSM    H2F14331   5.717   2.663   2.673 -1.9039 -1.7679  1.5026
  133OSM    H2G14332   5.841   2.607   2.785  1.1623  1.2611 -1.2419
  133OSM    C3F14333   5.684   2.464   2.772 -0.5091 -0.0831  0.3796
  133OSM    H3F14334   5.740   2.369   2.788  1.7844  1.0069 -0.7003
  133OSM    H3G14335   5.605   2.434   2.700 -0.9248 -0.8002  1.1173
  133OSM    C4F14336   5.624   2.505   2.907 -0.2226 -0.2003  0.5901
  133OSM    H4F14337   5.563   2.424   2.951 -0.7541  0.4512  1.0789
  133OSM    H4G14338   5.562   2.595   2.890 -2.0754 -1.8090 -1.8431
  133OSM    C5F14339   5.720   2.536   3.024  0.2119 -0.3424 -0.0932
  133OSM    H5F14340   5.767   2.635   3.007 -2.6709  0.7858 -2.6193
  133OSM    H5G14341   5.798   2.457   3.028 -0.1923 -0.6965  1.5385
  133OSM    C6F14342   5.643   2.535   3.154 -0.4305 -0.3103  0.7274
  133OSM    H6F14343   5.579   2.445   3.166 -0.1692 -0.4619  1.0434
  133OSM    H6G14344   5.571   2.618   3.153 -1.8183 -1.4531 -1.6893
  133OSM    C7F14345   5.730   2.561   3.285 -0.7635  0.3573 -0.0809
  133OSM    H7F14346   5.780   2.660   3.274 -1.3311  0.4672 -2.1372
  133OSM    H7G14347   5.814   2.491   3.303  1.9064  3.4238  0.4836
  133OSM    C8F14348   5.640   2.554   3.412  0.0032  0.2967 -0.1304
  133OSM    H8F14349   5.610   2.448   3.419  1.4577 -0.1992 -0.9863
  133OSM    H8G14350   5.548   2.616   3.406 -0.7786 -0.5889  2.0161
  133OSM    C9F14351   5.716   2.589   3.536  0.0081  0.2495 -0.0239
  133OSM    H9F14352   5.766   2.687   3.527 -0.8902  0.7947  0.7749
  133OSM   C10F14353   5.742   2.513   3.649  0.6185 -0.6743  0.0592
  133OSM   H10F14354   5.804   2.562   3.726 -0.6950 -0.8370  1.2552
  133OSM   C11F14355   5.696   2.373   3.677  0.3632 -0.2369 -0.1533
  133OSM   H11F14356   5.687   2.316   3.582  0.4576  0.2257 -0.4438
  133OSM   H11G14357   5.601   2.369   3.736 -0.4512 -0.6583 -1.4508
  133OSM   C12F14358   5.803   2.311   3.765  0.8917 -0.2380  0.0586
  133OSM   H12F14359   5.859   2.392   3.816  2.0738 -0.3040 -1.0812
  133OSM   H12G14360   5.876   2.246   3.713  0.5684 -0.5207 -0.0473
  133OSM   C13F14361   5.736   2.219   3.864 -0.0513 -0.6294 -0.0041
  133OSM   H13F14362   5.694   2.144   3.794  0.2861 -0.8141 -0.0075
  133OSM   H13G14363   5.650   2.269   3.915  0.2828 -1.1344  1.0957
  133OSM   C14F14364   5.834   2.162   3.973  0.5134 -0.0636  0.1911
  133OSM   H14F14365   5.861   2.240   4.047 -0.0613  0.7083 -0.4024
  133OSM   H14G14366   5.928   2.124   3.928  0.9358  1.7964 -0.5545
  133OSM   C15F14367   5.774   2.047   4.054 -0.0101  0.9319 -0.9713
  133OSM   H15F14368   5.852   2.022   4.130 -0.1580  0.8829 -0.8364
  133OSM   H15G14369   5.765   1.955   3.992  0.4413  0.4987 -0.4015
  133OSM   C16F14370   5.630   2.077   4.110  0.5065  0.8613 -0.2535
  133OSM   H16F14371   5.572   2.103   4.019 -0.8121  0.9915  0.5921
  133OSM   H16G14372   5.637   2.163   4.180 -1.0333  0.1211  0.8722
  133OSM   C17F14373   5.568   1.955   4.185  0.5049 -0.7224  0.1608
  133OSM   H17F14374   5.470   1.991   4.225 -0.3818 -0.4629 -2.0873
  133OSM   H17G14375   5.631   1.906   4.262  0.8376 -1.9622 -0.8715
  133OSM   C18F14376   5.528   1.842   4.089  0.4382  0.4928 -0.1114
  133OSM   H18F14377   5.616   1.791   4.044  2.9821  4.9879 -0.7429
  133OSM   H18G14378   5.463   1.884   4.009  1.4446  2.0376 -0.1629
  133OSM   H18H14379   5.469   1.769   4.149  1.2375 -0.5953 -0.6072
  134OSM      N14380   5.265   5.835   2.088 -0.0144  0.5737  0.2354
  134OSM    C1514381   5.409   5.799   2.093  0.2842 -0.4452 -0.4683
  134OSM   H15A14382   5.428   5.705   2.142 -1.1586 -0.9536 -0.8586
  134OSM   H15B14383   5.463   5.872   2.152 -2.5866  1.7146 -0.2794
  134OSM   H15C14384   5.453   5.782   1.996 -0.1869 -0.5121 -0.6707
  134OSM    C1414385   5.214   5.848   2.229  0.6629 -0.3284 -0.1461
  134OSM   H14A14386   5.217   5.755   2.284 -1.7406  0.7111  1.9654
  134OSM   H14B14387   5.108   5.868   2.230  1.0073  1.6453 -0.1347
  134OSM   H14C14388   5.259   5.927   2.286 -0.3154  0.5190 -0.5203
  134OSM    C1314389   5.252   5.971   2.031  0.0868  0.7695 -0.6814
  134OSM   H13A14390   5.269   5.966   1.925 -2.7468  2.3869 -1.3029
  134OSM   H13B14391   5.313   6.041   2.086 -1.9782  0.6953  1.9259
  134OSM   H13C14392   5.152   6.009   2.045 -0.3458 -0.1619 -1.1586
  134OSM    C1214393   5.187   5.727   2.022 -0.2021  0.0276 -0.6933
  134OSM   H12A14394   5.181   5.636   2.081  0.4817  0.4557  0.0662
  134OSM   H12B14395   5.246   5.709   1.933 -1.7564  1.7338 -2.1476
  134OSM    C1114396   5.045   5.768   1.987 -0.4245  0.3333  0.1294
  134OSM   H11A14397   4.992   5.686   1.934  0.5536 -0.1657 -0.1015
  134OSM   H11B14398   5.055   5.851   1.914  0.8307 -0.9544 -1.2251
  134OSM      P14399   4.825   5.838   2.111  0.3380 -0.2515  0.4053
  134OSM    O1314400   4.801   5.952   2.022 -0.3182  0.5284  0.1120
  134OSM    O1414401   4.738   5.720   2.096 -0.7248 -0.2467  0.2944
  134OSM    O1114402   4.813   5.893   2.256  0.7408  0.2743  0.1182
  134OSM    O1214403   4.971   5.799   2.099 -0.3236 -0.1363 -0.4195
  134OSM    C1S14404   4.690   5.943   2.312 -0.2136  0.2633  0.3306
  134OSM    H1S14405   4.618   5.859   2.321 -0.9556  0.9657  1.1578
  134OSM    H1T14406   4.645   6.007   2.232 -0.7893 -0.8924 -0.3027
  134OSM     NF14407   4.569   6.067   2.511 -0.1758 -0.5717  0.8378
  134OSM    HNF14408   4.543   6.162   2.494  0.7702 -0.4572 -0.0677
  134OSM    C2S14409   4.700   6.016   2.457  0.0516  0.4122  0.2930
  134OSM    H2S14410   4.743   5.950   2.535  0.7130 -1.2109 -1.3903
  134OSM    C3S14411   4.810   6.124   2.444  0.7440 -0.3430  0.6114
  134OSM    H3S14412   4.758   6.204   2.388  1.3783  1.0625  1.9491
  134OSM     O314413   4.926   6.080   2.375 -0.1986  0.9005  0.2410
  134OSM    HO314414   4.896   6.005   2.323 -1.4563  1.1327  0.6060
  134OSM    C4S14415   4.846   6.185   2.577 -0.3516  0.1788 -0.5942
  134OSM    H4S14416   4.782   6.264   2.620  0.0092 -0.1942  0.6877
  134OSM    C5S14417   4.956   6.148   2.648 -0.1953  0.3498 -0.7712
  134OSM    H5S14418   5.028   6.077   2.606 -0.0505 -0.1654  0.3157
  134OSM    C6S14419   4.997   6.212   2.781 -0.1453  0.2934  0.7492
  134OSM    H6S14420   4.910   6.275   2.811 -0.6336  1.4727 -2.7123
  134OSM    H6T14421   5.085   6.278   2.771 -0.4727  0.5654 -0.4155
  134OSM    C7S14422   5.016   6.105   2.893 -0.8007  0.4176  0.5465
  134OSM    H7S14423   5.095   6.030   2.871  0.5763  1.7575  0.7797
  134OSM    H7T14424   4.925   6.043   2.902  0.5217 -2.2141 -2.2184
  134OSM    C8S14425   5.052   6.152   3.036  0.4815 -0.4147  0.1796
  134OSM    H8S14426   4.989   6.239   3.062 -3.7440 -3.1770  0.2129
  134OSM    H8T14427   5.157   6.190   3.036 -0.1165  1.3814  2.1643
  134OSM    C9S14428   5.026   6.047   3.142  0.0215  0.0361  0.2857
  134OSM    H9S14429   5.092   5.960   3.123 -0.5730  0.0318 -2.1337
  134OSM    H9T14430   4.921   6.013   3.131  0.8039 -1.8190 -2.3799
  134OSM   C10S14431   5.071   6.103   3.277 -0.4994  0.2081 -0.3330
  134OSM   H10S14432   5.023   6.202   3.291 -4.4634 -1.1072 -2.7493
  134OSM   H10T14433   5.179   6.122   3.289 -0.7704  0.4411  2.3336
  134OSM   C11S14434   5.028   6.012   3.388  0.1821 -0.1949  0.0372
  134OSM   H11S14435   5.077   5.914   3.368  0.1503 -0.5276  1.4793
  134OSM   H11T14436   4.919   5.998   3.378  0.2367 -3.6528  2.6725
  134OSM   C12S14437   5.063   6.069   3.523  0.4476  0.1726 -0.1876
  134OSM   H12S14438   4.983   6.137   3.561 -0.7399 -1.9981  1.4600
  134OSM   H12T14439   5.161   6.121   3.526  0.7908 -0.3117 -1.9033
  134OSM   C13S14440   5.080   5.962   3.632  0.3646 -0.2568  0.4097
  134OSM   H13S14441   5.180   5.921   3.608 -0.2597 -1.9066  0.5056
  134OSM   H13T14442   5.002   5.883   3.624 -0.0960  0.3118 -1.2103
  134OSM   C14S14443   5.080   6.015   3.777 -0.5102 -0.2945  0.8563
  134OSM   H14S14444   5.079   5.924   3.840  1.7495 -1.4559 -0.6408
  134OSM   H14T14445   4.985   6.071   3.789  0.0632  0.5809  1.3830
  134OSM   C15S14446   5.213   6.084   3.821  0.0809  0.0162  0.5935
  134OSM   H15S14447   5.239   6.169   3.754  0.2918 -0.1130  0.5102
  134OSM   H15T14448   5.301   6.018   3.807  0.6458  0.1316  3.1131
  134OSM   C16S14449   5.214   6.118   3.973 -0.6074  0.4026 -0.3431
  134OSM   H16S14450   5.303   6.179   4.002 -1.8349  1.6856  0.8724
  134OSM   H16T14451   5.221   6.019   4.022  1.4571  0.2915 -0.7590
  134OSM   C17S14452   5.090   6.200   4.017  0.3769 -0.7139 -0.4010
  134OSM   H17S14453   5.004   6.131   4.004 -0.9689  0.7433  0.4427
  134OSM   H17T14454   5.074   6.278   3.939  1.3910 -0.3844 -0.2893
  134OSM   C18S14455   5.087   6.261   4.160  0.0025 -0.7202  0.2240
  134OSM   H18S14456   5.000   6.330   4.161 -0.1137 -0.7235 -2.4212
  134OSM   H18T14457   5.178   6.318   4.187 -0.3151 -0.8099  1.5152
  134OSM   H18U14458   5.077   6.184   4.239  0.0169 -0.7101  0.2350
  134OSM    C1F14459   4.468   5.990   2.554  1.0774  1.0854 -0.2768
  134OSM     OF14460   4.473   5.865   2.552 -0.1961 -0.1359  0.6847
  134OSM    C2F14461   4.346   6.063   2.598 -0.0794 -0.2223  0.0710
  134OSM    H2F14462   4.313   6.142   2.528  0.0750 -1.9678 -2.1048
  134OSM    H2G14463   4.378   6.108   2.694 -0.2467  1.0752 -0.4678
  134OSM    C3F14464   4.233   5.967   2.634  0.2986 -0.4751  0.4636
  134OSM    H3F14465   4.268   5.881   2.695  0.9186  0.0915  0.9136
  134OSM    H3G14466   4.209   5.925   2.533  1.8243  0.8549 -0.4895
  134OSM    C4F14467   4.113   6.040   2.693  0.4052 -0.4247 -0.1488
  134OSM    H4F14468   4.020   5.981   2.681 -0.7602  0.9305  1.6325
  134OSM    H4G14469   4.094   6.134   2.636 -0.0058  0.6164  1.6329
  134OSM    C5F14470   4.114   6.080   2.844 -0.6444  0.2104  0.0948
  134OSM    H5F14471   4.207   6.139   2.856 -1.6549  2.5715 -2.5093
  134OSM    H5G14472   4.118   5.984   2.899  1.2810 -1.1349 -2.2318
  134OSM    C6F14473   3.990   6.166   2.882 -0.4309  1.3965  0.0381
  134OSM    H6F14474   3.910   6.088   2.882  1.3828 -0.5794  0.6640
  134OSM    H6G14475   3.959   6.246   2.811 -2.0060  1.0434  0.2954
  134OSM    C7F14476   3.994   6.211   3.027 -0.4827 -0.6563 -0.5464
  134OSM    H7F14477   4.079   6.278   3.051 -1.8253  1.3335 -1.1477
  134OSM    H7G14478   3.984   6.107   3.067 -0.8283 -0.3622  0.1646
  134OSM    C8F14479   3.870   6.284   3.070 -0.1562  0.6381 -0.5148
  134OSM    H8F14480   3.867   6.290   3.181 -0.7140  1.3562 -0.5559
  134OSM    H8G14481   3.788   6.213   3.048 -1.0745  0.5551  2.6739
  134OSM    C9F14482   3.858   6.425   3.025  0.1690 -0.1040 -0.3521
  134OSM    H9F14483   3.858   6.437   2.916  2.0759  2.3535 -0.1678
  134OSM   C10F14484   3.819   6.533   3.098 -0.4148 -0.0780  0.0823
  134OSM   H10F14485   3.819   6.632   3.048  1.8136 -0.6108 -1.1360
  134OSM   C11F14486   3.804   6.546   3.243  0.5339 -0.0083 -0.3209
  134OSM   H11F14487   3.838   6.646   3.278  0.0125 -0.3712  1.3365
  134OSM   H11G14488   3.868   6.475   3.300 -0.8058 -0.0199  1.2564
  134OSM   C12F14489   3.654   6.539   3.292  0.3732  0.1976  0.0712
  134OSM   H12F14490   3.622   6.433   3.296 -1.5673  0.6631 -1.5858
  134OSM   H12G14491   3.588   6.587   3.216 -0.6732 -1.8392 -0.3680
  134OSM   C13F14492   3.632   6.601   3.433 -0.7521  0.5716 -0.3159
  134OSM   H13F14493   3.526   6.619   3.461 -0.6120  1.6229 -0.4025
  134OSM   H13G14494   3.682   6.700   3.432  0.3881  0.0110 -0.4158
  134OSM   C14F14495   3.701   6.516   3.547  0.0208 -0.1405  0.3010
  134OSM   H14F14496   3.798   6.491   3.498 -0.0810  0.0438  0.0023
  134OSM   H14G14497   3.651   6.419   3.564  0.6572 -0.4184  0.6328
  134OSM   C15F14498   3.718   6.599   3.675 -0.0384 -0.1597  0.0184
  134OSM   H15F14499   3.618   6.601   3.723  0.2650  1.3543  0.6539
  134OSM   H15G14500   3.747   6.704   3.653  0.9824  0.1857  2.7092
  134OSM   C16F14501   3.816   6.542   3.780  0.0025  0.0049  0.6395
  134OSM   H16F14502   3.917   6.524   3.738  0.3492  0.0870  1.4307
  134OSM   H16G14503   3.785   6.437   3.800 -1.6519 -0.0617 -1.7973
  134OSM   C17F14504   3.846   6.620   3.904 -0.1336 -0.1203 -0.2667
  134OSM   H17F14505   3.929   6.694   3.902  0.8357 -1.1501  0.7439
  134OSM   H17G14506   3.893   6.541   3.966  0.7594  0.2912 -0.4011
  134OSM   C18F14507   3.720   6.682   3.965  0.5804 -0.3205 -0.9172
  134OSM   H18F14508   3.738   6.721   4.067 -1.3206 -1.5297 -0.0801
  134OSM   H18G14509   3.643   6.604   3.981  1.9808 -1.5381  0.2832
  134OSM   H18H14510   3.688   6.773   3.910  0.4563 -0.7765 -1.6268
  135OSM      N14511   0.143   3.860   1.750 -0.5246 -0.4093 -0.0156
  135OSM    C1514512   0.202   3.722   1.793  0.3340  0.7348  0.1168
  135OSM   H15A14513   0.278   3.743   1.866 -2.3854  2.0705  2.7953
  135OSM   H15B14514   0.251   3.675   1.709  0.3505  1.4409 -0.2781
  135OSM   H15C14515   0.129   3.650   1.828  2.7168 -1.5086  0.7748
  135OSM    C1414516   0.250   3.919   1.659 -0.6062  0.0996  0.3124
  135OSM   H14A14517   0.257   3.851   1.575  0.9862 -1.1645  1.4225
  135OSM   H14B14518   0.351   3.924   1.697  0.3382 -0.6210 -1.9643
  135OSM   H14C14519   0.220   4.018   1.626  1.3863  0.2497 -1.2085
  135OSM    C1314520   0.020   3.843   1.672  0.5285 -0.1499  0.1121
  135OSM   H13A14521  -0.070   3.829   1.730 -1.1199  0.8638 -2.0490
  135OSM   H13B14522   0.027   3.754   1.611 -0.0061  0.3717 -0.7352
  135OSM   H13C14523  -0.000   3.930   1.611 -1.4377  0.5588  1.6737
  135OSM    C1214524   0.134   3.943   1.871  1.0099  0.2357  0.8526
  135OSM   H12A14525   0.104   4.038   1.832  0.8671 -0.6575 -1.3262
  135OSM   H12B14526   0.230   3.968   1.914  1.0177  0.3862  0.7486
  135OSM    C1114527   0.028   3.896   1.978  0.5145 -0.7873  0.2835
  135OSM   H11A14528   0.047   3.966   2.062 -0.6234 -0.6060  0.4137
  135OSM   H11B14529   0.061   3.794   2.006  2.5000 -0.1409  0.4413
  135OSM      P14530  -0.178   4.048   1.897 -0.0735 -0.0786 -0.0728
  135OSM    O1314531  -0.072   4.151   1.874  0.1140  0.2926  0.6206
  135OSM    O1414532  -0.275   4.026   1.788  0.4513 -0.2754 -0.1509
  135OSM    O1114533  -0.257   4.084   2.025 -0.2769 -0.2823 -1.2194
  135OSM    O1214534  -0.109   3.906   1.932 -0.1317  0.9876 -0.4722
  135OSM    C1S14535  -0.222   4.053   2.162  0.7649  0.2221  0.2986
  135OSM    H1S14536  -0.196   3.945   2.166 -1.7240 -0.4759 -0.4063
  135OSM    H1T14537  -0.304   4.064   2.236  1.0755 -1.5223  0.9426
  135OSM     NF14538  -0.072   4.106   2.356 -0.0633 -0.2890  0.1438
  135OSM    HNF14539  -0.106   4.166   2.427  0.4063 -1.3250  1.2981
  135OSM    C2S14540  -0.106   4.142   2.218  0.3715  0.6190 -0.3203
  135OSM    H2S14541  -0.019   4.125   2.151  1.1452  4.5948 -0.6003
  135OSM    C3S14542  -0.144   4.294   2.206  0.5179  0.2369  0.6552
  135OSM    H3S14543  -0.223   4.327   2.277 -0.3291 -0.6568  0.1476
  135OSM     O314544  -0.181   4.333   2.069 -0.0737 -0.3467 -0.2609
  135OSM    HO314545  -0.209   4.249   2.031 -2.5823  1.3739 -2.5474
  135OSM    C4S14546  -0.029   4.384   2.234 -0.1884  0.0619 -0.3890
  135OSM    H4S14547   0.054   4.384   2.162  0.4642  1.2666  0.3362
  135OSM    C5S14548  -0.010   4.459   2.346 -0.2314  0.3863  0.1526
  135OSM    H5S14549  -0.075   4.446   2.433 -0.2613 -1.8963 -0.1582
  135OSM    C6S14550   0.118   4.535   2.357  0.0676 -0.4533 -0.0932
  135OSM    H6S14551   0.111   4.635   2.311 -0.8385  0.5384  2.0811
  135OSM    H6T14552   0.207   4.476   2.323 -1.2095 -3.0843  0.8246
  135OSM    C7S14553   0.129   4.580   2.506 -0.1597  0.6654  0.3119
  135OSM    H7S14554   0.149   4.497   2.578 -1.3602 -1.7799 -2.0125
  135OSM    H7T14555   0.032   4.625   2.535 -0.5407 -0.0849  0.2396
  135OSM    C8S14556   0.239   4.686   2.509  0.9274  0.9453 -0.1739
  135OSM    H8S14557   0.214   4.758   2.427 -0.7499 -0.7666 -1.2509
  135OSM    H8T14558   0.334   4.638   2.475  0.5401 -2.0832  2.5547
  135OSM    C9S14559   0.257   4.741   2.652  0.5765 -0.2952  0.9126
  135OSM    H9S14560   0.158   4.765   2.695  0.8576 -0.8558  1.9074
  135OSM    H9T14561   0.309   4.839   2.643  0.1764 -0.1218  0.4257
  135OSM   C10S14562   0.343   4.655   2.736  0.7714 -0.5321 -0.2564
  135OSM   H10S14563   0.432   4.631   2.675  1.9695  2.3666  0.1706
  135OSM   H10T14564   0.296   4.555   2.749  0.9995 -0.4418  1.5718
  135OSM   C11S14565   0.391   4.718   2.865 -0.3688  0.1897  0.6341
  135OSM   H11S14566   0.308   4.754   2.928 -2.2681 -1.1469 -0.9706
  135OSM   H11T14567   0.466   4.799   2.857 -0.3502  0.0849 -0.4026
  135OSM   C12S14568   0.457   4.617   2.958  0.1032 -0.5999 -0.3074
  135OSM   H12S14569   0.553   4.580   2.915 -0.3460 -2.2158  0.0440
  135OSM   H12T14570   0.396   4.525   2.951  0.4704 -1.0195  1.4977
  135OSM   C13S14571   0.477   4.656   3.101 -0.2696 -0.9563  0.2226
  135OSM   H13S14572   0.376   4.689   3.133 -0.5320 -1.5427  0.0070
  135OSM   H13T14573   0.552   4.739   3.100  0.4819 -1.6268 -0.1348
  135OSM   C14S14574   0.529   4.544   3.184 -0.5425  0.0916  0.5673
  135OSM   H14S14575   0.615   4.508   3.124  0.6533 -0.0299  2.2688
  135OSM   H14T14576   0.459   4.463   3.213  0.7308 -1.0525  0.5545
  135OSM   C15S14577   0.587   4.590   3.317 -0.3969  0.5482 -0.3135
  135OSM   H15S14578   0.663   4.669   3.297 -0.1888  0.0774 -1.4774
  135OSM   H15T14579   0.631   4.504   3.371  0.2475  1.2330  0.2762
  135OSM   C16S14580   0.486   4.651   3.418 -0.1289 -0.3213  0.4660
  135OSM   H16S14581   0.386   4.633   3.373  1.2881 -4.3450 -1.5578
  135OSM   H16T14582   0.506   4.761   3.423  0.6737 -0.4349  0.0640
  135OSM   C17S14583   0.499   4.591   3.558  0.4518 -0.0179 -0.8058
  135OSM   H17S14584   0.448   4.665   3.623  0.4597  0.3657 -1.2332
  135OSM   H17T14585   0.607   4.593   3.587 -0.1837  2.8355  1.9456
  135OSM   C18S14586   0.439   4.451   3.561 -0.3766 -0.4771 -0.2069
  135OSM   H18S14587   0.489   4.383   3.488 -0.1254 -0.7098  0.1781
  135OSM   H18T14588   0.333   4.442   3.531 -0.8117 -0.0023  1.1313
  135OSM   H18U14589   0.441   4.419   3.667 -0.9169 -3.1098 -0.9207
  135OSM    C1F14590  -0.028   3.990   2.399 -0.2457  0.1947  0.7905
  135OSM     OF14591   0.018   3.911   2.317 -0.3390  0.3590 -0.0737
  135OSM    C2F14592  -0.018   3.971   2.549  0.0706 -0.0075 -0.2650
  135OSM    H2F14593  -0.111   3.920   2.583  1.4277 -3.3380 -1.1420
  135OSM    H2G14594  -0.003   4.068   2.601  0.3087  0.3755 -1.0453
  135OSM    C3F14595   0.091   3.867   2.582 -0.1362 -0.4441 -0.3090
  135OSM    H3F14596   0.188   3.906   2.544  0.1793 -1.9263 -1.1105
  135OSM    H3G14597   0.076   3.769   2.531 -0.3262  0.0329 -1.1765
  135OSM    C4F14598   0.120   3.839   2.738 -0.1797 -0.0207 -0.6404
  135OSM    H4F14599   0.042   3.767   2.772  1.0093  0.1051  2.7881
  135OSM    H4G14600   0.108   3.931   2.798 -2.1293 -1.0389  0.6368
  135OSM    C5F14601   0.260   3.774   2.746  0.8644  0.0245 -0.1390
  135OSM    H5F14602   0.334   3.833   2.688 -0.8057  2.2423 -0.1698
  135OSM    H5G14603   0.252   3.668   2.712 -2.3330 -0.3102  1.2891
  135OSM    C6F14604   0.315   3.786   2.894  0.3859  0.4677  0.1000
  135OSM    H6F14605   0.237   3.737   2.956 -1.8289  1.1935 -1.9555
  135OSM    H6G14606   0.332   3.893   2.916 -0.1599  0.8024 -1.0222
  135OSM    C7F14607   0.441   3.703   2.923 -0.1079 -0.8385 -0.5628
  135OSM    H7F14608   0.516   3.781   2.897 -3.4189  2.9208  0.1658
  135OSM    H7G14609   0.445   3.614   2.857  0.9097  0.4280 -2.3057
  135OSM    C8F14610   0.447   3.672   3.075  0.2633 -0.1619 -0.3630
  135OSM    H8F14611   0.536   3.613   3.104 -0.2120 -0.4234  0.5743
  135OSM    H8G14612   0.357   3.609   3.093  0.2114 -0.0639 -0.2801
  135OSM    C9F14613   0.454   3.803   3.164  0.6953  0.3215  0.4154
  135OSM    H9F14614   0.478   3.895   3.108  0.7316  0.1587  0.1578
  135OSM   C10F14615   0.394   3.815   3.285  0.1642 -0.1273 -0.3082
  135OSM   H10F14616   0.378   3.914   3.331 -0.5586 -0.2038 -0.3891
  135OSM   C11F14617   0.324   3.713   3.367 -0.5028 -0.4347  0.9120
  135OSM   H11F14618   0.353   3.621   3.312 -0.1481 -0.5132  1.2186
  135OSM   H11G14619   0.215   3.726   3.351 -0.4931 -1.0963  0.2760
  135OSM   C12F14620   0.368   3.696   3.507 -0.0829  0.0232  0.4539
  135OSM   H12F14621   0.468   3.652   3.526  0.7000  2.1870  1.6761
  135OSM   H12G14622   0.298   3.618   3.543  2.2139 -3.3553 -1.7559
  135OSM   C13F14623   0.366   3.826   3.593  0.2951  0.2054 -0.4210
  135OSM   H13F14624   0.270   3.876   3.571  0.0148 -0.5854 -1.0628
  135OSM   H13G14625   0.439   3.902   3.557  0.3040  0.4435  0.0952
  135OSM   C14F14626   0.376   3.809   3.743  0.0704  0.2353  0.1692
  135OSM   H14F14627   0.478   3.773   3.767 -0.0923  1.0459  2.2166
  135OSM   H14G14628   0.303   3.729   3.768 -0.0224  0.6044  1.0898
  135OSM   C15F14629   0.372   3.931   3.830  0.0522 -0.5331 -0.6900
  135OSM   H15F14630   0.279   3.992   3.827 -1.4608 -2.7120 -0.5111
  135OSM   H15G14631   0.455   4.000   3.804 -0.5756  0.9827  1.0977
  135OSM   C16F14632   0.382   3.891   3.981 -0.1965  0.1613  0.4440
  135OSM   H16F14633   0.466   3.821   3.997 -1.5184 -1.5357  0.2391
  135OSM   H16G14634   0.284   3.842   4.000 -2.3047  2.1833 -3.6952
  135OSM   C17F14635   0.411   4.015   4.069  0.5471  0.0394 -0.2257
  135OSM   H17F14636   0.319   4.066   4.101  2.5464  2.7647  1.6127
  135OSM   H17G14637   0.470   4.089   4.009  2.0392  0.8029  2.0525
  135OSM   C18F14638   0.489   3.979   4.196  0.3702  0.3430 -0.2297
  135OSM   H18F14639   0.589   3.945   4.163  2.3675  1.9079  3.5246
  135OSM   H18G14640   0.449   3.896   4.258  3.3048  0.0117  1.3730
  135OSM   H18H14641   0.495   4.070   4.260 -0.0026  0.0311  0.2531
  136OSM      N14642   3.325   1.719   1.903 -0.1928 -0.0844 -1.0802
  136OSM    C1514643   3.451   1.737   1.836 -0.1694  0.4975 -0.5501
  136OSM   H15A14644   3.504   1.816   1.887 -0.4818 -0.4559  1.3301
  136OSM   H15B14645   3.429   1.771   1.735 -3.6667 -1.1053 -0.4738
  136OSM   H15C14646   3.507   1.645   1.833  0.0329  0.4618  2.1772
  136OSM    C1414647   3.250   1.609   1.834 -0.2318 -0.1398  0.4911
  136OSM   H14A14648   3.145   1.596   1.856  0.0600 -0.6903  1.5994
  136OSM   H14B14649   3.298   1.516   1.860  0.8166  0.5542  1.0810
  136OSM   H14C14650   3.275   1.626   1.730  2.9968 -1.7802  0.8806
  136OSM    C1314651   3.355   1.674   2.044 -0.2929  0.7753 -0.1706
  136OSM   H13A14652   3.264   1.656   2.100  0.5202 -1.1360  0.5976
  136OSM   H13B14653   3.400   1.749   2.107  2.8648 -1.7381  0.8204
  136OSM   H13C14654   3.423   1.591   2.055 -0.8056  0.5128  1.3353
  136OSM    C1214655   3.253   1.850   1.909 -0.4441 -0.6421  0.2901
  136OSM   H12A14656   3.311   1.915   1.973 -0.6604 -0.3226  0.1629
  136OSM   H12B14657   3.159   1.827   1.958 -0.4711 -4.2990 -1.2128
  136OSM    C1114658   3.222   1.918   1.773  0.1276 -0.0513  0.5253
  136OSM   H11A14659   3.312   1.946   1.715 -0.6980  0.7467 -0.4263
  136OSM   H11B14660   3.171   2.013   1.800  2.4958  1.4864 -0.1299
  136OSM      P14661   2.991   1.824   1.695  0.1319  0.1294  0.4348
  136OSM    O1314662   2.942   1.951   1.639  0.3039  0.6064  0.5095
  136OSM    O1414663   2.946   1.702   1.632 -0.0457  0.5124  0.1690
  136OSM    O1114664   2.957   1.819   1.851 -0.1235  0.2302 -0.0425
  136OSM    O1214665   3.144   1.832   1.692 -0.1498 -0.3482 -0.2875
  136OSM    C1S14666   2.890   1.921   1.917  0.8044  0.2151  0.6286
  136OSM    H1S14667   2.808   1.973   1.863  0.7069 -0.9531 -0.3755
  136OSM    H1T14668   2.965   1.993   1.956 -0.3996 -0.3606  4.4205
  136OSM     NF14669   2.776   1.983   2.125 -0.1075  0.3132 -0.0734
  136OSM    HNF14670   2.851   2.015   2.183 -0.1115 -0.6664  0.5070
  136OSM    C2S14671   2.824   1.866   2.051  0.4227 -0.6602 -0.5022
  136OSM    H2S14672   2.742   1.795   2.028  1.2404 -0.9923 -2.6489
  136OSM    C3S14673   2.930   1.782   2.129  0.0853 -0.4573 -0.2027
  136OSM    H3S14674   3.018   1.839   2.164 -0.1392 -0.4190  0.3125
  136OSM     O314675   2.991   1.683   2.054 -0.4282  0.3835  0.4983
  136OSM    HO314676   2.998   1.716   1.964 -0.3319  0.0386  0.3761
  136OSM    C4S14677   2.859   1.722   2.252 -1.1330  0.2969  0.1652
  136OSM    H4S14678   2.789   1.642   2.225 -0.5711 -0.2884  0.4366
  136OSM    C5S14679   2.872   1.751   2.382 -0.1219 -0.5541  0.6703
  136OSM    H5S14680   2.931   1.842   2.399 -0.4399 -0.1538 -0.3153
  136OSM    C6S14681   2.802   1.695   2.497  0.4037  0.4371 -0.5895
  136OSM    H6S14682   2.754   1.599   2.467 -1.7291  0.7296  1.5439
  136OSM    H6T14683   2.716   1.754   2.535 -0.7437 -1.0047 -0.8270
  136OSM    C7S14684   2.895   1.664   2.621 -0.3931 -0.7538  0.6627
  136OSM    H7S14685   2.954   1.757   2.640  1.6889 -1.3806 -2.1491
  136OSM    H7T14686   2.965   1.586   2.583 -2.1897 -0.7706 -2.9732
  136OSM    C8S14687   2.826   1.619   2.757  1.0825 -0.3449 -0.1708
  136OSM    H8S14688   2.744   1.546   2.739  0.3029  0.3996  0.2842
  136OSM    H8T14689   2.776   1.711   2.794 -1.1042  0.2669 -4.1128
  136OSM    C9S14690   2.916   1.556   2.860  0.4428 -0.8772  0.3327
  136OSM    H9S14691   3.022   1.579   2.836  0.2269 -0.8184 -0.5715
  136OSM    H9T14692   2.897   1.447   2.847 -0.0612 -1.0104  1.9499
  136OSM   C10S14693   2.881   1.594   3.006 -0.2538 -0.2614  0.4151
  136OSM   H10S14694   2.771   1.591   3.025 -0.5708 -0.0124 -1.2490
  136OSM   H10T14695   2.911   1.697   3.038  0.5341  0.2988 -1.9452
  136OSM   C11S14696   2.959   1.518   3.110  0.2722  0.3783  0.3150
  136OSM   H11S14697   3.066   1.546   3.106  0.1920  0.5249 -1.2951
  136OSM   H11T14698   2.962   1.408   3.091  3.1152  0.2505  1.0381
  136OSM   C12S14699   2.907   1.534   3.256 -0.2887 -0.1956  0.2556
  136OSM   H12S14700   2.801   1.502   3.257 -0.2397 -0.4269 -0.8151
  136OSM   H12T14701   2.910   1.644   3.272  0.0092 -0.4359  2.0179
  136OSM   C13S14702   2.993   1.457   3.358 -0.0001  0.8664  0.4412
  136OSM   H13S14703   3.096   1.498   3.370  0.4653 -0.3159  0.6658
  136OSM   H13T14704   3.009   1.357   3.313  1.6411  0.6226  1.4691
  136OSM   C14S14705   2.935   1.443   3.495 -0.2808  0.6142  0.2521
  136OSM   H14S14706   2.870   1.353   3.507  0.5604 -0.1484 -0.6844
  136OSM   H14T14707   2.867   1.530   3.507  0.3133  1.1319 -0.0530
  136OSM   C15S14708   3.044   1.450   3.611  0.6525 -0.3423  1.0682
  136OSM   H15S14709   3.084   1.553   3.611 -3.2350  1.4172  3.6325
  136OSM   H15T14710   3.118   1.372   3.584 -0.3241 -1.8733  2.5865
  136OSM   C16S14711   3.012   1.428   3.760 -0.1794  0.0549  0.0811
  136OSM   H16S14712   2.957   1.333   3.777  2.0146 -0.8701  2.7158
  136OSM   H16T14713   2.950   1.513   3.797 -2.5801 -0.1490 -2.9934
  136OSM   C17S14714   3.134   1.401   3.844  0.1871  0.1713  0.6715
  136OSM   H17S14715   3.192   1.496   3.853 -0.7200  0.7201  0.9002
  136OSM   H17T14716   3.191   1.318   3.798  0.4210  0.7032 -0.0148
  136OSM   C18S14717   3.098   1.343   3.981  0.3091  0.2285 -0.2195
  136OSM   H18S14718   3.026   1.258   3.970  0.0589  0.4229 -0.0999
  136OSM   H18T14719   3.053   1.417   4.051 -0.0084 -2.5615  2.7972
  136OSM   H18U14720   3.191   1.318   4.036 -1.2939 -0.7056  2.2381
  136OSM    C1F14721   2.661   2.051   2.103 -0.0769 -0.5570 -0.4582
  136OSM     OF14722   2.568   2.005   2.034 -0.2236  0.5757  0.1198
  136OSM    C2F14723   2.644   2.182   2.168 -0.2932  0.1534 -0.1689
  136OSM    H2F14724   2.616   2.267   2.103  0.4828 -0.0132 -0.7383
  136OSM    H2G14725   2.745   2.218   2.198 -0.3371 -0.0814  0.2748
  136OSM    C3F14726   2.557   2.171   2.296 -0.1116 -0.1210 -0.5843
  136OSM    H3F14727   2.600   2.093   2.362  4.3784  0.4575 -2.4849
  136OSM    H3G14728   2.456   2.146   2.257  0.4094  0.6115 -2.5337
  136OSM    C4F14729   2.538   2.294   2.377 -0.2590 -0.6431  0.6008
  136OSM    H4F14730   2.504   2.378   2.312  1.8629 -0.3691 -0.2360
  136OSM    H4G14731   2.636   2.337   2.408 -0.6652 -0.1418  1.2107
  136OSM    C5F14732   2.458   2.264   2.506 -0.5784  0.2194 -0.3626
  136OSM    H5F14733   2.517   2.188   2.563 -2.4545 -0.4158  0.8358
  136OSM    H5G14734   2.360   2.215   2.490 -0.6239 -0.9978  2.8049
  136OSM    C6F14735   2.442   2.388   2.589  0.3519 -0.4806  0.3565
  136OSM    H6F14736   2.407   2.469   2.522 -1.6915 -1.4371  0.1783
  136OSM    H6G14737   2.536   2.426   2.633 -0.2234  1.6619 -0.1597
  136OSM    C7F14738   2.344   2.381   2.715 -0.1425 -0.6649 -0.8257
  136OSM    H7F14739   2.244   2.373   2.668 -0.7277 -1.3241  0.4774
  136OSM    H7G14740   2.352   2.480   2.764  0.4263 -0.7726 -0.6887
  136OSM    C8F14741   2.374   2.263   2.792  0.2496  0.2814  0.0812
  136OSM    H8F14742   2.483   2.256   2.812  0.1945 -2.9715 -0.2754
  136OSM    H8G14743   2.352   2.184   2.717 -1.0609 -1.2041  1.9246
  136OSM    C9F14744   2.293   2.239   2.919 -0.0819  0.2684  0.8820
  136OSM    H9F14745   2.184   2.243   2.911 -0.4564 -4.1458  1.5018
  136OSM   C10F14746   2.344   2.231   3.042  0.1756  0.0389 -0.1857
  136OSM   H10F14747   2.278   2.196   3.122  1.9384 -0.2580  1.1932
  136OSM   C11F14748   2.487   2.255   3.083 -0.3383  0.4325  1.5298
  136OSM   H11F14749   2.552   2.221   3.000 -0.6732  2.2084  0.4932
  136OSM   H11G14750   2.533   2.197   3.167  0.4897  0.3389  1.0274
  136OSM   C12F14751   2.520   2.394   3.129 -0.8773  0.2927 -0.0349
  136OSM   H12F14752   2.497   2.469   3.050 -1.1807  1.8141  1.4345
  136OSM   H12G14753   2.630   2.392   3.142 -0.9980 -2.5748  1.1446
  136OSM   C13F14754   2.467   2.434   3.269  0.1363  0.2859 -0.2857
  136OSM   H13F14755   2.514   2.364   3.341 -1.6406 -2.3968 -1.5470
  136OSM   H13G14756   2.356   2.438   3.280  0.0850 -1.6187  0.1954
  136OSM   C14F14757   2.506   2.581   3.307 -0.0560  0.3340  0.5116
  136OSM   H14F14758   2.487   2.644   3.218  3.3055  1.6517  0.6128
  136OSM   H14G14759   2.616   2.587   3.318  0.1698 -1.5752 -0.2484
  136OSM   C15F14760   2.428   2.626   3.430 -0.2188  0.2872  0.2116
  136OSM   H15F14761   2.435   2.537   3.497 -1.7859 -1.2562 -1.5599
  136OSM   H15G14762   2.321   2.648   3.409 -0.2676  0.5104  0.6936
  136OSM   C16F14763   2.493   2.755   3.485 -0.4165 -0.3855  0.4464
  136OSM   H16F14764   2.596   2.730   3.516 -1.0893 -0.6626  2.6015
  136OSM   H16G14765   2.430   2.779   3.573  0.9496  0.8630  1.1134
  136OSM   C17F14766   2.484   2.884   3.389  0.1086  0.5782  0.1968
  136OSM   H17F14767   2.376   2.885   3.363 -0.1756  1.7453  1.3118
  136OSM   H17G14768   2.538   2.880   3.292 -0.2435  1.1572 -0.0318
  136OSM   C18F14769   2.508   3.013   3.464  0.5677  0.6035 -0.4378
  136OSM   H18F14770   2.604   3.010   3.520  0.8106  0.9456 -0.8338
  136OSM   H18G14771   2.432   3.031   3.544 -0.1626 -0.8519 -0.7648
  136OSM   H18H14772   2.511   3.099   3.394 -3.1998  0.8675 -0.5040
  137OSM      N14773   6.796   5.291   1.501  0.1338 -0.0198  0.7696
  137OSM    C1514774   6.923   5.269   1.429 -1.0638 -0.5739  0.1975
  137OSM   H15A14775   6.931   5.165   1.401 -0.8447 -0.2536 -0.9749
  137OSM   H15B14776   6.999   5.273   1.507 -1.3270  0.5392  0.4101
  137OSM   H15C14777   6.943   5.333   1.345 -0.4133 -1.0583 -0.0300
  137OSM    C1414778   6.800   5.440   1.537  0.2110  0.4619 -0.3988
  137OSM   H14A14779   6.812   5.505   1.451 -3.1591  0.3945 -1.0231
  137OSM   H14B14780   6.877   5.439   1.613 -0.1326 -1.3777 -0.0462
  137OSM   H14C14781   6.702   5.465   1.574  0.0748  1.0434 -1.1090
  137OSM    C1314782   6.682   5.269   1.404 -0.4869  0.3553  0.3443
  137OSM   H13A14783   6.587   5.312   1.432 -1.4354 -1.3389 -0.1224
  137OSM   H13B14784   6.669   5.162   1.410  2.8435 -0.1401  0.4579
  137OSM   H13C14785   6.716   5.286   1.303  2.8158 -0.1780  1.2282
  137OSM    C1214786   6.777   5.198   1.622  0.4657 -0.7210  0.3488
  137OSM   H12A14787   6.769   5.094   1.594 -3.5912 -0.7285  1.0181
  137OSM   H12B14788   6.681   5.207   1.671  0.6830  3.3396  0.3785
  137OSM    C1114789   6.877   5.208   1.735 -0.1436 -0.0510 -0.3900
  137OSM   H11A14790   6.825   5.184   1.830 -0.1758  3.2182  0.5406
  137OSM   H11B14791   6.917   5.310   1.757 -0.6283 -0.4869  3.1717
  137OSM      P14792   6.967   4.969   1.741  0.4664  0.2984 -0.3796
  137OSM    O1314793   6.830   4.934   1.761  0.3942  0.1041 -0.0277
  137OSM    O1414794   7.043   4.891   1.640  0.0198 -0.4760 -0.1426
  137OSM    O1114795   7.045   4.972   1.886  0.0826  0.0197  0.1432
  137OSM    O1214796   6.979   5.115   1.702  0.2387  0.2552  0.1795
  137OSM    C1S14797   6.981   5.025   2.000 -0.4366  0.0850 -0.3651
  137OSM    H1S14798   6.873   4.997   1.999 -0.3004 -0.4458 -0.7171
  137OSM    H1T14799   6.987   5.134   1.982 -0.3872 -0.3478 -3.5297
  137OSM     NF14800   6.975   4.981   2.253  0.4904 -0.2223  0.2118
  137OSM    HNF14801   7.013   5.023   2.335  0.0103  1.7835 -0.5195
  137OSM    C2S14802   7.057   4.977   2.132  0.2166  0.1137 -0.0449
  137OSM    H2S14803   7.078   4.868   2.127 -1.7299 -0.5221  2.9683
  137OSM    C3S14804   7.196   5.044   2.136 -0.0872  0.3062  0.0035
  137OSM    H3S14805   7.184   5.150   2.166 -1.3787 -0.0765  0.9323
  137OSM     O314806   7.267   5.032   2.009 -0.3031 -0.3563  0.0724
  137OSM    HO314807   7.199   5.010   1.945 -0.3552  0.5317 -0.1890
  137OSM    C4S14808   7.273   4.965   2.248  0.7227  0.3817  0.6364
  137OSM    H4S14809   7.255   5.025   2.338 -2.5619  0.5665 -0.0395
  137OSM    C5S14810   7.362   4.866   2.235  0.3762  0.3535  0.5476
  137OSM    H5S14811   7.383   4.825   2.135 -1.7063 -0.0979  0.2594
  137OSM    C6S14812   7.439   4.809   2.352 -0.0091 -0.8206  0.2095
  137OSM    H6S14813   7.541   4.805   2.307  0.0113 -0.5424  0.2242
  137OSM    H6T14814   7.422   4.703   2.378 -0.3235 -0.8132  0.0324
  137OSM    C7S14815   7.437   4.895   2.478  0.1892 -0.5880 -0.6011
  137OSM    H7S14816   7.338   4.904   2.527  0.7821 -0.0430  0.5548
  137OSM    H7T14817   7.453   5.000   2.445  3.1760 -0.0438  2.1054
  137OSM    C8S14818   7.533   4.856   2.599  0.2855  0.7985  0.4353
  137OSM    H8S14819   7.629   4.847   2.543 -1.1656  1.8089 -2.4417
  137OSM    H8T14820   7.518   4.754   2.639  1.3076  0.4543 -0.0104
  137OSM    C9S14821   7.539   4.958   2.714 -0.1000  0.0847  0.5748
  137OSM    H9S14822   7.437   4.973   2.755  0.7917 -1.2939  3.6150
  137OSM    H9T14823   7.586   5.047   2.666  0.9049 -1.3317 -1.2000
  137OSM   C10S14824   7.627   4.904   2.824  0.5857  0.4354 -0.4832
  137OSM   H10S14825   7.728   4.909   2.779  1.7606 -0.4138  1.9025
  137OSM   H10T14826   7.583   4.806   2.852 -0.3113  1.8515  3.8862
  137OSM   C11S14827   7.630   5.007   2.946  0.1798 -0.7367  0.2672
  137OSM   H11S14828   7.523   5.018   2.973  0.3257 -0.6892  0.8386
  137OSM   H11T14829   7.665   5.103   2.904  2.0059 -1.9535 -1.1430
  137OSM   C12S14830   7.730   4.961   3.062  0.2989 -0.0532 -0.1412
  137OSM   H12S14831   7.827   5.001   3.026 -0.7290  2.5590 -0.2839
  137OSM   H12T14832   7.727   4.850   3.067 -1.5281 -0.0557 -0.4819
  137OSM   C13S14833   7.684   5.018   3.200  0.8057 -0.2366  0.9757
  137OSM   H13S14834   7.575   4.999   3.208  0.2666  1.2725 -1.5132
  137OSM   H13T14835   7.714   5.125   3.199  0.2429 -0.0756  0.8825
  137OSM   C14S14836   7.749   4.936   3.308  0.2130  0.0291 -0.4200
  137OSM   H14S14837   7.859   4.945   3.296  0.5171 -0.5601  1.4850
  137OSM   H14T14838   7.711   4.832   3.302 -1.6219  0.7311 -1.9010
  137OSM   C15S14839   7.709   4.996   3.436  0.4912 -0.1745 -0.6871
  137OSM   H15S14840   7.680   5.102   3.420 -0.5839 -0.4907 -0.9426
  137OSM   H15T14841   7.801   4.983   3.497  1.4869 -3.7131 -2.6426
  137OSM   C16S14842   7.595   4.931   3.517  1.4056 -0.1616  0.1755
  137OSM   H16S14843   7.619   4.829   3.554  1.8568  0.2436  1.0461
  137OSM   H16T14844   7.506   4.929   3.450  2.8622  0.6374 -1.8624
  137OSM   C17S14845   7.560   5.014   3.639 -0.6748  0.9704 -0.9727
  137OSM   H17S14846   7.474   4.968   3.693  0.5766 -0.4610 -0.1391
  137OSM   H17T14847   7.529   5.117   3.609 -0.5862  1.8436  1.7157
  137OSM   C18S14848   7.672   5.021   3.743 -0.7435  0.2621 -0.4322
  137OSM   H18S14849   7.639   5.081   3.830 -0.9330 -0.5529  0.0684
  137OSM   H18T14850   7.770   5.058   3.706  0.3002 -1.0730  0.8629
  137OSM   H18U14851   7.697   4.921   3.784  2.6201  0.4746 -1.6132
  137OSM    C1F14852   6.863   4.918   2.247 -0.3753  0.6362 -0.3556
  137OSM     OF14853   6.848   4.827   2.171  0.3842  0.5490  0.0051
  137OSM    C2F14854   6.757   4.960   2.344  0.0095  0.6879 -1.0220
  137OSM    H2F14855   6.665   4.992   2.290 -0.2440 -1.2586 -1.7959
  137OSM    H2G14856   6.801   5.040   2.408 -1.3787  0.0139  0.8613
  137OSM    C3F14857   6.707   4.835   2.435 -0.4983  0.5181 -0.5135
  137OSM    H3F14858   6.779   4.785   2.504 -0.9364 -0.0328 -0.4458
  137OSM    H3G14859   6.673   4.753   2.367 -1.2355  1.3953 -1.2285
  137OSM    C4F14860   6.584   4.884   2.512 -0.2386  0.1204  0.1520
  137OSM    H4F14861   6.518   4.807   2.557 -0.6546 -0.5997 -1.5909
  137OSM    H4G14862   6.515   4.934   2.441  0.8438  1.1915 -0.2017
  137OSM    C5F14863   6.623   4.972   2.636 -0.0477 -0.6117  0.1286
  137OSM    H5F14864   6.536   5.038   2.652  0.1449 -0.1470 -0.6605
  137OSM    H5G14865   6.699   5.048   2.609  0.7516 -0.9952  1.2372
  137OSM    C6F14866   6.685   4.894   2.756 -0.5413 -0.1134  0.3201
  137OSM    H6F14867   6.781   4.854   2.718 -0.6507 -1.7737  1.6805
  137OSM    H6G14868   6.626   4.805   2.786 -0.7733  0.2955  1.1063
  137OSM    C7F14869   6.724   4.983   2.869  0.3133  0.2095 -0.1994
  137OSM    H7F14870   6.632   5.044   2.883 -0.9787 -0.9096 -3.0190
  137OSM    H7G14871   6.812   5.049   2.857 -0.1811  1.2718  1.6301
  137OSM    C8F14872   6.753   4.906   3.001  0.3444  0.7711 -0.4232
  137OSM    H8F14873   6.657   4.861   3.034  0.4635  0.5113 -0.4270
  137OSM    H8G14874   6.783   4.979   3.079  0.4315  0.6730 -0.3645
  137OSM    C9F14875   6.862   4.801   2.993 -0.6984  0.8276 -0.1009
  137OSM    H9F14876   6.898   4.778   2.892  0.4174 -1.2986  0.7221
  137OSM   C10F14877   6.892   4.719   3.096 -0.4974 -0.4680 -0.0562
  137OSM   H10F14878   6.966   4.638   3.087  0.4918  0.4980 -0.8565
  137OSM   C11F14879   6.831   4.721   3.237  0.1154 -0.9609  0.4079
  137OSM   H11F14880   6.777   4.627   3.261  0.8854 -1.8591 -1.1996
  137OSM   H11G14881   6.749   4.792   3.260  0.2969 -0.7887  0.5288
  137OSM   C12F14882   6.936   4.753   3.343  0.1231 -0.0806 -0.6185
  137OSM   H12F14883   7.008   4.828   3.302  1.1648 -0.2603  0.7977
  137OSM   H12G14884   6.994   4.664   3.377  0.2607  0.3214  0.2156
  137OSM   C13F14885   6.882   4.816   3.476 -0.2348 -0.3406 -0.3365
  137OSM   H13F14886   6.802   4.747   3.510 -1.3958  0.2117 -1.7807
  137OSM   H13G14887   6.821   4.907   3.454 -3.8142 -1.7402  2.6786
  137OSM   C14F14888   6.999   4.845   3.580  0.0513  0.3399 -0.4971
  137OSM   H14F14889   7.089   4.877   3.523  0.1054 -0.8497 -1.1236
  137OSM   H14G14890   7.027   4.742   3.612  1.7286  0.2353 -2.1257
  137OSM   C15F14891   6.964   4.942   3.696 -0.3597 -0.1725  0.9405
  137OSM   H15F14892   6.892   4.893   3.765 -1.6601 -1.8475 -1.4604
  137OSM   H15G14893   6.900   5.017   3.644  1.5518  0.5086 -0.5647
  137OSM   C16F14894   7.077   5.007   3.778 -0.0567 -0.9093  0.6070
  137OSM   H16F14895   7.044   5.102   3.825  0.7036 -0.6920  0.7153
  137OSM   H16G14896   7.168   5.030   3.718 -0.2167  2.9212  1.5663
  137OSM   C17F14897   7.130   4.912   3.877  0.5429  0.5056  0.2903
  137OSM   H17F14898   7.158   4.824   3.816 -1.7595 -0.3510  0.3576
  137OSM   H17G14899   7.053   4.873   3.947  0.0819  0.9069  0.0182
  137OSM   C18F14900   7.251   4.964   3.945  0.2415 -0.2962 -0.3388
  137OSM   H18F14901   7.251   5.075   3.936 -0.1212 -0.0935  1.6037
  137OSM   H18G14902   7.336   4.916   3.893 -1.3602 -3.6686 -0.0725
  137OSM   H18H14903   7.249   4.926   4.050  3.4937 -4.5974 -1.5468
  138OSM      N14904   6.390   0.684   1.803  0.4757  0.7736  0.7908
  138OSM    C1514905   6.317   0.744   1.918 -0.8314  0.0285 -0.6554
  138OSM   H15A14906   6.211   0.720   1.917 -0.8362  0.0483 -1.0832
  138OSM   H15B14907   6.332   0.851   1.917  2.8333 -0.3622 -1.9755
  138OSM   H15C14908   6.365   0.704   2.005 -2.2049  0.3020  0.2613
  138OSM    C1414909   6.340   0.730   1.674  0.1166  0.1320  0.4769
  138OSM   H14A14910   6.399   0.691   1.592 -1.1954 -0.2261 -0.3275
  138OSM   H14B14911   6.332   0.837   1.666  1.5134  0.2211 -0.0514
  138OSM   H14C14912   6.239   0.698   1.657  1.1287 -2.5911 -1.1678
  138OSM    C1314913   6.528   0.736   1.809 -1.1896  0.7701  0.5598
  138OSM   H13A14914   6.531   0.844   1.808  0.0402  0.7561  0.9638
  138OSM   H13B14915   6.593   0.685   1.739 -2.0751  1.2087 -0.5986
  138OSM   H13C14916   6.575   0.704   1.902 -1.0517 -0.4236  0.0964
  138OSM    C1214917   6.379   0.530   1.794 -0.9215  0.6521 -0.2956
  138OSM   H12A14918   6.433   0.494   1.880 -1.3087 -0.8682 -0.6421
  138OSM   H12B14919   6.431   0.494   1.706  2.2241 -0.3841  1.8212
  138OSM    C1114920   6.241   0.452   1.804 -0.5709  0.6095 -0.1283
  138OSM   H11A14921   6.206   0.468   1.909  0.0784  1.2797 -0.0010
  138OSM   H11B14922   6.252   0.342   1.798 -0.9899  0.6496 -2.3607
  138OSM      P14923   6.003   0.529   1.724 -0.2205  0.7734  0.1939
  138OSM    O1314924   5.948   0.594   1.606 -0.4275  0.1725  0.4035
  138OSM    O1414925   5.942   0.402   1.768 -0.4221  0.1081  0.0090
  138OSM    O1114926   6.028   0.616   1.852 -0.2740 -0.2858 -0.2241
  138OSM    O1214927   6.155   0.495   1.699  0.4632 -0.5919  0.1021
  138OSM    C1S14928   5.918   0.704   1.881  0.3009 -0.2175 -0.9535
  138OSM    H1S14929   5.829   0.702   1.814  0.0584 -0.3325 -0.6332
  138OSM    H1T14930   5.952   0.809   1.873 -0.5816  0.2516  0.8755
  138OSM     NF14931   5.735   0.739   2.054  0.3517 -0.7165 -1.0360
  138OSM    HNF14932   5.725   0.808   2.125  0.1866 -1.2636 -0.5114
  138OSM    C2S14933   5.862   0.676   2.029 -0.0204 -0.3144 -0.1552
  138OSM    H2S14934   5.841   0.566   2.032  1.7022 -0.7262 -1.5349
  138OSM    C3S14935   5.976   0.692   2.139 -0.2837  0.0860 -0.0879
  138OSM    H3S14936   6.023   0.790   2.118 -0.2589 -0.4503 -2.8898
  138OSM     O314937   6.089   0.605   2.122  0.4792  0.2999  0.0089
  138OSM    HO314938   6.074   0.562   2.037  1.6705 -0.2576  0.0644
  138OSM    C4S14939   5.922   0.685   2.282  0.6637  0.0222  0.8358
  138OSM    H4S14940   5.906   0.784   2.327  3.0183  0.4457  0.8739
  138OSM    C5S14941   5.918   0.574   2.358  0.4818  0.2798 -0.6346
  138OSM    H5S14942   5.940   0.476   2.315  1.6176 -0.5230  1.6288
  138OSM    C6S14943   5.897   0.574   2.507  0.0069  0.3185 -0.0286
  138OSM    H6S14944   5.987   0.526   2.552 -0.8610 -2.8991 -1.4116
  138OSM    H6T14945   5.821   0.500   2.540  1.9736 -1.4245  0.8409
  138OSM    C7S14946   5.884   0.714   2.569 -0.0378  0.4287 -0.5141
  138OSM    H7S14947   5.796   0.756   2.516 -0.9156  1.0521  1.3443
  138OSM    H7T14948   5.975   0.776   2.550  0.5053 -0.2581 -0.1920
  138OSM    C8S14949   5.852   0.709   2.716  0.3760  0.3426 -0.0363
  138OSM    H8S14950   5.787   0.620   2.731 -0.3618  0.9495  0.3863
  138OSM    H8T14951   5.790   0.796   2.745  1.7807  1.6537 -0.7819
  138OSM    C9S14952   5.975   0.696   2.807  0.2225 -0.4759 -1.0801
  138OSM    H9S14953   6.040   0.785   2.793 -0.5400  0.1422 -0.7593
  138OSM    H9T14954   6.030   0.603   2.781 -0.1318 -0.6461 -1.2288
  138OSM   C10S14955   5.942   0.706   2.951 -0.7088 -0.5447 -0.6692
  138OSM   H10S14956   5.878   0.622   2.986 -3.0077  1.5833  0.5785
  138OSM   H10T14957   5.882   0.799   2.963 -0.5079 -0.0802 -2.9244
  138OSM   C11S14958   6.058   0.712   3.049 -0.5807 -0.5825 -0.9268
  138OSM   H11S14959   6.113   0.807   3.030  1.0319 -1.5142 -1.1300
  138OSM   H11T14960   6.125   0.627   3.020 -2.2932 -2.7543  1.0856
  138OSM   C12S14961   6.013   0.705   3.196 -0.1131 -0.1807 -0.6126
  138OSM   H12S14962   5.925   0.770   3.218  0.3284  1.0085 -2.1879
  138OSM   H12T14963   6.103   0.746   3.247  0.0920 -0.0656 -1.0633
  138OSM   C13S14964   5.989   0.565   3.242  0.1392  0.4483 -0.7087
  138OSM   H13S14965   6.058   0.496   3.189 -0.2573  0.0154 -0.6616
  138OSM   H13T14966   5.884   0.538   3.215  0.2571  0.6096 -1.3423
  138OSM   C14S14967   6.018   0.547   3.391  0.0618  0.0548  0.2879
  138OSM   H14S14968   5.964   0.454   3.421  1.5324 -1.0069 -0.2810
  138OSM   H14T14969   5.980   0.635   3.448 -0.0008  0.8806 -0.9836
  138OSM   C15S14970   6.163   0.506   3.437  0.0188  0.4248  0.2046
  138OSM   H15S14971   6.243   0.582   3.448 -0.3292  0.4239  4.7186
  138OSM   H15T14972   6.208   0.424   3.378 -1.9645 -1.5738  1.3224
  138OSM   C16S14973   6.165   0.444   3.580  0.4457 -0.4332 -0.9388
  138OSM   H16S14974   6.266   0.400   3.587  0.1208 -1.6400 -3.0095
  138OSM   H16T14975   6.080   0.373   3.589  0.9992 -0.9371  0.6518
  138OSM   C17S14976   6.177   0.556   3.689  0.1016  0.2304  0.1121
  138OSM   H17S14977   6.087   0.621   3.691  0.7135  1.1918 -1.5706
  138OSM   H17T14978   6.262   0.626   3.672 -1.4325  1.8100 -1.6192
  138OSM   C18S14979   6.185   0.496   3.834  0.2977 -0.3969 -0.9210
  138OSM   H18S14980   6.242   0.401   3.828 -0.7264 -1.1960  1.2284
  138OSM   H18T14981   6.081   0.477   3.867  0.6653 -1.1563 -0.1632
  138OSM   H18U14982   6.242   0.573   3.891 -0.7934  0.1584 -0.5682
  138OSM    C1F14983   5.623   0.689   1.989 -1.0239  0.2002  0.0247
  138OSM     OF14984   5.627   0.603   1.908 -0.1817  0.2109  0.1565
  138OSM    C2F14985   5.493   0.756   2.026 -0.2751  0.0045 -0.6687
  138OSM    H2F14986   5.410   0.696   1.983  1.1610 -2.0022 -0.7844
  138OSM    H2G14987   5.485   0.856   1.978 -0.1375  1.1990  1.6469
  138OSM    C3F14988   5.458   0.761   2.178 -0.3143  0.5458 -0.4249
  138OSM    H3F14989   5.355   0.803   2.177 -0.1666  0.9834 -2.5699
  138OSM    H3G14990   5.530   0.831   2.224  1.5674 -1.5986  0.0688
  138OSM    C4F14991   5.467   0.637   2.269  0.0280  0.0735  0.6427
  138OSM    H4F14992   5.570   0.596   2.273  0.2189  0.3300 -0.9832
  138OSM    H4G14993   5.396   0.565   2.222  1.3632 -3.0404  3.0409
  138OSM    C5F14994   5.404   0.670   2.406 -0.4718  0.2034  1.2773
  138OSM    H5F14995   5.301   0.707   2.385  0.7791  3.1501 -0.2725
  138OSM    H5G14996   5.456   0.756   2.453 -0.9179 -0.5042  3.1454
  138OSM    C6F14997   5.399   0.553   2.501  0.2018 -0.7237  0.4102
  138OSM    H6F14998   5.502   0.518   2.521  0.8996  1.2451  0.5358
  138OSM    H6G14999   5.342   0.470   2.455 -1.2721  0.1387  0.5746
  138OSM    C7F15000   5.348   0.600   2.640 -0.3573  0.0346  0.0962
  138OSM    H7F15001   5.239   0.621   2.643 -0.1724  0.9852  2.2143
  138OSM    H7G15002   5.399   0.695   2.666 -0.3760 -0.1552  0.8589
  138OSM    C8F15003   5.354   0.491   2.748 -0.6685 -0.6966 -0.3576
  138OSM    H8F15004   5.324   0.391   2.710  1.5680 -0.6072 -2.6127
  138OSM    H8G15005   5.293   0.520   2.836  2.9089  1.4246  1.6495
  138OSM    C9F15006   5.495   0.468   2.793 -0.4627  0.1336 -0.6287
  138OSM    H9F15007   5.542   0.389   2.733 -1.4722 -0.4016 -0.7438
  138OSM   C10F15008   5.553   0.516   2.907 -0.1825 -0.4861  0.3016
  138OSM   H10F15009   5.655   0.479   2.922  0.1793 -0.1875 -1.2124
  138OSM   C11F15010   5.511   0.614   3.012 -0.7781  0.0044  0.1096
  138OSM   H11F15011   5.401   0.622   3.025 -0.9406  2.1653 -2.0877
  138OSM   H11G15012   5.549   0.714   2.985  3.2669 -1.0298  1.3040
  138OSM   C12F15013   5.570   0.598   3.155  0.3234 -0.2999  0.4229
  138OSM   H12F15014   5.678   0.624   3.160  0.3320  0.4162 -2.0456
  138OSM   H12G15015   5.561   0.489   3.177 -3.5906 -0.1523  0.2417
  138OSM   C13F15016   5.500   0.679   3.263 -0.0914  0.0136  0.2444
  138OSM   H13F15017   5.412   0.615   3.286  0.4451 -0.6637  0.4489
  138OSM   H13G15018   5.471   0.783   3.237  1.0656  0.5676  1.0938
  138OSM   C14F15019   5.582   0.675   3.393 -1.1179 -0.2877 -0.3982
  138OSM   H14F15020   5.673   0.739   3.388 -0.4438 -1.0619  1.1312
  138OSM   H14G15021   5.615   0.570   3.412 -1.3593 -0.0100  1.9066
  138OSM   C15F15022   5.505   0.718   3.517  0.8347  0.1004  0.2611
  138OSM   H15F15023   5.408   0.666   3.525 -0.3302  2.3790  2.4030
  138OSM   H15G15024   5.493   0.829   3.521  1.7020  0.2533 -0.7390
  138OSM   C16F15025   5.560   0.694   3.660 -0.1051 -0.2752 -0.3133
  138OSM   H16F15026   5.540   0.588   3.690 -0.5208  0.0867  0.7417
  138OSM   H16G15027   5.495   0.754   3.727  0.4229  1.4018 -1.2440
  138OSM   C17F15028   5.707   0.728   3.685 -0.1200 -0.1370  0.3478
  138OSM   H17F15029   5.726   0.833   3.717  2.6467 -0.0641 -1.2081
  138OSM   H17G15030   5.771   0.718   3.595  1.8795 -0.9610  1.7993
  138OSM   C18F15031   5.779   0.641   3.793  0.7532 -0.4261 -0.4205
  138OSM   H18F15032   5.771   0.533   3.770 -1.2834 -0.5581  0.6843
  138OSM   H18G15033   5.723   0.673   3.884  0.7600 -0.4768 -0.3983
  138OSM   H18H15034   5.886   0.673   3.793  0.8187 -0.6268  0.0919
  139OSM      N15035   1.490   4.104   1.514 -0.6243 -0.4291  0.6400
  139OSM    C1515036   1.550   4.187   1.408 -0.2487  1.0025  0.8560
  139OSM   H15A15037   1.527   4.140   1.313 -0.5665 -1.6879  2.1731
  139OSM   H15B15038   1.658   4.193   1.414 -0.0902 -1.0248  0.8036
  139OSM   H15C15039   1.515   4.288   1.409 -1.3540  0.7526 -2.0179
  139OSM    C1415040   1.343   4.097   1.492  1.0590  0.1275  0.1247
  139OSM   H14A15041   1.297   4.194   1.491 -2.4146 -1.3935 -0.8647
  139OSM   H14B15042   1.302   4.041   1.575  1.1556  0.0399  0.1136
  139OSM   H14C15043   1.309   4.049   1.402 -1.5388  2.2566 -0.1305
  139OSM    C1315044   1.550   3.969   1.500  0.3889 -0.0518  0.8665
  139OSM   H13A15045   1.531   3.929   1.402  2.1252 -0.9623  0.8621
  139OSM   H13B15046   1.494   3.902   1.563  0.0212 -3.1157 -2.4627
  139OSM   H13C15047   1.656   3.963   1.520  0.4532  0.8847  0.8938
  139OSM    C1215048   1.525   4.165   1.649 -0.5230  0.4840 -0.2534
  139OSM   H12A15049   1.485   4.266   1.647 -0.5292  0.4919  0.1238
  139OSM   H12B15050   1.631   4.180   1.664 -0.6559  1.0483  0.1640
  139OSM    C1115051   1.464   4.099   1.773 -0.3380 -0.1943 -0.2703
  139OSM   H11A15052   1.355   4.078   1.760  0.1751 -1.4132 -3.2123
  139OSM   H11B15053   1.465   4.167   1.861 -0.7553 -2.0239  1.2136
  139OSM      P15054   1.659   3.979   1.895 -0.3311  0.0423 -0.3075
  139OSM    O1315055   1.720   3.842   1.909 -0.2456  0.0794  0.0451
  139OSM    O1415056   1.745   4.088   1.844 -0.3430  0.0135  0.5299
  139OSM    O1115057   1.613   4.028   2.040  0.4400 -0.5671 -0.3708
  139OSM    O1215058   1.528   3.975   1.815  0.0318 -0.3987  0.5179
  139OSM    C1S15059   1.501   3.970   2.097 -0.8397  0.5486  0.3322
  139OSM    H1S15060   1.502   3.858   2.098  0.7464  0.5048 -0.8572
  139OSM    H1T15061   1.413   4.004   2.039 -0.8952 -0.7814 -0.4249
  139OSM     NF15062   1.368   3.919   2.307 -0.6331  0.1107  0.4016
  139OSM    HNF15063   1.270   3.939   2.307 -0.7163 -0.2978  0.3567
  139OSM    C2S15064   1.475   4.004   2.245 -0.3410 -0.2963 -0.5682
  139OSM    H2S15065   1.572   3.985   2.294 -1.1160  0.1008  1.1825
  139OSM    C3S15066   1.447   4.156   2.248 -0.5411 -0.3494  0.3351
  139OSM    H3S15067   1.342   4.172   2.213 -0.2336  0.2225 -0.3439
  139OSM     O315068   1.534   4.239   2.169  0.0424 -0.4256  0.2426
  139OSM    HO315069   1.580   4.177   2.113  2.0070  0.4611  0.7739
  139OSM    C4S15070   1.440   4.204   2.388 -0.4410  0.1458 -0.5952
  139OSM    H4S15071   1.342   4.191   2.437  0.2166  2.9168  1.7027
  139OSM    C5S15072   1.534   4.266   2.466  0.3019  0.4705  0.0906
  139OSM    H5S15073   1.633   4.283   2.422  0.3603  1.8143  0.6780
  139OSM    C6S15074   1.512   4.335   2.598  0.1653 -0.2837 -0.0886
  139OSM    H6S15075   1.419   4.299   2.646 -0.7384  0.0307 -1.5328
  139OSM    H6T15076   1.494   4.441   2.567 -0.1469 -0.6800 -1.3176
  139OSM    C7S15077   1.633   4.329   2.699  0.1339 -0.0540 -0.1780
  139OSM    H7S15078   1.719   4.367   2.641  0.3191  0.4053  0.3887
  139OSM    H7T15079   1.651   4.227   2.741 -0.4694 -0.3763 -0.6910
  139OSM    C8S15080   1.621   4.422   2.820  0.9244 -0.1268  0.2282
  139OSM    H8S15081   1.585   4.521   2.783 -0.2557 -0.9314 -0.8598
  139OSM    H8T15082   1.716   4.435   2.877 -0.1183  0.1399  1.9929
  139OSM    C9S15083   1.516   4.373   2.922 -0.0242  0.6651  1.6409
  139OSM    H9S15084   1.535   4.267   2.951 -0.2466 -0.8495 -2.8962
  139OSM    H9T15085   1.421   4.391   2.866  1.0443  1.0128 -0.1612
  139OSM   C10S15086   1.516   4.453   3.050  0.2946  0.5573 -0.9589
  139OSM   H10S15087   1.607   4.421   3.105 -1.1485 -0.6707  0.8247
  139OSM   H10T15088   1.420   4.438   3.104  0.7660 -0.0401 -0.2723
  139OSM   C11S15089   1.513   4.603   3.015 -1.1567 -0.2084 -0.0758
  139OSM   H11S15090   1.451   4.625   2.925 -0.4477 -1.0396 -0.7804
  139OSM   H11T15091   1.617   4.634   2.993 -0.7580 -2.3160 -1.4688
  139OSM   C12S15092   1.478   4.695   3.141 -0.0158  0.5987 -0.8401
  139OSM   H12S15093   1.382   4.660   3.186  0.0497 -0.1412 -1.2457
  139OSM   H12T15094   1.467   4.805   3.130  0.7615  0.5515 -2.4608
  139OSM   C13S15095   1.580   4.673   3.257  0.4621  0.1827  0.3017
  139OSM   H13S15096   1.682   4.709   3.231 -0.2983  1.2127 -1.3740
  139OSM   H13T15097   1.586   4.566   3.287 -0.1588  0.1440  0.2970
  139OSM   C14S15098   1.537   4.752   3.382 -0.1627 -0.5595  0.0877
  139OSM   H14S15099   1.447   4.702   3.424  0.2297 -1.1291  0.2584
  139OSM   H14T15100   1.514   4.856   3.350 -1.0996 -0.3618  1.3630
  139OSM   C15S15101   1.641   4.752   3.494  0.6392 -0.5144  0.0254
  139OSM   H15S15102   1.719   4.824   3.462 -0.4633  0.7289  0.0527
  139OSM   H15T15103   1.688   4.654   3.517 -1.7418 -1.4480  1.1984
  139OSM   C16S15104   1.596   4.803   3.634  0.6965  0.9797 -0.5564
  139OSM   H16S15105   1.513   4.738   3.670  2.0966 -0.7611 -0.3296
  139OSM   H16T15106   1.546   4.901   3.619 -0.5869  0.4608  0.1403
  139OSM   C17S15107   1.713   4.814   3.732  0.0648 -0.1083  0.0161
  139OSM   H17S15108   1.792   4.877   3.686  0.5637  0.2935  1.3784
  139OSM   H17T15109   1.758   4.714   3.754  1.0024  0.5150  1.0802
  139OSM   C18S15110   1.670   4.888   3.865 -0.7262 -0.1603 -0.4415
  139OSM   H18S15111   1.629   4.989   3.845 -0.4306  0.3902  1.5130
  139OSM   H18T15112   1.756   4.899   3.935  1.1839 -0.7260 -2.5655
  139OSM   H18U15113   1.591   4.827   3.915 -0.7578  0.8559  0.8044
  139OSM    C1F15114   1.389   3.789   2.326  0.3202 -0.3826  0.2856
  139OSM     OF15115   1.496   3.746   2.367 -0.2313 -0.4845 -0.1472
  139OSM    C2F15116   1.275   3.699   2.309 -0.5518 -0.8368 -0.4213
  139OSM    H2F15117   1.282   3.662   2.204 -0.8212 -0.5554 -0.5391
  139OSM    H2G15118   1.189   3.768   2.321  1.0665  1.1985  0.1998
  139OSM    C3F15119   1.282   3.579   2.407 -0.5939  1.4594 -0.8673
  139OSM    H3F15120   1.291   3.615   2.512  1.9260  2.0917 -1.2276
  139OSM    H3G15121   1.371   3.514   2.394 -2.0699 -0.5454 -1.4445
  139OSM    C4F15122   1.163   3.477   2.404  0.1432  0.1328  0.4456
  139OSM    H4F15123   1.154   3.459   2.295 -1.4158 -1.5810  0.8240
  139OSM    H4G15124   1.070   3.525   2.442 -1.9873 -2.3018 -1.3567
  139OSM    C5F15125   1.190   3.353   2.479  0.2780  0.2955 -0.1902
  139OSM    H5F15126   1.294   3.325   2.451 -0.0754 -1.4246  0.0824
  139OSM    H5G15127   1.117   3.272   2.458  2.0550 -1.0531 -1.5734
  139OSM    C6F15128   1.185   3.375   2.632  0.3753 -0.2681  0.6124
  139OSM    H6F15129   1.085   3.398   2.674  1.2540  1.0353  2.1191
  139OSM    H6G15130   1.256   3.454   2.667  1.0979 -0.6852  0.1250
  139OSM    C7F15131   1.234   3.236   2.687  0.0991  0.1892 -0.7049
  139OSM    H7F15132   1.342   3.225   2.665  0.0371 -0.4214 -0.6991
  139OSM    H7G15133   1.178   3.155   2.637 -1.0119 -0.6964  1.8324
  139OSM    C8F15134   1.227   3.229   2.836 -0.2245 -0.2039 -0.3513
  139OSM    H8F15135   1.265   3.138   2.886 -1.0319  0.5166  1.6858
  139OSM    H8G15136   1.122   3.218   2.872  1.1693 -1.5106  3.8158
  139OSM    C9F15137   1.292   3.353   2.901  0.3279  0.1982 -0.5188
  139OSM    H9F15138   1.383   3.395   2.857  2.3772 -0.4504  2.7846
  139OSM   C10F15139   1.256   3.403   3.017  0.1774 -1.0602 -0.5041
  139OSM   H10F15140   1.313   3.486   3.062  0.2115 -0.6259 -1.3349
  139OSM   C11F15141   1.137   3.350   3.096 -0.5615 -0.1362  0.5828
  139OSM   H11F15142   1.070   3.290   3.031  0.7300 -1.9042  0.7772
  139OSM   H11G15143   1.078   3.438   3.127  1.0708  2.1051 -2.2194
  139OSM   C12F15144   1.183   3.264   3.209 -0.0610  0.4926 -0.3385
  139OSM   H12F15145   1.251   3.315   3.282 -0.4474  1.9572 -0.9670
  139OSM   H12G15146   1.235   3.178   3.161  0.1793  1.1957 -1.3522
  139OSM   C13F15147   1.065   3.231   3.301 -0.4944  1.1355 -0.5819
  139OSM   H13F15148   1.021   3.146   3.245  4.0398 -1.6462 -0.4286
  139OSM   H13G15149   0.997   3.318   3.317 -1.3807  0.0149  2.7081
  139OSM   C14F15150   1.118   3.168   3.436  0.3897 -0.9017  0.2734
  139OSM   H14F15151   1.204   3.228   3.474  0.4418 -2.0388  2.0507
  139OSM   H14G15152   1.157   3.064   3.429  1.8625 -0.8522  4.5708
  139OSM   C15F15153   1.000   3.171   3.534  0.6296 -0.6947 -0.5277
  139OSM   H15F15154   0.914   3.108   3.504 -0.3071 -0.2588  1.1424
  139OSM   H15G15155   0.959   3.274   3.541 -2.1670 -1.8403  2.8345
  139OSM   C16F15156   1.058   3.122   3.670 -0.4288  0.2939 -0.3001
  139OSM   H16F15157   1.138   3.198   3.686 -0.8221  0.8418 -0.8533
  139OSM   H16G15158   1.102   3.023   3.647  0.0643  0.7298 -1.2871
  139OSM   C17F15159   0.958   3.091   3.785 -0.4860 -0.0601  0.2856
  139OSM   H17F15160   0.894   3.180   3.798 -0.2598  0.0031  1.0155
  139OSM   H17G15161   1.028   3.083   3.871  1.8706 -0.5268 -1.5639
  139OSM   C18F15162   0.876   2.968   3.771  0.2238  0.4258 -0.3923
  139OSM   H18F15163   0.840   2.957   3.666 -0.9014 -1.7882  0.1647
  139OSM   H18G15164   0.787   2.955   3.836 -0.2503 -0.6334 -1.2139
  139OSM   H18H15165   0.938   2.880   3.797  1.6692  2.4765  4.1406
  140OSM      N15166   5.834   0.921   1.443 -0.8910 -0.6100  0.2509
  140OSM    C1515167   5.725   0.863   1.525  0.1772  0.2827 -0.3431
  140OSM   H15A15168   5.716   0.925   1.613  0.8290  0.0895 -0.1267
  140OSM   H15B15169   5.752   0.760   1.544  2.3581  1.0060  0.9397
  140OSM   H15C15170   5.636   0.872   1.465 -0.6587 -2.2756  0.3745
  140OSM    C1415171   5.835   0.860   1.307  0.4788 -0.2523 -0.4092
  140OSM   H14A15172   5.747   0.884   1.250  0.9647  0.0531 -1.0441
  140OSM   H14B15173   5.854   0.753   1.306 -0.5210 -0.4495  0.4179
  140OSM   H14C15174   5.917   0.899   1.249  0.8597  0.1306  0.3598
  140OSM    C1315175   5.807   1.068   1.419 -0.0897 -0.0054  0.3772
  140OSM   H13A15176   5.880   1.093   1.343  0.4518  0.0462  0.9028
  140OSM   H13B15177   5.827   1.132   1.504  1.1234 -1.3906  1.1736
  140OSM   H13C15178   5.708   1.090   1.381 -0.6895 -0.1778  1.7829
  140OSM    C1215179   5.964   0.895   1.520 -0.2134  0.3276 -0.4853
  140OSM   H12A15180   6.046   0.944   1.471 -1.7949  1.9445 -1.6313
  140OSM   H12B15181   5.976   0.788   1.535 -0.9776  0.3322  0.2443
  140OSM    C1115182   5.965   0.963   1.660 -0.0930 -0.8547 -0.1240
  140OSM   H11A15183   6.056   0.919   1.707 -0.0914  2.5378  3.5263
  140OSM   H11B15184   5.875   0.934   1.717  0.2371 -0.1508  0.7761
  140OSM      P15185   6.018   1.181   1.775 -0.0902  0.2890  0.2753
  140OSM    O1315186   6.157   1.228   1.770  0.2892  0.1139  1.1829
  140OSM    O1415187   5.917   1.285   1.803  0.0504  0.3275  0.5809
  140OSM    O1115188   5.998   1.086   1.901  0.3899  0.0603 -0.1034
  140OSM    O1215189   5.979   1.103   1.641 -1.2884 -0.7636 -0.1436
  140OSM    C1S15190   6.061   1.116   2.028 -0.2061 -0.5999  0.0727
  140OSM    H1S15191   6.133   1.201   2.023  0.7600 -1.1594  2.9200
  140OSM    H1T15192   6.111   1.024   2.064  1.8283  0.6628  0.6779
  140OSM     NF15193   6.035   1.189   2.270 -0.0894  0.3979 -0.3655
  140OSM    HNF15194   6.028   1.125   2.345 -0.9584 -0.6953 -1.3296
  140OSM    C2S15195   5.962   1.160   2.147 -0.3473 -0.4951  0.1172
  140OSM    H2S15196   5.926   1.252   2.098 -0.2632 -0.3397  0.3459
  140OSM    C3S15197   5.847   1.051   2.152 -0.0043  0.4250  0.2133
  140OSM    H3S15198   5.885   0.951   2.180  1.0383  0.1486 -2.0380
  140OSM     O315199   5.771   1.037   2.028 -0.8968 -0.2576 -0.3885
  140OSM    HO315200   5.833   1.069   1.962 -0.8464  1.8589  0.6037
  140OSM    C4S15201   5.743   1.081   2.255 -0.6413 -0.9333  0.5536
  140OSM    H4S15202   5.693   1.176   2.230  1.4267  1.2169  3.8419
  140OSM    C5S15203   5.719   1.021   2.371  0.0111  0.4079 -0.1748
  140OSM    H5S15204   5.765   0.922   2.390 -0.3407  0.0687 -1.0610
  140OSM    C6S15205   5.619   1.065   2.465  0.2223  0.1300  0.2484
  140OSM    H6S15206   5.516   1.030   2.442  0.3254  0.8244 -1.4882
  140OSM    H6T15207   5.606   1.175   2.476 -0.3335  0.3139 -1.7942
  140OSM    C7S15208   5.654   1.012   2.610 -0.1442  0.0204 -0.0506
  140OSM    H7S15209   5.765   1.017   2.611 -0.0089 -2.1426 -0.4871
  140OSM    H7T15210   5.637   0.903   2.612 -2.1484  0.1888 -2.7103
  140OSM    C8S15211   5.578   1.075   2.731 -0.1136 -0.6203 -0.0475
  140OSM    H8S15212   5.473   1.039   2.730 -0.4578  0.3283  0.4354
  140OSM    H8T15213   5.576   1.186   2.722 -0.0493 -0.3706  2.3606
  140OSM    C9S15214   5.656   1.036   2.861  0.2502  0.6146  0.4678
  140OSM    H9S15215   5.757   1.083   2.858 -0.3073  1.8162 -0.0686
  140OSM    H9T15216   5.658   0.925   2.873  1.2232  0.7238  1.4630
  140OSM   C10S15217   5.589   1.099   2.993 -0.0241  0.0529  0.0723
  140OSM   H10S15218   5.497   1.040   3.011 -1.4890  1.1007 -3.1937
  140OSM   H10T15219   5.551   1.202   2.978 -4.2463 -1.1623  1.1244
  140OSM   C11S15220   5.679   1.082   3.122 -0.0909 -0.0747  0.0664
  140OSM   H11S15221   5.784   1.111   3.101 -0.2797  0.4364 -0.1856
  140OSM   H11T15222   5.690   0.973   3.141  3.0594 -0.0362 -1.1128
  140OSM   C12S15223   5.627   1.152   3.250  0.7115 -0.1299 -0.4072
  140OSM   H12S15224   5.525   1.113   3.273 -0.0626 -0.1298 -3.3443
  140OSM   H12T15225   5.613   1.262   3.239  2.1083  0.2842  1.4608
  140OSM   C13S15226   5.717   1.126   3.370 -0.4895  0.8568 -0.3279
  140OSM   H13S15227   5.811   1.184   3.362  0.5689 -0.8890 -1.3830
  140OSM   H13T15228   5.754   1.021   3.369 -2.4383  0.0074  2.5620
  140OSM   C14S15229   5.653   1.133   3.513 -0.8126 -0.0550 -0.7457
  140OSM   H14S15230   5.560   1.072   3.521 -1.4966  0.7076 -2.2940
  140OSM   H14T15231   5.625   1.240   3.517 -0.4844  0.0339 -0.8217
  140OSM   C15S15232   5.752   1.112   3.627 -0.3629  0.1412 -0.4582
  140OSM   H15S15233   5.846   1.170   3.619  1.9188 -2.7968  2.4189
  140OSM   H15T15234   5.774   1.005   3.644  0.3039 -0.2188 -3.0820
  140OSM   C16S15235   5.691   1.148   3.758  0.3065  0.2940 -1.2287
  140OSM   H16S15236   5.594   1.095   3.770 -0.8258  2.0829 -2.1456
  140OSM   H16T15237   5.659   1.254   3.759 -0.5730  0.1009 -3.2963
  140OSM   C17S15238   5.766   1.120   3.884 -0.6343 -0.1196  0.0324
  140OSM   H17S15239   5.780   1.212   3.944  0.1235 -0.2285  0.0244
  140OSM   H17T15240   5.868   1.083   3.864 -0.0231 -0.3383  3.1120
  140OSM   C18S15241   5.691   1.011   3.970 -0.4453 -0.5018 -0.2060
  140OSM   H18S15242   5.583   1.035   3.981 -0.8447 -1.0206 -2.4447
  140OSM   H18T15243   5.747   1.017   4.066 -0.2703  2.7073 -0.4046
  140OSM   H18U15244   5.711   0.908   3.933  3.6084  0.0787 -0.0491
  140OSM    C1F15245   6.121   1.288   2.283  0.6343 -0.3039 -0.2115
  140OSM     OF15246   6.141   1.362   2.188 -0.0709  0.3257  0.1121
  140OSM    C2F15247   6.195   1.305   2.411  0.9337  0.2692  0.9396
  140OSM    H2F15248   6.275   1.227   2.409 -0.1368 -0.8462  0.5739
  140OSM    H2G15249   6.124   1.273   2.491 -0.6749 -2.0933 -1.2701
  140OSM    C3F15250   6.253   1.445   2.429 -0.2762 -0.2205 -0.5966
  140OSM    H3F15251   6.173   1.517   2.402 -1.6817 -1.8798 -1.0891
  140OSM    H3G15252   6.333   1.466   2.355 -0.7204  0.3995 -0.9075
  140OSM    C4F15253   6.304   1.466   2.573 -0.6356 -0.4890 -0.5487
  140OSM    H4F15254   6.371   1.383   2.605  1.3494  1.4746  0.6527
  140OSM    H4G15255   6.213   1.469   2.637  0.4401  3.2962  1.0667
  140OSM    C5F15256   6.381   1.600   2.586  0.3042 -0.2932 -1.1458
  140OSM    H5F15257   6.323   1.688   2.553  1.0175  0.5022 -0.3279
  140OSM    H5G15258   6.475   1.593   2.527  1.6466  0.0732  0.8661
  140OSM    C6F15259   6.419   1.644   2.730 -0.1118 -0.3181  0.2774
  140OSM    H6F15260   6.328   1.667   2.790  1.4995  2.6221  1.8567
  140OSM    H6G15261   6.485   1.734   2.730  0.2408 -0.5724  0.8503
  140OSM    C7F15262   6.489   1.532   2.806  0.2409  0.5645  0.7821
  140OSM    H7F15263   6.585   1.507   2.757 -1.0693 -2.1853 -0.6375
  140OSM    H7G15264   6.432   1.437   2.795  2.6249 -0.9938  1.2857
  140OSM    C8F15265   6.504   1.549   2.955 -0.1342  0.7009  0.3226
  140OSM    H8F15266   6.561   1.644   2.966  0.9979  0.0504  0.2518
  140OSM    H8G15267   6.569   1.469   2.997  0.9573  0.3353 -1.9191
  140OSM    C9F15268   6.370   1.552   3.022 -0.0283 -0.7604 -0.1698
  140OSM    H9F15269   6.280   1.558   2.959 -0.2530 -2.5699 -0.0693
  140OSM   C10F15270   6.345   1.534   3.154  0.5593 -0.1895 -0.0550
  140OSM   H10F15271   6.247   1.544   3.205 -1.6334 -2.4761 -3.4277
  140OSM   C11F15272   6.458   1.525   3.253  0.2436 -0.4527 -0.1543
  140OSM   H11F15273   6.491   1.625   3.289  0.7127 -1.1916  1.5847
  140OSM   H11G15274   6.546   1.468   3.214  0.8445  0.3706 -0.0226
  140OSM   C12F15275   6.403   1.444   3.385 -0.1083 -0.2633  0.4838
  140OSM   H12F15276   6.368   1.349   3.339  0.2546  0.3208 -1.0675
  140OSM   H12G15277   6.324   1.499   3.440 -1.7231 -0.4881 -1.4986
  140OSM   C13F15278   6.523   1.415   3.476  0.0855 -0.4654  0.4562
  140OSM   H13F15279   6.578   1.511   3.488 -1.1385  0.5363 -1.4196
  140OSM   H13G15280   6.592   1.346   3.424 -0.2973  1.0949 -2.3214
  140OSM   C14F15281   6.492   1.364   3.623  0.0511  0.0357  0.3223
  140OSM   H14F15282   6.584   1.339   3.680 -1.1716 -1.2406  1.8369
  140OSM   H14G15283   6.427   1.275   3.615 -1.9727  1.6449 -3.5875
  140OSM   C15F15284   6.417   1.483   3.690 -0.3345  0.0799 -0.5178
  140OSM   H15F15285   6.310   1.481   3.659 -0.4135  0.0760 -0.2491
  140OSM   H15G15286   6.474   1.576   3.675  3.4159 -1.5694  1.9857
  140OSM   C16F15287   6.415   1.467   3.842 -0.2738  0.0741 -0.8144
  140OSM   H16F15288   6.371   1.559   3.886  0.9616  0.2698  0.0750
  140OSM   H16G15289   6.522   1.454   3.870 -0.3675 -0.2228 -0.5788
  140OSM   C17F15290   6.346   1.337   3.903  0.2001 -0.5598 -0.0434
  140OSM   H17F15291   6.411   1.250   3.878  1.1906  0.6221 -1.8286
  140OSM   H17G15292   6.251   1.331   3.846 -1.2632 -0.5471  2.3003
  140OSM   C18F15293   6.320   1.355   4.052  0.3704  0.1905  0.6774
  140OSM   H18F15294   6.252   1.440   4.077  1.5099  0.6617  2.3533
  140OSM   H18G15295   6.407   1.368   4.120 -0.7400 -0.3083  2.2577
  140OSM   H18H15296   6.257   1.274   4.094 -1.3396  1.5780  0.9171
  141OSM      N15297   3.446   5.852   2.220  0.0855 -0.5751  0.6756
  141OSM    C1515298   3.509   5.822   2.079 -0.2022 -0.7701 -0.4218
  141OSM   H15A15299   3.432   5.824   2.003 -0.7639  0.8178  0.1388
  141OSM   H15B15300   3.549   5.723   2.066 -0.0107 -0.7350 -0.1078
  141OSM   H15C15301   3.585   5.898   2.066 -0.3853 -0.1420  1.7803
  141OSM    C1415302   3.336   5.754   2.250  0.1677 -0.3734  0.0297
  141OSM   H14A15303   3.246   5.781   2.196  0.4365 -0.8553 -0.6693
  141OSM   H14B15304   3.318   5.758   2.356  0.3866  1.4634  0.0348
  141OSM   H14C15305   3.367   5.654   2.226 -2.0281 -0.5360 -2.6506
  141OSM    C1315306   3.562   5.833   2.314  0.6355 -0.1962  0.2757
  141OSM   H13A15307   3.631   5.913   2.294  1.0634 -0.3658  1.0215
  141OSM   H13B15308   3.599   5.734   2.295 -1.9307 -1.9641  3.3041
  141OSM   H13C15309   3.534   5.833   2.419 -0.7312  1.4256 -0.0425
  141OSM    C1215310   3.388   5.993   2.228  0.1624 -0.1828  0.7329
  141OSM   H12A15311   3.458   6.065   2.188  1.3928 -2.4865 -1.5119
  141OSM   H12B15312   3.391   6.017   2.333 -2.2830 -0.6890  0.9955
  141OSM    C1115313   3.243   6.040   2.175  0.2046  0.8987  0.2039
  141OSM   H11A15314   3.249   6.151   2.176  1.5963  0.8614 -0.8476
  141OSM   H11B15315   3.167   6.009   2.250 -0.3572  2.3695  0.2808
  141OSM      P15316   3.058   5.938   2.015 -0.0684  0.0199  0.2519
  141OSM    O1315317   3.040   5.963   1.865 -0.1809 -0.3825 -0.1651
  141OSM    O1415318   3.043   5.796   2.058 -0.0993 -0.1431 -0.4044
  141OSM    O1115319   2.968   6.036   2.103 -0.5046 -0.3445 -0.0056
  141OSM    O1215320   3.209   5.986   2.048 -0.4072  0.5735 -0.2569
  141OSM    C1S15321   2.827   6.020   2.105  0.7421  0.1846 -0.3890
  141OSM    H1S15322   2.792   5.921   2.069  1.8529 -0.1595 -0.5671
  141OSM    H1T15323   2.784   6.092   2.033 -0.5667 -1.0472 -0.8811
  141OSM     NF15324   2.618   6.033   2.251  0.2759 -0.9095  0.3194
  141OSM    HNF15325   2.551   6.100   2.222 -1.9859 -3.0392  0.3807
  141OSM    C2S15326   2.760   6.075   2.241 -0.4828 -0.2799 -0.7418
  141OSM    H2S15327   2.807   6.026   2.329  1.3198  2.2912 -0.1577
  141OSM    C3S15328   2.793   6.230   2.276 -0.7289 -0.0954 -0.6959
  141OSM    H3S15329   2.758   6.303   2.200  2.0413 -0.3224 -2.3475
  141OSM     O315330   2.932   6.257   2.276  0.0846  0.5628  0.0956
  141OSM    HO315331   2.955   6.184   2.219 -0.9448 -0.2792  0.7320
  141OSM    C4S15332   2.749   6.268   2.413 -0.1212 -0.3068  0.1382
  141OSM    H4S15333   2.801   6.218   2.496 -1.0296 -0.1436  0.8282
  141OSM    C5S15334   2.654   6.357   2.439  0.3328  0.5406  0.1089
  141OSM    H5S15335   2.590   6.406   2.364 -0.1142  2.4653  1.6634
  141OSM    C6S15336   2.617   6.392   2.583  0.9456  0.6192 -0.3590
  141OSM    H6S15337   2.513   6.356   2.603  0.4907  1.4785 -1.1082
  141OSM    H6T15338   2.626   6.502   2.594 -1.1697  1.1840 -3.1906
  141OSM    C7S15339   2.697   6.324   2.697 -0.4681 -0.1832  0.6968
  141OSM    H7S15340   2.807   6.326   2.687 -0.5787 -1.9534 -1.7707
  141OSM    H7T15341   2.672   6.215   2.702 -1.1475 -0.0484  0.3526
  141OSM    C8S15342   2.663   6.386   2.831  0.1029 -0.3155 -0.2327
  141OSM    H8S15343   2.554   6.372   2.848 -0.0820  2.2203  1.0966
  141OSM    H8T15344   2.677   6.496   2.821 -2.2688 -0.1634 -3.5033
  141OSM    C9S15345   2.733   6.322   2.956 -0.4884  0.0565 -0.3086
  141OSM    H9S15346   2.837   6.361   2.949 -0.0933 -0.5914  1.3809
  141OSM    H9T15347   2.715   6.213   2.966  0.9306 -0.0156  2.7361
  141OSM   C10S15348   2.674   6.369   3.094 -0.2837  0.2182  0.4546
  141OSM   H10S15349   2.589   6.300   3.117 -0.8922  1.0930  0.8590
  141OSM   H10T15350   2.636   6.473   3.081 -0.4351  0.8402  4.5464
  141OSM   C11S15351   2.770   6.357   3.211  0.2604 -0.0718  0.5504
  141OSM   H11S15352   2.871   6.400   3.189 -0.7558  1.8813 -0.5763
  141OSM   H11T15353   2.788   6.250   3.236 -2.2831 -0.9297 -1.0251
  141OSM   C12S15354   2.713   6.418   3.345  0.4722 -0.3010  0.3125
  141OSM   H12S15355   2.621   6.362   3.374 -1.1282  1.1184 -1.7412
  141OSM   H12T15356   2.684   6.524   3.328  1.5081 -0.1606 -0.6913
  141OSM   C13S15357   2.813   6.402   3.462  0.1572  0.6035 -0.2737
  141OSM   H13S15358   2.894   6.478   3.455  1.2281 -0.5212 -0.4858
  141OSM   H13T15359   2.855   6.299   3.459  1.2340  1.0469 -0.9567
  141OSM   C14S15360   2.750   6.416   3.596 -0.6626 -0.1272 -0.4186
  141OSM   H14S15361   2.672   6.338   3.611 -2.2394  1.4423 -0.1393
  141OSM   H14T15362   2.697   6.514   3.602  0.2974  0.3822  0.0210
  141OSM   C15S15363   2.853   6.398   3.711  0.1553 -0.0515 -0.5824
  141OSM   H15S15364   2.950   6.449   3.695  1.0757 -1.6447 -0.3155
  141OSM   H15T15365   2.886   6.292   3.710  1.9209  0.4746 -1.4274
  141OSM   C16S15366   2.797   6.435   3.845  0.7648 -0.3387  0.3023
  141OSM   H16S15367   2.708   6.371   3.861 -0.3360  0.6965 -1.3642
  141OSM   H16T15368   2.758   6.539   3.839 -1.6130 -1.0767  1.7007
  141OSM   C17S15369   2.897   6.427   3.963  0.4677 -0.0246 -0.2373
  141OSM   H17S15370   2.838   6.454   4.053 -0.7218 -3.6343  0.2282
  141OSM   H17T15371   2.981   6.500   3.961  1.4573 -1.0688  1.3632
  141OSM   C18S15372   2.951   6.282   3.979 -0.8304  0.3833  0.6775
  141OSM   H18S15373   3.005   6.258   3.885  0.0158 -1.6358  1.6126
  141OSM   H18T15374   2.864   6.212   3.981 -1.3557  0.9165 -1.4112
  141OSM   H18U15375   3.028   6.280   4.058 -0.9972  1.4572  0.8714
  141OSM    C1F15376   2.587   5.903   2.263 -0.8281 -0.6044 -0.5812
  141OSM     OF15377   2.669   5.818   2.299  0.1223 -0.2304  0.2935
  141OSM    C2F15378   2.441   5.865   2.220 -0.0968  0.1464  0.0387
  141OSM    H2F15379   2.441   5.865   2.109  0.7942  1.1920  0.0196
  141OSM    H2G15380   2.371   5.936   2.270 -0.8376 -1.5329  1.4987
  141OSM    C3F15381   2.401   5.721   2.260 -0.0814  0.0431  0.6213
  141OSM    H3F15382   2.394   5.725   2.370 -1.5171  0.5857  0.5366
  141OSM    H3G15383   2.479   5.653   2.220  0.7222 -0.6086  3.1468
  141OSM    C4F15384   2.275   5.664   2.204  0.9970  0.4576  0.5632
  141OSM    H4F15385   2.294   5.659   2.095  2.8105 -0.1333  0.8705
  141OSM    H4G15386   2.190   5.735   2.221 -0.6197 -1.0367 -0.9183
  141OSM    C5F15387   2.232   5.527   2.263  0.1644 -0.5567  0.3733
  141OSM    H5F15388   2.320   5.465   2.289  0.0148 -1.7464 -1.7449
  141OSM    H5G15389   2.175   5.468   2.188 -0.2731 -0.4019  0.5772
  141OSM    C6F15390   2.124   5.546   2.373 -0.1278 -0.3670  0.0881
  141OSM    H6F15391   2.039   5.606   2.332  0.7477  1.4589  0.8079
  141OSM    H6G15392   2.157   5.608   2.459  1.5544  0.2758 -0.9734
  141OSM    C7F15393   2.062   5.414   2.434  0.0446  0.0091  0.1075
  141OSM    H7F15394   2.023   5.360   2.344  0.3122  1.0216 -0.6305
  141OSM    H7G15395   1.971   5.440   2.491 -0.1732  1.3275 -0.7997
  141OSM    C8F15396   2.152   5.334   2.533  0.1212  0.2952  0.1281
  141OSM    H8F15397   2.193   5.404   2.609  0.1339 -0.0170  0.4130
  141OSM    H8G15398   2.249   5.297   2.493 -0.0864  1.0406 -1.1356
  141OSM    C9F15399   2.091   5.205   2.588  0.2705  0.2304  0.4476
  141OSM    H9F15400   2.104   5.114   2.527  3.7857  0.6468  0.3963
  141OSM   C10F15401   2.026   5.183   2.703  0.5680 -0.2485  0.0738
  141OSM   H10F15402   1.989   5.081   2.723  0.9798 -0.0248  2.2853
  141OSM   C11F15403   1.988   5.289   2.806 -0.1212  0.0935 -0.3751
  141OSM   H11F15404   1.904   5.346   2.759  0.6219  0.4003 -1.3615
  141OSM   H11G15405   2.073   5.351   2.841 -1.7273  1.8162  0.6940
  141OSM   C12F15406   1.918   5.253   2.940 -0.4386 -0.0910  0.7336
  141OSM   H12F15407   1.973   5.186   3.009 -2.7687 -1.4965  1.3360
  141OSM   H12G15408   1.828   5.193   2.915  0.0435 -1.6669  2.5516
  141OSM   C13F15409   1.882   5.383   3.018 -0.2169 -0.2793  0.1424
  141OSM   H13F15410   1.856   5.461   2.943  0.4822 -0.6992 -0.5523
  141OSM   H13G15411   1.976   5.408   3.072 -0.4615 -0.4459  0.6528
  141OSM   C14F15412   1.772   5.367   3.125 -0.1331 -0.6092  0.4031
  141OSM   H14F15413   1.681   5.347   3.065 -1.0012  0.2965  1.3753
  141OSM   H14G15414   1.766   5.465   3.179  0.8198 -0.2694 -0.0897
  141OSM   C15F15415   1.792   5.257   3.227 -0.4611 -0.7169  0.0135
  141OSM   H15F15416   1.829   5.161   3.186 -3.1225 -0.8798 -2.3643
  141OSM   H15G15417   1.695   5.236   3.277 -0.9076  1.3012  0.0987
  141OSM   C16F15418   1.888   5.310   3.332 -0.1214 -0.1783  0.2225
  141OSM   H16F15419   1.868   5.418   3.344  2.4694  0.6008 -1.5996
  141OSM   H16G15420   1.994   5.302   3.299 -0.3715  0.3344 -0.7513
  141OSM   C17F15421   1.883   5.230   3.466 -0.4087 -0.1631  0.3425
  141OSM   H17F15422   1.910   5.131   3.422  0.7159  0.6944 -0.9597
  141OSM   H17G15423   1.783   5.229   3.513 -0.8648 -0.9770 -0.5961
  141OSM   C18F15424   1.993   5.295   3.556 -0.0635  0.0962  0.3324
  141OSM   H18F15425   1.966   5.402   3.567 -0.4792 -0.1507  1.9280
  141OSM   H18G15426   2.091   5.280   3.505  0.9859  1.5947  1.7801
  141OSM   H18H15427   1.993   5.254   3.660 -0.4277 -0.5799  0.0681
  142OSM      N15428   1.654   0.692   2.024  0.4352  0.4250 -0.3066
  142OSM    C1515429   1.692   0.599   2.147  0.1081 -0.3097  0.4075
  142OSM   H15A15430   1.667   0.494   2.135 -2.6948  0.2498  0.8102
  142OSM   H15B15431   1.624   0.625   2.227  2.1392  3.9250  1.0322
  142OSM   H15C15432   1.795   0.617   2.173  0.7302  0.0250 -2.0942
  142OSM    C1415433   1.515   0.641   1.979  0.3353  0.6659 -0.3388
  142OSM   H14A15434   1.442   0.654   2.058  0.1501 -1.4374 -0.1050
  142OSM   H14B15435   1.505   0.536   1.955  1.2789  0.1827  1.2663
  142OSM   H14C15436   1.479   0.693   1.891 -0.1225  1.7923  0.4910
  142OSM    C1315437   1.641   0.832   2.073 -0.4589 -0.2087 -0.0932
  142OSM   H13A15438   1.562   0.837   2.147 -1.5685  4.0652 -1.2716
  142OSM   H13B15439   1.616   0.902   1.995  0.1007 -0.6674 -0.6912
  142OSM   H13C15440   1.736   0.860   2.117 -0.7025  1.4963 -0.5630
  142OSM    C1215441   1.755   0.668   1.910  0.2195 -0.3231  0.5715
  142OSM   H12A15442   1.720   0.727   1.827  0.6693  0.5126  0.9616
  142OSM   H12B15443   1.759   0.563   1.883 -0.5639 -0.2576  0.1903
  142OSM    C1115444   1.904   0.706   1.940  0.1974 -0.1565 -0.0353
  142OSM   H11A15445   1.897   0.817   1.950  0.9208 -0.0431 -0.6437
  142OSM   H11B15446   1.958   0.683   1.846 -1.1576 -0.0458 -0.8668
  142OSM      P15447   2.111   0.690   2.078 -0.0055  0.1674  0.0771
  142OSM    O1315448   2.167   0.627   2.198 -0.7919  0.7679  0.2333
  142OSM    O1415449   2.184   0.662   1.955 -0.5357  0.2514 -0.3133
  142OSM    O1115450   2.111   0.851   2.105  0.2417 -0.6804  0.3144
  142OSM    O1215451   1.962   0.651   2.061  0.2139 -0.2988  0.0642
  142OSM    C1S15452   2.048   0.902   2.219 -0.1328 -0.1082 -0.3767
  142OSM    H1S15453   1.980   0.830   2.269 -1.4885  2.6181  1.9918
  142OSM    H1T15454   1.974   0.982   2.199 -2.5328 -2.2087 -0.4414
  142OSM     NF15455   2.078   0.990   2.446  0.2220 -0.3340 -0.2021
  142OSM    HNF15456   2.056   1.087   2.457  0.1450 -0.5304  1.8900
  142OSM    C2S15457   2.148   0.954   2.327 -0.5128  0.1857 -0.1240
  142OSM    H2S15458   2.217   0.875   2.365 -1.4284  0.4264  2.1638
  142OSM    C3S15459   2.233   1.066   2.263 -0.0080 -1.0213  0.3086
  142OSM    H3S15460   2.173   1.157   2.242  2.0242  0.5188  0.8849
  142OSM     O315461   2.295   1.025   2.139  0.2882 -0.0163 -0.0572
  142OSM    HO315462   2.242   0.949   2.113  0.2824  0.1033 -0.4057
  142OSM    C4S15463   2.355   1.117   2.341  0.0552 -0.5044 -0.4871
  142OSM    H4S15464   2.420   1.040   2.385  0.7875  0.7185  0.6384
  142OSM    C5S15465   2.377   1.249   2.357 -0.2618 -0.2408 -0.1657
  142OSM    H5S15466   2.310   1.324   2.311  0.5933  0.4472 -0.3239
  142OSM    C6S15467   2.475   1.316   2.444 -0.5372 -0.3064 -0.2256
  142OSM    H6S15468   2.420   1.404   2.482 -2.4698 -0.3498 -2.5885
  142OSM    H6T15469   2.567   1.348   2.391 -0.0058  0.1996  0.9945
  142OSM    C7S15470   2.509   1.206   2.551 -0.2979 -0.4225  0.8834
  142OSM    H7S15471   2.575   1.125   2.511  0.2011  0.0904  0.6609
  142OSM    H7T15472   2.414   1.170   2.595 -0.1446 -3.1241 -0.7385
  142OSM    C8S15473   2.596   1.263   2.664  0.0402  0.3511 -0.5904
  142OSM    H8S15474   2.696   1.303   2.635 -0.2032  1.7221  0.3594
  142OSM    H8T15475   2.622   1.175   2.726 -1.1412 -0.0931 -0.6895
  142OSM    C9S15476   2.522   1.376   2.746 -0.1918  0.1428  0.3554
  142OSM    H9S15477   2.414   1.349   2.750 -0.8138  2.2064 -0.9103
  142OSM    H9T15478   2.534   1.469   2.687 -1.8312 -0.0303 -0.3050
  142OSM   C10S15479   2.578   1.398   2.889  0.1588  0.1755 -0.4320
  142OSM   H10S15480   2.587   1.509   2.897  0.0832  0.1336  0.2847
  142OSM   H10T15481   2.676   1.346   2.887  1.1647  1.9740 -0.3927
  142OSM   C11S15482   2.482   1.359   3.001 -0.4198  0.4221 -0.1311
  142OSM   H11S15483   2.466   1.250   3.005  0.3162  0.2611 -1.2215
  142OSM   H11T15484   2.382   1.407   2.996 -0.3902  0.6509  1.1230
  142OSM   C12S15485   2.546   1.398   3.133  0.4141 -0.1343 -0.2353
  142OSM   H12S15486   2.537   1.506   3.155  1.9574 -0.4016  2.1255
  142OSM   H12T15487   2.652   1.368   3.124  1.4089  2.8239  0.6377
  142OSM   C13S15488   2.480   1.330   3.258 -0.1237  0.5053  0.0972
  142OSM   H13S15489   2.512   1.224   3.246  1.8133  1.0538  0.0672
  142OSM   H13T15490   2.370   1.339   3.247 -0.4535 -3.1702 -1.2369
  142OSM   C14S15491   2.534   1.380   3.392  0.5033 -0.4600 -0.0825
  142OSM   H14S15492   2.551   1.490   3.392  4.1217 -0.8767  0.3595
  142OSM   H14T15493   2.636   1.341   3.413  0.8752  1.4594  2.1563
  142OSM   C15S15494   2.457   1.342   3.522 -0.8106  0.1663 -0.0872
  142OSM   H15S15495   2.445   1.233   3.505  0.2024 -0.8746  4.4306
  142OSM   H15T15496   2.358   1.392   3.532 -0.5912  0.6362 -0.2547
  142OSM   C16S15497   2.545   1.381   3.639 -0.0069  0.3815  0.1015
  142OSM   H16S15498   2.566   1.490   3.640  0.3865  0.4010 -2.6373
  142OSM   H16T15499   2.648   1.344   3.622  0.1971  0.5423  0.9103
  142OSM   C17S15500   2.511   1.321   3.777 -0.4762  0.3356 -0.3029
  142OSM   H17S15501   2.525   1.211   3.787  2.2799  0.6813  0.2883
  142OSM   H17T15502   2.412   1.339   3.825  0.6825  0.6519  2.1531
  142OSM   C18S15503   2.607   1.378   3.880 -0.1383 -0.3308 -0.1140
  142OSM   H18S15504   2.610   1.320   3.975  0.8950 -0.9340 -0.4867
  142OSM   H18T15505   2.594   1.487   3.892  2.5399  0.3332 -2.1861
  142OSM   H18U15506   2.712   1.364   3.845  0.0997 -1.0382  0.8200
  142OSM    C1F15507   2.036   0.906   2.538 -0.1853  0.3256  0.0554
  142OSM     OF15508   2.042   0.782   2.525 -0.5375  0.0267 -0.3058
  142OSM    C2F15509   1.981   0.979   2.657 -0.1092  0.1025 -0.3105
  142OSM    H2F15510   1.896   0.916   2.691 -1.3002  2.4658  1.3387
  142OSM    H2G15511   1.932   1.075   2.631 -2.2069 -0.1921  2.1595
  142OSM    C3F15512   2.079   0.990   2.772 -0.1569  0.0852  0.0487
  142OSM    H3F15513   2.159   1.062   2.743 -0.4704  0.6430  0.5458
  142OSM    H3G15514   2.128   0.895   2.803  0.2488  0.5880  0.9740
  142OSM    C4F15515   2.015   1.053   2.904  0.2042  0.3005  0.2157
  142OSM    H4F15516   1.919   0.997   2.918 -0.1912  1.2303  1.3415
  142OSM    H4G15517   2.005   1.163   2.894 -0.3983  0.2473  0.1618
  142OSM    C5F15518   2.097   1.028   3.026  0.0480  0.1055  0.8236
  142OSM    H5F15519   2.204   1.059   3.019  0.1565 -0.3093  0.6136
  142OSM    H5G15520   2.092   0.917   3.038 -0.9077 -0.0030 -0.3386
  142OSM    C6F15521   2.044   1.088   3.156 -1.0950 -0.0302 -0.4850
  142OSM    H6F15522   1.944   1.043   3.178  0.5521 -2.6759  2.6153
  142OSM    H6G15523   2.033   1.197   3.143 -0.8167  0.1174  0.4143
  142OSM    C7F15524   2.142   1.071   3.278  0.3786  0.3356  0.3577
  142OSM    H7F15525   2.248   1.085   3.245  0.6402 -0.4790  0.8363
  142OSM    H7G15526   2.153   0.964   3.303  2.2073 -0.3940 -2.9716
  142OSM    C8F15527   2.129   1.163   3.396 -0.3404 -0.7974 -0.0479
  142OSM    H8F15528   2.152   1.270   3.376  0.2349 -0.6898  1.1184
  142OSM    H8G15529   2.208   1.127   3.466  1.7935  0.2934 -1.7367
  142OSM    C9F15530   1.989   1.165   3.454 -0.8597  0.3175 -0.6147
  142OSM    H9F15531   1.918   1.214   3.385 -0.5896 -0.3954 -1.4085
  142OSM   C10F15532   1.947   1.119   3.569 -0.2410 -0.1388 -0.3348
  142OSM   H10F15533   1.839   1.107   3.584 -0.1439 -2.4085 -0.9702
  142OSM   C11F15534   2.037   1.037   3.661  0.4441 -0.6391 -0.5339
  142OSM   H11F15535   2.063   1.106   3.744 -0.9004  0.8464 -1.2699
  142OSM   H11G15536   2.125   0.993   3.610  0.3027 -1.8249  0.2081
  142OSM   C12F15537   1.967   0.915   3.720  0.4651  1.0288 -0.8570
  142OSM   H12F15538   2.039   0.857   3.782 -0.1660  1.7975  0.6266
  142OSM   H12G15539   1.935   0.857   3.631 -0.4468  1.9441 -1.1354
  142OSM   C13F15540   1.834   0.919   3.800 -0.0220 -0.3771 -0.0768
  142OSM   H13F15541   1.789   0.818   3.794  1.0021 -0.8124 -0.8138
  142OSM   H13G15542   1.761   0.987   3.751 -0.1895 -0.5711 -0.0965
  142OSM   C14F15543   1.859   0.958   3.942  0.1343  0.3956  0.3937
  142OSM   H14F15544   1.910   1.055   3.956 -1.2312  1.0897  0.6975
  142OSM   H14G15545   1.938   0.882   3.965 -1.0458 -1.1901 -0.5492
  142OSM   C15F15546   1.745   0.938   4.040 -0.1811  0.2530 -0.4161
  142OSM   H15F15547   1.726   0.829   4.051  1.8814 -0.2760 -1.6009
  142OSM   H15G15548   1.652   0.982   3.998 -0.4850 -0.1152 -0.1449
  142OSM   C16F15549   1.772   1.002   4.179 -0.3799 -0.4378 -0.1602
  142OSM   H16F15550   1.771   1.112   4.168 -0.9129 -0.5257 -1.0558
  142OSM   H16G15551   1.879   0.974   4.194 -0.8162 -2.1072 -0.0053
  142OSM   C17F15552   1.678   0.965   4.289 -0.1264 -0.4835 -0.2823
  142OSM   H17F15553   1.685   0.854   4.286  0.5088 -0.4398 -3.6482
  142OSM   H17G15554   1.573   0.995   4.266  0.5951  1.2686 -1.5038
  142OSM   C18F15555   1.730   1.008   4.432  0.1332 -0.2009 -0.2224
  142OSM   H18F15556   1.661   0.978   4.514  1.6117 -0.8678  0.8347
  142OSM   H18G15557   1.726   1.116   4.454  2.0010  0.0126 -0.6774
  142OSM   H18H15558   1.834   0.975   4.453  1.0458  2.7638  0.3856
  143OSM      N15559   1.755   0.052   2.043  0.6290  0.2666  0.7561
  143OSM    C1515560   1.722  -0.096   2.028  0.4453  0.1417  0.8132
  143OSM   H15A15561   1.784  -0.160   2.090  1.4562 -0.7598 -1.0420
  143OSM   H15B15562   1.743  -0.125   1.926  3.6494  1.4555  0.9737
  143OSM   H15C15563   1.619  -0.118   2.053  0.3494 -2.4168 -1.4099
  143OSM    C1415564   1.905   0.062   2.015 -0.6881  0.4021  0.6368
  143OSM   H14A15565   1.932   0.023   1.917 -2.0247  0.0870  0.3745
  143OSM   H14B15566   1.961  -0.001   2.082 -0.3573  0.8528  0.7888
  143OSM   H14C15567   1.945   0.162   2.023  2.4964 -0.6163 -0.7251
  143OSM    C1315568   1.678   0.127   1.935 -1.0933 -0.0579 -0.4355
  143OSM   H13A15569   1.720   0.223   1.906 -0.1489 -0.7321 -1.4031
  143OSM   H13B15570   1.574   0.133   1.965 -1.1432 -1.7670 -0.2001
  143OSM   H13C15571   1.683   0.062   1.849 -0.8953 -1.6717  0.7461
  143OSM    C1215572   1.719   0.109   2.185 -0.0224  0.4092  0.7329
  143OSM   H12A15573   1.753   0.211   2.185 -0.6474  0.7210 -2.2210
  143OSM   H12B15574   1.784   0.046   2.244  0.9797 -0.3443 -1.0701
  143OSM    C1115575   1.573   0.112   2.233 -0.4640 -0.0761  0.3563
  143OSM   H11A15576   1.530   0.208   2.196  0.9620  0.7772  0.8430
  143OSM   H11B15577   1.598   0.131   2.339  0.4532 -1.8117  0.4861
  143OSM      P15578   1.381  -0.029   2.115 -0.0637 -1.0127 -0.2683
  143OSM    O1315579   1.313   0.100   2.095  0.7011  0.5090  0.3182
  143OSM    O1415580   1.430  -0.108   2.001  0.5140 -0.2028 -0.0617
  143OSM    O1115581   1.297  -0.132   2.205  0.0650  0.0980  0.1085
  143OSM    O1215582   1.499  -0.007   2.213 -0.9436 -0.5370 -0.6264
  143OSM    C1S15583   1.330  -0.193   2.330  0.1037  0.4958 -0.6450
  143OSM    H1S15584   1.439  -0.209   2.338 -0.0071 -1.7803 -2.6232
  143OSM    H1T15585   1.291  -0.296   2.324 -0.6040  0.7025  0.1645
  143OSM     NF15586   1.322  -0.156   2.573 -0.4036 -0.0842 -0.1692
  143OSM    HNF15587   1.265  -0.217   2.627 -0.5902 -0.1703 -0.4586
  143OSM    C2S15588   1.264  -0.116   2.444 -0.4899 -0.1227 -0.4117
  143OSM    H2S15589   1.288  -0.008   2.440 -1.2053  0.0131 -1.5822
  143OSM    C3S15590   1.108  -0.132   2.430  0.5142  0.0076 -0.6108
  143OSM    H3S15591   1.079  -0.239   2.425 -2.0058  0.4473  1.9918
  143OSM     O315592   1.055  -0.059   2.320 -0.1041  0.4693 -0.2067
  143OSM    HO315593   1.126  -0.046   2.257 -0.8705  1.9624 -0.8141
  143OSM    C4S15594   1.040  -0.082   2.555  0.1312 -0.1836 -0.8330
  143OSM    H4S15595   1.093  -0.014   2.623  1.2607 -0.7000 -1.1713
  143OSM    C5S15596   0.914  -0.107   2.595 -0.1643 -0.5245  0.7090
  143OSM    H5S15597   0.858  -0.185   2.542 -0.6409 -0.1008  0.5789
  143OSM    C6S15598   0.845  -0.063   2.720  0.1772 -0.4030 -0.6242
  143OSM    H6S15599   0.734  -0.066   2.716 -0.1222  1.3453  2.6280
  143OSM    H6T15600   0.861   0.042   2.754  0.7177 -0.2754 -1.2536
  143OSM    C7S15601   0.890  -0.157   2.834 -0.0502 -0.0794  0.3840
  143OSM    H7S15602   1.000  -0.165   2.843  0.1507  1.5162 -0.2553
  143OSM    H7T15603   0.848  -0.259   2.820  2.0090 -1.0794  1.0862
  143OSM    C8S15604   0.836  -0.101   2.979  0.1688  0.0195  1.2379
  143OSM    H8S15605   0.882  -0.001   2.982  2.1194 -0.8098  0.5023
  143OSM    H8T15606   0.885  -0.165   3.056 -0.4868 -2.8012 -0.5192
  143OSM    C9S15607   0.684  -0.087   3.002 -0.2257  0.0256  0.2517
  143OSM    H9S15608   0.637  -0.184   2.979  2.3309 -1.2272 -0.0742
  143OSM    H9T15609   0.638  -0.025   2.921  0.0916  0.5881  0.4925
  143OSM   C10S15610   0.625  -0.042   3.136 -0.5279 -0.4328 -0.9953
  143OSM   H10S15611   0.520  -0.011   3.115 -1.1744 -1.9746 -0.2346
  143OSM   H10T15612   0.688   0.033   3.187 -1.7340 -0.1470  0.1604
  143OSM   C11S15613   0.631  -0.151   3.248  0.1069 -0.1826  0.5208
  143OSM   H11S15614   0.735  -0.181   3.274  0.7929 -0.4019 -2.2223
  143OSM   H11T15615   0.582  -0.244   3.212  2.0937 -1.4860  0.9927
  143OSM   C12S15616   0.564  -0.109   3.385  0.4452 -0.6461 -0.1366
  143OSM   H12S15617   0.603  -0.190   3.450  2.1926  0.9630  0.9030
  143OSM   H12T15618   0.455  -0.126   3.370  0.4460 -0.8364  0.0666
  143OSM   C13S15619   0.610   0.028   3.427 -0.2369  0.2534 -0.6494
  143OSM   H13S15620   0.547   0.093   3.363 -0.7911  0.1273 -0.2392
  143OSM   H13T15621   0.716   0.048   3.403  0.5258 -2.0124  0.5816
  143OSM   C14S15622   0.594   0.038   3.577  0.3330  0.0306 -0.1079
  143OSM   H14S15623   0.666  -0.034   3.621  3.0951  1.8884 -1.2599
  143OSM   H14T15624   0.489   0.019   3.609  1.1438 -1.5633  1.7782
  143OSM   C15S15625   0.627   0.180   3.638  0.0672 -0.0245  0.6419
  143OSM   H15S15626   0.560   0.260   3.598  0.8583  1.4763  2.1968
  143OSM   H15T15627   0.724   0.213   3.594 -1.7558  0.8608 -3.1335
  143OSM   C16S15628   0.641   0.199   3.788  0.0167  0.3663 -0.2264
  143OSM   H16S15629   0.655   0.309   3.803  1.2329  0.1818  0.0601
  143OSM   H16T15630   0.740   0.152   3.804 -0.6614 -1.2563 -0.5787
  143OSM   C17S15631   0.527   0.133   3.869  0.4269  0.5805 -0.0506
  143OSM   H17S15632   0.542   0.028   3.836 -1.7325 -0.2875  1.4964
  143OSM   H17T15633   0.427   0.173   3.844  0.0332 -0.2244  0.2069
  143OSM   C18S15634   0.545   0.141   4.025  0.0842  0.7991  0.0961
  143OSM   H18S15635   0.478   0.071   4.078 -0.3983 -0.8099 -2.4596
  143OSM   H18T15636   0.527   0.244   4.064 -0.7128  0.5441  0.4020
  143OSM   H18U15637   0.651   0.115   4.046  0.2756 -1.2652 -2.8308
  143OSM    C1F15638   1.450  -0.145   2.605 -0.2968  0.1296  0.2495
  143OSM     OF15639   1.524  -0.080   2.535 -0.6599 -0.6415 -0.1513
  143OSM    C2F15640   1.501  -0.216   2.719  0.3458  0.5772 -0.5172
  143OSM    H2F15641   1.545  -0.316   2.697 -0.3044 -0.3311  1.9977
  143OSM    H2G15642   1.422  -0.230   2.796  0.6448 -0.2416 -0.3469
  143OSM    C3F15643   1.612  -0.138   2.794 -0.0868  1.2718 -0.6447
  143OSM    H3F15644   1.587  -0.031   2.779  0.8604  1.3682 -1.7367
  143OSM    H3G15645   1.712  -0.157   2.748 -0.0455  2.7429 -1.2239
  143OSM    C4F15646   1.620  -0.180   2.950 -0.0205 -1.3600  0.4081
  143OSM    H4F15647   1.620  -0.290   2.962 -0.5923 -1.3687  0.3935
  143OSM    H4G15648   1.536  -0.148   3.016  1.0897  0.0382  1.1966
  143OSM    C5F15649   1.734  -0.116   3.028  0.7408 -0.0974 -0.3378
  143OSM    H5F15650   1.745  -0.008   3.004  2.5873 -0.1539  0.1249
  143OSM    H5G15651   1.831  -0.156   2.991  0.4614 -0.3188 -0.8322
  143OSM    C6F15652   1.725  -0.129   3.180 -0.3435 -0.4873 -0.4521
  143OSM    H6F15653   1.717  -0.238   3.202 -0.6345  0.0267  2.3752
  143OSM    H6G15654   1.640  -0.081   3.233  1.0551  0.5630  0.9361
  143OSM    C7F15655   1.854  -0.075   3.249 -0.1975 -0.3916 -0.3651
  143OSM    H7F15656   1.827   0.031   3.264  0.2317  0.0369 -2.3171
  143OSM    H7G15657   1.937  -0.064   3.176  1.1657 -0.7716  1.0476
  143OSM    C8F15658   1.893  -0.153   3.381  0.4327 -0.6980  0.1552
  143OSM    H8F15659   1.992  -0.107   3.403 -0.4228  0.5201  1.7113
  143OSM    H8G15660   1.904  -0.260   3.356 -1.1062 -1.4899  2.5581
  143OSM    C9F15661   1.796  -0.143   3.491  0.6555 -0.4241  0.1552
  143OSM    H9F15662   1.695  -0.131   3.447  1.2367 -1.5913 -1.6119
  143OSM   C10F15663   1.822  -0.120   3.622 -0.5984 -0.2997  0.0692
  143OSM   H10F15664   1.741  -0.103   3.694  0.1018  2.1085  0.3899
  143OSM   C11F15665   1.956  -0.122   3.685 -0.0473  0.2106 -0.2213
  143OSM   H11F15666   1.975  -0.023   3.732 -0.0489 -1.0054  2.5658
  143OSM   H11G15667   2.035  -0.150   3.613 -1.4460 -0.0105 -1.7436
  143OSM   C12F15668   1.980  -0.241   3.780 -0.0323 -0.6285 -0.2810
  143OSM   H12F15669   2.088  -0.261   3.800 -0.3102 -1.8401  0.0748
  143OSM   H12G15670   1.925  -0.326   3.733  0.3037 -0.7805 -0.4020
  143OSM   C13F15671   1.916  -0.211   3.915  0.2043 -0.1069  0.3674
  143OSM   H13F15672   1.816  -0.171   3.890  0.6821 -1.6932 -5.7385
  143OSM   H13G15673   1.975  -0.132   3.965 -0.3504 -0.2548  1.2847
  143OSM   C14F15674   1.900  -0.328   4.012 -0.1379 -0.6411 -0.7251
  143OSM   H14F15675   1.819  -0.395   3.975 -1.7141  1.1097 -0.5782
  143OSM   H14G15676   1.867  -0.300   4.114  2.1941  0.4154 -0.1951
  143OSM   C15F15677   2.024  -0.406   4.022 -0.6963  0.6138 -0.5158
  143OSM   H15F15678   2.061  -0.451   3.927  0.7228 -1.8191  1.0790
  143OSM   H15G15679   2.005  -0.507   4.064 -1.0126 -0.0482 -2.1815
  143OSM   C16F15680   2.134  -0.346   4.107  0.0989  0.7924 -0.0657
  143OSM   H16F15681   2.166  -0.247   4.069  0.0343  1.1281  0.7224
  143OSM   H16G15682   2.224  -0.411   4.101 -1.0945 -0.9755  0.2981
  143OSM   C17F15683   2.094  -0.335   4.258  0.6666 -0.5947 -0.6410
  143OSM   H17F15684   2.046  -0.430   4.289  0.1890  0.0917  0.8171
  143OSM   H17G15685   2.020  -0.252   4.259  1.5055  0.1756 -0.3767
  143OSM   C18F15686   2.203  -0.290   4.355 -0.2064  0.0905 -0.0586
  143OSM   H18F15687   2.225  -0.182   4.336  1.9077 -0.7097 -2.7475
  143OSM   H18G15688   2.291  -0.344   4.314 -1.9468 -0.8099 -2.8257
  143OSM   H18H15689   2.189  -0.314   4.463 -0.2418  0.4088  0.0090
  144OSM      N15690   0.308   0.232   1.898  0.0829  0.0743 -0.4733
  144OSM    C1515691   0.361   0.367   1.854 -0.0021 -0.2783 -0.1328
  144OSM   H15A15692   0.434   0.347   1.777 -1.5247 -2.8368 -1.0777
  144OSM   H15B15693   0.393   0.429   1.936  1.2662 -1.9994  0.7466
  144OSM   H15C15694   0.276   0.411   1.804 -0.0263 -1.1790 -0.9245
  144OSM    C1415695   0.295   0.133   1.787 -0.3118  0.2668 -0.0270
  144OSM   H14A15696   0.387   0.121   1.732  0.0008  0.1027  0.5213
  144OSM   H14B15697   0.222   0.167   1.716  0.1146  0.6950 -0.2692
  144OSM   H14C15698   0.272   0.037   1.829 -0.7576 -0.6399 -2.2091
  144OSM    C1315699   0.407   0.170   1.990 -0.6548 -0.4583 -0.2189
  144OSM   H13A15700   0.437   0.241   2.065 -3.9227 -1.2892  2.0959
  144OSM   H13B15701   0.499   0.143   1.939 -0.5133 -1.8515  0.7206
  144OSM   H13C15702   0.373   0.079   2.038 -0.0747  0.5477  2.2234
  144OSM    C1215703   0.173   0.254   1.965 -0.6518  0.3852 -0.2413
  144OSM   H12A15704   0.180   0.325   2.046  0.1921  0.1976 -0.1327
  144OSM   H12B15705   0.147   0.156   2.003  1.6280 -1.1152 -2.2557
  144OSM    C1115706   0.046   0.277   1.882 -0.8258 -0.4512  0.3899
  144OSM   H11A15707  -0.048   0.276   1.942 -0.8017 -0.8818  0.4188
  144OSM   H11B15708   0.055   0.212   1.792  0.5263  0.9922 -0.5737
  144OSM      P15709   0.017   0.540   1.894 -0.0665  0.2359  0.2742
  144OSM    O1315710   0.142   0.605   1.937 -0.0338 -1.0206 -0.6839
  144OSM    O1415711  -0.058   0.609   1.789 -0.2515 -0.5646  0.1136
  144OSM    O1115712  -0.084   0.527   2.005  0.1843  0.6379  0.2457
  144OSM    O1215713   0.057   0.408   1.828  0.2156 -0.4237  0.5672
  144OSM    C1S15714  -0.051   0.490   2.137  0.5464  0.1119  0.2515
  144OSM    H1S15715   0.012   0.572   2.180 -2.8557  1.5882  2.9299
  144OSM    H1T15716   0.012   0.399   2.139  0.4800  0.0702  1.7748
  144OSM     NF15717  -0.144   0.453   2.366 -0.2516 -0.5228  1.1252
  144OSM    HNF15718  -0.156   0.358   2.393  1.9502 -0.9786  0.7366
  144OSM    C2S15719  -0.177   0.487   2.225  0.7775  0.4711 -0.1006
  144OSM    H2S15720  -0.226   0.587   2.220 -0.2602  0.0427  0.8910
  144OSM    C3S15721  -0.272   0.380   2.167  0.0161  0.0572  0.4544
  144OSM    H3S15722  -0.222   0.281   2.170  3.2847  1.4740 -1.6645
  144OSM     O315723  -0.302   0.401   2.031 -0.3049  0.1090  0.3139
  144OSM    HO315724  -0.226   0.448   1.996  0.7539 -1.5347  0.2747
  144OSM    C4S15725  -0.400   0.357   2.252 -0.5846 -0.6242 -0.1343
  144OSM    H4S15726  -0.368   0.301   2.341  1.0644 -0.5994 -0.6703
  144OSM    C5S15727  -0.525   0.406   2.236  0.0418  0.1153  0.1071
  144OSM    H5S15728  -0.555   0.472   2.153  1.8860  2.0964  0.9467
  144OSM    C6S15729  -0.635   0.377   2.333  0.2530 -0.4170  0.1152
  144OSM    H6S15730  -0.725   0.357   2.270 -0.2236 -0.2762  0.7404
  144OSM    H6T15731  -0.655   0.461   2.403 -1.5646 -0.0538 -0.7579
  144OSM    C7S15732  -0.642   0.251   2.421  0.1914  0.1126  0.2169
  144OSM    H7S15733  -0.623   0.172   2.345  0.7949  0.1815  0.2882
  144OSM    H7T15734  -0.745   0.233   2.458 -0.5283  1.0809 -1.2293
  144OSM    C8S15735  -0.553   0.251   2.540 -0.6205 -0.4636 -0.1114
  144OSM    H8S15736  -0.586   0.321   2.620 -1.4046 -1.7504  0.7332
  144OSM    H8T15737  -0.450   0.284   2.512 -1.4772  3.0030  0.3134
  144OSM    C9S15738  -0.564   0.122   2.628 -0.0858  0.6885  0.1252
  144OSM    H9S15739  -0.522   0.045   2.560  0.4434  1.4450 -0.4313
  144OSM    H9T15740  -0.671   0.098   2.643 -0.0517  0.4646  0.0089
  144OSM   C10S15741  -0.485   0.113   2.760 -0.3582 -0.4366 -0.0098
  144OSM   H10S15742  -0.522   0.199   2.820  0.0826 -1.1565  1.3313
  144OSM   H10T15743  -0.378   0.114   2.729 -0.2866  0.4465  0.2449
  144OSM   C11S15744  -0.511  -0.018   2.837 -0.1195 -0.4927  0.0034
  144OSM   H11S15745  -0.489  -0.106   2.772 -1.6636 -1.5793  0.8848
  144OSM   H11T15746  -0.618  -0.019   2.868 -0.5835 -0.9711 -1.5129
  144OSM   C12S15747  -0.435  -0.026   2.972  0.2309 -0.0893  0.4444
  144OSM   H12S15748  -0.503  -0.079   3.043 -0.2428 -3.4152 -2.2126
  144OSM   H12T15749  -0.442   0.078   3.010 -2.5000  0.3947 -1.0764
  144OSM   C13S15750  -0.292  -0.079   2.968  0.5916  0.1323  0.0389
  144OSM   H13S15751  -0.253  -0.026   2.879 -1.7866  1.0632 -0.5194
  144OSM   H13T15752  -0.291  -0.186   2.940  5.2158 -0.4007  1.3734
  144OSM   C14S15753  -0.207  -0.071   3.091 -0.7305 -0.6225  0.0443
  144OSM   H14S15754  -0.172   0.033   3.111 -1.4051 -0.0891 -1.4403
  144OSM   H14T15755  -0.124  -0.144   3.087 -2.4997 -2.6815 -2.4431
  144OSM   C15S15756  -0.290  -0.113   3.215  0.7978 -0.5446  0.0234
  144OSM   H15S15757  -0.322  -0.214   3.180  1.7989 -0.1080 -2.3536
  144OSM   H15T15758  -0.385  -0.056   3.218  0.5295 -1.0253  0.8986
  144OSM   C16S15759  -0.210  -0.105   3.350 -0.3160  1.3389  0.9212
  144OSM   H16S15760  -0.168  -0.003   3.361 -0.1487  1.4313 -0.4649
  144OSM   H16T15761  -0.123  -0.174   3.345 -1.4157 -0.0099 -0.9477
  144OSM   C17S15762  -0.293  -0.144   3.471  0.6933  0.0868 -0.1107
  144OSM   H17S15763  -0.327  -0.250   3.466 -0.6698  0.5728 -2.3781
  144OSM   H17T15764  -0.387  -0.086   3.475  0.9771  0.5354  0.1927
  144OSM   C18S15765  -0.231  -0.116   3.608  0.3303  0.8299 -0.5053
  144OSM   H18S15766  -0.292  -0.164   3.686  0.2077  0.6419 -0.7176
  144OSM   H18T15767  -0.224  -0.010   3.641 -1.4136  0.6717  0.4703
  144OSM   H18U15768  -0.137  -0.176   3.609  0.0334  0.3670 -0.1212
  144OSM    C1F15769  -0.083   0.542   2.444  0.1293 -0.3103 -0.8988
  144OSM     OF15770  -0.063   0.660   2.405  0.2215  0.6643 -0.1577
  144OSM    C2F15771  -0.052   0.493   2.579 -0.3833 -0.3192 -0.1880
  144OSM    H2F15772   0.029   0.420   2.558 -2.8690 -2.9988 -1.0941
  144OSM    H2G15773  -0.141   0.435   2.611 -0.7180  0.7951  1.0177
  144OSM    C3F15774  -0.021   0.603   2.684  0.8848  0.0889 -0.0315
  144OSM    H3F15775  -0.113   0.655   2.719  2.0899  1.3137  1.4571
  144OSM    H3G15776   0.054   0.673   2.642  3.3059 -1.4528  1.4623
  144OSM    C4F15777   0.034   0.543   2.807  0.1731  0.7833 -0.1071
  144OSM    H4F15778   0.134   0.500   2.783 -0.8955 -1.1509 -1.4550
  144OSM    H4G15779  -0.023   0.452   2.838  0.3680  0.4014 -0.8286
  144OSM    C5F15780   0.035   0.639   2.923 -0.0948  0.6992 -0.5065
  144OSM    H5F15781  -0.070   0.650   2.958  0.1295  0.2400  0.3334
  144OSM    H5G15782   0.077   0.736   2.887  2.3779 -0.9819 -2.4630
  144OSM    C6F15783   0.113   0.580   3.034 -0.0397 -0.0185 -0.4870
  144OSM    H6F15784   0.216   0.551   3.006 -0.2764 -4.1666  2.0677
  144OSM    H6G15785   0.072   0.478   3.054  1.9971 -1.0975 -1.5449
  144OSM    C7F15786   0.117   0.665   3.160 -0.8675 -0.0066 -0.3839
  144OSM    H7F15787   0.024   0.666   3.221 -0.4167 -0.3509  0.3234
  144OSM    H7G15788   0.136   0.771   3.132  1.5480 -0.6275 -1.3762
  144OSM    C8F15789   0.239   0.608   3.245  0.0482 -0.0046  0.4700
  144OSM    H8F15790   0.333   0.606   3.185  0.1025  1.8825  0.4282
  144OSM    H8G15791   0.210   0.502   3.262 -0.9905  0.2885  0.5891
  144OSM    C9F15792   0.264   0.687   3.370 -0.1220  0.4349  0.0781
  144OSM    H9F15793   0.169   0.727   3.406  0.1003  2.1832 -1.1427
  144OSM   C10F15794   0.379   0.729   3.423 -0.6933 -0.3008 -0.2501
  144OSM   H10F15795   0.367   0.785   3.517 -3.9595 -0.5039 -0.4245
  144OSM   C11F15796   0.518   0.710   3.373 -0.4559 -0.6306  0.0032
  144OSM   H11F15797   0.578   0.794   3.415 -1.9259 -0.3729  1.7058
  144OSM   H11G15798   0.517   0.721   3.262 -0.9618 -0.1965  0.0461
  144OSM   C12F15799   0.583   0.579   3.418 -0.0339  0.0578  0.0040
  144OSM   H12F15800   0.545   0.541   3.515 -2.2106 -1.0501 -1.2119
  144OSM   H12G15801   0.689   0.608   3.434 -0.6545  1.8155  1.1528
  144OSM   C13F15802   0.566   0.454   3.328 -0.5725 -0.3850 -0.7451
  144OSM   H13F15803   0.459   0.430   3.313 -1.5244  1.2060  2.5925
  144OSM   H13G15804   0.608   0.366   3.381  0.8755  0.2593 -0.7595
  144OSM   C14F15805   0.648   0.469   3.199 -0.0708 -0.4277  0.0409
  144OSM   H14F15806   0.755   0.463   3.227 -0.4393  1.3268  2.0919
  144OSM   H14G15807   0.640   0.572   3.159 -0.0279 -1.6372 -3.4313
  144OSM   C15F15808   0.609   0.372   3.088  0.7292 -0.2662 -0.2611
  144OSM   H15F15809   0.501   0.379   3.063  0.9775 -2.1453 -2.1520
  144OSM   H15G15810   0.633   0.268   3.119  0.8171  0.2795  1.6075
  144OSM   C16F15811   0.682   0.411   2.963 -0.1668 -0.5951  0.1087
  144OSM   H16F15812   0.789   0.384   2.970  0.4400  1.0696 -1.7979
  144OSM   H16G15813   0.680   0.519   2.937 -0.9803  0.0427  2.5522
  144OSM   C17F15814   0.631   0.318   2.844 -0.4853 -0.5384  0.0183
  144OSM   H17F15815   0.521   0.329   2.839 -0.4658 -0.6137 -0.8226
  144OSM   H17G15816   0.656   0.214   2.871  0.2289 -0.4586 -0.3025
  144OSM   C18F15817   0.706   0.360   2.721  0.1953 -0.0996 -0.2239
  144OSM   H18F15818   0.684   0.462   2.683  2.5387  0.6004  0.1709
  144OSM   H18G15819   0.684   0.286   2.641 -0.5273  0.6416 -0.7276
  144OSM   H18H15820   0.815   0.346   2.735  0.3032 -0.0363 -0.9554
  145SAPE     N15821   0.677   1.263   6.435 -0.3182 -0.3715 -0.3103
  145SAPE   HN115822   0.717   1.256   6.531  0.4438 -1.0075 -0.6617
  145SAPE   HN215823   0.588   1.315   6.447  0.1165 -0.0023  1.6281
  145SAPE   HN315824   0.650   1.165   6.414 -0.9962  0.0627 -1.5690
  145SAPE   C1215825   0.766   1.324   6.331 -0.2137  0.2291  1.0661
  145SAPE  H12A15826   0.832   1.241   6.295 -1.5773  0.1430 -1.4388
  145SAPE  H12B15827   0.823   1.403   6.385  1.1290 -0.1106  0.1882
  145SAPE   C1115828   0.687   1.377   6.212  0.3493  0.5357 -0.4961
  145SAPE  H11A15829   0.635   1.283   6.183 -1.0869  0.6950  1.4199
  145SAPE  H11B15830   0.755   1.410   6.131  0.3225  2.3587  0.1751
  145SAPE     P15831   0.630   1.626   6.267  0.0251 -0.0179  0.0909
  145SAPE   O1315832   0.515   1.703   6.306  0.3628  0.2719  0.0571
  145SAPE   O1415833   0.742   1.633   6.365 -0.0361  0.2590  0.2785
  145SAPE   O1215834   0.590   1.471   6.250 -0.8111 -0.0148  0.7596
  145SAPE   O1115835   0.677   1.668   6.125  0.4035 -0.9618 -0.0752
  145SAPE    C115836   0.814   1.688   6.091 -0.6476  0.0240 -0.7418
  145SAPE    HA15837   0.851   1.779   6.144 -0.7657 -0.7408  0.6983
  145SAPE    HB15838   0.869   1.594   6.113  1.5314  1.5084  0.5535
  145SAPE    C215839   0.809   1.704   5.938  0.7654  0.2627 -0.0307
  145SAPE    HS15840   0.916   1.702   5.911  0.7115  0.6166 -0.2757
  145SAPE   O2115841   0.744   1.833   5.905  0.1255  0.1457 -0.4698
  145SAPE   C2115842   0.807   1.909   5.827 -0.1367  0.1356  0.0032
  145SAPE   O2215843   0.921   1.898   5.788 -0.3575 -0.1806  0.2560
  145SAPE   C2215844   0.726   2.035   5.813  0.4408  0.6555 -0.1942
  145SAPE   H2R15845   0.636   2.003   5.756  0.6845 -0.6708  0.1309
  145SAPE   H2S15846   0.687   2.068   5.912  0.6707 -1.3816  0.6451
  145SAPE    C315847   0.746   1.587   5.853 -0.3623 -0.4945 -0.1825
  145SAPE    HX15848   0.639   1.605   5.878  0.4857  2.9585  1.5908
  145SAPE    HY15849   0.784   1.487   5.880 -0.2297 -0.4393 -0.1602
  145SAPE   O3115850   0.757   1.617   5.707  0.4989 -0.5016  0.2143
  145SAPE   C3115851   0.870   1.573   5.644  0.5015 -0.0622 -0.6689
  145SAPE   O3215852   0.947   1.499   5.697 -0.0028  0.2792  1.0929
  145SAPE   C3215853   0.857   1.602   5.492 -0.1084  0.7630  0.7355
  145SAPE   H2X15854   0.927   1.687   5.480  0.4783  0.4341  1.6884
  145SAPE   H2Y15855   0.756   1.641   5.468 -1.3316 -1.9029  1.1198
  145SAPE   C2315856   0.779   2.153   5.728 -0.4876 -0.3887 -0.9368
  145SAPE   H3R15857   0.881   2.175   5.765 -0.4072  0.1023 -1.4447
  145SAPE   H3S15858   0.710   2.237   5.753 -0.9428 -0.9018 -0.4294
  145SAPE   C2415859   0.792   2.129   5.580 -0.0583  0.1569  0.3272
  145SAPE   H4R15860   0.864   2.045   5.566  0.8669  0.8208  1.0062
  145SAPE   H4S15861   0.840   2.226   5.556 -2.3727  1.7749  1.8372
  145SAPE   C2515862   0.664   2.109   5.511  0.3651  0.3544  0.1066
  145SAPE   H5R15863   0.624   2.006   5.516  2.6296 -0.6950 -1.5952
  145SAPE   C2615864   0.597   2.201   5.432 -0.2373 -0.0391 -0.0742
  145SAPE   H6R15865   0.499   2.179   5.387 -1.1518 -2.4596  2.7629
  145SAPE   C2715866   0.651   2.330   5.383 -0.1135  0.3638  0.0302
  145SAPE   H7R15867   0.721   2.364   5.463 -0.4972 -0.5040  0.7472
  145SAPE   H7S15868   0.579   2.414   5.370 -0.1089  0.1243 -1.7879
  145SAPE   C2815869   0.735   2.313   5.254 -0.4985  0.4849  0.1233
  145SAPE   H8R15870   0.843   2.314   5.277 -0.4234  1.9469 -0.1848
  145SAPE   C2915871   0.696   2.301   5.129 -0.4093 -0.2370  0.0057
  145SAPE   H9R15872   0.772   2.298   5.049 -1.6946 -2.6322 -1.2474
  145SAPE  C21015873   0.552   2.294   5.085 -0.7471  0.3485 -0.1050
  145SAPE  H10R15874   0.513   2.388   5.041  0.5009  1.3091  0.7886
  145SAPE  H10S15875   0.480   2.262   5.164 -1.2832 -1.5531 -1.3027
  145SAPE  C21115876   0.543   2.188   4.980 -0.9430  0.0738 -0.2029
  145SAPE  H11R15877   0.604   2.097   4.993  1.0410  1.5278  1.4308
  145SAPE  C21215878   0.467   2.192   4.865  0.4045  0.3863  0.3150
  145SAPE  H12R15879   0.462   2.100   4.804 -0.9534  0.3252  0.4720
  145SAPE  C21315880   0.374   2.302   4.815 -0.2954  0.3543  0.3632
  145SAPE  H13R15881   0.354   2.383   4.889 -1.7945  0.6304 -0.3032
  145SAPE  H13S15882   0.275   2.256   4.793 -1.0790  1.4656  1.4276
  145SAPE  C21415883   0.423   2.370   4.689 -0.2184 -0.2444  0.4533
  145SAPE  H14R15884   0.527   2.349   4.660 -0.4534  0.4411 -0.9735
  145SAPE  C21515885   0.348   2.436   4.604 -0.1258 -0.5729 -0.2806
  145SAPE  H15R15886   0.392   2.473   4.511 -1.3125 -3.2589 -2.0367
  145SAPE  C21615887   0.200   2.472   4.630 -0.2042 -0.4252 -0.0716
  145SAPE  H16R15888   0.173   2.464   4.738 -0.7533  2.2155  0.0533
  145SAPE  H16S15889   0.133   2.406   4.572  0.3156 -1.7396  0.7765
  145SAPE  C21715890   0.176   2.618   4.585  0.8459  0.3545  0.1101
  145SAPE  H17R15891   0.248   2.686   4.635 -0.2440  1.7383 -0.1488
  145SAPE  H17S15892   0.074   2.654   4.612  0.5036 -0.2984 -0.2702
  145SAPE  C21815893   0.175   2.625   4.429 -0.3494 -0.2229  0.0707
  145SAPE  H18R15894   0.272   2.584   4.394  0.2084  0.4855  0.7471
  145SAPE  H18S15895   0.180   2.731   4.395  1.1103  0.1162  1.2152
  145SAPE  C21915896   0.061   2.568   4.354  0.2282 -0.4475  0.0050
  145SAPE  H19R15897   0.041   2.638   4.270  1.5465 -0.1396 -0.0639
  145SAPE  H19S15898  -0.026   2.569   4.423 -0.8298 -0.7372 -1.2892
  145SAPE  C22015899   0.075   2.427   4.296  0.5435 -0.4137  0.1150
  145SAPE  H20R15900   0.181   2.428   4.265  0.3656  0.8271 -0.4856
  145SAPE  H20S15901  -0.003   2.398   4.222 -1.5788  3.7389  0.4512
  145SAPE  H20T15902   0.076   2.347   4.373 -0.5676  0.1504  0.7508
  145SAPE   C3315903   0.893   1.487   5.391  0.3971 -0.8202 -0.3349
  145SAPE   H3X15904   0.814   1.410   5.404 -0.0213 -0.6505 -1.7727
  145SAPE   H3Y15905   0.997   1.459   5.415  1.5187  1.2074 -2.4145
  145SAPE   C3415906   0.887   1.529   5.245 -0.1358  0.5985 -0.3580
  145SAPE   H4X15907   0.977   1.586   5.216  1.0392 -0.5763  0.8616
  145SAPE   H4Y15908   0.790   1.583   5.234 -1.1745 -1.3607 -1.6087
  145SAPE   C3515909   0.890   1.398   5.159 -0.1801  0.1053 -0.0770
  145SAPE   H5X15910   0.831   1.322   5.214  0.5543  1.0216  2.1004
  145SAPE   H5Y15911   0.993   1.360   5.147 -1.2385 -2.5075 -1.5957
  145SAPE   C3615912   0.837   1.429   5.025  0.7010  0.5479  0.0842
  145SAPE   H6X15913   0.759   1.508   5.018 -1.0927 -1.2043 -0.5339
  145SAPE   H6Y15914   0.791   1.337   4.983 -1.4472  1.2795  0.7096
  145SAPE   C3715915   0.954   1.471   4.931 -0.5246  0.8318  0.2084
  145SAPE   H7X15916   1.031   1.391   4.931 -0.5695  0.7656 -1.4388
  145SAPE   H7Y15917   0.996   1.570   4.959  0.0748  1.4879 -2.6921
  145SAPE   C3815918   0.890   1.496   4.789 -0.1969  0.1889 -0.6190
  145SAPE   H8X15919   0.810   1.572   4.806 -0.7051 -0.7229  1.4762
  145SAPE   H8Y15920   0.836   1.406   4.752 -1.5880  0.8490 -0.2774
  145SAPE   C3915921   0.989   1.547   4.684 -0.5337 -0.6890 -0.2854
  145SAPE   H9X15922   1.075   1.476   4.688  0.8568  0.9383  0.1981
  145SAPE   H9Y15923   1.032   1.644   4.716  1.3938 -0.8374 -2.1421
  145SAPE  C31015924   0.930   1.545   4.543  0.3922 -1.0388 -0.5191
  145SAPE  H10X15925   0.904   1.649   4.513  0.6600 -1.4191 -2.1341
  145SAPE  H10Y15926   0.847   1.473   4.534 -0.2177 -0.5659  0.9226
  145SAPE  C31115927   1.034   1.503   4.439  0.6539 -0.3144  0.4656
  145SAPE  H11X15928   1.066   1.401   4.470  0.9346 -0.4842 -0.3805
  145SAPE  H11Y15929   1.124   1.568   4.445 -1.3738  2.6544  0.8031
  145SAPE  C31215930   0.982   1.512   4.293 -0.4605 -0.0010 -0.4073
  145SAPE  H12X15931   0.956   1.619   4.285 -0.9337 -0.1839 -1.4915
  145SAPE  H12Y15932   0.892   1.447   4.279 -0.7262  0.4313 -0.7125
  145SAPE  C31315933   1.087   1.465   4.190 -0.0372 -0.3800 -0.5715
  145SAPE  H13X15934   1.134   1.372   4.230  1.4245  0.1498 -0.9848
  145SAPE  H13Y15935   1.169   1.540   4.188  1.6733 -2.1389  0.1824
  145SAPE  C31415936   1.024   1.426   4.054 -0.2898  0.1494  0.6483
  145SAPE  H14X15937   0.958   1.508   4.019 -0.1727 -0.8824 -2.3148
  145SAPE  H14Y15938   0.960   1.335   4.059 -1.0481  0.6533  0.2047
  145SAPE  C31515939   1.137   1.399   3.946 -0.4400  1.6762 -0.2736
  145SAPE  H15X15940   1.221   1.336   3.981 -1.8781  0.4296  1.0758
  145SAPE  H15Y15941   1.170   1.504   3.934 -0.7292  1.9181  0.8663
  145SAPE  C31615942   1.072   1.349   3.817 -1.3417  0.1149 -0.6860
  145SAPE  H16X15943   0.969   1.387   3.804 -1.0163  0.5872 -2.0734
  145SAPE  H16Y15944   1.057   1.239   3.822 -0.9882  0.0833 -0.2818
  145SAPE  C31715945   1.161   1.378   3.695 -0.2175  0.3946 -0.9782
  145SAPE  H17X15946   1.248   1.309   3.695  0.7970  1.5166  1.9211
  145SAPE  H17Y15947   1.219   1.472   3.709  1.3512 -0.5397 -0.9678
  145SAPE  C31815948   1.074   1.381   3.579 -0.0969 -0.7048  0.9023
  145SAPE  H18X15949   1.006   1.293   3.575 -0.5974 -0.3221  0.9396
  145SAPE  H18Y15950   1.131   1.385   3.483 -0.6564 -0.1893  0.5882
  145SAPE  H18Z15951   1.016   1.475   3.584  2.6322  1.2310 -0.6253
  146SAPE     N15952   5.136   1.563   6.091 -0.0098  0.0528  0.4703
  146SAPE   HN115953   5.049   1.605   6.130 -0.5096 -1.6352  1.2724
  146SAPE   HN215954   5.116   1.565   5.989  1.5108 -2.0836  0.0714
  146SAPE   HN315955   5.137   1.463   6.121  2.6196 -0.3740 -0.7775
  146SAPE   C1215956   5.268   1.619   6.141 -0.0781  0.5756  0.6415
  146SAPE  H12A15957   5.260   1.609   6.252 -0.7396 -0.7796  0.4948
  146SAPE  H12B15958   5.278   1.724   6.108  3.3756 -0.3468 -1.8555
  146SAPE   C1115959   5.375   1.532   6.072 -0.0067  0.1819  0.2546
  146SAPE  H11A15960   5.475   1.570   6.102  0.1212 -0.0058  0.0702
  146SAPE  H11B15961   5.370   1.547   5.963 -0.9880  2.6818  0.5810
  146SAPE     P15962   5.479   1.299   6.069 -0.2866  0.2146 -0.1807
  146SAPE   O1315963   5.597   1.356   6.132 -0.6983 -0.1240 -0.1555
  146SAPE   O1415964   5.436   1.156   6.101 -0.1109 -0.1291  0.2531
  146SAPE   O1215965   5.360   1.392   6.107 -0.2927  0.0543  0.3025
  146SAPE   O1115966   5.490   1.333   5.919  0.1504  0.0602 -0.2519
  146SAPE    C115967   5.397   1.289   5.823 -1.0881 -0.3049  0.2224
  146SAPE    HA15968   5.299   1.263   5.867 -1.3850 -0.1017 -0.3088
  146SAPE    HB15969   5.367   1.371   5.755 -1.4970 -0.0914  0.6589
  146SAPE    C215970   5.449   1.168   5.744 -0.5072  0.6947  0.3261
  146SAPE    HS15971   5.467   1.093   5.824 -1.3133  0.6899  0.5122
  146SAPE   O2115972   5.562   1.200   5.658 -0.2963  0.2653 -0.0216
  146SAPE   C2115973   5.681   1.159   5.702 -0.4410  0.5154  0.5843
  146SAPE   O2215974   5.700   1.104   5.807  0.2373  0.1802  0.2603
  146SAPE   C2215975   5.775   1.167   5.583 -0.0571  0.5480 -0.0567
  146SAPE   H2R15976   5.723   1.100   5.512  0.3938 -1.3449  1.3326
  146SAPE   H2S15977   5.764   1.269   5.539 -1.9906 -0.0794 -1.1521
  146SAPE    C315978   5.335   1.110   5.652 -0.6895 -0.0961  0.1555
  146SAPE    HX15979   5.247   1.089   5.717 -2.7652  1.6751 -1.8903
  146SAPE    HY15980   5.372   1.022   5.595 -1.8167  0.6595 -1.8467
  146SAPE   O3115981   5.303   1.202   5.546 -0.5910  0.4927 -0.4311
  146SAPE   C3115982   5.197   1.274   5.564 -0.4989 -0.0706 -0.4328
  146SAPE   O3215983   5.135   1.275   5.667 -0.3034  0.4455 -0.1014
  146SAPE   C3215984   5.180   1.361   5.441 -0.1982  0.1546 -0.0155
  146SAPE   H2X15985   5.283   1.391   5.410 -0.3590  0.3246 -0.3898
  146SAPE   H2Y15986   5.122   1.450   5.470 -0.5714 -0.7596  2.2141
  146SAPE   C2315987   5.929   1.130   5.597  0.7115 -0.5010 -0.5708
  146SAPE   H3R15988   5.979   1.175   5.684 -1.1860  2.4083 -0.8578
  146SAPE   H3S15989   5.982   1.158   5.503 -1.1719 -0.3328 -1.6492
  146SAPE   C2415990   5.952   0.978   5.612  0.3220 -0.5297 -1.2626
  146SAPE   H4R15991   5.903   0.961   5.710  0.9283 -0.7152 -0.9840
  146SAPE   H4S15992   6.061   0.959   5.626  0.2240  0.9576  2.6832
  146SAPE   C2515993   5.898   0.887   5.502 -0.8641 -0.2433 -0.2672
  146SAPE   H5R15994   5.925   0.913   5.398 -0.6233 -0.7564 -0.3347
  146SAPE   C2615995   5.794   0.806   5.499 -0.0172  0.5793  0.0264
  146SAPE   H6R15996   5.775   0.753   5.405  1.6564  1.3567 -0.7923
  146SAPE   C2715997   5.713   0.761   5.622 -0.7415  0.0009  0.5490
  146SAPE   H7R15998   5.612   0.726   5.592 -0.5879  1.6909 -2.2786
  146SAPE   H7S15999   5.696   0.845   5.692  1.1173  0.0046  1.0613
  146SAPE   C2816000   5.787   0.646   5.690 -0.3850 -0.4260  0.2487
  146SAPE   H8R16001   5.885   0.686   5.720 -0.8733  0.9224  0.0851
  146SAPE   C2916002   5.746   0.521   5.708 -0.1941 -0.1373 -0.0380
  146SAPE   H9R16003   5.811   0.451   5.764  0.3517  0.3456 -0.0608
  146SAPE  C21016004   5.612   0.471   5.671 -0.4100 -0.5146  0.4271
  146SAPE  H10R16005   5.607   0.436   5.566 -1.7023  0.9934 -0.0317
  146SAPE  H10S16006   5.548   0.561   5.670  1.2082  0.6874  0.8688
  146SAPE  C21116007   5.565   0.361   5.766  0.1391 -0.0440  0.2192
  146SAPE  H11R16008   5.569   0.372   5.875 -1.5682  0.6763  0.2449
  146SAPE  C21216009   5.509   0.252   5.722 -0.1825 -0.3945  0.6031
  146SAPE  H12R16010   5.496   0.168   5.792  1.3195  0.0050  1.4182
  146SAPE  C21316011   5.473   0.204   5.580  0.2139 -1.2407  0.6919
  146SAPE  H13R16012   5.536   0.120   5.542  0.0923 -1.4034  0.8465
  146SAPE  H13S16013   5.501   0.282   5.507 -0.4023 -1.8477 -0.2259
  146SAPE  C21416014   5.331   0.166   5.578  0.1407 -0.9872  0.1851
  146SAPE  H14R16015   5.291   0.148   5.679 -1.8783 -0.5379 -0.4862
  146SAPE  C21516016   5.249   0.154   5.474  0.1726 -0.9837  0.4450
  146SAPE  H15R16017   5.144   0.125   5.484 -0.8223  2.5887  1.9313
  146SAPE  C21616018   5.289   0.155   5.325  0.1837  0.1736 -0.1404
  146SAPE  H16R16019   5.223   0.085   5.268 -1.5381  1.4760  0.1653
  146SAPE  H16S16020   5.390   0.112   5.309  0.3367  0.7606 -0.7992
  146SAPE  C21716021   5.283   0.296   5.276 -0.0256  0.5516 -0.0218
  146SAPE  H17R16022   5.362   0.365   5.314  1.1424 -0.1445 -1.0985
  146SAPE  H17S16023   5.190   0.356   5.271  0.1786  0.8421 -0.4173
  146SAPE  C21816024   5.339   0.297   5.125 -0.8006 -0.0030 -0.2511
  146SAPE  H18R16025   5.270   0.237   5.061  0.7257 -0.0578 -1.9307
  146SAPE  H18S16026   5.441   0.256   5.112 -0.1209  1.0346  1.4024
  146SAPE  C21916027   5.346   0.434   5.046  0.1571 -0.7287  0.2353
  146SAPE  H19R16028   5.254   0.483   5.084  1.7168  1.3177  1.6075
  146SAPE  H19S16029   5.341   0.413   4.937  1.3058  1.6070 -0.3410
  146SAPE  C22016030   5.473   0.521   5.069 -0.1172 -0.1786 -0.4082
  146SAPE  H20R16031   5.467   0.630   5.050 -1.3022  0.2014  1.8501
  146SAPE  H20S16032   5.555   0.486   5.003 -1.1405  0.8489 -2.3049
  146SAPE  H20T16033   5.515   0.514   5.172  2.5125 -0.4993 -1.4224
  146SAPE   C3316034   5.102   1.288   5.331 -0.2267 -0.4944  0.0913
  146SAPE   H3X16035   5.149   1.193   5.297 -2.7529 -1.4722 -0.9600
  146SAPE   H3Y16036   5.107   1.359   5.246  1.6188 -0.3839  0.2644
  146SAPE   C3416037   4.957   1.271   5.375 -0.4310 -0.1544  1.0016
  146SAPE   H4X16038   4.923   1.375   5.358  0.2815 -0.1834 -0.8569
  146SAPE   H4Y16039   4.950   1.239   5.481 -2.8324 -0.9560  0.6605
  146SAPE   C3516040   4.873   1.185   5.282 -0.4870  0.2152 -0.5615
  146SAPE   H5X16041   4.765   1.212   5.290 -0.5777  0.7793 -2.8408
  146SAPE   H5Y16042   4.884   1.078   5.312  0.5876  0.0966 -1.3212
  146SAPE   C3616043   4.910   1.193   5.135  0.2882 -0.2063 -0.6256
  146SAPE   H6X16044   5.016   1.160   5.125  0.7187  1.1443 -0.7210
  146SAPE   H6Y16045   4.902   1.301   5.111 -3.5078 -0.1337  0.3116
  146SAPE   C3716046   4.814   1.119   5.044 -0.1495  0.3639 -0.4098
  146SAPE   H7X16047   4.709   1.153   5.059  0.6592  2.2933  1.3810
  146SAPE   H7Y16048   4.804   1.011   5.070 -3.1458  0.1703 -1.9304
  146SAPE   C3816049   4.847   1.135   4.897  0.1634  0.8950 -0.0446
  146SAPE   H8X16050   4.957   1.129   4.881  0.0995 -2.4026 -0.0047
  146SAPE   H8Y16051   4.813   1.237   4.871 -0.3740  0.3275 -1.6932
  146SAPE   C3916052   4.776   1.038   4.800 -0.0204 -0.1601 -0.2317
  146SAPE   H9X16053   4.666   1.038   4.818 -0.2181  0.5940 -1.3275
  146SAPE   H9Y16054   4.821   0.937   4.809  1.6721  0.6644  1.1069
  146SAPE  C31016055   4.802   1.093   4.654 -0.5572 -0.4002  0.8052
  146SAPE  H10X16056   4.911   1.087   4.632 -0.3065  2.5178  0.9203
  146SAPE  H10Y16057   4.770   1.199   4.656 -2.2866 -0.8958  1.3372
  146SAPE  C31116058   4.718   1.017   4.543  0.0062 -0.8344 -0.0156
  146SAPE  H11X16059   4.609   1.024   4.566 -0.4321  0.1821 -2.1463
  146SAPE  H11Y16060   4.753   0.912   4.540 -1.8005 -1.4532 -1.0877
  146SAPE  C31216061   4.751   1.079   4.392  1.2807  0.1651 -0.1113
  146SAPE  H12X16062   4.858   1.065   4.367  2.2859  5.2308  0.1376
  146SAPE  H12Y16063   4.725   1.187   4.399  0.7307 -0.0069  0.6148
  146SAPE  C31316064   4.655   1.007   4.295 -0.3365  0.4786 -0.5133
  146SAPE  H13X16065   4.554   1.013   4.340 -0.2490  1.2931 -0.3999
  146SAPE  H13Y16066   4.686   0.903   4.315  0.5684  1.1985  2.3058
  146SAPE  C31416067   4.668   1.045   4.145 -0.7134  0.4692 -0.1277
  146SAPE  H14X16068   4.775   1.041   4.115 -1.0444  3.9353 -2.2364
  146SAPE  H14Y16069   4.625   1.147   4.144 -0.7101  0.4759  0.2700
  146SAPE  C31516070   4.604   0.939   4.054 -0.5272 -0.2816  0.0382
  146SAPE  H15X16071   4.641   0.837   4.077  2.3716  0.5422 -0.5766
  146SAPE  H15Y16072   4.624   0.961   3.947  0.5072  0.9602  0.4561
  146SAPE  C31616073   4.447   0.923   4.083  0.5491  0.4206 -0.4335
  146SAPE  H16X16074   4.390   1.014   4.113 -1.3719  0.0768 -2.7914
  146SAPE  H16Y16075   4.429   0.842   4.156 -0.6811 -0.0976 -1.2868
  146SAPE  C31716076   4.372   0.870   3.953 -0.1495  0.5631 -1.8598
  146SAPE  H17X16077   4.287   0.807   3.988  0.1948  1.6416  1.2349
  146SAPE  H17Y16078   4.443   0.819   3.884  1.5747  0.1376  0.1418
  146SAPE  C31816079   4.307   0.987   3.876 -0.2335 -0.3391 -0.2548
  146SAPE  H18X16080   4.232   1.050   3.929 -0.0690  0.6571 -1.1621
  146SAPE  H18Y16081   4.247   0.944   3.793 -0.7656 -0.8763  0.3994
  146SAPE  H18Z16082   4.387   1.046   3.827  0.3515  0.0704  1.1394
  147SAPE     N16083   5.334   5.026   6.240  0.3224 -0.2643  0.3664
  147SAPE   HN116084   5.274   4.985   6.315 -0.9689 -0.0411 -0.5229
  147SAPE   HN216085   5.429   5.041   6.280 -0.5813  3.9698  1.4193
  147SAPE   HN316086   5.300   5.124   6.234  1.2922  0.3166  3.0605
  147SAPE   C1216087   5.335   4.943   6.109 -0.2061 -0.6565 -0.8562
  147SAPE  H12A16088   5.383   5.003   6.028 -0.4878  1.0059  0.1570
  147SAPE  H12B16089   5.231   4.917   6.081 -0.6258 -2.3926  1.9605
  147SAPE   C1116090   5.424   4.821   6.124 -0.2639 -0.2057 -0.2024
  147SAPE  H11A16091   5.397   4.770   6.029 -0.1614  3.3548 -2.3189
  147SAPE  H11B16092   5.388   4.771   6.217 -0.4374  0.6203  0.1814
  147SAPE     P16093   5.673   4.768   6.187  0.4196  0.0465 -0.2855
  147SAPE   O1316094   5.641   4.763   6.335 -0.0480  0.7301 -0.2014
  147SAPE   O1416095   5.685   4.641   6.113 -0.1948  0.2024 -0.4519
  147SAPE   O1216096   5.562   4.856   6.114 -0.0741  0.4869 -0.3649
  147SAPE   O1116097   5.802   4.851   6.180  0.7145 -0.0752 -0.2816
  147SAPE    C116098   5.824   4.940   6.079  0.7014  0.0334  0.1684
  147SAPE    HA16099   5.738   5.009   6.064  0.5561  0.3348  2.1695
  147SAPE    HB16100   5.906   5.005   6.118 -2.0045  3.6894  0.3275
  147SAPE    C216101   5.882   4.891   5.939  0.5684  0.7699  0.3699
  147SAPE    HS16102   5.919   4.977   5.879  0.6529  0.8777  0.5766
  147SAPE   O2116103   5.777   4.813   5.873 -0.1606 -0.2268 -0.2281
  147SAPE   C2116104   5.679   4.887   5.826 -0.4802 -0.3313  0.6595
  147SAPE   O2216105   5.665   5.009   5.829  0.0901  0.2796  0.2726
  147SAPE   C2216106   5.579   4.799   5.752 -0.4435  0.0034 -0.5520
  147SAPE   H2R16107   5.626   4.700   5.732 -3.0702 -1.7418  1.2865
  147SAPE   H2S16108   5.489   4.782   5.814  0.0009  0.0922  0.1211
  147SAPE    C316109   6.005   4.805   5.966 -0.2615  0.3539  1.3759
  147SAPE    HX16110   5.980   4.717   6.029 -1.7663  0.8004  1.4265
  147SAPE    HY16111   6.079   4.858   6.030  2.3833 -2.3126  0.7876
  147SAPE   O3116112   6.084   4.777   5.845 -0.2072  0.1561  0.0910
  147SAPE   C3116113   6.046   4.658   5.787  0.0152 -0.4440 -0.7052
  147SAPE   O3216114   5.956   4.583   5.826  0.6351  0.5486 -0.4100
  147SAPE   C3216115   6.134   4.630   5.669  0.0267  0.1868  0.5748
  147SAPE   H2X16116   6.169   4.525   5.680 -3.0409 -0.9577  0.5127
  147SAPE   H2Y16117   6.218   4.702   5.678  0.3809 -0.0768 -0.4300
  147SAPE   C2316118   5.530   4.847   5.616 -0.9297  0.2606 -0.2739
  147SAPE   H3R16119   5.624   4.853   5.557  0.8979 -1.1315  2.3223
  147SAPE   H3S16120   5.485   4.947   5.637 -0.3151  0.8114 -1.4496
  147SAPE   C2416121   5.438   4.749   5.549 -0.5030 -0.2189  0.5511
  147SAPE   H4R16122   5.375   4.802   5.475  0.0142 -1.4887 -0.8362
  147SAPE   H4S16123   5.375   4.696   5.624  1.2175  0.0849  2.3032
  147SAPE   C2516124   5.514   4.639   5.480 -0.1946  0.3562  0.2550
  147SAPE   H5R16125   5.566   4.565   5.543 -1.6439 -0.2852  0.7436
  147SAPE   C2616126   5.529   4.619   5.351 -0.1381  0.2553 -0.3551
  147SAPE   H6R16127   5.585   4.532   5.312 -0.0006 -0.7685  1.9730
  147SAPE   C2716128   5.477   4.699   5.232 -0.6235  0.4637  0.1411
  147SAPE   H7R16129   5.564   4.724   5.167 -1.5289  0.9268 -0.9332
  147SAPE   H7S16130   5.445   4.803   5.256  1.4060  1.6497 -1.8426
  147SAPE   C2816131   5.369   4.627   5.156 -0.2943 -1.1974  0.4031
  147SAPE   H8R16132   5.270   4.630   5.205 -0.3660 -0.2997  0.2123
  147SAPE   C2916133   5.383   4.559   5.048  0.0083 -0.0816  0.2473
  147SAPE   H9R16134   5.294   4.510   5.007  1.1190 -1.9097 -0.1075
  147SAPE  C21016135   5.508   4.536   4.968 -0.1466 -0.5014 -0.6278
  147SAPE  H10R16136   5.580   4.473   5.026 -2.1293 -1.8631  0.4584
  147SAPE  H10S16137   5.561   4.632   4.949 -0.1864 -0.4154 -0.3071
  147SAPE  C21116138   5.477   4.460   4.838 -0.3258  0.0002 -0.2083
  147SAPE  H11R16139   5.440   4.522   4.755  0.5315 -1.1194 -1.4632
  147SAPE  C21216140   5.470   4.330   4.834 -0.8790 -1.1595 -0.4576
  147SAPE  H12R16141   5.469   4.274   4.739 -0.0128 -1.8654 -0.0635
  147SAPE  C21316142   5.477   4.232   4.945 -0.8710 -0.9474 -0.7559
  147SAPE  H13R16143   5.400   4.153   4.930 -0.9107 -1.1923  0.6042
  147SAPE  H13S16144   5.450   4.289   5.036 -0.0408  1.2728 -1.8295
  147SAPE  C21416145   5.618   4.170   4.945 -0.2435 -0.3850  0.3459
  147SAPE  H14R16146   5.703   4.239   4.952 -0.3628  0.3689 -3.4742
  147SAPE  C21516147   5.651   4.038   4.929  0.2712  0.4194 -0.5034
  147SAPE  H15R16148   5.757   4.011   4.940  0.3063  0.3277 -1.0537
  147SAPE  C21616149   5.553   3.929   4.927 -0.6226 -0.1266 -0.4072
  147SAPE  H16R16150   5.452   3.948   4.969 -0.8260  0.3014 -1.0672
  147SAPE  H16S16151   5.595   3.843   4.983 -0.0560 -1.1720 -2.3334
  147SAPE  C21716152   5.522   3.888   4.788 -0.3576  0.2127 -0.0031
  147SAPE  H17R16153   5.626   3.869   4.753 -0.2945 -0.4620  0.5230
  147SAPE  H17S16154   5.476   3.964   4.721 -1.4204 -1.5384 -1.3496
  147SAPE  C21816155   5.447   3.753   4.778 -0.0817  0.4901  0.9256
  147SAPE  H18R16156   5.488   3.676   4.846 -2.6539  1.6748  4.1319
  147SAPE  H18S16157   5.462   3.719   4.674  2.2055  0.4260  1.2192
  147SAPE  C21916158   5.298   3.776   4.813  0.3056  0.1123  0.7886
  147SAPE  H19R16159   5.280   3.821   4.913  1.4449  1.4119  0.4491
  147SAPE  H19S16160   5.251   3.676   4.828  1.6685 -0.2737  3.0305
  147SAPE  C22016161   5.215   3.866   4.713 -0.3098  0.0947 -0.3050
  147SAPE  H20R16162   5.241   3.974   4.709  0.2859 -0.0702 -1.4275
  147SAPE  H20S16163   5.109   3.857   4.746  0.5715 -1.7644  2.3564
  147SAPE  H20T16164   5.230   3.843   4.605 -0.6806 -1.5768 -0.0266
  147SAPE   C3316165   6.062   4.650   5.528 -0.5113  0.2151 -0.1626
  147SAPE   H3X16166   5.969   4.590   5.522  0.4019 -1.1636 -1.0041
  147SAPE   H3Y16167   6.143   4.616   5.460  1.1022 -0.1091  1.8120
  147SAPE   C3416168   6.017   4.798   5.492 -0.5334  0.5335  0.3883
  147SAPE   H4X16169   6.102   4.861   5.460 -0.5229  1.2734  1.8057
  147SAPE   H4Y16170   5.983   4.849   5.584 -0.4246  1.4164 -0.0583
  147SAPE   C3516171   5.915   4.788   5.376 -0.7980 -0.5942  0.3812
  147SAPE   H5X16172   5.872   4.889   5.387 -0.8706 -0.7662  1.8893
  147SAPE   H5Y16173   5.823   4.730   5.399 -2.8642  1.8350 -1.1548
  147SAPE   C3616174   5.969   4.743   5.230  0.9236 -0.6597  0.1615
  147SAPE   H6X16175   5.999   4.637   5.241  2.6323 -0.3616 -1.1771
  147SAPE   H6Y16176   6.062   4.799   5.205  1.6105 -2.3754 -1.3710
  147SAPE   C3716177   5.864   4.750   5.130  0.0192  0.1300  0.2265
  147SAPE   H7X16178   5.800   4.841   5.140 -2.0393 -1.2161 -0.0269
  147SAPE   H7Y16179   5.788   4.671   5.149 -1.3184  0.9244 -1.5169
  147SAPE   C3816180   5.912   4.721   4.982  0.5263 -0.9622 -0.3870
  147SAPE   H8X16181   6.005   4.781   4.975  0.0419 -0.3196 -1.4760
  147SAPE   H8Y16182   5.840   4.765   4.910 -0.5212  0.0345  1.2022
  147SAPE   C3916183   5.943   4.579   4.944  0.6166 -0.1030 -0.0062
  147SAPE   H9X16184   5.859   4.516   4.981 -1.0568  0.9233 -1.8300
  147SAPE   H9Y16185   6.029   4.550   5.007 -0.4249 -0.3490  1.3486
  147SAPE  C31016186   5.945   4.557   4.790  0.2256  0.0539  0.8630
  147SAPE  H10X16187   6.048   4.594   4.770  0.4279 -0.6488  0.5798
  147SAPE  H10Y16188   5.873   4.614   4.726 -1.6171 -0.4436  2.4153
  147SAPE  C31116189   5.961   4.416   4.747  0.1551  0.8297 -0.8368
  147SAPE  H11X16190   5.865   4.375   4.708 -1.1467  0.9291  1.9929
  147SAPE  H11Y16191   5.989   4.361   4.840  0.0516  2.0398 -0.0728
  147SAPE  C31216192   6.074   4.387   4.649 -0.1209 -0.0730  0.3684
  147SAPE  H12X16193   6.174   4.411   4.691  0.2971 -0.5473 -0.3305
  147SAPE  H12Y16194   6.064   4.451   4.558  2.2269 -3.0633 -2.2472
  147SAPE  C31316195   6.061   4.242   4.603 -0.2051  0.1203  0.1634
  147SAPE  H13X16196   5.965   4.223   4.552  1.0482 -3.6264 -1.1440
  147SAPE  H13Y16197   6.073   4.174   4.690 -1.8053  0.4834  0.6903
  147SAPE  C31416198   6.175   4.211   4.510  0.1099 -0.9066 -0.3529
  147SAPE  H14X16199   6.171   4.102   4.488 -0.9594 -0.4897 -2.5523
  147SAPE  H14Y16200   6.280   4.228   4.542  0.4660 -0.5004 -1.6396
  147SAPE  C31516201   6.158   4.267   4.366  0.9090  0.2667 -1.4342
  147SAPE  H15X16202   6.141   4.376   4.381  0.2550  0.1713 -1.4723
  147SAPE  H15Y16203   6.075   4.209   4.322  0.3620 -2.0093  2.2564
  147SAPE  C31616204   6.283   4.240   4.276 -0.5022 -0.2390  0.0900
  147SAPE  H16X16205   6.278   4.133   4.246  0.5498 -0.0531 -0.7930
  147SAPE  H16Y16206   6.374   4.273   4.330 -1.3080  1.0080  0.7378
  147SAPE  C31716207   6.268   4.324   4.143 -0.0831  0.3210 -0.2151
  147SAPE  H17X16208   6.256   4.432   4.164  0.1495  0.2851  0.1084
  147SAPE  H17Y16209   6.176   4.307   4.083  0.7515 -1.6431 -1.0351
  147SAPE  C31816210   6.385   4.315   4.043  0.9360 -0.2697 -0.5078
  147SAPE  H18X16211   6.474   4.360   4.093  0.5130 -0.2561  0.2390
  147SAPE  H18Y16212   6.361   4.378   3.954 -1.2743 -0.1295  0.1355
  147SAPE  H18Z16213   6.421   4.212   4.026  0.9360 -0.1547 -1.2266
  148SAPE     N16214   4.428   0.052   6.445  0.4129  0.3384 -0.2208
  148SAPE   HN116215   4.524   0.049   6.486  0.2793  1.9759  0.2672
  148SAPE   HN216216   4.416   0.155   6.441  1.1647  0.4229 -0.4599
  148SAPE   HN316217   4.357   0.013   6.509 -0.3501 -0.6159 -1.5971
  148SAPE   C1216218   4.434  -0.011   6.306 -0.9626  0.2664 -0.3077
  148SAPE  H12A16219   4.443  -0.120   6.326 -1.7545  0.5792  2.0722
  148SAPE  H12B16220   4.526   0.028   6.257 -0.2293 -0.6037  0.3446
  148SAPE   C1116221   4.305   0.029   6.234 -0.4128 -0.4598 -0.4124
  148SAPE  H11A16222   4.313   0.011   6.125  0.0248 -1.6103 -0.2064
  148SAPE  H11B16223   4.280   0.137   6.241  0.8744 -0.2286  1.6268
  148SAPE     P16224   4.054  -0.016   6.317  0.0798 -0.0497 -0.2476
  148SAPE   O1316225   3.971  -0.140   6.297  0.5599 -0.6300 -0.1512
  148SAPE   O1416226   4.054   0.043   6.453  0.1185  0.1256 -0.2269
  148SAPE   O1216227   4.207  -0.052   6.290 -0.0564 -0.1412 -0.6328
  148SAPE   O1116228   4.013   0.092   6.212  0.0026  0.2698  0.8226
  148SAPE    C116229   4.010   0.068   6.070 -0.5399  0.4638  0.3200
  148SAPE    HA16230   4.092   0.130   6.028  0.5813  0.1850  1.9974
  148SAPE    HB16231   4.046  -0.033   6.042 -2.7394 -0.5112  0.7185
  148SAPE    C216232   3.875   0.096   6.001  0.2898 -0.3401 -0.7548
  148SAPE    HS16233   3.889   0.078   5.892 -1.4757 -0.2578 -1.0237
  148SAPE   O2116234   3.837   0.233   6.012  0.0504  0.1380 -0.3526
  148SAPE   C2116235   3.924   0.326   5.949 -0.1276  0.1413  0.5271
  148SAPE   O2216236   4.029   0.296   5.895  0.1466 -0.2973 -0.1199
  148SAPE   C2216237   3.867   0.469   5.967  0.3034  0.1141 -0.4043
  148SAPE   H2R16238   3.809   0.467   6.061 -0.1727  0.3505 -0.6897
  148SAPE   H2S16239   3.948   0.545   5.971 -0.0814  0.9537 -4.5544
  148SAPE    C316240   3.763   0.000   6.046 -0.7068  0.1593 -0.2785
  148SAPE    HX16241   3.671   0.035   5.993 -1.4750 -0.6954  0.4439
  148SAPE    HY16242   3.741   0.013   6.154  0.2036 -1.9039  0.1917
  148SAPE   O3116243   3.811  -0.131   6.016  0.0837  0.1981 -0.1908
  148SAPE   C3116244   3.734  -0.227   6.070  0.6209  0.9892  0.1133
  148SAPE   O3216245   3.639  -0.208   6.146  0.4418  0.3676 -0.2206
  148SAPE   C3216246   3.782  -0.365   6.024  0.4939 -0.4101 -0.0271
  148SAPE   H2X16247   3.717  -0.406   5.944 -2.4488  1.1271  1.4003
  148SAPE   H2Y16248   3.768  -0.424   6.117 -0.9927  2.5883  1.8059
  148SAPE   C2316249   3.773   0.497   5.851  0.2415 -0.2235  0.4852
  148SAPE   H3R16250   3.722   0.593   5.874 -1.1306 -0.8433  0.1439
  148SAPE   H3S16251   3.697   0.417   5.838 -0.4883  0.6034 -0.5759
  148SAPE   C2416252   3.856   0.512   5.720 -1.0063  0.1204  0.1482
  148SAPE   H4R16253   3.946   0.446   5.722 -0.5390  0.7634  0.7016
  148SAPE   H4S16254   3.891   0.616   5.734  3.0726 -1.1611  0.6424
  148SAPE   C2516255   3.778   0.477   5.600 -0.2271  1.1214  0.0556
  148SAPE   H5R16256   3.717   0.560   5.560 -1.1068  0.2426 -0.4667
  148SAPE   C2616257   3.780   0.358   5.530 -0.3261 -0.7192  0.6956
  148SAPE   H6R16258   3.722   0.348   5.437 -0.4913 -0.5469  0.7779
  148SAPE   C2716259   3.865   0.236   5.558 -0.2318  0.1414  0.2797
  148SAPE   H7R16260   3.920   0.246   5.654  0.0914 -0.3314  0.1475
  148SAPE   H7S16261   3.940   0.214   5.479 -1.1536 -2.6753  0.0761
  148SAPE   C2816262   3.788   0.101   5.570 -0.0012 -0.3913  0.1474
  148SAPE   H8R16263   3.680   0.113   5.581  0.2735 -0.1479  4.3302
  148SAPE   C2916264   3.847  -0.017   5.560  0.2457 -0.7991 -0.1187
  148SAPE   H9R16265   3.787  -0.109   5.558  0.0915 -0.7236  0.6096
  148SAPE  C21016266   3.994  -0.047   5.550  0.0958  0.1544 -0.5859
  148SAPE  H10R16267   4.048  -0.001   5.636 -1.0646  0.4938 -0.0156
  148SAPE  H10S16268   4.022   0.013   5.461 -1.1129  0.6611 -0.6485
  148SAPE  C21116269   4.035  -0.191   5.529  0.1160 -0.3577 -0.3065
  148SAPE  H11R16270   4.064  -0.242   5.622 -0.1646  0.1912  0.0867
  148SAPE  C21216271   4.022  -0.266   5.415 -0.1991  0.0470 -0.5220
  148SAPE  H12R16272   4.061  -0.369   5.423  0.4011  0.2989 -0.1702
  148SAPE  C21316273   3.993  -0.213   5.272  0.2103 -0.2953  0.0714
  148SAPE  H13R16274   3.950  -0.111   5.275  0.4702 -0.1772 -0.2487
  148SAPE  H13S16275   3.917  -0.268   5.212  0.6130  0.1532 -0.8676
  148SAPE  C21416276   4.120  -0.198   5.197  0.6184  0.2753 -0.2687
  148SAPE  H14R16277   4.197  -0.146   5.256  1.0581  0.9466 -1.4094
  148SAPE  C21516278   4.141  -0.223   5.068  0.4938  0.9526 -0.3579
  148SAPE  H15R16279   4.241  -0.214   5.023 -0.1542 -2.0263 -2.7115
  148SAPE  C21616280   4.049  -0.297   4.982  0.6290  0.1343  0.3752
  148SAPE  H16R16281   4.010  -0.391   5.025 -2.8116  0.9323 -0.7058
  148SAPE  H16S16282   4.107  -0.310   4.888  0.9305  1.1851  0.3937
  148SAPE  C21716283   3.920  -0.217   4.937 -0.0954 -1.0352  0.0781
  148SAPE  H17R16284   3.933  -0.112   4.904 -0.7285 -0.9970 -0.0528
  148SAPE  H17S16285   3.844  -0.208   5.017 -0.2647  0.1476 -0.1953
  148SAPE  C21816286   3.842  -0.295   4.832  0.1157  0.5677  0.6257
  148SAPE  H18R16287   3.906  -0.309   4.743 -1.4851 -0.0767 -0.4758
  148SAPE  H18S16288   3.755  -0.233   4.800 -2.2847 -2.3501  1.0451
  148SAPE  C21916289   3.793  -0.431   4.870 -0.0220 -0.0752  0.9173
  148SAPE  H19R16290   3.756  -0.411   4.973 -1.7438 -0.0090  0.3125
  148SAPE  H19S16291   3.883  -0.496   4.867  1.4890  1.9885 -0.8377
  148SAPE  C22016292   3.668  -0.474   4.785 -1.2171  0.0183 -0.3925
  148SAPE  H20R16293   3.594  -0.393   4.764 -0.1747  0.3423 -3.2505
  148SAPE  H20S16294   3.616  -0.553   4.844 -1.5148  1.6968  1.7574
  148SAPE  H20T16295   3.703  -0.511   4.687 -1.4661 -1.1211 -0.0704
  148SAPE   C3316296   3.924  -0.383   5.964 -1.0202  0.2695 -0.5691
  148SAPE   H3X16297   4.004  -0.369   6.040  1.4371 -0.9303 -2.7743
  148SAPE   H3Y16298   3.946  -0.302   5.891  1.8872  0.8927  0.8519
  148SAPE   C3416299   3.935  -0.521   5.900  0.3060 -0.9037  0.3795
  148SAPE   H4X16300   3.894  -0.596   5.971  0.0126 -0.8797  0.2333
  148SAPE   H4Y16301   4.043  -0.533   5.875  0.3963 -0.3397  0.4912
  148SAPE   C3516302   3.865  -0.516   5.758 -0.9694 -0.1290 -0.6199
  148SAPE   H5X16303   3.881  -0.414   5.718 -2.5288  1.1346  1.6884
  148SAPE   H5Y16304   3.759  -0.543   5.776 -0.8031  0.9698  2.7169
  148SAPE   C3616305   3.919  -0.624   5.665  0.2703 -0.8472 -0.4809
  148SAPE   H6X16306   3.883  -0.723   5.700  1.5007 -1.0809  0.2193
  148SAPE   H6Y16307   4.030  -0.636   5.670  0.1933 -1.2195  0.6481
  148SAPE   C3716308   3.872  -0.600   5.523 -0.1145  1.3281 -0.0601
  148SAPE   H7X16309   3.897  -0.496   5.496 -0.1826  1.4607  0.3851
  148SAPE   H7Y16310   3.761  -0.604   5.529 -0.0259  1.1568  3.3362
  148SAPE   C3816311   3.943  -0.702   5.425  0.1656 -0.2560 -0.5933
  148SAPE   H8X16312   3.890  -0.799   5.438 -0.8904  0.4465  0.6328
  148SAPE   H8Y16313   4.046  -0.714   5.465  0.9418 -2.0305 -2.8710
  148SAPE   C3916314   3.941  -0.654   5.279 -0.7466 -0.4256  0.0229
  148SAPE   H9X16315   4.030  -0.589   5.263 -1.0713  0.3905  1.3706
  148SAPE   H9Y16316   3.852  -0.588   5.272  0.4088  1.3273  0.9985
  148SAPE  C31016317   3.943  -0.767   5.180  0.2851  0.6370  0.6279
  148SAPE  H10X16318   3.865  -0.843   5.205 -0.2582  2.2620  4.5000
  148SAPE  H10Y16319   4.037  -0.823   5.200  0.7025  0.9388 -0.4356
  148SAPE  C31116320   3.944  -0.721   5.029  0.1468 -0.0672 -0.1553
  148SAPE  H11X16321   4.027  -0.655   4.996 -0.1828 -0.9553 -3.0527
  148SAPE  H11Y16322   3.852  -0.664   5.006  1.5665  2.4869  0.1154
  148SAPE  C31216323   3.960  -0.843   4.930 -0.2769  0.2672 -0.7326
  148SAPE  H12X16324   3.870  -0.900   4.961 -1.1849  1.7064 -0.6329
  148SAPE  H12Y16325   4.053  -0.902   4.943 -0.6068 -0.3294 -1.0273
  148SAPE  C31316326   3.955  -0.794   4.783 -0.3373  0.5701 -0.7195
  148SAPE  H13X16327   3.908  -0.693   4.792  0.5391  1.0794 -1.6858
  148SAPE  H13Y16328   3.893  -0.865   4.725 -0.7196  0.0677  0.2710
  148SAPE  C31416329   4.088  -0.784   4.713  0.2565 -0.1845  0.4804
  148SAPE  H14X16330   4.132  -0.885   4.700  1.0661  0.2324 -0.1247
  148SAPE  H14Y16331   4.150  -0.723   4.782  0.0103 -0.5789  1.0567
  148SAPE  C31516332   4.067  -0.723   4.573 -0.8704  0.4425 -0.1283
  148SAPE  H15X16333   4.011  -0.793   4.506 -1.3696  2.4800 -1.9426
  148SAPE  H15Y16334   4.166  -0.707   4.526 -0.1705 -0.2149  1.0700
  148SAPE  C31616335   3.997  -0.587   4.574 -0.1068  0.6404 -1.2231
  148SAPE  H16X16336   4.012  -0.530   4.668  0.2865  1.3784 -1.7230
  148SAPE  H16Y16337   3.888  -0.606   4.561  0.2262 -1.5051 -1.1037
  148SAPE  C31716338   4.039  -0.498   4.457 -0.1220 -0.2035 -0.7550
  148SAPE  H17X16339   4.054  -0.559   4.366 -3.2711  0.9748 -2.2047
  148SAPE  H17Y16340   4.138  -0.456   4.485 -0.2930 -0.0411 -0.3815
  148SAPE  C31816341   3.951  -0.374   4.429  0.3124 -0.3640 -0.4774
  148SAPE  H18X16342   3.985  -0.296   4.357  0.4166  1.0097  1.0063
  148SAPE  H18Y16343   3.942  -0.331   4.531  0.7750  0.2485 -0.6852
  148SAPE  H18Z16344   3.847  -0.400   4.401 -0.5106  0.2824  1.8285
  149SAPE     N16345   3.704   2.638   6.455  0.1311  0.4471  0.0273
  149SAPE   HN116346   3.668   2.708   6.523 -1.3174 -1.6974  1.6014
  149SAPE   HN216347   3.730   2.550   6.504 -1.8347 -0.3367 -0.2098
  149SAPE   HN316348   3.790   2.675   6.410  0.5640  0.6958  1.0455
  149SAPE   C1216349   3.599   2.576   6.361 -0.0607  0.2581  0.4172
  149SAPE  H12A16350   3.507   2.563   6.422  1.5152  0.7294  3.0644
  149SAPE  H12B16351   3.631   2.475   6.326 -0.2832  0.6684 -1.0350
  149SAPE   C1116352   3.572   2.674   6.242  0.4984 -0.7332 -0.2308
  149SAPE  H11A16353   3.528   2.627   6.152 -0.5815 -1.0121  0.4259
  149SAPE  H11B16354   3.668   2.710   6.198 -0.2792  1.4122 -0.2941
  149SAPE     P16355   3.327   2.756   6.291 -0.2728 -0.0158  0.2508
  149SAPE   O1316356   3.289   2.624   6.342 -0.0089 -0.0363  0.2320
  149SAPE   O1416357   3.268   2.867   6.367 -0.4593  0.1247 -0.1506
  149SAPE   O1216358   3.479   2.772   6.281 -0.6645  0.0711  0.6506
  149SAPE   O1116359   3.300   2.764   6.134  0.3844  0.8579  0.2733
  149SAPE    C116360   3.189   2.716   6.071 -0.6469 -1.0908  0.4170
  149SAPE    HA16361   3.103   2.775   6.109  0.4191  1.8151 -1.3401
  149SAPE    HB16362   3.210   2.747   5.966  2.5902 -4.1174 -0.0262
  149SAPE    C216363   3.173   2.561   6.059  0.7308  0.1892  0.0683
  149SAPE    HS16364   3.141   2.532   6.161  1.3552  0.8663  0.4656
  149SAPE   O2116365   3.298   2.502   6.024  0.6053 -0.1411  0.3749
  149SAPE   C2116366   3.296   2.369   6.036  0.7129 -0.2267  0.1214
  149SAPE   O2216367   3.204   2.301   6.075 -0.0260 -0.6629 -0.0583
  149SAPE   C2216368   3.444   2.313   5.999  0.5537 -0.5393 -0.1756
  149SAPE   H2R16369   3.502   2.407   5.982 -2.4234  1.1321 -2.1445
  149SAPE   H2S16370   3.490   2.260   6.085  0.1291 -0.3319  0.1847
  149SAPE    C316371   3.067   2.533   5.950  0.1545 -0.7977 -0.0651
  149SAPE    HX16372   2.975   2.595   5.960 -0.6241 -1.5885 -1.9032
  149SAPE    HY16373   3.040   2.427   5.973 -2.9394 -0.2814 -0.8643
  149SAPE   O3116374   3.126   2.552   5.821  0.0955 -0.9277  0.3617
  149SAPE   C3116375   3.035   2.552   5.726 -0.5640  0.3402 -0.3138
  149SAPE   O3216376   2.916   2.538   5.735  0.2039  0.2195 -0.3267
  149SAPE   C3216377   3.111   2.589   5.600 -0.1545 -0.8324 -0.9205
  149SAPE   H2X16378   3.205   2.529   5.593 -0.1638 -1.3880  2.2414
  149SAPE   H2Y16379   3.134   2.697   5.605 -0.8702 -0.7240  0.7154
  149SAPE   C2316380   3.445   2.216   5.877  0.7233 -0.8279  0.4101
  149SAPE   H3R16381   3.339   2.197   5.846  0.2523  0.7441  0.9665
  149SAPE   H3S16382   3.482   2.120   5.917  0.1539 -0.6517  1.3867
  149SAPE   C2416383   3.523   2.256   5.755  0.0254 -0.0289  0.2952
  149SAPE   H4R16384   3.628   2.272   5.786  0.1925 -0.1101 -0.2322
  149SAPE   H4S16385   3.479   2.349   5.714  3.2087  0.5144 -2.1980
  149SAPE   C2516386   3.509   2.155   5.643  0.4582  0.3024  0.2669
  149SAPE   H5R16387   3.502   2.049   5.671 -2.4064  0.1070 -0.8503
  149SAPE   C2616388   3.494   2.187   5.514 -0.4241  0.3457  0.5105
  149SAPE   H6R16389   3.498   2.106   5.440 -0.7669 -1.0884  2.0140
  149SAPE   C2716390   3.487   2.320   5.446 -0.9805  0.1676  0.0413
  149SAPE   H7R16391   3.578   2.340   5.386 -0.8223 -3.0117 -1.0138
  149SAPE   H7S16392   3.477   2.406   5.515  2.0513 -0.6007  1.5848
  149SAPE   C2816393   3.357   2.317   5.370 -0.2254 -0.3404  0.2160
  149SAPE   H8R16394   3.274   2.339   5.438  1.1410  1.2634  1.4605
  149SAPE   C2916395   3.330   2.294   5.236 -0.0649 -0.6313  0.4942
  149SAPE   H9R16396   3.224   2.293   5.207  0.1204 -0.6766 -0.1824
  149SAPE  C21016397   3.429   2.263   5.125 -0.1857 -0.8096 -0.1013
  149SAPE  H10R16398   3.414   2.160   5.086  3.6443 -1.3089 -0.6194
  149SAPE  H10S16399   3.537   2.253   5.147  0.2518 -0.9373 -2.1150
  149SAPE  C21116400   3.430   2.357   5.006  0.0349 -0.6435 -0.1388
  149SAPE  H11R16401   3.475   2.455   5.028  1.4183 -1.3289  0.1904
  149SAPE  C21216402   3.358   2.333   4.894  0.0215  0.0574 -0.0669
  149SAPE  H12R16403   3.339   2.418   4.826 -0.3468 -0.7360 -0.9718
  149SAPE  C21316404   3.279   2.210   4.859 -0.1126  0.2877  0.0238
  149SAPE  H13R16405   3.234   2.181   4.956  0.7105 -1.5438 -0.1006
  149SAPE  H13S16406   3.358   2.135   4.834  0.2092  0.7063 -0.2268
  149SAPE  C21416407   3.175   2.231   4.756  0.1471  0.0940  0.0889
  149SAPE  H14R16408   3.105   2.311   4.785  1.5213  0.7226  1.9006
  149SAPE  C21516409   3.154   2.164   4.642 -0.1735 -0.6680 -0.3055
  149SAPE  H15R16410   3.066   2.187   4.581 -0.1381  0.8870  0.1767
  149SAPE  C21616411   3.247   2.066   4.583 -0.2514  1.0255 -0.0737
  149SAPE  H16R16412   3.188   2.008   4.509  1.4153  1.3568 -1.7409
  149SAPE  H16S16413   3.281   1.999   4.664  2.7463 -0.6752 -2.5053
  149SAPE  C21716414   3.385   2.128   4.529  0.0646  0.1290  0.5889
  149SAPE  H17R16415   3.448   2.041   4.500 -0.0826  0.1226  0.2745
  149SAPE  H17S16416   3.428   2.171   4.622  0.2712 -0.4379  0.7560
  149SAPE  C21816417   3.381   2.229   4.412  0.2594  1.0298 -0.7420
  149SAPE  H18R16418   3.310   2.313   4.428 -1.2094 -0.3818  0.5684
  149SAPE  H18S16419   3.356   2.176   4.318  0.9284  1.3944 -1.1266
  149SAPE  C21916420   3.523   2.292   4.392 -0.0690 -0.6528  0.0600
  149SAPE  H19R16421   3.602   2.226   4.348  0.6598 -0.5931  1.2295
  149SAPE  H19S16422   3.560   2.326   4.491  2.7206 -1.4365 -0.6258
  149SAPE  C22016423   3.513   2.416   4.301 -0.2555  0.4722  0.1942
  149SAPE  H20R16424   3.428   2.484   4.323  0.6122  2.0881 -1.1641
  149SAPE  H20S16425   3.486   2.381   4.199 -1.0502 -0.6367  0.7639
  149SAPE  H20T16426   3.606   2.477   4.302  0.9122 -1.2169  0.0726
  149SAPE   C3316427   3.014   2.560   5.475  0.5938 -0.4858 -0.6392
  149SAPE   H3X16428   2.926   2.628   5.473  0.7159 -0.1117  2.2737
  149SAPE   H3Y16429   2.975   2.457   5.484 -3.3659  0.8514 -0.3075
  149SAPE   C3416430   3.081   2.565   5.342 -0.1504 -0.4257  0.0141
  149SAPE   H4X16431   3.176   2.508   5.345 -1.5535 -2.9421 -0.7097
  149SAPE   H4Y16432   3.115   2.670   5.331  1.1885 -0.9660 -1.4000
  149SAPE   C3516433   3.001   2.530   5.213  0.0878  0.1896  0.1860
  149SAPE   H5X16434   2.909   2.589   5.193  1.0258  1.8396  0.5217
  149SAPE   H5Y16435   2.969   2.424   5.215  0.5787  0.0470  1.8084
  149SAPE   C3616436   3.091   2.573   5.096 -0.0197  0.7180 -0.7295
  149SAPE   H6X16437   3.177   2.503   5.086 -1.2548 -0.8747 -0.6676
  149SAPE   H6Y16438   3.130   2.675   5.114  0.8581  0.0527  1.4868
  149SAPE   C3716439   3.017   2.557   4.960 -0.3507  0.8115 -0.2735
  149SAPE   H7X16440   2.921   2.614   4.963 -0.3702  0.8187 -0.9387
  149SAPE   H7Y16441   2.992   2.450   4.948  0.8855  0.4931 -0.1351
  149SAPE   C3816442   3.084   2.614   4.835  0.3402 -0.4370 -0.9201
  149SAPE   H8X16443   3.188   2.574   4.839 -0.8343 -3.7435 -0.7093
  149SAPE   H8Y16444   3.083   2.725   4.836 -1.2949 -0.2447 -5.2499
  149SAPE   C3916445   3.008   2.572   4.707  0.0962  0.1377 -0.3024
  149SAPE   H9X16446   2.908   2.621   4.709 -0.1778 -0.4336  0.3184
  149SAPE   H9Y16447   2.964   2.471   4.719 -0.3919  0.3498 -0.2633
  149SAPE  C31016448   3.084   2.591   4.573 -0.2564 -0.3394  0.2085
  149SAPE  H10X16449   3.189   2.559   4.591  0.2245  1.5171  0.8926
  149SAPE  H10Y16450   3.089   2.699   4.548 -0.5403 -0.0522  1.3006
  149SAPE  C31116451   3.024   2.521   4.444  0.4003  0.2660  0.0433
  149SAPE  H11X16452   2.917   2.547   4.433 -0.6434 -3.0818  1.1220
  149SAPE  H11Y16453   3.038   2.411   4.451 -0.1765  0.1995  0.1706
  149SAPE  C31216454   3.094   2.569   4.314  0.6389 -0.0576  0.1285
  149SAPE  H12X16455   3.202   2.544   4.318  0.8557  0.7993 -0.1746
  149SAPE  H12Y16456   3.085   2.679   4.297  0.3429 -0.1058 -0.0322
  149SAPE  C31316457   3.033   2.492   4.198  0.2772  0.0812  0.2782
  149SAPE  H13X16458   2.929   2.528   4.185  0.4224  0.0750 -1.1462
  149SAPE  H13Y16459   3.034   2.382   4.212  1.2273  0.3377  2.5390
  149SAPE  C31416460   3.105   2.527   4.062 -0.1449 -0.6455  0.2606
  149SAPE  H14X16461   3.139   2.633   4.063 -0.9672 -0.3600 -0.3785
  149SAPE  H14Y16462   3.043   2.529   3.970  1.2083  0.4137 -0.6620
  149SAPE  C31516463   3.222   2.433   4.039 -0.3999  0.1970  0.1548
  149SAPE  H15X16464   3.173   2.333   4.048 -2.6583  1.2305  0.0747
  149SAPE  H15Y16465   3.287   2.448   4.127 -0.7324 -0.5545  0.5415
  149SAPE  C31616466   3.291   2.430   3.904  0.2667  0.1290  0.0842
  149SAPE  H16X16467   3.240   2.504   3.839  3.7294  3.5651  0.8747
  149SAPE  H16Y16468   3.271   2.328   3.865  2.6470  0.1739 -1.5006
  149SAPE  C31716469   3.448   2.458   3.908  0.5862  0.4982 -0.0373
  149SAPE  H17X16470   3.483   2.375   3.973  0.7952 -1.7841 -2.8639
  149SAPE  H17Y16471   3.455   2.555   3.962 -0.7187  0.7737 -0.3119
  149SAPE  C31816472   3.515   2.453   3.767  0.4451 -0.4000  0.3249
  149SAPE  H18X16473   3.507   2.550   3.713 -0.8268  0.3611  1.7772
  149SAPE  H18Y16474   3.469   2.374   3.705 -2.8157 -1.1210  3.3055
  149SAPE  H18Z16475   3.621   2.422   3.773  0.1938 -0.9881  2.5345
  150SAPE     N16476   6.210   3.495   6.301 -0.3568 -0.4729  0.5070
  150SAPE   HN116477   6.205   3.439   6.214 -0.6534 -1.5985  1.2268
  150SAPE   HN216478   6.197   3.594   6.272  1.2957 -0.3749 -0.0280
  150SAPE   HN316479   6.307   3.484   6.339 -0.5168  1.9565  1.8272
  150SAPE   C1216480   6.104   3.463   6.392  0.1177 -0.3093  0.0286
  150SAPE  H12A16481   6.126   3.517   6.486  1.5958  1.0918 -1.0582
  150SAPE  H12B16482   6.097   3.352   6.395  4.9000 -0.8499 -1.1600
  150SAPE   C1116483   5.972   3.512   6.332 -0.1964  0.3372  0.0894
  150SAPE  H11A16484   5.975   3.622   6.316 -1.5569  0.2730 -0.7079
  150SAPE  H11B16485   5.888   3.504   6.404 -0.6737  0.7282 -0.4220
  150SAPE     P16486   5.818   3.349   6.191 -0.3662  0.1367 -0.1717
  150SAPE   O1316487   5.826   3.243   6.291 -0.2249  0.7971 -0.8509
  150SAPE   O1416488   5.697   3.437   6.190  0.2004  0.4477 -0.7372
  150SAPE   O1216489   5.944   3.448   6.203  1.1798  0.1160  0.2285
  150SAPE   O1116490   5.848   3.300   6.051  0.1856  0.3836 -0.3867
  150SAPE    C116491   5.918   3.361   5.946  0.6734  0.1919  0.4489
  150SAPE    HA16492   5.998   3.432   5.975  0.3663  1.0067 -0.6395
  150SAPE    HB16493   5.983   3.284   5.900  1.0481 -1.8049  3.9577
  150SAPE    C216494   5.826   3.421   5.837 -0.0204 -0.3970  0.3103
  150SAPE    HS16495   5.786   3.515   5.881  1.2211 -0.6859  2.1712
  150SAPE   O2116496   5.714   3.335   5.808 -0.3047 -0.0347  0.1289
  150SAPE   C2116497   5.606   3.399   5.773  0.3547  0.1369  0.2815
  150SAPE   O2216498   5.591   3.522   5.777  0.1131  0.1183 -0.5080
  150SAPE   C2216499   5.516   3.292   5.716  0.3320 -0.3554 -0.3725
  150SAPE   H2R16500   5.536   3.263   5.611 -1.7779 -1.1410 -0.6196
  150SAPE   H2S16501   5.528   3.202   5.782 -3.1664  0.8895  2.3003
  150SAPE    C316502   5.914   3.455   5.711  0.6268 -0.6483  0.8809
  150SAPE    HX16503   5.953   3.357   5.674  1.8799  0.2535 -0.2940
  150SAPE    HY16504   6.006   3.511   5.737  1.7586 -2.6365  1.3861
  150SAPE   O3116505   5.856   3.541   5.611 -0.1021  0.0562 -0.3481
  150SAPE   C3116506   5.792   3.476   5.515 -1.0240  0.3966 -0.3677
  150SAPE   O3216507   5.788   3.357   5.500  0.0037  0.4167 -0.2248
  150SAPE   C3216508   5.741   3.581   5.414 -0.9212 -0.0404 -0.3443
  150SAPE   H2X16509   5.792   3.578   5.315 -1.1458 -1.3772 -0.4398
  150SAPE   H2Y16510   5.754   3.683   5.456 -2.8146  0.0218  0.1878
  150SAPE   C2316511   5.364   3.319   5.731  0.1836 -0.1468 -0.0777
  150SAPE   H3R16512   5.339   3.386   5.645 -0.2258 -2.6974 -2.0749
  150SAPE   H3S16513   5.339   3.365   5.829  3.2727 -1.6275  1.5306
  150SAPE   C2416514   5.266   3.205   5.705 -0.2571 -0.1029  0.1230
  150SAPE   H4R16515   5.282   3.189   5.597 -0.5576 -3.0981  0.4330
  150SAPE   H4S16516   5.166   3.251   5.723 -0.5360 -0.9956  0.9461
  150SAPE   C2516517   5.279   3.078   5.778  0.1374 -0.4820  0.6112
  150SAPE   H5R16518   5.252   3.089   5.884 -1.4416  1.4898  0.0527
  150SAPE   C2616519   5.308   2.957   5.724  0.6841 -0.3362 -0.5567
  150SAPE   H6R16520   5.312   2.875   5.798  0.4450  1.3021  1.3876
  150SAPE   C2716521   5.340   2.937   5.577  1.3037  0.5013 -0.0684
  150SAPE   H7R16522   5.249   2.972   5.525  0.1682 -1.4873  0.4767
  150SAPE   H7S16523   5.328   2.828   5.559 -1.4015  0.5531  0.9925
  150SAPE   C2816524   5.471   2.981   5.526  0.1458 -0.3156  0.7451
  150SAPE   H8R16525   5.554   2.974   5.597 -1.1038 -1.0788  2.1592
  150SAPE   C2916526   5.495   3.019   5.398 -0.2643  0.1186  0.6494
  150SAPE   H9R16527   5.600   3.036   5.370 -0.5197  0.7924  0.0669
  150SAPE  C21016528   5.398   3.035   5.282  0.5560 -0.2116 -0.1049
  150SAPE  H10R16529   5.296   2.991   5.288  0.4061 -0.0124 -0.9980
  150SAPE  H10S16530   5.448   2.981   5.199 -0.4296  1.1666 -1.6566
  150SAPE  C21116531   5.384   3.188   5.258 -0.3203 -0.0306  0.7462
  150SAPE  H11R16532   5.395   3.249   5.349 -2.6525  0.7727  0.5543
  150SAPE  C21216533   5.377   3.250   5.133  0.5813 -0.1739 -0.1084
  150SAPE  H12R16534   5.375   3.360   5.131 -0.5607 -0.1095  1.9262
  150SAPE  C21316535   5.367   3.174   5.000  0.0814  0.1063 -0.2882
  150SAPE  H13R16536   5.322   3.073   5.010  0.8092 -0.1574  0.5324
  150SAPE  H13S16537   5.469   3.147   4.965 -0.7924 -0.9234 -2.1512
  150SAPE  C21416538   5.303   3.253   4.886 -0.1883  0.4716  0.4672
  150SAPE  H14R16539   5.299   3.361   4.905 -0.5645  0.1574  2.4185
  150SAPE  C21516540   5.273   3.206   4.765  0.7386  0.9413  0.3103
  150SAPE  H15R16541   5.219   3.271   4.694  0.4830  0.7737  0.3509
  150SAPE  C21616542   5.289   3.065   4.707  0.2306 -0.7683  0.2433
  150SAPE  H16R16543   5.311   2.993   4.788  0.0589  1.3895  2.3042
  150SAPE  H16S16544   5.371   3.063   4.632 -0.4101 -0.2198 -0.4926
  150SAPE  C21716545   5.168   3.021   4.624 -0.3508 -0.1891  0.0253
  150SAPE  H17R16546   5.068   3.032   4.671 -1.7520  1.0067 -2.9925
  150SAPE  H17S16547   5.182   2.912   4.610  0.0855 -0.1570  0.1785
  150SAPE  C21816548   5.149   3.080   4.486 -0.4865  0.4634  0.4899
  150SAPE  H18R16549   5.122   3.187   4.483 -1.9296  0.1077 -1.7847
  150SAPE  H18S16550   5.058   3.027   4.451  0.3680 -0.7859  0.0487
  150SAPE  C21916551   5.258   3.051   4.377  0.1406 -0.2930 -0.2572
  150SAPE  H19R16552   5.285   2.943   4.372  1.5644  0.0306 -0.1246
  150SAPE  H19S16553   5.346   3.106   4.417  0.1276 -0.5937  0.1985
  150SAPE  C22016554   5.220   3.089   4.234  0.4909  0.0531  0.6920
  150SAPE  H20R16555   5.128   3.041   4.193  1.9727 -1.4803 -1.0355
  150SAPE  H20S16556   5.303   3.065   4.164 -0.0837 -2.1690  0.7093
  150SAPE  H20T16557   5.211   3.199   4.225 -0.5569  0.1718  2.6572
  150SAPE   C3316558   5.588   3.560   5.376  0.3405  0.1970  0.2785
  150SAPE   H3X16559   5.523   3.544   5.465 -0.1290 -1.5956 -0.3518
  150SAPE   H3Y16560   5.592   3.467   5.317  1.3338 -0.8425  1.8887
  150SAPE   C3416561   5.525   3.670   5.289  0.4350  0.1126  0.7031
  150SAPE   H4X16562   5.427   3.637   5.248  0.8327 -1.3067  0.8351
  150SAPE   H4Y16563   5.593   3.702   5.208  0.7632 -2.5792 -0.2012
  150SAPE   C3516564   5.503   3.795   5.366 -0.0101  0.3572 -1.0722
  150SAPE   H5X16565   5.587   3.818   5.435  0.3306  0.8993 -1.6650
  150SAPE   H5Y16566   5.427   3.788   5.447  1.8371 -1.8663  0.6433
  150SAPE   C3616567   5.457   3.908   5.286 -0.1038  0.4199  0.2495
  150SAPE   H6X16568   5.375   3.870   5.222  0.1507 -0.1211  0.2306
  150SAPE   H6Y16569   5.544   3.936   5.222  1.0138 -1.7574  0.7274
  150SAPE   C3716570   5.424   4.040   5.361 -0.1049 -0.3482 -0.4091
  150SAPE   H7X16571   5.508   4.073   5.426 -0.0732 -2.2608  0.5723
  150SAPE   H7Y16572   5.350   4.023   5.442  0.1598  2.6749  0.6008
  150SAPE   C3816573   5.354   4.150   5.272  0.5290  0.6398 -0.0587
  150SAPE   H8X16574   5.428   4.198   5.204  0.1645  1.7486  0.3250
  150SAPE   H8Y16575   5.320   4.237   5.331  0.5782  1.1228 -0.7367
  150SAPE   C3916576   5.228   4.106   5.195 -0.1366 -0.2724 -0.4329
  150SAPE   H9X16577   5.172   4.032   5.256  1.3330 -0.5722  0.6175
  150SAPE   H9Y16578   5.259   4.067   5.096  0.0413  0.6510 -0.7486
  150SAPE  C31016579   5.146   4.228   5.157 -0.1461  0.2583  0.0777
  150SAPE  H10X16580   5.210   4.317   5.135  2.3496 -0.9846  1.8291
  150SAPE  H10Y16581   5.083   4.256   5.243 -1.6814 -4.8437  0.9589
  150SAPE  C31116582   5.066   4.195   5.034 -0.2089 -0.2091  0.3606
  150SAPE  H11X16583   5.131   4.165   4.949  2.4563  1.3306  1.6996
  150SAPE  H11Y16584   5.018   4.280   4.982  0.9043 -0.3849 -1.0288
  150SAPE  C31216585   4.949   4.087   5.039  0.1986 -0.8819  0.5432
  150SAPE  H12X16586   4.875   4.132   5.109 -1.2458  0.9049 -1.9588
  150SAPE  H12Y16587   5.002   3.994   5.067 -1.5797 -2.6706 -1.6193
  150SAPE  C31316588   4.884   4.078   4.900  0.1670  0.1407 -0.0076
  150SAPE  H13X16589   4.967   4.072   4.826  0.6750  0.2966  0.5395
  150SAPE  H13Y16590   4.816   4.163   4.877  0.2297  1.0323  2.7087
  150SAPE  C31416591   4.808   3.953   4.893  0.0016  1.0060  0.2725
  150SAPE  H14X16592   4.734   3.940   4.975 -0.2570 -1.3132 -0.2587
  150SAPE  H14Y16593   4.888   3.878   4.912 -0.2082  0.3157 -1.3683
  150SAPE  C31516594   4.736   3.917   4.757 -0.1030 -0.9182 -0.2840
  150SAPE  H15X16595   4.817   3.918   4.681 -1.0463  1.4414 -1.3564
  150SAPE  H15Y16596   4.664   3.996   4.729  0.3002  0.5660  2.4788
  150SAPE  C31616597   4.652   3.782   4.774 -0.5037 -0.3375 -0.5538
  150SAPE  H16X16598   4.568   3.796   4.846  2.2285 -2.4962  3.4100
  150SAPE  H16Y16599   4.718   3.701   4.812  3.0203  1.7827 -1.6481
  150SAPE  C31716600   4.599   3.724   4.644  0.1275 -0.3797  0.3572
  150SAPE  H17X16601   4.675   3.743   4.565 -1.4025  2.1926 -0.6388
  150SAPE  H17Y16602   4.514   3.780   4.599  1.5505  0.4339 -1.4526
  150SAPE  C31816603   4.563   3.578   4.660  0.5280  0.3548  0.7730
  150SAPE  H18X16604   4.495   3.560   4.745  0.5694 -0.0611  0.7191
  150SAPE  H18Y16605   4.650   3.513   4.684 -0.3396 -0.7089  1.1138
  150SAPE  H18Z16606   4.514   3.545   4.565  0.8745  0.5223  0.5320
  151SAPE     N16607   6.003   2.190   6.173 -0.3118  1.2547  0.2941
  151SAPE   HN116608   6.031   2.179   6.074 -1.2637  1.8881 -0.0506
  151SAPE   HN216609   5.991   2.291   6.195 -1.2588  1.0673  0.6870
  151SAPE   HN316610   6.076   2.151   6.237 -1.9163 -0.7780  1.0000
  151SAPE   C1216611   5.872   2.112   6.191  0.3829 -0.3872 -0.3343
  151SAPE  H12A16612   5.817   2.155   6.278 -0.2168 -0.6353 -0.5863
  151SAPE  H12B16613   5.911   2.009   6.206  0.2054 -0.3039  0.8155
  151SAPE   C1116614   5.772   2.133   6.075  0.3031  0.1386  0.2081
  151SAPE  H11A16615   5.790   2.066   5.988  2.2204  0.5234  0.2761
  151SAPE  H11B16616   5.790   2.231   6.027 -1.0808  0.2421 -0.1530
  151SAPE     P16617   5.557   1.987   6.134 -0.3070  0.1296 -0.5880
  151SAPE   O1316618   5.637   1.898   6.219  0.2377 -0.5497 -0.8315
  151SAPE   O1416619   5.420   2.021   6.171  0.3740 -0.0186  0.4073
  151SAPE   O1216620   5.638   2.129   6.112  0.6081 -0.0067 -0.0246
  151SAPE   O1116621   5.556   1.922   5.992 -0.2006 -0.3381  0.1278
  151SAPE    C116622   5.484   1.997   5.894 -0.3165 -0.9644 -0.1159
  151SAPE    HA16623   5.423   2.081   5.934 -0.9491 -2.0219  1.2033
  151SAPE    HB16624   5.551   2.051   5.823 -1.5254 -0.1711 -0.6903
  151SAPE    C216625   5.389   1.906   5.808 -0.2306  0.3153  0.1198
  151SAPE    HS16626   5.323   1.845   5.873 -1.1510  0.4425 -0.6623
  151SAPE   O2116627   5.475   1.826   5.727  0.3685 -0.1682 -0.0868
  151SAPE   C2116628   5.426   1.697   5.705 -0.0666 -0.4034  0.5308
  151SAPE   O2216629   5.322   1.651   5.741  0.7329  0.0943 -0.4005
  151SAPE   C2216630   5.523   1.620   5.607 -0.3024 -0.3235 -0.1316
  151SAPE   H2R16631   5.608   1.585   5.671  0.5236  2.0098  0.1504
  151SAPE   H2S16632   5.470   1.530   5.570 -3.0169  1.0452  0.1575
  151SAPE    C316633   5.310   1.999   5.718  0.8311 -0.0021 -0.6669
  151SAPE    HX16634   5.391   2.049   5.662  1.5453 -0.9940 -0.5437
  151SAPE    HY16635   5.256   2.077   5.776  1.3670 -1.0156  1.2639
  151SAPE   O3116636   5.223   1.933   5.625  0.3244  0.8617  0.6412
  151SAPE   C3116637   5.118   1.869   5.677 -0.0593 -1.1467  0.0786
  151SAPE   O3216638   5.085   1.889   5.794 -0.0457 -0.4401  0.4011
  151SAPE   C3216639   5.044   1.774   5.575 -0.3632  0.8892 -0.2339
  151SAPE   H2X16640   4.947   1.828   5.574  0.7581  3.0550  0.5285
  151SAPE   H2Y16641   5.019   1.674   5.617 -1.9958  1.9321  1.4563
  151SAPE   C2316642   5.571   1.706   5.489  0.1936 -0.1513  0.2246
  151SAPE   H3R16643   5.651   1.774   5.524  3.3697 -2.8838 -1.1485
  151SAPE   H3S16644   5.488   1.773   5.457  0.2941  0.3437  0.9799
  151SAPE   C2416645   5.617   1.635   5.356 -0.1252 -0.5663 -0.3941
  151SAPE   H4R16646   5.698   1.564   5.385  1.6964  1.8101  0.6718
  151SAPE   H4S16647   5.672   1.705   5.290  0.8855 -0.2493  0.7352
  151SAPE   C2516648   5.503   1.576   5.272 -0.5231 -0.3499 -0.0796
  151SAPE   H5R16649   5.430   1.647   5.231 -3.0655 -2.5692  0.3701
  151SAPE   C2616650   5.500   1.454   5.220 -0.1312  1.4604 -0.4460
  151SAPE   H6R16651   5.412   1.420   5.164 -0.8157  0.3314  1.2174
  151SAPE   C2716652   5.595   1.336   5.240 -0.0124  1.1625 -0.1008
  151SAPE   H7R16653   5.688   1.371   5.289 -0.7284  0.4776  1.8229
  151SAPE   H7S16654   5.626   1.283   5.147 -2.6128 -1.0762  0.1661
  151SAPE   C2816655   5.514   1.238   5.328 -0.4739  0.3151  0.5122
  151SAPE   H8R16656   5.452   1.276   5.410 -1.1170 -2.3843  1.3728
  151SAPE   C2916657   5.517   1.105   5.318  0.4989 -0.6773  0.4669
  151SAPE   H9R16658   5.467   1.048   5.398 -2.2370  0.8935  0.0088
  151SAPE  C21016659   5.590   1.016   5.213 -0.2055  0.0158 -0.2407
  151SAPE  H10R16660   5.557   0.913   5.235  1.0732  0.2340  3.3928
  151SAPE  H10S16661   5.699   1.014   5.236 -0.0807  1.3511 -0.5866
  151SAPE  C21116662   5.575   1.046   5.061  0.6893 -0.2669 -0.3174
  151SAPE  H11R16663   5.508   1.128   5.031  0.8288  1.5348  3.5739
  151SAPE  C21216664   5.633   0.979   4.970 -0.0984 -0.1526 -0.7604
  151SAPE  H12R16665   5.614   1.023   4.871  0.6348 -0.8660 -1.2244
  151SAPE  C21316666   5.733   0.872   4.969  0.4229 -0.4378 -0.4731
  151SAPE  H13R16667   5.703   0.791   4.899  0.1720 -1.0157  0.2903
  151SAPE  H13S16668   5.740   0.828   5.071  0.7427  0.5275 -0.0595
  151SAPE  C21416669   5.868   0.935   4.942 -0.3846 -0.2402 -0.2491
  151SAPE  H14R16670   5.892   1.018   5.011 -0.6959 -1.5494  1.5228
  151SAPE  C21516671   5.955   0.911   4.837  0.1202 -0.1220 -0.3656
  151SAPE  H15R16672   6.047   0.969   4.820 -0.1220 -0.3078 -2.6650
  151SAPE  C21616673   5.938   0.799   4.734  0.6519  0.3771  0.4397
  151SAPE  H16R16674   5.905   0.848   4.640 -1.8268  0.4874  1.3114
  151SAPE  H16S16675   5.853   0.734   4.763  0.1448 -0.5156 -2.6917
  151SAPE  C21716676   6.063   0.710   4.719  0.4002  0.3942  0.5234
  151SAPE  H17R16677   6.019   0.632   4.652 -3.6798  1.2109  1.9406
  151SAPE  H17S16678   6.099   0.661   4.812 -0.1851 -0.8835  0.1001
  151SAPE  C21816679   6.175   0.783   4.647  0.0949 -0.3300 -0.8449
  151SAPE  H18R16680   6.219   0.863   4.711 -0.7249 -0.5761  0.0415
  151SAPE  H18S16681   6.135   0.838   4.560 -1.5402  3.8614  2.2083
  151SAPE  C21916682   6.292   0.688   4.620 -0.3672 -0.1931  1.2757
  151SAPE  H19R16683   6.269   0.617   4.538 -1.3663  1.8204 -0.2647
  151SAPE  H19S16684   6.318   0.631   4.712  0.7660 -1.6566  0.1016
  151SAPE  C22016685   6.414   0.764   4.564 -0.5007 -0.4697 -0.9313
  151SAPE  H20R16686   6.497   0.696   4.532  0.6235  0.5910 -0.3601
  151SAPE  H20S16687   6.451   0.825   4.649  0.0805 -1.4724 -0.4436
  151SAPE  H20T16688   6.393   0.826   4.475  2.4466 -0.1746 -1.5445
  151SAPE   C3316689   5.115   1.761   5.438  0.1422 -0.2993  0.2857
  151SAPE   H3X16690   5.205   1.697   5.446  0.3259  0.1025  1.6040
  151SAPE   H3Y16691   5.150   1.861   5.406  0.8355 -0.4320  0.6147
  151SAPE   C3416692   5.019   1.705   5.333  0.0164  0.0640 -0.4543
  151SAPE   H4X16693   4.920   1.756   5.335 -0.4030 -0.6865 -1.2547
  151SAPE   H4Y16694   4.993   1.599   5.353 -0.9418  0.5914  1.2990
  151SAPE   C3516695   5.092   1.689   5.196  0.2203 -0.0905  0.0881
  151SAPE   H5X16696   5.185   1.640   5.234 -0.3354 -1.5798 -0.3839
  151SAPE   H5Y16697   5.124   1.791   5.166 -0.4095  0.0252 -0.2118
  151SAPE   C3616698   5.016   1.621   5.083 -0.5692  0.1489  0.0953
  151SAPE   H6X16699   4.946   1.689   5.030  0.1388  0.9713  0.1880
  151SAPE   H6Y16700   4.955   1.538   5.123  1.0809 -1.3665 -0.3969
  151SAPE   C3716701   5.119   1.576   4.980 -0.0517  0.2350  0.0120
  151SAPE   H7X16702   5.196   1.502   5.011  0.0040 -0.0309 -0.7176
  151SAPE   H7Y16703   5.186   1.655   4.940  1.4991 -1.0961 -0.1828
  151SAPE   C3816704   5.034   1.526   4.864  0.3098 -0.2192 -0.2415
  151SAPE   H8X16705   4.957   1.601   4.835  1.1964  0.8138  0.0515
  151SAPE   H8Y16706   4.975   1.439   4.901  0.0689 -0.3201 -0.8420
  151SAPE   C3916707   5.104   1.478   4.738 -0.0760 -0.0047 -0.1041
  151SAPE   H9X16708   5.147   1.570   4.693 -0.6782 -0.8091 -2.4379
  151SAPE   H9Y16709   5.028   1.452   4.662  0.7233 -3.7211  0.1774
  151SAPE  C31016710   5.227   1.389   4.765 -0.4709  0.6129  0.0553
  151SAPE  H10X16711   5.292   1.452   4.830  1.3335  0.2027 -1.2714
  151SAPE  H10Y16712   5.286   1.360   4.676 -0.4560 -0.0710  0.2851
  151SAPE  C31116713   5.184   1.251   4.818 -0.6281  0.7878 -0.2873
  151SAPE  H11X16714   5.117   1.196   4.749  0.8874 -0.6053 -0.7140
  151SAPE  H11Y16715   5.138   1.267   4.918 -0.4836  1.4148 -0.3179
  151SAPE  C31216716   5.316   1.161   4.836  0.7556 -0.2111 -0.0841
  151SAPE  H12X16717   5.288   1.077   4.904 -0.6109  1.1984  1.1906
  151SAPE  H12Y16718   5.399   1.223   4.876  0.5206 -0.2455  0.4744
  151SAPE  C31316719   5.366   1.088   4.705  0.0093 -0.3327 -0.1485
  151SAPE  H13X16720   5.434   1.011   4.747  1.5834  0.2786 -1.4934
  151SAPE  H13Y16721   5.421   1.162   4.644 -0.1179  0.5607  0.7966
  151SAPE  C31416722   5.258   1.021   4.621  0.6386 -0.2305 -0.4753
  151SAPE  H14X16723   5.237   1.106   4.553  1.4539  0.4502  0.0987
  151SAPE  H14Y16724   5.177   0.979   4.685 -1.3599 -1.0224 -3.3311
  151SAPE  C31516725   5.299   0.918   4.513  0.1426 -0.3722  0.2973
  151SAPE  H15X16726   5.362   0.965   4.435 -0.9585  1.5719  0.5374
  151SAPE  H15Y16727   5.207   0.880   4.465 -1.3470  3.9921 -0.7129
  151SAPE  C31616728   5.380   0.799   4.578 -0.1972  1.0870  0.0895
  151SAPE  H16X16729   5.321   0.749   4.658  0.5124 -3.6241 -1.9861
  151SAPE  H16Y16730   5.473   0.825   4.633 -0.7871  2.1543  0.6172
  151SAPE  C31716731   5.407   0.686   4.479 -0.0510  0.3499  0.3121
  151SAPE  H17X16732   5.315   0.680   4.417 -0.3980  0.9795  0.7453
  151SAPE  H17Y16733   5.432   0.589   4.528 -1.1961 -1.0287 -1.7148
  151SAPE  C31816734   5.531   0.708   4.397  0.4269 -0.2124 -0.0630
  151SAPE  H18X16735   5.553   0.619   4.333 -0.3916  0.1414 -0.8588
  151SAPE  H18Y16736   5.628   0.716   4.450  1.5056  1.2852 -2.1129
  151SAPE  H18Z16737   5.520   0.792   4.325 -1.1996 -0.8145 -0.5696
  152SAPE     N16738   1.975   3.662   6.260 -0.5759  0.0661 -0.4589
  152SAPE   HN116739   2.074   3.638   6.239 -0.5066  1.1619 -1.4374
  152SAPE   HN216740   1.980   3.722   6.345 -0.6825  0.6468 -0.8578
  152SAPE   HN316741   1.919   3.580   6.291  1.5576 -0.1770  3.5356
  152SAPE   C1216742   1.911   3.740   6.149 -0.4954 -0.6270  0.3492
  152SAPE  H12A16743   1.800   3.733   6.152 -0.5709 -0.0529 -0.7059
  152SAPE  H12B16744   1.944   3.691   6.054  0.5734  1.7018 -0.5550
  152SAPE   C1116745   1.953   3.886   6.141 -0.0879  0.1955  0.5264
  152SAPE  H11A16746   1.882   3.924   6.064 -1.1181 -0.8718  0.9287
  152SAPE  H11B16747   2.055   3.896   6.097 -0.2738 -1.9659 -0.5353
  152SAPE     P16748   1.803   3.991   6.340 -0.4858  0.0310  0.3779
  152SAPE   O1316749   1.742   3.870   6.382  0.3247 -0.3092 -0.1446
  152SAPE   O1416750   1.828   4.097   6.441  0.4145  0.4615 -0.0447
  152SAPE   O1216751   1.935   3.956   6.262 -0.8278 -0.3303 -0.0251
  152SAPE   O1116752   1.716   4.052   6.228  0.4201  0.3216  0.0772
  152SAPE    C116753   1.742   4.182   6.174 -0.1750  0.1031 -0.1463
  152SAPE    HA16754   1.721   4.261   6.249 -1.2183  0.6093 -0.9301
  152SAPE    HB16755   1.847   4.198   6.142 -0.6967 -0.4051 -2.3027
  152SAPE    C216756   1.657   4.211   6.046  0.1096  0.2167 -0.1934
  152SAPE    HS16757   1.548   4.200   6.064 -0.3075  0.8688 -2.1181
  152SAPE   O2116758   1.701   4.132   5.938  0.2421  0.7287 -0.3095
  152SAPE   C2116759   1.632   4.024   5.915  0.7723 -0.3182  0.1957
  152SAPE   O2216760   1.536   3.983   5.979  0.2532 -0.1934 -0.0410
  152SAPE   C2216761   1.700   3.944   5.803  0.5059 -0.7389  0.2392
  152SAPE   H2R16762   1.769   4.009   5.745 -0.1572 -0.6396 -0.4601
  152SAPE   H2S16763   1.771   3.873   5.852  1.2360  0.4818  0.9982
  152SAPE    C316764   1.672   4.362   6.005  0.3817  0.0231 -0.6728
  152SAPE    HX16765   1.643   4.435   6.084  1.0928 -0.4170  0.0034
  152SAPE    HY16766   1.591   4.379   5.931  0.5006 -0.0742 -0.8261
  152SAPE   O3116767   1.804   4.394   5.958  0.4222  0.4108  0.0722
  152SAPE   C3116768   1.810   4.385   5.826  0.2893  0.1552  0.4195
  152SAPE   O3216769   1.727   4.347   5.749 -0.4363 -0.8824  0.4121
  152SAPE   C3216770   1.961   4.397   5.788 -0.3686 -0.3746  0.9178
  152SAPE   H2X16771   2.007   4.335   5.868  1.3212 -1.5732 -0.8876
  152SAPE   H2Y16772   1.979   4.506   5.801 -2.0572 -0.1681  1.8544
  152SAPE   C2316773   1.605   3.865   5.713  0.4486 -0.1248 -0.1568
  152SAPE   H3R16774   1.521   3.828   5.776  1.1087  0.3469  1.0412
  152SAPE   H3S16775   1.667   3.780   5.678 -1.1171 -1.0723 -0.7218
  152SAPE   C2416776   1.553   3.943   5.590  0.2456  0.3304 -0.1870
  152SAPE   H4R16777   1.641   3.968   5.527  0.4925  0.7505  0.3103
  152SAPE   H4S16778   1.492   4.031   5.622 -1.3352 -0.5751 -0.5906
  152SAPE   C2516779   1.460   3.859   5.516  0.2837  0.4892 -0.1110
  152SAPE   H5R16780   1.424   3.776   5.578  0.0010 -0.2581 -1.2477
  152SAPE   C2616781   1.420   3.874   5.390 -0.1401 -0.0984  0.1257
  152SAPE   H6R16782   1.356   3.793   5.353 -0.7631  1.1919 -1.7869
  152SAPE   C2716783   1.478   3.964   5.290  0.1157 -0.2596  0.2693
  152SAPE   H7R16784   1.486   4.067   5.330  0.3618  0.7432 -2.1873
  152SAPE   H7S16785   1.403   3.979   5.209  1.6956  2.1316 -0.8650
  152SAPE   C2816786   1.612   3.928   5.232 -0.2467 -0.0646  0.7594
  152SAPE   H8R16787   1.697   3.919   5.302  3.0161  2.2381 -2.5189
  152SAPE   C2916788   1.626   3.905   5.103 -0.6028  0.1825  0.0255
  152SAPE   H9R16789   1.728   3.879   5.071 -0.7145 -0.9977  0.5968
  152SAPE  C21016790   1.532   3.917   4.983 -0.1429 -0.4747  0.6827
  152SAPE  H10R16791   1.433   3.954   5.020  0.8521  2.3590  0.7895
  152SAPE  H10S16792   1.511   3.817   4.939 -2.7845  0.8417 -1.3706
  152SAPE  C21116793   1.589   4.007   4.872 -0.2184  0.3342  0.0911
  152SAPE  H11R16794   1.636   4.102   4.900 -0.1270  0.1156  0.6864
  152SAPE  C21216795   1.577   3.987   4.739  0.4114  0.2549 -0.3946
  152SAPE  H12R16796   1.614   4.064   4.670  0.6162  1.0997  0.6328
  152SAPE  C21316797   1.495   3.871   4.676  0.0745  0.3024 -0.3128
  152SAPE  H13R16798   1.385   3.884   4.686 -0.1760 -2.0213  0.4963
  152SAPE  H13S16799   1.527   3.779   4.729  1.8538  1.2633  0.3801
  152SAPE  C21416800   1.517   3.855   4.528  0.0060  0.3886 -0.9615
  152SAPE  H14R16801   1.431   3.883   4.466  0.2163  1.6972 -0.6943
  152SAPE  C21516802   1.621   3.805   4.456  0.0520  0.1364  0.4349
  152SAPE  H15R16803   1.619   3.803   4.346 -1.2957 -2.2284  0.4180
  152SAPE  C21616804   1.746   3.744   4.504 -0.7987  0.6832 -0.4113
  152SAPE  H16R16805   1.757   3.638   4.473 -0.5120  1.2916 -2.5802
  152SAPE  H16S16806   1.738   3.742   4.614  1.6208  1.9829 -0.1290
  152SAPE  C21716807   1.858   3.833   4.462 -0.1167 -0.4131 -0.5839
  152SAPE  H17R16808   1.946   3.785   4.509 -1.6543 -0.1530  2.8859
  152SAPE  H17S16809   1.845   3.935   4.504  1.3834 -0.1076 -0.8261
  152SAPE  C21816810   1.880   3.860   4.312 -0.4361  0.1258  0.3227
  152SAPE  H18R16811   1.789   3.864   4.249 -0.0060  1.4584 -0.2646
  152SAPE  H18S16812   1.932   3.768   4.279 -0.1006 -0.5249  2.5083
  152SAPE  C21916813   1.986   3.970   4.284  0.1924  0.0983  0.6646
  152SAPE  H19R16814   1.945   4.063   4.328 -0.9095  0.2105 -0.5328
  152SAPE  H19S16815   1.989   3.977   4.173  0.9379  0.3963  0.6985
  152SAPE  C22016816   2.121   3.933   4.336 -0.2842 -0.0514  0.2057
  152SAPE  H20R16817   2.158   3.835   4.299 -2.2244 -1.2590  1.2713
  152SAPE  H20S16818   2.109   3.932   4.447 -2.1776 -0.5630  0.0318
  152SAPE  H20T16819   2.188   4.012   4.296 -1.1446  0.2847 -0.6297
  152SAPE   C3316820   1.999   4.349   5.644  0.2469  0.2043 -0.3438
  152SAPE   H3X16821   1.959   4.246   5.635  0.1441  0.1164  0.8667
  152SAPE   H3Y16822   2.109   4.339   5.636  0.4995  0.5002  2.0107
  152SAPE   C3416823   1.937   4.430   5.529 -0.4908 -0.0178  0.3200
  152SAPE   H4X16824   1.970   4.536   5.531 -2.6839  0.9355 -3.2688
  152SAPE   H4Y16825   1.826   4.424   5.528 -0.5276  0.5576  0.1103
  152SAPE   C3516826   1.987   4.370   5.391 -0.5778  0.0800  0.4982
  152SAPE   H5X16827   2.008   4.261   5.392  1.2990  0.3576 -1.7066
  152SAPE   H5Y16828   2.082   4.418   5.362  0.5187 -1.4426  1.4189
  152SAPE   C3616829   1.877   4.381   5.288 -0.1660  0.0296 -0.3850
  152SAPE   H6X16830   1.823   4.478   5.299 -1.1303 -0.4512 -0.7651
  152SAPE   H6Y16831   1.806   4.303   5.322  1.8675 -1.0171  1.7938
  152SAPE   C3716832   1.927   4.356   5.150 -0.7459  0.0297  0.4356
  152SAPE   H7X16833   2.011   4.282   5.149 -1.6909 -1.0798 -0.3322
  152SAPE   H7Y16834   1.978   4.445   5.108 -1.3562 -0.2806 -1.0250
  152SAPE   C3816835   1.820   4.306   5.056 -0.1472 -0.7307  0.1618
  152SAPE   H8X16836   1.735   4.377   5.071  1.8097  1.9630 -0.7703
  152SAPE   H8Y16837   1.778   4.205   5.073  1.5692 -1.7170 -1.2056
  152SAPE   C3916838   1.850   4.323   4.905  0.1070  0.5356  0.5056
  152SAPE   H9X16839   1.889   4.424   4.881  0.9652  1.2396  4.2033
  152SAPE   H9Y16840   1.761   4.309   4.841  1.6816  0.1755 -1.7108
  152SAPE  C31016841   1.958   4.225   4.862 -0.5370  0.7247  0.1304
  152SAPE  H10X16842   1.954   4.123   4.906  2.3031  1.3432  2.1344
  152SAPE  H10Y16843   2.056   4.267   4.895  0.5224 -1.9191  0.5653
  152SAPE  C31116844   1.980   4.207   4.710  0.1745  0.1747  0.0371
  152SAPE  H11X16845   1.899   4.146   4.665  2.0814 -1.1806 -1.7371
  152SAPE  H11Y16846   2.076   4.154   4.695  0.1287  0.1605 -0.2062
  152SAPE  C31216847   1.994   4.342   4.623  0.2251  0.3772 -0.5179
  152SAPE  H12X16848   2.072   4.405   4.671 -0.9688  1.1649  0.4458
  152SAPE  H12Y16849   1.904   4.407   4.632 -0.9081 -1.2958  1.0656
  152SAPE  C31316850   2.033   4.305   4.478 -0.2214  0.0532 -0.0000
  152SAPE  H13X16851   1.952   4.241   4.435 -1.7656  0.2902  2.3613
  152SAPE  H13Y16852   2.121   4.238   4.486 -0.0297  0.4472  1.6401
  152SAPE  C31416853   2.046   4.415   4.380 -0.3388 -0.1529  0.2786
  152SAPE  H14X16854   2.089   4.382   4.283 -1.1885  1.5305 -0.6990
  152SAPE  H14Y16855   2.122   4.478   4.431 -0.3786 -1.2488  1.7512
  152SAPE  C31516856   1.908   4.487   4.359 -0.3050  0.7376 -0.3124
  152SAPE  H15X16857   1.875   4.502   4.464  2.3152 -0.9822  0.8704
  152SAPE  H15Y16858   1.832   4.423   4.309  2.7599 -3.0510 -0.6473
  152SAPE  C31616859   1.925   4.625   4.297  0.4165  0.3142 -0.2707
  152SAPE  H16X16860   1.956   4.621   4.190 -1.5243  1.0155 -0.8948
  152SAPE  H16Y16861   1.984   4.693   4.362 -3.3601  0.6602  3.1625
  152SAPE  C31716862   1.781   4.679   4.294 -0.2124 -0.2204  0.1767
  152SAPE  H17X16863   1.746   4.686   4.400  1.4273 -1.2776  0.8299
  152SAPE  H17Y16864   1.719   4.597   4.252 -0.6825 -0.5668  1.4975
  152SAPE  C31816865   1.770   4.807   4.212  0.0086 -0.2353 -0.4128
  152SAPE  H18X16866   1.668   4.840   4.183  1.4919  4.6141 -0.9869
  152SAPE  H18Y16867   1.826   4.774   4.122  0.7063 -1.4850  0.4651
  152SAPE  H18Z16868   1.826   4.891   4.258 -0.0531 -0.2874 -0.2417
  153SAPE     N16869   5.820   3.037   5.999 -0.4200 -0.1210 -0.3260
  153SAPE   HN116870   5.826   3.140   6.014  0.5529 -0.2339  0.0952
  153SAPE   HN216871   5.853   3.006   5.905  0.0819  0.2545 -0.2767
  153SAPE   HN316872   5.723   3.000   6.011 -0.3002 -0.5463 -0.6603
  153SAPE   C1216873   5.917   2.956   6.078  0.1456  0.1543 -0.3756
  153SAPE  H12A16874   5.897   2.848   6.063 -0.8872  0.4335 -1.0401
  153SAPE  H12B16875   5.903   2.986   6.185  3.5849 -2.7160  1.0790
  153SAPE   C1116876   6.060   2.991   6.035  0.2018  0.5243 -0.3736
  153SAPE  H11A16877   6.083   2.971   5.928 -1.3344  2.2674 -1.0785
  153SAPE  H11B16878   6.121   2.921   6.097  1.1779  0.9567 -0.8262
  153SAPE     P16879   6.211   3.169   6.125 -0.0640 -0.1976 -0.1637
  153SAPE   O1316880   6.225   3.315   6.105 -0.1210  0.9269 -0.8325
  153SAPE   O1416881   6.209   3.109   6.263  0.5301 -0.0725  0.2918
  153SAPE   O1216882   6.077   3.128   6.063  0.0579  0.0248 -0.5468
  153SAPE   O1116883   6.315   3.093   6.046 -0.2981  0.1375 -0.3307
  153SAPE    C116884   6.387   3.145   5.934 -0.5180  0.2632  0.0874
  153SAPE    HA16885   6.433   3.243   5.961 -1.0207  0.4259  0.3674
  153SAPE    HB16886   6.469   3.076   5.906 -0.0057  0.9652 -0.1850
  153SAPE    C216887   6.311   3.170   5.803 -0.4049  0.6380 -0.9607
  153SAPE    HS16888   6.220   3.220   5.842  0.3712  0.7561  0.7628
  153SAPE   O2116889   6.280   3.040   5.754  0.5185  0.4787 -0.1265
  153SAPE   C2116890   6.176   3.040   5.671 -0.1835 -0.9309  0.0836
  153SAPE   O2216891   6.103   3.137   5.650  0.5481  0.0669 -0.0120
  153SAPE   C2216892   6.157   2.902   5.610  0.3308  0.7676  0.4973
  153SAPE   H2R16893   6.252   2.845   5.621  0.3366  0.2060 -1.9493
  153SAPE   H2S16894   6.073   2.853   5.663  1.4540  0.0700  1.6903
  153SAPE    C316895   6.405   3.257   5.709 -0.4506 -0.1888  0.6596
  153SAPE    HX16896   6.505   3.209   5.698 -0.7207 -0.1645 -2.7989
  153SAPE    HY16897   6.423   3.352   5.763  0.5679 -0.1262  0.2236
  153SAPE   O3116898   6.357   3.275   5.576  0.2159 -0.4321  0.0677
  153SAPE   C3116899   6.273   3.381   5.559  0.4928  0.1232 -0.6666
  153SAPE   O3216900   6.247   3.467   5.641  0.1871  0.1290 -0.3713
  153SAPE   C3216901   6.212   3.386   5.419 -0.4110 -0.6356 -0.3414
  153SAPE   H2X16902   6.243   3.485   5.379 -1.4721  0.5471  1.5890
  153SAPE   H2Y16903   6.105   3.404   5.444 -0.6709 -1.1772 -1.0648
  153SAPE   C2316904   6.143   2.897   5.459 -0.3146 -0.1348  0.1366
  153SAPE   H3R16905   6.167   2.796   5.419 -1.7253 -0.2521 -0.4948
  153SAPE   H3S16906   6.213   2.973   5.420 -1.1935  1.3235  1.2505
  153SAPE   C2416907   5.999   2.938   5.411  0.2317 -0.6554  0.1057
  153SAPE   H4R16908   6.000   2.956   5.302 -3.7699  0.9254  0.1379
  153SAPE   H4S16909   5.993   3.041   5.453  1.6161  0.2922 -1.9048
  153SAPE   C2516910   5.882   2.850   5.445 -0.2646  0.5983 -0.1600
  153SAPE   H5R16911   5.826   2.860   5.539 -2.0695 -1.6614 -0.8997
  153SAPE   C2616912   5.833   2.761   5.355 -0.1227 -0.6057  0.0423
  153SAPE   H6R16913   5.737   2.712   5.377 -0.3280 -0.0343  0.4246
  153SAPE   C2716914   5.888   2.737   5.219 -0.1295 -0.7120 -0.0077
  153SAPE   H7R16915   5.875   2.629   5.198  0.7125 -1.3796  2.4907
  153SAPE   H7S16916   5.998   2.749   5.231 -0.4858  1.0906  2.2764
  153SAPE   C2816917   5.832   2.824   5.108  0.6573 -0.9480  0.1459
  153SAPE   H8R16918   5.729   2.860   5.120  1.3391  0.8236  0.9464
  153SAPE   C2916919   5.897   2.885   5.010  0.0112 -0.2990  1.1194
  153SAPE   H9R16920   5.835   2.956   4.952  1.8551 -1.3832 -2.4961
  153SAPE  C21016921   6.039   2.865   4.965 -0.2863  0.1254  0.2299
  153SAPE  H10R16922   6.078   2.791   5.037  0.4945 -0.8832 -1.1817
  153SAPE  H10S16923   6.092   2.962   4.978 -1.9348  1.0329  0.5091
  153SAPE  C21116924   6.050   2.830   4.819  0.4178 -0.0350 -0.2685
  153SAPE  H11R16925   6.043   2.912   4.746 -1.3921 -0.1150 -0.2298
  153SAPE  C21216926   6.020   2.707   4.770 -0.1056 -0.1493 -0.0906
  153SAPE  H12R16927   6.013   2.703   4.660  0.4267  0.1637 -0.1357
  153SAPE  C21316928   6.004   2.578   4.847 -0.8628  0.5794 -0.7542
  153SAPE  H13R16929   5.918   2.511   4.825 -0.5384 -0.0007 -0.2935
  153SAPE  H13S16930   5.968   2.615   4.945 -0.8558  3.5966 -1.7951
  153SAPE  C21416931   6.132   2.501   4.859  0.1322  0.1718  0.1296
  153SAPE  H14R16932   6.213   2.551   4.914 -0.0535 -0.0822  0.6348
  153SAPE  C21516933   6.163   2.390   4.793 -0.2770  0.2096  0.0880
  153SAPE  H15R16934   6.258   2.343   4.823  1.7645  2.3752 -2.4841
  153SAPE  C21616935   6.074   2.316   4.695  0.4799  0.5264 -0.2983
  153SAPE  H16R16936   6.142   2.265   4.624  2.0383  1.7487  0.2395
  153SAPE  H16S16937   6.023   2.400   4.644  0.4904  0.8875  0.2802
  153SAPE  C21716938   5.972   2.211   4.748  0.1625  0.1944  0.4687
  153SAPE  H17R16939   5.895   2.266   4.806 -1.4973 -0.9043 -0.5909
  153SAPE  H17S16940   6.037   2.151   4.816  0.2475 -0.1657  0.0787
  153SAPE  C21816941   5.915   2.118   4.645  0.2296  0.3785  0.0854
  153SAPE  H18R16942   5.858   2.033   4.688 -2.0786  1.7412 -0.0984
  153SAPE  H18S16943   5.993   2.079   4.577 -1.2821  0.2658 -1.6504
  153SAPE  C21916944   5.802   2.186   4.567 -0.2897  0.4378  0.1065
  153SAPE  H19R16945   5.853   2.276   4.526 -1.4766  0.8711 -0.4662
  153SAPE  H19S16946   5.724   2.221   4.638  0.2825  2.2112 -0.0859
  153SAPE  C22016947   5.739   2.091   4.461 -0.1182 -0.3686  0.4987
  153SAPE  H20R16948   5.814   2.061   4.385 -1.0772 -2.0931  0.1591
  153SAPE  H20S16949   5.668   2.154   4.403  1.4347  0.5153 -0.5053
  153SAPE  H20T16950   5.679   2.002   4.491  0.8592 -1.0423  0.4863
  153SAPE   C3316951   6.217   3.250   5.341 -0.4826 -0.6235 -0.0162
  153SAPE   H3X16952   6.153   3.185   5.403 -2.2492  0.7641 -0.3091
  153SAPE   H3Y16953   6.324   3.221   5.327  1.2302  4.6019  0.0534
  153SAPE   C3416954   6.155   3.254   5.200 -0.3096  0.2855  0.1144
  153SAPE   H4X16955   6.105   3.159   5.172  0.7725 -0.3628  0.3455
  153SAPE   H4Y16956   6.229   3.279   5.121 -1.3365 -0.3153 -1.0784
  153SAPE   C3516957   6.031   3.344   5.189  0.1658  0.2314 -0.5873
  153SAPE   H5X16958   6.046   3.450   5.220 -1.6596  1.4334 -3.4034
  153SAPE   H5Y16959   5.952   3.310   5.259  1.0155 -1.1019 -0.2593
  153SAPE   C3616960   5.971   3.344   5.045  0.3886  0.4264  0.0459
  153SAPE   H6X16961   5.993   3.245   5.001  3.1840  0.0783  1.9546
  153SAPE   H6Y16962   6.021   3.414   4.974  1.1152  1.0348  1.1222
  153SAPE   C3716963   5.816   3.362   5.049 -0.9598 -0.0036  0.0367
  153SAPE   H7X16964   5.788   3.467   5.074  0.0012  0.0516  0.9710
  153SAPE   H7Y16965   5.777   3.301   5.133  0.7084 -0.0061  0.8543
  153SAPE   C3816966   5.739   3.327   4.919  0.2702  0.2596 -0.0283
  153SAPE   H8X16967   5.634   3.360   4.931 -0.8869 -2.9356 -0.4493
  153SAPE   H8Y16968   5.725   3.217   4.909 -1.6072  0.5465 -0.9805
  153SAPE   C3916969   5.803   3.382   4.786  0.1534 -0.4411  0.0729
  153SAPE   H9X16970   5.909   3.348   4.783  1.3302  2.8074  0.4654
  153SAPE   H9Y16971   5.802   3.493   4.790 -2.2125 -0.3940 -0.6361
  153SAPE  C31016972   5.729   3.340   4.661 -0.4626  0.0525  0.1637
  153SAPE  H10X16973   5.621   3.352   4.684 -0.8918  1.2401 -2.0968
  153SAPE  H10Y16974   5.744   3.234   4.631  0.0076 -0.1365  1.0452
  153SAPE  C31116975   5.761   3.428   4.540 -0.2936  0.1008  0.3946
  153SAPE  H11X16976   5.863   3.395   4.510  0.3492  2.5828 -0.3828
  153SAPE  H11Y16977   5.762   3.535   4.570  0.2234  0.1017  0.3901
  153SAPE  C31216978   5.675   3.419   4.412  0.3598  0.1502  0.3229
  153SAPE  H12X16979   5.673   3.315   4.371 -0.8641  0.4963 -0.5793
  153SAPE  H12Y16980   5.726   3.479   4.333 -1.6725  0.9310 -0.4747
  153SAPE  C31316981   5.535   3.472   4.429 -0.0156  0.1419 -0.0938
  153SAPE  H13X16982   5.545   3.582   4.427  0.8467  0.0950 -2.6011
  153SAPE  H13Y16983   5.498   3.436   4.527  0.7302 -0.5577 -0.0578
  153SAPE  C31416984   5.440   3.426   4.313  0.4630  0.4985 -0.6712
  153SAPE  H14X16985   5.428   3.318   4.332  0.4923  0.7274  0.7372
  153SAPE  H14Y16986   5.468   3.439   4.206  0.5281  1.0479 -0.5902
  153SAPE  C31516987   5.312   3.510   4.313  0.8673  0.1928  0.4868
  153SAPE  H15X16988   5.245   3.475   4.232 -0.0526 -0.4049  1.4751
  153SAPE  H15Y16989   5.344   3.611   4.281  0.0941  0.2423 -0.1715
  153SAPE  C31616990   5.244   3.529   4.447  0.1542 -0.0155 -0.1518
  153SAPE  H16X16991   5.313   3.577   4.519  1.1295 -0.6735 -0.6282
  153SAPE  H16Y16992   5.226   3.429   4.491  1.3315  0.6551  2.0114
  153SAPE  C31716993   5.110   3.599   4.437 -0.2737  0.6953  0.1387
  153SAPE  H17X16994   5.069   3.576   4.336  0.1159 -0.4607  0.2291
  153SAPE  H17Y16995   5.125   3.709   4.435 -0.8530  0.7732 -1.3155
  153SAPE  C31816996   5.014   3.562   4.553  0.1055  0.3131 -0.2783
  153SAPE  H18X16997   5.052   3.619   4.640  0.7527 -2.0550  1.0774
  153SAPE  H18Y16998   5.018   3.452   4.567  1.2290  0.4319  0.4542
  153SAPE  H18Z16999   4.911   3.596   4.528  0.9819  1.6843 -2.3132
  154SAPE     N17000   5.566   2.480   6.544  0.0010 -0.3291  0.3348
  154SAPE   HN117001   5.545   2.415   6.623 -2.1984 -1.1555 -0.8549
  154SAPE   HN217002   5.669   2.497   6.549  0.3799 -2.4553  1.1294
  154SAPE   HN317003   5.516   2.568   6.568 -0.7065 -0.9781  1.3003
  154SAPE   C1217004   5.519   2.403   6.417 -0.1762 -0.7423  0.1831
  154SAPE  H12A17005   5.504   2.297   6.447  1.5575 -1.5628 -1.6639
  154SAPE  H12B17006   5.601   2.410   6.342  1.4351 -2.0258  1.7364
  154SAPE   C1117007   5.387   2.472   6.372  0.2467 -0.9116 -0.0482
  154SAPE  H11A17008   5.364   2.433   6.270 -0.4728 -2.5500  0.7117
  154SAPE  H11B17009   5.407   2.580   6.356 -0.1217 -0.4770  2.1316
  154SAPE     P17010   5.176   2.329   6.449  0.0267  0.0101  0.5222
  154SAPE   O1317011   5.239   2.200   6.413  0.2831 -0.5348  0.4873
  154SAPE   O1417012   5.087   2.325   6.565 -0.5479  0.0013 -0.0830
  154SAPE   O1217013   5.285   2.443   6.468  0.0485  0.3068 -0.0518
  154SAPE   O1117014   5.094   2.367   6.317  0.3917  0.4939 -0.9227
  154SAPE    C117015   5.037   2.493   6.283  0.6217  0.2225 -0.0842
  154SAPE    HA17016   4.940   2.503   6.336 -0.5008  0.5746 -2.1181
  154SAPE    HB17017   5.106   2.572   6.320  2.1153  0.1767 -2.5131
  154SAPE    C217018   5.020   2.515   6.128  0.2972 -0.0804  0.4069
  154SAPE    HS17019   4.956   2.603   6.105  0.7507 -0.5203 -2.9762
  154SAPE   O2117020   4.952   2.409   6.068  0.3979 -0.5326  0.2291
  154SAPE   C2117021   4.838   2.375   6.118  0.2832  0.4281 -0.2949
  154SAPE   O2217022   4.766   2.435   6.198 -0.6129 -0.3229 -0.7557
  154SAPE   C2217023   4.789   2.249   6.046 -0.3031  0.3421 -0.2690
  154SAPE   H2R17024   4.821   2.159   6.103 -0.0881 -0.0446 -0.9936
  154SAPE   H2S17025   4.679   2.236   6.059 -0.0264 -0.4656  1.5172
  154SAPE    C317026   5.151   2.548   6.052  0.2797  0.1804 -0.4173
  154SAPE    HX17027   5.217   2.461   6.074 -0.3408 -0.6551 -1.7414
  154SAPE    HY17028   5.205   2.639   6.086 -0.0618  0.8112 -1.5245
  154SAPE   O3117029   5.130   2.570   5.907  0.2143 -0.6912 -0.4697
  154SAPE   C3117030   5.152   2.457   5.842  0.6552 -0.0645  0.9449
  154SAPE   O3217031   5.159   2.345   5.882  0.3884  0.2235 -0.4083
  154SAPE   C3217032   5.161   2.488   5.688 -0.4036 -0.3438  0.3372
  154SAPE   H2X17033   5.269   2.492   5.661 -0.4978  1.2817  0.0966
  154SAPE   H2Y17034   5.121   2.590   5.668  0.7847  0.3730  1.4338
  154SAPE   C2317035   4.828   2.232   5.897  0.1231 -0.7054 -0.2150
  154SAPE   H3R17036   4.937   2.214   5.885  0.6261  0.3290  2.2732
  154SAPE   H3S17037   4.804   2.323   5.838 -0.2321 -0.8899 -0.3626
  154SAPE   C2417038   4.784   2.099   5.819 -0.1812 -0.2935  0.4534
  154SAPE   H4R17039   4.812   2.012   5.882  1.8195 -0.3657 -0.4538
  154SAPE   H4S17040   4.841   2.093   5.724 -0.0346  1.8272  0.3517
  154SAPE   C2517041   4.635   2.085   5.794  0.4190 -0.7747 -0.2360
  154SAPE   H5R17042   4.561   2.135   5.858  0.8278  0.9500 -1.0436
  154SAPE   C2617043   4.579   2.033   5.680 -0.2712  0.6267 -0.1174
  154SAPE   H6R17044   4.471   2.042   5.666 -0.1439  0.8947 -1.0385
  154SAPE   C2717045   4.646   1.953   5.569 -0.3459 -0.4496  0.5117
  154SAPE   H7R17046   4.571   1.890   5.517  0.5759  0.8631 -2.7041
  154SAPE   H7S17047   4.728   1.890   5.610 -1.3780 -2.0936  0.1586
  154SAPE   C2817048   4.705   2.055   5.473  0.4404  0.4136  0.3347
  154SAPE   H8R17049   4.722   2.153   5.519 -0.9912  0.8672 -0.0467
  154SAPE   C2917050   4.710   2.056   5.338  0.3300 -0.2394  0.0774
  154SAPE   H9R17051   4.752   2.146   5.292 -0.6948 -0.3051 -1.0543
  154SAPE  C21017052   4.671   1.954   5.238  0.6845 -0.6148  0.4177
  154SAPE  H10R17053   4.609   1.875   5.285 -1.4388 -0.1116 -1.3499
  154SAPE  H10S17054   4.765   1.901   5.213  0.7957  0.0490 -0.6540
  154SAPE  C21117055   4.597   2.014   5.120 -0.8041 -0.0558  0.0049
  154SAPE  H11R17056   4.501   2.058   5.150 -2.2212 -1.7170 -1.8004
  154SAPE  C21217057   4.640   2.036   4.997 -0.2190 -0.2084 -0.1113
  154SAPE  H12R17058   4.571   2.097   4.936  1.2320  2.6403  0.8952
  154SAPE  C21317059   4.770   1.991   4.934  0.0513  0.4822 -0.0317
  154SAPE  H13R17060   4.828   1.943   5.016 -0.4294 -0.4102 -0.2084
  154SAPE  H13S17061   4.837   2.077   4.911 -0.4831  0.5608 -1.3626
  154SAPE  C21417062   4.770   1.893   4.819  0.7592 -0.2144 -0.4518
  154SAPE  H14R17063   4.672   1.852   4.791  0.3961  0.3327 -0.0076
  154SAPE  C21517064   4.876   1.852   4.746  0.9219 -0.1953  0.2975
  154SAPE  H15R17065   4.854   1.785   4.661 -2.3147  3.2815 -1.9459
  154SAPE  C21617066   5.018   1.895   4.775  0.6679 -0.1488 -0.0644
  154SAPE  H16R17067   5.051   1.827   4.857  1.9700  0.2681 -0.2243
  154SAPE  H16S17068   5.021   2.000   4.811  1.2794  0.0551 -0.6723
  154SAPE  C21717069   5.127   1.883   4.660 -0.1318 -0.5408  0.0026
  154SAPE  H17R17070   5.128   1.780   4.618  2.8732 -0.4383 -0.4054
  154SAPE  H17S17071   5.221   1.905   4.715 -0.9928  0.6666  1.0468
  154SAPE  C21817072   5.119   1.973   4.538 -0.7860  0.3183  1.1005
  154SAPE  H18R17073   5.135   2.080   4.563 -0.6607  0.2590  1.2883
  154SAPE  H18S17074   5.015   1.971   4.500 -0.6228 -1.7243  0.6511
  154SAPE  C21917075   5.216   1.943   4.418 -0.6925 -0.6407 -0.6069
  154SAPE  H19R17076   5.223   1.836   4.389 -1.0658 -0.8180 -0.0612
  154SAPE  H19S17077   5.319   1.971   4.450 -0.0275 -2.2363 -1.2128
  154SAPE  C22017078   5.183   2.026   4.298  0.4700  0.0242 -0.2236
  154SAPE  H20R17079   5.229   2.001   4.199 -3.2722 -2.1114 -1.6294
  154SAPE  H20S17080   5.198   2.134   4.317 -2.8383  0.4408  0.5749
  154SAPE  H20T17081   5.074   2.031   4.278  0.6650  0.6180 -1.2367
  154SAPE   C3317082   5.101   2.369   5.612 -0.0320 -0.6399 -0.5638
  154SAPE   H3X17083   5.002   2.362   5.663  1.4051  0.7935  2.6780
  154SAPE   H3Y17084   5.157   2.273   5.618 -0.4899 -0.8245  1.3589
  154SAPE   C3417085   5.089   2.386   5.463  0.4843 -0.4059 -0.1155
  154SAPE   H4X17086   5.193   2.393   5.425  1.1833 -1.4898  1.5272
  154SAPE   H4Y17087   5.032   2.479   5.438  1.5903  0.5069  0.6933
  154SAPE   C3517088   5.013   2.259   5.409 -0.4516  0.7149  0.3442
  154SAPE   H5X17089   4.908   2.251   5.444 -0.6206 -0.8737 -0.4329
  154SAPE   H5Y17090   5.066   2.170   5.450  1.4820  0.5849 -2.1355
  154SAPE   C3617091   5.011   2.241   5.249 -0.9677 -0.0450 -0.1372
  154SAPE   H6X17092   5.074   2.322   5.207 -2.7090  0.4256 -2.0229
  154SAPE   H6Y17093   4.909   2.268   5.213 -0.5986  2.2300  0.3417
  154SAPE   C3717094   5.056   2.107   5.197 -0.0485  0.1603  1.0954
  154SAPE   H7X17095   4.978   2.029   5.209  0.0571 -0.1213  0.0113
  154SAPE   H7Y17096   5.143   2.065   5.253  0.1721  1.1387  1.4978
  154SAPE   C3817097   5.085   2.105   5.045  0.6204  0.8059  0.3281
  154SAPE   H8X17098   5.008   2.162   4.989  1.6085  1.6506 -0.2328
  154SAPE   H8Y17099   5.083   2.002   5.005  0.4407  0.7671  0.4395
  154SAPE   C3917100   5.217   2.182   5.005 -0.0675  0.0842 -1.2088
  154SAPE   H9X17101   5.307   2.133   5.047 -0.3742  0.8566  0.4663
  154SAPE   H9Y17102   5.205   2.281   5.055  0.7528  0.2255 -1.2902
  154SAPE  C31017103   5.233   2.186   4.856 -0.8528 -0.3514  0.3772
  154SAPE  H10X17104   5.136   2.208   4.806  0.0410 -0.9361 -1.7111
  154SAPE  H10Y17105   5.271   2.089   4.819 -0.9907  0.5041 -2.2013
  154SAPE  C31117106   5.329   2.304   4.819  0.3040 -0.3545  0.2580
  154SAPE  H11X17107   5.429   2.291   4.865  1.1391  0.1149 -1.3241
  154SAPE  H11Y17108   5.282   2.398   4.855 -0.1013  0.5336 -2.3745
  154SAPE  C31217109   5.359   2.316   4.667  0.0216 -0.0108 -0.0513
  154SAPE  H12X17110   5.273   2.365   4.617  0.6428  0.2860 -0.8426
  154SAPE  H12Y17111   5.387   2.219   4.621  2.1801  0.2561  0.6068
  154SAPE  C31317112   5.473   2.408   4.629 -0.0393 -0.2526 -0.6210
  154SAPE  H13X17113   5.570   2.378   4.674 -0.5994 -0.4600  0.4647
  154SAPE  H13Y17114   5.443   2.508   4.666  1.0850  0.3288 -1.1951
  154SAPE  C31417115   5.504   2.410   4.477  0.2049 -0.4408  0.9559
  154SAPE  H14X17116   5.530   2.307   4.443 -1.5966  0.1628 -2.7306
  154SAPE  H14Y17117   5.595   2.470   4.455 -0.0818 -0.5901 -0.7919
  154SAPE  C31517118   5.394   2.471   4.389  0.8544  0.5088 -0.0210
  154SAPE  H15X17119   5.372   2.573   4.427  0.3606  0.1214  0.7490
  154SAPE  H15Y17120   5.306   2.407   4.411  0.3662  0.9189 -0.7263
  154SAPE  C31617121   5.429   2.483   4.234  0.0317 -0.1830 -0.0907
  154SAPE  H16X17122   5.348   2.541   4.186  1.6634  2.1484 -0.1780
  154SAPE  H16Y17123   5.444   2.378   4.200  0.3800 -0.0744 -0.2731
  154SAPE  C31717124   5.557   2.551   4.195 -0.1744  0.0797 -0.5849
  154SAPE  H17X17125   5.641   2.499   4.248  0.4083 -0.1964 -1.7539
  154SAPE  H17Y17126   5.542   2.659   4.217 -1.3930 -0.1204 -0.3613
  154SAPE  C31817127   5.581   2.524   4.045  0.3944 -0.0108  0.4429
  154SAPE  H18X17128   5.687   2.548   4.020  1.6649 -2.5795  2.8426
  154SAPE  H18Y17129   5.511   2.578   3.978  2.0213  0.3318 -1.0692
  154SAPE  H18Z17130   5.566   2.417   4.021 -0.4694  0.2078 -0.0123
  155SAPE     N17131   6.369   2.201   6.896 -0.0444  0.0593 -0.3665
  155SAPE   HN117132   6.279   2.188   6.845 -0.4468 -0.3349  0.4312
  155SAPE   HN217133   6.399   2.115   6.946  0.5591 -0.2684 -1.2748
  155SAPE   HN317134   6.345   2.263   6.976 -0.8295 -2.0860  1.1550
  155SAPE   C1217135   6.468   2.263   6.802  0.0542 -0.7049  0.4537
  155SAPE  H12A17136   6.566   2.247   6.851  0.4296  0.0671 -0.0304
  155SAPE  H12B17137   6.441   2.370   6.790  0.6667 -0.5322  0.5928
  155SAPE   C1117138   6.477   2.186   6.662  0.3927 -0.6706  0.4918
  155SAPE  H11A17139   6.509   2.083   6.687  2.0801 -0.4448 -0.6360
  155SAPE  H11B17140   6.560   2.231   6.605 -1.0342  0.3381 -0.8769
  155SAPE     P17141   6.292   2.094   6.494  0.0367 -0.2539  0.0724
  155SAPE   O1317142   6.205   1.996   6.567 -0.2423 -0.2136 -0.1241
  155SAPE   O1417143   6.224   2.162   6.382  0.4600  0.0113  0.0277
  155SAPE   O1217144   6.350   2.194   6.597  0.1641 -0.3881  0.5933
  155SAPE   O1117145   6.427   2.027   6.439 -0.6481 -0.5328  0.4856
  155SAPE    C117146   6.495   2.094   6.329 -0.8453  0.3090 -0.3435
  155SAPE    HA17147   6.490   2.203   6.352  1.5117  0.3750  0.1090
  155SAPE    HB17148   6.604   2.071   6.333 -0.6883  1.2403  1.7569
  155SAPE    C217149   6.440   2.066   6.189 -0.2277  0.3569 -0.2447
  155SAPE    HS17150   6.353   2.136   6.190  1.5166  2.6469  0.8946
  155SAPE   O2117151   6.413   1.927   6.177 -0.1614 -0.4024  0.5017
  155SAPE   C2117152   6.285   1.886   6.146 -0.1227 -0.2630 -0.2832
  155SAPE   O2217153   6.193   1.961   6.127  0.8687  0.1082 -0.1037
  155SAPE   C2217154   6.273   1.734   6.138  0.1822  0.2751  0.1334
  155SAPE   H2R17155   6.242   1.705   6.240 -0.1242  1.0740  0.2720
  155SAPE   H2S17156   6.186   1.708   6.074 -1.2457 -0.1844  2.1860
  155SAPE    C317157   6.536   2.121   6.077  0.0087  0.7005  0.7005
  155SAPE    HX17158   6.638   2.084   6.102  0.9788  1.7566 -1.4824
  155SAPE    HY17159   6.526   2.232   6.071 -1.4440  0.6790  1.8699
  155SAPE   O3117160   6.512   2.061   5.948  0.1598 -0.0792 -0.2036
  155SAPE   C3117161   6.438   2.133   5.856 -0.2647  0.2681 -0.1581
  155SAPE   O3217162   6.392   2.245   5.869 -0.7114  0.1374 -0.9114
  155SAPE   C3217163   6.422   2.045   5.730  0.3718 -0.3444 -0.9389
  155SAPE   H2X17164   6.316   2.055   5.700  0.2587  0.9246 -0.2049
  155SAPE   H2Y17165   6.445   1.939   5.754 -0.0380 -0.3571 -0.5942
  155SAPE   C2317166   6.405   1.671   6.087 -0.0271 -0.0865  0.3972
  155SAPE   H3R17167   6.391   1.562   6.102 -0.0515  0.1995  3.0430
  155SAPE   H3S17168   6.495   1.701   6.146 -1.2286 -0.0530  2.2870
  155SAPE   C2417169   6.456   1.698   5.947  0.2334 -0.1418 -0.2174
  155SAPE   H4R17170   6.563   1.671   5.937 -0.1141 -1.5370 -0.4063
  155SAPE   H4S17171   6.451   1.804   5.912  0.4678 -1.0137 -3.1887
  155SAPE   C2517172   6.375   1.629   5.847  0.6512 -0.5825  0.1727
  155SAPE   H5R17173   6.276   1.597   5.881 -0.0950  1.1666 -0.2622
  155SAPE   C2617174   6.409   1.598   5.723  0.1080  0.3989 -0.1263
  155SAPE   H6R17175   6.338   1.548   5.656  0.0015  0.4803 -0.0759
  155SAPE   C2717176   6.534   1.657   5.654  0.4946 -0.0373 -0.0268
  155SAPE   H7R17177   6.609   1.705   5.721  3.7201 -1.9535 -1.9639
  155SAPE   H7S17178   6.494   1.746   5.601  0.3963 -0.9510 -1.5497
  155SAPE   C2817179   6.596   1.556   5.564 -0.3621  0.0555 -0.9130
  155SAPE   H8R17180   6.610   1.459   5.614 -0.9506  0.2768 -0.3128
  155SAPE   C2917181   6.630   1.568   5.437 -0.0060  0.3479  0.9079
  155SAPE   H9R17182   6.671   1.480   5.386 -0.3212  0.6355  0.1421
  155SAPE  C21017183   6.611   1.693   5.345  0.2980 -0.4206 -0.0040
  155SAPE  H10R17184   6.712   1.720   5.306  0.8905 -2.8900 -0.3583
  155SAPE  H10S17185   6.582   1.783   5.404 -0.8534 -0.0464 -1.1061
  155SAPE  C21117186   6.516   1.667   5.226 -0.1414  0.1285 -0.4837
  155SAPE  H11R17187   6.490   1.562   5.205 -1.1293  0.4345 -0.8269
  155SAPE  C21217188   6.457   1.767   5.160  0.4873 -0.1110 -0.1739
  155SAPE  H12R17189   6.382   1.746   5.082  0.2662 -1.3454  0.3604
  155SAPE  C21317190   6.474   1.914   5.174 -0.2731 -1.1142  0.7311
  155SAPE  H13R17191   6.564   1.928   5.238  1.9324  0.7743 -2.5205
  155SAPE  H13S17192   6.384   1.952   5.226 -0.8715  1.4226 -1.9418
  155SAPE  C21417193   6.498   1.992   5.046  0.2023 -0.5482 -0.0288
  155SAPE  H14R17194   6.603   2.021   5.032  0.1860  0.0558  1.0502
  155SAPE  C21517195   6.405   2.025   4.953  0.7255 -0.3484  0.6424
  155SAPE  H15R17196   6.438   2.083   4.865  0.1338 -0.8800  0.0597
  155SAPE  C21617197   6.260   1.993   4.949  0.7149 -0.5095 -0.1973
  155SAPE  H16R17198   6.198   2.085   4.947 -2.2638 -2.2554  2.3373
  155SAPE  H16S17199   6.225   1.934   5.037  0.2846  0.3152  0.1925
  155SAPE  C21717200   6.233   1.906   4.823 -0.2757 -0.7692  0.6276
  155SAPE  H17R17201   6.271   1.966   4.737  1.6407 -2.5398  0.1461
  155SAPE  H17S17202   6.127   1.878   4.814  0.0102 -1.0948 -3.2287
  155SAPE  C21817203   6.306   1.771   4.818 -0.4261  0.4200 -0.0513
  155SAPE  H18R17204   6.272   1.714   4.907  1.2464 -0.7677 -0.1289
  155SAPE  H18S17205   6.414   1.789   4.833 -0.0976 -2.1150  1.1467
  155SAPE  C21917206   6.286   1.686   4.684 -0.1776 -0.2637 -0.3929
  155SAPE  H19R17207   6.189   1.635   4.701 -1.8675  2.6490 -0.6607
  155SAPE  H19S17208   6.375   1.620   4.692  0.7713  1.0799  0.7620
  155SAPE  C22017209   6.295   1.767   4.553 -0.1359  0.0629  0.6087
  155SAPE  H20R17210   6.243   1.865   4.559  0.1831  0.2933 -0.2385
  155SAPE  H20S17211   6.265   1.714   4.460  3.5583  1.0038 -1.3018
  155SAPE  H20T17212   6.403   1.788   4.540  0.2069 -2.0522 -0.4048
  155SAPE   C3317213   6.517   2.096   5.620  0.0083 -0.2571  0.3925
  155SAPE   H3X17214   6.521   2.018   5.541 -0.3856 -0.3025  0.4189
  155SAPE   H3Y17215   6.625   2.106   5.646 -0.0738  1.1236  0.2617
  155SAPE   C3417216   6.462   2.229   5.563 -0.4563  0.1062 -0.0750
  155SAPE   H4X17217   6.494   2.311   5.630 -1.0755  0.6643 -0.4542
  155SAPE   H4Y17218   6.352   2.241   5.570 -0.6358 -1.5302  0.4369
  155SAPE   C3517219   6.524   2.262   5.431 -0.6743 -0.8122  0.1217
  155SAPE   H5X17220   6.485   2.197   5.350  2.4336 -1.1527 -1.2476
  155SAPE   H5Y17221   6.630   2.227   5.433 -0.5641 -0.5190 -0.3378
  155SAPE   C3617222   6.527   2.410   5.395 -0.3585 -0.1397 -0.1001
  155SAPE   H6X17223   6.572   2.462   5.481  3.2716 -3.2298  0.1137
  155SAPE   H6Y17224   6.423   2.447   5.376  0.3449  0.7018 -2.8614
  155SAPE   C3717225   6.606   2.442   5.262 -0.0211 -0.0300  0.0428
  155SAPE   H7X17226   6.702   2.385   5.267 -0.9157 -1.5179  1.0561
  155SAPE   H7Y17227   6.632   2.550   5.266  0.2983 -0.1032  0.0237
  155SAPE   C3817228   6.536   2.394   5.131 -0.6222 -0.5928  0.5835
  155SAPE   H8X17229   6.430   2.427   5.128 -0.1847  0.8290 -0.2955
  155SAPE   H8Y17230   6.534   2.283   5.123  1.2912 -0.5632 -1.4267
  155SAPE   C3917231   6.610   2.446   5.000 -0.0169  0.3969 -0.2360
  155SAPE   H9X17232   6.707   2.392   4.997 -0.0588  0.2467  0.6624
  155SAPE   H9Y17233   6.640   2.552   5.001  0.8661  0.1913 -1.8314
  155SAPE  C31017234   6.525   2.426   4.879 -0.1470  0.1536  0.4280
  155SAPE  H10X17235   6.425   2.475   4.886  0.1167  0.4471  3.2393
  155SAPE  H10Y17236   6.499   2.318   4.877 -1.8707  0.4665  2.2929
  155SAPE  C31117237   6.584   2.465   4.741  1.5366 -0.3962 -0.4142
  155SAPE  H11X17238   6.677   2.408   4.721  1.1634 -1.8954  1.7257
  155SAPE  H11Y17239   6.614   2.571   4.753 -1.4024  0.8181 -2.5474
  155SAPE  C31217240   6.479   2.457   4.622  0.5733  0.0101 -0.2854
  155SAPE  H12X17241   6.386   2.508   4.658  1.7806  1.1488  1.3708
  155SAPE  H12Y17242   6.441   2.357   4.591 -0.5650  0.4738 -0.4515
  155SAPE  C31317243   6.531   2.518   4.492 -0.0477  0.6187  0.4710
  155SAPE  H13X17244   6.595   2.445   4.437 -1.2483 -0.0569 -0.0765
  155SAPE  H13Y17245   6.590   2.604   4.530  2.2723  0.1247 -1.7190
  155SAPE  C31417246   6.424   2.583   4.412  0.0979 -0.6378 -0.1779
  155SAPE  H14X17247   6.458   2.670   4.352  2.0507  0.0000  1.7483
  155SAPE  H14Y17248   6.355   2.635   4.481 -2.3677 -0.5458 -2.5235
  155SAPE  C31517249   6.357   2.488   4.312 -0.3053  0.3434  0.0330
  155SAPE  H15X17250   6.346   2.385   4.352  1.9010 -0.3453 -0.9613
  155SAPE  H15Y17251   6.420   2.487   4.220 -0.4928  0.4956 -0.0992
  155SAPE  C31617252   6.216   2.537   4.269  0.1515  0.3896  0.0230
  155SAPE  H16X17253   6.196   2.486   4.172 -1.2794 -2.0348  1.4765
  155SAPE  H16Y17254   6.211   2.647   4.261  2.0071  0.4671 -0.2776
  155SAPE  C31717255   6.119   2.493   4.376 -0.0208  0.4318  0.9380
  155SAPE  H17X17256   6.169   2.524   4.471  0.7187 -0.6946  0.9367
  155SAPE  H17Y17257   6.121   2.382   4.376  1.7470  0.4223 -0.3484
  155SAPE  C31817258   5.974   2.541   4.369 -0.9818 -0.3508  0.3722
  155SAPE  H18X17259   5.919   2.459   4.318 -1.0754 -1.5008  2.2138
  155SAPE  H18Y17260   5.968   2.636   4.312  1.2274 -1.4833 -1.9464
  155SAPE  H18Z17261   5.937   2.556   4.473  0.5382 -0.7508  0.9964
  156SAPE     N17262   0.709   3.512   6.368 -0.0176  0.0045  0.4124
  156SAPE   HN117263   0.628   3.577   6.375 -0.0098  0.1131 -0.4354
  156SAPE   HN217264   0.675   3.423   6.410  0.6901  0.8783  3.0185
  156SAPE   HN317265   0.785   3.547   6.430 -0.0259 -0.3575  0.6345
  156SAPE   C1217266   0.733   3.490   6.228  0.5168 -0.4704  0.3570
  156SAPE  H12A17267   0.747   3.587   6.176 -0.6133 -0.1293  0.6585
  156SAPE  H12B17268   0.639   3.448   6.187 -0.1184 -0.3800  1.6668
  156SAPE   C1117269   0.847   3.386   6.210 -0.0665  0.1015 -0.2205
  156SAPE  H11A17270   0.863   3.359   6.104  0.8349 -1.7816  0.3415
  156SAPE  H11B17271   0.811   3.295   6.264  1.3227 -0.5007 -0.2534
  156SAPE     P17272   1.068   3.528   6.224 -0.3589 -0.6341  0.0396
  156SAPE   O1317273   0.992   3.656   6.216  0.2254  0.0053  0.0947
  156SAPE   O1417274   1.190   3.527   6.309  0.2976  0.8298 -0.1461
  156SAPE   O1217275   0.966   3.423   6.280 -0.0232  0.1605 -0.2092
  156SAPE   O1117276   1.101   3.478   6.082  0.3654  0.2691  0.3222
  156SAPE    C117277   1.174   3.364   6.037  0.8661  0.0966 -0.1414
  156SAPE    HA17278   1.279   3.389   6.064  0.1188  2.4010  0.9063
  156SAPE    HB17279   1.125   3.276   6.082  1.6787 -0.5814 -0.5642
  156SAPE    C217280   1.153   3.348   5.885  0.4755  0.4968  0.3576
  156SAPE    HS17281   1.180   3.249   5.844 -2.0299  0.0050 -0.2281
  156SAPE   O2117282   1.206   3.450   5.807 -0.1353 -0.1579 -0.3050
  156SAPE   C2117283   1.334   3.441   5.774  0.0075  0.1962  0.0424
  156SAPE   O2217284   1.404   3.352   5.821  0.6059 -0.3133  0.2302
  156SAPE   C2217285   1.377   3.557   5.683  0.1460 -0.2277  0.0370
  156SAPE   H2R17286   1.285   3.590   5.629  0.3852 -0.1583 -0.3279
  156SAPE   H2S17287   1.411   3.643   5.745  2.1623  0.1027 -1.4512
  156SAPE    C317288   1.002   3.343   5.857  0.1540 -0.7304 -0.1023
  156SAPE    HX17289   0.952   3.438   5.886 -0.7995 -1.4271  0.6052
  156SAPE    HY17290   0.959   3.265   5.924  0.2427 -0.2759  0.5013
  156SAPE   O3117291   0.969   3.323   5.721  0.1917 -0.0714  0.6427
  156SAPE   C3117292   0.886   3.225   5.691  0.4561 -0.1697 -0.4180
  156SAPE   O3217293   0.812   3.162   5.764 -0.3570 -0.5206  0.2315
  156SAPE   C3217294   0.917   3.203   5.544  0.6346  0.2210 -0.6188
  156SAPE   H2X17295   0.899   3.093   5.542  0.4704  0.1860  1.1111
  156SAPE   H2Y17296   1.026   3.213   5.522  0.1978  0.5971 -2.8057
  156SAPE   C2317297   1.491   3.506   5.590  0.4202  0.0670  0.5050
  156SAPE   H3R17298   1.551   3.438   5.654  0.5248 -0.3803 -0.0509
  156SAPE   H3S17299   1.550   3.594   5.558  0.0051  0.0443 -0.3711
  156SAPE   C2417300   1.441   3.438   5.466 -0.3566 -0.0091  0.0246
  156SAPE   H4R17301   1.354   3.495   5.428 -1.2447 -1.2037  0.2127
  156SAPE   H4S17302   1.405   3.337   5.496  0.4768  0.3160  2.3136
  156SAPE   C2517303   1.547   3.437   5.357 -0.1433 -0.0590  0.4604
  156SAPE   H5R17304   1.635   3.379   5.387  0.4621  0.5971  0.0041
  156SAPE   C2617305   1.534   3.466   5.226  0.5234  0.3622 -0.0181
  156SAPE   H6R17306   1.620   3.461   5.159  0.5544  0.1220  0.0387
  156SAPE   C2717307   1.407   3.525   5.167 -0.0064  0.5945 -0.3732
  156SAPE   H7R17308   1.401   3.626   5.213  1.0271 -0.3031  1.9067
  156SAPE   H7S17309   1.318   3.467   5.200  1.9041 -1.7484  1.0613
  156SAPE   C2817310   1.420   3.547   5.021  0.3247 -0.0379 -0.1685
  156SAPE   H8R17311   1.427   3.652   4.988 -4.9843  0.9900  0.9390
  156SAPE   C2917312   1.408   3.442   4.932  0.0056 -0.9492  0.1752
  156SAPE   H9R17313   1.409   3.472   4.826 -0.8747  0.0822  0.4334
  156SAPE  C21017314   1.380   3.305   4.980  0.6064 -0.1446  0.3297
  156SAPE  H10R17315   1.312   3.316   5.067  1.0312 -1.3966  0.8489
  156SAPE  H10S17316   1.478   3.270   5.019  1.5448  0.7372 -1.1696
  156SAPE  C21117317   1.323   3.207   4.879 -0.1502  0.3233 -0.0736
  156SAPE  H11R17318   1.321   3.234   4.773 -1.1765  1.7682  0.2868
  156SAPE  C21217319   1.300   3.079   4.908 -0.5460  0.3379  0.3366
  156SAPE  H12R17320   1.260   3.008   4.833  1.1750 -1.5908  1.1665
  156SAPE  C21317321   1.309   3.001   5.036  0.0717 -0.1487  0.2371
  156SAPE  H13R17322   1.212   2.952   5.061 -0.8357  1.5622  0.2918
  156SAPE  H13S17323   1.321   3.072   5.121  2.5935  1.1923 -1.1311
  156SAPE  C21417324   1.426   2.905   5.046  0.1759 -0.4455  0.5549
  156SAPE  H14R17325   1.508   2.910   4.973  2.0013 -0.8403  2.4782
  156SAPE  C21517326   1.465   2.829   5.152  0.0357 -0.2235 -0.7113
  156SAPE  H15R17327   1.555   2.766   5.151 -0.2692 -0.6848  0.0277
  156SAPE  C21617328   1.390   2.819   5.284 -0.6201 -0.2079 -0.4991
  156SAPE  H16R17329   1.350   2.715   5.283 -1.0862 -0.0301 -0.3413
  156SAPE  H16S17330   1.300   2.882   5.270 -0.2636  0.2929 -0.5652
  156SAPE  C21717331   1.470   2.848   5.418  0.4890  0.5849 -0.2050
  156SAPE  H17R17332   1.512   2.950   5.410 -0.3964  0.8968 -1.0040
  156SAPE  H17S17333   1.550   2.770   5.426 -0.5386 -0.3926  0.9961
  156SAPE  C21817334   1.373   2.845   5.537 -0.4311  0.0309  0.3584
  156SAPE  H18R17335   1.347   2.740   5.566 -2.1852  0.8843  2.1045
  156SAPE  H18S17336   1.278   2.891   5.504 -0.0570  0.9657  0.5684
  156SAPE  C21917337   1.434   2.927   5.646 -0.0169  0.2167 -0.2623
  156SAPE  H19R17338   1.462   3.023   5.598 -1.7362  0.0283 -1.7337
  156SAPE  H19S17339   1.527   2.875   5.678  0.3094  0.9725  0.0281
  156SAPE  C22017340   1.344   2.959   5.762  0.5452  0.6128  0.1934
  156SAPE  H20R17341   1.397   3.017   5.840  0.9828  2.4543 -1.3808
  156SAPE  H20S17342   1.298   2.871   5.811 -2.7099  1.5471 -0.8705
  156SAPE  H20T17343   1.257   3.022   5.734  1.2446  1.8630  0.7652
  156SAPE   C3317344   0.816   3.286   5.449  0.2961 -0.2972 -0.2901
  156SAPE   H3X17345   0.845   3.391   5.470  1.4626 -0.5271 -0.6409
  156SAPE   H3Y17346   0.712   3.255   5.472 -0.5977  0.5450 -2.9181
  156SAPE   C3417347   0.839   3.257   5.299 -0.2358 -0.2685  0.0256
  156SAPE   H4X17348   0.853   3.147   5.292 -0.5676 -0.6375  3.3962
  156SAPE   H4Y17349   0.943   3.291   5.280  1.2288 -2.2669  3.5387
  156SAPE   C3517350   0.737   3.331   5.211  1.0064  0.6139 -0.0056
  156SAPE   H5X17351   0.737   3.440   5.231  1.3594  0.6046  0.0666
  156SAPE   H5Y17352   0.636   3.288   5.229  2.1974 -1.4218  2.6024
  156SAPE   C3617353   0.777   3.304   5.057  0.4700 -0.2611  0.5372
  156SAPE   H6X17354   0.787   3.196   5.033  0.0038 -0.0038 -0.9182
  156SAPE   H6Y17355   0.877   3.354   5.052  0.5437 -0.4955 -0.4383
  156SAPE   C3717356   0.671   3.364   4.964  0.1050 -0.0432  0.9335
  156SAPE   H7X17357   0.645   3.467   4.996  0.9496  0.2302  0.7742
  156SAPE   H7Y17358   0.581   3.299   4.966 -0.0225  0.1438  1.3022
  156SAPE   C3817359   0.725   3.372   4.819  0.8817  1.0995  0.3048
  156SAPE   H8X17360   0.796   3.458   4.815 -0.6963  2.4234 -0.2127
  156SAPE   H8Y17361   0.645   3.388   4.744 -1.1031  1.5368  2.4056
  156SAPE   C3917362   0.797   3.239   4.774  0.5090 -0.0107  0.0245
  156SAPE   H9X17363   0.745   3.142   4.792 -0.8257  0.6697 -0.0063
  156SAPE   H9Y17364   0.894   3.232   4.827  0.1354  0.0512  0.7278
  156SAPE  C31017365   0.829   3.234   4.625 -0.1584  0.3360  0.1862
  156SAPE  H10X17366   0.892   3.318   4.589  2.5341 -2.6875 -2.8376
  156SAPE  H10Y17367   0.739   3.249   4.562 -0.1588 -2.5200 -0.6672
  156SAPE  C31117368   0.896   3.099   4.576 -0.2066 -0.4652 -0.6797
  156SAPE  H11X17369   0.889   3.097   4.465 -1.8279 -1.7473 -0.5812
  156SAPE  H11Y17370   0.842   3.011   4.616  1.9004 -1.2452  0.6455
  156SAPE  C31217371   1.047   3.102   4.615  0.6352  0.2817 -0.3491
  156SAPE  H12X17372   1.076   3.011   4.672 -3.4840 -1.5433 -0.7732
  156SAPE  H12Y17373   1.059   3.178   4.694 -1.2506  0.5494 -0.2645
  156SAPE  C31317374   1.136   3.148   4.503  0.4225  0.8419 -0.4686
  156SAPE  H13X17375   1.239   3.145   4.544  0.6494 -0.3712 -1.0964
  156SAPE  H13Y17376   1.098   3.249   4.478 -0.5124  0.8613  0.9161
  156SAPE  C31417377   1.126   3.068   4.370  0.1632  0.3839  0.5235
  156SAPE  H14X17378   1.027   3.075   4.320  0.8643  1.1249 -0.8329
  156SAPE  H14Y17379   1.125   2.958   4.386  2.1305  0.1882 -0.3015
  156SAPE  C31517380   1.236   3.101   4.263 -0.6621  0.7793 -0.0688
  156SAPE  H15X17381   1.265   3.208   4.267 -0.2607  0.6630  0.1619
  156SAPE  H15Y17382   1.187   3.070   4.168 -1.9365  1.3352  0.3834
  156SAPE  C31617383   1.363   3.021   4.292 -0.0487  0.5097 -0.1171
  156SAPE  H16X17384   1.333   2.924   4.336 -0.9301  1.2772  1.0643
  156SAPE  H16Y17385   1.433   3.076   4.358  0.6223 -0.9314  0.4033
  156SAPE  C31717386   1.429   2.990   4.153  0.3893 -0.6708 -0.7499
  156SAPE  H17X17387   1.389   3.066   4.083  0.9947 -0.4651 -0.8793
  156SAPE  H17Y17388   1.398   2.888   4.119  0.9259 -0.8172 -0.8117
  156SAPE  C31817389   1.582   3.008   4.162  0.0068 -0.4968 -0.1277
  156SAPE  H18X17390   1.619   3.098   4.215  1.9058 -0.0356 -2.0739
  156SAPE  H18Y17391   1.639   2.984   4.069  2.3505 -0.8998  1.3294
  156SAPE  H18Z17392   1.617   2.923   4.224  0.0259 -1.0303 -0.8521
  157SAPE     N17393   0.987   0.273   6.866  0.3489 -0.0933  0.3348
  157SAPE   HN117394   1.051   0.239   6.941 -1.0432 -0.7129  1.2985
  157SAPE   HN217395   1.039   0.277   6.777  2.1708 -0.9768  1.2981
  157SAPE   HN317396   0.964   0.372   6.889 -1.6540  0.1580 -2.3958
  157SAPE   C1217397   0.874   0.169   6.855  0.5069  0.6556 -0.0143
  157SAPE  H12A17398   0.848   0.133   6.957  0.4478 -0.4429 -0.4057
  157SAPE  H12B17399   0.904   0.088   6.784  2.3486  1.3959 -0.1219
  157SAPE   C1117400   0.754   0.234   6.783  0.3773 -0.0125 -0.1045
  157SAPE  H11A17401   0.668   0.166   6.799  0.9152 -0.7016 -0.0600
  157SAPE  H11B17402   0.760   0.242   6.672 -1.0740  1.4424 -0.1157
  157SAPE     P17403   0.719   0.497   6.765  0.5064  0.2797 -0.2146
  157SAPE   O1317404   0.641   0.598   6.836  0.6296  0.0123 -0.1876
  157SAPE   O1417405   0.859   0.524   6.734  0.2229 -0.5569  0.8931
  157SAPE   O1217406   0.728   0.362   6.849  0.8080  0.2423  0.5618
  157SAPE   O1117407   0.637   0.446   6.634 -0.1160 -0.0111 -0.2400
  157SAPE    C117408   0.673   0.509   6.511 -0.1968  0.1859  0.3434
  157SAPE    HA17409   0.601   0.592   6.497 -0.8949 -0.3875  0.4952
  157SAPE    HB17410   0.779   0.539   6.502 -0.4257  1.1507  0.7396
  157SAPE    C217411   0.646   0.411   6.389  0.3528  0.1696  0.3525
  157SAPE    HS17412   0.688   0.469   6.304 -0.7723  0.7638  0.1830
  157SAPE   O2117413   0.509   0.379   6.364 -0.5491  0.2700 -0.0570
  157SAPE   C2117414   0.435   0.463   6.297  0.3820  0.1524 -0.1950
  157SAPE   O2217415   0.482   0.553   6.230  0.5931 -0.3869  0.2916
  157SAPE   C2217416   0.291   0.424   6.322 -0.7478 -0.0319 -0.2128
  157SAPE   H2R17417   0.277   0.314   6.314  0.2610 -0.2436  0.7738
  157SAPE   H2S17418   0.269   0.462   6.424 -2.2442 -0.4855 -0.3479
  157SAPE    C317419   0.738   0.287   6.390  0.4036 -0.3100 -0.7116
  157SAPE    HX17420   0.699   0.215   6.465  0.2906 -1.0697 -1.4937
  157SAPE    HY17421   0.845   0.308   6.412  0.2554  0.9758 -1.1131
  157SAPE   O3117422   0.732   0.225   6.267  0.2071  0.4189  0.2968
  157SAPE   C3117423   0.808   0.285   6.170 -0.1704  0.5840  0.1737
  157SAPE   O3217424   0.910   0.352   6.190  0.5859  0.3026 -0.0533
  157SAPE   C3217425   0.754   0.253   6.032  0.2554 -0.1514 -1.0110
  157SAPE   H2X17426   0.778   0.145   6.027 -0.5285 -0.6007  2.5104
  157SAPE   H2Y17427   0.811   0.299   5.949  3.0977 -2.3751 -0.4578
  157SAPE   C2317428   0.179   0.491   6.236  0.3384  0.1864 -0.1853
  157SAPE   H3R17429   0.207   0.463   6.133  0.1880  1.7461 -0.6705
  157SAPE   H3S17430   0.196   0.600   6.238  1.1786  0.0792  2.5555
  157SAPE   C2417431   0.032   0.449   6.274  0.2151 -0.0859  0.1539
  157SAPE   H4R17432  -0.026   0.491   6.189  0.2401  2.0260  1.1201
  157SAPE   H4S17433  -0.004   0.506   6.362 -3.3319 -2.0882  0.1861
  157SAPE   C2517434   0.021   0.304   6.299  0.1912  0.4302  0.6785
  157SAPE   H5R17435   0.048   0.271   6.400  1.6086 -0.8780 -0.0890
  157SAPE   C2617436  -0.035   0.217   6.217  1.1955 -0.1707 -0.0534
  157SAPE   H6R17437  -0.059   0.117   6.256  1.0182  0.5671  1.8206
  157SAPE   C2717438  -0.079   0.243   6.075  0.4545  0.3210  0.5122
  157SAPE   H7R17439   0.007   0.272   6.013  0.2321  0.6109  0.3380
  157SAPE   H7S17440  -0.154   0.325   6.076 -0.4496 -0.4829  0.1850
  157SAPE   C2817441  -0.156   0.123   6.026  0.2648  0.3047  0.5222
  157SAPE   H8R17442  -0.229   0.085   6.099 -1.0962  1.6370 -0.0979
  157SAPE   C2917443  -0.149   0.061   5.906  0.0458 -0.0876  0.1725
  157SAPE   H9R17444  -0.199  -0.036   5.890  2.9423 -1.3676 -1.9955
  157SAPE  C21017445  -0.076   0.126   5.791 -0.2541 -0.2981  0.2822
  157SAPE  H10R17446  -0.046   0.045   5.721 -2.0191 -0.5539 -0.2316
  157SAPE  H10S17447   0.013   0.178   5.833 -0.9245  2.5412 -1.5229
  157SAPE  C21117448  -0.134   0.247   5.718  0.4157 -0.5107 -0.2602
  157SAPE  H11R17449  -0.206   0.304   5.779 -0.7799 -1.4081 -0.7857
  157SAPE  C21217450  -0.135   0.270   5.588  0.1814  0.0828  0.2578
  157SAPE  H12R17451  -0.165   0.368   5.546  1.9510  0.4575 -0.2219
  157SAPE  C21317452  -0.051   0.187   5.493 -0.5580  0.4572 -1.0154
  157SAPE  H13R17453  -0.043   0.078   5.511  0.3017  0.3776 -1.7784
  157SAPE  H13S17454   0.046   0.238   5.509  0.2792 -1.8567  2.1750
  157SAPE  C21417455  -0.111   0.189   5.360 -1.5210 -0.3397  0.3519
  157SAPE  H14R17456  -0.211   0.234   5.357 -0.6507  1.7743  1.4225
  157SAPE  C21517457  -0.046   0.149   5.244 -0.7745  0.4836 -0.1578
  157SAPE  H15R17458  -0.098   0.175   5.150  0.5805  1.3902 -0.6968
  157SAPE  C21617459   0.095   0.086   5.226  0.8959  0.3238 -0.5619
  157SAPE  H16R17460   0.093  -0.018   5.188  1.3717 -0.0566  0.4344
  157SAPE  H16S17461   0.153   0.094   5.320  0.4936  0.1810 -0.2971
  157SAPE  C21717462   0.178   0.164   5.123  0.0777  0.4320  0.0741
  157SAPE  H17R17463   0.130   0.141   5.025 -1.1651 -0.3121  0.8205
  157SAPE  H17S17464   0.279   0.117   5.118 -0.6137 -1.1246  0.0932
  157SAPE  C21817465   0.197   0.312   5.150 -0.1530  0.3722  0.0379
  157SAPE  H18R17466   0.246   0.316   5.249 -0.7472 -0.8016  0.3919
  157SAPE  H18S17467   0.092   0.349   5.141 -0.2252 -0.1550 -1.6594
  157SAPE  C21917468   0.268   0.386   5.032 -0.0052 -0.0772 -0.1529
  157SAPE  H19R17469   0.205   0.363   4.943 -0.6126 -0.8036  0.4461
  157SAPE  H19S17470   0.362   0.332   5.010 -0.2444 -0.4590 -0.2508
  157SAPE  C22017471   0.285   0.534   5.050 -0.3901 -0.0059 -0.2388
  157SAPE  H20R17472   0.345   0.559   5.140  1.3330 -1.5068 -0.8888
  157SAPE  H20S17473   0.180   0.569   5.049 -0.9027 -1.4709 -0.3164
  157SAPE  H20T17474   0.344   0.577   4.966  0.6205 -0.5405  0.1658
  157SAPE   C3317475   0.603   0.268   6.011  0.0611  0.3720  0.2662
  157SAPE   H3X17476   0.577   0.376   6.014  1.2215  0.6919 -0.6972
  157SAPE   H3Y17477   0.543   0.213   6.088 -1.4157  0.1470 -1.0021
  157SAPE   C3417478   0.564   0.219   5.873  0.1752  1.3850  0.1609
  157SAPE   H4X17479   0.586   0.111   5.860 -1.3686  0.7969  1.9763
  157SAPE   H4Y17480   0.626   0.275   5.799  1.5886 -1.6929 -1.1772
  157SAPE   C3517481   0.418   0.248   5.834  0.0722  0.7382  0.1528
  157SAPE   H5X17482   0.384   0.336   5.894 -2.5003 -0.7664  1.0416
  157SAPE   H5Y17483   0.354   0.171   5.882  1.3291  0.3166  1.2162
  157SAPE   C3617484   0.389   0.263   5.681 -0.4207 -0.0519 -0.4428
  157SAPE   H6X17485   0.457   0.342   5.641  0.9016  0.7438  3.0263
  157SAPE   H6Y17486   0.284   0.298   5.682 -0.0052  1.2545 -0.1612
  157SAPE   C3717487   0.411   0.136   5.605 -0.5107  0.1172 -0.1467
  157SAPE   H7X17488   0.333   0.062   5.633 -1.7608  2.1711  2.0890
  157SAPE   H7Y17489   0.518   0.106   5.616  0.2590  1.8506 -2.1558
  157SAPE   C3817490   0.403   0.160   5.451  0.6768  0.6700  0.0521
  157SAPE   H8X17491   0.328   0.241   5.433 -2.6219 -2.1112  0.1811
  157SAPE   H8Y17492   0.362   0.076   5.392 -1.4120  1.2433  0.5974
  157SAPE   C3917493   0.552   0.198   5.398  0.4959  0.5527 -0.6147
  157SAPE   H9X17494   0.617   0.113   5.429 -1.9635 -1.7880 -1.5251
  157SAPE   H9Y17495   0.580   0.285   5.461 -0.6640  0.2414  0.3557
  157SAPE  C31017496   0.576   0.214   5.244  0.0920  0.3661  0.0078
  157SAPE  H10X17497   0.674   0.265   5.244 -0.0530  0.8286  3.2243
  157SAPE  H10Y17498   0.493   0.278   5.206 -1.1009 -0.2433  1.4533
  157SAPE  C31117499   0.589   0.078   5.172  0.9537  0.7779 -0.7611
  157SAPE  H11X17500   0.498   0.014   5.170 -0.6760  2.6065  3.7498
  157SAPE  H11Y17501   0.665   0.013   5.220 -1.4673 -0.1238  2.1432
  157SAPE  C31217502   0.644   0.094   5.028 -0.1722 -0.1928 -0.4032
  157SAPE  H12X17503   0.685  -0.003   4.993 -0.4575  0.0204 -1.3675
  157SAPE  H12Y17504   0.734   0.158   5.035  0.7350 -1.4951  0.2579
  157SAPE  C31317505   0.537   0.149   4.937 -0.4706 -0.3121 -0.0365
  157SAPE  H13X17506   0.542   0.260   4.944 -0.4334 -0.4228  2.4582
  157SAPE  H13Y17507   0.433   0.122   4.966 -0.4422  0.7416  1.1272
  157SAPE  C31417508   0.557   0.105   4.790  0.2578 -0.4056 -0.1670
  157SAPE  H14X17509   0.569  -0.005   4.796 -1.5714 -0.6398 -0.4951
  157SAPE  H14Y17510   0.652   0.150   4.754  1.3711 -1.9261  0.7541
  157SAPE  C31517511   0.434   0.122   4.708 -0.8209 -1.3123 -0.3875
  157SAPE  H15X17512   0.406   0.230   4.701 -0.3339 -1.2196 -1.0311
  157SAPE  H15Y17513   0.347   0.069   4.752  0.3114 -2.2075  0.8637
  157SAPE  C31617514   0.457   0.058   4.570 -0.2588  0.5653  0.4790
  157SAPE  H16X17515   0.453  -0.052   4.581 -1.0206  0.2972 -1.8506
  157SAPE  H16Y17516   0.557   0.087   4.530  0.3265  0.7570  2.0086
  157SAPE  C31717517   0.342   0.098   4.469 -0.6265  0.4135  1.4033
  157SAPE  H17X17518   0.342   0.210   4.469  1.1562  0.4531  0.6913
  157SAPE  H17Y17519   0.248   0.069   4.521 -1.9903  1.3293 -0.4580
  157SAPE  C31817520   0.348   0.047   4.327  0.0158  0.1016  0.3106
  157SAPE  H18X17521   0.443   0.075   4.277  0.0358  0.3055  0.4643
  157SAPE  H18Y17522   0.268   0.103   4.275  1.7382  2.5227  0.1218
  157SAPE  H18Z17523   0.327  -0.062   4.322  0.8530 -0.0400 -0.4151
  158SAPE     N17524   3.394   0.587   6.649  0.5691  0.7995 -0.8866
  158SAPE   HN117525   3.381   0.681   6.692  0.2499  1.2795 -1.9922
  158SAPE   HN217526   3.369   0.514   6.718 -0.8637  0.9260 -1.2358
  158SAPE   HN317527   3.495   0.578   6.625  0.6695 -0.2407 -0.1051
  158SAPE   C1217528   3.332   0.567   6.515 -0.1891  0.1501  0.0439
  158SAPE  H12A17529   3.395   0.614   6.436 -0.6550  0.5910 -0.0759
  158SAPE  H12B17530   3.240   0.629   6.502  0.1326  0.5968 -0.1116
  158SAPE   C1117531   3.299   0.420   6.491 -0.5978 -0.0790  0.2454
  158SAPE  H11A17532   3.393   0.362   6.506 -0.5662  0.4094  2.2044
  158SAPE  H11B17533   3.260   0.408   6.388  1.0464  1.9413 -0.6969
  158SAPE     P17534   3.141   0.235   6.599 -0.2078  0.1387 -0.1898
  158SAPE   O1317535   3.243   0.131   6.585  0.3978  0.2507  0.2797
  158SAPE   O1417536   3.054   0.235   6.717 -0.4143  0.1062 -0.0151
  158SAPE   O1217537   3.206   0.383   6.591 -0.3449 -0.5806  0.2468
  158SAPE   O1117538   3.036   0.224   6.479 -0.4963 -0.3095 -0.5275
  158SAPE    C117539   2.948   0.336   6.450 -0.1504  0.1488  0.2350
  158SAPE    HA17540   2.906   0.378   6.544  1.2872 -1.7522  1.8132
  158SAPE    HB17541   3.014   0.414   6.407 -0.8525  1.4809  1.5035
  158SAPE    C217542   2.828   0.305   6.362 -0.4074 -0.4124  0.8031
  158SAPE    HS17543   2.769   0.233   6.423  0.8601 -1.5371  0.7338
  158SAPE   O2117544   2.872   0.258   6.235 -0.6087 -0.3244  0.1807
  158SAPE   C2117545   2.796   0.159   6.191 -0.7570  0.2824 -0.1434
  158SAPE   O2217546   2.693   0.120   6.240 -0.6047 -0.3398 -0.2763
  158SAPE   C2217547   2.842   0.123   6.049 -0.4799 -0.1171 -0.4919
  158SAPE   H2R17548   2.924   0.191   6.020 -1.3192  1.1118 -0.0909
  158SAPE   H2S17549   2.879   0.019   6.041 -0.0578 -0.0715  0.7191
  158SAPE    C317550   2.736   0.430   6.354  0.9007 -0.1530  0.3691
  158SAPE    HX17551   2.782   0.517   6.302  2.6426 -0.1444  1.8088
  158SAPE    HY17552   2.702   0.468   6.453 -0.8413 -2.8835  0.9117
  158SAPE   O3117553   2.614   0.411   6.275  0.2316  0.0674  0.2494
  158SAPE   C3117554   2.508   0.376   6.350  0.6934  1.2387  0.2301
  158SAPE   O3217555   2.512   0.342   6.467 -0.1027 -0.7637  0.4862
  158SAPE   C3217556   2.376   0.373   6.274 -0.1991 -0.6237 -0.4091
  158SAPE   H2X17557   2.302   0.453   6.293  0.0768 -0.7314  1.2211
  158SAPE   H2Y17558   2.336   0.281   6.321 -1.5193  0.8589  1.5288
  158SAPE   C2317559   2.723   0.141   5.949  0.4356  0.1360  0.0872
  158SAPE   H3R17560   2.668   0.237   5.956  1.4039  0.5459  3.6308
  158SAPE   H3S17561   2.655   0.062   5.986 -0.1119 -0.4126 -1.9500
  158SAPE   C2417562   2.750   0.113   5.800 -1.0693 -0.1670  0.4022
  158SAPE   H4R17563   2.827   0.182   5.758  1.9387 -1.9150  2.5943
  158SAPE   H4S17564   2.660   0.113   5.735 -1.3831 -3.0975  0.7099
  158SAPE   C2517565   2.825  -0.021   5.776 -0.4557 -0.6660 -0.1535
  158SAPE   H5R17566   2.832  -0.091   5.861 -0.0477 -1.5472 -0.9035
  158SAPE   C2617567   2.866  -0.062   5.654  0.1472  0.4185 -0.1204
  158SAPE   H6R17568   2.922  -0.156   5.652 -0.5313 -0.0322  1.1615
  158SAPE   C2717569   2.857   0.014   5.522 -0.2187 -0.7737 -0.1494
  158SAPE   H7R17570   2.952   0.005   5.465  0.1437  1.0029  0.1323
  158SAPE   H7S17571   2.847   0.123   5.536  2.6697 -0.6337  1.4133
  158SAPE   C2817572   2.737  -0.031   5.439 -0.4687  0.2623 -0.4719
  158SAPE   H8R17573   2.645  -0.034   5.500 -0.6685 -0.7265 -0.8038
  158SAPE   C2917574   2.728  -0.078   5.311 -0.8026  0.4085 -0.2368
  158SAPE   H9R17575   2.632  -0.107   5.264 -1.2746  0.1127  0.8832
  158SAPE  C21017576   2.853  -0.093   5.224  1.0022 -0.3434 -0.0370
  158SAPE  H10R17577   2.938  -0.024   5.246  0.7970 -0.0824 -0.0501
  158SAPE  H10S17578   2.830  -0.064   5.119 -0.7098  0.6953  0.5799
  158SAPE  C21117579   2.903  -0.235   5.227 -0.6454 -0.4905 -0.2411
  158SAPE  H11R17580   2.964  -0.260   5.314  1.2442 -2.1870 -1.9539
  158SAPE  C21217581   2.889  -0.336   5.137  0.1908  0.4738 -0.0835
  158SAPE  H12R17582   2.948  -0.426   5.157  1.9026  1.2941 -1.1709
  158SAPE  C21317583   2.809  -0.341   5.009  0.2555 -0.7977 -0.2053
  158SAPE  H13R17584   2.878  -0.295   4.935 -0.0885  1.4679  0.7938
  158SAPE  H13S17585   2.719  -0.275   5.014  0.6422 -0.3032  0.3749
  158SAPE  C21417586   2.764  -0.480   4.974  0.7849 -0.1672 -0.9187
  158SAPE  H14R17587   2.770  -0.548   5.060 -1.6636 -0.2181 -0.7101
  158SAPE  C21517588   2.732  -0.530   4.853 -0.3745  0.5460 -0.4142
  158SAPE  H15R17589   2.708  -0.637   4.854  0.7327  0.2857  0.9000
  158SAPE  C21617590   2.718  -0.467   4.720 -0.7298 -0.1197 -0.2768
  158SAPE  H16R17591   2.738  -0.359   4.741 -3.5567  0.2978  0.6404
  158SAPE  H16S17592   2.611  -0.469   4.689 -0.6400 -0.0652 -0.5985
  158SAPE  C21717593   2.799  -0.530   4.608  0.8761  0.2426 -0.0120
  158SAPE  H17R17594   2.905  -0.543   4.639  0.0370  0.5684  3.3444
  158SAPE  H17S17595   2.790  -0.462   4.520  1.3305  1.3770  0.7852
  158SAPE  C21817596   2.750  -0.671   4.568 -0.5239  0.4934  0.0252
  158SAPE  H18R17597   2.640  -0.677   4.564 -0.5050 -0.7699  0.8532
  158SAPE  H18S17598   2.788  -0.744   4.642 -0.2377 -0.5108 -1.0713
  158SAPE  C21917599   2.800  -0.710   4.424 -0.9355 -0.2217  0.5129
  158SAPE  H19R17600   2.777  -0.622   4.361  1.9199 -1.0017 -1.8512
  158SAPE  H19S17601   2.748  -0.803   4.389  0.9773 -0.1849 -2.8109
  158SAPE  C22017602   2.956  -0.731   4.428  0.1686 -0.9873  0.1014
  158SAPE  H20R17603   2.999  -0.629   4.438  2.5265 -2.0417  1.9492
  158SAPE  H20S17604   2.996  -0.773   4.334 -0.0667  2.1173 -1.5059
  158SAPE  H20T17605   2.986  -0.773   4.527  0.0756  0.8086  0.9241
  158SAPE   C3317606   2.393   0.371   6.118  0.0160  0.8506  0.3665
  158SAPE   H3X17607   2.489   0.324   6.090 -0.9143 -1.6804  1.1932
  158SAPE   H3Y17608   2.384   0.478   6.088  0.4075  0.5095 -1.0220
  158SAPE   C3417609   2.272   0.302   6.059 -0.2229  0.0210  0.2439
  158SAPE   H4X17610   2.185   0.347   6.111 -0.7500 -2.0151  1.2480
  158SAPE   H4Y17611   2.258   0.194   6.083  0.2097 -0.1230 -0.1495
  158SAPE   C3517612   2.254   0.332   5.910  0.0715  0.1850  1.5613
  158SAPE   H5X17613   2.280   0.440   5.897 -1.3568  0.2242 -2.5127
  158SAPE   H5Y17614   2.150   0.303   5.882  0.7313 -2.0766  1.3065
  158SAPE   C3617615   2.357   0.260   5.819 -0.4062  0.3938  0.0837
  158SAPE   H6X17616   2.353   0.150   5.839  3.0570 -0.3166 -2.2252
  158SAPE   H6Y17617   2.461   0.283   5.849 -0.5883  0.5623  0.5917
  158SAPE   C3717618   2.321   0.279   5.671 -0.3633 -0.4095  0.2092
  158SAPE   H7X17619   2.318   0.387   5.646 -0.7644 -0.6338 -0.7635
  158SAPE   H7Y17620   2.218   0.242   5.650  0.1850 -0.3300 -3.1713
  158SAPE   C3817621   2.403   0.211   5.569 -0.1662 -0.7530  0.3717
  158SAPE   H8X17622   2.405   0.100   5.577  1.8297 -0.6717  1.8431
  158SAPE   H8Y17623   2.508   0.245   5.579 -0.7980  1.0293  1.3242
  158SAPE   C3917624   2.343   0.238   5.430 -0.6737 -0.1971  0.3121
  158SAPE   H9X17625   2.335   0.347   5.410  0.5415  0.0428  1.0090
  158SAPE   H9Y17626   2.240   0.198   5.435 -0.9757  0.5783  0.4040
  158SAPE  C31017627   2.434   0.154   5.331  0.2316 -0.2176  0.2806
  158SAPE  H10X17628   2.462   0.056   5.375  0.9845  0.0939  0.5068
  158SAPE  H10Y17629   2.516   0.225   5.307 -0.9382  0.9110 -0.4654
  158SAPE  C31117630   2.337   0.121   5.216 -0.1175 -0.3844  0.2327
  158SAPE  H11X17631   2.286   0.215   5.187 -2.1317 -1.6447 -0.5689
  158SAPE  H11Y17632   2.262   0.050   5.258 -0.4094  0.4885  1.2202
  158SAPE  C31217633   2.416   0.073   5.093 -0.9553  0.4073 -0.3696
  158SAPE  H12X17634   2.479  -0.016   5.114  1.4751  1.8505 -1.1464
  158SAPE  H12Y17635   2.486   0.155   5.068  2.4379 -1.9647  0.6213
  158SAPE  C31317636   2.333   0.041   4.979  0.3016  0.1922  0.8789
  158SAPE  H13X17637   2.270   0.121   4.936  1.2551 -0.8446 -2.8256
  158SAPE  H13Y17638   2.261  -0.038   5.009  0.6495 -0.7752 -0.7335
  158SAPE  C31417639   2.417  -0.003   4.862  0.7558  0.2663 -0.0979
  158SAPE  H14X17640   2.485  -0.081   4.901  1.7135  0.1840 -1.8322
  158SAPE  H14Y17641   2.479   0.072   4.809 -0.2041  1.1680  0.0157
  158SAPE  C31517642   2.329  -0.067   4.758 -0.3951 -0.5842 -0.7512
  158SAPE  H15X17643   2.278   0.014   4.701 -0.6776 -1.7585 -2.2046
  158SAPE  H15Y17644   2.251  -0.124   4.812  0.1981 -1.3195 -0.6501
  158SAPE  C31617645   2.396  -0.168   4.665 -0.1285  0.0015  0.4537
  158SAPE  H16X17646   2.321  -0.209   4.594 -1.0153  1.6315  0.4107
  158SAPE  H16Y17647   2.433  -0.254   4.724  0.8032  0.7622  1.0012
  158SAPE  C31717648   2.499  -0.105   4.572  0.1998 -0.3224 -0.9175
  158SAPE  H17X17649   2.578  -0.049   4.627  0.0981 -0.4363 -0.6533
  158SAPE  H17Y17650   2.461  -0.027   4.503  0.5612  0.3253 -0.3943
  158SAPE  C31817651   2.575  -0.208   4.482  0.0376 -0.9647  0.3450
  158SAPE  H18X17652   2.502  -0.274   4.430 -1.1210 -1.6184  2.6544
  158SAPE  H18Y17653   2.664  -0.249   4.533  2.2919  2.4597 -0.4932
  158SAPE  H18Z17654   2.628  -0.150   4.403  3.3236 -4.5144 -0.3838
  159SAPE     N17655   5.902   3.478   1.877 -0.2883 -0.0348  0.5730
  159SAPE   HN117656   5.855   3.517   1.793 -0.3296 -3.2973 -1.0635
  159SAPE   HN217657   5.836   3.454   1.954  0.5144 -0.9798  0.9898
  159SAPE   HN317658   5.962   3.553   1.917 -0.1920  0.9942 -1.3939
  159SAPE   C1217659   5.997   3.369   1.845  0.1605  0.1079  0.6402
  159SAPE  H12A17660   6.079   3.413   1.785 -1.1522  0.9233 -0.6180
  159SAPE  H12B17661   5.946   3.294   1.781 -1.2031  0.1300  1.6589
  159SAPE   C1117662   6.057   3.295   1.967  0.0009 -0.4221 -0.1941
  159SAPE  H11A17663   6.115   3.365   2.032 -0.5316  0.2695 -0.4432
  159SAPE  H11B17664   6.133   3.226   1.924 -0.7561 -1.6561  0.3909
  159SAPE     P17665   5.882   3.261   2.159  0.0502 -0.3061 -0.0881
  159SAPE   O1317666   5.831   3.403   2.138  0.7074  0.3584 -0.4295
  159SAPE   O1417667   5.780   3.162   2.195 -0.1578 -0.2111  0.3407
  159SAPE   O1217668   5.953   3.218   2.026  0.3899 -0.1579  0.2665
  159SAPE   O1117669   5.993   3.270   2.270 -0.0178  0.0252  0.4527
  159SAPE    C117670   6.059   3.150   2.308  0.6976  0.0750 -0.1270
  159SAPE    HA17671   5.997   3.108   2.390 -1.6981  2.8636 -0.3464
  159SAPE    HB17672   6.073   3.069   2.233  0.4631  0.1156 -0.2178
  159SAPE    C217673   6.202   3.178   2.364 -0.2058 -0.1593 -0.5455
  159SAPE    HS17674   6.232   3.078   2.403  0.6100  0.4798  0.5095
  159SAPE   O2117675   6.196   3.270   2.480  0.1478  0.1303 -0.0689
  159SAPE   C2117676   6.160   3.199   2.595  0.0431 -0.2113 -0.0759
  159SAPE   O2217677   6.196   3.088   2.628  0.3983  0.1327  0.3948
  159SAPE   C2217678   6.075   3.298   2.682 -0.3405  0.2665 -0.1143
  159SAPE   H2R17679   6.091   3.402   2.645  1.0343  0.4347  0.8518
  159SAPE   H2S17680   5.973   3.263   2.657 -1.7660  4.0539 -0.3732
  159SAPE    C317681   6.306   3.221   2.266  0.3698  0.6772 -0.4086
  159SAPE    HX17682   6.257   3.273   2.181  0.0823  0.6135 -0.2847
  159SAPE    HY17683   6.356   3.133   2.220 -0.6302  0.0453 -0.3252
  159SAPE   O3117684   6.399   3.321   2.315 -0.3476 -0.2482  0.3888
  159SAPE   C3117685   6.511   3.265   2.356 -0.0727  0.6463  0.4604
  159SAPE   O3217686   6.541   3.146   2.345 -0.1834 -0.2340 -0.4578
  159SAPE   C3217687   6.596   3.365   2.422  0.2962 -0.7955 -0.6301
  159SAPE   H2X17688   6.667   3.411   2.350 -1.9739  3.8636 -0.2747
  159SAPE   H2Y17689   6.661   3.309   2.492  0.7201  1.6400  1.0318
  159SAPE   C2317690   6.106   3.282   2.834 -0.0097  0.1472  0.2427
  159SAPE   H3R17691   6.211   3.317   2.843  0.2930  0.1162 -2.3425
  159SAPE   H3S17692   6.111   3.172   2.851  0.7832  0.1535  0.1155
  159SAPE   C2417693   6.008   3.362   2.920 -1.2275  0.7527 -0.0045
  159SAPE   H4R17694   5.910   3.311   2.926 -0.6156 -0.7645 -2.0988
  159SAPE   H4S17695   5.986   3.452   2.858 -1.8163  0.1770 -0.6550
  159SAPE   C2517696   6.060   3.388   3.053 -0.4690 -0.2662 -0.1407
  159SAPE   H5R17697   6.170   3.385   3.060 -0.2369 -1.4726 -2.8613
  159SAPE   C2617698   5.984   3.410   3.167 -0.0648 -0.3091  0.2419
  159SAPE   H6R17699   6.036   3.431   3.261 -0.0102  0.0184  0.1398
  159SAPE   C2717700   5.834   3.427   3.172 -0.0795  0.6752 -0.9766
  159SAPE   H7R17701   5.786   3.341   3.224 -0.1174  0.5065 -1.2879
  159SAPE   H7S17702   5.784   3.437   3.073  0.0124 -2.6170 -1.4420
  159SAPE   C2817703   5.799   3.550   3.250  0.4305 -0.5825  0.7765
  159SAPE   H8R17704   5.858   3.641   3.226  0.1978 -0.2346  1.5033
  159SAPE   C2917705   5.704   3.556   3.349  0.8815  0.0698  1.0978
  159SAPE   H9R17706   5.687   3.656   3.391 -0.3566 -0.2045  1.2835
  159SAPE  C21017707   5.613   3.448   3.399  0.1100 -0.1256  0.6235
  159SAPE  H10R17708   5.650   3.409   3.496  2.2192  0.2237  0.0029
  159SAPE  H10S17709   5.621   3.364   3.326  0.6440  0.1768  0.3287
  159SAPE  C21117710   5.476   3.494   3.436  0.0512 -0.1383 -1.1361
  159SAPE  H11R17711   5.471   3.595   3.480 -0.8492 -1.4417  2.0149
  159SAPE  C21217712   5.358   3.416   3.448 -0.8245 -0.3921 -0.1582
  159SAPE  H12R17713   5.261   3.462   3.472 -1.6272 -1.9325 -0.3331
  159SAPE  C21317714   5.361   3.268   3.419 -0.0171  0.3219  0.0966
  159SAPE  H13R17715   5.297   3.218   3.494  0.6474 -3.2330 -1.5026
  159SAPE  H13S17716   5.462   3.230   3.447 -0.1208  0.0110  0.0478
  159SAPE  C21417717   5.318   3.219   3.285 -0.4444 -0.8166  0.1774
  159SAPE  H14R17718   5.400   3.188   3.218  0.8286 -1.9646  2.1502
  159SAPE  C21517719   5.194   3.191   3.250  0.1162  0.1389 -0.2209
  159SAPE  H15R17720   5.168   3.143   3.154 -2.6593  1.6083 -0.3117
  159SAPE  C21617721   5.062   3.198   3.328  0.7807  0.3979  0.6323
  159SAPE  H16R17722   4.990   3.260   3.270  1.0764  0.0051 -0.1713
  159SAPE  H16S17723   5.089   3.256   3.419  1.7737  3.3872 -1.3974
  159SAPE  C21717724   4.990   3.065   3.368  0.0614 -0.5398 -0.5160
  159SAPE  H17R17725   4.909   3.089   3.440  2.6338  0.8966  2.0873
  159SAPE  H17S17726   5.063   3.008   3.429  1.6871  2.7903  0.9320
  159SAPE  C21817727   4.938   2.986   3.251 -0.3620  0.9981 -0.0255
  159SAPE  H18R17728   5.027   2.963   3.188  2.6752  1.3755  3.7732
  159SAPE  H18S17729   4.870   3.044   3.185 -0.5852  0.7509 -0.0123
  159SAPE  C21917730   4.876   2.854   3.285 -0.0406 -0.8572 -0.2755
  159SAPE  H19R17731   4.950   2.780   3.323  0.5857 -0.1297 -0.0648
  159SAPE  H19S17732   4.842   2.807   3.190  0.8133 -2.4177  0.1493
  159SAPE  C22017733   4.750   2.864   3.384 -0.3316  0.2971  0.4782
  159SAPE  H20R17734   4.805   2.865   3.481  3.2306 -2.7616 -1.2799
  159SAPE  H20S17735   4.694   2.769   3.387  2.1236 -1.2143  2.3511
  159SAPE  H20T17736   4.681   2.950   3.367 -1.2338 -0.6173 -0.6252
  159SAPE   C3317737   6.521   3.467   2.508  0.3115 -0.2513 -0.4628
  159SAPE   H3X17738   6.410   3.472   2.499  0.3760 -0.5653 -1.6372
  159SAPE   H3Y17739   6.549   3.567   2.470 -2.4488  0.5987 -0.4454
  159SAPE   C3417740   6.548   3.479   2.661 -0.5224 -0.7191  0.0274
  159SAPE   H4X17741   6.658   3.474   2.672 -0.4462 -0.4793 -0.5988
  159SAPE   H4Y17742   6.509   3.388   2.711 -1.6334 -0.4582 -0.3171
  159SAPE   C3517743   6.506   3.612   2.723 -0.1672  0.1232 -0.1972
  159SAPE   H5X17744   6.396   3.622   2.720 -0.3970 -1.2021  1.8452
  159SAPE   H5Y17745   6.549   3.706   2.682  1.4916  1.6387  4.4464
  159SAPE   C3617746   6.535   3.618   2.874 -0.4377  0.1835 -0.2711
  159SAPE   H6X17747   6.501   3.718   2.909 -0.9598  0.4218 -1.4134
  159SAPE   H6Y17748   6.645   3.613   2.891 -0.5026  0.5541  0.3086
  159SAPE   C3717749   6.468   3.506   2.955  0.1004 -0.9597 -0.3465
  159SAPE   H7X17750   6.505   3.412   2.910 -2.8883 -1.7248 -1.4383
  159SAPE   H7Y17751   6.359   3.511   2.934 -0.3437  0.5162  1.8831
  159SAPE   C3817752   6.498   3.525   3.100 -0.2200  0.0364 -0.0880
  159SAPE   H8X17753   6.440   3.612   3.138  0.2999  0.1896  0.3601
  159SAPE   H8Y17754   6.605   3.536   3.126 -0.5785  0.9931  1.1045
  159SAPE   C3917755   6.437   3.427   3.206 -0.6104  0.4785  0.1681
  159SAPE   H9X17756   6.494   3.331   3.209 -1.1075  0.2134  2.3179
  159SAPE   H9Y17757   6.333   3.398   3.181 -0.1508 -0.6155 -0.5913
  159SAPE  C31017758   6.429   3.489   3.346  0.1774  0.0258  0.2819
  159SAPE  H10X17759   6.330   3.539   3.354 -0.2106 -0.8066  0.7557
  159SAPE  H10Y17760   6.509   3.566   3.348 -0.4406  0.7113 -0.6534
  159SAPE  C31117761   6.428   3.379   3.453 -0.6045  0.0803  0.5515
  159SAPE  H11X17762   6.510   3.305   3.436 -1.9420 -1.4934  0.6887
  159SAPE  H11Y17763   6.332   3.323   3.456 -0.4629 -0.1312  2.8779
  159SAPE  C31217764   6.444   3.430   3.591  0.6154  0.7840  0.2220
  159SAPE  H12X17765   6.362   3.498   3.623 -1.6221 -2.2043  1.3475
  159SAPE  H12Y17766   6.536   3.489   3.607  1.5844  0.1791 -2.5923
  159SAPE  C31317767   6.435   3.317   3.692 -0.0859  0.2479  0.3044
  159SAPE  H13X17768   6.499   3.235   3.653 -2.7428 -1.5469 -0.5839
  159SAPE  H13Y17769   6.334   3.271   3.689  0.4165 -0.8223 -1.6589
  159SAPE  C31417770   6.483   3.360   3.831 -0.0361  0.4214 -0.0985
  159SAPE  H14X17771   6.408   3.437   3.860  0.1655  1.1027 -1.2788
  159SAPE  H14Y17772   6.583   3.408   3.828  1.4074 -2.2513  1.8132
  159SAPE  C31517773   6.461   3.247   3.932  0.4123  0.4044 -0.1147
  159SAPE  H15X17774   6.508   3.154   3.894  0.7556  0.0839  1.0355
  159SAPE  H15Y17775   6.354   3.242   3.960  0.8542  0.2536  1.6604
  159SAPE  C31617776   6.536   3.271   4.060  0.0071 -0.4090 -0.7163
  159SAPE  H16X17777   6.644   3.267   4.033  0.4454  0.5568  0.7309
  159SAPE  H16Y17778   6.520   3.183   4.126 -0.2292 -0.5165 -0.9184
  159SAPE  C31717779   6.511   3.412   4.118 -0.1792  0.9090  0.1026
  159SAPE  H17X17780   6.400   3.426   4.119 -0.4132 -0.5633 -1.3510
  159SAPE  H17Y17781   6.545   3.489   4.045  3.1155 -0.8931 -0.4508
  159SAPE  C31817782   6.562   3.434   4.261  0.4618  0.3151 -0.3424
  159SAPE  H18X17783   6.666   3.393   4.259 -0.3119 -2.0093  1.8710
  159SAPE  H18Y17784   6.501   3.376   4.333 -1.1010  1.2677 -0.8620
  159SAPE  H18Z17785   6.571   3.538   4.297 -2.6142  0.2030  1.0744
  160SAPE     N17786   5.516   2.530   2.203  0.3296 -0.5047  0.0132
  160SAPE   HN117787   5.609   2.544   2.159  0.2858 -0.2408  0.0038
  160SAPE   HN217788   5.471   2.448   2.157  0.5383 -0.9260  0.5440
  160SAPE   HN317789   5.456   2.612   2.178  0.7836 -0.4949 -1.1094
  160SAPE   C1217790   5.525   2.495   2.347 -0.4161 -0.3658  0.5198
  160SAPE  H12A17791   5.554   2.589   2.398  0.7664  0.5163 -1.6298
  160SAPE  H12B17792   5.606   2.419   2.357  0.8401  1.2166  3.2771
  160SAPE   C1117793   5.404   2.413   2.385  0.3813 -0.4895 -0.4762
  160SAPE  H11A17794   5.413   2.377   2.490  1.9930  0.5672 -0.2159
  160SAPE  H11B17795   5.396   2.317   2.329 -1.0903 -0.4538 -0.3637
  160SAPE     P17796   5.183   2.468   2.257 -0.2494 -0.1463 -0.2478
  160SAPE   O1317797   5.103   2.589   2.247 -0.5446  0.6732 -0.1829
  160SAPE   O1417798   5.265   2.423   2.143  0.5458  0.4257  0.2006
  160SAPE   O1217799   5.291   2.495   2.365  0.5497 -0.0205 -0.2328
  160SAPE   O1117800   5.108   2.338   2.311 -0.0318  0.2724  0.1338
  160SAPE    C117801   4.981   2.298   2.256 -1.1300  0.0476  0.0939
  160SAPE    HA17802   4.900   2.360   2.299  0.5200  0.6947  2.4928
  160SAPE    HB17803   4.985   2.305   2.145 -0.2217 -4.1230 -0.3261
  160SAPE    C217804   4.971   2.153   2.301  0.1542 -0.1569 -0.1115
  160SAPE    HS17805   4.873   2.111   2.270  0.8022 -0.9024 -1.1828
  160SAPE   O2117806   4.976   2.156   2.448 -0.0660  0.7102  0.2073
  160SAPE   C2117807   4.868   2.131   2.517 -0.8456  0.7490 -0.3200
  160SAPE   O2217808   4.757   2.101   2.478 -0.6407 -0.0859  0.5588
  160SAPE   C2217809   4.907   2.119   2.669  0.8677 -0.4620  0.4426
  160SAPE   H2R17810   4.962   2.022   2.674  4.2769  1.3522  1.5048
  160SAPE   H2S17811   4.989   2.192   2.685  1.2831 -0.3689 -1.7281
  160SAPE    C317812   5.083   2.066   2.243  0.9472  0.3370  0.0467
  160SAPE    HX17813   5.185   2.105   2.266  1.3223 -0.3518 -0.4053
  160SAPE    HY17814   5.088   2.064   2.132  2.5190  1.2367  0.0582
  160SAPE   O3117815   5.071   1.929   2.297 -0.0666 -0.0721  0.4214
  160SAPE   C3117816   4.995   1.841   2.229 -1.6101  0.0460 -0.5666
  160SAPE   O3217817   4.922   1.869   2.133  0.0360  0.1671  0.8793
  160SAPE   C3217818   5.000   1.700   2.294 -0.6495  0.9634  0.0793
  160SAPE   H2X17819   5.106   1.668   2.287 -0.2952  2.0056  0.6014
  160SAPE   H2Y17820   4.937   1.631   2.233  1.8633 -2.8713  1.4638
  160SAPE   C2317821   4.782   2.137   2.762  0.1861  0.5297 -0.3587
  160SAPE   H3R17822   4.728   2.040   2.762  0.6634  0.1714 -3.3175
  160SAPE   H3S17823   4.699   2.198   2.718 -0.7226 -0.7972 -0.5390
  160SAPE   C2417824   4.819   2.175   2.907  0.3771 -0.2010 -0.2986
  160SAPE   H4R17825   4.876   2.094   2.957  0.0496  0.2890  0.8942
  160SAPE   H4S17826   4.725   2.191   2.964  0.1983  0.5413 -0.7793
  160SAPE   C2517827   4.893   2.308   2.910 -0.2528 -0.5816 -0.2102
  160SAPE   H5R17828   4.905   2.354   2.811 -0.7907 -1.1586 -0.5488
  160SAPE   C2617829   4.920   2.381   3.019 -0.9350 -0.5354 -0.8286
  160SAPE   H6R17830   4.985   2.469   3.007  0.5098 -1.5322 -0.6399
  160SAPE   C2717831   4.885   2.357   3.169 -0.1289  0.9209 -0.7729
  160SAPE   H7R17832   4.780   2.386   3.193 -0.4216  0.8001 -1.8631
  160SAPE   H7S17833   4.942   2.434   3.226  1.3106  0.1222 -1.0873
  160SAPE   C2817834   4.907   2.218   3.235  0.6335  0.2386 -0.2879
  160SAPE   H8R17835   4.939   2.137   3.168 -0.8298 -0.4592 -0.1797
  160SAPE   C2917836   4.924   2.206   3.363  0.1221  0.1085 -0.6654
  160SAPE   H9R17837   4.933   2.101   3.395  2.2870 -0.8862 -3.9627
  160SAPE  C21017838   4.891   2.308   3.474 -0.2381 -0.1013 -0.3145
  160SAPE  H10R17839   4.960   2.394   3.462 -0.2587 -0.3190 -2.4362
  160SAPE  H10S17840   4.917   2.248   3.563  2.2817  1.6390  0.2353
  160SAPE  C21117841   4.749   2.364   3.479  0.2938 -0.2489 -0.2630
  160SAPE  H11R17842   4.682   2.356   3.393 -2.1435  0.8890  1.4098
  160SAPE  C21217843   4.695   2.427   3.592  0.0019  0.1514  0.2906
  160SAPE  H12R17844   4.589   2.456   3.588 -0.5104 -1.6365  0.3247
  160SAPE  C21317845   4.767   2.438   3.726 -0.3152 -0.2946  0.3860
  160SAPE  H13R17846   4.838   2.356   3.752 -0.2818  0.1519  1.7819
  160SAPE  H13S17847   4.697   2.430   3.812  1.0140  0.6777  1.6209
  160SAPE  C21417848   4.849   2.570   3.735  0.1034 -0.7240 -0.1039
  160SAPE  H14R17849   4.883   2.605   3.636 -0.7723  1.5020  0.3216
  160SAPE  C21517850   4.891   2.631   3.846  0.1047  0.9768  0.2859
  160SAPE  H15R17851   4.950   2.723   3.837  0.6928  0.5381 -0.4012
  160SAPE  C21617852   4.851   2.580   3.985  0.1540 -0.3018 -0.0440
  160SAPE  H16R17853   4.892   2.478   4.003 -0.8907 -0.9929 -1.3756
  160SAPE  H16S17854   4.740   2.568   3.982  0.2313 -1.0046 -0.7245
  160SAPE  C21717855   4.883   2.678   4.097  0.8735 -0.0102  0.5129
  160SAPE  H17R17856   4.822   2.651   4.185 -0.7071 -0.8263 -0.7908
  160SAPE  H17S17857   4.851   2.779   4.063  1.7379  0.0057 -0.2771
  160SAPE  C21817858   5.037   2.679   4.131 -0.4192  0.3777  0.3503
  160SAPE  H18R17859   5.097   2.730   4.052  0.9285 -1.4181  0.1350
  160SAPE  H18S17860   5.083   2.578   4.129  1.1887  1.0825 -0.4788
  160SAPE  C21917861   5.070   2.759   4.257  0.7134  0.3975 -0.3686
  160SAPE  H19R17862   4.993   2.839   4.268 -0.6980 -0.9213 -0.2042
  160SAPE  H19S17863   5.173   2.799   4.254  0.3807  1.2624 -0.8440
  160SAPE  C22017864   5.052   2.677   4.382  0.0975 -0.0859  0.2342
  160SAPE  H20R17865   5.061   2.737   4.476  0.3482  3.9273 -2.1203
  160SAPE  H20S17866   5.132   2.600   4.381  0.4017  0.2328 -0.3564
  160SAPE  H20T17867   4.952   2.629   4.378 -0.1980  0.3664  1.6423
  160SAPE   C3317868   4.946   1.679   2.444  0.3587  1.1013 -0.0230
  160SAPE   H3X17869   4.930   1.575   2.477  0.2695  1.3840  0.8425
  160SAPE   H3Y17870   4.849   1.732   2.453 -0.4758 -0.6447  1.7539
  160SAPE   C3417871   5.053   1.733   2.538  0.3135  0.3317 -0.4769
  160SAPE   H4X17872   5.085   1.837   2.518 -0.1828  0.6585  0.3968
  160SAPE   H4Y17873   5.142   1.666   2.539  0.7708  0.9197  1.3258
  160SAPE   C3517874   4.991   1.732   2.681 -0.3128 -0.1775  0.8226
  160SAPE   H5X17875   4.971   1.624   2.699  0.5894 -0.7655 -1.3716
  160SAPE   H5Y17876   4.897   1.791   2.679 -0.3635 -0.2926 -0.6819
  160SAPE   C3617877   5.077   1.788   2.796  0.5353  0.1118 -0.2996
  160SAPE   H6X17878   5.106   1.895   2.791  1.9177 -0.2759 -1.2206
  160SAPE   H6Y17879   5.171   1.731   2.805 -0.0830 -0.6013  2.3463
  160SAPE   C3717880   4.995   1.786   2.930  0.3179  0.2051  0.4014
  160SAPE   H7X17881   4.961   1.681   2.946 -0.6698  0.3483 -0.6313
  160SAPE   H7Y17882   4.906   1.852   2.925 -1.0208 -1.5253  0.2243
  160SAPE   C3817883   5.081   1.811   3.055  0.3887  0.4391  0.7604
  160SAPE   H8X17884   5.109   1.918   3.068 -0.2753  0.3486  3.8215
  160SAPE   H8Y17885   5.176   1.754   3.053  0.4615  0.5766  0.3542
  160SAPE   C3917886   5.017   1.751   3.177  0.1748  0.2512 -1.0181
  160SAPE   H9X17887   4.992   1.648   3.144  0.4211  0.9698 -3.5946
  160SAPE   H9Y17888   4.920   1.802   3.197  0.8266  1.6771 -1.3566
  160SAPE  C31017889   5.119   1.748   3.291 -0.1075  0.3707  0.2223
  160SAPE  H10X17890   5.139   1.854   3.320 -0.1130  0.9466 -1.7719
  160SAPE  H10Y17891   5.209   1.694   3.253 -1.0891 -2.7543  2.0023
  160SAPE  C31117892   5.071   1.663   3.407 -0.0401 -0.2668 -0.0786
  160SAPE  H11X17893   5.152   1.661   3.483 -0.5485 -1.2093  0.4724
  160SAPE  H11Y17894   5.047   1.556   3.388  2.6416 -1.0451  0.5500
  160SAPE  C31217895   4.944   1.715   3.478 -0.6074 -0.6305 -0.2258
  160SAPE  H12X17896   4.907   1.642   3.553 -0.0399  1.4263  2.1948
  160SAPE  H12Y17897   4.867   1.724   3.398 -2.0849 -1.9293  0.9963
  160SAPE  C31317898   4.958   1.850   3.546 -0.6170  0.4443 -0.2462
  160SAPE  H13X17899   4.984   1.911   3.457 -0.3179 -1.0451 -1.2178
  160SAPE  H13Y17900   5.030   1.845   3.631 -1.8056 -0.8777  0.7371
  160SAPE  C31417901   4.825   1.905   3.597  0.0084 -0.0042  0.5303
  160SAPE  H14X17902   4.743   1.854   3.541  1.1549 -1.7578  0.3679
  160SAPE  H14Y17903   4.814   2.013   3.576  1.0960  0.7277  3.3429
  160SAPE  C31517904   4.795   1.878   3.748 -0.2549 -0.3997 -0.5288
  160SAPE  H15X17905   4.778   1.769   3.756 -0.5446 -0.3220 -0.0403
  160SAPE  H15Y17906   4.703   1.934   3.774 -0.3884 -0.1323 -1.5406
  160SAPE  C31617907   4.911   1.921   3.840 -0.0561 -0.0215  0.4448
  160SAPE  H16X17908   4.953   2.017   3.802 -2.1048  0.2645 -1.2340
  160SAPE  H16Y17909   4.986   1.839   3.844 -0.3870 -0.3514 -0.0181
  160SAPE  C31717910   4.870   1.943   3.981  0.0023  0.0642  0.2615
  160SAPE  H17X17911   4.945   1.897   4.048 -1.8565 -3.3712  0.2388
  160SAPE  H17Y17912   4.778   1.881   3.994  1.1175 -1.8358 -0.5496
  160SAPE  C31817913   4.838   2.086   4.025 -0.0654  0.3487  0.1452
  160SAPE  H18X17914   4.796   2.091   4.127 -3.4891 -0.9487 -1.0497
  160SAPE  H18Y17915   4.746   2.112   3.968  0.3083  2.0679  0.2921
  160SAPE  H18Z17916   4.922   2.157   4.011  1.0616 -0.7033  1.3777
  161SAPE     N17917   4.675   5.483   2.213  0.4452  0.2149  0.5816
  161SAPE   HN117918   4.706   5.566   2.159  1.9322 -0.8931 -0.3769
  161SAPE   HN217919   4.769   5.440   2.228  1.3428  0.6953 -2.7082
  161SAPE   HN317920   4.609   5.424   2.157  1.8495 -0.7119 -0.1768
  161SAPE   C1217921   4.634   5.522   2.351 -0.3151 -0.2546 -0.6267
  161SAPE  H12A17922   4.559   5.604   2.347 -1.0174 -0.8807 -0.4946
  161SAPE  H12B17923   4.721   5.568   2.401 -1.2969 -0.0625  0.9989
  161SAPE   C1117924   4.590   5.402   2.433 -0.7628 -0.5618  0.0704
  161SAPE  H11A17925   4.506   5.351   2.379 -0.7875  2.1503 -2.7260
  161SAPE  H11B17926   4.564   5.441   2.533 -0.8546 -0.2578 -0.0700
  161SAPE     P17927   4.675   5.157   2.472  0.0237 -0.1755 -0.7323
  161SAPE   O1317928   4.560   5.112   2.390 -0.2896 -0.1895 -0.5531
  161SAPE   O1417929   4.801   5.088   2.455  0.2246  0.1852  0.3284
  161SAPE   O1217930   4.696   5.310   2.442 -0.6184  0.2100 -0.6620
  161SAPE   O1117931   4.630   5.159   2.620  0.0554 -0.2737 -0.1143
  161SAPE    C117932   4.711   5.239   2.708 -0.3251 -0.3938  0.0930
  161SAPE    HA17933   4.817   5.207   2.708 -0.8668 -2.2992  0.1710
  161SAPE    HB17934   4.705   5.348   2.686  0.9052 -0.5037 -0.8693
  161SAPE    C217935   4.652   5.220   2.850  0.4303 -0.3907  1.0434
  161SAPE    HS17936   4.657   5.114   2.882  0.5163 -0.9278 -0.6210
  161SAPE   O2117937   4.516   5.263   2.842  0.4953  0.2288 -0.4561
  161SAPE   C2117938   4.424   5.169   2.826  0.3540  0.0921 -0.6625
  161SAPE   O2217939   4.439   5.052   2.848 -0.0452  0.2080  0.4633
  161SAPE   C2217940   4.289   5.232   2.805  0.6375  0.0040 -0.4334
  161SAPE   H2R17941   4.277   5.333   2.848 -1.1098 -0.0012 -0.8509
  161SAPE   H2S17942   4.288   5.237   2.694  0.8927 -1.0278 -0.4931
  161SAPE    C317943   4.732   5.292   2.967 -0.3272  1.0037  0.3813
  161SAPE    HX17944   4.733   5.398   2.934 -1.2256  0.2291 -2.3768
  161SAPE    HY17945   4.835   5.251   2.971 -0.6511 -0.0623 -1.2874
  161SAPE   O3117946   4.663   5.281   3.094  0.0943 -0.3597 -0.0746
  161SAPE   C3117947   4.677   5.168   3.158 -0.3219  0.0679  0.0560
  161SAPE   O3217948   4.731   5.063   3.120 -0.1932 -0.6993  0.0711
  161SAPE   C3217949   4.594   5.182   3.289 -0.4913  0.2750 -0.6469
  161SAPE   H2X17950   4.486   5.198   3.273 -0.7733 -2.0365 -1.5069
  161SAPE   H2Y17951   4.623   5.275   3.342 -0.9431 -1.2250  2.4228
  161SAPE   C2317952   4.170   5.143   2.861  0.0191 -0.5782 -0.3825
  161SAPE   H3R17953   4.202   5.041   2.832 -0.9787 -0.6422 -1.3353
  161SAPE   H3S17954   4.081   5.185   2.810  0.9497  0.8991 -0.8522
  161SAPE   C2417955   4.160   5.152   3.017  0.7865  0.1001 -0.0538
  161SAPE   H4R17956   4.248   5.106   3.066 -1.2264 -0.2688  3.6177
  161SAPE   H4S17957   4.084   5.082   3.057 -0.7787  2.5432  1.5288
  161SAPE   C2517958   4.139   5.285   3.087 -0.1946  0.2170 -0.2301
  161SAPE   H5R17959   4.137   5.380   3.031 -4.2197  0.8518  0.6461
  161SAPE   C2617960   4.140   5.293   3.217 -0.0055  0.8631  0.1855
  161SAPE   H6R17961   4.122   5.394   3.258 -1.4966  1.0044 -0.7392
  161SAPE   C2717962   4.141   5.178   3.316 -0.3822  0.4648  0.0368
  161SAPE   H7R17963   4.242   5.171   3.362  0.8566  2.7323 -2.0851
  161SAPE   H7S17964   4.122   5.080   3.268  1.4328  0.3212 -0.4727
  161SAPE   C2817965   4.035   5.173   3.424  0.0821 -0.1498 -0.2445
  161SAPE   H8R17966   3.978   5.079   3.426 -0.0376 -0.0891 -0.6863
  161SAPE   C2917967   3.999   5.266   3.514 -0.0089  0.9102 -1.0736
  161SAPE   H9R17968   3.918   5.245   3.587 -0.6595  2.1130 -1.4186
  161SAPE  C21017969   4.034   5.411   3.538 -0.5669  0.5177 -0.0323
  161SAPE  H10R17970   4.131   5.426   3.486 -1.0072  1.3723 -0.6293
  161SAPE  H10S17971   4.059   5.426   3.646  0.2931  0.3222 -0.1943
  161SAPE  C21117972   3.942   5.517   3.491  0.4101 -0.2566 -0.2667
  161SAPE  H11R17973   3.900   5.493   3.392 -2.4411 -3.8096  1.5250
  161SAPE  C21217974   3.890   5.620   3.548 -0.0362 -0.3334 -0.2218
  161SAPE  H12R17975   3.836   5.699   3.493 -1.5107 -0.8009  0.4984
  161SAPE  C21317976   3.910   5.669   3.692 -0.9794 -0.6614 -0.0591
  161SAPE  H13R17977   3.870   5.772   3.693  0.9948  0.1558  0.4281
  161SAPE  H13S17978   4.017   5.684   3.720 -0.6595 -0.2146 -1.4750
  161SAPE  C21417979   3.823   5.605   3.797 -0.0933 -0.7551 -0.0520
  161SAPE  H14R17980   3.728   5.568   3.756 -1.8299  3.8411 -0.8510
  161SAPE  C21517981   3.849   5.605   3.931 -0.2762  0.3124 -0.5935
  161SAPE  H15R17982   3.766   5.559   3.986 -2.4426 -0.2934 -4.0313
  161SAPE  C21617983   3.971   5.659   4.001 -0.2560  0.3550 -0.1195
  161SAPE  H16R17984   3.955   5.725   4.089  2.2668  2.2015 -0.9256
  161SAPE  H16S17985   4.027   5.720   3.927  2.4470 -1.5282  0.2255
  161SAPE  C21717986   4.062   5.549   4.053 -0.1392  0.0356 -0.1344
  161SAPE  H17R17987   4.006   5.497   4.134 -2.5976  0.9134 -1.1786
  161SAPE  H17S17988   4.142   5.600   4.111  0.8867 -2.0057  0.3632
  161SAPE  C21817989   4.125   5.461   3.944 -0.1170  0.0823  0.6270
  161SAPE  H18R17990   4.212   5.518   3.904 -0.3374  1.0425  1.4769
  161SAPE  H18S17991   4.056   5.422   3.866 -1.3721  1.2233  1.1267
  161SAPE  C21917992   4.189   5.339   4.004 -1.1800 -0.1546  0.2941
  161SAPE  H19R17993   4.252   5.374   4.088  0.9410  2.5334 -2.2279
  161SAPE  H19S17994   4.262   5.296   3.932  0.9775  0.3676  2.0557
  161SAPE  C22017995   4.085   5.242   4.062 -0.0257 -0.6782  0.1790
  161SAPE  H20R17996   4.013   5.292   4.130 -1.9969  0.8733 -2.7734
  161SAPE  H20S17997   4.125   5.153   4.114  1.4224 -1.4561 -2.1091
  161SAPE  H20T17998   4.041   5.197   3.970  2.0043 -1.0327 -0.6670
  161SAPE   C3317999   4.625   5.064   3.380 -1.1116  1.3568  0.0298
  161SAPE   H3X18000   4.734   5.046   3.396 -1.2245  0.7553  0.1604
  161SAPE   H3Y18001   4.582   4.970   3.339 -2.8333  0.6180  3.2032
  161SAPE   C3418002   4.570   5.068   3.519  0.5061 -0.2741  0.4810
  161SAPE   H4X18003   4.461   5.088   3.522  0.2427 -1.7726  2.3961
  161SAPE   H4Y18004   4.616   5.146   3.584  0.4587  0.6805 -0.6044
  161SAPE   C3518005   4.597   4.937   3.594  0.3373  0.1991 -0.0711
  161SAPE   H5X18006   4.556   4.857   3.529  1.2151 -0.8882  0.6596
  161SAPE   H5Y18007   4.541   4.939   3.690 -1.2137  1.1400 -0.9616
  161SAPE   C3618008   4.744   4.905   3.624  0.2413  0.2488 -0.2552
  161SAPE   H6X18009   4.810   4.992   3.644 -1.2178  0.8688  2.2521
  161SAPE   H6Y18010   4.781   4.867   3.526 -0.8846  0.7875 -0.9008
  161SAPE   C3718011   4.767   4.799   3.736 -0.1245  0.4762  0.6597
  161SAPE   H7X18012   4.720   4.833   3.831 -3.6620 -0.6612 -0.4799
  161SAPE   H7Y18013   4.877   4.794   3.747  0.1809  1.1278 -1.5665
  161SAPE   C3818014   4.699   4.661   3.700  0.4886 -0.8137  0.1542
  161SAPE   H8X18015   4.715   4.628   3.595  1.1404  0.0788 -0.0350
  161SAPE   H8Y18016   4.590   4.681   3.711  0.2093 -0.6154 -2.3291
  161SAPE   C3918017   4.731   4.547   3.801 -0.3588  0.0028  0.9247
  161SAPE   H9X18018   4.661   4.462   3.784  0.2080 -0.0769 -1.4881
  161SAPE   H9Y18019   4.711   4.598   3.897 -1.3913  1.6977 -0.1226
  161SAPE  C31018020   4.873   4.499   3.791 -0.2625 -0.0986 -0.2133
  161SAPE  H10X18021   4.943   4.583   3.806  0.2415 -0.6613  0.6728
  161SAPE  H10Y18022   4.893   4.464   3.687 -0.2454  0.2380 -0.3244
  161SAPE  C31118023   4.888   4.382   3.887 -0.4563  0.0185  0.5742
  161SAPE  H11X18024   4.975   4.322   3.852  0.4866  0.6713  1.6959
  161SAPE  H11Y18025   4.789   4.331   3.886 -0.5425  0.1909 -0.3895
  161SAPE  C31218026   4.918   4.433   4.026 -0.1525 -0.6532 -0.7018
  161SAPE  H12X18027   4.845   4.512   4.054  0.4494 -0.6034  0.8465
  161SAPE  H12Y18028   5.017   4.485   4.028 -1.0837  1.5273  4.2676
  161SAPE  C31318029   4.926   4.321   4.130  0.4810 -0.4733 -0.0371
  161SAPE  H13X18030   4.824   4.281   4.116  0.4152  0.2537 -2.0681
  161SAPE  H13Y18031   4.938   4.368   4.230  0.6012  0.0670 -0.3014
  161SAPE  C31418032   5.034   4.211   4.117  0.1135  0.3948 -0.1124
  161SAPE  H14X18033   5.064   4.212   4.010  0.2942  1.6350 -0.0560
  161SAPE  H14Y18034   4.990   4.113   4.145  0.1796  0.6041  0.7485
  161SAPE  C31518035   5.163   4.243   4.200  0.4227 -0.2084 -0.7395
  161SAPE  H15X18036   5.176   4.353   4.199 -1.8905  0.1322  0.2982
  161SAPE  H15Y18037   5.244   4.189   4.145 -0.1573 -1.5493 -0.3259
  161SAPE  C31618038   5.147   4.182   4.348 -0.0532 -0.4557 -0.6121
  161SAPE  H16X18039   5.115   4.076   4.345 -0.5910 -0.2937 -0.7490
  161SAPE  H16Y18040   5.070   4.234   4.408  0.3165 -3.0937  2.4121
  161SAPE  C31718041   5.274   4.195   4.431  0.0974 -0.2323  0.3826
  161SAPE  H17X18042   5.248   4.209   4.538  0.3477  2.8938  0.1454
  161SAPE  H17Y18043   5.324   4.292   4.407 -1.3801  0.1756 -1.1838
  161SAPE  C31818044   5.377   4.083   4.406 -0.2641  0.1048  0.1720
  161SAPE  H18X18045   5.470   4.111   4.462  0.2264  1.2342 -1.1347
  161SAPE  H18Y18046   5.408   4.084   4.299  2.2414  0.4261  0.8270
  161SAPE  H18Z18047   5.339   3.989   4.451 -1.3715 -0.0927 -1.1143
  162SAPE     N18048   2.314   0.495   1.787  0.7155  0.0328  0.5763
  162SAPE   HN118049   2.392   0.438   1.825  0.2317  0.7149  2.7260
  162SAPE   HN218050   2.273   0.552   1.864 -1.3097  0.7343 -0.9252
  162SAPE   HN318051   2.241   0.430   1.751  0.9549  0.1085 -0.0478
  162SAPE   C1218052   2.370   0.601   1.691 -0.1882 -0.5260 -0.2676
  162SAPE  H12A18053   2.288   0.668   1.657 -0.3723  0.9370  2.6800
  162SAPE  H12B18054   2.414   0.549   1.604  1.6163  2.9631 -1.6677
  162SAPE   C1118055   2.480   0.686   1.759 -1.3393 -0.5834  0.2363
  162SAPE  H11A18056   2.438   0.744   1.844 -0.7261  0.4913 -0.1678
  162SAPE  H11B18057   2.507   0.771   1.692 -0.1278 -0.3187  1.0307
  162SAPE     P18058   2.700   0.677   1.891 -0.3031 -0.1829 -0.0086
  162SAPE   O1318059   2.782   0.571   1.953  0.1326 -0.4052  0.1353
  162SAPE   O1418060   2.773   0.779   1.809  0.3783 -0.2649  0.3672
  162SAPE   O1218061   2.592   0.611   1.800  0.1177  0.1039 -0.1395
  162SAPE   O1118062   2.618   0.743   2.001 -0.0514 -0.0560 -0.3772
  162SAPE    C118063   2.546   0.672   2.103  1.1418 -0.3002  0.0937
  162SAPE    HA18064   2.440   0.705   2.098 -0.4781 -4.0353  3.8612
  162SAPE    HB18065   2.545   0.562   2.086 -0.4563  0.1053 -3.1419
  162SAPE    C218066   2.579   0.710   2.254 -1.1943  0.3553 -0.6020
  162SAPE    HS18067   2.585   0.821   2.256  1.7158  0.2691  1.1194
  162SAPE   O2118068   2.705   0.647   2.299  0.0655  0.0692  0.2243
  162SAPE   C2118069   2.807   0.704   2.250  0.2159 -0.1279 -0.3151
  162SAPE   O2218070   2.812   0.817   2.202  0.1788  0.5394  0.1209
  162SAPE   C2218071   2.926   0.624   2.273  0.2259  0.6811  0.2671
  162SAPE   H2R18072   2.950   0.634   2.381  0.9532  0.5509  0.1207
  162SAPE   H2S18073   2.905   0.521   2.237  1.9123  0.0858  0.8802
  162SAPE    C318074   2.468   0.664   2.352 -0.4706 -0.8737  0.1977
  162SAPE    HX18075   2.470   0.554   2.340  1.1257 -0.7522 -0.9867
  162SAPE    HY18076   2.370   0.707   2.320  1.1662  0.6804 -3.3510
  162SAPE   O3118077   2.497   0.704   2.485 -0.0332 -1.0452  0.3572
  162SAPE   C3118078   2.438   0.634   2.587  0.2677  0.2186  0.0733
  162SAPE   O3218079   2.369   0.535   2.568  0.2018 -0.2266  0.4459
  162SAPE   C3218080   2.476   0.700   2.719 -0.4063 -0.3022  1.1990
  162SAPE   H2X18081   2.578   0.667   2.748  1.7307 -0.4452 -4.8944
  162SAPE   H2Y18082   2.396   0.660   2.785 -0.8991 -1.2931  0.0532
  162SAPE   C2318083   3.047   0.674   2.193 -0.0744 -0.1967  0.3367
  162SAPE   H3R18084   3.014   0.684   2.087  1.2295  0.8480 -0.0013
  162SAPE   H3S18085   3.125   0.597   2.180  1.5947  1.6085 -0.9928
  162SAPE   C2418086   3.112   0.805   2.240 -0.2525 -0.9110  0.5460
  162SAPE   H4R18087   3.063   0.902   2.218  0.4600 -0.3599  1.3360
  162SAPE   H4S18088   3.185   0.823   2.158 -0.8750  2.6387  0.6165
  162SAPE   C2518089   3.176   0.814   2.376  0.0291  0.5312 -0.9629
  162SAPE   H5R18090   3.256   0.739   2.389  0.0367  0.4850 -1.2684
  162SAPE   C2618091   3.135   0.885   2.487  0.2524  0.3877  0.0594
  162SAPE   H6R18092   3.181   0.861   2.584 -2.6077 -0.6858  1.2711
  162SAPE   C2718093   3.025   0.986   2.482 -0.0925  0.5558 -0.7843
  162SAPE   H7R18094   3.015   1.035   2.383 -0.8447 -0.2811 -1.1320
  162SAPE   H7S18095   3.051   1.072   2.548 -0.3172  1.1557 -1.4554
  162SAPE   C2818096   2.890   0.924   2.524 -0.2725  1.0243  0.3506
  162SAPE   H8R18097   2.815   0.905   2.445 -1.5404 -1.6033  2.0482
  162SAPE   C2918098   2.846   0.908   2.649 -0.1829  0.0949 -0.8906
  162SAPE   H9R18099   2.747   0.860   2.656  1.1389 -3.2403 -2.5440
  162SAPE  C21018100   2.922   0.947   2.775 -0.1218 -0.2089 -0.1914
  162SAPE  H10R18101   3.031   0.925   2.769 -0.0681 -0.7426  1.8050
  162SAPE  H10S18102   2.889   0.875   2.853 -1.4473  1.0027  0.4022
  162SAPE  C21118103   2.910   1.089   2.825 -1.0355 -0.5487 -0.6808
  162SAPE  H11R18104   2.890   1.169   2.752 -1.8475  1.0731  1.2473
  162SAPE  C21218105   2.912   1.135   2.958 -0.7009 -0.1222  0.1708
  162SAPE  H12R18106   2.915   1.243   2.982 -1.0203 -0.3142  1.1219
  162SAPE  C21318107   2.932   1.053   3.081  0.3342  0.6598 -0.7011
  162SAPE  H13R18108   2.885   0.954   3.060  1.7094  0.3966 -2.7991
  162SAPE  H13S18109   2.891   1.111   3.166  4.4155 -0.4123  2.2889
  162SAPE  C21418110   3.074   1.028   3.124  0.3140 -0.8740  0.3955
  162SAPE  H14R18111   3.155   1.090   3.083 -0.2928 -1.3650 -1.6485
  162SAPE  C21518112   3.102   0.964   3.238 -0.7059  0.3155 -0.2328
  162SAPE  H15R18113   3.207   0.939   3.260 -1.5662 -1.8923  1.7786
  162SAPE  C21618114   3.014   0.875   3.321  0.2132  0.9308 -0.6121
  162SAPE  H16R18115   3.063   0.777   3.334 -0.6061  0.8982  3.3725
  162SAPE  H16S18116   2.921   0.856   3.263 -0.4592  1.8221  0.1492
  162SAPE  C21718117   2.980   0.932   3.460  0.0266 -0.0396  0.3220
  162SAPE  H17R18118   2.893   0.871   3.491 -0.4590  0.2014 -0.5412
  162SAPE  H17S18119   2.940   1.036   3.462 -0.5351 -0.2526  0.2524
  162SAPE  C21818120   3.098   0.919   3.556  1.0082  0.4618  0.0262
  162SAPE  H18R18121   3.179   0.984   3.515  0.7371  0.5705 -0.3426
  162SAPE  H18S18122   3.135   0.814   3.563  2.3202  0.9255  0.2538
  162SAPE  C21918123   3.040   0.967   3.686  0.2946 -0.2461 -0.5406
  162SAPE  H19R18124   2.979   0.893   3.742  0.8218  1.7084  2.9022
  162SAPE  H19S18125   2.976   1.056   3.667  1.4690  1.3075  2.0819
  162SAPE  C22018126   3.155   1.009   3.778 -0.6006 -0.3873 -1.2436
  162SAPE  H20R18127   3.119   1.064   3.868 -0.0777 -0.6125 -0.8919
  162SAPE  H20S18128   3.226   1.075   3.724 -0.5801  1.2785  0.6843
  162SAPE  H20T18129   3.211   0.920   3.815 -0.4208 -0.1431 -0.9274
  162SAPE   C3318130   2.454   0.853   2.730  0.0018 -0.1582  0.6925
  162SAPE   H3X18131   2.350   0.890   2.740 -0.2603 -1.2129  2.3453
  162SAPE   H3Y18132   2.499   0.897   2.639 -2.0767  0.4213 -0.1191
  162SAPE   C3418133   2.523   0.906   2.851  0.3289 -0.6833  0.1485
  162SAPE   H4X18134   2.549   1.013   2.843  0.3018 -0.5154  1.8613
  162SAPE   H4Y18135   2.623   0.858   2.853 -0.4685 -2.4113  0.2058
  162SAPE   C3518136   2.456   0.876   2.986  1.3312  0.5748  0.1183
  162SAPE   H5X18137   2.427   0.769   2.989  0.4189  0.8317  0.7669
  162SAPE   H5Y18138   2.364   0.937   2.997  1.6507  0.9108  1.0425
  162SAPE   C3618139   2.541   0.904   3.107 -0.0996 -0.0668 -0.2820
  162SAPE   H6X18140   2.563   1.013   3.103 -1.0945  0.1178 -1.3912
  162SAPE   H6Y18141   2.633   0.842   3.109  0.0178  0.1192  0.5654
  162SAPE   C3718142   2.467   0.870   3.234  0.1650  0.1776 -0.2058
  162SAPE   H7X18143   2.410   0.775   3.224 -0.1437  0.4246 -0.8388
  162SAPE   H7Y18144   2.405   0.960   3.254  1.0448  0.1569  3.2827
  162SAPE   C3818145   2.563   0.886   3.353  0.1939  0.2024  0.0139
  162SAPE   H8X18146   2.614   0.985   3.355  0.3622  0.1199 -0.1290
  162SAPE   H8Y18147   2.634   0.800   3.346 -0.2583 -0.2268  0.5781
  162SAPE   C3918148   2.484   0.858   3.488 -0.1707 -0.2129 -0.1974
  162SAPE   H9X18149   2.421   0.767   3.479 -0.6278  0.2596 -2.0669
  162SAPE   H9Y18150   2.416   0.945   3.505 -1.5299 -1.3494  0.3899
  162SAPE  C31018151   2.571   0.834   3.610 -0.7746 -0.2381  0.2178
  162SAPE  H10X18152   2.618   0.931   3.634 -0.3099 -0.0103 -1.5344
  162SAPE  H10Y18153   2.659   0.772   3.580 -0.8980 -0.7986  0.9785
  162SAPE  C31118154   2.508   0.770   3.736  0.0054  0.2071  0.1171
  162SAPE  H11X18155   2.587   0.771   3.814  0.0250  0.2774  0.0965
  162SAPE  H11Y18156   2.482   0.663   3.723  2.3278 -0.1464 -2.4182
  162SAPE  C31218157   2.385   0.846   3.799  0.3096 -0.6185  0.1934
  162SAPE  H12X18158   2.314   0.849   3.714  1.6560  2.4272 -0.9609
  162SAPE  H12Y18159   2.425   0.948   3.817  0.4319 -0.7364  0.6049
  162SAPE  C31318160   2.328   0.787   3.930  0.1547 -0.1825 -0.3612
  162SAPE  H13X18161   2.416   0.740   3.980 -2.0576 -2.4158  1.7521
  162SAPE  H13Y18162   2.256   0.709   3.897 -0.0562 -1.5290  2.8719
  162SAPE  C31418163   2.264   0.894   4.016 -0.3428 -0.2975 -0.4908
  162SAPE  H14X18164   2.164   0.869   4.056 -0.7094  2.3394  0.4619
  162SAPE  H14Y18165   2.244   0.992   3.968 -1.3823 -0.0025  0.5031
  162SAPE  C31518166   2.353   0.926   4.136  0.2579  0.0109 -0.2044
  162SAPE  H15X18167   2.448   0.961   4.090  0.3477  0.7929  0.5505
  162SAPE  H15Y18168   2.374   0.842   4.206  0.8779  1.6741  1.7005
  162SAPE  C31618169   2.302   1.037   4.231  0.0318  0.1099 -0.4870
  162SAPE  H16X18170   2.301   1.131   4.172  0.6298  0.0017 -0.6788
  162SAPE  H16Y18171   2.373   1.052   4.315 -0.0663 -2.1856  0.0692
  162SAPE  C31718172   2.159   1.021   4.279 -0.1765  0.0947 -0.1208
  162SAPE  H17X18173   2.126   0.923   4.318 -0.9957  0.1111 -0.7538
  162SAPE  H17Y18174   2.095   1.020   4.188 -0.4477  0.5611  0.0634
  162SAPE  C31818175   2.115   1.126   4.385  0.6828 -0.6007 -0.1418
  162SAPE  H18X18176   2.009   1.117   4.416  0.7897  0.5997  0.6121
  162SAPE  H18Y18177   2.135   1.232   4.361  0.0881 -0.1142  1.4031
  162SAPE  H18Z18178   2.172   1.102   4.478 -1.7922 -0.4893  1.4998
  163SAPE     N18179   3.825   6.625   2.219  0.0267  0.1319  0.7665
  163SAPE   HN118180   3.875   6.716   2.223  0.0168  0.3261 -1.7586
  163SAPE   HN218181   3.890   6.553   2.182  0.6404  1.1628 -0.2260
  163SAPE   HN318182   3.748   6.637   2.150  1.3321 -0.8146 -0.9442
  163SAPE   C1218183   3.750   6.581   2.341  0.1170  0.5069 -0.4134
  163SAPE  H12A18184   3.812   6.505   2.394 -2.0729 -0.3374  1.0956
  163SAPE  H12B18185   3.661   6.524   2.306  1.4710 -0.9989 -1.5832
  163SAPE   C1118186   3.702   6.697   2.421  0.3321  0.2665  0.1850
  163SAPE  H11A18187   3.781   6.768   2.454 -0.5596  0.8628  1.1041
  163SAPE  H11B18188   3.651   6.652   2.509 -0.1101 -1.3976 -0.8937
  163SAPE     P18189   3.614   6.920   2.310  0.1408 -0.0032 -0.1772
  163SAPE   O1318190   3.744   6.954   2.243 -0.8047 -0.1082  0.3563
  163SAPE   O1418191   3.499   6.966   2.244 -0.2136 -0.5231  0.0197
  163SAPE   O1218192   3.600   6.766   2.344  0.0995  0.4481 -0.3517
  163SAPE   O1118193   3.621   6.986   2.454  0.1541  0.3195 -0.0593
  163SAPE    C118194   3.526   6.963   2.560 -0.3461  0.5131  0.1776
  163SAPE    HA18195   3.494   6.856   2.563 -1.8774  0.9656  2.4889
  163SAPE    HB18196   3.566   6.989   2.660 -2.5535  2.0697  0.7325
  163SAPE    C218197   3.399   7.047   2.544 -0.2899  0.5065  0.1672
  163SAPE    HS18198   3.363   7.042   2.439 -0.3697  1.9557  0.1012
  163SAPE   O2118199   3.433   7.181   2.564 -0.0289  0.1369  0.0697
  163SAPE   C2118200   3.342   7.276   2.536 -0.0791  0.7340  0.0901
  163SAPE   O2218201   3.237   7.263   2.472 -0.3624  1.0024 -0.4093
  163SAPE   C2218202   3.389   7.412   2.576  0.1105  0.7181  0.6748
  163SAPE   H2R18203   3.496   7.409   2.605 -0.0995  0.5719  1.4708
  163SAPE   H2S18204   3.381   7.474   2.484  0.1398 -0.6518 -0.2991
  163SAPE    C318205   3.286   7.004   2.638  0.4929 -0.0113  0.1277
  163SAPE    HX18206   3.271   6.897   2.616  0.3386  0.4279 -2.1923
  163SAPE    HY18207   3.195   7.057   2.601  0.6962  1.4071  1.5181
  163SAPE   O3118208   3.306   7.034   2.778  0.0562  0.4746 -0.2363
  163SAPE   C3118209   3.365   6.942   2.854 -0.0947  0.1749  0.3718
  163SAPE   O3218210   3.412   6.837   2.815  0.6222 -0.4641  0.6071
  163SAPE   C3218211   3.346   6.970   3.000 -0.7261  0.4308 -0.8277
  163SAPE   H2X18212   3.246   7.017   3.011  0.2798  2.0038  3.2996
  163SAPE   H2Y18213   3.411   7.055   3.030 -0.8039  0.6065 -1.1571
  163SAPE   C2318214   3.300   7.471   2.684  0.4917  0.6008 -0.5276
  163SAPE   H3R18215   3.193   7.480   2.655  0.7054  1.9472 -0.9368
  163SAPE   H3S18216   3.330   7.577   2.695  0.5850  0.5667 -0.4548
  163SAPE   C2418217   3.310   7.400   2.830 -0.4081  0.3488  0.1423
  163SAPE   H4R18218   3.417   7.395   2.857 -0.0722 -2.6961 -1.4083
  163SAPE   H4S18219   3.271   7.299   2.806  0.5035  0.4284 -1.9046
  163SAPE   C2518220   3.224   7.466   2.932  0.4429 -0.0594 -0.0624
  163SAPE   H5R18221   3.152   7.537   2.888  1.9927  1.9121  0.4565
  163SAPE   C2618222   3.231   7.459   3.066  0.3153 -0.5950 -0.0989
  163SAPE   H6R18223   3.162   7.526   3.118  1.2377  1.0246 -0.8994
  163SAPE   C2718224   3.318   7.370   3.154 -0.1519 -0.5868 -0.0947
  163SAPE   H7R18225   3.388   7.312   3.090 -0.6726  0.0961 -1.3336
  163SAPE   H7S18226   3.248   7.304   3.209  0.6048 -0.6120  0.8559
  163SAPE   C2818227   3.395   7.463   3.248  0.2561  0.6261  0.0978
  163SAPE   H8R18228   3.428   7.559   3.206 -1.3231  1.1245 -0.0641
  163SAPE   C2918229   3.421   7.440   3.374 -1.1380 -0.2584 -0.0408
  163SAPE   H9R18230   3.486   7.509   3.430  1.6549 -3.1064  0.4751
  163SAPE  C21018231   3.373   7.314   3.447  0.6488  0.0439 -0.2610
  163SAPE  H10R18232   3.409   7.225   3.391  0.0119 -0.1878 -0.3167
  163SAPE  H10S18233   3.263   7.322   3.464  0.8734 -0.4776  1.6489
  163SAPE  C21118234   3.428   7.307   3.587 -0.3423  0.2166 -0.4004
  163SAPE  H11R18235   3.521   7.248   3.588 -1.5109 -1.7441  1.8107
  163SAPE  C21218236   3.391   7.367   3.703 -0.5896  0.3463 -0.0431
  163SAPE  H12R18237   3.444   7.350   3.798 -0.7079  3.1130  0.6094
  163SAPE  C21318238   3.276   7.459   3.727  0.2557  0.6425  0.1098
  163SAPE  H13R18239   3.259   7.506   3.628  0.9947 -1.7734 -1.2536
  163SAPE  H13S18240   3.306   7.538   3.799 -0.9180  0.2623  1.0512
  163SAPE  C21418241   3.157   7.386   3.781  0.5159 -0.0207 -0.4242
  163SAPE  H14R18242   3.122   7.293   3.734  0.2536 -0.4845  0.6688
  163SAPE  C21518243   3.092   7.415   3.896 -0.1501  0.0303  0.0981
  163SAPE  H15R18244   3.007   7.354   3.929  0.2063  0.4223  1.8464
  163SAPE  C21618245   3.123   7.534   3.988 -0.4620 -0.1622  0.3318
  163SAPE  H16R18246   3.108   7.631   3.936 -0.1873 -0.0861  0.3904
  163SAPE  H16S18247   3.221   7.523   4.039  1.1870 -1.8373 -2.8815
  163SAPE  C21718248   3.014   7.550   4.098  0.7638 -0.2811 -0.8554
  163SAPE  H17R18249   2.999   7.450   4.145 -1.7281 -0.7102 -2.3753
  163SAPE  H17S18250   2.911   7.568   4.060  1.1366 -2.2780 -3.0683
  163SAPE  C21818251   3.048   7.636   4.220 -0.3214  0.2317  0.0256
  163SAPE  H18R18252   3.140   7.596   4.267  0.2079  0.6347 -0.6529
  163SAPE  H18S18253   2.959   7.645   4.286 -0.4239 -1.4386  0.1742
  163SAPE  C21918254   3.087   7.785   4.188  0.1709 -0.3312  0.3596
  163SAPE  H19R18255   3.000   7.815   4.125  0.8490 -1.6929 -1.2875
  163SAPE  H19S18256   3.170   7.792   4.114 -0.5315 -1.4216 -0.5673
  163SAPE  C22018257   3.095   7.863   4.320 -0.1750 -0.8754  0.0030
  163SAPE  H20R18258   3.009   7.850   4.389  1.1264 -1.0423  1.6379
  163SAPE  H20S18259   3.102   7.971   4.295  0.4311 -0.9219 -0.0435
  163SAPE  H20T18260   3.189   7.830   4.370  0.9896 -0.9899 -2.1297
  163SAPE   C3318261   3.357   6.852   3.093  0.2881 -0.2017  0.4791
  163SAPE   H3X18262   3.464   6.838   3.118  0.7649  2.2246  0.0509
  163SAPE   H3Y18263   3.316   6.756   3.053 -0.9442  0.1460  0.8450
  163SAPE   C3418264   3.282   6.876   3.228  0.1182  0.9292  0.3008
  163SAPE   H4X18265   3.218   6.789   3.251  0.2058  0.3727 -1.3865
  163SAPE   H4Y18266   3.215   6.964   3.223 -0.1006  0.7575  0.2115
  163SAPE   C3518267   3.386   6.892   3.343 -0.0294 -0.1233  0.0516
  163SAPE   H5X18268   3.407   7.001   3.333 -1.0493  0.0004 -0.9693
  163SAPE   H5Y18269   3.478   6.831   3.331 -0.6965 -1.7005  2.2365
  163SAPE   C3618270   3.330   6.879   3.483  0.2263  0.1146  0.2100
  163SAPE   H6X18271   3.309   6.771   3.500  0.4640 -0.4377 -2.4923
  163SAPE   H6Y18272   3.236   6.935   3.503  0.5697  0.2347  1.5405
  163SAPE   C3718273   3.446   6.918   3.572  0.5864 -0.4648  0.0600
  163SAPE   H7X18274   3.472   7.025   3.555  1.1976 -0.6142  0.0421
  163SAPE   H7Y18275   3.534   6.863   3.533 -0.0430  0.5828 -3.2052
  163SAPE   C3818276   3.412   6.888   3.723  0.1532  0.3140 -0.1137
  163SAPE   H8X18277   3.503   6.850   3.773  1.2031  1.6993 -0.8821
  163SAPE   H8Y18278   3.333   6.810   3.722 -0.2800  0.7473  0.1186
  163SAPE   C3918279   3.365   7.011   3.803  0.0224 -0.6136  0.1392
  163SAPE   H9X18280   3.278   7.065   3.762 -0.5817 -0.9423  0.9751
  163SAPE   H9Y18281   3.441   7.091   3.795 -0.7462  0.0139 -1.2589
  163SAPE  C31018282   3.332   6.969   3.950  0.0753 -0.3700  0.3226
  163SAPE  H10X18283   3.422   6.925   3.999  1.3602  2.4253  0.6404
  163SAPE  H10Y18284   3.254   6.891   3.934 -0.2440  0.5156 -3.0278
  163SAPE  C31118285   3.269   7.087   4.029 -0.4884  0.4877  0.5182
  163SAPE  H11X18286   3.164   7.091   3.995 -0.4262  1.4314  0.4278
  163SAPE  H11Y18287   3.317   7.184   4.004 -1.8428  0.8358 -0.8776
  163SAPE  C31218288   3.271   7.079   4.184  0.9543  0.2686  0.4088
  163SAPE  H12X18289   3.372   7.106   4.221  1.5054  0.0778 -0.8812
  163SAPE  H12Y18290   3.250   6.971   4.202 -0.5039  0.2807 -0.9848
  163SAPE  C31318291   3.170   7.169   4.255  0.4587 -0.1132 -0.1224
  163SAPE  H13X18292   3.077   7.149   4.198  1.6767 -2.6986 -1.3894
  163SAPE  H13Y18293   3.190   7.274   4.223 -1.7619  0.8199  1.3790
  163SAPE  C31418294   3.169   7.166   4.407 -0.4846 -0.3430  0.9679
  163SAPE  H14X18295   3.269   7.149   4.453 -0.3318 -1.4488  0.2744
  163SAPE  H14Y18296   3.110   7.076   4.435  0.5686 -1.2204  0.4966
  163SAPE  C31518297   3.089   7.288   4.457 -0.0831  0.5479  0.0698
  163SAPE  H15X18298   2.986   7.282   4.417 -0.2522 -1.3810  0.6747
  163SAPE  H15Y18299   3.129   7.391   4.444 -1.3487  1.4308  2.4569
  163SAPE  C31618300   3.065   7.308   4.609  0.1566 -0.1129 -0.0415
  163SAPE  H16X18301   3.171   7.327   4.636  0.4892 -0.7017 -0.8747
  163SAPE  H16Y18302   3.035   7.219   4.668  0.2194  0.0666  0.2607
  163SAPE  C31718303   2.976   7.436   4.641  0.0636  0.4133 -0.8607
  163SAPE  H17X18304   2.877   7.417   4.593 -0.6866 -1.0115  1.1140
  163SAPE  H17Y18305   3.017   7.527   4.593 -0.6332  0.4188 -1.4659
  163SAPE  C31818306   2.958   7.453   4.795 -0.3694  0.2613 -0.0192
  163SAPE  H18X18307   2.941   7.358   4.851  1.6792 -1.2226 -1.7644
  163SAPE  H18Y18308   2.871   7.519   4.817 -1.6527 -2.0247  2.4936
  163SAPE  H18Z18309   3.053   7.496   4.832  0.8318  0.7103 -3.3316
  164SAPE     N18310   6.334   5.041   1.704 -0.0351 -0.1849 -0.4579
  164SAPE   HN118311   6.425   5.067   1.746  0.0790  1.3626 -1.5738
  164SAPE   HN218312   6.280   4.980   1.769  0.4233  1.3527  1.4474
  164SAPE   HN318313   6.359   5.001   1.611 -0.7474 -1.6977 -0.0278
  164SAPE   C1218314   6.282   5.180   1.702 -0.3120 -0.0810 -0.5702
  164SAPE  H12A18315   6.251   5.216   1.803 -0.3744  0.1109 -0.6564
  164SAPE  H12B18316   6.186   5.182   1.647 -0.8041  1.3297  0.2567
  164SAPE   C1118317   6.381   5.285   1.645 -0.3781  0.0505 -0.2021
  164SAPE  H11A18318   6.342   5.389   1.646  0.1500  0.2819  1.8047
  164SAPE  H11B18319   6.392   5.252   1.540 -2.6359 -1.7190  0.0356
  164SAPE     P18320   6.543   5.371   1.837 -0.4366 -0.1276 -0.0965
  164SAPE   O1318321   6.628   5.294   1.934  0.1042 -0.1445 -0.0194
  164SAPE   O1418322   6.604   5.499   1.795  0.0509  0.4388 -0.2590
  164SAPE   O1218323   6.502   5.281   1.712 -0.0933  0.1521 -0.3119
  164SAPE   O1118324   6.403   5.394   1.906 -0.4064 -0.4111  0.1549
  164SAPE    C118325   6.369   5.529   1.933 -0.0215  0.4904  0.1368
  164SAPE    HA18326   6.386   5.584   1.837  2.4362  0.0115  0.2479
  164SAPE    HB18327   6.261   5.540   1.960  0.4333  0.6201  1.9882
  164SAPE    C218328   6.453   5.600   2.048  0.3745 -0.0926  0.3029
  164SAPE    HS18329   6.552   5.617   2.000  1.2248  0.0713  2.0426
  164SAPE   O2118330   6.470   5.504   2.158 -0.2444 -0.6432  0.4648
  164SAPE   C2118331   6.570   5.533   2.239 -0.8000 -0.6926 -0.9832
  164SAPE   O2218332   6.668   5.607   2.219  0.2945  0.2252 -0.0235
  164SAPE   C2218333   6.553   5.446   2.371 -0.0245 -0.8421 -0.6999
  164SAPE   H2R18334   6.452   5.462   2.414  0.6076  2.0619 -0.0414
  164SAPE   H2S18335   6.566   5.340   2.343 -0.2767 -0.7058 -1.3374
  164SAPE    C318336   6.396   5.735   2.077 -0.9972 -0.0032  0.4171
  164SAPE    HX18337   6.397   5.808   1.994  1.9820  1.2925  1.4651
  164SAPE    HY18338   6.464   5.785   2.149 -0.6975  2.4296 -1.4167
  164SAPE   O3118339   6.264   5.715   2.123 -0.3192  0.2115  0.1285
  164SAPE   C3118340   6.248   5.708   2.255 -0.0866 -0.6402 -0.2695
  164SAPE   O3218341   6.331   5.744   2.338 -0.1687 -0.0785 -0.3115
  164SAPE   C3218342   6.109   5.643   2.284  0.0253  0.3375 -0.5256
  164SAPE   H2X18343   6.058   5.622   2.187  0.4176 -0.0902 -0.6438
  164SAPE   H2Y18344   6.054   5.731   2.323 -1.0035  0.1752 -1.5733
  164SAPE   C2318345   6.666   5.462   2.479  0.3494 -0.4580 -0.2443
  164SAPE   H3R18346   6.667   5.569   2.508  1.5828  0.5210 -3.4556
  164SAPE   H3S18347   6.763   5.433   2.433  0.2235  1.4004 -1.7824
  164SAPE   C2418348   6.639   5.370   2.599  0.2124 -0.2495  0.6069
  164SAPE   H4R18349   6.724   5.390   2.668  0.9263  2.5766 -0.9327
  164SAPE   H4S18350   6.641   5.261   2.574 -1.6511 -0.8049  2.5968
  164SAPE   C2518351   6.507   5.396   2.676  0.1962 -0.0923  0.0028
  164SAPE   H5R18352   6.427   5.442   2.616  0.1510 -0.9976 -0.6418
  164SAPE   C2618353   6.478   5.365   2.805 -0.0419 -0.0299  0.7638
  164SAPE   H6R18354   6.373   5.378   2.836 -0.1748  1.8218 -0.3152
  164SAPE   C2718355   6.572   5.309   2.909 -0.8486 -0.3583  0.1501
  164SAPE   H7R18356   6.673   5.314   2.863 -1.1336  1.4732 -0.3651
  164SAPE   H7S18357   6.536   5.208   2.936 -1.2119  0.6071  3.7778
  164SAPE   C2818358   6.565   5.392   3.035  0.3156 -0.2624 -0.3175
  164SAPE   H8R18359   6.558   5.501   3.029  2.0608  0.0828  2.4616
  164SAPE   C2918360   6.582   5.345   3.157  0.2318  0.6343 -0.4403
  164SAPE   H9R18361   6.577   5.420   3.236 -1.2363  0.7533 -0.6108
  164SAPE  C21018362   6.592   5.198   3.201 -0.1250  0.3987 -0.5519
  164SAPE  H10R18363   6.601   5.117   3.125  5.4334  0.5838 -0.5202
  164SAPE  H10S18364   6.494   5.186   3.253 -0.8207  0.8097 -1.7281
  164SAPE  C21118365   6.713   5.177   3.284 -0.3469 -0.6660  0.6360
  164SAPE  H11R18366   6.807   5.147   3.236  1.0146  0.9555  2.1772
  164SAPE  C21218367   6.729   5.192   3.413 -0.3872  0.0917  1.1882
  164SAPE  H12R18368   6.830   5.179   3.454 -0.1271  0.0081  0.5365
  164SAPE  C21318369   6.621   5.228   3.515  0.8101  1.1581  0.3323
  164SAPE  H13R18370   6.621   5.142   3.585  1.6202 -0.5968 -1.7244
  164SAPE  H13S18371   6.522   5.231   3.463  1.2649  3.4401 -0.5075
  164SAPE  C21418372   6.630   5.362   3.573 -0.1165 -0.1326  0.0969
  164SAPE  H14R18373   6.645   5.446   3.504  2.7235 -0.9837 -0.4818
  164SAPE  C21518374   6.643   5.378   3.706  0.1089 -0.0417  0.1745
  164SAPE  H15R18375   6.667   5.481   3.737  1.3798 -0.2143 -0.2141
  164SAPE  C21618376   6.642   5.282   3.826 -0.2441  0.1003 -0.2311
  164SAPE  H16R18377   6.629   5.175   3.799 -0.9117 -0.6273  2.6076
  164SAPE  H16S18378   6.549   5.287   3.887 -0.0742  0.1460  0.0309
  164SAPE  C21718379   6.752   5.296   3.933 -0.1380 -0.6865  0.9846
  164SAPE  H17R18380   6.735   5.399   3.971  0.3017  0.9795 -2.8630
  164SAPE  H17S18381   6.851   5.303   3.881 -0.7575 -1.2051 -0.3004
  164SAPE  C21818382   6.754   5.189   4.039  0.1446 -0.1065  0.4740
  164SAPE  H18R18383   6.759   5.090   3.990  1.4009  0.0488  0.2458
  164SAPE  H18S18384   6.658   5.185   4.094  0.9211  0.8789  1.9669
  164SAPE  C21918385   6.870   5.198   4.141 -0.0740  1.3467  0.4160
  164SAPE  H19R18386   6.963   5.184   4.082  0.3820 -0.2127  1.4432
  164SAPE  H19S18387   6.845   5.116   4.212 -0.3451  1.0644  0.0003
  164SAPE  C22018388   6.891   5.330   4.219  0.0663  0.6209 -0.4750
  164SAPE  H20R18389   6.903   5.411   4.144 -2.0467  1.7764  0.3721
  164SAPE  H20S18390   6.973   5.331   4.294 -0.2739 -1.3554 -0.0130
  164SAPE  H20T18391   6.794   5.343   4.271 -0.0281  1.5899 -0.8751
  164SAPE   C3318392   6.099   5.523   2.378 -0.6376 -0.0868 -0.3648
  164SAPE   H3X18393   6.148   5.430   2.341 -0.0572  0.1006 -0.0832
  164SAPE   H3Y18394   5.995   5.491   2.400 -0.4690  0.0996  0.8073
  164SAPE   C3418395   6.146   5.565   2.520  0.0961 -0.5261  0.5366
  164SAPE   H4X18396   6.096   5.662   2.544  0.6955 -0.5271  1.8330
  164SAPE   H4Y18397   6.255   5.585   2.519  0.1363 -0.7426 -0.0085
  164SAPE   C3518398   6.117   5.464   2.630  0.6887  0.2089 -0.0386
  164SAPE   H5X18399   6.188   5.382   2.608  1.0891  0.6609 -0.4624
  164SAPE   H5Y18400   6.009   5.438   2.626  1.2576 -2.3261 -0.2567
  164SAPE   C3618401   6.144   5.521   2.769 -0.4669 -0.0612 -0.4743
  164SAPE   H6X18402   6.085   5.613   2.785 -0.7850 -0.0994 -1.3891
  164SAPE   H6Y18403   6.252   5.549   2.773 -0.0641 -1.4770 -0.4999
  164SAPE   C3718404   6.120   5.425   2.886 -0.2095 -0.0135  0.3539
  164SAPE   H7X18405   6.182   5.334   2.869 -0.5332 -0.1503 -0.1005
  164SAPE   H7Y18406   6.013   5.398   2.898 -0.4813  1.4477  1.6148
  164SAPE   C3818407   6.166   5.483   3.012 -0.2391 -0.3091  0.0863
  164SAPE   H8X18408   6.110   5.574   3.042  0.4258 -0.0648  0.6321
  164SAPE   H8Y18409   6.270   5.518   2.993 -0.6698 -0.1960 -2.3347
  164SAPE   C3918410   6.169   5.368   3.124  0.1258 -0.0492 -0.2229
  164SAPE   H9X18411   6.259   5.310   3.098  1.2946  1.3532  0.5475
  164SAPE   H9Y18412   6.076   5.307   3.111 -1.4716  2.3730 -0.8227
  164SAPE  C31018413   6.190   5.418   3.267  0.1097 -0.4466  1.0988
  164SAPE  H10X18414   6.108   5.484   3.304  0.5322  0.4483  0.4990
  164SAPE  H10Y18415   6.286   5.474   3.274 -0.2154  0.0548  1.6666
  164SAPE  C31118416   6.192   5.301   3.366  0.7476 -0.0513  0.0197
  164SAPE  H11X18417   6.279   5.233   3.350 -1.0978 -2.8604  1.0788
  164SAPE  H11Y18418   6.095   5.248   3.366  0.3556  0.5154  2.8889
  164SAPE  C31218419   6.194   5.337   3.514 -0.6423  0.3326 -0.2491
  164SAPE  H12X18420   6.122   5.415   3.546 -2.4875 -1.0793 -0.8281
  164SAPE  H12Y18421   6.292   5.389   3.527 -1.3672  1.7854 -0.4150
  164SAPE  C31318422   6.187   5.214   3.595  0.5224  0.1343  0.2883
  164SAPE  H13X18423   6.287   5.171   3.576  0.6813  0.3192  0.6925
  164SAPE  H13Y18424   6.101   5.149   3.567  0.2292  1.0966 -1.1353
  164SAPE  C31418425   6.173   5.252   3.742 -0.0062  0.1703  0.2917
  164SAPE  H14X18426   6.067   5.277   3.766  0.0751  1.3306 -0.5038
  164SAPE  H14Y18427   6.237   5.341   3.757  1.6056 -0.8201 -0.4331
  164SAPE  C31518428   6.214   5.142   3.836  0.4858 -0.3260  0.1635
  164SAPE  H15X18429   6.320   5.121   3.811  0.6047  0.4663 -0.0033
  164SAPE  H15Y18430   6.164   5.043   3.820  0.1426  0.1985 -2.4210
  164SAPE  C31618431   6.214   5.175   3.983  1.1303  0.2716 -0.3420
  164SAPE  H16X18432   6.107   5.172   4.013  1.2226 -2.0791 -0.0806
  164SAPE  H16Y18433   6.254   5.277   4.002 -2.1701  1.8669 -1.2921
  164SAPE  C31718434   6.292   5.079   4.077  0.1901 -0.1659 -0.0979
  164SAPE  H17X18435   6.265   5.122   4.176 -1.8467 -2.8023  0.6157
  164SAPE  H17Y18436   6.402   5.086   4.063  0.4462 -0.4183  1.5906
  164SAPE  C31818437   6.250   4.926   4.071 -0.0743  0.1201 -1.2043
  164SAPE  H18X18438   6.140   4.916   4.083  0.0340  1.6633  1.9698
  164SAPE  H18Y18439   6.286   4.887   4.169 -0.6110  2.5721  0.0301
  164SAPE  H18Z18440   6.298   4.872   3.986 -0.6418 -1.8416 -0.3361
  165SAPE     N18441   4.440   5.995   1.781  0.2077 -0.0050  0.1898
  165SAPE   HN118442   4.345   6.009   1.820  0.4999 -0.0027  0.9326
  165SAPE   HN218443   4.447   6.067   1.706 -0.8141  0.3951  0.4652
  165SAPE   HN318444   4.448   5.903   1.734  0.8168 -0.5865  1.3840
  165SAPE   C1218445   4.540   6.025   1.894  0.3166  0.2027  0.1312
  165SAPE  H12A18446   4.634   6.059   1.846  1.2213 -0.5788  1.3151
  165SAPE  H12B18447   4.564   5.934   1.951 -0.8531  0.1712  0.6101
  165SAPE   C1118448   4.490   6.135   1.993  0.4877  0.0060 -0.7615
  165SAPE  H11A18449   4.570   6.185   2.051  0.3506 -0.2420 -0.3564
  165SAPE  H11B18450   4.420   6.077   2.057 -0.5284  0.3251 -1.5565
  165SAPE     P18451   4.343   6.365   1.968  0.3265  0.1028  0.2244
  165SAPE   O1318452   4.394   6.479   1.883 -0.3977  0.0043  0.4585
  165SAPE   O1418453   4.199   6.336   1.965  0.0790  0.2021 -0.2063
  165SAPE   O1218454   4.424   6.236   1.911 -0.3645  0.2445  0.0694
  165SAPE   O1118455   4.397   6.380   2.119 -0.3325  0.1220  0.1350
  165SAPE    C118456   4.521   6.453   2.135  0.0200  0.8735 -0.3565
  165SAPE    HA18457   4.609   6.412   2.081 -0.6654 -0.9392 -0.1713
  165SAPE    HB18458   4.508   6.561   2.113 -2.0896  1.0421  1.4417
  165SAPE    C218459   4.566   6.433   2.280  0.3320 -0.7953  0.2293
  165SAPE    HS18460   4.557   6.323   2.290 -1.4642 -0.6987 -0.0133
  165SAPE   O2118461   4.476   6.512   2.377 -0.1631 -0.4316  0.5444
  165SAPE   C2118462   4.473   6.456   2.496 -0.1691  0.2371 -0.6832
  165SAPE   O2218463   4.527   6.352   2.532  0.2660 -0.4644  0.3625
  165SAPE   C2218464   4.382   6.518   2.601 -0.0154  0.8315 -0.6992
  165SAPE   H2R18465   4.422   6.619   2.624 -1.4032  1.6946 -1.8928
  165SAPE   H2S18466   4.279   6.523   2.560 -0.2390  0.8429 -0.1424
  165SAPE    C318467   4.719   6.451   2.308  0.0437 -0.4156  0.0306
  165SAPE    HX18468   4.768   6.375   2.242 -1.1474 -1.5368  0.4059
  165SAPE    HY18469   4.734   6.416   2.413  0.7980  1.6680  0.6692
  165SAPE   O3118470   4.780   6.581   2.291 -0.4461 -0.5706 -0.1684
  165SAPE   C3118471   4.913   6.585   2.328  0.0283 -0.1155 -0.1761
  165SAPE   O3218472   4.987   6.495   2.362  0.1658  0.3044 -0.4542
  165SAPE   C3218473   4.952   6.741   2.339  0.8028  0.0873  0.3994
  165SAPE   H2X18474   4.917   6.764   2.442 -0.3607  1.0684 -0.1811
  165SAPE   H2Y18475   4.889   6.796   2.265 -1.7816 -0.4412  2.0600
  165SAPE   C2318476   4.377   6.435   2.735  0.7811  0.4069  0.0201
  165SAPE   H3R18477   4.474   6.409   2.784 -0.8676 -2.6006  1.9873
  165SAPE   H3S18478   4.337   6.336   2.703 -1.1081  0.7512  1.1633
  165SAPE   C2418479   4.278   6.489   2.837  0.3031 -0.5332  0.1773
  165SAPE   H4R18480   4.271   6.406   2.911 -0.9033 -0.1793  0.4822
  165SAPE   H4S18481   4.178   6.506   2.790 -0.2974 -2.1278  0.7757
  165SAPE   C2518482   4.322   6.615   2.902 -0.2649 -0.6752 -0.6368
  165SAPE   H5R18483   4.383   6.683   2.839  0.7246  1.3123  2.2436
  165SAPE   C2618484   4.290   6.660   3.027 -0.3019  0.1387 -0.4401
  165SAPE   H6R18485   4.331   6.750   3.074 -3.1677  1.1613  0.2917
  165SAPE   C2718486   4.188   6.603   3.125  0.0474  0.4259 -0.0101
  165SAPE   H7R18487   4.237   6.544   3.205 -0.9589  0.7899  0.8950
  165SAPE   H7S18488   4.128   6.526   3.071 -0.9602  1.5328 -0.5071
  165SAPE   C2818489   4.107   6.713   3.187 -0.6787 -0.1677  0.0545
  165SAPE   H8R18490   4.014   6.739   3.134 -2.7719 -1.2796  2.9313
  165SAPE   C2918491   4.121   6.766   3.309 -0.3059 -0.0255  0.7858
  165SAPE   H9R18492   4.066   6.859   3.330  0.6987  0.4837  1.1982
  165SAPE  C21018493   4.220   6.732   3.417  0.3804  0.8562  0.2873
  165SAPE  H10R18494   4.251   6.626   3.405 -0.1425  0.6537  0.7030
  165SAPE  H10S18495   4.188   6.751   3.522 -0.6296 -0.4099  0.2277
  165SAPE  C21118496   4.353   6.809   3.415  0.1605 -0.4501  0.1367
  165SAPE  H11R18497   4.355   6.908   3.368  1.2897  0.6007  2.2393
  165SAPE  C21218498   4.459   6.758   3.481  0.2877 -0.4608  0.1292
  165SAPE  H12R18499   4.551   6.818   3.478 -0.3382  0.4690 -2.4342
  165SAPE  C21318500   4.474   6.636   3.566 -0.7042  0.0879  0.0944
  165SAPE  H13R18501   4.388   6.569   3.588 -1.3255  0.4930 -1.0180
  165SAPE  H13S18502   4.517   6.674   3.661  0.2901 -0.6883 -0.0177
  165SAPE  C21418503   4.590   6.561   3.494 -0.0352 -0.0895 -0.6453
  165SAPE  H14R18504   4.682   6.619   3.507 -0.2169  0.4540 -1.6652
  165SAPE  C21518505   4.581   6.457   3.411 -0.2679  0.0575  0.9513
  165SAPE  H15R18506   4.674   6.409   3.376  0.1391  1.9509 -0.7847
  165SAPE  C21618507   4.457   6.380   3.380  0.4574 -0.1535  0.1316
  165SAPE  H16R18508   4.371   6.440   3.416  0.2589 -0.7846  0.7532
  165SAPE  H16S18509   4.460   6.288   3.444 -1.3513 -0.7234 -0.5457
  165SAPE  C21718510   4.426   6.325   3.241 -0.0444 -0.0512 -0.2250
  165SAPE  H17R18511   4.400   6.408   3.172 -0.3831  0.3565  0.3807
  165SAPE  H17S18512   4.347   6.248   3.230 -1.0086  1.0440 -1.1486
  165SAPE  C21818513   4.552   6.267   3.165  0.4211  0.2614  0.4032
  165SAPE  H18R18514   4.578   6.174   3.220 -1.1607 -0.2685  0.3017
  165SAPE  H18S18515   4.635   6.338   3.185 -0.1598  1.0861 -0.0486
  165SAPE  C21918516   4.525   6.244   3.021 -1.1495  0.4156 -0.2920
  165SAPE  H19R18517   4.488   6.341   2.980 -3.1909 -0.6328 -1.0695
  165SAPE  H19S18518   4.447   6.167   3.003  0.8545 -1.7849 -0.0757
  165SAPE  C22018519   4.657   6.205   2.948  0.8468  0.6059 -0.2663
  165SAPE  H20R18520   4.631   6.172   2.845 -1.8382  0.2013  0.4854
  165SAPE  H20S18521   4.692   6.119   3.008 -2.5731 -0.7756 -0.0335
  165SAPE  H20T18522   4.732   6.286   2.936  2.7293 -1.0707 -0.3178
  165SAPE   C3318523   5.097   6.766   2.308 -0.2902 -0.3779  0.2882
  165SAPE   H3X18524   5.103   6.865   2.257 -1.6981 -1.5676 -2.4181
  165SAPE   H3Y18525   5.118   6.687   2.233 -0.7548 -0.5033  0.2880
  165SAPE   C3418526   5.203   6.750   2.417  0.1509  0.2677 -0.2492
  165SAPE   H4X18527   5.303   6.773   2.373  0.6073 -1.6545 -0.3492
  165SAPE   H4Y18528   5.194   6.643   2.445 -0.2042  0.0158 -1.2687
  165SAPE   C3518529   5.172   6.820   2.553 -0.2288  0.1809  0.4865
  165SAPE   H5X18530   5.075   6.797   2.601 -0.1050  0.4997  0.8974
  165SAPE   H5Y18531   5.163   6.928   2.526 -1.1157 -0.7019 -3.4746
  165SAPE   C3618532   5.282   6.782   2.653  0.0275 -0.1865 -0.0547
  165SAPE   H6X18533   5.381   6.815   2.615  0.2342 -2.4754 -1.7473
  165SAPE   H6Y18534   5.279   6.673   2.673 -1.4561 -0.0818  0.3403
  165SAPE   C3718535   5.254   6.849   2.787 -0.1237 -0.1220  0.2637
  165SAPE   H7X18536   5.158   6.812   2.828  0.2121  0.4270  1.5776
  165SAPE   H7Y18537   5.255   6.956   2.760  2.5377 -0.7569 -2.8092
  165SAPE   C3818538   5.371   6.829   2.887  0.3004 -0.5594  0.7004
  165SAPE   H8X18539   5.466   6.873   2.851  0.0899 -0.7943 -0.1681
  165SAPE   H8Y18540   5.382   6.719   2.901  0.5916 -0.3985  1.9064
  165SAPE   C3918541   5.340   6.899   3.020 -0.6262  0.5251 -1.0834
  165SAPE   H9X18542   5.255   6.843   3.065  0.2442 -0.1995 -0.2926
  165SAPE   H9Y18543   5.301   7.003   3.014 -1.1794  0.4985  1.1170
  165SAPE  C31018544   5.459   6.911   3.116  0.8502 -0.1419  0.2253
  165SAPE  H10X18545   5.515   6.817   3.133  0.5411 -0.3463  0.1133
  165SAPE  H10Y18546   5.408   6.933   3.213 -1.9858 -2.6289 -0.5592
  165SAPE  C31118547   5.552   7.025   3.083 -0.1567  0.1134 -0.4524
  165SAPE  H11X18548   5.502   7.122   3.061  0.1811  0.1524 -1.0576
  165SAPE  H11Y18549   5.597   6.997   2.985  0.8211 -0.0461  0.0266
  165SAPE  C31218550   5.668   7.058   3.182  0.0099  0.1082  0.4323
  165SAPE  H12X18551   5.712   7.151   3.138 -0.8368 -0.0892 -0.8776
  165SAPE  H12Y18552   5.749   6.982   3.182  0.9218  1.0481  0.0376
  165SAPE  C31318553   5.623   7.068   3.327  1.0503  0.1530  0.1976
  165SAPE  H13X18554   5.586   6.969   3.361  1.1829 -0.0043 -0.1181
  165SAPE  H13Y18555   5.542   7.144   3.332 -0.3974 -1.3798  1.8579
  165SAPE  C31418556   5.720   7.107   3.435 -0.8699  0.6106 -0.4155
  165SAPE  H14X18557   5.755   7.212   3.421  2.4451  0.0143  2.2757
  165SAPE  H14Y18558   5.810   7.043   3.422 -1.3392 -0.0181 -0.5915
  165SAPE  C31518559   5.666   7.092   3.578  0.1986  0.0322  0.1166
  165SAPE  H15X18560   5.631   6.989   3.602  0.8649 -0.0977  0.5746
  165SAPE  H15Y18561   5.579   7.157   3.597 -1.1879 -2.0284  1.2108
  165SAPE  C31618562   5.776   7.118   3.688  0.0024  0.0345  0.6980
  165SAPE  H16X18563   5.829   7.214   3.670  3.3132 -1.5190  1.4566
  165SAPE  H16Y18564   5.856   7.042   3.673  1.0218  1.3596 -0.9603
  165SAPE  C31718565   5.720   7.119   3.826 -0.0693  0.0261  0.0692
  165SAPE  H17X18566   5.645   7.037   3.839 -1.5339  1.4221  0.8519
  165SAPE  H17Y18567   5.668   7.213   3.856  1.8073  1.1430 -0.0826
  165SAPE  C31818568   5.836   7.104   3.924  0.1305 -0.4812 -0.5627
  165SAPE  H18X18569   5.796   7.129   4.025 -1.2312  1.5190 -1.5252
  165SAPE  H18Y18570   5.919   7.170   3.892  0.3832 -0.6912 -0.3498
  165SAPE  H18Z18571   5.873   7.000   3.909 -0.6331 -0.7069 -0.9130
  166SAPE     N18572   0.015   6.257   2.073 -0.1800 -0.6774 -0.5454
  166SAPE   HN118573   0.110   6.272   2.033 -0.9554 -2.8980 -3.5501
  166SAPE   HN218574   0.023   6.181   2.143 -0.8199  0.2747  0.6089
  166SAPE   HN318575  -0.039   6.220   1.993 -1.0005 -0.6360 -0.0252
  166SAPE   C1218576  -0.045   6.375   2.147 -0.1037  0.2756 -0.4123
  166SAPE  H12A18577   0.015   6.403   2.237 -1.5247 -0.3969  0.7913
  166SAPE  H12B18578  -0.137   6.334   2.194 -0.2020  0.0769 -0.7713
  166SAPE   C1118579  -0.084   6.501   2.060  0.2919  0.9117 -0.1058
  166SAPE  H11A18580  -0.178   6.544   2.100 -0.4360 -0.7313  0.0432
  166SAPE  H11B18581  -0.097   6.470   1.954  1.9413  3.5567 -1.1706
  166SAPE     P18582   0.017   6.735   2.003  0.1621 -0.7495  0.0815
  166SAPE   O1318583   0.121   6.829   2.061 -0.0436  0.3097  0.2071
  166SAPE   O1418584   0.014   6.730   1.857 -0.0042 -0.4057  0.3042
  166SAPE   O1218585   0.033   6.591   2.071  0.2270  0.3430 -0.4238
  166SAPE   O1118586  -0.132   6.781   2.041 -0.5383  0.3507  0.2060
  166SAPE    C118587  -0.164   6.822   2.169  0.0190 -0.2952 -0.3309
  166SAPE    HA18588  -0.107   6.761   2.241  0.1162  0.5202  0.3013
  166SAPE    HB18589  -0.139   6.930   2.179 -0.2839 -0.0457 -1.8917
  166SAPE    C218590  -0.322   6.816   2.193 -0.4537 -1.1795 -0.2907
  166SAPE    HS18591  -0.357   6.892   2.266 -0.1095 -1.4611  0.1678
  166SAPE   O2118592  -0.358   6.687   2.242  0.1924 -0.1804  0.0771
  166SAPE   C2118593  -0.324   6.668   2.364 -0.0605  0.0431  0.9568
  166SAPE   O2218594  -0.283   6.759   2.438  0.1580 -0.0258  0.1013
  166SAPE   C2218595  -0.345   6.523   2.405 -0.0533 -0.1829  0.0740
  166SAPE   H2R18596  -0.433   6.482   2.353 -1.2552  0.0396  1.8544
  166SAPE   H2S18597  -0.246   6.479   2.378  0.7371  1.6111 -0.1511
  166SAPE    C318598  -0.402   6.857   2.068  0.0899  0.5351  0.4800
  166SAPE    HX18599  -0.365   6.802   1.979  1.3884  2.4387 -0.2053
  166SAPE    HY18600  -0.389   6.965   2.048 -0.1545  0.5069  0.1632
  166SAPE   O3118601  -0.547   6.840   2.090  0.1842  0.1214 -0.4900
  166SAPE   C3118602  -0.592   6.722   2.060 -0.3460 -0.4500  0.5175
  166SAPE   O3218603  -0.527   6.625   2.032  0.3556 -0.0347  0.5078
  166SAPE   C3218604  -0.744   6.725   2.069 -0.4174 -0.1092  0.5513
  166SAPE   H2X18605  -0.781   6.622   2.051 -0.2302 -0.7780  3.4669
  166SAPE   H2Y18606  -0.769   6.797   1.988 -0.0222  0.1601  0.6657
  166SAPE   C2318607  -0.370   6.516   2.552  0.2841  0.5123 -0.0226
  166SAPE   H3R18608  -0.466   6.562   2.585 -0.0639 -0.4735  0.3611
  166SAPE   H3S18609  -0.292   6.573   2.607  0.2548  2.0599 -1.4891
  166SAPE   C2418610  -0.390   6.370   2.605 -0.4417  1.0469 -0.5395
  166SAPE   H4R18611  -0.448   6.306   2.535 -1.0134  1.1406 -0.1588
  166SAPE   H4S18612  -0.428   6.367   2.709 -0.6875 -0.2230 -0.6484
  166SAPE   C2518613  -0.254   6.300   2.617  0.5667  0.0842  0.1926
  166SAPE   H5R18614  -0.218   6.258   2.522 -3.6155 -1.6804 -0.7989
  166SAPE   C2618615  -0.177   6.286   2.733  0.4539  0.4465 -0.5711
  166SAPE   H6R18616  -0.075   6.243   2.731  0.1022 -0.8520  2.7161
  166SAPE   C2718617  -0.209   6.347   2.872  0.7061 -0.3667 -0.2016
  166SAPE   H7R18618  -0.278   6.434   2.868  0.5095 -0.4411  0.9872
  166SAPE   H7S18619  -0.117   6.385   2.921  1.1232 -1.7960  0.1814
  166SAPE   C2818620  -0.279   6.246   2.958  0.5878  0.3848 -0.6229
  166SAPE   H8R18621  -0.377   6.211   2.921  0.3857  1.2874 -0.9610
  166SAPE   C2918622  -0.236   6.191   3.074 -0.7975  0.3751  0.1784
  166SAPE   H9R18623  -0.301   6.117   3.124 -4.9091  3.5314  0.0533
  166SAPE  C21018624  -0.114   6.234   3.154 -0.0081  0.9612  0.4782
  166SAPE  H10R18625  -0.037   6.273   3.085 -1.0318 -1.1382 -1.9983
  166SAPE  H10S18626  -0.070   6.142   3.198  1.3307  1.3067 -0.0993
  166SAPE  C21118627  -0.145   6.354   3.241  0.4932  0.1337 -0.6556
  166SAPE  H11R18628  -0.196   6.434   3.185 -2.3181 -1.9658 -1.2934
  166SAPE  C21218629  -0.114   6.371   3.371  0.7263 -0.2124 -0.3712
  166SAPE  H12R18630  -0.131   6.476   3.402  0.2609  0.6038 -3.0849
  166SAPE  C21318631  -0.049   6.277   3.463  0.4394  0.5262  0.0974
  166SAPE  H13R18632   0.007   6.330   3.543 -0.7605  0.7723  0.7864
  166SAPE  H13S18633   0.034   6.234   3.402 -0.7065 -0.3714 -0.8751
  166SAPE  C21418634  -0.149   6.169   3.512  0.2484 -0.0699 -0.2478
  166SAPE  H14R18635  -0.206   6.122   3.431 -0.2695  1.0990 -0.5859
  166SAPE  C21518636  -0.167   6.139   3.642 -0.1365 -0.8429 -0.1144
  166SAPE  H15R18637  -0.246   6.066   3.668 -2.0234  0.4684 -1.8722
  166SAPE  C21618638  -0.103   6.206   3.762 -0.3473 -0.3617  0.0259
  166SAPE  H16R18639  -0.008   6.253   3.727 -0.4359 -1.3832 -1.6734
  166SAPE  H16S18640  -0.061   6.114   3.810  1.9128 -1.0566 -2.9893
  166SAPE  C21718641  -0.181   6.300   3.846  0.5415  0.7255 -0.3894
  166SAPE  H17R18642  -0.279   6.254   3.869 -0.2760  1.6332 -1.9101
  166SAPE  H17S18643  -0.204   6.388   3.783 -2.2757 -1.2235 -2.3300
  166SAPE  C21818644  -0.112   6.326   3.983  0.8610  0.0540 -0.0353
  166SAPE  H18R18645  -0.013   6.365   3.951  1.2697 -0.3687  0.6846
  166SAPE  H18S18646  -0.098   6.229   4.034 -0.3756  0.3721  0.9624
  166SAPE  C21918647  -0.175   6.433   4.077 -0.2040 -0.0416  0.3877
  166SAPE  H19R18648  -0.216   6.518   4.019  0.3070 -0.7929 -1.1333
  166SAPE  H19S18649  -0.091   6.475   4.136  2.1282  0.4081 -3.0032
  166SAPE  C22018650  -0.294   6.381   4.164 -0.4185  0.3613 -1.0179
  166SAPE  H20R18651  -0.378   6.378   4.091  0.4542  1.6539 -2.1414
  166SAPE  H20S18652  -0.330   6.445   4.247 -0.7813  0.4697 -1.2576
  166SAPE  H20T18653  -0.275   6.284   4.213  0.7803  2.5824  3.3962
  166SAPE   C3318654  -0.797   6.755   2.207 -0.4860  0.5023 -0.3346
  166SAPE   H3X18655  -0.907   6.763   2.188 -0.3624  2.2664 -0.4030
  166SAPE   H3Y18656  -0.762   6.848   2.255  0.0644  0.0222  0.2012
  166SAPE   C3418657  -0.778   6.639   2.307 -0.2246  0.3931 -0.6860
  166SAPE   H4X18658  -0.703   6.558   2.290 -2.5185 -1.7650 -1.2447
  166SAPE   H4Y18659  -0.870   6.577   2.302  0.0853 -0.4113  1.9664
  166SAPE   C3518660  -0.757   6.690   2.454  0.1917  0.1551 -0.6305
  166SAPE   H5X18661  -0.829   6.770   2.481  1.3559  0.5012  1.6211
  166SAPE   H5Y18662  -0.666   6.754   2.455  0.1752  0.1741 -0.1153
  166SAPE   C3618663  -0.761   6.574   2.558 -0.5986 -0.9001 -0.2496
  166SAPE   H6X18664  -0.669   6.517   2.533 -0.8236 -1.6650  0.5965
  166SAPE   H6Y18665  -0.853   6.516   2.531 -1.2929  0.5078 -1.0151
  166SAPE   C3718666  -0.755   6.624   2.705 -0.6121  0.2497 -0.0518
  166SAPE   H7X18667  -0.849   6.683   2.715 -0.3507  0.3367  2.8938
  166SAPE   H7Y18668  -0.664   6.688   2.708  0.4121 -1.1884  0.9749
  166SAPE   C3818669  -0.753   6.513   2.806 -0.5022  0.0044 -0.3092
  166SAPE   H8X18670  -0.678   6.440   2.769 -1.1537 -0.2488 -1.1629
  166SAPE   H8Y18671  -0.848   6.457   2.815  0.0383 -0.5244  3.6791
  166SAPE   C3918672  -0.714   6.570   2.948 -0.4640 -0.0063  0.7512
  166SAPE   H9X18673  -0.775   6.655   2.986 -2.3992 -1.2814  0.6535
  166SAPE   H9Y18674  -0.613   6.615   2.932  0.2290 -1.4972  0.8215
  166SAPE  C31018675  -0.697   6.450   3.045 -0.1973  0.3868 -0.5462
  166SAPE  H10X18676  -0.655   6.359   2.997  2.0982  0.3219  1.3551
  166SAPE  H10Y18677  -0.799   6.414   3.069 -0.9478  1.8703 -1.4099
  166SAPE  C31118678  -0.606   6.482   3.165  1.0647  0.0175 -0.8835
  166SAPE  H11X18679  -0.652   6.573   3.209  0.2697 -0.6231 -0.3604
  166SAPE  H11Y18680  -0.502   6.504   3.135  1.5798  0.3839  1.0514
  166SAPE  C31218681  -0.613   6.378   3.272  0.0418 -0.7124 -0.1541
  166SAPE  H12X18682  -0.541   6.297   3.249 -0.0628 -0.5567 -1.0557
  166SAPE  H12Y18683  -0.715   6.336   3.291  0.7046 -1.8954  0.9118
  166SAPE  C31318684  -0.577   6.439   3.409 -0.5298  0.4292  0.3519
  166SAPE  H13X18685  -0.625   6.538   3.422  2.3146  1.9841 -0.1437
  166SAPE  H13Y18686  -0.468   6.463   3.402 -0.3625 -0.5264 -0.5682
  166SAPE  C31418687  -0.599   6.351   3.531  0.6390 -0.0680 -0.8108
  166SAPE  H14X18688  -0.531   6.264   3.543 -0.2422 -0.8393 -1.3212
  166SAPE  H14Y18689  -0.696   6.299   3.515 -0.2463  0.0910  3.0422
  166SAPE  C31518690  -0.595   6.434   3.666 -0.4716  0.3459 -0.7342
  166SAPE  H15X18691  -0.679   6.506   3.660 -0.3356  0.4033 -2.5506
  166SAPE  H15Y18692  -0.511   6.507   3.659 -0.1521 -0.0191 -0.7467
  166SAPE  C31618693  -0.592   6.350   3.792 -0.7145 -0.6086  0.4577
  166SAPE  H16X18694  -0.551   6.399   3.883  2.0228 -1.2069 -0.3539
  166SAPE  H16Y18695  -0.511   6.278   3.764  0.5458  0.7425  0.4777
  166SAPE  C31718696  -0.715   6.267   3.822 -0.2053  0.1352 -0.8013
  166SAPE  H17X18697  -0.753   6.224   3.727  0.4219 -0.9840 -0.5598
  166SAPE  H17Y18698  -0.793   6.336   3.859  1.3745  1.5061  0.1389
  166SAPE  C31818699  -0.711   6.151   3.924  0.3884  0.3044 -0.4749
  166SAPE  H18X18700  -0.700   6.174   4.032 -2.6858 -0.6646  0.1249
  166SAPE  H18Y18701  -0.628   6.083   3.895  0.0276 -0.4308  0.2004
  166SAPE  H18Z18702  -0.802   6.088   3.925  0.3314  0.3847 -0.6013
  167SAPE     N18703   5.481   4.043   2.198 -0.3141 -0.0112 -0.1513
  167SAPE   HN118704   5.563   4.034   2.262  0.6549  0.9837 -1.2010
  167SAPE   HN218705   5.495   3.970   2.126  2.3233  2.0874 -1.9893
  167SAPE   HN318706   5.485   4.130   2.141  2.1512  0.5092  0.6762
  167SAPE   C1218707   5.352   4.020   2.266  0.2741  0.9549  0.1452
  167SAPE  H12A18708   5.359   3.912   2.287 -0.4242  0.6241 -1.1865
  167SAPE  H12B18709   5.279   4.049   2.187 -1.9425 -1.7655  1.0797
  167SAPE   C1118710   5.339   4.102   2.393 -0.6827 -0.3426 -0.8616
  167SAPE  H11A18711   5.414   4.066   2.467 -3.2499  0.1177  2.1075
  167SAPE  H11B18712   5.240   4.068   2.430 -0.1105  0.0502  1.0942
  167SAPE     P18713   5.236   4.334   2.378  0.4595  0.7064  0.1307
  167SAPE   O1318714   5.271   4.476   2.401  0.2810 -0.0968  0.6267
  167SAPE   O1418715   5.159   4.306   2.253  0.6742  0.1630  0.2651
  167SAPE   O1218716   5.369   4.243   2.375 -0.2054  0.0932  0.0314
  167SAPE   O1118717   5.150   4.277   2.505 -0.0366  0.4929 -0.5975
  167SAPE    C118718   5.207   4.277   2.628  0.0370  0.2077 -0.3314
  167SAPE    HA18719   5.302   4.220   2.618  0.0328 -0.6160  3.1418
  167SAPE    HB18720   5.237   4.381   2.654  0.0632  0.0264  0.3800
  167SAPE    C218721   5.119   4.224   2.742 -0.3078  0.5085  1.0619
  167SAPE    HS18722   5.034   4.172   2.693 -1.5650  1.0726  2.5729
  167SAPE   O2118723   5.076   4.332   2.825  0.0809 -0.4554 -0.4040
  167SAPE   C2118724   4.969   4.318   2.895 -0.2126 -0.8214  0.6393
  167SAPE   O2218725   4.883   4.234   2.873  0.2615 -0.1743 -0.0901
  167SAPE   C2218726   4.971   4.424   3.003 -0.8931 -0.4714  0.4565
  167SAPE   H2R18727   5.069   4.414   3.054  0.4087  1.3254 -1.5195
  167SAPE   H2S18728   4.975   4.518   2.944  4.4174 -1.6245 -1.5744
  167SAPE    C318729   5.199   4.103   2.820  1.0754 -0.0811  0.0197
  167SAPE    HX18730   5.298   4.151   2.830  1.8966 -0.9336 -2.9998
  167SAPE    HY18731   5.218   4.018   2.751 -0.3727  0.7914 -1.5227
  167SAPE   O3118732   5.138   4.059   2.944  0.3845  0.3760  0.3303
  167SAPE   C3118733   5.045   3.962   2.915 -0.3175  0.5521 -0.4540
  167SAPE   O3218734   5.042   3.894   2.815  0.3031 -0.2190 -0.1516
  167SAPE   C3218735   4.967   3.935   3.043 -0.0292 -0.4916 -0.0313
  167SAPE   H2X18736   4.863   3.930   3.003  0.1627 -2.7552 -0.3858
  167SAPE   H2Y18737   4.972   4.028   3.103 -1.2623  0.2845 -1.0835
  167SAPE   C2318738   4.841   4.446   3.089  0.1909 -0.7145  0.2908
  167SAPE   H3R18739   4.759   4.494   3.031  1.8335  2.7100  0.5517
  167SAPE   H3S18740   4.883   4.527   3.153 -0.1561 -0.6156  0.3914
  167SAPE   C2418741   4.790   4.326   3.178  0.4270 -0.5299  0.0786
  167SAPE   H4R18742   4.767   4.248   3.102  0.2396  0.0964 -0.5244
  167SAPE   H4S18743   4.700   4.369   3.227  0.9675 -0.0834  0.6983
  167SAPE   C2518744   4.893   4.277   3.264  0.3735 -0.4298 -0.9107
  167SAPE   H5R18745   4.985   4.254   3.207  1.4447 -0.1775  0.6618
  167SAPE   C2618746   4.899   4.252   3.397  0.4126  0.2194  0.1852
  167SAPE   H6R18747   4.988   4.213   3.449 -0.2421  0.7272  1.7577
  167SAPE   C2718748   4.785   4.271   3.495  0.5483  0.3751  0.3966
  167SAPE   H7R18749   4.745   4.374   3.490  0.0009  0.1222 -0.4871
  167SAPE   H7S18750   4.821   4.259   3.600 -0.8095 -1.1631  0.7189
  167SAPE   C2818751   4.662   4.177   3.477 -1.1140 -0.0388  0.2649
  167SAPE   H8R18752   4.690   4.071   3.469  0.3424  0.3687 -0.4140
  167SAPE   C2918753   4.531   4.210   3.459  0.7794 -0.4767 -0.2643
  167SAPE   H9R18754   4.454   4.132   3.461  1.2890 -1.0345  2.8618
  167SAPE  C21018755   4.468   4.344   3.473  0.1743  0.4379 -0.8768
  167SAPE  H10R18756   4.483   4.398   3.378 -0.7504 -1.9381 -2.4590
  167SAPE  H10S18757   4.536   4.391   3.548 -0.1754  0.3518 -0.5030
  167SAPE  C21118758   4.325   4.353   3.523  0.2666  0.4440 -0.6841
  167SAPE  H11R18759   4.249   4.390   3.453 -1.4298  1.3015  1.4899
  167SAPE  C21218760   4.293   4.336   3.655 -0.2484 -0.3173  0.1600
  167SAPE  H12R18761   4.186   4.338   3.682 -0.5512  2.9401 -0.7614
  167SAPE  C21318762   4.384   4.284   3.758 -0.3483 -0.1176 -0.0968
  167SAPE  H13R18763   4.470   4.354   3.772 -0.7578  0.0826  1.7482
  167SAPE  H13S18764   4.426   4.187   3.726 -0.3677  0.2603 -1.2867
  167SAPE  C21418765   4.306   4.277   3.890  0.2907 -0.4296  0.4333
  167SAPE  H14R18766   4.260   4.180   3.915 -0.6080 -0.3351 -0.8076
  167SAPE  C21518767   4.277   4.379   3.973  0.0317  0.1630 -0.7498
  167SAPE  H15R18768   4.217   4.352   4.061  1.1654  1.8947  0.6255
  167SAPE  C21618769   4.326   4.526   3.974 -0.0455 -0.1088  0.0488
  167SAPE  H16R18770   4.236   4.586   3.950 -0.0543  0.8852  2.3278
  167SAPE  H16S18771   4.404   4.550   3.898 -0.1613  1.0910  0.2861
  167SAPE  C21718772   4.378   4.578   4.109  0.3873  0.1159 -0.0048
  167SAPE  H17R18773   4.414   4.490   4.166  0.6835 -0.7511 -1.4794
  167SAPE  H17S18774   4.296   4.633   4.159 -1.0777 -1.7133 -0.2698
  167SAPE  C21818775   4.491   4.688   4.090  0.1733  0.1822 -0.3148
  167SAPE  H18R18776   4.567   4.637   4.027 -0.2732 -1.9643  0.7773
  167SAPE  H18S18777   4.551   4.714   4.179 -2.0519  2.0330  0.7323
  167SAPE  C21918778   4.444   4.829   4.039 -0.4302 -0.6859  0.3383
  167SAPE  H19R18779   4.357   4.822   3.970  0.3944  1.9175 -1.0984
  167SAPE  H19S18780   4.520   4.868   3.968 -1.2087  0.3365  0.0456
  167SAPE  C22018781   4.422   4.929   4.148  0.2813  0.1468 -0.4887
  167SAPE  H20R18782   4.327   4.904   4.201  0.4937  1.0260  0.3475
  167SAPE  H20S18783   4.409   5.030   4.105 -3.7955  1.4391  3.1317
  167SAPE  H20T18784   4.516   4.941   4.207 -0.0143  0.6892 -0.1143
  167SAPE   C3318785   5.025   3.810   3.117 -0.4615 -0.6825  0.6243
  167SAPE   H3X18786   5.135   3.822   3.116 -0.6245  1.6793  1.9078
  167SAPE   H3Y18787   4.994   3.718   3.063 -2.8414  0.5093 -0.1971
  167SAPE   C3418788   4.978   3.812   3.257  0.2872 -0.1115 -0.3663
  167SAPE   H4X18789   4.872   3.846   3.250  0.6504  0.7449 -4.0006
  167SAPE   H4Y18790   5.032   3.891   3.314  0.2279  2.4924 -3.5862
  167SAPE   C3518791   4.982   3.673   3.337 -0.5283 -0.6421 -0.6017
  167SAPE   H5X18792   5.089   3.650   3.351 -0.1509  1.5586  0.6094
  167SAPE   H5Y18793   4.925   3.595   3.283 -1.2110 -1.6889  1.4965
  167SAPE   C3618794   4.926   3.684   3.482 -0.0576 -0.2341 -0.0278
  167SAPE   H6X18795   4.832   3.625   3.480 -1.3113  1.6348  1.0993
  167SAPE   H6Y18796   4.904   3.793   3.485 -0.5401 -0.3533  0.8429
  167SAPE   C3718797   5.011   3.653   3.600  0.0052 -1.1581 -0.8386
  167SAPE   H7X18798   5.092   3.729   3.612 -2.1052  1.2459 -0.8085
  167SAPE   H7Y18799   5.049   3.552   3.576  0.7094 -0.4700 -2.8924
  167SAPE   C3818800   4.925   3.652   3.735 -1.1936  0.3475  0.0871
  167SAPE   H8X18801   4.825   3.606   3.722 -0.6382 -0.5927 -0.9936
  167SAPE   H8Y18802   4.900   3.755   3.769  0.7966  0.6793  0.6636
  167SAPE   C3918803   4.999   3.574   3.846  0.6928  0.3101 -0.0849
  167SAPE   H9X18804   5.092   3.626   3.879  0.7635 -1.3508  2.6659
  167SAPE   H9Y18805   5.035   3.482   3.795  2.1875  0.4058  0.7292
  167SAPE  C31018806   4.917   3.528   3.962 -0.0403  0.2349 -0.2948
  167SAPE  H10X18807   4.961   3.438   4.009  1.4400  0.9372 -0.2750
  167SAPE  H10Y18808   4.814   3.499   3.932 -0.0772  1.5317 -1.5120
  167SAPE  C31118809   4.887   3.638   4.070 -0.2866 -0.5806 -0.1087
  167SAPE  H11X18810   4.858   3.735   4.023 -0.7586  0.0525  1.4304
  167SAPE  H11Y18811   4.984   3.644   4.124 -1.3423 -0.3493  1.8325
  167SAPE  C31218812   4.775   3.588   4.165 -0.1609 -0.4925  0.1078
  167SAPE  H12X18813   4.820   3.498   4.213 -0.9590 -0.9642 -0.0123
  167SAPE  H12Y18814   4.684   3.564   4.106  0.2017  0.0458 -0.6753
  167SAPE  C31318815   4.726   3.684   4.276 -0.0076 -0.0242  0.4122
  167SAPE  H13X18816   4.802   3.702   4.356  0.1277 -3.1450  1.1063
  167SAPE  H13Y18817   4.629   3.649   4.318 -0.1245 -0.0861  0.0912
  167SAPE  C31418818   4.695   3.829   4.232 -0.0536  0.2668  0.1645
  167SAPE  H14X18819   4.792   3.866   4.194  1.1804  0.2371  3.0751
  167SAPE  H14Y18820   4.670   3.874   4.330 -0.1232 -0.9613  0.7272
  167SAPE  C31518821   4.576   3.840   4.129 -0.2882 -0.4653 -0.8820
  167SAPE  H15X18822   4.486   3.794   4.175  0.3408 -0.6118  0.2262
  167SAPE  H15Y18823   4.600   3.790   4.033  4.3337  0.3785 -0.3995
  167SAPE  C31618824   4.541   3.980   4.085  0.0820 -0.1049  0.0105
  167SAPE  H16X18825   4.511   4.042   4.173  1.7934  1.5912 -0.5397
  167SAPE  H16Y18826   4.446   3.985   4.027 -0.3429 -0.8426  0.6156
  167SAPE  C31718827   4.651   4.056   4.014  0.0885  0.3997  0.1119
  167SAPE  H17X18828   4.730   4.062   4.091 -1.3402 -1.4838  1.8515
  167SAPE  H17Y18829   4.623   4.159   3.984 -0.7729 -0.4621 -2.2852
  167SAPE  C31818830   4.711   3.990   3.890 -0.1345 -0.2300 -0.3833
  167SAPE  H18X18831   4.637   3.915   3.856  1.0232 -0.3604 -2.8701
  167SAPE  H18Y18832   4.802   3.930   3.911 -0.9081 -1.9762 -1.7295
  167SAPE  H18Z18833   4.721   4.071   3.815 -2.1434  1.9381  1.5248
  168SAPE     N18834   3.695   6.203   1.931 -0.0958 -0.4181  0.0856
  168SAPE   HN118835   3.760   6.123   1.947  1.1061  0.4967 -0.1667
  168SAPE   HN218836   3.599   6.162   1.939 -0.4678  0.6994  1.9177
  168SAPE   HN318837   3.710   6.230   1.832  2.4569 -0.9404  0.2754
  168SAPE   C1218838   3.686   6.302   2.036  0.0380  0.0268 -0.4934
  168SAPE  H12A18839   3.650   6.399   1.995  2.7614  0.7774 -1.3255
  168SAPE  H12B18840   3.791   6.327   2.063 -0.4235 -0.6986  2.2653
  168SAPE   C1118841   3.600   6.261   2.150  0.3081  0.0744  0.2701
  168SAPE  H11A18842   3.499   6.229   2.117  0.0045 -0.7603  1.9164
  168SAPE  H11B18843   3.569   6.340   2.222 -2.2318 -1.4625  0.9812
  168SAPE     P18844   3.743   6.170   2.343  0.1162  0.1033  0.1770
  168SAPE   O1318845   3.774   6.042   2.407  0.5664 -0.2805 -0.0301
  168SAPE   O1418846   3.859   6.250   2.300 -0.2032 -0.1907 -0.2014
  168SAPE   O1218847   3.652   6.142   2.218 -0.3249 -0.0044  0.5732
  168SAPE   O1118848   3.645   6.256   2.439 -0.5302 -0.3996 -0.1382
  168SAPE    C118849   3.670   6.295   2.576 -0.0182 -0.8745  0.1537
  168SAPE    HA18850   3.774   6.271   2.606  0.6604  1.9146  0.3400
  168SAPE    HB18851   3.666   6.406   2.585 -2.1856 -0.7932 -1.1599
  168SAPE    C218852   3.562   6.231   2.671 -0.1251 -0.6385  0.4671
  168SAPE    HS18853   3.569   6.121   2.657 -0.5031 -0.5467 -0.4996
  168SAPE   O2118854   3.439   6.301   2.633  0.2262 -0.0512  0.3018
  168SAPE   C2118855   3.376   6.233   2.543 -0.1227 -0.4443  0.1766
  168SAPE   O2218856   3.395   6.120   2.504 -0.3035 -0.5766 -0.1209
  168SAPE   C2218857   3.259   6.316   2.496 -0.1171  0.4486 -0.8281
  168SAPE   H2R18858   3.295   6.418   2.472  0.2656  0.2611 -1.0699
  168SAPE   H2S18859   3.226   6.271   2.400 -0.4449 -1.2420  0.0310
  168SAPE    C318860   3.594   6.262   2.818 -0.2893 -0.5190  0.6203
  168SAPE    HX18861   3.619   6.370   2.824  0.7275 -0.7356  0.4442
  168SAPE    HY18862   3.679   6.199   2.851  1.2589  0.9754 -0.3348
  168SAPE   O3118863   3.477   6.237   2.897  0.0529 -0.1751 -0.5939
  168SAPE   C3118864   3.412   6.344   2.937 -0.1842  0.1823 -0.4478
  168SAPE   O3218865   3.448   6.462   2.936 -0.1696  0.0016 -0.6364
  168SAPE   C3218866   3.288   6.296   3.005  0.9356 -0.2860  1.1124
  168SAPE   H2X18867   3.316   6.242   3.098 -1.9680  0.5671  2.6127
  168SAPE   H2Y18868   3.232   6.237   2.929 -1.3284  2.7243  0.2178
  168SAPE   C2318869   3.147   6.321   2.611 -0.6177  0.4557  0.1275
  168SAPE   H3R18870   3.060   6.380   2.574  0.8166  1.4368 -1.8677
  168SAPE   H3S18871   3.181   6.371   2.704 -1.0319 -0.4414  0.7722
  168SAPE   C2418872   3.104   6.186   2.668  0.3350 -0.5471  0.3735
  168SAPE   H4R18873   3.021   6.223   2.732 -1.0056  1.7940 -2.4606
  168SAPE   H4S18874   3.186   6.144   2.730  2.7438 -0.8533 -2.7432
  168SAPE   C2518875   3.065   6.082   2.569  0.6458 -0.7444  0.7554
  168SAPE   H5R18876   3.095   6.082   2.463 -1.0910  2.0166  0.1465
  168SAPE   C2618877   2.963   5.998   2.600 -0.6825 -0.3087 -0.1186
  168SAPE   H6R18878   2.936   5.929   2.518  0.8786 -1.0996 -0.0192
  168SAPE   C2718879   2.880   5.959   2.720  0.0837  0.7210 -0.0246
  168SAPE   H7R18880   2.777   5.959   2.680  1.0347  1.0462 -2.6701
  168SAPE   H7S18881   2.890   6.039   2.797  1.7646 -0.0083  0.5850
  168SAPE   C2818882   2.921   5.824   2.781  0.0028  0.4180 -0.0218
  168SAPE   H8R18883   2.937   5.753   2.699 -0.9005  1.3002 -1.0193
  168SAPE   C2918884   2.902   5.779   2.909 -0.2338 -0.4200 -0.0873
  168SAPE   H9R18885   2.945   5.681   2.938 -1.6891 -1.6250 -1.8025
  168SAPE  C21018886   2.860   5.857   3.030  0.5772 -0.2501  0.9187
  168SAPE  H10R18887   2.811   5.949   2.991  3.6873  0.9454 -0.5057
  168SAPE  H10S18888   2.952   5.894   3.080  0.2480  1.4017  0.3709
  168SAPE  C21118889   2.776   5.781   3.130  0.7216  0.1109 -0.1507
  168SAPE  H11R18890   2.734   5.685   3.096  1.4943 -0.0369 -0.7267
  168SAPE  C21218891   2.768   5.830   3.254 -1.0946  0.1168 -0.1946
  168SAPE  H12R18892   2.709   5.775   3.329 -0.7013 -1.0882 -0.7487
  168SAPE  C21318893   2.819   5.964   3.308 -0.5917  0.2177  0.3349
  168SAPE  H13R18894   2.804   6.042   3.231  0.2356 -0.6843 -0.7872
  168SAPE  H13S18895   2.929   5.949   3.316 -0.4788 -1.7724 -2.9729
  168SAPE  C21418896   2.763   6.034   3.428 -0.6654 -0.6251  0.6004
  168SAPE  H14R18897   2.718   6.128   3.393  0.2278 -0.3428  0.1776
  168SAPE  C21518898   2.748   6.003   3.558 -0.0392  0.4439  0.5050
  168SAPE  H15R18899   2.705   6.072   3.632  2.1727  0.2731  2.0536
  168SAPE  C21618900   2.807   5.885   3.620 -0.1586  1.0108 -0.3708
  168SAPE  H16R18901   2.875   5.906   3.704 -0.2455  0.4252 -0.1478
  168SAPE  H16S18902   2.873   5.834   3.546 -0.4237 -2.9662  1.8421
  168SAPE  C21718903   2.714   5.768   3.655  0.3338 -0.1588 -0.3713
  168SAPE  H17R18904   2.772   5.680   3.691  0.5190 -0.3680 -1.1592
  168SAPE  H17S18905   2.654   5.744   3.565 -0.7369  0.2691  0.2144
  168SAPE  C21818906   2.621   5.786   3.779  0.5669  0.2811 -0.0595
  168SAPE  H18R18907   2.584   5.685   3.806  0.9196  0.1030 -0.2424
  168SAPE  H18S18908   2.537   5.854   3.754 -0.4645 -0.8196  0.3343
  168SAPE  C21918909   2.690   5.850   3.902 -0.0278 -0.4414  0.0972
  168SAPE  H19R18910   2.630   5.876   3.992  2.6471  2.1471  1.2975
  168SAPE  H19S18911   2.724   5.953   3.878  0.1101 -0.6222 -0.4801
  168SAPE  C22018912   2.808   5.773   3.945  0.1094  1.0359 -0.3729
  168SAPE  H20R18913   2.858   5.829   4.027  0.6890  2.0112 -1.3747
  168SAPE  H20S18914   2.881   5.766   3.862  0.1999  0.6931 -0.2692
  168SAPE  H20T18915   2.792   5.668   3.978  0.5070  0.2815 -2.4392
  168SAPE   C3318916   3.179   6.407   3.031 -0.1291 -0.3201 -0.5202
  168SAPE   H3X18917   3.076   6.365   3.041 -1.1175  2.1206  0.3336
  168SAPE   H3Y18918   3.174   6.486   2.954  0.1771  0.2052 -0.0112
  168SAPE   C3418919   3.199   6.482   3.164  0.5362  0.6687  0.2600
  168SAPE   H4X18920   3.108   6.542   3.187  2.0625  3.5189 -0.6036
  168SAPE   H4Y18921   3.290   6.544   3.152  0.8814  0.2044  0.4289
  168SAPE   C3518922   3.209   6.393   3.293  0.5482  0.3296 -0.2233
  168SAPE   H5X18923   3.298   6.327   3.294 -0.7480 -1.5231  0.4550
  168SAPE   H5Y18924   3.118   6.329   3.288 -0.2728  1.5133 -1.1506
  168SAPE   C3618925   3.202   6.488   3.419 -0.1933  0.3697  0.2253
  168SAPE   H6X18926   3.103   6.533   3.440 -0.5864 -0.0456 -0.7133
  168SAPE   H6Y18927   3.276   6.568   3.401  0.0707  0.7008  2.4888
  168SAPE   C3718928   3.250   6.407   3.540  0.0357  0.0739  0.0557
  168SAPE   H7X18929   3.341   6.344   3.524 -1.7579 -2.0575 -2.6672
  168SAPE   H7Y18930   3.169   6.334   3.561 -0.2838  0.6669  0.9226
  168SAPE   C3818931   3.284   6.497   3.660  0.1970  0.2305 -0.0739
  168SAPE   H8X18932   3.215   6.584   3.660 -0.0592  0.0373 -0.6791
  168SAPE   H8Y18933   3.387   6.537   3.651  0.1558  0.7753  1.6209
  168SAPE   C3918934   3.281   6.419   3.790  0.4695  0.2579 -0.2635
  168SAPE   H9X18935   3.345   6.328   3.797 -0.6473 -0.4192  3.0767
  168SAPE   H9Y18936   3.179   6.376   3.799  0.5919 -0.3574 -1.4938
  168SAPE  C31018937   3.310   6.502   3.916  0.1428  0.2237  0.1104
  168SAPE  H10X18938   3.252   6.597   3.919  1.1863  0.8897 -0.1949
  168SAPE  H10Y18939   3.416   6.537   3.921  0.3595 -0.5411  1.3842
  168SAPE  C31118940   3.290   6.426   4.052  0.2773 -0.6372 -0.3974
  168SAPE  H11X18941   3.353   6.334   4.046  1.0601 -0.3090  1.8823
  168SAPE  H11Y18942   3.186   6.394   4.071 -0.7555  2.7419  0.3119
  168SAPE  C31218943   3.327   6.522   4.176 -0.3476  0.8174 -0.0493
  168SAPE  H12X18944   3.241   6.570   4.229  0.2087  1.6000  0.1588
  168SAPE  H12Y18945   3.400   6.594   4.134 -0.3994  0.9791  0.1372
  168SAPE  C31318946   3.396   6.449   4.291 -0.6691  0.2328 -0.5492
  168SAPE  H13X18947   3.333   6.366   4.329  1.6389 -0.8049  1.2343
  168SAPE  H13Y18948   3.406   6.524   4.372  2.2846 -2.0886  1.4794
  168SAPE  C31418949   3.539   6.396   4.263 -0.0287 -0.2799  0.0734
  168SAPE  H14X18950   3.617   6.475   4.254  1.5143 -1.8476 -0.8603
  168SAPE  H14Y18951   3.521   6.339   4.170 -0.2951 -0.2300  0.0954
  168SAPE  C31518952   3.579   6.291   4.366  0.7757 -0.0621  0.4444
  168SAPE  H15X18953   3.502   6.294   4.446 -0.9398  1.0855 -1.1711
  168SAPE  H15Y18954   3.670   6.324   4.420 -0.4295  2.4601  1.0602
  168SAPE  C31618955   3.605   6.149   4.313  0.1287  0.1815  0.1005
  168SAPE  H16X18956   3.508   6.109   4.277  0.2944 -1.6870  1.5937
  168SAPE  H16Y18957   3.644   6.092   4.400  0.0725  0.8672  0.5840
  168SAPE  C31718958   3.725   6.149   4.211  0.3765  0.3493  0.9470
  168SAPE  H17X18959   3.813   6.188   4.268  0.2447  1.2835  0.5409
  168SAPE  H17Y18960   3.699   6.232   4.141 -1.8134  0.0845  1.3621
  168SAPE  C31818961   3.748   6.011   4.148 -0.5904 -0.5614  0.0369
  168SAPE  H18X18962   3.785   5.942   4.227  1.4257 -0.3192 -0.6316
  168SAPE  H18Y18963   3.832   6.020   4.076  0.3863  0.9210  1.3020
  168SAPE  H18Z18964   3.653   5.975   4.102 -1.6051  1.2113  0.6660
  169SAPE     N18965   0.378   4.409   1.782  0.3056  0.0347 -0.3015
  169SAPE   HN118966   0.410   4.491   1.727  1.8731 -0.2805  0.0878
  169SAPE   HN218967   0.391   4.333   1.713  0.9313 -0.3165  0.1882
  169SAPE   HN318968   0.277   4.406   1.808  0.4443 -3.3714  0.3836
  169SAPE   C1218969   0.472   4.414   1.899  0.4416 -0.0415  0.5189
  169SAPE  H12A18970   0.472   4.314   1.947  1.1538 -1.9599 -3.1290
  169SAPE  H12B18971   0.463   4.500   1.968  1.0745 -0.9971  1.8508
  169SAPE   C1118972   0.618   4.421   1.843  0.1234 -0.0840 -0.6003
  169SAPE  H11A18973   0.625   4.334   1.775 -0.0118 -1.7391  1.3891
  169SAPE  H11B18974   0.691   4.402   1.925 -0.0052 -2.5706 -0.9833
  169SAPE     P18975   0.691   4.683   1.863  0.0886  0.0621  0.2653
  169SAPE   O1318976   0.807   4.744   1.792  0.2388  0.3513  0.1236
  169SAPE   O1418977   0.579   4.778   1.885 -0.0964  0.3779  0.4136
  169SAPE   O1218978   0.636   4.552   1.783  0.1531 -0.6423 -0.9695
  169SAPE   O1118979   0.746   4.627   2.002  0.9102  0.1091 -0.2479
  169SAPE    C118980   0.840   4.698   2.085  0.1322 -0.2193  0.8733
  169SAPE    HA18981   0.832   4.808   2.071 -1.9470 -0.4332 -0.1370
  169SAPE    HB18982   0.836   4.662   2.190 -0.3265  1.3142  1.4247
  169SAPE    C218983   0.988   4.659   2.051  0.1496  0.6978 -0.1120
  169SAPE    HS18984   1.007   4.679   1.944 -1.4259  1.9548 -0.1976
  169SAPE   O2118985   1.005   4.516   2.081 -0.0943 -0.6356  0.3386
  169SAPE   C2118986   0.969   4.431   1.984  0.2874 -0.1537 -0.1821
  169SAPE   O2218987   0.935   4.462   1.873  0.4172 -0.3609  0.5146
  169SAPE   C2218988   0.980   4.294   2.039  0.2393  0.6221 -0.6663
  169SAPE   H2R18989   0.958   4.221   1.958  0.0477 -0.2982  0.2093
  169SAPE   H2S18990   1.083   4.276   2.078 -0.4877 -1.3426  0.4633
  169SAPE    C318991   1.086   4.750   2.131  0.5425  0.2589 -0.1356
  169SAPE    HX18992   1.066   4.848   2.083  5.0446  0.4056 -2.1901
  169SAPE    HY18993   1.185   4.726   2.087  1.7071  2.2884  1.2144
  169SAPE   O3118994   1.056   4.745   2.275 -0.2549 -0.8274 -0.1883
  169SAPE   C3118995   1.127   4.653   2.338 -0.0104  0.0820  0.3203
  169SAPE   O3218996   1.225   4.593   2.297  0.1025  0.1792 -0.1423
  169SAPE   C3218997   1.064   4.637   2.482 -0.4313 -0.3215  0.0237
  169SAPE   H2X18998   1.018   4.538   2.502  0.4339 -0.6868  0.2851
  169SAPE   H2Y18999   0.990   4.718   2.495  1.1327  1.0218  1.1228
  169SAPE   C2319000   0.893   4.252   2.158  0.4302  0.1677  0.1774
  169SAPE   H3R19001   0.890   4.141   2.157  1.2618  0.1399  0.6672
  169SAPE   H3S19002   0.789   4.273   2.125 -0.3966 -0.6250  2.1284
  169SAPE   C2419003   0.944   4.299   2.294 -0.0567  0.3263  0.3243
  169SAPE   H4R19004   0.948   4.410   2.295  0.4857  0.3904 -1.9730
  169SAPE   H4S19005   1.050   4.265   2.296 -0.2138 -0.1752  0.1630
  169SAPE   C2519006   0.852   4.249   2.399 -0.4971  0.1787 -0.2548
  169SAPE   H5R19007   0.753   4.230   2.357  0.2111 -0.3301 -1.7517
  169SAPE   C2619008   0.877   4.193   2.520 -0.4305  0.0280 -0.2017
  169SAPE   H6R19009   0.792   4.155   2.579 -0.4628 -0.8764 -0.8193
  169SAPE   C2719010   1.006   4.207   2.598  0.4242  0.2612  0.3324
  169SAPE   H7R19011   0.986   4.227   2.705 -0.8550  0.8587  0.0025
  169SAPE   H7S19012   1.068   4.290   2.559  0.1245  0.2936 -0.0805
  169SAPE   C2819013   1.087   4.079   2.595 -0.3572 -0.1047  0.6463
  169SAPE   H8R19014   1.062   4.017   2.508 -3.7073 -1.5065  2.4428
  169SAPE   C2919015   1.173   4.026   2.688  1.0462 -0.3604 -0.6911
  169SAPE   H9R19016   1.221   3.933   2.654  1.0133 -0.8832  0.6092
  169SAPE  C21019017   1.205   4.075   2.833 -0.0259 -0.0192  0.0232
  169SAPE  H10R19018   1.149   4.166   2.861 -1.6729 -1.5843  2.1500
  169SAPE  H10S19019   1.312   4.106   2.828  0.7499 -2.3547  0.7984
  169SAPE  C21119020   1.173   3.980   2.946  0.2290 -0.5001  0.1475
  169SAPE  H11R19021   1.111   3.897   2.908 -2.1596  2.0624 -2.0915
  169SAPE  C21219022   1.206   3.987   3.078 -0.1397  0.0882 -0.2522
  169SAPE  H12R19023   1.171   3.918   3.156  1.0368  0.7069  0.8451
  169SAPE  C21319024   1.287   4.109   3.127 -0.3991 -0.3767 -0.3680
  169SAPE  H13R19025   1.235   4.191   3.075 -1.1847 -0.5735  0.0850
  169SAPE  H13S19026   1.393   4.102   3.093 -0.3308  2.1602 -0.8099
  169SAPE  C21419027   1.269   4.117   3.275 -0.3336  0.5542  0.7211
  169SAPE  H14R19028   1.169   4.087   3.307 -0.1944  0.8695  1.4748
  169SAPE  C21519029   1.363   4.168   3.355 -0.4544 -0.4654 -0.7063
  169SAPE  H15R19030   1.336   4.173   3.461 -0.7525  1.4889 -0.8351
  169SAPE  C21619031   1.495   4.234   3.326  0.2634  0.1997 -0.3452
  169SAPE  H16R19032   1.487   4.344   3.343 -1.2357  0.1792 -0.7807
  169SAPE  H16S19033   1.533   4.230   3.221  2.9504 -0.8188  0.5854
  169SAPE  C21719034   1.608   4.184   3.418 -0.3192 -0.0361 -0.1591
  169SAPE  H17R19035   1.706   4.192   3.366  0.3753  1.8924  1.3460
  169SAPE  H17S19036   1.592   4.078   3.447  0.8702 -0.4066 -0.7800
  169SAPE  C21819037   1.621   4.267   3.552  0.1639  0.0265  0.3735
  169SAPE  H18R19038   1.521   4.299   3.589 -0.0745 -2.2358  1.9162
  169SAPE  H18S19039   1.670   4.361   3.518  1.5201 -0.8700 -0.2516
  169SAPE  C21919040   1.717   4.200   3.658  0.5646 -0.0248  0.0037
  169SAPE  H19R19041   1.728   4.274   3.741 -0.2506  0.6083 -0.4331
  169SAPE  H19S19042   1.819   4.193   3.616  0.9975 -0.5737  1.1194
  169SAPE  C22019043   1.677   4.057   3.703 -0.7325 -0.7698 -1.0421
  169SAPE  H20R19044   1.573   4.066   3.742 -0.1398  0.7110  0.3036
  169SAPE  H20S19045   1.741   4.007   3.780 -1.0937  0.7998  0.3296
  169SAPE  H20T19046   1.670   3.991   3.614 -1.8296 -2.3770  0.1505
  169SAPE   C3319047   1.185   4.648   2.584 -0.7478  0.8452 -0.7115
  169SAPE   H3X19048   1.239   4.745   2.581 -0.8855  1.0112  0.9884
  169SAPE   H3Y19049   1.254   4.562   2.566 -2.8390 -0.9702 -0.4756
  169SAPE   C3419050   1.135   4.649   2.731 -0.1540  0.0244 -0.0934
  169SAPE   H4X19051   1.049   4.718   2.743 -0.5195 -0.2650 -1.0288
  169SAPE   H4Y19052   1.219   4.692   2.791  0.9923 -1.8851 -0.2511
  169SAPE   C3519053   1.103   4.510   2.788  0.9556 -0.7300 -0.1937
  169SAPE   H5X19054   1.176   4.439   2.742  1.1562 -0.3503 -0.4598
  169SAPE   H5Y19055   1.001   4.475   2.762  0.3027 -0.2482  1.6070
  169SAPE   C3619056   1.125   4.511   2.946  0.4290 -0.3033  0.4210
  169SAPE   H6X19057   1.213   4.575   2.968  0.4932  0.8616 -2.7775
  169SAPE   H6Y19058   1.157   4.410   2.979 -0.2528 -1.7491 -2.9684
  169SAPE   C3719059   1.004   4.570   3.019 -0.8267  0.1087 -0.1602
  169SAPE   H7X19060   0.922   4.496   3.008 -0.6445  0.0743 -1.4675
  169SAPE   H7Y19061   0.975   4.661   2.962 -2.1155 -1.0215 -1.3832
  169SAPE   C3819062   1.020   4.612   3.165  0.4210  0.3622  0.4614
  169SAPE   H8X19063   0.916   4.644   3.189 -0.4493 -1.0405 -1.1405
  169SAPE   H8Y19064   1.082   4.703   3.177  0.1889  0.6716 -0.5717
  169SAPE   C3919065   1.062   4.497   3.248  0.1342 -0.4459  0.6510
  169SAPE   H9X19066   1.169   4.470   3.239  0.2419 -0.1819  1.1349
  169SAPE   H9Y19067   1.019   4.403   3.206 -0.4436  0.8251 -1.7688
  169SAPE  C31019068   1.041   4.521   3.396  0.1141 -0.7623 -1.0861
  169SAPE  H10X19069   1.013   4.436   3.462 -0.2529 -0.0498 -0.3014
  169SAPE  H10Y19070   0.956   4.591   3.405  1.3850  0.6109  1.1434
  169SAPE  C31119071   1.160   4.581   3.471 -0.6808 -0.0987  0.7254
  169SAPE  H11X19072   1.216   4.626   3.386 -0.0460 -0.2065  1.0795
  169SAPE  H11Y19073   1.226   4.502   3.512 -2.1926 -0.3974  2.7491
  169SAPE  C31219074   1.111   4.669   3.588  0.2425  0.2377 -0.5015
  169SAPE  H12X19075   1.067   4.614   3.674 -2.5597  0.3804 -1.7502
  169SAPE  H12Y19076   1.035   4.739   3.548 -2.8299 -2.3065  0.5045
  169SAPE  C31319077   1.222   4.747   3.655 -0.2586 -0.5092  0.4426
  169SAPE  H13X19078   1.284   4.801   3.581 -2.0585  0.6237 -0.3264
  169SAPE  H13Y19079   1.280   4.680   3.721  0.3675 -0.1509  0.2595
  169SAPE  C31419080   1.169   4.853   3.752  0.0226 -0.8234 -0.1121
  169SAPE  H14X19081   1.098   4.808   3.824  1.4624 -2.1811  0.5189
  169SAPE  H14Y19082   1.114   4.920   3.683  0.5957 -0.7992 -0.5582
  169SAPE  C31519083   1.275   4.919   3.840  0.0712 -0.1063 -0.4440
  169SAPE  H15X19084   1.352   4.963   3.773  0.3303 -0.3617 -0.3157
  169SAPE  H15Y19085   1.332   4.840   3.893 -0.7947 -0.3667  0.1256
  169SAPE  C31619086   1.219   5.033   3.930  0.5471 -0.2616  0.6790
  169SAPE  H16X19087   1.157   4.993   4.013  1.1601 -2.3309  0.1924
  169SAPE  H16Y19088   1.152   5.099   3.870 -0.4049 -0.9681  0.9348
  169SAPE  C31719089   1.326   5.112   4.002 -0.6975 -0.4106  0.2157
  169SAPE  H17X19090   1.390   5.164   3.928  0.5149 -2.9288 -0.6045
  169SAPE  H17Y19091   1.396   5.051   4.062 -1.6019  1.3682  3.3428
  169SAPE  C31819092   1.267   5.202   4.111  0.6301  0.8035 -0.1410
  169SAPE  H18X19093   1.202   5.150   4.185  0.9498 -1.0056 -1.0578
  169SAPE  H18Y19094   1.216   5.284   4.057  0.5354 -1.0099 -2.9829
  169SAPE  H18Z19095   1.347   5.244   4.176  0.5030 -0.8608  1.1622
  170SAPE     N19096   0.867   5.953   1.989 -0.0591 -0.3318 -0.4003
  170SAPE   HN119097   0.782   5.998   2.031  1.7279  1.7586  1.2476
  170SAPE   HN219098   0.899   5.996   1.900 -1.2230 -0.4443 -0.8961
  170SAPE   HN319099   0.827   5.863   1.957  0.0677 -0.1276 -1.1555
  170SAPE   C1219100   0.985   5.939   2.084  0.2486  0.4686 -0.2180
  170SAPE  H12A19101   1.077   5.945   2.021 -1.4823 -0.1326 -2.9964
  170SAPE  H12B19102   0.973   5.842   2.138 -1.1784  0.4422 -0.5363
  170SAPE   C1119103   1.002   6.056   2.177 -0.4086 -1.3966  0.2691
  170SAPE  H11A19104   1.102   6.056   2.225 -0.3848 -0.9233  0.2289
  170SAPE  H11B19105   0.928   6.069   2.258  0.6385  0.8259  0.9637
  170SAPE     P19106   1.092   6.264   2.035 -0.4973 -0.1629  0.7732
  170SAPE   O1319107   1.169   6.176   1.942  0.1560  0.5012 -0.3586
  170SAPE   O1419108   1.028   6.377   1.971  0.3607 -0.7724  0.4744
  170SAPE   O1219109   0.975   6.175   2.101  0.0734  0.1593  0.7587
  170SAPE   O1119110   1.179   6.317   2.161 -0.5950 -0.6454  0.6253
  170SAPE    C119111   1.103   6.369   2.269 -0.0609 -0.1569 -0.3287
  170SAPE    HA19112   1.100   6.480   2.263  0.1396 -0.1954 -1.4932
  170SAPE    HB19113   0.999   6.332   2.271  0.7469 -2.6712 -0.5326
  170SAPE    C219114   1.162   6.337   2.413  0.5969 -0.6904  0.3154
  170SAPE    HS19115   1.223   6.423   2.448 -0.1723 -0.5914  1.4412
  170SAPE   O2119116   1.235   6.217   2.406  0.4359  0.5730 -0.3145
  170SAPE   C2119117   1.361   6.231   2.372  0.5279  0.4079 -0.9003
  170SAPE   O2219118   1.430   6.329   2.364  0.1628 -0.7897  0.5824
  170SAPE   C2219119   1.418   6.086   2.345  0.1006 -0.2249 -0.7415
  170SAPE   H2R19120   1.338   6.038   2.283  0.1336  1.3159 -2.0515
  170SAPE   H2S19121   1.507   6.102   2.280  1.0861  2.5763  1.1593
  170SAPE    C319122   1.049   6.327   2.519 -0.3201  0.2014 -0.3587
  170SAPE    HX19123   0.973   6.254   2.484 -1.4355  1.6959 -1.1642
  170SAPE    HY19124   0.993   6.423   2.511 -1.6377 -0.5192 -0.0336
  170SAPE   O3119125   1.084   6.295   2.651 -0.3454 -0.1771  0.0852
  170SAPE   C3119126   1.159   6.372   2.722  0.2747  0.4972 -0.2480
  170SAPE   O3219127   1.220   6.477   2.691  0.3542 -0.1111 -0.7518
  170SAPE   C3219128   1.174   6.304   2.858 -0.3460 -0.7524  0.9325
  170SAPE   H2X19129   1.261   6.235   2.859 -1.3429 -2.0788  0.2124
  170SAPE   H2Y19130   1.084   6.241   2.879 -1.4364  0.3641 -0.2144
  170SAPE   C2319131   1.441   6.010   2.476  0.3442  0.8027  0.5297
  170SAPE   H3R19132   1.461   5.905   2.446  1.7252  0.3376  2.8392
  170SAPE   H3S19133   1.354   6.014   2.545 -1.2248  1.5493 -1.4133
  170SAPE   C2419134   1.569   6.052   2.549 -0.6445 -0.0783 -0.6549
  170SAPE   H4R19135   1.663   6.041   2.490  0.2163 -2.7822  1.0046
  170SAPE   H4S19136   1.586   5.975   2.628 -1.2780  1.8101  1.4046
  170SAPE   C2519137   1.568   6.189   2.610  0.0568  0.2274 -0.3972
  170SAPE   H5R19138   1.549   6.277   2.546 -0.0158 -0.3087 -1.1194
  170SAPE   C2619139   1.572   6.218   2.745 -0.5978 -0.2715 -0.6022
  170SAPE   H6R19140   1.566   6.325   2.770  1.4205 -0.1715 -0.3441
  170SAPE   C2719141   1.586   6.125   2.868 -0.7043  0.7909  0.2045
  170SAPE   H7R19142   1.680   6.152   2.921  0.3192 -1.1332 -0.5552
  170SAPE   H7S19143   1.612   6.025   2.827  2.7949  0.6823  2.3005
  170SAPE   C2819144   1.472   6.111   2.951  0.4090  0.2508 -0.4139
  170SAPE   H8R19145   1.399   6.040   2.910 -1.5110  1.6110  0.5121
  170SAPE   C2919146   1.472   6.151   3.080 -0.4931 -0.6916 -0.0742
  170SAPE   H9R19147   1.384   6.147   3.146  0.4107  0.8391  1.3248
  170SAPE  C21019148   1.575   6.236   3.158  0.5380  0.5122 -0.4383
  170SAPE  H10R19149   1.660   6.251   3.088 -0.4057  4.0941 -0.9962
  170SAPE  H10S19150   1.596   6.174   3.248  2.0971  1.0175 -0.4148
  170SAPE  C21119151   1.524   6.374   3.178  0.1422  0.1587  0.0360
  170SAPE  H11R19152   1.521   6.434   3.086  2.6610  1.1686  0.5375
  170SAPE  C21219153   1.493   6.433   3.296  0.3401  0.6647 -0.1653
  170SAPE  H12R19154   1.467   6.539   3.288  0.8170  0.8301  0.4123
  170SAPE  C21319155   1.503   6.385   3.435  0.3017  0.5693  0.3368
  170SAPE  H13R19156   1.584   6.441   3.484  1.4247  0.2205 -1.0539
  170SAPE  H13S19157   1.543   6.281   3.442 -0.2127  0.3651  0.3861
  170SAPE  C21419158   1.379   6.401   3.521 -0.0032  0.3828 -0.4849
  170SAPE  H14R19159   1.281   6.371   3.479 -0.1743  0.7367 -0.3444
  170SAPE  C21519160   1.363   6.484   3.628 -0.4946  0.1221 -0.6277
  170SAPE  H15R19161   1.269   6.482   3.685 -0.6587 -3.3501 -0.8155
  170SAPE  C21619162   1.484   6.559   3.692 -0.1368  0.2174  0.6343
  170SAPE  H16R19163   1.511   6.653   3.639 -2.6232  1.3081  1.1511
  170SAPE  H16S19164   1.568   6.487   3.686 -1.1711 -0.9494 -0.2466
  170SAPE  C21719165   1.463   6.606   3.834 -0.1309  0.2056 -0.2138
  170SAPE  H17R19166   1.366   6.658   3.843  0.1804  1.3088 -2.6546
  170SAPE  H17S19167   1.550   6.669   3.861  1.1820 -1.7858  0.4796
  170SAPE  C21819168   1.442   6.496   3.941  0.3762  0.3560  0.2254
  170SAPE  H18R19169   1.522   6.419   3.935  1.2633  1.3884 -2.0882
  170SAPE  H18S19170   1.344   6.444   3.937  0.3504  0.4599 -0.8076
  170SAPE  C21919171   1.456   6.560   4.080  0.2183 -0.0176  0.3937
  170SAPE  H19R19172   1.384   6.644   4.088  2.3033  1.8531  0.4220
  170SAPE  H19S19173   1.560   6.598   4.076  0.4732 -0.6771  0.6202
  170SAPE  C22019174   1.430   6.473   4.200  0.5721  0.5483 -0.1475
  170SAPE  H20R19175   1.487   6.379   4.183  2.0120  1.5761 -1.3225
  170SAPE  H20S19176   1.323   6.451   4.214  0.2763  0.3136 -2.4025
  170SAPE  H20T19177   1.443   6.534   4.292  1.2954 -1.2755  1.0269
  170SAPE   C3319178   1.208   6.408   2.966  0.2097 -0.3607 -0.2732
  170SAPE   H3X19179   1.263   6.497   2.928 -1.9726  1.0900 -0.1629
  170SAPE   H3Y19180   1.274   6.360   3.042  0.6722  0.3905 -0.1971
  170SAPE   C3419181   1.089   6.453   3.053 -0.7822 -0.4418 -0.7914
  170SAPE   H4X19182   1.033   6.366   3.094  0.7286 -0.0946  2.3028
  170SAPE   H4Y19183   1.019   6.522   3.002  0.0672 -0.2702 -1.7714
  170SAPE   C3519184   1.137   6.521   3.196  0.0618 -0.1966  0.2406
  170SAPE   H5X19185   1.179   6.618   3.162 -0.3976 -1.3870 -4.5843
  170SAPE   H5Y19186   1.221   6.459   3.234 -0.0778  0.1758  1.1769
  170SAPE   C3619187   1.020   6.539   3.294 -0.4769 -0.1030  0.0102
  170SAPE   H6X19188   0.992   6.433   3.311  0.1606 -0.1759  0.6486
  170SAPE   H6Y19189   0.929   6.574   3.242 -1.7571 -2.4749  0.5189
  170SAPE   C3719190   1.054   6.614   3.429 -0.0717  0.1402 -0.2112
  170SAPE   H7X19191   1.034   6.723   3.436 -1.3058 -0.1021  0.2802
  170SAPE   H7Y19192   1.160   6.592   3.456 -0.6696  0.5910  2.7915
  170SAPE   C3819193   0.979   6.551   3.542  0.5674  0.0496  0.4870
  170SAPE   H8X19194   0.990   6.441   3.538 -0.6321 -0.0643 -0.0145
  170SAPE   H8Y19195   0.875   6.559   3.504  0.7363 -1.2809 -0.3083
  170SAPE   C3919196   0.976   6.608   3.685  1.3174  0.2286  0.2729
  170SAPE   H9X19197   0.912   6.699   3.695 -0.2825 -0.9383  0.9307
  170SAPE   H9Y19198   1.082   6.634   3.709  1.4215 -2.1262  2.9922
  170SAPE  C31019199   0.928   6.512   3.800 -0.6691 -0.3030  0.4940
  170SAPE  H10X19200   0.821   6.502   3.770 -0.2414  0.0060 -1.2442
  170SAPE  H10Y19201   0.931   6.558   3.901 -3.0418 -1.0063  0.9613
  170SAPE  C31119202   0.997   6.384   3.811  0.7725 -0.1654  0.5610
  170SAPE  H11X19203   1.103   6.404   3.835  0.9993 -0.6195 -0.0483
  170SAPE  H11Y19204   0.991   6.331   3.714 -2.7121  1.8838 -0.5267
  170SAPE  C31219205   0.937   6.296   3.915 -0.8993 -0.1630  0.2323
  170SAPE  H12X19206   0.960   6.187   3.906  0.1838  0.1580 -1.3725
  170SAPE  H12Y19207   0.827   6.299   3.903 -1.1680 -1.0251  2.0642
  170SAPE  C31319208   0.955   6.333   4.057 -0.0582  0.1155  1.3009
  170SAPE  H13X19209   0.903   6.430   4.069 -0.1871  0.7064 -2.7230
  170SAPE  H13Y19210   1.063   6.346   4.079  0.5838  0.3079 -1.5406
  170SAPE  C31419211   0.896   6.215   4.145  0.6470 -0.2008 -0.2490
  170SAPE  H14X19212   0.955   6.125   4.119 -0.1920 -0.1271 -2.6752
  170SAPE  H14Y19213   0.792   6.195   4.112 -0.2833  0.2003  2.1999
  170SAPE  C31519214   0.894   6.247   4.296 -0.3175 -0.1027  0.5038
  170SAPE  H15X19215   0.845   6.165   4.354 -0.9115 -0.1164 -0.0139
  170SAPE  H15Y19216   0.842   6.343   4.312 -0.3021  0.7632 -3.6105
  170SAPE  C31619217   1.042   6.245   4.345  0.0071  0.3840  0.8716
  170SAPE  H16X19218   1.105   6.312   4.283 -0.4480  0.5816  0.6229
  170SAPE  H16Y19219   1.086   6.146   4.319  0.9357  0.1125  3.2129
  170SAPE  C31719220   1.064   6.266   4.496 -0.3081  0.2436  0.5403
  170SAPE  H17X19221   1.002   6.188   4.545 -0.7931 -0.7858 -1.6063
  170SAPE  H17Y19222   1.020   6.367   4.516 -3.3530 -0.9095  0.2661
  170SAPE  C31819223   1.211   6.245   4.538  0.1985  0.3103  0.8533
  170SAPE  H18X19224   1.276   6.305   4.471  0.1658 -0.2851  0.2728
  170SAPE  H18Y19225   1.246   6.139   4.538 -1.7468 -0.3866  0.0284
  170SAPE  H18Z19226   1.235   6.284   4.639  2.2966 -1.3605  1.0832
  171SAPE     N19227   0.599   5.023   1.783  0.0606 -0.2113 -0.0187
  171SAPE   HN119228   0.572   4.990   1.688 -0.0110  0.5908 -0.2836
  171SAPE   HN219229   0.601   4.940   1.845 -0.4535  0.4658  0.9253
  171SAPE   HN319230   0.512   5.069   1.816 -0.6705 -0.7279 -1.1640
  171SAPE   C1219231   0.720   5.105   1.797 -0.8611 -0.8086 -0.8349
  171SAPE  H12A19232   0.801   5.044   1.751  0.5441 -0.4877  1.1072
  171SAPE  H12B19233   0.741   5.116   1.905  1.9388 -1.2135 -1.2529
  171SAPE   C1119234   0.706   5.248   1.724  0.2355  0.1440 -0.9520
  171SAPE  H11A19235   0.676   5.214   1.622  0.4772 -1.3545 -0.5477
  171SAPE  H11B19236   0.798   5.309   1.716 -2.2003  4.6548  1.5554
  171SAPE     P19237   0.614   5.429   1.902  0.1095 -0.3482 -0.3437
  171SAPE   O1319238   0.677   5.559   1.869  0.0808  0.3292  0.5169
  171SAPE   O1419239   0.480   5.428   1.966 -0.1165  0.5522  0.2279
  171SAPE   O1219240   0.602   5.336   1.772 -0.1220 -0.1472 -0.1631
  171SAPE   O1119241   0.709   5.334   1.991  0.2031  0.5446  0.9274
  171SAPE    C119242   0.665   5.269   2.112 -0.2516 -0.6968 -0.1242
  171SAPE    HA19243   0.560   5.233   2.104 -1.2756  1.7500  1.0039
  171SAPE    HB19244   0.728   5.181   2.134  1.9174  0.6861 -0.4744
  171SAPE    C219245   0.668   5.370   2.221  0.6128 -0.3785 -0.2980
  171SAPE    HS19246   0.610   5.460   2.193  1.2976  0.0532 -0.3454
  171SAPE   O2119247   0.809   5.389   2.252  0.2123 -0.5713 -0.1730
  171SAPE   C2119248   0.843   5.509   2.297 -0.3843  0.0804 -0.0728
  171SAPE   O2219249   0.776   5.610   2.308 -0.2997  0.0440 -0.0432
  171SAPE   C2219250   0.996   5.508   2.303  0.2602  0.2185  0.2337
  171SAPE   H2R19251   1.021   5.421   2.367 -3.0256 -0.0721  1.3255
  171SAPE   H2S19252   1.036   5.486   2.202 -0.6682 -0.5201  0.0155
  171SAPE    C319253   0.604   5.319   2.351 -0.0439 -0.3347  0.0516
  171SAPE    HX19254   0.637   5.215   2.368  0.5680 -0.3909 -1.2867
  171SAPE    HY19255   0.496   5.304   2.330  0.3932 -3.1609 -0.6118
  171SAPE   O3119256   0.626   5.400   2.466 -0.2430 -0.3795  0.1785
  171SAPE   C3119257   0.532   5.491   2.488 -0.0835 -0.1871 -0.7840
  171SAPE   O3219258   0.435   5.511   2.414 -0.4898 -0.7924  0.0578
  171SAPE   C3219259   0.568   5.577   2.614 -0.2727  0.3688  0.7656
  171SAPE   H2X19260   0.659   5.631   2.582 -1.0566  1.5023  0.3850
  171SAPE   H2Y19261   0.605   5.514   2.698 -2.7890 -0.6639  1.1953
  171SAPE   C2319262   1.070   5.629   2.365  0.0331 -0.1383 -0.0626
  171SAPE   H3R19263   1.030   5.718   2.312 -1.9181 -0.8605  0.1021
  171SAPE   H3S19264   1.176   5.613   2.337  0.3266  1.8897 -0.2185
  171SAPE   C2419265   1.045   5.639   2.515  0.1388 -0.0091  0.0991
  171SAPE   H4R19266   1.094   5.547   2.555 -1.0717 -0.5852  0.3005
  171SAPE   H4S19267   0.938   5.636   2.544 -0.4831  0.6755 -1.9710
  171SAPE   C2519268   1.099   5.769   2.562  0.0536  0.1052 -1.7382
  171SAPE   H5R19269   1.157   5.813   2.479  0.8170  1.5914 -0.4640
  171SAPE   C2619270   1.098   5.833   2.680  0.4239 -0.2900 -0.3435
  171SAPE   H6R19271   1.155   5.927   2.685  1.1231 -0.7456  3.2347
  171SAPE   C2719272   1.016   5.795   2.803  0.1885  0.0743  0.1724
  171SAPE   H7R19273   1.085   5.765   2.884  2.8166 -0.0996 -1.9960
  171SAPE   H7S19274   0.946   5.711   2.779  0.6030 -0.2102 -0.0528
  171SAPE   C2819275   0.922   5.909   2.835 -0.1290 -0.2300  0.1038
  171SAPE   H8R19276   0.846   5.932   2.758 -0.9215 -0.0828  0.9215
  171SAPE   C2919277   0.919   5.983   2.949 -0.7633  0.0643  0.5426
  171SAPE   H9R19278   0.844   6.064   2.951  0.0849  0.8867  0.1126
  171SAPE  C21019279   1.008   5.965   3.071  0.3556 -0.5228 -0.0228
  171SAPE  H10R19280   1.114   5.952   3.039 -0.6246 -0.6753 -3.5291
  171SAPE  H10S19281   0.959   5.873   3.109 -2.8763 -0.0920 -2.7435
  171SAPE  C21119282   0.992   6.081   3.170  0.8453  0.4110 -0.4599
  171SAPE  H11R19283   0.925   6.162   3.136 -0.2993 -0.7436 -1.0674
  171SAPE  C21219284   1.060   6.096   3.283 -0.2254 -0.6875 -0.0755
  171SAPE  H12R19285   1.034   6.185   3.343 -1.2611  0.5859 -2.2752
  171SAPE  C21319286   1.146   5.995   3.360  0.1685 -0.0453  0.5265
  171SAPE  H13R19287   1.214   6.048   3.430  1.6344 -0.6718 -0.3739
  171SAPE  H13S19288   1.204   5.957   3.273 -2.5405  2.8378 -2.8411
  171SAPE  C21419289   1.074   5.882   3.426 -0.2519  0.5150  0.1728
  171SAPE  H14R19290   0.994   5.843   3.362 -0.7619  2.6826 -0.5769
  171SAPE  C21519291   1.092   5.834   3.555 -0.0865  0.2070 -0.3385
  171SAPE  H15R19292   1.026   5.751   3.585  1.4800 -1.2352 -0.7193
  171SAPE  C21619293   1.199   5.862   3.658 -0.0438  0.1163  0.4205
  171SAPE  H16R19294   1.300   5.846   3.614 -0.3624 -2.2740  0.4714
  171SAPE  H16S19295   1.186   5.786   3.738 -0.5369 -1.2851 -0.9555
  171SAPE  C21719296   1.188   5.996   3.731  0.5215 -0.3568 -0.2633
  171SAPE  H17R19297   1.082   6.019   3.753  0.9506  1.1095  0.3713
  171SAPE  H17S19298   1.215   6.088   3.676 -0.9217  0.8658  0.9762
  171SAPE  C21819299   1.274   5.995   3.858  0.5547 -0.0913 -0.1203
  171SAPE  H18R19300   1.380   5.979   3.832  0.3350 -2.2876  0.1289
  171SAPE  H18S19301   1.235   5.914   3.923  0.2540  0.5728  0.5472
  171SAPE  C21919302   1.270   6.124   3.944  0.4082 -0.3587  0.1636
  171SAPE  H19R19303   1.161   6.138   3.964  0.4461 -1.9271  1.6759
  171SAPE  H19S19304   1.303   6.217   3.892 -1.8949  0.9100  0.8357
  171SAPE  C22019305   1.333   6.103   4.081 -0.3373 -0.8955 -0.2046
  171SAPE  H20R19306   1.285   6.157   4.165  3.0643 -1.0815  2.0409
  171SAPE  H20S19307   1.438   6.138   4.072 -1.1171  1.5684 -0.5185
  171SAPE  H20T19308   1.322   5.996   4.107 -0.2555 -1.1017 -0.9937
  171SAPE   C3319309   0.451   5.659   2.670  0.8602 -0.1160 -0.0465
  171SAPE   H3X19310   0.378   5.601   2.730  1.7928 -1.9034 -0.5826
  171SAPE   H3Y19311   0.402   5.713   2.586  2.1385  1.8769  0.4143
  171SAPE   C3419312   0.507   5.763   2.769 -0.2734 -0.4293  0.4653
  171SAPE   H4X19313   0.424   5.833   2.792 -1.0538 -1.0892 -0.2720
  171SAPE   H4Y19314   0.592   5.820   2.729 -0.4806 -0.9465 -0.7419
  171SAPE   C3519315   0.535   5.692   2.905  0.4255  0.7463  0.2135
  171SAPE   H5X19316   0.620   5.621   2.895 -0.2674 -0.4937  2.4847
  171SAPE   H5Y19317   0.450   5.629   2.936  1.5367 -0.7450  0.3558
  171SAPE   C3619318   0.572   5.795   3.014 -0.0250 -0.6737 -0.2013
  171SAPE   H6X19319   0.489   5.868   3.017  0.1696 -0.4851  1.5928
  171SAPE   H6Y19320   0.666   5.849   2.988 -0.1171 -1.4091 -2.2623
  171SAPE   C3719321   0.589   5.727   3.148  0.3470  0.5382  0.4096
  171SAPE   H7X19322   0.645   5.631   3.145  0.2239  0.3660  2.3000
  171SAPE   H7Y19323   0.491   5.701   3.193  0.0312  0.4664 -0.3126
  171SAPE   C3819324   0.647   5.824   3.252  0.5455  0.0247 -0.1428
  171SAPE   H8X19325   0.593   5.921   3.254  0.0842 -0.2279 -0.2826
  171SAPE   H8Y19326   0.748   5.864   3.231 -0.0124  1.2757 -0.5486
  171SAPE   C3919327   0.650   5.765   3.394 -0.1468  0.2311  0.4813
  171SAPE   H9X19328   0.725   5.684   3.398 -0.3389  0.0371  0.1670
  171SAPE   H9Y19329   0.555   5.712   3.412  0.3026 -0.0124  2.3446
  171SAPE  C31019330   0.692   5.863   3.510  0.3008  0.2108  0.1632
  171SAPE  H10X19331   0.639   5.959   3.496  0.5798  0.1424 -1.5970
  171SAPE  H10Y19332   0.801   5.883   3.508  0.3704 -0.1949 -1.6442
  171SAPE  C31119333   0.668   5.801   3.649  0.4775  0.7058 -0.2815
  171SAPE  H11X19334   0.731   5.709   3.645  1.2825  1.2191  0.3816
  171SAPE  H11Y19335   0.559   5.777   3.648  0.6987 -0.5844  1.4914
  171SAPE  C31219336   0.711   5.891   3.765 -0.8727 -0.0270  0.4667
  171SAPE  H12X19337   0.669   5.992   3.744  2.4770  2.1708  3.2584
  171SAPE  H12Y19338   0.821   5.910   3.763 -1.0090  0.7452 -0.8296
  171SAPE  C31319339   0.673   5.829   3.893  0.2545 -0.0198 -0.8191
  171SAPE  H13X19340   0.679   5.718   3.893  1.5860 -0.0981 -4.9055
  171SAPE  H13Y19341   0.565   5.853   3.907  0.0463 -0.9181 -0.8620
  171SAPE  C31419342   0.755   5.899   4.014 -0.3762  0.3021 -0.2409
  171SAPE  H14X19343   0.673   5.948   4.071  0.9925  0.3503  1.8101
  171SAPE  H14Y19344   0.815   5.982   3.974  0.5736 -0.1827  0.1492
  171SAPE  C31519345   0.827   5.795   4.106  0.0227 -0.4007  0.0309
  171SAPE  H15X19346   0.762   5.706   4.120  0.4500 -0.5471  1.2111
  171SAPE  H15Y19347   0.863   5.849   4.196  0.4832  1.7782 -1.3792
  171SAPE  C31619348   0.963   5.742   4.040 -0.2936  0.3126  0.1942
  171SAPE  H16X19349   1.031   5.821   4.001 -0.5051  1.1805  1.5170
  171SAPE  H16Y19350   0.930   5.684   3.951 -1.8442  0.8648  0.3778
  171SAPE  C31719351   1.060   5.671   4.138 -0.5166 -0.1621  0.3301
  171SAPE  H17X19352   1.152   5.638   4.086  0.0816  2.6844 -0.6082
  171SAPE  H17Y19353   1.018   5.580   4.186  0.9188 -1.6588 -1.0901
  171SAPE  C31819354   1.116   5.764   4.241  0.0208  0.1292  0.8088
  171SAPE  H18X19355   1.044   5.846   4.263  0.4584  0.0037  2.8829
  171SAPE  H18Y19356   1.212   5.810   4.210  1.8745 -2.7115  1.8703
  171SAPE  H18Z19357   1.142   5.714   4.337 -0.1305 -0.6703  0.4376
  172SAPE     N19358   0.764   6.306   1.854  0.5294 -0.6890 -0.6717
  172SAPE   HN119359   0.722   6.212   1.842 -0.3327 -0.5410  0.9000
  172SAPE   HN219360   0.756   6.359   1.765  0.3293 -0.6707 -0.6430
  172SAPE   HN319361   0.866   6.301   1.872  0.4270 -2.1868 -0.3681
  172SAPE   C1219362   0.691   6.382   1.966 -0.3923  0.6669 -0.2409
  172SAPE  H12A19363   0.748   6.475   1.989 -0.1981  0.3479  0.5748
  172SAPE  H12B19364   0.701   6.331   2.063  2.5472 -1.1715 -1.3871
  172SAPE   C1119365   0.545   6.405   1.920  0.7060 -0.2435  0.5326
  172SAPE  H11A19366   0.496   6.313   1.880 -2.3743  1.4162  0.2057
  172SAPE  H11B19367   0.542   6.468   1.829  0.1859 -0.7827  0.1729
  172SAPE     P19368   0.376   6.378   2.106 -0.0379  0.3802 -0.0786
  172SAPE   O1319369   0.257   6.339   2.024 -0.1175  0.4098  0.6111
  172SAPE   O1419370   0.458   6.267   2.164 -0.4545 -0.3462  0.3039
  172SAPE   O1219371   0.460   6.470   2.014 -0.6305 -0.0147  0.2313
  172SAPE   O1119372   0.318   6.468   2.219  0.3372 -0.0036 -0.0260
  172SAPE    C119373   0.358   6.598   2.237  0.0924 -0.0298 -0.9709
  172SAPE    HA19374   0.468   6.612   2.239 -0.0106  0.7538 -0.0129
  172SAPE    HB19375   0.329   6.671   2.159 -0.1156 -0.3431 -1.1921
  172SAPE    C219376   0.313   6.641   2.378  0.4052 -0.1348  0.6375
  172SAPE    HS19377   0.358   6.738   2.409 -0.9176  0.6050  0.3328
  172SAPE   O2119378   0.355   6.546   2.481 -1.0278  0.4566  0.0119
  172SAPE   C2119379   0.482   6.545   2.518 -0.1098 -0.1737 -0.0956
  172SAPE   O2219380   0.570   6.609   2.470 -0.0157 -0.7498  0.1202
  172SAPE   C2219381   0.503   6.445   2.634  0.4734 -0.0522 -0.0396
  172SAPE   H2R19382   0.609   6.464   2.661  0.0816  0.8589  0.9409
  172SAPE   H2S19383   0.452   6.489   2.722  2.0492 -0.0618  0.9073
  172SAPE    C319384   0.160   6.657   2.380  0.9615  0.0374 -0.1785
  172SAPE    HX19385   0.121   6.567   2.328  0.1013  0.5776 -0.4918
  172SAPE    HY19386   0.142   6.744   2.313  1.0608  0.4709  0.3474
  172SAPE   O3119387   0.100   6.682   2.507 -0.1165 -0.1074 -0.0955
  172SAPE   C3119388   0.048   6.576   2.561  0.9270 -0.4800 -0.0241
  172SAPE   O3219389   0.019   6.472   2.510  0.1408 -0.1312 -0.3942
  172SAPE   C3219390   0.031   6.600   2.712  0.0483 -0.8412  0.0242
  172SAPE   H2X19391  -0.058   6.539   2.738 -0.6670  0.2968  0.3438
  172SAPE   H2Y19392   0.006   6.705   2.739 -0.0459 -0.8365 -0.0837
  172SAPE   C2319393   0.471   6.296   2.603  0.1410  0.2687 -0.3554
  172SAPE   H3R19394   0.520   6.261   2.510  2.9254 -2.5310  1.9362
  172SAPE   H3S19395   0.361   6.282   2.591  0.0918 -2.4270  2.1082
  172SAPE   C2419396   0.509   6.198   2.707  0.4419 -0.8096 -0.9754
  172SAPE   H4R19397   0.506   6.095   2.665  1.3157 -1.8566  1.3602
  172SAPE   H4S19398   0.443   6.186   2.796 -0.1382 -0.9600 -1.4237
  172SAPE   C2519399   0.651   6.221   2.750  0.3590  0.5130 -0.9815
  172SAPE   H5R19400   0.729   6.201   2.676  0.1708  0.2501 -1.1102
  172SAPE   C2619401   0.692   6.279   2.863  0.1771  0.3657  0.0223
  172SAPE   H6R19402   0.799   6.302   2.876  0.5508 -0.9966 -0.4627
  172SAPE   C2719403   0.601   6.316   2.979 -0.5308 -0.3007  0.5901
  172SAPE   H7R19404   0.502   6.358   2.951 -0.4266  0.4672  1.3360
  172SAPE   H7S19405   0.636   6.407   3.032 -0.3469 -0.5353  0.8785
  172SAPE   C2819406   0.576   6.207   3.078  0.0041 -0.2347  0.4524
  172SAPE   H8R19407   0.542   6.115   3.029 -1.6867  0.8334 -0.4929
  172SAPE   C2919408   0.600   6.203   3.210  0.1569  1.2058 -0.1997
  172SAPE   H9R19409   0.573   6.108   3.258 -2.7641  0.5798 -2.8104
  172SAPE  C21019410   0.655   6.317   3.298 -0.3006  0.3946 -0.2754
  172SAPE  H10R19411   0.573   6.374   3.347  0.8084  0.8177  1.1675
  172SAPE  H10S19412   0.719   6.382   3.234  1.0425  0.6758  1.2737
  172SAPE  C21119413   0.748   6.261   3.410 -0.1527  0.1455  0.7586
  172SAPE  H11R19414   0.842   6.214   3.378  0.5083  0.9786  1.4153
  172SAPE  C21219415   0.731   6.261   3.549  0.5153 -0.1055  0.2120
  172SAPE  H12R19416   0.796   6.200   3.613 -1.5665 -1.5917  1.0359
  172SAPE  C21319417   0.602   6.312   3.613  0.0572  0.7792 -0.4271
  172SAPE  H13R19418   0.556   6.394   3.554  0.9131  1.0586 -0.7176
  172SAPE  H13S19419   0.634   6.348   3.714  2.2433  1.1613 -1.1903
  172SAPE  C21419420   0.505   6.194   3.632  0.2961 -0.3754 -0.4306
  172SAPE  H14R19421   0.480   6.135   3.542  0.0253 -1.3764  0.2781
  172SAPE  C21519422   0.427   6.162   3.744 -0.1604  0.2943 -0.3381
  172SAPE  H15R19423   0.364   6.071   3.735  0.1339  0.1936 -1.5760
  172SAPE  C21619424   0.419   6.235   3.873  0.2560 -0.2104  0.2406
  172SAPE  H16R19425   0.314   6.256   3.901 -0.2170 -1.8383 -0.2055
  172SAPE  H16S19426   0.458   6.337   3.853  0.0556 -0.1818 -0.0145
  172SAPE  C21719427   0.484   6.191   4.010 -0.3784 -1.0118  0.1400
  172SAPE  H17R19428   0.589   6.180   3.973  0.2752  1.0845  1.1998
  172SAPE  H17S19429   0.440   6.094   4.039 -0.4057 -0.9300  0.3748
  172SAPE  C21819430   0.491   6.310   4.113 -0.0325  0.4766  0.1376
  172SAPE  H18R19431   0.490   6.406   4.057 -3.6025 -0.2763 -1.3913
  172SAPE  H18S19432   0.579   6.303   4.180  0.0024  1.0263  0.1557
  172SAPE  C21919433   0.367   6.323   4.203 -0.1539 -0.3231  0.3699
  172SAPE  H19R19434   0.365   6.229   4.262 -0.7997 -1.0102 -0.7105
  172SAPE  H19S19435   0.277   6.337   4.140  0.4657 -0.9964 -0.6889
  172SAPE  C22019436   0.391   6.452   4.289  0.2484  0.4999  0.0004
  172SAPE  H20R19437   0.330   6.449   4.382  0.9573 -3.3293  0.5260
  172SAPE  H20S19438   0.375   6.547   4.234 -0.6363 -0.1003 -0.8087
  172SAPE  H20T19439   0.489   6.441   4.340  0.1371 -0.6622 -0.0024
  172SAPE   C3319440   0.156   6.548   2.796  0.2546 -0.3736 -0.4673
  172SAPE   H3X19441   0.243   6.609   2.763  1.9746 -1.0197  2.5156
  172SAPE   H3Y19442   0.183   6.444   2.768 -0.6336 -0.1800 -2.1623
  172SAPE   C3419443   0.123   6.581   2.936 -0.2539  0.9660  0.0377
  172SAPE   H4X19444   0.029   6.529   2.962  0.2856 -0.0341  0.0247
  172SAPE   H4Y19445   0.105   6.689   2.956 -1.7882  0.2946  2.7571
  172SAPE   C3519446   0.220   6.537   3.043  0.1199 -0.3432  0.1723
  172SAPE   H5X19447   0.320   6.570   3.007  0.2579  1.1180  1.7070
  172SAPE   H5Y19448   0.211   6.427   3.056  2.2732 -0.7496 -1.2971
  172SAPE   C3619449   0.194   6.593   3.181 -0.2998 -0.0969  0.0384
  172SAPE   H6X19450   0.085   6.604   3.199  0.1542  0.0775  3.2641
  172SAPE   H6Y19451   0.228   6.698   3.193 -1.9443  0.3467  1.1912
  172SAPE   C3719452   0.252   6.514   3.304 -0.4722 -0.5888 -0.3068
  172SAPE   H7X19453   0.362   6.501   3.299 -0.3217  0.5519 -0.1983
  172SAPE   H7Y19454   0.226   6.406   3.316 -0.4724 -0.4451  1.3082
  172SAPE   C3819455   0.215   6.590   3.437  0.2641 -0.3735 -0.2444
  172SAPE   H8X19456   0.105   6.600   3.442  0.4706  2.0353  0.7145
  172SAPE   H8Y19457   0.264   6.689   3.450 -1.2860  0.3129  0.6443
  172SAPE   C3919458   0.261   6.514   3.562 -0.7406  0.6502  0.3343
  172SAPE   H9X19459   0.371   6.511   3.579 -0.7803 -1.2449  0.5474
  172SAPE   H9Y19460   0.228   6.410   3.541 -0.8830  0.3922  1.7731
  172SAPE  C31019461   0.187   6.558   3.690  0.0894 -0.0288 -0.1653
  172SAPE  H10X19462   0.176   6.463   3.747  0.7018 -0.1073 -0.1683
  172SAPE  H10Y19463   0.089   6.608   3.679 -0.2430 -0.9172 -1.3935
  172SAPE  C31119464   0.274   6.646   3.783 -0.3445 -0.0469  0.6348
  172SAPE  H11X19465   0.276   6.753   3.750  2.7760 -0.1510  0.1038
  172SAPE  H11Y19466   0.378   6.607   3.783 -0.1326  0.4836  1.8618
  172SAPE  C31219467   0.238   6.644   3.927  0.7030  0.3016 -1.1839
  172SAPE  H12X19468   0.307   6.711   3.981 -2.0538  2.2547  0.1354
  172SAPE  H12Y19469   0.262   6.540   3.959 -0.6077 -0.1935 -1.7252
  172SAPE  C31319470   0.092   6.660   3.964  0.4840 -0.1631  0.5812
  172SAPE  H13X19471   0.063   6.598   4.052  0.9968 -3.4889 -1.4237
  172SAPE  H13Y19472   0.041   6.603   3.883  1.4752 -0.0914 -0.1043
  172SAPE  C31419473   0.022   6.795   3.971  0.5835 -0.1633 -0.4210
  172SAPE  H14X19474  -0.087   6.777   3.960  0.6056 -0.4037 -0.2576
  172SAPE  H14Y19475   0.063   6.849   3.883  1.0183  0.1924 -0.0051
  172SAPE  C31519476   0.050   6.884   4.095  0.3670  0.8960  0.1029
  172SAPE  H15X19477   0.158   6.906   4.094  0.6963 -0.6308 -0.5375
  172SAPE  H15Y19478   0.040   6.822   4.187  3.0077  2.3493  1.4896
  172SAPE  C31619479  -0.025   7.014   4.097 -0.1661 -0.1172 -0.1763
  172SAPE  H16X19480  -0.131   6.987   4.117 -0.5820 -0.0838 -2.1061
  172SAPE  H16Y19481  -0.020   7.061   3.996  0.2684 -1.9325 -1.0569
  172SAPE  C31719482   0.027   7.125   4.192  0.7875  0.0847 -0.1165
  172SAPE  H17X19483   0.021   7.085   4.295 -1.9604  2.2310  0.6852
  172SAPE  H17Y19484  -0.051   7.203   4.203  3.0292  2.7532 -1.8872
  172SAPE  C31819485   0.142   7.209   4.149  0.3129 -0.3212  0.3008
  172SAPE  H18X19486   0.107   7.310   4.120  2.0374  0.3553  0.4605
  172SAPE  H18Y19487   0.207   7.167   4.070  0.6464  0.5722  0.0919
  172SAPE  H18Z19488   0.208   7.213   4.239 -0.0515  1.0537  0.5247
  173SLPC     N19489   0.419   2.795   6.200  0.1523 -0.6485  0.7155
  173SLPC   C1319490   0.408   2.903   6.094  0.3397 -0.7916 -0.3858
  173SLPC  H13A19491   0.416   3.000   6.142  1.7818 -0.3711 -1.4436
  173SLPC  H13B19492   0.481   2.886   6.017  2.3456  0.8120  1.0411
  173SLPC  H13C19493   0.309   2.897   6.051  1.1530 -0.8015 -2.3175
  173SLPC   C1419494   0.332   2.826   6.313 -0.1058 -0.9774  0.1973
  173SLPC  H14A19495   0.370   2.775   6.401  1.9651  0.3785  0.1674
  173SLPC  H14B19496   0.318   2.932   6.324 -0.3197 -0.8052 -1.5572
  173SLPC  H14C19497   0.229   2.808   6.289 -1.0289  2.6307  0.8966
  173SLPC   C1519498   0.561   2.799   6.246 -0.0957  0.6962 -0.1717
  173SLPC  H15A19499   0.632   2.785   6.166 -0.3476  0.6202 -0.3838
  173SLPC  H15B19500   0.572   2.896   6.292 -1.9557  1.7389 -1.8145
  173SLPC  H15C19501   0.572   2.722   6.321 -2.0347  0.6960  0.1625
  173SLPC   C1219502   0.387   2.660   6.131  0.0703  0.6154 -0.8805
  173SLPC  H12A19503   0.456   2.648   6.049  0.9702 -1.5184  0.1151
  173SLPC  H12B19504   0.287   2.672   6.092 -0.4239  2.7692  0.8483
  173SLPC   C1119505   0.372   2.534   6.217  0.9064  0.4237  0.1400
  173SLPC  H11A19506   0.467   2.513   6.270 -0.3829 -0.2796  2.3032
  173SLPC  H11B19507   0.341   2.444   6.159 -0.7370 -0.0320  1.6465
  173SLPC     P19508   0.147   2.470   6.334  0.0416  0.2259 -0.7801
  173SLPC   O1319509   0.179   2.335   6.384  0.5563  0.1792 -0.2926
  173SLPC   O1419510   0.060   2.555   6.414 -0.3184 -0.1142  0.5046
  173SLPC   O1219511   0.284   2.547   6.331  0.3173 -0.4783  0.5723
  173SLPC   O1119512   0.106   2.464   6.185  0.3627  0.5028  0.0100
  173SLPC    C119513   0.055   2.353   6.112 -0.7390 -0.5566  0.7500
  173SLPC    HA19514   0.141   2.284   6.112  1.2180  1.7323  0.0494
  173SLPC    HB19515  -0.030   2.312   6.171 -0.9581 -0.3707  0.5665
  173SLPC    C219516   0.016   2.396   5.966  0.4240  0.5286  0.1189
  173SLPC    HS19517   0.103   2.451   5.925  0.0815  2.1381  1.4405
  173SLPC   O2119518  -0.096   2.485   5.961  0.4927  0.0534  0.4343
  173SLPC   C2119519  -0.113   2.556   5.846 -0.0349  0.2817 -0.9604
  173SLPC   O2219520  -0.015   2.568   5.770  0.5996  0.5273  0.2222
  173SLPC   C2219521  -0.254   2.610   5.845  0.8197 -0.2796  0.2680
  173SLPC   H2R19522  -0.322   2.523   5.849 -0.1776  0.4091 -0.8302
  173SLPC   H2S19523  -0.277   2.671   5.935 -0.6649 -0.6324  0.1487
  173SLPC    C319524  -0.006   2.271   5.875 -0.1216 -0.3799 -0.6810
  173SLPC    HX19525  -0.092   2.219   5.923 -0.3269  1.2337  0.8170
  173SLPC    HY19526   0.078   2.202   5.897 -1.0229 -2.9008 -4.3538
  173SLPC   O3119527  -0.024   2.295   5.738 -0.5356  0.8523  0.2248
  173SLPC   C3119528   0.091   2.305   5.677  0.2914  0.1258 -0.4880
  173SLPC   O3219529   0.201   2.279   5.722 -0.1915 -0.1471  0.1850
  173SLPC   C3219530   0.062   2.351   5.534  0.1070  0.3491 -0.1711
  173SLPC   H2X19531  -0.045   2.371   5.515  0.7195  1.5048 -3.1133
  173SLPC   H2Y19532   0.083   2.263   5.468  1.6167  0.5561 -0.0020
  173SLPC   C2319533  -0.288   2.674   5.710 -0.5309  0.1167 -0.2308
  173SLPC   H3R19534  -0.394   2.699   5.686 -0.6695 -0.8668 -0.6867
  173SLPC   H3S19535  -0.244   2.609   5.632  0.4594 -1.0123  1.2200
  173SLPC   C2419536  -0.211   2.804   5.689  1.0980  0.3860  0.0176
  173SLPC   H4R19537  -0.100   2.792   5.690  1.1382  0.4072 -1.5317
  173SLPC   H4S19538  -0.242   2.866   5.775 -2.9721  0.3381 -1.2065
  173SLPC   C2519539  -0.235   2.875   5.557  0.0842  0.2766 -0.0581
  173SLPC   H5R19540  -0.175   2.967   5.542 -0.3306  0.6733  0.6470
  173SLPC   H5S19541  -0.340   2.911   5.558 -0.4947 -1.2819 -1.2553
  173SLPC   C2619542  -0.211   2.780   5.431  0.6143 -0.1686  0.1137
  173SLPC   H6R19543  -0.290   2.702   5.429  1.6621 -1.2582 -0.2946
  173SLPC   H6S19544  -0.114   2.732   5.457 -0.0302 -0.2951  2.5114
  173SLPC   C2719545  -0.202   2.866   5.302  0.0768 -0.0150 -0.0539
  173SLPC   H7R19546  -0.278   2.946   5.292 -0.9976 -0.8846  0.9129
  173SLPC   H7S19547  -0.214   2.794   5.219 -0.4298  1.5695 -1.4133
  173SLPC   C2819548  -0.066   2.932   5.283 -0.6353 -0.0598 -0.1412
  173SLPC   H8R19549   0.010   2.859   5.318  0.1785  1.6751  1.9123
  173SLPC   H8S19550  -0.056   3.019   5.351 -0.2164  1.4800 -2.0798
  173SLPC   C2919551  -0.054   2.983   5.139 -0.2797  0.5365  0.0275
  173SLPC   H9R19552  -0.024   2.905   5.067  2.9218  1.4638  0.2002
  173SLPC  C21019553  -0.051   3.108   5.095 -0.5527 -0.0097  0.3044
  173SLPC  H10R19554  -0.039   3.130   4.988  1.6677  0.3507  0.5827
  173SLPC  C21119555  -0.074   3.235   5.178  0.1643  0.0856  1.2401
  173SLPC  H11R19556  -0.128   3.217   5.274 -1.7847  1.1430  0.4127
  173SLPC  H11S19557  -0.139   3.299   5.114 -1.0336  1.1147  3.3792
  173SLPC  C21219558   0.057   3.292   5.218  0.5242  0.1789  0.1375
  173SLPC  H12R19559   0.107   3.233   5.297  0.5949 -0.3767 -0.3088
  173SLPC  C21319560   0.122   3.391   5.159 -0.1036 -0.2102 -0.7409
  173SLPC  H13R19561   0.221   3.417   5.200  0.9692 -2.4627 -1.6614
  173SLPC  C21419562   0.073   3.477   5.048 -0.1666  0.2914 -0.1873
  173SLPC  H14R19563   0.117   3.577   5.070 -1.4333  0.9066 -0.3654
  173SLPC  H14S19564  -0.035   3.504   5.054  0.2900  2.3174 -0.2561
  173SLPC  C21519565   0.095   3.437   4.903 -0.2431  0.1124  0.5699
  173SLPC  H15R19566   0.031   3.346   4.890 -0.4043  0.1560  1.0356
  173SLPC  H15S19567   0.196   3.398   4.879 -0.3971 -1.1695  1.8254
  173SLPC  C21619568   0.058   3.543   4.802 -0.3346  0.5390  0.1702
  173SLPC  H16R19569   0.126   3.631   4.805  0.9271 -0.4268  1.0692
  173SLPC  H16S19570  -0.047   3.573   4.821 -0.7957  0.7237 -2.3978
  173SLPC  C21719571   0.055   3.482   4.660  0.1335  0.3775 -0.0039
  173SLPC  H17R19572  -0.022   3.401   4.662 -0.9458  1.3780  0.7766
  173SLPC  H17S19573   0.154   3.438   4.636 -0.5118 -1.7820  1.0523
  173SLPC  C21819574   0.019   3.586   4.554  0.6827  0.4759 -1.2667
  173SLPC  H18R19575  -0.070   3.648   4.576 -0.0448 -0.4248 -1.5965
  173SLPC  H18S19576  -0.010   3.534   4.460  0.5242  1.1906 -1.6221
  173SLPC  H18T19577   0.095   3.663   4.527  0.1990  1.3831 -0.1187
  173SLPC   C3319578   0.157   2.466   5.502 -0.0952  0.1095  0.4008
  173SLPC   H3X19579   0.259   2.427   5.482 -0.2631  0.5742 -1.5510
  173SLPC   H3Y19580   0.164   2.546   5.579 -3.4149  1.1223 -0.1942
  173SLPC   C3419581   0.133   2.534   5.364  0.0977  0.4383 -0.4160
  173SLPC   H4X19582   0.169   2.639   5.371  0.9062  0.0548  2.3731
  173SLPC   H4Y19583   0.023   2.550   5.361  0.1195  0.6976  0.0707
  173SLPC   C3519584   0.178   2.458   5.240 -0.1268  0.2170 -0.3658
  173SLPC   H5X19585   0.122   2.363   5.247  3.1147 -1.8832 -0.9692
  173SLPC   H5Y19586   0.286   2.432   5.244 -0.0833  0.4413  2.9256
  173SLPC   C3619587   0.160   2.530   5.108  0.4665 -0.3078 -0.6010
  173SLPC   H6X19588   0.054   2.559   5.095  0.5405 -0.4154 -1.5440
  173SLPC   H6Y19589   0.173   2.456   5.026  1.2785  0.5137 -1.2351
  173SLPC   C3719590   0.235   2.650   5.081 -0.0788  0.3465  0.3589
  173SLPC   H7X19591   0.339   2.617   5.062 -0.8824 -0.8673 -2.4395
  173SLPC   H7Y19592   0.229   2.718   5.168  1.0592 -1.1320  1.6641
  173SLPC   C3819593   0.208   2.722   4.950 -0.6649  0.5548 -0.9281
  173SLPC   H8X19594   0.102   2.753   4.945 -0.7978 -0.0170 -1.6964
  173SLPC   H8Y19595   0.219   2.659   4.860  0.6774  0.7756 -0.9451
  173SLPC   C3919596   0.300   2.837   4.911  0.3260 -0.1255  0.6115
  173SLPC   H9X19597   0.388   2.791   4.861  0.0748 -1.5502  1.3992
  173SLPC   H9Y19598   0.347   2.905   4.985  1.1478 -0.9448  0.8725
  173SLPC  C31019599   0.222   2.923   4.811 -0.4984  0.1042 -0.5732
  173SLPC  H10X19600   0.133   2.970   4.859  1.1883  2.2588  0.6582
  173SLPC  H10Y19601   0.181   2.856   4.732 -1.4579 -1.0445  0.8582
  173SLPC  C31119602   0.301   3.054   4.758 -0.4826  0.8509  0.2056
  173SLPC  H11X19603   0.329   3.125   4.839  1.0389 -2.6876  3.0695
  173SLPC  H11Y19604   0.234   3.114   4.692  0.8415  1.4604 -0.6220
  173SLPC  C31219605   0.429   3.027   4.672  0.4600  0.2172 -0.2638
  173SLPC  H12X19606   0.511   2.994   4.739 -0.0427 -0.6640 -0.0693
  173SLPC  H12Y19607   0.463   3.123   4.628 -0.5892  0.1863 -1.1748
  173SLPC  C31319608   0.404   2.929   4.557  0.0115 -0.0518  0.0709
  173SLPC  H13X19609   0.320   2.968   4.495 -0.3786 -1.4019 -0.2890
  173SLPC  H13Y19610   0.374   2.823   4.575 -0.4224 -0.8857 -4.3022
  173SLPC  C31419611   0.529   2.907   4.466  0.4073 -0.2010  0.2406
  173SLPC  H14X19612   0.612   2.868   4.529  0.4828  2.0225  1.6002
  173SLPC  H14Y19613   0.570   3.005   4.437 -1.1477  0.8826  1.4995
  173SLPC  C31519614   0.513   2.797   4.350 -0.0608 -0.3785  0.6250
  173SLPC  H15X19615   0.445   2.840   4.274  1.4597  0.0688 -0.5529
  173SLPC  H15Y19616   0.472   2.703   4.392  1.6525 -0.2931  2.6730
  173SLPC  C31619617   0.631   2.763   4.260 -0.1133  0.2863  0.4348
  173SLPC  H16X19618   0.689   2.683   4.310  0.2074  1.3224  1.7815
  173SLPC  H16Y19619   0.701   2.846   4.235 -1.0875  0.9004 -0.3897
  173SLPC  C31719620   0.580   2.684   4.134  0.9583  0.6399 -0.9729
  173SLPC  H17X19621   0.659   2.633   4.075 -2.1277 -2.0497 -3.1146
  173SLPC  H17Y19622   0.545   2.769   4.070 -3.0111  1.8033  2.3202
  173SLPC  C31819623   0.469   2.575   4.151  0.0373 -0.5128  0.0467
  173SLPC  H18X19624   0.372   2.629   4.147 -0.3598 -1.2600 -1.5765
  173SLPC  H18Y19625   0.487   2.508   4.237  0.9024 -2.6215 -1.6703
  173SLPC  H18Z19626   0.475   2.512   4.059 -1.2464 -2.4756  1.2396
  174SLPC     N19627   1.272   1.814   6.417  0.6078 -0.1793  0.7209
  174SLPC   C1319628   1.327   1.949   6.410 -0.2627  0.5195 -0.3348
  174SLPC  H13A19629   1.263   2.019   6.461 -0.8459 -0.7650  0.7667
  174SLPC  H13B19630   1.427   1.950   6.453 -0.0730  0.0527 -0.7539
  174SLPC  H13C19631   1.355   1.984   6.312  0.3978  2.8326  0.6129
  174SLPC   C1419632   1.156   1.818   6.323 -0.8820 -0.3017 -0.5256
  174SLPC  H14A19633   1.079   1.884   6.362 -0.9255 -1.7079  1.9936
  174SLPC  H14B19634   1.192   1.855   6.228  0.9629 -0.3461  0.1213
  174SLPC  H14C19635   1.110   1.721   6.324  0.4580 -0.9700  1.1662
  174SLPC   C1519636   1.225   1.784   6.557 -0.1944 -0.4695 -0.1299
  174SLPC  H15A19637   1.155   1.702   6.568 -1.8785  1.0872  1.4261
  174SLPC  H15B19638   1.306   1.751   6.621  0.5217  0.1238 -0.7158
  174SLPC  H15C19639   1.187   1.876   6.598  1.2163 -1.3966  3.6763
  174SLPC   C1219640   1.370   1.710   6.365 -0.0413  0.1207  0.1435
  174SLPC  H12A19641   1.393   1.731   6.261  2.0939 -0.1603  0.5054
  174SLPC  H12B19642   1.328   1.611   6.371  1.4789 -0.6088 -0.5901
  174SLPC   C1119643   1.509   1.691   6.438 -0.3192  0.0015 -0.1358
  174SLPC  H11A19644   1.553   1.598   6.394  0.2073  0.6784 -1.0774
  174SLPC  H11B19645   1.489   1.681   6.547  0.1129  2.8763  0.2824
  174SLPC     P19646   1.669   1.844   6.302 -0.0614 -0.4553 -0.2774
  174SLPC   O1319647   1.584   1.825   6.189 -0.0929  0.0651 -0.1788
  174SLPC   O1419648   1.720   1.980   6.334  0.2369  0.4330  0.6305
  174SLPC   O1219649   1.595   1.799   6.425  0.0916 -0.4487 -0.4360
  174SLPC   O1119650   1.790   1.742   6.297 -0.1802 -0.4344 -0.1711
  174SLPC    C119651   1.907   1.781   6.225  0.2578  0.2843 -0.3360
  174SLPC    HA19652   1.948   1.884   6.235 -2.2399  1.3291 -0.1665
  174SLPC    HB19653   1.998   1.721   6.247  0.8689  1.2902 -0.0492
  174SLPC    C219654   1.883   1.755   6.072  0.5519 -0.5427  0.2174
  174SLPC    HS19655   1.980   1.761   6.019  0.0935  0.7945 -0.4884
  174SLPC   O2119656   1.786   1.843   6.015 -0.1466 -0.0355  0.6172
  174SLPC   C2119657   1.822   1.968   5.994 -0.3471 -0.0895 -0.7033
  174SLPC   O2219658   1.928   2.021   6.022  1.1640 -0.1149  0.2746
  174SLPC   C2219659   1.710   2.048   5.924  0.1266  1.1831 -0.6827
  174SLPC   H2R19660   1.610   2.031   5.970  0.1896  0.4650 -0.7971
  174SLPC   H2S19661   1.730   2.157   5.922 -0.7049  1.3328 -1.7174
  174SLPC    C319662   1.825   1.611   6.063 -0.2238 -0.1440  0.6330
  174SLPC    HX19663   1.727   1.592   6.112 -0.8490 -2.3196 -1.2652
  174SLPC    HY19664   1.906   1.551   6.111  0.4098  2.1303  2.5901
  174SLPC   O3119665   1.807   1.574   5.925  0.5055 -0.5980  0.6096
  174SLPC   C3119666   1.792   1.441   5.913  0.5491 -0.5092  0.6885
  174SLPC   O3219667   1.771   1.370   6.009  0.1184  0.0720  0.5380
  174SLPC   C3219668   1.806   1.401   5.770  0.0653 -0.0695  0.4065
  174SLPC   H2X19669   1.774   1.294   5.765 -1.6068  0.4147 -0.1412
  174SLPC   H2Y19670   1.909   1.423   5.736  0.1243 -0.5511  0.2659
  174SLPC   C2319671   1.684   2.009   5.779  0.0409 -0.3789 -0.1716
  174SLPC   H3R19672   1.590   2.062   5.753  1.1988  1.6505 -0.4503
  174SLPC   H3S19673   1.661   1.900   5.776  0.7781 -0.6396  1.9021
  174SLPC   C2419674   1.795   2.037   5.673 -0.8182  0.6073  0.0244
  174SLPC   H4R19675   1.883   1.977   5.706 -0.7205 -0.1153 -1.4634
  174SLPC   H4S19676   1.821   2.145   5.677  0.0377  0.5114 -1.9634
  174SLPC   C2519677   1.759   1.989   5.533  0.0904  0.1735 -0.0447
  174SLPC   H5R19678   1.658   2.033   5.522 -0.5223 -0.6553  1.8910
  174SLPC   H5S19679   1.745   1.879   5.529  0.3056  0.1615 -0.7965
  174SLPC   C2619680   1.870   2.023   5.427  0.3271  0.5138 -0.8527
  174SLPC   H6R19681   1.966   1.999   5.476 -0.1660  3.3447  1.7990
  174SLPC   H6S19682   1.875   2.133   5.412 -1.1238  0.4775 -1.9286
  174SLPC   C2719683   1.834   1.953   5.294  0.2037  0.3395 -0.0021
  174SLPC   H7R19684   1.814   1.845   5.314 -0.3711  0.8595  2.6496
  174SLPC   H7S19685   1.923   1.954   5.228 -0.0088  0.9644 -0.2815
  174SLPC   C2819686   1.704   2.014   5.242 -0.2200 -0.8144  0.1307
  174SLPC   H8R19687   1.722   2.123   5.227 -0.5527 -1.0052 -1.9107
  174SLPC   H8S19688   1.611   2.006   5.303 -1.3089  1.1153 -1.1786
  174SLPC   C2919689   1.669   1.950   5.114  0.2578  0.0551 -0.8853
  174SLPC   H9R19690   1.615   1.855   5.131 -2.3780  1.6532  0.2736
  174SLPC  C21019691   1.697   1.990   4.990 -0.1884 -0.7952 -0.0067
  174SLPC  H10R19692   1.659   1.938   4.901  0.0343  0.6938 -1.0179
  174SLPC  C21119693   1.778   2.116   4.954  0.0121 -0.2625 -0.0419
  174SLPC  H11R19694   1.809   2.189   5.032 -1.2289  0.0404  0.1936
  174SLPC  H11S19695   1.715   2.172   4.881  1.5105  2.3874  0.5477
  174SLPC  C21219696   1.901   2.067   4.877  0.2810  0.1862 -0.4636
  174SLPC  H12R19697   1.986   2.039   4.941 -0.9046 -1.2107  0.5660
  174SLPC  C21319698   1.902   2.057   4.743 -0.6623  0.3801  0.1088
  174SLPC  H13R19699   1.996   2.021   4.698 -1.8863 -0.6554 -1.7745
  174SLPC  C21419700   1.782   2.098   4.653  0.3092 -0.1695  0.8082
  174SLPC  H14R19701   1.770   2.208   4.662 -0.1832 -0.2997  2.0002
  174SLPC  H14S19702   1.689   2.058   4.697 -0.2773  1.2480  0.9285
  174SLPC  C21519703   1.794   2.034   4.512  0.3564  0.1235  0.0132
  174SLPC  H15R19704   1.823   1.927   4.519  3.3895  0.9600  3.1850
  174SLPC  H15S19705   1.887   2.074   4.466 -0.3672  1.2160 -0.5430
  174SLPC  C21619706   1.683   2.087   4.409 -0.5089  0.6778 -0.4623
  174SLPC  H16R19707   1.589   2.035   4.436 -0.1804 -1.2004 -2.6182
  174SLPC  H16S19708   1.699   2.062   4.302 -1.2005  0.0983 -0.4366
  174SLPC  C21719709   1.659   2.240   4.425  1.0494  0.3321 -0.9622
  174SLPC  H17R19710   1.756   2.294   4.437  1.2861 -0.1315 -0.7440
  174SLPC  H17S19711   1.608   2.252   4.523  2.4033 -1.2772  0.0080
  174SLPC  C21819712   1.571   2.297   4.318  0.2895  0.0815  0.2958
  174SLPC  H18R19713   1.625   2.299   4.220 -1.0262 -2.2212 -0.5556
  174SLPC  H18S19714   1.544   2.403   4.332  1.1896  0.1777  1.4249
  174SLPC  H18T19715   1.479   2.237   4.303 -0.4022  1.0291  0.6974
  174SLPC   C3319716   1.714   1.473   5.667 -0.1804 -0.7574  0.2632
  174SLPC   H3X19717   1.745   1.580   5.666 -0.1489 -0.7101 -2.7807
  174SLPC   H3Y19718   1.606   1.465   5.691 -0.4052  0.5043 -0.2069
  174SLPC   C3419719   1.759   1.431   5.528  0.1180 -0.0223 -0.1196
  174SLPC   H4X19720   1.749   1.320   5.519  1.4292 -0.2654  1.0795
  174SLPC   H4Y19721   1.863   1.461   5.508 -0.1432  1.5719  0.7787
  174SLPC   C3519722   1.676   1.499   5.414 -0.1518  0.1347  0.5863
  174SLPC   H5X19723   1.680   1.608   5.437  2.1161  0.1554  0.3096
  174SLPC   H5Y19724   1.573   1.460   5.404 -0.9575  2.6624 -3.7977
  174SLPC   C3619725   1.736   1.461   5.272  0.2985 -0.0451 -0.1233
  174SLPC   H6X19726   1.731   1.353   5.248  1.1612  0.2264 -1.7118
  174SLPC   H6Y19727   1.844   1.488   5.282 -0.1413  1.3644  1.2914
  174SLPC   C3719728   1.687   1.540   5.148  0.2592  0.5444  0.3685
  174SLPC   H7X19729   1.683   1.650   5.164  2.4735  1.0507 -1.9732
  174SLPC   H7Y19730   1.587   1.511   5.109  0.2967  0.7104  0.1467
  174SLPC   C3819731   1.783   1.527   5.032 -0.9764  0.0861  0.1084
  174SLPC   H8X19732   1.808   1.420   5.017  1.1966  0.3863  1.1957
  174SLPC   H8Y19733   1.883   1.567   5.059  0.6829 -3.4177 -0.2637
  174SLPC   C3919734   1.724   1.601   4.906 -0.1468  0.1340 -0.2019
  174SLPC   H9X19735   1.735   1.710   4.926 -0.0740 -0.0430  0.8027
  174SLPC   H9Y19736   1.616   1.578   4.898  0.1927 -1.7247  0.0954
  174SLPC  C31019737   1.803   1.562   4.784 -0.4521 -0.3936 -0.1483
  174SLPC  H10X19738   1.807   1.455   4.756 -0.9355 -0.0605 -1.5726
  174SLPC  H10Y19739   1.913   1.561   4.797  0.0300 -1.5335 -3.2913
  174SLPC  C31119740   1.753   1.634   4.656  0.1986  0.3212 -0.2201
  174SLPC  H11X19741   1.765   1.745   4.660 -1.5387  0.5231  0.4173
  174SLPC  H11Y19742   1.648   1.605   4.635  0.4994 -0.4324 -0.7003
  174SLPC  C31219743   1.823   1.591   4.527  0.8929  0.0636 -0.1339
  174SLPC  H12X19744   1.789   1.486   4.515  0.7817  0.0953 -0.1009
  174SLPC  H12Y19745   1.933   1.582   4.541  0.9630 -1.1981 -1.4084
  174SLPC  C31319746   1.789   1.665   4.394 -0.0030  0.4109 -0.2835
  174SLPC  H13X19747   1.853   1.749   4.359 -0.6247  1.0411  0.0893
  174SLPC  H13Y19748   1.694   1.714   4.426 -1.0042  0.0695 -2.5353
  174SLPC  C31419749   1.772   1.568   4.274 -0.1979 -0.0043 -0.7592
  174SLPC  H14X19750   1.719   1.633   4.201  0.8680 -0.0304 -1.5793
  174SLPC  H14Y19751   1.716   1.477   4.304  0.1578 -0.1349 -0.4893
  174SLPC  C31519752   1.906   1.529   4.209  0.3454 -0.0854 -0.5148
  174SLPC  H15X19753   1.948   1.446   4.270 -1.1002 -0.4981 -0.0257
  174SLPC  H15Y19754   1.979   1.612   4.215 -0.1725  0.4155 -0.9445
  174SLPC  C31619755   1.883   1.500   4.061 -0.0346 -0.1278  0.0607
  174SLPC  H16X19756   1.835   1.584   4.006  0.9258 -0.6866 -1.7021
  174SLPC  H16Y19757   1.802   1.423   4.060  0.8480 -1.0838 -1.5835
  174SLPC  C31719758   2.003   1.441   3.990  0.0908  0.1684 -0.3267
  174SLPC  H17X19759   2.048   1.370   4.063  0.1677  0.9880  0.4268
  174SLPC  H17Y19760   2.080   1.519   3.974  2.1571 -1.6304  0.3381
  174SLPC  C31819761   1.978   1.371   3.860  0.0186 -0.0991 -0.1157
  174SLPC  H18X19762   2.062   1.312   3.819  3.4821  3.7843  0.6688
  174SLPC  H18Y19763   1.968   1.443   3.776 -1.5105  1.9350  1.6763
  174SLPC  H18Z19764   1.883   1.314   3.856 -0.2399  0.3842 -2.7909
  175SLPC     N19765   4.795   3.672   7.019  0.1235 -0.3534 -0.0952
  175SLPC   C1319766   4.745   3.644   7.159  0.0938  0.0083 -0.0902
  175SLPC  H13A19767   4.658   3.705   7.174 -2.2718 -2.7163 -1.6262
  175SLPC  H13B19768   4.715   3.542   7.177 -0.3024  0.2773  0.8012
  175SLPC  H13C19769   4.819   3.671   7.232  0.6969 -0.5190 -0.4844
  175SLPC   C1419770   4.903   3.571   6.995  0.1771 -0.2224  0.3966
  175SLPC  H14A19771   4.869   3.469   7.004 -0.7720 -0.1658 -1.8453
  175SLPC  H14B19772   4.937   3.575   6.893 -0.4389 -3.5906 -0.0492
  175SLPC  H14C19773   4.994   3.578   7.054 -0.6673 -0.5437  1.7912
  175SLPC   C1519774   4.853   3.816   7.012  0.0213 -0.8333 -0.4901
  175SLPC  H15A19775   4.942   3.829   7.072 -1.1457  2.8747  0.6726
  175SLPC  H15B19776   4.869   3.850   6.911  1.2607 -1.9915 -0.7195
  175SLPC  H15C19777   4.797   3.885   7.073  3.8580  0.6006  1.7799
  175SLPC   C1219778   4.688   3.663   6.916  0.2764 -0.2697  0.5929
  175SLPC  H12A19779   4.670   3.556   6.912  1.8502 -0.5583  0.6704
  175SLPC  H12B19780   4.726   3.685   6.818 -0.4681 -0.5253  0.2411
  175SLPC   C1119781   4.556   3.736   6.942  0.1747 -0.1900  0.3798
  175SLPC  H11A19782   4.516   3.730   7.045  0.1750  1.5038  0.4967
  175SLPC  H11B19783   4.473   3.690   6.883  0.4381 -1.8477  1.2405
  175SLPC     P19784   4.595   3.960   6.792  0.1615  0.3278 -0.2352
  175SLPC   O1319785   4.487   4.058   6.790  0.3661 -0.0126 -0.2666
  175SLPC   O1419786   4.733   4.016   6.781  0.8773  0.0429  0.7229
  175SLPC   O1219787   4.582   3.876   6.925  0.3892  0.3055 -0.3706
  175SLPC   O1119788   4.567   3.857   6.665  0.3151 -0.5660 -0.3080
  175SLPC    C119789   4.428   3.803   6.644  0.0583 -1.0704 -0.0202
  175SLPC    HA19790   4.429   3.693   6.656  0.6304 -1.2624 -1.6167
  175SLPC    HB19791   4.361   3.840   6.724  0.1646 -0.2358 -0.3044
  175SLPC    C219792   4.361   3.847   6.512 -0.4253  0.0598 -0.8058
  175SLPC    HS19793   4.255   3.815   6.519 -0.1757 -0.5480  0.4553
  175SLPC   O2119794   4.439   3.792   6.407  0.2872  0.3630 -0.1907
  175SLPC   C2119795   4.368   3.737   6.312  0.7508 -0.8361  0.2764
  175SLPC   O2219796   4.248   3.729   6.303 -0.5171 -0.1429  0.6012
  175SLPC   C2219797   4.473   3.669   6.211 -0.0602 -0.4093  0.4743
  175SLPC   H2R19798   4.559   3.740   6.206 -0.5534  0.2639  1.2403
  175SLPC   H2S19799   4.522   3.586   6.267 -1.9674 -0.9761  1.3873
  175SLPC    C319800   4.365   4.003   6.517  0.6501 -0.7610  0.5670
  175SLPC    HX19801   4.463   4.050   6.540  0.4220  0.3995 -0.6914
  175SLPC    HY19802   4.296   4.052   6.589  1.6433  1.3133  0.1958
  175SLPC   O3119803   4.326   4.055   6.385  0.5327 -0.3107 -0.1615
  175SLPC   C3119804   4.198   4.066   6.364  0.3982 -0.4301  0.1377
  175SLPC   O3219805   4.111   4.035   6.447 -0.4680  0.0228  0.0025
  175SLPC   C3219806   4.171   4.142   6.226  1.1354  0.2326 -0.4168
  175SLPC   H2X19807   4.214   4.243   6.245 -2.5600  2.3540 -2.0765
  175SLPC   H2Y19808   4.061   4.141   6.215  1.1063 -0.4155 -0.1073
  175SLPC   C2319809   4.417   3.614   6.077 -0.6993 -0.5151  0.6864
  175SLPC   H3R19810   4.382   3.706   6.026 -2.9157  0.3907  3.5221
  175SLPC   H3S19811   4.317   3.568   6.091 -1.0479  0.1656  0.4741
  175SLPC   C2419812   4.517   3.542   5.984  0.2618 -0.1841 -0.4949
  175SLPC   H4R19813   4.465   3.512   5.890 -2.5150  0.9784  0.5820
  175SLPC   H4S19814   4.564   3.452   6.029  0.4358  0.3421  0.3996
  175SLPC   C2519815   4.639   3.634   5.962 -0.2909  0.1376  0.5383
  175SLPC   H5R19816   4.681   3.650   6.064  0.0037  0.1519  0.4171
  175SLPC   H5S19817   4.605   3.734   5.927  2.0239  0.0840 -2.2131
  175SLPC   C2619818   4.750   3.573   5.867 -0.1753 -1.0893 -0.1019
  175SLPC   H6R19819   4.712   3.566   5.763 -0.3658 -2.6347  0.0549
  175SLPC   H6S19820   4.796   3.480   5.906  0.1848 -0.9875 -0.2822
  175SLPC   C2719821   4.878   3.663   5.861 -0.1960 -0.2606  0.4731
  175SLPC   H7R19822   4.926   3.674   5.961 -1.7671  0.8987  1.1320
  175SLPC   H7S19823   4.857   3.759   5.811 -0.1931  0.3029  1.5305
  175SLPC   C2819824   4.984   3.587   5.774  0.1265 -0.2832 -0.6620
  175SLPC   H8R19825   4.930   3.547   5.686 -0.7034 -0.5911 -0.0248
  175SLPC   H8S19826   5.025   3.508   5.840  0.7726  1.7110  1.4702
  175SLPC   C2919827   5.099   3.672   5.724  0.0187  0.2053 -0.2177
  175SLPC   H9R19828   5.143   3.724   5.810 -0.7313 -1.2428  1.0952
  175SLPC  C21019829   5.138   3.700   5.598 -0.1587 -0.1773  0.4544
  175SLPC  H10R19830   5.225   3.764   5.575  0.2828 -1.1809 -0.8790
  175SLPC  C21119831   5.080   3.640   5.474  0.8766 -0.0520 -0.0893
  175SLPC  H11R19832   4.991   3.703   5.453 -0.4205 -1.7362  0.1522
  175SLPC  H11S19833   5.024   3.545   5.481  0.6396  0.0488 -0.5572
  175SLPC  C21219834   5.162   3.626   5.356 -0.4288 -0.5092 -0.3363
  175SLPC  H12R19835   5.263   3.597   5.388 -0.5339  0.9688  1.4970
  175SLPC  C21319836   5.130   3.631   5.226  0.5154  0.3319 -0.7847
  175SLPC  H13R19837   5.213   3.606   5.157  2.6888 -0.5643  1.9737
  175SLPC  C21419838   4.994   3.655   5.166  0.3956  0.1833  0.5356
  175SLPC  H14R19839   4.969   3.763   5.178  2.7032  0.7245  0.9709
  175SLPC  H14S19840   4.913   3.602   5.221  0.0443  0.5897  0.4127
  175SLPC  C21519841   4.989   3.616   5.020 -0.4156 -0.1834  0.0691
  175SLPC  H15R19842   5.055   3.666   4.946 -1.7464  1.6815  0.0739
  175SLPC  H15S19843   4.890   3.654   4.986 -2.5040 -2.5849  2.9369
  175SLPC  C21619844   4.986   3.464   4.999 -0.2977  0.4856 -0.3848
  175SLPC  H16R19845   4.953   3.423   5.097  0.9810 -0.7640 -0.4503
  175SLPC  H16S19846   5.087   3.424   4.975 -0.2250  0.5847 -0.2484
  175SLPC  C21719847   4.884   3.421   4.891 -0.4528 -1.1391  0.0530
  175SLPC  H17R19848   4.908   3.459   4.790  0.5238  1.3582  1.1491
  175SLPC  H17S19849   4.788   3.468   4.922 -0.5615 -2.2856  1.6133
  175SLPC  C21819850   4.867   3.272   4.887  0.2490  0.2459  0.1946
  175SLPC  H18R19851   4.766   3.249   4.847  0.6858 -0.1921 -0.6991
  175SLPC  H18S19852   4.875   3.229   4.989 -0.3638  0.9372  0.5495
  175SLPC  H18T19853   4.946   3.228   4.823  0.1334 -0.6252  0.6416
  175SLPC   C3319854   4.221   4.067   6.103 -0.0002 -0.0457  0.3664
  175SLPC   H3X19855   4.154   3.981   6.083 -0.4975  0.7666 -1.6544
  175SLPC   H3Y19856   4.323   4.028   6.127 -0.0774 -0.4742 -0.0004
  175SLPC   C3419857   4.213   4.153   5.979 -0.5653 -0.2218 -0.3144
  175SLPC   H4X19858   4.289   4.235   5.981  0.1109 -0.8279  2.5070
  175SLPC   H4Y19859   4.112   4.200   5.977  0.4701  2.1470 -0.2787
  175SLPC   C3519860   4.235   4.078   5.847 -0.2354  0.5316 -1.4111
  175SLPC   H5X19861   4.179   3.982   5.855  1.1835 -0.1574  1.4160
  175SLPC   H5Y19862   4.345   4.062   5.849 -0.2271  0.6041  1.3296
  175SLPC   C3619863   4.200   4.160   5.727 -0.4249 -0.4683 -0.2353
  175SLPC   H6X19864   4.280   4.236   5.726  1.1176 -2.0073 -2.7681
  175SLPC   H6Y19865   4.105   4.216   5.742 -2.1956 -2.8123 -1.8555
  175SLPC   C3719866   4.173   4.096   5.591 -0.1257  0.3690  0.7318
  175SLPC   H7X19867   4.253   4.025   5.561  1.0729  1.6487  0.7635
  175SLPC   H7Y19868   4.175   4.175   5.513 -1.5413  1.1528  1.4568
  175SLPC   C3819869   4.040   4.021   5.586  0.3999  0.0080  0.0461
  175SLPC   H8X19870   3.952   4.084   5.612  0.5297  0.0281  0.4370
  175SLPC   H8Y19871   4.041   3.932   5.653  0.4982 -0.8878 -1.1011
  175SLPC   C3919872   4.016   3.968   5.436  0.2447 -0.1530 -0.2813
  175SLPC   H9X19873   3.914   3.924   5.424  0.2254 -0.7715  1.7503
  175SLPC   H9Y19874   4.086   3.883   5.420  0.7012  0.0708  0.4670
  175SLPC  C31019875   4.037   4.068   5.325 -0.1008  0.3053  0.5189
  175SLPC  H10X19876   4.141   4.105   5.322 -0.1157  0.2628 -1.0167
  175SLPC  H10Y19877   3.955   4.143   5.335 -1.6703 -1.3741  0.8487
  175SLPC  C31119878   4.004   4.004   5.184  0.2692 -0.4182 -0.5474
  175SLPC  H11X19879   3.895   3.983   5.192  0.1385  0.3645 -0.1931
  175SLPC  H11Y19880   4.061   3.912   5.156  1.9305  0.1671  0.7398
  175SLPC  C31219881   4.014   4.095   5.067  0.1773  1.0074  0.0782
  175SLPC  H12X19882   4.114   4.089   5.020 -0.4357  0.2724 -1.1856
  175SLPC  H12Y19883   4.011   4.200   5.102  2.4248  0.9512  0.5549
  175SLPC  C31319884   3.895   4.074   4.964 -0.1336  0.1999 -0.0380
  175SLPC  H13X19885   3.807   4.080   5.031  1.6005 -0.0085  2.3884
  175SLPC  H13Y19886   3.904   3.977   4.911 -1.1468  0.9230 -1.6204
  175SLPC  C31419887   3.875   4.189   4.864 -0.3191 -0.2710 -0.3923
  175SLPC  H14X19888   3.977   4.226   4.845 -0.8924  1.0851 -0.9398
  175SLPC  H14Y19889   3.803   4.268   4.895 -0.9248 -0.2909 -1.7084
  175SLPC  C31519890   3.828   4.137   4.727 -0.2679  0.0975 -0.9067
  175SLPC  H15X19891   3.732   4.087   4.750 -0.7266  0.6133 -1.6723
  175SLPC  H15Y19892   3.903   4.070   4.680  1.0152 -0.1982  1.4066
  175SLPC  C31619893   3.788   4.255   4.635 -0.2133 -0.0989 -0.4265
  175SLPC  H16X19894   3.872   4.326   4.617  0.0666  0.0275  1.2074
  175SLPC  H16Y19895   3.707   4.317   4.680  1.3523  1.5075  0.2888
  175SLPC  C31719896   3.745   4.220   4.491 -0.0997  0.1680  0.4877
  175SLPC  H17X19897   3.640   4.183   4.497  0.3262 -1.1273  0.1517
  175SLPC  H17Y19898   3.810   4.145   4.443 -1.5855 -0.1488 -1.1435
  175SLPC  C31819899   3.750   4.348   4.407  0.0386 -0.6734 -0.3901
  175SLPC  H18X19900   3.854   4.383   4.390 -0.5360  0.5460 -1.6819
  175SLPC  H18Y19901   3.698   4.438   4.447  1.2374  0.7229 -1.8280
  175SLPC  H18Z19902   3.714   4.331   4.303 -0.9506 -0.8091 -0.0315
  176SLPC     N19903   4.448   2.229   6.756 -0.3643 -0.2971 -0.4072
  176SLPC   C1319904   4.317   2.279   6.807  0.7956 -0.2190  0.8008
  176SLPC  H13A19905   4.275   2.234   6.896 -2.0071 -0.1548 -0.3988
  176SLPC  H13B19906   4.320   2.384   6.833 -0.0625  0.1214 -0.3670
  176SLPC  H13C19907   4.238   2.261   6.736  1.8800 -2.5755  0.1078
  176SLPC   C1419908   4.548   2.244   6.865 -0.0441 -0.4224 -0.1018
  176SLPC  H14A19909   4.571   2.347   6.888 -2.2582 -0.1298  1.0894
  176SLPC  H14B19910   4.516   2.190   6.953  2.3151 -1.4611  0.1910
  176SLPC  H14C19911   4.639   2.193   6.837 -0.6885 -2.0096  0.6040
  176SLPC   C1519912   4.496   2.314   6.641  0.0894  0.4699  0.5764
  176SLPC  H15A19913   4.596   2.285   6.613  0.6592  3.2949 -0.6219
  176SLPC  H15B19914   4.432   2.310   6.554 -0.0168  2.3287  0.5469
  176SLPC  H15C19915   4.507   2.417   6.669 -0.3666  0.2949  1.4549
  176SLPC   C1219916   4.443   2.082   6.713 -0.5965  0.1257 -0.6580
  176SLPC  H12A19917   4.423   2.023   6.802 -0.3276 -0.4744 -0.9917
  176SLPC  H12B19918   4.544   2.058   6.683  0.2534  1.6853  0.7944
  176SLPC   C1119919   4.341   2.030   6.605  0.0416 -0.0059 -0.3193
  176SLPC  H11A19920   4.242   2.050   6.652 -0.2546  0.1929 -1.0068
  176SLPC  H11B19921   4.359   1.920   6.605 -2.3038 -0.5416  3.1598
  176SLPC     P19922   4.473   2.049   6.365 -0.3627 -0.2287  0.0687
  176SLPC   O1319923   4.529   2.175   6.307 -0.2000  0.5296 -0.1624
  176SLPC   O1419924   4.564   1.954   6.431  0.1443 -0.3427 -0.2247
  176SLPC   O1219925   4.357   2.088   6.473 -0.4699 -0.2557 -0.1312
  176SLPC   O1119926   4.394   1.967   6.263  0.1370  0.2056  0.7261
  176SLPC    C119927   4.279   2.015   6.193 -0.2014  0.1265 -0.2043
  176SLPC    HA19928   4.207   1.931   6.200  0.4346 -0.3656  0.6532
  176SLPC    HB19929   4.228   2.101   6.241  1.4336  0.4314  1.0852
  176SLPC    C219930   4.313   2.050   6.047  0.4245 -0.0398  1.1894
  176SLPC    HS19931   4.212   2.067   6.004  1.2936  0.2306 -0.8585
  176SLPC   O2119932   4.392   1.945   5.981 -0.2495 -0.2035 -0.0761
  176SLPC   C2119933   4.323   1.845   5.953  0.6888 -0.8381  0.1742
  176SLPC   O2219934   4.206   1.828   5.986  0.1676  0.3281  0.8809
  176SLPC   C2219935   4.413   1.746   5.885  0.3456 -0.4985  0.4241
  176SLPC   H2R19936   4.482   1.803   5.819  1.1684  1.5376  2.9047
  176SLPC   H2S19937   4.479   1.706   5.965 -0.3581 -1.0676  0.7249
  176SLPC    C319938   4.377   2.191   6.041  0.1956 -0.1576 -0.8096
  176SLPC    HX19939   4.485   2.180   6.064 -0.0348  0.4112  0.6496
  176SLPC    HY19940   4.340   2.252   6.127  1.6201  0.1289 -0.3754
  176SLPC   O3119941   4.360   2.257   5.914 -0.1412 -0.2589  0.0281
  176SLPC   C3119942   4.239   2.311   5.886  0.3650  0.2065  0.0457
  176SLPC   O3219943   4.146   2.315   5.967  0.0179  0.3239 -0.1391
  176SLPC   C3219944   4.231   2.352   5.740  0.3984  0.2123 -0.3065
  176SLPC   H2X19945   4.288   2.444   5.713  1.1411 -0.8692 -2.7173
  176SLPC   H2Y19946   4.123   2.375   5.723 -0.0087 -0.9606  0.6328
  176SLPC   C2319947   4.331   1.628   5.825  0.0335 -0.9125  0.6039
  176SLPC   H3R19948   4.255   1.590   5.896 -2.8774 -0.6749 -2.1607
  176SLPC   H3S19949   4.404   1.548   5.798  0.7097  0.4805 -2.1121
  176SLPC   C2419950   4.235   1.657   5.710  1.1657  0.1913 -0.3622
  176SLPC   H4R19951   4.158   1.735   5.729 -0.7601 -1.2343 -1.9306
  176SLPC   H4S19952   4.169   1.570   5.688  0.9468  0.0559  0.7548
  176SLPC   C2519953   4.314   1.709   5.597  0.5953 -0.2681 -0.7083
  176SLPC   H5R19954   4.414   1.662   5.598  1.6258  1.7830  0.1647
  176SLPC   H5S19955   4.327   1.818   5.614 -0.9056 -0.0712 -0.6373
  176SLPC   C2619956   4.250   1.697   5.455 -0.2073  0.5996 -0.2289
  176SLPC   H6R19957   4.144   1.729   5.453  0.2612  2.2667  0.0501
  176SLPC   H6S19958   4.252   1.590   5.426 -0.4750  0.5881 -0.2074
  176SLPC   C2719959   4.321   1.770   5.335  0.7647 -0.7175  0.2065
  176SLPC   H7R19960   4.402   1.701   5.304  2.3941 -0.0374  2.6359
  176SLPC   H7S19961   4.386   1.847   5.382 -2.0509 -0.0951  3.4646
  176SLPC   C2819962   4.233   1.819   5.222 -0.6516 -0.5950  0.1778
  176SLPC   H8R19963   4.271   1.919   5.195  0.9585 -1.6279 -1.6208
  176SLPC   H8S19964   4.129   1.831   5.260 -1.1385 -2.1177 -0.5859
  176SLPC   C2919965   4.239   1.728   5.104 -0.7053  0.0637  0.1058
  176SLPC   H9R19966   4.227   1.622   5.131  1.1590 -0.2103  0.0265
  176SLPC  C21019967   4.275   1.759   4.976 -0.3358 -0.0471 -0.1253
  176SLPC  H10R19968   4.288   1.681   4.899  0.1259  1.2727 -1.4349
  176SLPC  C21119969   4.292   1.900   4.922 -0.4819 -0.2228  0.4270
  176SLPC  H11R19970   4.398   1.917   4.897 -0.1872 -2.8542 -0.4903
  176SLPC  H11S19971   4.273   1.977   4.999 -1.7686  0.1418 -0.2188
  176SLPC  C21219972   4.227   1.944   4.793  0.1998 -0.3363 -0.2027
  176SLPC  H12R19973   4.140   2.009   4.813 -0.4112 -1.2275  0.1083
  176SLPC  C21319974   4.260   1.913   4.664 -0.7142  0.5824  0.6979
  176SLPC  H13R19975   4.196   1.955   4.585 -0.7360 -0.7908 -0.0434
  176SLPC  C21419976   4.369   1.822   4.622 -0.3229  0.6267  0.5933
  176SLPC  H14R19977   4.325   1.738   4.565  0.9682 -1.1445  2.0630
  176SLPC  H14S19978   4.422   1.785   4.713  3.1035 -3.3181 -2.5957
  176SLPC  C21519979   4.474   1.891   4.528  0.6844  0.1266  0.2071
  176SLPC  H15R19980   4.547   1.813   4.497  0.3978  0.2230 -0.7376
  176SLPC  H15S19981   4.522   1.977   4.579 -0.0867  1.2873 -0.9513
  176SLPC  C21619982   4.419   1.940   4.393  0.5010  0.6871 -0.2497
  176SLPC  H16R19983   4.373   2.040   4.406  0.5837  0.9256 -1.5988
  176SLPC  H16S19984   4.345   1.862   4.362  0.9623  1.2918 -3.2292
  176SLPC  C21719985   4.527   1.958   4.285  1.0008  0.1961  0.1040
  176SLPC  H17R19986   4.595   1.871   4.275  0.6303  0.1564 -2.7842
  176SLPC  H17S19987   4.583   2.045   4.324  1.1734  0.5527 -0.9271
  176SLPC  C21819988   4.464   1.984   4.149 -0.4193 -0.6748 -0.5132
  176SLPC  H18R19989   4.389   2.065   4.156  1.8363  1.9010 -3.4154
  176SLPC  H18S19990   4.419   1.887   4.117 -3.1163 -0.1588  1.3826
  176SLPC  H18T19991   4.547   2.026   4.089  1.5313 -1.3730  1.5627
  176SLPC   C3319992   4.280   2.243   5.647 -0.1424 -0.6526 -0.1406
  176SLPC   H3X19993   4.237   2.143   5.671 -0.1434 -0.9742 -1.4187
  176SLPC   H3Y19994   4.389   2.238   5.664 -0.1685 -1.8912 -0.2432
  176SLPC   C3419995   4.250   2.275   5.495 -0.3848  0.6675  0.1782
  176SLPC   H4X19996   4.313   2.363   5.469 -0.9101  0.4161 -2.1458
  176SLPC   H4Y19997   4.141   2.280   5.472 -0.8628 -2.1544  1.4116
  176SLPC   C3519998   4.314   2.166   5.407 -0.3275 -0.2302  0.0204
  176SLPC   H5X19999   4.266   2.067   5.426 -1.5192  0.4881  0.9240
  176SLPC   H5Y20000   4.419   2.162   5.444 -0.6567 -1.5300  0.9273
  176SLPC   C3620001   4.305   2.210   5.257 -0.1490  0.9544  0.2618
  176SLPC   H6X20002   4.319   2.119   5.196 -2.6334  1.3096 -0.9923
  176SLPC   H6Y20003   4.389   2.281   5.240  0.6051  0.1462  0.5598
  176SLPC   C3720004   4.173   2.280   5.208  0.4027  0.3383 -0.4569
  176SLPC   H7X20005   4.172   2.385   5.244  2.3571 -0.0504  0.9268
  176SLPC   H7Y20006   4.090   2.237   5.268  0.5437  0.8628  0.1163
  176SLPC   C3820007   4.153   2.264   5.062  0.7016 -0.3231  0.3191
  176SLPC   H8X20008   4.049   2.295   5.038 -0.3241 -1.3738  2.9716
  176SLPC   H8Y20009   4.162   2.155   5.046 -0.9679 -0.5974  1.0012
  176SLPC   C3920010   4.246   2.347   4.974 -0.8525  0.4277  0.3467
  176SLPC   H9X20011   4.350   2.310   4.987  0.8302  4.1270 -1.1670
  176SLPC   H9Y20012   4.247   2.454   5.005  0.7399  0.2963  0.8362
  176SLPC  C31020013   4.210   2.338   4.827 -0.4904 -0.9369  0.2817
  176SLPC  H10X20014   4.117   2.395   4.805 -1.1100 -2.0971 -0.1842
  176SLPC  H10Y20015   4.188   2.232   4.805 -0.6754 -1.3043  2.0398
  176SLPC  C31120016   4.320   2.387   4.728  0.0266 -0.0692 -0.2456
  176SLPC  H11X20017   4.417   2.362   4.776 -1.2335  0.7096  2.9594
  176SLPC  H11Y20018   4.327   2.498   4.733  0.8173 -0.1440  4.2500
  176SLPC  C31220019   4.310   2.338   4.585 -0.2116  0.1672  0.9797
  176SLPC  H12X20020   4.205   2.355   4.553 -0.0664 -0.9947 -0.1904
  176SLPC  H12Y20021   4.317   2.227   4.581 -0.2002  0.1793  0.6613
  176SLPC  C31320022   4.405   2.410   4.479  0.2255  0.2531  0.2829
  176SLPC  H13X20023   4.505   2.385   4.519 -0.3768 -1.2311  0.9454
  176SLPC  H13Y20024   4.399   2.520   4.493  1.3074  0.0596  2.8860
  176SLPC  C31420025   4.384   2.362   4.331 -0.1211  0.3523 -0.2408
  176SLPC  H14X20026   4.350   2.257   4.344  0.6468 -0.4239 -3.6213
  176SLPC  H14Y20027   4.484   2.352   4.284  0.5188 -1.6133  1.3790
  176SLPC  C31520028   4.271   2.438   4.253  0.3245 -0.1486  0.3841
  176SLPC  H15X20029   4.292   2.546   4.238 -1.6697  0.1258 -0.8483
  176SLPC  H15Y20030   4.179   2.431   4.316  0.3883 -0.1732  0.4756
  176SLPC  C31620031   4.235   2.369   4.121 -0.0485  0.0849  0.1164
  176SLPC  H16X20032   4.126   2.386   4.104  0.3550  1.6306 -1.1227
  176SLPC  H16Y20033   4.251   2.263   4.150  1.2811  0.6006  1.3965
  176SLPC  C31720034   4.313   2.399   3.989 -0.1977  0.0060 -0.3688
  176SLPC  H17X20035   4.288   2.500   3.950  0.0942  0.8359  1.4654
  176SLPC  H17Y20036   4.264   2.331   3.917  1.1466 -1.7191  0.2500
  176SLPC  C31820037   4.464   2.368   3.990 -0.6822  0.0101 -0.5283
  176SLPC  H18X20038   4.476   2.279   4.056 -0.5209  0.2374 -0.2493
  176SLPC  H18Y20039   4.519   2.454   4.034  0.9959 -1.7980  1.1182
  176SLPC  H18Z20040   4.499   2.346   3.887 -0.4646 -0.2033 -0.4088
  177SLPC     N20041   0.547   4.058   6.370 -0.0241 -0.2634 -0.0248
  177SLPC   C1320042   0.577   3.945   6.459 -0.2023  0.0168  0.4210
  177SLPC  H13A20043   0.561   3.855   6.400 -0.4299  0.9284 -0.9546
  177SLPC  H13B20044   0.681   3.930   6.485  0.2786 -1.0691 -1.8304
  177SLPC  H13C20045   0.520   3.940   6.550 -0.2945 -0.7735  0.3334
  177SLPC   C1420046   0.636   4.028   6.250  0.0897 -0.5292 -0.9942
  177SLPC  H14A20047   0.632   4.100   6.169  1.3662 -0.2025 -0.7868
  177SLPC  H14B20048   0.737   4.024   6.289  0.3331  0.6512 -1.4432
  177SLPC  H14C20049   0.617   3.929   6.212 -0.8124 -1.7869  2.4515
  177SLPC   C1520050   0.592   4.191   6.427 -0.1492 -0.1788 -0.1538
  177SLPC  H15A20051   0.568   4.275   6.364 -0.0625 -0.3322 -0.3959
  177SLPC  H15B20052   0.550   4.213   6.524  1.4255  2.0445  0.0858
  177SLPC  H15C20053   0.699   4.193   6.440 -0.3854  0.7280  1.9780
  177SLPC   C1220054   0.402   4.068   6.330  0.3209 -0.8442  0.3458
  177SLPC  H12A20055   0.378   4.153   6.268  0.1033 -1.5332 -0.5228
  177SLPC  H12B20056   0.346   4.094   6.419 -0.5088  0.6583 -0.5766
  177SLPC   C1120057   0.338   3.941   6.261 -0.3659  0.5534  0.2525
  177SLPC  H11A20058   0.400   3.921   6.171 -2.9594 -0.8283 -1.3126
  177SLPC  H11B20059   0.233   3.957   6.231 -0.5368 -1.3400 -0.2511
  177SLPC     P20060   0.341   3.684   6.311  0.5202  0.2493 -0.5236
  177SLPC   O1320061   0.475   3.630   6.347  0.3564 -0.0829 -0.2050
  177SLPC   O1420062   0.223   3.610   6.371 -0.1878 -0.6855 -0.0165
  177SLPC   O1220063   0.340   3.833   6.356 -0.1975 -0.3747  0.8440
  177SLPC   O1120064   0.323   3.678   6.158 -0.4255  0.1268 -0.3685
  177SLPC    C120065   0.293   3.555   6.097 -0.2305  0.1703  0.1801
  177SLPC    HA20066   0.351   3.468   6.135  1.1353 -0.4023 -2.8983
  177SLPC    HB20067   0.186   3.529   6.107 -0.9658  2.4858 -0.9655
  177SLPC    C220068   0.331   3.553   5.946  0.4612  0.2927 -0.2833
  177SLPC    HS20069   0.258   3.482   5.901  0.0776 -0.9610  2.1207
  177SLPC   O2120070   0.473   3.524   5.923  0.3939  0.4470  0.1492
  177SLPC   C2120071   0.497   3.439   5.825  0.2532  0.3060  1.0087
  177SLPC   O2220072   0.423   3.367   5.762  0.3891 -0.4351  0.3210
  177SLPC   C2220073   0.646   3.454   5.790 -0.0780 -0.3954  0.1073
  177SLPC   H2R20074   0.707   3.424   5.878  0.1302 -1.3952 -0.3575
  177SLPC   H2S20075   0.668   3.370   5.720  2.7416  1.5259 -1.4740
  177SLPC    C320076   0.289   3.685   5.872  0.7139 -0.7991 -0.8392
  177SLPC    HX20077   0.362   3.764   5.899 -0.7384  0.6887 -1.1557
  177SLPC    HY20078   0.190   3.722   5.906  1.6421 -2.0384  4.0988
  177SLPC   O3120079   0.304   3.667   5.728  0.2661  0.0257  0.0136
  177SLPC   C3120080   0.203   3.600   5.669 -0.7950 -0.6985 -0.3204
  177SLPC   O3220081   0.096   3.581   5.719 -0.4907 -0.2656  0.5330
  177SLPC   C3220082   0.238   3.556   5.524 -0.3236  0.1605 -0.4107
  177SLPC   H2X20083   0.218   3.448   5.506  0.4544 -0.0389 -0.1502
  177SLPC   H2Y20084   0.346   3.570   5.502 -0.7399  1.6512 -1.6762
  177SLPC   C2320085   0.694   3.591   5.736  0.3975  0.0616  0.0330
  177SLPC   H3R20086   0.804   3.592   5.720  0.4784  1.9817  0.4128
  177SLPC   H3S20087   0.673   3.667   5.815 -1.5796  1.8413 -2.0559
  177SLPC   C2420088   0.620   3.642   5.602  0.1312 -0.2440 -0.4239
  177SLPC   H4R20089   0.564   3.736   5.626 -1.5765 -1.7193  1.8210
  177SLPC   H4S20090   0.533   3.578   5.576 -0.9923  1.0273  0.0811
  177SLPC   C2520091   0.709   3.662   5.477 -0.2680 -0.1906 -1.2055
  177SLPC   H5R20092   0.797   3.594   5.484  0.4019  0.4225 -3.1835
  177SLPC   H5S20093   0.753   3.761   5.498 -1.5413 -0.0216  1.0012
  177SLPC   C2620094   0.639   3.647   5.339 -0.6633  0.0044 -0.1583
  177SLPC   H6R20095   0.584   3.551   5.342 -3.5949  1.4573 -2.3387
  177SLPC   H6S20096   0.709   3.648   5.253 -1.7006  1.8474 -1.0247
  177SLPC   C2720097   0.544   3.762   5.304 -0.6112 -0.1830 -0.6176
  177SLPC   H7R20098   0.580   3.838   5.376  0.4184 -0.5995 -0.6700
  177SLPC   H7S20099   0.444   3.734   5.344  0.0009  1.3734  2.3152
  177SLPC   C2820100   0.547   3.802   5.153  0.8343  0.1418 -0.7430
  177SLPC   H8R20101   0.646   3.814   5.105  1.7587 -2.0554  0.4425
  177SLPC   H8S20102   0.489   3.896   5.147  0.8041  0.3300  1.5694
  177SLPC   C2920103   0.462   3.695   5.082 -0.0744  0.7237  0.5375
  177SLPC   H9R20104   0.405   3.629   5.149  0.5647  1.1603  1.5385
  177SLPC  C21020105   0.451   3.666   4.951  0.2074 -0.6273 -0.0032
  177SLPC  H10R20106   0.394   3.577   4.920 -4.3179  1.2912  2.0562
  177SLPC  C21120107   0.544   3.735   4.852 -0.6215 -0.4218  0.3623
  177SLPC  H11R20108   0.610   3.663   4.799 -0.3584  0.5838 -0.7143
  177SLPC  H11S20109   0.623   3.797   4.899  1.3005 -1.1024 -1.7779
  177SLPC  C21220110   0.462   3.826   4.763  0.6459  0.1267  0.6577
  177SLPC  H12R20111   0.411   3.910   4.815 -2.2067 -0.3350 -1.1782
  177SLPC  C21320112   0.453   3.826   4.627  0.2588 -0.0665 -0.1014
  177SLPC  H13R20113   0.392   3.900   4.573  0.0190 -0.7370 -0.7705
  177SLPC  C21420114   0.532   3.733   4.537 -0.0639 -0.2354 -0.1144
  177SLPC  H14R20115   0.618   3.687   4.590 -0.4036  0.3323  0.9635
  177SLPC  H14S20116   0.573   3.787   4.449  1.2815  1.0057  1.2057
  177SLPC  C21520117   0.444   3.624   4.487 -0.5710 -0.2294 -0.2138
  177SLPC  H15R20118   0.366   3.650   4.412 -0.3087 -0.3480 -0.5310
  177SLPC  H15S20119   0.396   3.572   4.572 -3.1069  0.6669 -1.0159
  177SLPC  C21620120   0.524   3.509   4.420 -0.1824  0.2575  0.6464
  177SLPC  H16R20121   0.453   3.428   4.393 -2.1851  1.7611  1.1418
  177SLPC  H16S20122   0.600   3.471   4.490  2.4327  2.4664 -0.7730
  177SLPC  C21720123   0.593   3.550   4.290  0.3906 -0.2306  0.4166
  177SLPC  H17R20124   0.671   3.477   4.259  1.3316  0.6315  0.7053
  177SLPC  H17S20125   0.649   3.645   4.307  0.1992 -0.2875  1.4267
  177SLPC  C21820126   0.496   3.578   4.175  0.3534 -1.0902  0.3603
  177SLPC  H18R20127   0.432   3.488   4.164  0.7358 -1.2889 -0.3231
  177SLPC  H18S20128   0.555   3.594   4.082 -0.4307 -0.3539 -0.0269
  177SLPC  H18T20129   0.432   3.667   4.192 -0.1446 -1.4446  0.3615
  177SLPC   C3320130   0.162   3.647   5.428 -0.3447 -0.7696 -0.5099
  177SLPC   H3X20131   0.056   3.616   5.416 -0.8738  1.1474 -1.2381
  177SLPC   H3Y20132   0.210   3.619   5.332  0.6102 -1.2226  0.0855
  177SLPC   C3420133   0.175   3.794   5.456  0.2102 -0.4030  0.2020
  177SLPC   H4X20134   0.284   3.817   5.461  0.0236  0.8252 -0.8048
  177SLPC   H4Y20135   0.134   3.811   5.557 -0.5338  0.4472 -0.2322
  177SLPC   C3520136   0.099   3.881   5.360 -0.4422 -0.0953 -0.6528
  177SLPC   H5X20137   0.120   3.986   5.389 -1.2708  0.6998 -2.7958
  177SLPC   H5Y20138  -0.009   3.869   5.386 -0.2679  1.8727  1.2111
  177SLPC   C3620139   0.129   3.860   5.210  0.0315  0.4217 -0.1789
  177SLPC   H6X20140   0.111   3.759   5.167 -0.8478  0.9010 -0.9963
  177SLPC   H6Y20141   0.238   3.876   5.201  0.1173 -1.1171 -3.8872
  177SLPC   C3720142   0.057   3.955   5.108 -0.3769 -0.2374 -0.1603
  177SLPC   H7X20143   0.082   4.063   5.117  3.2664 -0.7346 -2.3893
  177SLPC   H7Y20144  -0.051   3.943   5.129 -0.2243  0.2238  0.9759
  177SLPC   C3820145   0.086   3.889   4.970 -0.3921 -0.3447  0.1017
  177SLPC   H8X20146   0.054   3.783   4.965 -0.2467 -0.3645 -0.3851
  177SLPC   H8Y20147   0.194   3.892   4.944 -0.0469 -1.6955  1.2551
  177SLPC   C3920148  -0.004   3.962   4.866 -0.9092 -0.5617 -0.3638
  177SLPC   H9X20149   0.007   4.073   4.872  0.3856 -0.5596 -1.9470
  177SLPC   H9Y20150  -0.114   3.945   4.873 -1.2004  1.2261 -0.0268
  177SLPC  C31020151   0.033   3.928   4.721  0.0986  0.0335  0.0489
  177SLPC  H10X20152   0.012   3.819   4.712 -1.3472  0.4202 -1.6861
  177SLPC  H10Y20153   0.143   3.940   4.705 -0.0118 -0.0535 -0.8065
  177SLPC  C31120154  -0.055   4.008   4.620  0.5782 -0.1222  0.7492
  177SLPC  H11X20155  -0.040   4.118   4.622 -0.7767  0.1025 -0.2322
  177SLPC  H11Y20156  -0.162   3.990   4.645  0.4369  1.4395  1.3644
  177SLPC  C31220157  -0.021   3.954   4.484  0.1487 -0.2777 -0.3985
  177SLPC  H12X20158  -0.077   3.859   4.474 -0.0689 -0.6618  3.1053
  177SLPC  H12Y20159   0.088   3.932   4.473  0.0459 -1.5082  0.8128
  177SLPC  C31320160  -0.067   4.048   4.367 -0.4431  1.0583 -0.5219
  177SLPC  H13X20161  -0.028   4.148   4.395 -0.3551  1.3919 -1.7900
  177SLPC  H13Y20162  -0.177   4.063   4.373 -0.3914  0.9951  2.2061
  177SLPC  C31420163  -0.023   3.987   4.229 -0.5434 -0.5003  0.1759
  177SLPC  H14X20164  -0.070   3.886   4.223  1.1574 -1.4423  1.8119
  177SLPC  H14Y20165   0.086   3.971   4.221 -0.1811  1.4616  0.8465
  177SLPC  C31520166  -0.062   4.075   4.105  0.0626  0.0478  0.1546
  177SLPC  H15X20167  -0.171   4.097   4.110  0.0578  0.1996 -0.4946
  177SLPC  H15Y20168  -0.037   4.013   4.016  0.3413  0.2388  0.1005
  177SLPC  C31620169   0.008   4.214   4.108 -0.0767 -0.4346  0.1361
  177SLPC  H16X20170   0.116   4.200   4.129  0.3265  4.8568  3.5750
  177SLPC  H16Y20171  -0.025   4.270   4.198 -3.5347  0.1959 -1.3471
  177SLPC  C31720172  -0.013   4.313   3.989  0.6253  0.6431 -0.0826
  177SLPC  H17X20173  -0.114   4.356   4.007  0.9272  2.0971 -1.5779
  177SLPC  H17Y20174  -0.011   4.269   3.887 -0.2242  0.0376  0.1509
  177SLPC  C31820175   0.093   4.421   3.995  0.3302  0.3472 -0.3432
  177SLPC  H18X20176   0.069   4.505   3.926  0.9720  3.7930  3.2381
  177SLPC  H18Y20177   0.193   4.388   3.960  0.4602  0.1533  0.2040
  177SLPC  H18Z20178   0.091   4.464   4.098 -0.2634 -3.2462  1.2964
  178SLPC     N20179   4.648   0.869   6.240  0.0807  0.0613  0.2508
  178SLPC   C1320180   4.519   0.853   6.168  0.5245 -0.2253 -0.2265
  178SLPC  H13A20181   4.539   0.814   6.069 -0.2943 -0.5375 -0.2783
  178SLPC  H13B20182   4.435   0.806   6.217  0.7766 -0.0888  0.3510
  178SLPC  H13C20183   4.496   0.957   6.152  1.8621  0.0478 -0.4750
  178SLPC   C1420184   4.610   0.940   6.368 -0.2288 -0.2312 -0.2625
  178SLPC  H14A20185   4.570   1.038   6.349 -0.0499 -0.2031 -0.4970
  178SLPC  H14B20186   4.538   0.883   6.425  0.7381 -0.3243  0.8977
  178SLPC  H14C20187   4.696   0.959   6.430 -0.8595  1.5337  0.1280
  178SLPC   C1520188   4.746   0.952   6.156  0.3924  0.7758  0.3267
  178SLPC  H15A20189   4.834   0.966   6.218 -0.0578 -1.8190  1.6970
  178SLPC  H15B20190   4.770   0.907   6.061 -0.2356 -2.7706  1.7114
  178SLPC  H15C20191   4.703   1.049   6.139  1.7127  0.9696 -2.5856
  178SLPC   C1220192   4.713   0.731   6.275 -0.2855 -0.2104  0.6313
  178SLPC  H12A20193   4.637   0.660   6.306  0.3194 -1.8014 -1.2504
  178SLPC  H12B20194   4.785   0.754   6.351  0.4489 -0.3473 -0.0067
  178SLPC   C1120195   4.782   0.654   6.154  0.1048 -0.7365  0.3491
  178SLPC  H11A20196   4.712   0.633   6.070  0.2851  0.9646 -0.2649
  178SLPC  H11B20197   4.806   0.554   6.196  1.9188 -0.4769 -0.0048
  178SLPC     P20198   5.038   0.709   6.200 -0.0564  0.3884  0.1766
  178SLPC   O1320199   5.145   0.778   6.129  0.0991 -0.0125  0.4862
  178SLPC   O1420200   5.020   0.751   6.340  0.2502  0.6030 -0.4848
  178SLPC   O1220201   4.906   0.728   6.113 -0.0107  0.2323  0.0823
  178SLPC   O1120202   5.059   0.556   6.195  0.1612  0.0184 -0.6093
  178SLPC    C120203   5.142   0.482   6.117 -0.2475  0.1053  0.3045
  178SLPC    HA20204   5.249   0.506   6.135 -0.3109 -0.3725  1.3936
  178SLPC    HB20205   5.124   0.375   6.142  0.6603 -0.4051 -1.0664
  178SLPC    C220206   5.108   0.499   5.964 -0.7552 -0.1351 -0.4669
  178SLPC    HS20207   5.146   0.600   5.940 -1.3729  0.2634  0.2211
  178SLPC   O2120208   4.967   0.485   5.940  0.0667  0.0157 -0.3220
  178SLPC   C2120209   4.925   0.566   5.847  0.9825  0.5321 -0.1553
  178SLPC   O2220210   4.987   0.652   5.789 -0.1133 -0.1762 -0.5045
  178SLPC   C2220211   4.777   0.533   5.818  0.1209  0.2984 -0.4761
  178SLPC   H2R20212   4.755   0.457   5.896  1.3284 -0.2344 -0.6265
  178SLPC   H2S20213   4.718   0.626   5.828 -0.7605 -0.1115 -1.6379
  178SLPC    C320214   5.203   0.399   5.882  0.0566 -0.1043  0.4695
  178SLPC    HX20215   5.162   0.297   5.903 -1.6881  0.5208  0.2683
  178SLPC    HY20216   5.310   0.409   5.909  0.2266  0.3630 -0.3392
  178SLPC   O3120217   5.188   0.424   5.739  0.3402 -0.5902 -0.2761
  178SLPC   C3120218   5.257   0.527   5.693  0.1828 -0.3663 -0.6315
  178SLPC   O3220219   5.318   0.614   5.760  0.3298 -0.0347  0.5413
  178SLPC   C3220220   5.251   0.513   5.538 -0.3954  0.1211  0.1761
  178SLPC   H2X20221   5.145   0.484   5.520 -0.9091  1.1667  1.3843
  178SLPC   H2Y20222   5.310   0.426   5.502 -1.5288  0.0640 -1.7241
  178SLPC   C2320223   4.754   0.457   5.689  0.3845  0.1193  0.0072
  178SLPC   H3R20224   4.781   0.530   5.610  0.2999  0.3934  0.2280
  178SLPC   H3S20225   4.651   0.416   5.680 -0.1210  1.4441 -0.5549
  178SLPC   C2420226   4.841   0.336   5.669 -0.8970 -0.5179  0.4550
  178SLPC   H4R20227   4.820   0.268   5.754 -1.1408  2.3456  2.8898
  178SLPC   H4S20228   4.944   0.378   5.666 -0.7288 -1.0129 -0.9181
  178SLPC   C2520229   4.838   0.264   5.536  0.2684  0.0758 -0.2922
  178SLPC   H5R20230   4.735   0.223   5.528  1.1658 -2.2749 -0.6040
  178SLPC   H5S20231   4.911   0.181   5.536 -0.4721 -0.5856  0.1612
  178SLPC   C2620232   4.864   0.346   5.411  0.3505 -0.0556  0.9810
  178SLPC   H6R20233   4.950   0.416   5.421 -0.5379  1.1653  0.3294
  178SLPC   H6S20234   4.771   0.407   5.404  0.1277 -0.5224 -0.5132
  178SLPC   C2720235   4.874   0.259   5.283 -0.7309  0.3293  0.6402
  178SLPC   H7R20236   4.781   0.202   5.259  0.5152 -0.6004 -2.3868
  178SLPC   H7S20237   4.955   0.185   5.298 -1.2888 -1.4485 -3.7427
  178SLPC   C2820238   4.900   0.334   5.151 -0.5196 -0.7200  0.6725
  178SLPC   H8R20239   4.991   0.390   5.182  0.5702 -1.1736 -1.5402
  178SLPC   H8S20240   4.829   0.419   5.140  2.4119  1.9657  1.0816
  178SLPC   C2920241   4.932   0.241   5.039 -0.2740  0.3372 -0.5040
  178SLPC   H9R20242   5.037   0.244   5.008  0.3303 -3.5403  0.5792
  178SLPC  C21020243   4.848   0.162   4.969  0.1145 -0.3482  0.0509
  178SLPC  H10R20244   4.895   0.103   4.889  0.4701  0.4342 -0.3312
  178SLPC  C21120245   4.698   0.144   4.992  0.0310  1.0015 -0.4937
  178SLPC  H11R20246   4.648   0.183   4.901  0.9194  0.1541 -1.3774
  178SLPC  H11S20247   4.666   0.213   5.073  0.2949 -0.4736  0.9222
  178SLPC  C21220248   4.657  -0.006   5.012 -0.8268 -0.4760 -0.0141
  178SLPC  H12R20249   4.688  -0.039   5.112 -0.0131 -0.0991 -0.1294
  178SLPC  C21320250   4.607  -0.092   4.919  0.6257  0.4585  0.5421
  178SLPC  H13R20251   4.566  -0.191   4.945 -2.0920  1.2046 -0.5515
  178SLPC  C21420252   4.576  -0.052   4.781 -0.6699  0.5021 -0.0669
  178SLPC  H14R20253   4.633   0.038   4.749 -1.9417  1.7689  1.0913
  178SLPC  H14S20254   4.471  -0.018   4.767 -0.5932  1.3812  1.3436
  178SLPC  C21520255   4.602  -0.174   4.681  0.2744 -1.2635  0.2532
  178SLPC  H15R20256   4.554  -0.257   4.737 -2.0709  0.7982  1.4863
  178SLPC  H15S20257   4.713  -0.186   4.674  0.5105  0.5224  0.5934
  178SLPC  C21620258   4.544  -0.167   4.533  0.1169 -0.9717 -0.0886
  178SLPC  H16R20259   4.561  -0.068   4.486 -2.2062 -0.1540  0.6721
  178SLPC  H16S20260   4.435  -0.185   4.545  0.0418 -0.1693  0.5052
  178SLPC  C21720261   4.595  -0.276   4.443 -0.4111 -0.2274 -0.2458
  178SLPC  H17R20262   4.591  -0.372   4.499  0.9617  0.1441  0.5227
  178SLPC  H17S20263   4.688  -0.242   4.392 -1.2018  1.2464 -0.7586
  178SLPC  C21820264   4.509  -0.284   4.314 -0.3707  0.3920 -0.3577
  178SLPC  H18R20265   4.500  -0.191   4.255  1.2757  0.4286 -0.5860
  178SLPC  H18S20266   4.404  -0.309   4.342 -0.1648 -1.9599 -1.4055
  178SLPC  H18T20267   4.541  -0.371   4.253  1.4866 -0.5298  1.8090
  178SLPC   C3320268   5.288   0.644   5.463 -0.0453  0.3233  0.3480
  178SLPC   H3X20269   5.304   0.622   5.355  0.7985  2.1394  0.0687
  178SLPC   H3Y20270   5.384   0.682   5.502  0.7696 -0.4906 -0.7827
  178SLPC   C3420271   5.176   0.744   5.468  0.0412  0.2455 -0.0100
  178SLPC   H4X20272   5.157   0.768   5.575 -0.1170 -2.3321  0.6057
  178SLPC   H4Y20273   5.087   0.688   5.433  0.0373  0.4578 -0.3481
  178SLPC   C3520274   5.180   0.867   5.384 -0.1843  0.0594  0.0946
  178SLPC   H5X20275   5.266   0.922   5.428 -1.6172  0.8626  2.0234
  178SLPC   H5Y20276   5.082   0.918   5.395 -1.0222 -1.7034  1.1661
  178SLPC   C3620277   5.210   0.850   5.235 -0.2923  0.4765 -0.0950
  178SLPC   H6X20278   5.309   0.800   5.228 -0.7784 -1.1225  2.7044
  178SLPC   H6Y20279   5.217   0.950   5.188 -0.7334 -0.1547 -1.5561
  178SLPC   C3720280   5.098   0.771   5.161  0.0234 -0.4082  0.3438
  178SLPC   H7X20281   4.997   0.816   5.172 -1.1801 -1.9659 -2.9507
  178SLPC   H7Y20282   5.083   0.672   5.210  0.6930 -0.5347  0.3057
  178SLPC   C3820283   5.125   0.754   5.009 -0.2514 -0.2082  0.0433
  178SLPC   H8X20284   5.221   0.699   4.995 -1.0406 -1.8731  0.7891
  178SLPC   H8Y20285   5.137   0.854   4.963  1.4128 -0.9526 -1.2401
  178SLPC   C3920286   5.013   0.668   4.937 -0.1302 -0.3452  0.0580
  178SLPC   H9X20287   4.919   0.726   4.942 -0.1618 -0.3517 -0.4066
  178SLPC   H9Y20288   4.990   0.573   4.989  1.5053 -0.5513  0.4599
  178SLPC  C31020289   5.049   0.636   4.791  0.7556  0.2477 -0.5360
  178SLPC  H10X20290   5.145   0.580   4.796  1.1346  0.9941  1.0877
  178SLPC  H10Y20291   5.084   0.725   4.735 -0.3655  1.4586  0.6345
  178SLPC  C31120292   4.944   0.566   4.709 -0.3873  0.1666  0.1264
  178SLPC  H11X20293   4.845   0.616   4.698 -1.0990 -1.4020 -1.1993
  178SLPC  H11Y20294   4.921   0.466   4.751 -2.6800 -0.3674 -2.0796
  178SLPC  C31220295   4.992   0.544   4.558 -0.0325  0.9069  0.1088
  178SLPC  H12X20296   5.103   0.542   4.559  0.0686  3.4229  0.0402
  178SLPC  H12Y20297   4.970   0.634   4.497 -0.9239  2.7729  2.9803
  178SLPC  C31320298   4.943   0.417   4.491  0.1710  0.4934  0.3294
  178SLPC  H13X20299   4.832   0.415   4.492  0.0602  2.1768 -1.6968
  178SLPC  H13Y20300   4.973   0.321   4.538  0.5231  0.6392  0.4009
  178SLPC  C31420301   4.970   0.435   4.341  0.2300 -0.3195 -0.3265
  178SLPC  H14X20302   5.076   0.463   4.328  0.7254 -2.0652 -0.2552
  178SLPC  H14Y20303   4.902   0.518   4.312 -0.8312  1.1085  5.0771
  178SLPC  C31520304   4.945   0.314   4.248  0.7092 -0.0266 -1.0243
  178SLPC  H15X20305   4.953   0.343   4.141  1.7492  1.4558 -0.5746
  178SLPC  H15Y20306   4.837   0.290   4.262  0.4080  2.1006  0.8203
  178SLPC  C31620307   5.037   0.189   4.288 -0.4974  0.0203  0.1660
  178SLPC  H16X20308   5.025   0.183   4.398 -2.3037  0.0655  0.0024
  178SLPC  H16Y20309   5.139   0.220   4.256 -0.3478  1.0189  1.5422
  178SLPC  C31720310   5.015   0.056   4.215  0.5147  0.4837 -0.2721
  178SLPC  H17X20311   4.912   0.024   4.240  0.3727  1.0629 -0.1029
  178SLPC  H17Y20312   5.087  -0.024   4.245  0.4625  0.3755 -0.4267
  178SLPC  C31820313   5.042   0.071   4.065 -0.7668  0.3388 -0.5852
  178SLPC  H18X20314   5.018  -0.023   4.012  0.3897 -0.2948 -0.0225
  178SLPC  H18Y20315   5.149   0.089   4.039 -0.7311 -0.7351 -1.2423
  178SLPC  H18Z20316   4.977   0.149   4.020 -0.6107 -0.5548 -2.4530
  179SLPC     N20317   2.376   3.851   1.736 -0.9861 -0.0980  0.0294
  179SLPC   C1320318   2.256   3.797   1.808  0.1866  0.6328 -0.5198
  179SLPC  H13A20319   2.169   3.782   1.746 -0.5317 -0.5856  0.7173
  179SLPC  H13B20320   2.287   3.711   1.866 -1.6962  0.4781  0.3202
  179SLPC  H13C20321   2.222   3.868   1.882 -1.0298  0.0510 -0.5061
  179SLPC   C1420322   2.343   3.969   1.654 -0.2597  0.8208 -0.3515
  179SLPC  H14A20323   2.422   4.005   1.591 -1.6089 -1.4752 -3.5942
  179SLPC  H14B20324   2.279   3.935   1.574  1.7178 -0.6604 -1.4018
  179SLPC  H14C20325   2.290   4.045   1.710 -1.5292 -0.0374 -0.3313
  179SLPC   C1520326   2.439   3.747   1.647  0.7174 -0.0786  0.1864
  179SLPC  H15A20327   2.364   3.702   1.584 -1.1335  2.0859  0.7113
  179SLPC  H15B20328   2.517   3.798   1.593  0.9491 -0.3677  0.2437
  179SLPC  H15C20329   2.478   3.669   1.712  3.4463  2.0230  1.2466
  179SLPC   C1220330   2.486   3.882   1.842  0.5384  0.0921  0.5863
  179SLPC  H12A20331   2.461   3.976   1.890 -0.3546 -0.6424  1.6317
  179SLPC  H12B20332   2.581   3.876   1.792 -0.4304 -1.6728 -1.1952
  179SLPC   C1120333   2.492   3.775   1.956 -0.4980  0.0526  0.7089
  179SLPC  H11A20334   2.403   3.793   2.020 -1.9849 -1.3846 -0.8341
  179SLPC  H11B20335   2.572   3.792   2.031 -2.2192 -1.5683  3.0857
  179SLPC     P20336   2.637   3.557   1.911 -0.2063  0.3713 -0.2619
  179SLPC   O1320337   2.613   3.412   1.911  0.1604  0.0346 -0.0770
  179SLPC   O1420338   2.707   3.607   1.787 -0.6311 -1.0912  0.0803
  179SLPC   O1220339   2.502   3.636   1.912  0.4382  0.2626 -0.9393
  179SLPC   O1120340   2.707   3.599   2.044  0.3486  0.3771  0.3635
  179SLPC    C120341   2.644   3.570   2.167  0.0572 -0.4633 -0.1820
  179SLPC    HA20342   2.628   3.662   2.227 -0.8322  0.9376 -2.4401
  179SLPC    HB20343   2.549   3.511   2.163  0.5493 -1.2322 -1.2533
  179SLPC    C220344   2.740   3.479   2.247 -0.5544 -0.2094 -0.2766
  179SLPC    HS20345   2.764   3.387   2.191 -3.7752 -0.3430 -1.6757
  179SLPC   O2120346   2.690   3.440   2.375 -0.0886 -1.2209 -0.0582
  179SLPC   C2120347   2.605   3.343   2.371  0.7087 -0.2087 -0.3323
  179SLPC   O2220348   2.566   3.290   2.270 -0.1173 -0.1287  0.4088
  179SLPC   C2220349   2.557   3.332   2.517  0.1910  0.8195  0.2194
  179SLPC   H2R20350   2.544   3.433   2.563 -1.1499  0.7971 -0.0692
  179SLPC   H2S20351   2.462   3.275   2.513  0.7253 -0.0218 -2.6640
  179SLPC    C320352   2.877   3.557   2.259  0.1738  0.0445 -0.7546
  179SLPC    HX20353   2.863   3.666   2.270  0.5324 -0.1173  2.0510
  179SLPC    HY20354   2.936   3.548   2.165 -1.1190  1.3319 -1.7377
  179SLPC   O3120355   2.960   3.523   2.372  0.5922 -0.0638  0.1267
  179SLPC   C3120356   3.064   3.441   2.365 -0.3115 -0.7200 -0.6916
  179SLPC   O3220357   3.099   3.379   2.268 -0.4535  0.1987  0.0382
  179SLPC   C3220358   3.138   3.433   2.496  0.3731 -0.3236  0.4975
  179SLPC   H2X20359   3.176   3.535   2.520 -0.2013  0.0247 -0.0605
  179SLPC   H2Y20360   3.228   3.369   2.480 -1.4378 -2.6332 -0.9749
  179SLPC   C2320361   2.656   3.261   2.604 -0.1281  0.3669  0.1096
  179SLPC   H3R20362   2.613   3.256   2.707 -0.0443  0.9058  0.1780
  179SLPC   H3S20363   2.750   3.319   2.614 -0.3041  1.1053 -2.0389
  179SLPC   C2420364   2.687   3.115   2.563  0.0607  0.3194  0.2465
  179SLPC   H4R20365   2.736   3.120   2.464 -1.7301  1.6508 -0.6465
  179SLPC   H4S20366   2.595   3.055   2.549 -1.3199  2.4479 -0.3637
  179SLPC   C2520367   2.768   3.049   2.670  0.0102 -0.1596 -0.1932
  179SLPC   H5R20368   2.872   3.087   2.681 -0.1571 -0.0623  1.1811
  179SLPC   H5S20369   2.779   2.943   2.639 -1.4834  0.0804 -1.7018
  179SLPC   C2620370   2.714   3.050   2.813 -0.5743  0.2956 -1.0073
  179SLPC   H6R20371   2.730   3.149   2.862 -0.2654 -1.2886  2.4496
  179SLPC   H6S20372   2.784   2.990   2.875 -1.0959  1.0084  0.3306
  179SLPC   C2720373   2.572   3.004   2.825  0.2058 -0.0895  0.0325
  179SLPC   H7R20374   2.569   2.900   2.787 -0.2444 -0.3808  0.8297
  179SLPC   H7S20375   2.509   3.068   2.760  0.4407 -0.2652 -0.3700
  179SLPC   C2820376   2.524   3.009   2.971  0.4877 -0.5916 -0.8855
  179SLPC   H8R20377   2.602   2.963   3.037  0.5778  1.3347  0.4428
  179SLPC   H8S20378   2.430   2.952   2.978  0.6172 -0.8029 -0.8470
  179SLPC   C2920379   2.490   3.142   3.040 -0.4446 -0.4649  0.0426
  179SLPC   H9R20380   2.556   3.180   3.120 -2.2748 -1.9189  2.3703
  179SLPC  C21020381   2.374   3.204   3.026  0.5800 -0.4541  0.0036
  179SLPC  H10R20382   2.347   3.296   3.081  0.5373 -0.9693  0.8589
  179SLPC  C21120383   2.253   3.149   2.947 -0.2863  0.9150 -0.1718
  179SLPC  H11R20384   2.222   3.059   3.005  0.0309  0.0526 -1.2896
  179SLPC  H11S20385   2.296   3.122   2.848  1.5269  1.4447  0.4197
  179SLPC  C21220386   2.138   3.244   2.938  0.0191 -0.2453  0.4650
  179SLPC  H12R20387   2.124   3.287   2.838 -0.1330  0.0540  0.6122
  179SLPC  C21320388   2.055   3.273   3.041  0.2170  0.3839  0.0284
  179SLPC  H13R20389   1.985   3.357   3.032  1.7525  1.5651 -1.4101
  179SLPC  C21420390   2.050   3.227   3.181  0.2213  0.3464  0.6380
  179SLPC  H14R20391   2.134   3.156   3.200 -0.8625 -0.9058  0.9026
  179SLPC  H14S20392   1.957   3.175   3.212  0.3950  0.0064  0.5925
  179SLPC  C21520393   2.058   3.347   3.278 -0.1529  0.1780 -0.0528
  179SLPC  H15R20394   1.984   3.425   3.249 -0.8139 -0.1822  0.6169
  179SLPC  H15S20395   2.159   3.393   3.275  0.8713 -1.9394  0.0077
  179SLPC  C21620396   2.024   3.311   3.423  0.1708  0.4561  0.4479
  179SLPC  H16R20397   2.099   3.239   3.464  0.0242  0.3316  0.4978
  179SLPC  H16S20398   1.935   3.245   3.419 -0.6784  1.6123 -0.1351
  179SLPC  C21720399   2.000   3.435   3.514 -0.1046  0.5012  0.4783
  179SLPC  H17R20400   1.923   3.496   3.463 -1.8243 -1.4265  0.6447
  179SLPC  H17S20401   2.092   3.497   3.521  0.6690 -0.7186  1.6676
  179SLPC  C21820402   1.946   3.388   3.655 -0.1891 -0.3199  0.9643
  179SLPC  H18R20403   1.913   3.484   3.699  1.9262  0.2431  1.3835
  179SLPC  H18S20404   2.029   3.338   3.709 -0.9167 -2.0840  0.5348
  179SLPC  H18T20405   1.853   3.326   3.651 -0.7930  0.5946  0.5891
  179SLPC   C3320406   3.042   3.383   2.612 -0.3443 -0.3545 -0.0495
  179SLPC   H3X20407   3.008   3.283   2.577  0.0157 -0.5301  0.1025
  179SLPC   H3Y20408   2.949   3.441   2.627 -1.1366 -1.8654  1.1837
  179SLPC   C3420409   3.116   3.366   2.751  0.5232 -0.1667 -0.0370
  179SLPC   H4X20410   3.133   3.473   2.774 -1.9775  1.0173 -3.0574
  179SLPC   H4Y20411   3.211   3.311   2.735  0.2448 -0.8351  0.5827
  179SLPC   C3520412   3.023   3.304   2.856  0.1324 -0.2789 -0.8561
  179SLPC   H5X20413   2.915   3.332   2.857  0.3618  0.6886  0.6569
  179SLPC   H5Y20414   3.022   3.195   2.838 -1.2047 -0.2778 -0.9182
  179SLPC   C3620415   3.080   3.332   3.003  0.3490 -0.5681  0.7169
  179SLPC   H6X20416   3.068   3.441   3.018 -0.4744 -0.7695  1.6868
  179SLPC   H6Y20417   3.188   3.307   3.006  0.8293  1.2299 -0.2582
  179SLPC   C3720418   3.023   3.245   3.119  1.4048 -0.3614  0.5038
  179SLPC   H7X20419   3.049   3.140   3.092  1.5655 -0.2945  0.4012
  179SLPC   H7Y20420   2.914   3.265   3.124  1.1966 -0.7200 -1.7788
  179SLPC   C3820421   3.084   3.290   3.251 -1.5537  0.0655 -0.2314
  179SLPC   H8X20422   3.193   3.308   3.236 -1.0228  2.2985  4.5318
  179SLPC   H8Y20423   3.062   3.215   3.330  0.1693  0.1648  0.3962
  179SLPC   C3920424   3.022   3.420   3.304  0.3638 -0.5516 -0.0015
  179SLPC   H9X20425   2.925   3.434   3.253  1.3286 -2.5502 -2.6807
  179SLPC   H9Y20426   3.096   3.501   3.287  1.7520 -1.2823  2.1651
  179SLPC  C31020427   2.999   3.422   3.457 -0.4571 -0.1877 -0.2694
  179SLPC  H10X20428   2.975   3.528   3.479 -1.4866 -0.4973  0.1358
  179SLPC  H10Y20429   3.091   3.392   3.511 -2.1333 -0.8871  2.3617
  179SLPC  C31120430   2.881   3.343   3.499 -0.1632  0.4867  0.1468
  179SLPC  H11X20431   2.880   3.259   3.426 -0.6055  1.0829 -0.5376
  179SLPC  H11Y20432   2.794   3.408   3.476  0.2472  0.9877 -0.0070
  179SLPC  C31220433   2.873   3.292   3.647  0.0293  0.0706  0.4506
  179SLPC  H12X20434   2.906   3.186   3.639 -2.1016 -0.6856  0.8465
  179SLPC  H12Y20435   2.765   3.286   3.676  0.3760  1.6332  2.2534
  179SLPC  C31320436   2.957   3.362   3.761 -0.2299 -0.1351 -0.3412
  179SLPC  H13X20437   2.921   3.466   3.774 -1.7069 -0.9623  3.1192
  179SLPC  H13Y20438   3.062   3.355   3.724 -0.5157 -1.7456 -0.9007
  179SLPC  C31420439   2.957   3.315   3.908  1.1263  0.2687 -0.3560
  179SLPC  H14X20440   3.044   3.356   3.962  1.2129 -0.7595  0.3211
  179SLPC  H14Y20441   2.963   3.204   3.907 -3.3891 -0.1873  0.5353
  179SLPC  C31520442   2.828   3.343   3.994  0.4591 -0.2685 -0.3233
  179SLPC  H15X20443   2.835   3.301   4.097  0.0802 -0.4605 -0.3716
  179SLPC  H15Y20444   2.744   3.285   3.949 -0.6463  0.1040  1.1918
  179SLPC  C31620445   2.789   3.493   4.010 -0.0629 -0.7113 -0.1387
  179SLPC  H16X20446   2.708   3.504   4.085  1.2063  1.5195  0.9848
  179SLPC  H16Y20447   2.756   3.531   3.911  0.2940  1.9505  0.6969
  179SLPC  C31720448   2.907   3.588   4.047  0.0450 -0.3358  0.1380
  179SLPC  H17X20449   2.867   3.688   4.022  2.0402  0.1108 -1.5658
  179SLPC  H17Y20450   2.993   3.578   3.978  0.3739 -1.4856  0.6820
  179SLPC  C31820451   2.948   3.580   4.192 -0.0743 -0.5941  0.4892
  179SLPC  H18X20452   2.986   3.476   4.201 -0.4296 -0.8865 -1.1620
  179SLPC  H18Y20453   2.860   3.585   4.261  0.9883 -1.1227  1.9358
  179SLPC  H18Z20454   3.025   3.655   4.218  0.2893 -1.2864  1.5005
  180SLPC     N20455   0.918   0.762   1.501 -0.5721  0.5747 -0.0416
  180SLPC   C1320456   0.803   0.672   1.520  0.3260 -0.1117 -0.1858
  180SLPC  H13A20457   0.764   0.682   1.621 -0.4462 -0.8699 -0.3970
  180SLPC  H13B20458   0.725   0.703   1.452 -0.8376  1.9177  1.9104
  180SLPC  H13C20459   0.844   0.574   1.506  0.1758 -0.1594 -0.2890
  180SLPC   C1420460   0.970   0.724   1.361  0.0517 -0.1587 -0.7064
  180SLPC  H14A20461   0.897   0.686   1.291  1.8240 -0.4853 -2.4770
  180SLPC  H14B20462   1.024   0.802   1.310  0.3415  0.2430  0.1912
  180SLPC  H14C20463   1.032   0.635   1.365 -0.7506 -0.9478 -3.4213
  180SLPC   C1520464   1.026   0.732   1.601 -0.3462  0.3638  0.4995
  180SLPC  H15A20465   1.107   0.802   1.586  0.8078 -1.0290  0.1130
  180SLPC  H15B20466   0.995   0.739   1.705 -1.7162  2.0072  0.0350
  180SLPC  H15C20467   1.072   0.636   1.587  0.4259  1.0854 -2.5760
  180SLPC   C1220468   0.870   0.905   1.509 -0.0265  0.3211  0.2711
  180SLPC  H12A20469   0.788   0.902   1.439  0.4709 -1.9698 -0.2966
  180SLPC  H12B20470   0.952   0.958   1.461  0.2915 -1.4644 -1.2940
  180SLPC   C1120471   0.827   0.966   1.645  0.2517 -0.3527 -0.8075
  180SLPC  H11A20472   0.735   0.920   1.688 -0.3837  1.9295  0.4239
  180SLPC  H11B20473   0.789   1.069   1.634 -2.2499 -0.9612  1.2934
  180SLPC     P20474   1.046   1.069   1.763 -0.1503 -0.3533 -0.2346
  180SLPC   O1320475   1.160   0.995   1.701  0.3251 -0.0664 -0.4797
  180SLPC   O1420476   1.003   1.201   1.713 -0.4318 -0.3372 -0.4153
  180SLPC   O1220477   0.928   0.965   1.745 -0.0136 -0.0559  0.2317
  180SLPC   O1120478   1.063   1.076   1.921  0.3036  0.1067  0.2467
  180SLPC    C120479   1.039   1.204   1.987  0.3888  0.2522 -0.7004
  180SLPC    HA20480   0.958   1.263   1.940 -0.0760 -0.6717 -1.0907
  180SLPC    HB20481   1.011   1.195   2.094 -2.6543 -1.0772 -1.5122
  180SLPC    C220482   1.161   1.299   1.991  0.2534 -0.1617 -0.8890
  180SLPC    HS20483   1.183   1.318   1.884 -0.6105  0.1728 -1.0184
  180SLPC   O2120484   1.272   1.237   2.054 -0.0001  0.2961 -0.1709
  180SLPC   C2120485   1.391   1.290   2.034  0.1606  0.2514  0.0582
  180SLPC   O2220486   1.413   1.387   1.966  0.5500  0.0982 -0.1546
  180SLPC   C2220487   1.501   1.207   2.094  0.1899 -0.2140  0.2772
  180SLPC   H2R20488   1.465   1.174   2.194  1.5998 -0.2240  0.8075
  180SLPC   H2S20489   1.519   1.112   2.040 -1.0524 -0.6061  0.5184
  180SLPC    C320490   1.121   1.438   2.051  0.4453 -0.2112 -0.5388
  180SLPC    HX20491   1.055   1.483   1.973  0.9233 -1.4130 -1.6665
  180SLPC    HY20492   1.210   1.505   2.054  2.4638 -2.7118 -0.5616
  180SLPC   O3120493   1.052   1.429   2.173 -0.3544  0.0017 -0.5317
  180SLPC   C3120494   1.142   1.426   2.277 -0.7642  0.1842 -0.4301
  180SLPC   O3220495   1.263   1.432   2.269  0.3449  0.2998  0.0366
  180SLPC   C3220496   1.067   1.397   2.409  0.3620  0.7338 -0.0053
  180SLPC   H2X20497   1.007   1.305   2.395 -0.5752  1.4895 -1.1796
  180SLPC   H2Y20498   0.998   1.481   2.434  0.2826 -0.2083  3.4181
  180SLPC   C2320499   1.638   1.283   2.112 -0.8573 -0.2150 -0.4654
  180SLPC   H3R20500   1.626   1.365   2.185  0.1901  0.5210 -1.0929
  180SLPC   H3S20501   1.666   1.326   2.013 -1.6150 -0.0116 -0.5973
  180SLPC   C2420502   1.750   1.184   2.161  0.2667 -0.1910  0.8462
  180SLPC   H4R20503   1.847   1.237   2.171  0.6959 -0.4925 -1.2417
  180SLPC   H4S20504   1.766   1.108   2.081 -0.6276  1.6448 -1.1824
  180SLPC   C2520505   1.713   1.120   2.295  0.8023  0.3738  0.3256
  180SLPC   H5R20506   1.809   1.069   2.321  0.5359 -0.0966  0.4028
  180SLPC   H5S20507   1.640   1.037   2.282  0.9007  0.5623 -1.5776
  180SLPC   C2620508   1.651   1.214   2.409 -0.2042 -0.0780  0.5405
  180SLPC   H6R20509   1.556   1.254   2.368  0.0168 -0.7803 -0.7238
  180SLPC   H6S20510   1.727   1.296   2.407 -2.0729  1.7302 -1.2103
  180SLPC   C2720511   1.622   1.137   2.538 -0.0102  0.2535 -0.2785
  180SLPC   H7R20512   1.715   1.092   2.580 -1.5382 -0.2884  2.8479
  180SLPC   H7S20513   1.553   1.051   2.524 -1.7359  0.9434  3.0197
  180SLPC   C2820514   1.576   1.236   2.658  0.2944  0.7318  0.1058
  180SLPC   H8R20515   1.560   1.175   2.750 -0.0487  1.2489  0.3929
  180SLPC   H8S20516   1.478   1.267   2.615 -0.7790 -2.2884  0.0733
  180SLPC   C2920517   1.672   1.351   2.683  0.1589  0.5712  0.0498
  180SLPC   H9R20518   1.728   1.394   2.600  0.5694 -0.5726 -0.2876
  180SLPC  C21020519   1.694   1.390   2.806 -0.4674  0.6532 -0.3895
  180SLPC  H10R20520   1.763   1.471   2.831 -1.8265  1.5527  0.6130
  180SLPC  C21120521   1.623   1.345   2.934 -0.2745  0.1953 -0.0868
  180SLPC  H11R20522   1.534   1.284   2.910  0.4740 -0.6685 -0.7358
  180SLPC  H11S20523   1.578   1.433   2.984  0.6530  1.2501 -1.0391
  180SLPC  C21220524   1.717   1.266   3.024  0.7062  0.6015  0.8464
  180SLPC  H12R20525   1.781   1.190   2.976  0.0740  0.4208  0.2635
  180SLPC  C21320526   1.724   1.288   3.153 -0.2817  0.0038  0.5522
  180SLPC  H13R20527   1.795   1.229   3.213  1.0933  1.3078  0.2649
  180SLPC  C21420528   1.659   1.411   3.214  0.3669  0.1304 -0.0725
  180SLPC  H14R20529   1.550   1.404   3.194  0.1731  0.3213  0.8513
  180SLPC  H14S20530   1.698   1.504   3.169  0.4699  0.4502  0.6609
  180SLPC  C21520531   1.690   1.421   3.367  0.3921 -0.2795 -0.2391
  180SLPC  H15R20532   1.798   1.422   3.392  0.1652  0.9896  0.8374
  180SLPC  H15S20533   1.638   1.341   3.424  2.1749 -0.1079  1.7490
  180SLPC  C21620534   1.632   1.552   3.426  0.1239  0.4054  0.2960
  180SLPC  H16R20535   1.675   1.638   3.371 -0.2949  0.3640 -0.1017
  180SLPC  H16S20536   1.668   1.570   3.530  1.2145  0.4460 -0.0704
  180SLPC  C21720537   1.472   1.557   3.427 -0.5698  0.1934  0.4794
  180SLPC  H17R20538   1.427   1.469   3.477 -0.2904 -0.8899 -1.1182
  180SLPC  H17S20539   1.440   1.552   3.321  1.4942 -4.3264 -0.1545
  180SLPC  C21820540   1.409   1.681   3.495  0.6127  0.6341 -0.2387
  180SLPC  H18R20541   1.427   1.771   3.432  1.9615  0.9557  0.5820
  180SLPC  H18S20542   1.462   1.703   3.590 -0.9966  0.9697  0.6197
  180SLPC  H18T20543   1.301   1.671   3.520  0.9262 -0.6847  0.6866
  180SLPC   C3320544   1.165   1.374   2.527 -0.1878  0.2287 -0.1733
  180SLPC   H3X20545   1.237   1.458   2.538 -1.3666  1.0665  1.8134
  180SLPC   H3Y20546   1.227   1.284   2.508 -0.2575 -0.0419  0.7846
  180SLPC   C3420547   1.091   1.361   2.669 -0.4051 -0.2835  0.9357
  180SLPC   H4X20548   1.034   1.456   2.680  0.9840  0.3646  3.3247
  180SLPC   H4Y20549   1.168   1.361   2.749  0.0287  2.2527  0.5790
  180SLPC   C3520550   0.998   1.235   2.680 -1.1829 -0.5857 -0.7610
  180SLPC   H5X20551   1.064   1.148   2.662 -0.1421 -0.1888  0.8354
  180SLPC   H5Y20552   0.911   1.233   2.612 -2.2985 -0.7696  0.6285
  180SLPC   C3620553   0.943   1.228   2.823 -0.3461 -0.3857 -0.0470
  180SLPC   H6X20554   0.858   1.295   2.846 -0.6917 -1.0396  0.6121
  180SLPC   H6Y20555   1.028   1.252   2.890 -0.6661 -1.6256  0.8377
  180SLPC   C3720556   0.875   1.091   2.854 -0.2142  0.1351  0.4413
  180SLPC   H7X20557   0.957   1.019   2.833  2.0185  1.6300  3.3692
  180SLPC   H7Y20558   0.797   1.068   2.779 -0.2055 -1.9089  0.9818
  180SLPC   C3820559   0.822   1.068   2.993  0.0650  0.0576  0.3070
  180SLPC   H8X20560   0.751   0.982   3.000 -0.2178  0.2191 -0.4062
  180SLPC   H8Y20561   0.760   1.156   3.020 -1.6448 -0.3395 -2.0175
  180SLPC   C3920562   0.927   1.058   3.105  0.4164 -0.6131  0.3454
  180SLPC   H9X20563   0.998   1.142   3.091 -1.0794  0.7440  0.5299
  180SLPC   H9Y20564   0.994   0.970   3.096  1.7898  0.5326 -0.9705
  180SLPC  C31020565   0.855   1.062   3.238 -0.0445  0.0350 -0.0801
  180SLPC  H10X20566   0.769   0.991   3.244 -0.2445 -0.1425 -3.3238
  180SLPC  H10Y20567   0.810   1.163   3.249 -0.4515 -0.2231  0.7195
  180SLPC  C31120568   0.955   1.053   3.356 -0.3137  0.5768 -0.0588
  180SLPC  H11X20569   1.013   1.148   3.365  0.0183  0.4091 -0.3912
  180SLPC  H11Y20570   1.033   0.978   3.330 -1.2694 -0.0224 -1.2732
  180SLPC  C31220571   0.883   1.029   3.489 -0.1678 -0.2464 -0.4711
  180SLPC  H12X20572   0.798   1.100   3.479  0.5591  0.6676 -0.2263
  180SLPC  H12Y20573   0.953   1.071   3.564 -2.4523 -0.3632  1.8715
  180SLPC  C31320574   0.830   0.889   3.516 -0.2647 -0.3964 -0.2461
  180SLPC  H13X20575   0.922   0.827   3.517  1.0647  1.5034 -0.2898
  180SLPC  H13Y20576   0.769   0.878   3.424 -1.5872  2.7891  0.1265
  180SLPC  C31420577   0.749   0.861   3.651  0.2962  0.4991  0.0972
  180SLPC  H14X20578   0.712   0.756   3.653  0.3845  0.3865 -1.9904
  180SLPC  H14Y20579   0.658   0.926   3.651 -0.9520 -1.1532  1.0117
  180SLPC  C31520580   0.828   0.896   3.780  0.3638  0.2065  0.5264
  180SLPC  H15X20581   0.855   1.004   3.786 -0.0613  0.3304  0.2907
  180SLPC  H15Y20582   0.914   0.827   3.774  1.6869  1.7584  0.9848
  180SLPC  C31620583   0.738   0.874   3.905  0.2922  0.9586 -0.0245
  180SLPC  H16X20584   0.711   0.766   3.894 -1.1044  1.3014 -0.2077
  180SLPC  H16Y20585   0.652   0.944   3.908 -0.2841  0.2407  0.9058
  180SLPC  C31720586   0.811   0.907   4.034  0.6255 -0.4461 -0.9048
  180SLPC  H17X20587   0.914   0.864   4.035  1.1462  0.7590 -0.6142
  180SLPC  H17Y20588   0.754   0.850   4.110  0.7437  1.5277  0.7409
  180SLPC  C31820589   0.822   1.061   4.069  0.8290 -0.2273 -0.5791
  180SLPC  H18X20590   0.902   1.080   4.144 -0.8389  0.1247  1.1998
  180SLPC  H18Y20591   0.726   1.104   4.104  1.4057  0.2555  0.4833
  180SLPC  H18Z20592   0.855   1.113   3.977 -0.5084  1.6000 -0.0771
  181SLPC     N20593   0.239   1.209   1.484  0.0624 -0.7186 -0.3530
  181SLPC   C1320594   0.297   1.256   1.356 -0.0946 -0.9572 -0.7401
  181SLPC  H13A20595   0.290   1.176   1.284  0.6922 -0.1155 -1.7901
  181SLPC  H13B20596   0.247   1.346   1.326  0.1510 -1.3740 -2.4762
  181SLPC  H13C20597   0.401   1.283   1.372 -0.1972 -1.2725  0.6404
  181SLPC   C1420598   0.283   1.077   1.513  0.2016  0.2586 -0.6722
  181SLPC  H14A20599   0.243   0.996   1.454 -3.5641  1.6160 -0.2688
  181SLPC  H14B20600   0.391   1.070   1.507  0.3391  2.0321 -0.7430
  181SLPC  H14C20601   0.256   1.061   1.616  0.8259  2.0096 -0.2056
  181SLPC   C1520602   0.091   1.222   1.466 -0.2624  0.9956 -0.6451
  181SLPC  H15A20603   0.052   1.132   1.420 -1.5771  1.4224 -0.3933
  181SLPC  H15B20604   0.056   1.244   1.566  1.8293  0.6950  0.2095
  181SLPC  H15C20605   0.055   1.307   1.410 -1.7111  1.8342  1.4124
  181SLPC   C1220606   0.302   1.305   1.588  0.5558 -0.2902  0.1461
  181SLPC  H12A20607   0.274   1.406   1.561  1.6067 -0.3290 -1.1669
  181SLPC  H12B20608   0.409   1.297   1.583  0.4244 -1.6587 -2.5913
  181SLPC   C1120609   0.257   1.292   1.737  0.4572 -0.0913  0.0271
  181SLPC  H11A20610   0.147   1.308   1.739  0.5722  0.6734  0.5570
  181SLPC  H11B20611   0.312   1.374   1.788 -0.1335  1.1893 -1.3009
  181SLPC     P20612   0.248   1.096   1.919 -0.1907 -0.2820  0.0323
  181SLPC   O1320613   0.102   1.117   1.934 -0.2788 -0.1939  0.2359
  181SLPC   O1420614   0.315   0.966   1.944  0.4964  0.4158  0.3536
  181SLPC   O1220615   0.302   1.163   1.787 -0.4617  0.0158  0.0480
  181SLPC   O1120616   0.314   1.198   2.016 -0.0512  0.2923 -0.3776
  181SLPC    C120617   0.456   1.232   2.012  1.1895 -0.4486  0.6347
  181SLPC    HA20618   0.506   1.193   1.922  0.8647 -0.9822  0.6849
  181SLPC    HB20619   0.470   1.343   2.014 -0.1527 -0.2603  1.8748
  181SLPC    C220620   0.537   1.184   2.127  0.4589  0.0846  0.2329
  181SLPC    HS20621   0.536   1.073   2.133 -1.9307  0.1106  1.8752
  181SLPC   O2120622   0.473   1.230   2.249  0.3465  0.5192 -0.7107
  181SLPC   C2120623   0.480   1.156   2.362 -0.1006 -0.7012 -0.1909
  181SLPC   O2220624   0.526   1.045   2.368 -0.2347  0.4049 -0.1214
  181SLPC   C2220625   0.444   1.249   2.475 -0.0726  0.0901 -0.2837
  181SLPC   H2R20626   0.492   1.348   2.456 -0.2676 -0.0103 -1.3260
  181SLPC   H2S20627   0.334   1.260   2.487  0.0568 -0.6713  2.2346
  181SLPC    C320628   0.690   1.210   2.115  0.3705 -0.0832  0.9530
  181SLPC    HX20629   0.692   1.321   2.114  0.6116 -0.0918  0.5357
  181SLPC    HY20630   0.716   1.172   2.014  2.3733  0.0312  1.3708
  181SLPC   O3120631   0.776   1.146   2.208 -0.2297  0.2509  0.2018
  181SLPC   C3120632   0.789   1.014   2.204 -0.4589  0.4056 -0.9705
  181SLPC   O3220633   0.744   0.941   2.115  0.8456  0.3018  0.1034
  181SLPC   C3220634   0.861   0.963   2.335 -0.2217 -0.1396 -0.1323
  181SLPC   H2X20635   0.783   0.943   2.412  0.3496 -1.4325  0.1404
  181SLPC   H2Y20636   0.916   1.047   2.381  0.6451  0.3907 -2.0095
  181SLPC   C2320637   0.490   1.205   2.615 -0.5255 -0.1091  0.4586
  181SLPC   H3R20638   0.601   1.202   2.617 -0.4107 -1.5726 -2.7836
  181SLPC   H3S20639   0.453   1.102   2.636 -0.8074  0.3480  2.3820
  181SLPC   C2420640   0.446   1.285   2.745 -0.3703  0.1429 -0.0835
  181SLPC   H4R20641   0.485   1.222   2.829 -1.1919  0.2604  0.3952
  181SLPC   H4S20642   0.336   1.273   2.748 -0.1381 -2.7786  0.3545
  181SLPC   C2520643   0.488   1.433   2.755 -0.1510 -0.3582 -0.1119
  181SLPC   H5R20644   0.432   1.488   2.833  0.8258  1.8972 -0.9283
  181SLPC   H5S20645   0.465   1.479   2.656  2.2129  0.4112 -0.3615
  181SLPC   C2620646   0.635   1.453   2.791  0.5655 -1.1245 -0.4697
  181SLPC   H6R20647   0.693   1.420   2.701  1.6835  0.5088 -0.3907
  181SLPC   H6S20648   0.671   1.389   2.874 -0.0807 -0.1699  0.5677
  181SLPC   C2720649   0.660   1.601   2.815 -0.4160  0.2773  0.2543
  181SLPC   H7R20650   0.632   1.643   2.914  1.4370  0.6848  0.6315
  181SLPC   H7S20651   0.595   1.641   2.733 -0.7514 -0.4499  0.1604
  181SLPC   C2820652   0.806   1.643   2.787  1.0237 -0.4219  0.8547
  181SLPC   H8R20653   0.840   1.584   2.699 -1.9097  0.1882 -0.8028
  181SLPC   H8S20654   0.862   1.600   2.873 -0.4038  2.2601  3.2659
  181SLPC   C2920655   0.820   1.785   2.770  0.0201 -0.0687  0.5454
  181SLPC   H9R20656   0.830   1.816   2.664 -0.7556 -2.5248 -0.3199
  181SLPC  C21020657   0.818   1.873   2.872 -0.0936 -0.4743  0.1692
  181SLPC  H10R20658   0.826   1.978   2.842  1.3405 -0.6677 -0.2090
  181SLPC  C21120659   0.808   1.837   3.015  0.1544 -0.4254 -0.3622
  181SLPC  H11R20660   0.897   1.878   3.067 -0.3005  0.5969 -0.3695
  181SLPC  H11S20661   0.808   1.726   3.019 -0.1482 -0.4177 -0.0314
  181SLPC  C21220662   0.682   1.881   3.089  0.2398 -0.2174  0.3530
  181SLPC  H12R20663   0.599   1.920   3.028  1.0005 -0.4839 -0.8763
  181SLPC  C21320664   0.677   1.881   3.224 -0.0111 -0.6930  0.0777
  181SLPC  H13R20665   0.587   1.918   3.276 -0.1137  1.6621 -1.6472
  181SLPC  C21420666   0.787   1.845   3.323  0.0233  0.5623 -0.0444
  181SLPC  H14R20667   0.833   1.937   3.365 -1.1701  1.5055 -0.7328
  181SLPC  H14S20668   0.865   1.783   3.274 -0.9042 -0.5378 -0.1519
  181SLPC  C21520669   0.736   1.781   3.459 -0.9068  0.3078  0.9897
  181SLPC  H15R20670   0.686   1.684   3.439  0.1170  0.2895 -1.8585
  181SLPC  H15S20671   0.656   1.842   3.507  0.9836  0.5895  4.0592
  181SLPC  C21620672   0.843   1.772   3.563  0.3297  0.5783  0.0496
  181SLPC  H16R20673   0.882   1.869   3.601  0.3816  0.2149  0.9362
  181SLPC  H16S20674   0.929   1.711   3.529  1.4834  1.1045  1.8911
  181SLPC  C21720675   0.797   1.704   3.695  0.2233 -0.2863  0.0601
  181SLPC  H17R20676   0.890   1.666   3.741  0.0544 -0.7269  0.0408
  181SLPC  H17S20677   0.732   1.620   3.662 -0.4307 -0.3737  1.4891
  181SLPC  C21820678   0.718   1.790   3.792 -0.4029 -0.2497  0.8705
  181SLPC  H18R20679   0.703   1.733   3.886  1.3181  0.6697  1.7457
  181SLPC  H18S20680   0.619   1.807   3.744 -0.0249 -1.2503 -0.3177
  181SLPC  H18T20681   0.768   1.883   3.825  1.3373 -0.6499 -0.4993
  181SLPC   C3320682   0.947   0.836   2.324  0.1166  0.8901  0.0786
  181SLPC   H3X20683   1.008   0.855   2.233  0.2369  4.6468  0.8003
  181SLPC   H3Y20684   0.878   0.751   2.301  1.9865 -1.3420  2.1968
  181SLPC   C3420685   1.025   0.811   2.451 -0.5691  0.0971  0.7186
  181SLPC   H4X20686   1.097   0.895   2.463  2.1656 -1.9044 -0.4570
  181SLPC   H4Y20687   1.092   0.722   2.442 -2.7628 -1.8351  2.2990
  181SLPC   C3520688   0.937   0.783   2.580 -0.1428  0.1956 -0.2173
  181SLPC   H5X20689   0.858   0.709   2.556 -0.2397  1.3257 -4.0829
  181SLPC   H5Y20690   0.896   0.879   2.618 -0.3009  0.3325 -0.7208
  181SLPC   C3620691   1.032   0.735   2.689  0.4983  0.9389  0.0642
  181SLPC   H6X20692   1.116   0.807   2.698  2.8589 -1.5228 -0.9292
  181SLPC   H6Y20693   1.084   0.646   2.647 -1.1325  0.3303 -0.7643
  181SLPC   C3720694   0.982   0.713   2.835  0.6057 -0.1136 -0.7663
  181SLPC   H7X20695   0.908   0.630   2.837  2.0212 -1.4467  1.4979
  181SLPC   H7Y20696   0.923   0.801   2.867  1.5758  0.4378 -0.4469
  181SLPC   C3820697   1.095   0.692   2.936 -1.0116 -0.1815 -0.3469
  181SLPC   H8X20698   1.149   0.784   2.970  1.3529 -2.0287  1.2027
  181SLPC   H8Y20699   1.176   0.631   2.890 -2.2721 -3.0677  1.0386
  181SLPC   C3920700   1.041   0.613   3.055  0.1536  0.0806 -0.3915
  181SLPC   H9X20701   1.005   0.512   3.026 -0.3222 -0.2341  1.1920
  181SLPC   H9Y20702   0.941   0.660   3.069 -0.3476 -1.0944  0.1104
  181SLPC  C31020703   1.115   0.618   3.191  0.4303 -0.3876  0.9861
  181SLPC  H10X20704   1.160   0.716   3.216  2.4008 -0.9393 -0.1430
  181SLPC  H10Y20705   1.197   0.547   3.167  1.0953  1.1530 -1.7382
  181SLPC  C31120706   1.029   0.572   3.318 -0.0484  0.2778 -0.1870
  181SLPC  H11X20707   0.998   0.466   3.311 -0.2475  0.3067  0.1911
  181SLPC  H11Y20708   0.940   0.639   3.316 -1.5837 -1.6920 -0.6082
  181SLPC  C31220709   1.105   0.591   3.457 -0.3060 -0.4639  0.2324
  181SLPC  H12X20710   1.124   0.700   3.461  0.5208 -0.6344  1.3484
  181SLPC  H12Y20711   1.204   0.541   3.452 -0.1656 -0.1174 -0.5703
  181SLPC  C31320712   1.024   0.537   3.577 -0.1118  0.0706  0.1241
  181SLPC  H13X20713   0.996   0.433   3.547  0.6537  0.0955 -0.6981
  181SLPC  H13Y20714   0.936   0.604   3.566 -0.7506 -0.9032 -0.9886
  181SLPC  C31420715   1.096   0.543   3.711  0.0413 -0.4713 -0.5719
  181SLPC  H14X20716   1.137   0.646   3.712  0.0247 -0.4627 -0.7733
  181SLPC  H14Y20717   1.172   0.462   3.701  0.5039 -0.1337  0.1003
  181SLPC  C31520718   1.008   0.507   3.832  0.1309  0.5834 -0.1682
  181SLPC  H15X20719   0.969   0.403   3.824 -2.3515  1.4671 -0.4345
  181SLPC  H15Y20720   0.926   0.580   3.824  1.6432  2.3471 -0.2114
  181SLPC  C31620721   1.084   0.542   3.970  0.3390 -0.4958  0.4380
  181SLPC  H16X20722   1.115   0.646   3.994  0.8847 -1.0252  2.1395
  181SLPC  H16Y20723   1.179   0.484   3.972  0.1679 -0.7835  3.0116
  181SLPC  C31720724   1.007   0.507   4.098  1.5310 -0.0129 -0.1983
  181SLPC  H17X20725   0.933   0.590   4.106 -0.2366 -1.5834  0.9309
  181SLPC  H17Y20726   1.089   0.518   4.171  1.0542  0.0779  0.3314
  181SLPC  C31820727   0.931   0.373   4.107 -0.6742  0.1666  0.0130
  181SLPC  H18X20728   0.999   0.288   4.082 -0.5641  0.6817 -1.5456
  181SLPC  H18Y20729   0.849   0.371   4.032 -0.8618  0.2423  0.2139
  181SLPC  H18Z20730   0.878   0.368   4.205 -0.5359  1.9957  0.2097
  182SLPC     N20731   4.554   1.169   1.314 -0.6707  0.0297  0.7019
  182SLPC   C1320732   4.671   1.091   1.250 -0.2906  0.3978 -0.5729
  182SLPC  H13A20733   4.659   0.984   1.253  1.5691  0.1650  0.0959
  182SLPC  H13B20734   4.678   1.125   1.148 -2.9356  1.8167 -0.3607
  182SLPC  H13C20735   4.763   1.116   1.302  0.3600 -1.4944 -0.7427
  182SLPC   C1420736   4.433   1.147   1.225  0.0261 -0.7791 -0.0108
  182SLPC  H14A20737   4.340   1.187   1.265 -0.1397 -0.8468 -0.3259
  182SLPC  H14B20738   4.442   1.199   1.131  0.0568 -1.3339 -0.3199
  182SLPC  H14C20739   4.414   1.042   1.207  1.4319 -1.2536  1.0706
  182SLPC   C1520740   4.595   1.308   1.320 -0.0913 -0.0596 -0.1637
  182SLPC  H15A20741   4.517   1.376   1.353 -0.0106 -0.4154  0.7929
  182SLPC  H15B20742   4.681   1.329   1.382 -0.6186  1.9018 -0.0334
  182SLPC  H15C20743   4.625   1.342   1.222 -0.0305  1.3852  0.3314
  182SLPC   C1220744   4.526   1.107   1.449 -0.8292  0.0563 -0.6245
  182SLPC  H12A20745   4.521   1.000   1.441  0.8193 -0.5381  3.4033
  182SLPC  H12B20746   4.425   1.133   1.477 -0.9960  0.9345 -1.9705
  182SLPC   C1120747   4.618   1.131   1.570 -0.5994  1.0762  0.1601
  182SLPC  H11A20748   4.723   1.112   1.538 -0.5582  2.2705 -0.4585
  182SLPC  H11B20749   4.613   1.048   1.644  3.6514 -1.2255 -1.7902
  182SLPC     P20750   4.479   1.298   1.708 -0.3056 -0.0752 -0.0644
  182SLPC   O1320751   4.493   1.443   1.738  0.1906 -0.3258  0.1589
  182SLPC   O1420752   4.350   1.255   1.658  0.6992 -0.1476  0.3842
  182SLPC   O1220753   4.605   1.263   1.617 -0.1516 -0.1923 -0.0420
  182SLPC   O1120754   4.521   1.210   1.840 -0.0121  0.3617 -0.5568
  182SLPC    C120755   4.423   1.224   1.949 -0.3825  0.3272 -0.1140
  182SLPC    HA20756   4.318   1.241   1.914  0.1182 -1.6029 -2.9242
  182SLPC    HB20757   4.427   1.127   2.001 -3.1346 -0.1443 -0.5965
  182SLPC    C220758   4.479   1.332   2.048 -0.5336  0.0898  0.2504
  182SLPC    HS20759   4.541   1.410   2.000  0.9144  1.2717  3.6975
  182SLPC   O2120760   4.551   1.257   2.146 -0.0872 -0.0043  0.2709
  182SLPC   C2120761   4.664   1.300   2.194 -0.4975  0.0686 -0.0113
  182SLPC   O2220762   4.736   1.388   2.150 -0.2592 -0.5725  0.3149
  182SLPC   C2220763   4.710   1.225   2.315 -1.0313 -0.1923 -0.1042
  182SLPC   H2R20764   4.624   1.243   2.383 -0.6639  1.8844 -0.1438
  182SLPC   H2S20765   4.711   1.114   2.301 -0.9804 -0.2194  0.1181
  182SLPC    C320766   4.367   1.410   2.121 -0.0243 -0.5107 -0.1913
  182SLPC    HX20767   4.289   1.341   2.160 -0.3197  0.4047  0.8733
  182SLPC    HY20768   4.312   1.467   2.043 -3.4021  0.4360  2.6130
  182SLPC   O3120769   4.395   1.495   2.237  0.2270  0.1481  0.5402
  182SLPC   C3120770   4.415   1.622   2.204  0.0105 -0.2098  0.4286
  182SLPC   O3220771   4.379   1.676   2.099  0.5745 -0.0543 -0.1584
  182SLPC   C3220772   4.495   1.697   2.315 -0.1847 -0.2807 -0.3636
  182SLPC   H2X20773   4.464   1.803   2.305  0.2218 -0.0164  1.0540
  182SLPC   H2Y20774   4.599   1.700   2.276  0.6416 -0.2254  1.7506
  182SLPC   C2320775   4.841   1.277   2.377 -0.2893  0.6893 -0.0007
  182SLPC   H3R20776   4.831   1.386   2.393 -1.2509  0.3868  1.7634
  182SLPC   H3S20777   4.922   1.246   2.307  0.0310  1.7628 -0.1140
  182SLPC   C2420778   4.873   1.226   2.516  0.9502  0.0426  0.0618
  182SLPC   H4R20779   4.982   1.229   2.534  0.9878  0.0345 -0.1566
  182SLPC   H4S20780   4.837   1.122   2.531 -0.6669  0.8975  2.7674
  182SLPC   C2520781   4.796   1.317   2.619  0.0046  0.3071 -0.0180
  182SLPC   H5R20782   4.691   1.283   2.609 -0.0231 -0.1226  1.5112
  182SLPC   H5S20783   4.802   1.425   2.594  0.2736  0.5248  0.9675
  182SLPC   C2620784   4.849   1.300   2.759  0.5744 -0.2224  0.0641
  182SLPC   H6R20785   4.949   1.345   2.774 -1.2158  3.2190  3.1512
  182SLPC   H6S20786   4.853   1.190   2.774  0.2183  0.0159  2.2728
  182SLPC   C2720787   4.764   1.363   2.863  0.2897  0.5055 -0.5696
  182SLPC   H7R20788   4.674   1.297   2.862  1.4559 -1.1584 -1.9023
  182SLPC   H7S20789   4.730   1.465   2.836 -1.7586 -0.1023 -0.4454
  182SLPC   C2820790   4.844   1.372   2.997  0.1939 -0.3431 -0.1055
  182SLPC   H8R20791   4.791   1.426   3.079  1.2959 -2.5158  2.1714
  182SLPC   H8S20792   4.938   1.430   2.984 -0.8680  1.9591  1.6355
  182SLPC   C2920793   4.866   1.237   3.047 -0.0049  0.2666  0.7349
  182SLPC   H9R20794   4.919   1.170   2.978 -0.4027  0.4008  0.2911
  182SLPC  C21020795   4.835   1.195   3.168 -0.3677 -0.3075 -0.3621
  182SLPC  H10R20796   4.847   1.090   3.196  1.5558  0.3609  1.5883
  182SLPC  C21120797   4.782   1.272   3.295  0.0814  0.1798  1.2636
  182SLPC  H11R20798   4.712   1.206   3.351 -2.5412 -1.4296 -3.3672
  182SLPC  H11S20799   4.711   1.352   3.267  0.2977  0.1004  0.4533
  182SLPC  C21220800   4.900   1.318   3.384 -0.1552  0.5112 -0.2570
  182SLPC  H12R20801   4.995   1.335   3.331  0.0456  0.2782  0.0275
  182SLPC  C21320802   4.888   1.333   3.520  0.5131 -0.0153 -0.1885
  182SLPC  H13R20803   4.974   1.378   3.571 -0.4327  0.9510  0.6061
  182SLPC  C21420804   4.762   1.336   3.602 -0.4628 -0.2522 -0.2737
  182SLPC  H14R20805   4.674   1.314   3.539  0.0710 -1.5774 -0.5888
  182SLPC  H14S20806   4.750   1.440   3.640 -2.3237 -0.3048 -0.6126
  182SLPC  C21520807   4.774   1.240   3.722  0.1922  0.4744  0.3641
  182SLPC  H15R20808   4.797   1.140   3.682  0.3554  1.1984 -1.4512
  182SLPC  H15S20809   4.679   1.243   3.781  0.0815 -1.8208  0.4000
  182SLPC  C21620810   4.885   1.286   3.819  0.5578  0.0378 -0.2399
  182SLPC  H16R20811   4.984   1.277   3.768  0.7206 -1.8308  0.3168
  182SLPC  H16S20812   4.896   1.225   3.912  0.7732 -2.1789 -1.6513
  182SLPC  C21720813   4.868   1.430   3.873 -0.2193 -0.6615  0.5714
  182SLPC  H17R20814   4.759   1.449   3.862  0.1529  0.5063 -1.5386
  182SLPC  H17S20815   4.928   1.498   3.811 -0.3654 -0.9597  0.0982
  182SLPC  C21820816   4.901   1.441   4.018  0.1260  0.4754 -0.3128
  182SLPC  H18R20817   4.842   1.360   4.067 -0.7263  0.8073 -0.7591
  182SLPC  H18S20818   4.874   1.543   4.051 -0.1232 -0.2794  1.9797
  182SLPC  H18T20819   5.009   1.424   4.039 -0.3487  2.2880  5.1783
  182SLPC   C3320820   4.482   1.647   2.454  0.0393  0.0810  0.7536
  182SLPC   H3X20821   4.518   1.542   2.465 -0.9824 -0.3963 -0.1735
  182SLPC   H3Y20822   4.374   1.641   2.481 -0.0312  2.3369  1.1096
  182SLPC   C3420823   4.539   1.741   2.563 -0.3864  0.5622  0.2554
  182SLPC   H4X20824   4.489   1.840   2.554 -1.3112  0.1715  0.9238
  182SLPC   H4Y20825   4.645   1.741   2.530 -0.6469  0.6820 -0.6262
  182SLPC   C3520826   4.534   1.696   2.705  1.0594 -0.0216 -0.7268
  182SLPC   H5X20827   4.561   1.589   2.698 -0.4685 -0.3519 -1.8449
  182SLPC   H5Y20828   4.431   1.694   2.747  0.9716  1.4154 -0.8231
  182SLPC   C3620829   4.628   1.765   2.809 -0.0376  0.3192  0.7484
  182SLPC   H6X20830   4.595   1.871   2.821 -1.3461  0.0482 -0.2348
  182SLPC   H6Y20831   4.731   1.752   2.771 -0.0266 -0.9346  1.1733
  182SLPC   C3720832   4.619   1.709   2.953 -0.1997 -1.2787 -0.0275
  182SLPC   H7X20833   4.682   1.765   3.025 -1.3535 -0.2181  0.1902
  182SLPC   H7Y20834   4.668   1.610   2.939 -0.5705 -1.2696 -1.5646
  182SLPC   C3820835   4.490   1.701   3.026  0.7861  1.4721 -0.4121
  182SLPC   H8X20836   4.406   1.662   2.965  0.6009 -0.8705  1.2047
  182SLPC   H8Y20837   4.453   1.799   3.064 -2.8761 -0.1743  0.7188
  182SLPC   C3920838   4.489   1.616   3.157  0.1397 -0.9400 -0.2254
  182SLPC   H9X20839   4.508   1.510   3.127  1.4178 -0.8659  0.2402
  182SLPC   H9Y20840   4.387   1.626   3.198 -0.3380 -1.4987 -1.2205
  182SLPC  C31020841   4.599   1.655   3.264 -0.2489 -0.0756  0.5833
  182SLPC  H10X20842   4.600   1.766   3.265 -1.0096 -0.0427 -0.7382
  182SLPC  H10Y20843   4.690   1.627   3.206 -1.1858 -2.0968  0.0186
  182SLPC  C31120844   4.578   1.597   3.398  0.3335  0.2253 -0.1568
  182SLPC  H11X20845   4.676   1.607   3.450 -0.1719  1.0867  0.6456
  182SLPC  H11Y20846   4.551   1.491   3.378  1.0308 -0.1372  0.7324
  182SLPC  C31220847   4.477   1.672   3.492 -0.9417 -0.2027  0.4060
  182SLPC  H12X20848   4.377   1.675   3.443  0.4182  0.0260 -2.6315
  182SLPC  H12Y20849   4.509   1.776   3.514  1.2897 -0.7510  0.0303
  182SLPC  C31320850   4.458   1.609   3.636  0.9032  0.6115  0.6138
  182SLPC  H13X20851   4.402   1.686   3.693  0.6605 -0.2207  1.5154
  182SLPC  H13Y20852   4.558   1.599   3.682  1.3011  0.9031 -0.1758
  182SLPC  C31420853   4.383   1.476   3.648 -0.4648 -0.3374  0.0736
  182SLPC  H14X20854   4.463   1.399   3.643  0.7291  0.9458 -1.8718
  182SLPC  H14Y20855   4.306   1.457   3.570 -2.1580 -3.2713  2.2386
  182SLPC  C31520856   4.322   1.485   3.784  0.0142  0.0863  0.4867
  182SLPC  H15X20857   4.220   1.525   3.766 -0.5848 -1.6518 -0.1108
  182SLPC  H15Y20858   4.384   1.551   3.850 -1.2406  1.4148  0.3923
  182SLPC  C31620859   4.301   1.362   3.868  0.3328  0.1448 -0.4554
  182SLPC  H16X20860   4.404   1.330   3.898  1.4253  2.9211 -0.9532
  182SLPC  H16Y20861   4.251   1.276   3.819 -3.2338  0.3974  2.3741
  182SLPC  C31720862   4.215   1.397   3.993  0.3481  0.1175  0.5375
  182SLPC  H17X20863   4.217   1.302   4.051 -1.4793 -1.4798 -1.7909
  182SLPC  H17Y20864   4.111   1.413   3.957  0.3865 -0.9579 -0.1308
  182SLPC  C31820865   4.271   1.504   4.079 -0.2284  0.0956  0.3436
  182SLPC  H18X20866   4.369   1.480   4.126 -0.5691 -1.8365  0.1666
  182SLPC  H18Y20867   4.205   1.498   4.168 -2.2987 -1.1703 -1.1974
  182SLPC  H18Z20868   4.259   1.603   4.030  1.5878 -0.4833 -1.4360
  183SLPC     N20869   0.296   2.132   1.845 -0.1124  0.2913 -0.4611
  183SLPC   C1320870   0.232   2.171   1.714  0.2803  0.4029 -0.3972
  183SLPC  H13A20871   0.299   2.199   1.634  1.4133  2.6463  1.2056
  183SLPC  H13B20872   0.163   2.094   1.684 -0.4157  1.2421 -1.0068
  183SLPC  H13C20873   0.169   2.258   1.727  1.0428  1.0162 -0.7114
  183SLPC   C1420874   0.384   2.015   1.819 -0.1277  0.1121 -0.8314
  183SLPC  H14A20875   0.462   2.051   1.754  1.3332 -1.3622  0.0082
  183SLPC  H14B20876   0.438   1.984   1.907 -0.2882 -1.2057 -1.1698
  183SLPC  H14C20877   0.338   1.933   1.764 -0.2738  1.4312 -2.7685
  183SLPC   C1520878   0.195   2.094   1.944 -0.0442  0.2436  0.2114
  183SLPC  H15A20879   0.122   2.168   1.972  0.3977  1.0637 -0.7694
  183SLPC  H15B20880   0.139   2.008   1.911  0.7494 -0.0289 -0.4628
  183SLPC  H15C20881   0.239   2.068   2.040  0.2322  1.5871  0.4723
  183SLPC   C1220882   0.377   2.251   1.882 -0.2365 -0.6680 -0.1912
  183SLPC  H12A20883   0.439   2.283   1.799  3.7625 -3.7724  1.2420
  183SLPC  H12B20884   0.449   2.217   1.955 -0.4802 -1.8552 -0.4768
  183SLPC   C1120885   0.299   2.363   1.953 -0.2524  0.2363  0.0673
  183SLPC  H11A20886   0.376   2.424   2.005  1.8288 -1.4452 -0.8656
  183SLPC  H11B20887   0.243   2.326   2.041  1.1729 -1.0241  0.4956
  183SLPC     P20888   0.270   2.546   1.770  0.0457  0.4555  0.4230
  183SLPC   O1320889   0.415   2.515   1.752 -0.7497  0.0222 -0.5748
  183SLPC   O1420890   0.193   2.545   1.644  0.1587 -0.8032  0.2896
  183SLPC   O1220891   0.209   2.439   1.873 -0.6203  0.5603 -0.0537
  183SLPC   O1120892   0.261   2.681   1.850  0.1704 -0.3711  0.3703
  183SLPC    C120893   0.139   2.730   1.898  0.3943  0.0324  0.3843
  183SLPC    HA20894   0.112   2.830   1.857 -1.1312 -0.9495 -1.1752
  183SLPC    HB20895   0.051   2.663   1.896 -1.7189  2.6604 -0.1219
  183SLPC    C220896   0.144   2.763   2.048  0.4232  0.2253 -0.1587
  183SLPC    HS20897   0.202   2.856   2.061  0.5560  0.1457 -0.1785
  183SLPC   O2120898   0.196   2.645   2.115 -0.2059 -0.1734 -0.3695
  183SLPC   C2120899   0.301   2.665   2.192 -0.5875 -0.3557 -0.0177
  183SLPC   O2220900   0.365   2.771   2.208 -0.1822 -0.1717 -0.4631
  183SLPC   C2220901   0.307   2.543   2.282 -0.3869 -0.6949 -0.3475
  183SLPC   H2R20902   0.204   2.502   2.289 -1.4129  1.9451  1.7675
  183SLPC   H2S20903   0.370   2.470   2.226 -0.8741 -1.1701 -0.2815
  183SLPC    C320904   0.004   2.797   2.096  0.1654  0.4718  0.1163
  183SLPC    HX20905  -0.046   2.702   2.071  2.9218 -0.3478 -2.9659
  183SLPC    HY20906  -0.049   2.872   2.035 -1.3408 -1.0058 -0.4614
  183SLPC   O3120907  -0.002   2.819   2.237 -0.3209 -0.5102 -0.4700
  183SLPC   C3120908   0.024   2.951   2.263 -0.0082  0.4945 -0.4798
  183SLPC   O3220909   0.031   3.040   2.179 -0.3311  0.0001 -0.2169
  183SLPC   C3220910   0.059   2.968   2.411 -0.5911  0.0812 -0.6009
  183SLPC   H2X20911   0.142   2.903   2.447 -0.1436  2.3316  3.0725
  183SLPC   H2Y20912  -0.024   2.928   2.473  1.5488 -0.1666  2.3141
  183SLPC   C2320913   0.374   2.561   2.417  0.0708 -0.4126  0.1080
  183SLPC   H3R20914   0.432   2.656   2.419  1.3925 -1.1308 -1.3375
  183SLPC   H3S20915   0.453   2.486   2.437  1.1591  0.2286 -1.4947
  183SLPC   C2420916   0.269   2.559   2.534 -0.2742 -0.3135  0.8406
  183SLPC   H4R20917   0.211   2.651   2.556  1.9508  1.0279  1.4184
  183SLPC   H4S20918   0.339   2.551   2.620 -0.2561 -1.2052  0.7511
  183SLPC   C2520919   0.178   2.432   2.525  0.7691 -0.0431  0.3415
  183SLPC   H5R20920   0.227   2.360   2.456 -1.3247 -0.1311 -1.1496
  183SLPC   H5S20921   0.079   2.453   2.479  0.0744 -1.3487  1.1993
  183SLPC   C2620922   0.165   2.371   2.664 -0.0986  0.4953 -0.1247
  183SLPC   H6R20923   0.271   2.341   2.680  0.7193  2.5812 -1.1771
  183SLPC   H6S20924   0.103   2.280   2.661  2.5781 -1.6201  2.2933
  183SLPC   C2720925   0.120   2.471   2.767 -0.1374  0.5753  0.5884
  183SLPC   H7R20926   0.033   2.525   2.722  2.1948  2.6401 -1.7600
  183SLPC   H7S20927   0.188   2.556   2.791 -1.0118  0.5131  3.8118
  183SLPC   C2820928   0.074   2.395   2.893  0.0740 -1.2922 -0.0987
  183SLPC   H8R20929   0.020   2.301   2.867 -2.1647  0.5380 -2.5058
  183SLPC   H8S20930   0.009   2.472   2.939  0.7847 -0.1974 -0.9001
  183SLPC   C2920931   0.195   2.359   2.980 -0.6220 -0.8683 -0.4070
  183SLPC   H9R20932   0.276   2.308   2.926 -1.4307  0.6076 -3.2159
  183SLPC  C21020933   0.201   2.361   3.119  0.5375  0.0786  0.0246
  183SLPC  H10R20934   0.294   2.319   3.160 -0.9999 -2.0156  1.6162
  183SLPC  C21120935   0.098   2.420   3.219  0.2006  0.3346 -0.1482
  183SLPC  H11R20936   0.009   2.451   3.160  0.3438  2.2474  0.5812
  183SLPC  H11S20937   0.130   2.513   3.271 -2.5289  1.4080 -0.1984
  183SLPC  C21220938   0.054   2.325   3.329 -0.3452 -0.4576 -0.1916
  183SLPC  H12R20939  -0.045   2.278   3.315 -2.4945  3.3522  0.5533
  183SLPC  C21320940   0.123   2.289   3.436 -0.1212  0.3375  0.2707
  183SLPC  H13R20941   0.090   2.206   3.499 -0.7373 -0.0817 -0.5823
  183SLPC  C21420942   0.250   2.350   3.476 -1.0015  0.1406  0.1968
  183SLPC  H14R20943   0.303   2.389   3.387  0.1938  0.7133  1.1373
  183SLPC  H14S20944   0.316   2.273   3.520 -1.4311 -0.0227  0.5606
  183SLPC  C21520945   0.229   2.447   3.588  0.0058 -0.3490  0.0953
  183SLPC  H15R20946   0.138   2.510   3.588  0.4839  0.4329  2.2277
  183SLPC  H15S20947   0.318   2.512   3.600 -1.0946  1.1489  0.3600
  183SLPC  C21620948   0.211   2.386   3.725 -0.2067  0.2653 -1.0420
  183SLPC  H16R20949   0.284   2.303   3.732 -1.5128 -0.9200 -1.1436
  183SLPC  H16S20950   0.117   2.330   3.741 -0.7121  1.4064  0.2149
  183SLPC  C21720951   0.231   2.486   3.843 -0.5799 -0.4795 -0.2974
  183SLPC  H17R20952   0.145   2.555   3.830 -1.6465 -0.9929  3.0482
  183SLPC  H17S20953   0.331   2.533   3.853 -0.2647 -1.4564  1.4989
  183SLPC  C21820954   0.196   2.410   3.973  0.1733  0.0060 -0.0371
  183SLPC  H18R20955   0.200   2.485   4.056 -0.0048  0.9891 -0.8984
  183SLPC  H18S20956   0.283   2.341   3.987 -0.8657 -1.1338  1.0455
  183SLPC  H18T20957   0.097   2.361   3.966 -0.8440  1.7611  1.2166
  183SLPC   C3320958   0.096   3.107   2.450  0.3080  0.4818  0.0365
  183SLPC   H3X20959   0.010   3.176   2.434 -0.1150 -0.1590 -0.5060
  183SLPC   H3Y20960   0.180   3.139   2.385 -0.1065 -0.6723 -1.1098
  183SLPC   C3420961   0.141   3.128   2.592 -0.2904  0.1874 -0.1401
  183SLPC   H4X20962   0.215   3.054   2.629 -0.6906 -1.1749 -1.9253
  183SLPC   H4Y20963   0.051   3.122   2.658  0.2092  1.0068  0.6412
  183SLPC   C3520964   0.203   3.270   2.615 -0.5346 -0.2626 -0.2626
  183SLPC   H5X20965   0.154   3.348   2.554  0.2480  0.8256  0.4597
  183SLPC   H5Y20966   0.311   3.285   2.591  0.7535  0.3390  4.6986
  183SLPC   C3620967   0.192   3.332   2.755  0.9844 -0.6375 -0.4123
  183SLPC   H6X20968   0.085   3.322   2.785  1.1583  1.5503  1.1563
  183SLPC   H6Y20969   0.218   3.440   2.767 -1.7356  0.0050  0.4960
  183SLPC   C3720970   0.261   3.248   2.863 -0.7602  0.5068  0.4270
  183SLPC   H7X20971   0.361   3.218   2.826 -0.8450  0.5689  0.1473
  183SLPC   H7Y20972   0.199   3.159   2.882 -1.9694  1.3609  0.6146
  183SLPC   C3820973   0.264   3.315   3.003  0.5040 -0.9846  0.4088
  183SLPC   H8X20974   0.329   3.404   3.006 -1.5981  0.6707 -0.4428
  183SLPC   H8Y20975   0.302   3.242   3.078 -2.9228 -1.0800  2.2982
  183SLPC   C3920976   0.123   3.351   3.056 -0.3205  0.2688 -0.3328
  183SLPC   H9X20977   0.056   3.264   3.048 -0.5266  0.1428  2.0555
  183SLPC   H9Y20978   0.078   3.430   2.992 -1.2277 -0.2184 -0.3130
  183SLPC  C31020979   0.115   3.414   3.196 -0.5113  0.0634  0.4597
  183SLPC  H10X20980   0.007   3.434   3.207 -1.0345 -1.9323 -0.6093
  183SLPC  H10Y20981   0.181   3.503   3.202 -1.5419  0.8729 -0.1428
  183SLPC  C31120982   0.148   3.300   3.293  0.7974  0.4804 -0.4970
  183SLPC  H11X20983   0.254   3.275   3.315  0.2485  0.5084  2.6191
  183SLPC  H11Y20984   0.098   3.214   3.245 -2.3605  2.5122 -1.1530
  183SLPC  C31220985   0.078   3.330   3.426 -0.4293  0.0775 -0.5415
  183SLPC  H12X20986  -0.030   3.355   3.415 -0.1734  1.8104  0.6493
  183SLPC  H12Y20987   0.121   3.425   3.463  1.3065 -0.6611 -0.5602
  183SLPC  C31320988   0.081   3.221   3.541 -0.3437  0.1773 -0.4023
  183SLPC  H13X20989   0.178   3.176   3.573 -0.3644  0.2607 -0.2212
  183SLPC  H13Y20990   0.017   3.135   3.512 -0.8538  0.8896 -1.4531
  183SLPC  C31420991   0.020   3.283   3.670 -0.0112  0.1344 -0.0832
  183SLPC  H14X20992   0.009   3.201   3.744  1.2716 -0.3997 -0.4418
  183SLPC  H14Y20993  -0.079   3.320   3.637 -0.0818 -0.3677 -0.4479
  183SLPC  C31520994   0.104   3.388   3.747  0.0493  0.0431 -0.4892
  183SLPC  H15X20995   0.129   3.471   3.676 -1.4114  1.5104  0.6234
  183SLPC  H15Y20996   0.198   3.342   3.783  1.0725  0.3094 -2.6373
  183SLPC  C31620997   0.021   3.440   3.873  0.1418  0.3159 -0.0048
  183SLPC  H16X20998  -0.005   3.354   3.938 -1.6735 -0.6219 -1.8432
  183SLPC  H16Y20999  -0.077   3.479   3.839  0.1338  0.0878 -0.2461
  183SLPC  C31721000   0.104   3.541   3.954  0.5309 -0.0396 -0.3416
  183SLPC  H17X21001   0.127   3.636   3.902 -1.4449  0.7397  0.1093
  183SLPC  H17Y21002   0.200   3.486   3.968 -0.2337 -1.0905  1.1573
  183SLPC  C31821003   0.047   3.578   4.098 -0.5170 -1.0345 -0.3831
  183SLPC  H18X21004   0.121   3.632   4.160  0.6017 -1.8171 -1.0172
  183SLPC  H18Y21005   0.031   3.482   4.152 -1.8093  0.2989  1.7577
  183SLPC  H18Z21006  -0.053   3.627   4.106 -0.3737 -0.9319  0.9421
  184SLPC     N21007   6.391   4.644   2.036 -0.1449 -0.1180  0.1664
  184SLPC   C1321008   6.247   4.635   2.060  0.4520 -0.4646 -0.2288
  184SLPC  H13A21009   6.223   4.672   2.158  1.4688  2.5117 -0.9935
  184SLPC  H13B21010   6.185   4.696   1.996  0.2061  1.8488  2.0620
  184SLPC  H13C21011   6.216   4.532   2.044 -2.4190 -0.2026  2.7177
  184SLPC   C1421012   6.435   4.786   2.059  0.8751  0.3604  0.2062
  184SLPC  H14A21013   6.352   4.847   2.026 -0.2811 -0.9505  0.6291
  184SLPC  H14B21014   6.455   4.809   2.163  0.3843 -2.2647  0.9450
  184SLPC  H14C21015   6.520   4.815   1.998  0.3697 -0.3062 -0.8398
  184SLPC   C1521016   6.410   4.601   1.899 -0.7638  0.1337  0.4347
  184SLPC  H15A21017   6.392   4.496   1.884 -1.7652  0.6332 -2.6287
  184SLPC  H15B21018   6.345   4.639   1.822  0.1036 -2.4125 -1.7166
  184SLPC  H15C21019   6.512   4.622   1.871 -0.3127  0.2934  2.0826
  184SLPC   C1221020   6.463   4.554   2.131  0.3067  0.0088  0.4871
  184SLPC  H12A21021   6.567   4.535   2.108 -0.0852 -0.3593 -1.0579
  184SLPC  H12B21022   6.424   4.454   2.116 -1.1682  0.5461  0.5410
  184SLPC   C1121023   6.455   4.585   2.287  0.1180  0.5050 -0.1344
  184SLPC  H11A21024   6.485   4.691   2.305 -1.4793  1.2764 -1.8048
  184SLPC  H11B21025   6.540   4.529   2.333 -1.9148 -1.2404  1.7261
  184SLPC     P21026   6.276   4.414   2.364 -0.1517 -0.0639  0.2673
  184SLPC   O1321027   6.134   4.415   2.325 -0.2292  0.3656  0.0054
  184SLPC   O1421028   6.356   4.315   2.286 -0.1171 -0.4609 -0.3164
  184SLPC   O1221029   6.329   4.566   2.354  0.0319 -0.4126 -0.2174
  184SLPC   O1121030   6.284   4.375   2.515  0.2332  0.1969  0.2335
  184SLPC    C121031   6.292   4.466   2.627 -0.5598 -0.4984  0.0012
  184SLPC    HA21032   6.343   4.564   2.614 -0.2122 -0.7688 -0.7494
  184SLPC    HB21033   6.186   4.484   2.654  0.8064  4.2737  3.4748
  184SLPC    C221034   6.362   4.394   2.745 -0.5920  0.3000 -1.4626
  184SLPC    HS21035   6.335   4.445   2.840 -1.8020 -0.8840 -1.1505
  184SLPC   O2121036   6.503   4.379   2.722  0.1868  0.0022  0.1070
  184SLPC   C2121037   6.572   4.489   2.753  0.5260 -0.0392  0.0148
  184SLPC   O2221038   6.527   4.591   2.801 -0.6567  0.6020  0.5099
  184SLPC   C2221039   6.723   4.468   2.725 -0.7501  0.2301 -0.3175
  184SLPC   H2R21040   6.731   4.431   2.621 -0.8247 -1.5685  0.2727
  184SLPC   H2S21041   6.778   4.563   2.735  0.3709 -0.5679  1.7614
  184SLPC    C321042   6.309   4.247   2.759  0.0542  0.5000 -0.6994
  184SLPC    HX21043   6.317   4.193   2.662  0.4151 -0.8117  0.0282
  184SLPC    HY21044   6.201   4.243   2.782  0.3662 -1.3708  0.7391
  184SLPC   O3121045   6.375   4.186   2.873 -0.2710  0.1670  0.4552
  184SLPC   C3121046   6.474   4.100   2.843 -0.0074  0.3372  0.4723
  184SLPC   O3221047   6.509   4.070   2.730 -0.3183 -0.2476  0.6153
  184SLPC   C3221048   6.541   4.054   2.975  0.0722  0.0123  0.4884
  184SLPC   H2X21049   6.495   3.956   3.000 -2.0696  0.8794  0.1641
  184SLPC   H2Y21050   6.513   4.119   3.061  0.3887 -0.6556  1.1130
  184SLPC   C2321051   6.793   4.362   2.824 -0.2604 -0.2605  0.3067
  184SLPC   H3R21052   6.753   4.264   2.790  1.0567 -0.5819 -0.3716
  184SLPC   H3S21053   6.758   4.382   2.927 -0.3060 -0.6085  0.3582
  184SLPC   C2421054   6.948   4.377   2.820 -0.4860  0.3179  0.2496
  184SLPC   H4R21055   6.969   4.486   2.823  0.5490  0.1970 -1.2693
  184SLPC   H4S21056   6.991   4.332   2.728 -0.8979  0.3881  0.0187
  184SLPC   C2521057   7.027   4.288   2.930  0.6584 -0.3953  0.2168
  184SLPC   H5R21058   7.136   4.288   2.912  0.7636 -0.2666  0.8337
  184SLPC   H5S21059   6.988   4.186   2.948  2.7703 -0.9698  1.9303
  184SLPC   C2621060   7.021   4.356   3.063 -0.6131 -0.1226 -0.3926
  184SLPC   H6R21061   6.922   4.349   3.113  1.0131 -1.0579  2.9930
  184SLPC   H6S21062   7.066   4.457   3.056  0.0046 -0.3605  0.0955
  184SLPC   C2721063   7.109   4.289   3.173  0.1189 -0.0351 -0.0154
  184SLPC   H7R21064   7.113   4.363   3.255  0.9847 -1.9956  1.8274
  184SLPC   H7S21065   7.211   4.261   3.139  0.6323  3.5626 -1.7921
  184SLPC   C2821066   7.049   4.160   3.244  1.0181  1.3605 -0.0887
  184SLPC   H8R21067   7.087   4.071   3.189  1.3843  0.4856  1.5416
  184SLPC   H8S21068   6.939   4.164   3.226  1.2291  5.1267 -1.6885
  184SLPC   C2921069   7.084   4.154   3.394  0.4814  0.2337 -0.2244
  184SLPC   H9R21070   7.186   4.123   3.421  0.4978  0.4812  0.0033
  184SLPC  C21021071   7.000   4.173   3.502  0.2872  0.8527  0.0212
  184SLPC  H10R21072   7.037   4.169   3.605 -4.2526  0.4495  1.8730
  184SLPC  C21121073   6.854   4.217   3.496 -0.4940  0.4517  0.4972
  184SLPC  H11R21074   6.790   4.132   3.527  0.0696  0.5826  2.1477
  184SLPC  H11S21075   6.825   4.224   3.389 -0.3123  1.7324  0.5151
  184SLPC  C21221076   6.834   4.355   3.561 -0.9797 -0.3420  0.6085
  184SLPC  H12R21077   6.914   4.429   3.568 -0.7409 -0.3568 -1.3903
  184SLPC  C21321078   6.716   4.405   3.609 -0.7369 -0.2613 -0.6725
  184SLPC  H13R21079   6.719   4.502   3.660 -1.4061  0.5635 -2.1401
  184SLPC  C21421080   6.582   4.341   3.591 -0.3629  0.2108  0.6403
  184SLPC  H14R21081   6.523   4.362   3.682  0.5284 -1.5955  1.6904
  184SLPC  H14S21082   6.598   4.231   3.587 -0.2578  0.2338  0.3675
  184SLPC  C21521083   6.498   4.398   3.475  0.1713  0.3442  0.4400
  184SLPC  H15R21084   6.483   4.508   3.487  1.7539  0.6344  0.0917
  184SLPC  H15S21085   6.392   4.367   3.474 -0.3170  1.9406  0.8234
  184SLPC  C21621086   6.564   4.375   3.338  0.0221 -0.0956 -1.4299
  184SLPC  H16R21087   6.552   4.269   3.305  1.8921 -0.3817 -1.3356
  184SLPC  H16S21088   6.672   4.402   3.336 -0.3706  1.9403  1.1762
  184SLPC  C21721089   6.491   4.464   3.243 -0.0785  0.1637  0.3588
  184SLPC  H17R21090   6.491   4.572   3.271 -1.6505 -0.4162  2.8942
  184SLPC  H17S21091   6.382   4.444   3.252 -0.1725  0.9490  1.0447
  184SLPC  C21821092   6.542   4.454   3.101 -0.3819  0.7264  0.0486
  184SLPC  H18R21093   6.555   4.346   3.077 -1.1687 -0.6835  4.7810
  184SLPC  H18S21094   6.636   4.513   3.091  0.2850 -0.3120  0.0155
  184SLPC  H18T21095   6.461   4.499   3.040 -0.6770 -1.3363 -1.1529
  184SLPC   C3321096   6.689   4.023   2.955 -0.3375 -1.2730  0.1872
  184SLPC   H3X21097   6.755   4.109   2.980 -0.3746 -1.3748  0.6377
  184SLPC   H3Y21098   6.719   4.003   2.850  2.6053  0.1550  0.6382
  184SLPC   C3421099   6.740   3.906   3.038 -0.6293 -0.6381  0.2156
  184SLPC   H4X21100   6.849   3.899   3.019 -0.1876  0.8709  1.9153
  184SLPC   H4Y21101   6.681   3.815   3.014  1.0329 -2.1467  1.5217
  184SLPC   C3521102   6.726   3.930   3.189  0.4323  0.0301  0.1614
  184SLPC   H5X21103   6.620   3.942   3.218 -0.2135 -2.7437 -0.7322
  184SLPC   H5Y21104   6.789   4.021   3.200  1.0489 -0.4416  0.6208
  184SLPC   C3621105   6.795   3.822   3.277  0.1229 -0.1772  0.4463
  184SLPC   H6X21106   6.905   3.840   3.277  0.0234  1.4861 -3.9734
  184SLPC   H6Y21107   6.788   3.719   3.237  0.0442  0.8760 -2.4712
  184SLPC   C3721108   6.736   3.816   3.418 -0.7267  0.3076  0.7994
  184SLPC   H7X21109   6.657   3.738   3.408  1.2844 -1.6998 -0.2728
  184SLPC   H7Y21110   6.684   3.912   3.440  0.8236  1.6810 -1.1650
  184SLPC   C3821111   6.833   3.777   3.525  0.3932 -0.1473 -0.0639
  184SLPC   H8X21112   6.901   3.864   3.536  3.6302 -2.5220  0.5543
  184SLPC   H8Y21113   6.886   3.687   3.487 -0.6681 -1.0748  0.5962
  184SLPC   C3921114   6.772   3.749   3.655  0.2956 -0.3830  0.6654
  184SLPC   H9X21115   6.846   3.709   3.728  2.6048  0.8730 -0.8614
  184SLPC   H9Y21116   6.699   3.668   3.632 -0.3485  0.7675 -1.6706
  184SLPC  C31021117   6.707   3.872   3.725 -0.2682  0.1890  0.5745
  184SLPC  H10X21118   6.635   3.926   3.660  2.0873 -0.7396 -3.1166
  184SLPC  H10Y21119   6.788   3.947   3.728 -0.0445  0.0999 -1.6283
  184SLPC  C31121120   6.647   3.843   3.865  0.0777 -0.2794  0.1622
  184SLPC  H11X21121   6.602   3.935   3.907 -0.4116  0.5685 -2.0435
  184SLPC  H11Y21122   6.725   3.800   3.931  0.8199 -0.4208 -0.7711
  184SLPC  C31221123   6.538   3.739   3.858  0.0947  0.1724 -0.2034
  184SLPC  H12X21124   6.598   3.648   3.883 -0.7496 -0.5219 -0.6392
  184SLPC  H12Y21125   6.495   3.719   3.757  1.7916 -0.4377 -0.8586
  184SLPC  C31321126   6.432   3.757   3.963  0.4901 -0.0083  0.0818
  184SLPC  H13X21127   6.475   3.790   4.061 -1.8835  3.2795  0.1997
  184SLPC  H13Y21128   6.384   3.658   3.969 -0.7214  0.2424 -3.5049
  184SLPC  C31421129   6.325   3.865   3.929 -0.2806  0.2411 -0.1558
  184SLPC  H14X21130   6.294   3.835   3.826  0.7067 -2.3013  0.1995
  184SLPC  H14Y21131   6.386   3.958   3.922  2.6427 -1.4223  1.3318
  184SLPC  C31521132   6.200   3.873   4.007  0.1794 -0.5044 -0.3058
  184SLPC  H15X21133   6.215   3.890   4.116  0.7622  0.6084 -0.5462
  184SLPC  H15Y21134   6.151   3.776   3.982  1.0889 -0.9837 -0.2938
  184SLPC  C31621135   6.105   3.978   3.946 -0.1524  0.4250 -0.0423
  184SLPC  H16X21136   6.094   3.974   3.836 -2.7690  0.3995  0.1722
  184SLPC  H16Y21137   6.157   4.075   3.963  1.9322 -0.1407 -2.5185
  184SLPC  C31721138   5.968   3.995   4.015  0.3000  0.4088  0.1984
  184SLPC  H17X21139   5.933   4.097   3.990 -0.9134  0.0703  0.4429
  184SLPC  H17Y21140   5.986   3.996   4.125 -0.1102 -0.0284  0.2753
  184SLPC  C31821141   5.861   3.894   3.977 -0.1036  0.1909 -0.4660
  184SLPC  H18X21142   5.763   3.929   4.016 -0.0532 -0.4432  0.2480
  184SLPC  H18Y21143   5.872   3.797   4.029  1.3814  1.4054  1.6286
  184SLPC  H18Z21144   5.858   3.884   3.867  0.6271  3.4929 -0.8807
  185POPC     N21145   2.340   0.857   6.996 -0.5092  0.4166 -0.2608
  185POPC   C1221146   2.297   0.755   6.887 -0.2042 -0.7036  0.2884
  185POPC  H12A21147   2.256   0.668   6.936 -1.6167 -0.4004 -0.3086
  185POPC  H12B21148   2.389   0.730   6.836  0.1443  1.3760 -0.1957
  185POPC   C1321149   2.447   0.797   7.081 -0.8086 -0.3313 -0.1411
  185POPC  H13A21150   2.521   0.759   7.011 -1.4997 -0.5783 -0.7465
  185POPC  H13B21151   2.491   0.874   7.142 -1.4552  0.9534 -1.2631
  185POPC  H13C21152   2.410   0.713   7.139  1.0779 -0.4602  0.9895
  185POPC   C1421153   2.400   0.980   6.944  0.4313 -0.2203 -0.4011
  185POPC  H14A21154   2.428   1.053   7.019 -0.4792  0.1438 -0.4008
  185POPC  H14B21155   2.491   0.959   6.889  1.8841  2.5899  0.7171
  185POPC  H14C21156   2.331   1.030   6.877  0.2525 -0.8813 -0.7110
  185POPC   C1521157   2.225   0.886   7.084  0.2219  0.0902 -0.0693
  185POPC  H15A21158   2.251   0.951   7.167 -0.4691 -0.4257  0.5678
  185POPC  H15B21159   2.182   0.797   7.128  0.7095  0.2613  0.7794
  185POPC  H15C21160   2.144   0.928   7.026 -0.7098  1.0587  1.8358
  185POPC   C1121161   2.200   0.800   6.782  0.2890  0.1604  0.2249
  185POPC  H11A21162   2.254   0.843   6.695  1.2280  1.2617  1.3130
  185POPC  H11B21163   2.156   0.889   6.831  0.7309  0.7612 -0.4454
  185POPC     P21164   1.999   0.657   6.864  0.1460  0.1538 -0.1456
  185POPC   O1321165   1.916   0.776   6.906 -0.5136  0.4799 -0.2437
  185POPC   O1421166   2.072   0.581   6.966 -0.2882  0.2945 -0.0125
  185POPC   O1221167   2.104   0.704   6.749  0.0532 -0.3266  0.5428
  185POPC   O1121168   1.904   0.556   6.781  0.4848  0.2029 -0.0424
  185POPC    C121169   1.964   0.458   6.695 -0.2231 -0.2515 -0.0540
  185POPC    HA21170   1.896   0.370   6.703  1.7900 -1.8091  0.8508
  185POPC    HB21171   2.066   0.425   6.723 -1.0632 -2.8259  0.3053
  185POPC    C221172   1.946   0.501   6.542 -0.1672 -0.6173 -0.2807
  185POPC    HS21173   2.026   0.574   6.518  0.0684 -1.2968 -1.6969
  185POPC   O2121174   1.812   0.554   6.523 -0.3007  0.4903  0.3974
  185POPC   C2121175   1.799   0.689   6.511  0.0380  0.5009  0.2055
  185POPC   O2221176   1.885   0.769   6.510  0.6140  0.4898 -0.4042
  185POPC   C2221177   1.652   0.724   6.490  0.1250 -0.6743  0.4151
  185POPC   H2R21178   1.591   0.715   6.582 -1.2966  0.1664 -0.4162
  185POPC   H2S21179   1.598   0.662   6.416  0.8203 -0.0898 -0.6187
  185POPC    C321180   1.984   0.383   6.446 -0.2596  0.0075  0.3448
  185POPC    HX21181   1.935   0.293   6.488  1.8263 -0.2601  2.3801
  185POPC    HY21182   2.094   0.369   6.443 -0.2179 -0.0333  1.5957
  185POPC   O3121183   1.950   0.408   6.305  0.0319  0.1865  0.2578
  185POPC   C3121184   1.842   0.343   6.254  0.6098 -0.7994  0.4430
  185POPC   O3221185   1.766   0.272   6.311  0.1893  0.1789  0.0005
  185POPC   C3221186   1.819   0.404   6.118 -0.4140  0.6542 -0.1132
  185POPC   H2X21187   1.916   0.439   6.077  0.2926 -1.6897 -0.5314
  185POPC   H2Y21188   1.743   0.485   6.129 -1.0599  0.1571 -0.7924
  185POPC   C2321189   1.644   0.872   6.429  0.5020 -0.0068  1.3022
  185POPC   H3R21190   1.715   0.936   6.486  1.5935 -0.5539  0.5780
  185POPC   H3S21191   1.546   0.922   6.445  0.8256  1.3295 -0.5581
  185POPC   C2421192   1.680   0.875   6.284  0.6269 -0.3214  0.8479
  185POPC   H4R21193   1.610   0.812   6.226  0.5692  0.5873 -0.1115
  185POPC   H4S21194   1.783   0.841   6.258  0.3543  0.0024 -0.7919
  185POPC   C2521195   1.664   1.016   6.230  0.0639 -0.7832 -0.1321
  185POPC   H5R21196   1.723   1.093   6.284 -0.7566 -1.4052  1.7530
  185POPC   H5S21197   1.559   1.051   6.243  0.7954  1.0181  1.2844
  185POPC   C2621198   1.694   1.044   6.086  0.2285  0.3787  0.6926
  185POPC   H6R21199   1.800   1.044   6.051 -0.2122  2.6809 -0.8868
  185POPC   H6S21200   1.656   1.146   6.066 -0.0735  0.1358  0.0072
  185POPC   C2721201   1.626   0.952   5.981  0.4147 -0.0622  0.3058
  185POPC   H7R21202   1.516   0.949   5.989  0.3140 -1.0974 -1.1545
  185POPC   H7S21203   1.660   0.848   6.004  1.0171 -0.0579 -0.5279
  185POPC   C2821204   1.673   0.971   5.835 -0.6522  0.0378  0.2858
  185POPC   H8R21205   1.778   1.006   5.844 -0.5006  0.3590 -2.1862
  185POPC   H8S21206   1.613   1.053   5.791 -1.5928 -0.6035  0.3229
  185POPC   C2921207   1.649   0.847   5.749  0.2092 -0.6735  0.5575
  185POPC   H9121208   1.616   0.753   5.795  3.0938 -2.9074 -1.5980
  185POPC  C21021209   1.644   0.852   5.615  0.1255  0.0053  0.2059
  185POPC  H10121210   1.626   0.757   5.562  3.0616  0.3596 -1.6324
  185POPC  C21121211   1.671   0.977   5.533 -0.1016 -0.4967  0.0293
  185POPC  H11R21212   1.743   1.049   5.578  1.8676 -1.4990 -1.3702
  185POPC  H11S21213   1.575   1.029   5.512 -0.1931  0.8776  3.2084
  185POPC  C21221214   1.739   0.934   5.389 -0.0052  0.7827 -0.7081
  185POPC  H12R21215   1.670   0.859   5.346  0.0554  0.0540  0.4404
  185POPC  H12S21216   1.841   0.898   5.416  0.3957  0.5558 -2.3632
  185POPC  C21321217   1.746   1.052   5.295 -0.1982  0.5663  0.1775
  185POPC  H13R21218   1.784   1.141   5.350  0.6723  1.0315 -1.1355
  185POPC  H13S21219   1.647   1.087   5.258  0.1234  1.6305  0.2886
  185POPC  C21421220   1.832   1.031   5.178  0.5856 -0.0729  0.4614
  185POPC  H14R21221   1.845   0.925   5.146 -1.4273 -0.6501  1.3560
  185POPC  H14S21222   1.936   1.048   5.211  0.8123  0.1107 -0.3290
  185POPC  C21521223   1.789   1.104   5.050  0.5406  0.3954 -0.2576
  185POPC  H15R21224   1.747   1.203   5.079  1.9468  0.8943  0.1849
  185POPC  H15S21225   1.708   1.050   4.997  1.6989 -2.1249  0.4125
  185POPC  C21621226   1.903   1.109   4.955 -0.3673 -0.0730 -0.5280
  185POPC  H16R21227   1.976   1.026   4.967  0.4015  0.3957 -1.8447
  185POPC  H16S21228   1.945   1.212   4.960  0.4393 -0.3344 -1.6434
  185POPC  C21721229   1.862   1.106   4.808  1.5138 -0.3363  0.5845
  185POPC  H17R21230   1.772   1.171   4.798  0.1529 -2.1180  0.7029
  185POPC  H17S21231   1.830   1.003   4.781  1.5823 -0.1555 -0.2111
  185POPC  C21821232   1.980   1.145   4.722  0.1929 -0.1385 -0.6403
  185POPC  H18R21233   2.025   1.242   4.750  0.1602 -0.3155  0.0511
  185POPC  H18S21234   1.954   1.151   4.614  1.1620  0.8900 -0.8217
  185POPC  H18T21235   2.055   1.064   4.731 -0.8510 -1.2136 -1.2264
  185POPC   C3321236   1.760   0.310   6.013 -0.1845 -0.5593  0.3219
  185POPC   H3X21237   1.669   0.263   6.057 -0.7139  1.5663  1.6804
  185POPC   H3Y21238   1.838   0.231   6.007 -1.9172 -3.1484  5.4138
  185POPC   C3421239   1.724   0.378   5.877 -0.1629  0.1092  0.7652
  185POPC   H4X21240   1.817   0.420   5.835 -1.2397 -0.6030 -2.5959
  185POPC   H4Y21241   1.659   0.464   5.902  1.6667  1.4824  0.9535
  185POPC   C3521242   1.654   0.288   5.774  0.3709 -0.7319 -0.6121
  185POPC   H5X21243   1.552   0.277   5.816  0.2981  1.9395  0.0934
  185POPC   H5Y21244   1.702   0.188   5.768 -0.6492 -1.2929  0.2613
  185POPC   C3621245   1.658   0.355   5.636  0.3149  0.0075  0.1824
  185POPC   H6X21246   1.761   0.346   5.595 -0.6721 -0.5568 -2.3777
  185POPC   H6Y21247   1.630   0.461   5.650 -0.2440 -0.1398  0.1957
  185POPC   C3721248   1.558   0.299   5.547  0.7944  0.0133  0.2152
  185POPC   H7X21249   1.458   0.321   5.591  0.7524 -1.4562  0.9142
  185POPC   H7Y21250   1.549   0.188   5.549 -0.8302  0.0997  2.8750
  185POPC   C3821251   1.550   0.352   5.408 -0.2104  0.4585  0.0391
  185POPC   H8X21252   1.646   0.404   5.389  0.5802 -0.4915  1.2973
  185POPC   H8Y21253   1.476   0.436   5.409 -0.1105  0.5762  2.1460
  185POPC   C3921254   1.530   0.252   5.295 -0.0640  0.2995 -0.0374
  185POPC   H9X21255   1.430   0.205   5.303  0.6504 -1.5376 -1.0834
  185POPC   H9Y21256   1.607   0.173   5.313 -0.1846  0.1040 -0.3756
  185POPC  C31021257   1.548   0.306   5.159 -0.3006 -0.6760  0.0272
  185POPC  H10X21258   1.653   0.335   5.139  0.0323 -1.4402  0.6459
  185POPC  H10Y21259   1.490   0.401   5.159 -0.6234 -0.8688  0.4715
  185POPC  C31121260   1.491   0.225   5.034 -0.1622  0.3414 -1.2328
  185POPC  H11X21261   1.384   0.199   5.054  0.8725 -4.4124 -0.7110
  185POPC  H11Y21262   1.550   0.132   5.041 -1.1689 -0.2479 -0.2690
  185POPC  C31221263   1.513   0.294   4.899 -0.2252  0.0605  0.5840
  185POPC  H12X21264   1.497   0.403   4.909  1.4525  0.4971 -0.9309
  185POPC  H12Y21265   1.455   0.252   4.815  1.4286  0.3056 -0.7329
  185POPC  C31321266   1.659   0.283   4.856 -0.3591  0.2322  0.0381
  185POPC  H13X21267   1.692   0.180   4.883  0.1196  0.6667  1.2200
  185POPC  H13Y21268   1.728   0.347   4.916  0.6012 -1.0351  0.3299
  185POPC  C31421269   1.685   0.316   4.710  0.2936  1.0172 -0.0718
  185POPC  H14X21270   1.618   0.240   4.663 -0.5757  2.0678 -0.5923
  185POPC  H14Y21271   1.792   0.302   4.684  0.9006  0.8220  2.3012
  185POPC  C31521272   1.649   0.455   4.654 -0.0030 -0.3639  0.1984
  185POPC  H15X21273   1.706   0.535   4.706  0.8836  1.0234 -2.6941
  185POPC  H15Y21274   1.542   0.483   4.663  0.0864 -0.3819  1.4543
  185POPC  C31621275   1.682   0.470   4.502  0.1074  0.2729 -0.8662
  185POPC  H16X21276   1.596   0.438   4.440 -0.1064 -0.7112 -0.0838
  185POPC  H16Y21277   1.774   0.411   4.483 -0.3449 -0.3379 -1.1688
  185POPC  H16Z21278   1.721   0.569   4.468 -0.3454  0.7302 -0.0946
  186POPC     N21279   4.701   6.529   6.800  0.6212 -0.5132  0.3045
  186POPC   C1221280   4.640   6.568   6.668  0.0567  0.5683 -0.0040
  186POPC  H12A21281   4.617   6.673   6.679  0.7177  0.8192 -0.9921
  186POPC  H12B21282   4.545   6.516   6.671 -0.0908  0.8281  3.1049
  186POPC   C1321283   4.604   6.531   6.908 -0.2952 -0.1384 -0.2053
  186POPC  H13A21284   4.664   6.494   6.990  2.4551  1.8142 -1.1643
  186POPC  H13B21285   4.575   6.635   6.918 -1.9549 -0.4853 -1.1300
  186POPC  H13C21286   4.519   6.467   6.892  0.0162 -0.3652 -1.0137
  186POPC   C1421287   4.751   6.388   6.791  0.0518 -0.0333 -0.1045
  186POPC  H14A21288   4.819   6.372   6.874  0.6858  3.1506  0.1007
  186POPC  H14B21289   4.669   6.318   6.800 -0.5700  0.6223 -0.6426
  186POPC  H14C21290   4.805   6.367   6.700 -1.2723 -1.2036 -0.6550
  186POPC   C1521291   4.820   6.614   6.845  0.0887 -0.2910  0.7369
  186POPC  H15A21292   4.891   6.606   6.764 -0.2231 -3.6338  0.6192
  186POPC  H15B21293   4.879   6.575   6.927  3.4205  0.2019 -1.2632
  186POPC  H15C21294   4.784   6.712   6.872 -1.5695  0.5487 -3.6828
  186POPC   C1121295   4.716   6.546   6.531  0.5343 -0.1755 -0.1268
  186POPC  H11A21296   4.647   6.573   6.448  0.1876  1.1959  0.5744
  186POPC  H11B21297   4.738   6.438   6.515 -0.4674 -1.2425  4.2543
  186POPC     P21298   4.815   6.786   6.510  0.2617  0.0694 -0.0651
  186POPC   O1321299   4.902   6.858   6.607 -0.2863 -0.6894  0.1471
  186POPC   O1421300   4.672   6.821   6.516 -0.2053 -0.2927  0.7003
  186POPC   O1221301   4.833   6.627   6.521 -0.4424  0.0520  0.6145
  186POPC   O1121302   4.861   6.813   6.358 -0.9874  0.0476  0.1776
  186POPC    C121303   4.984   6.745   6.315 -0.1378  0.5103  0.6311
  186POPC    HA21304   5.023   6.668   6.385  0.2952  0.7118  0.6182
  186POPC    HB21305   5.076   6.807   6.299  0.9493 -1.4225 -1.1377
  186POPC    C221306   4.956   6.664   6.173  0.4276  0.0585  0.0292
  186POPC    HS21307   5.055   6.625   6.141 -0.2854 -1.6617 -0.2397
  186POPC   O2121308   4.908   6.752   6.074  0.0650 -0.0855  0.7474
  186POPC   C2121309   4.990   6.846   6.028 -0.5985 -0.2654 -0.1394
  186POPC   O2221310   5.109   6.859   6.054  0.0775 -0.1234 -0.0563
  186POPC   C2221311   4.904   6.944   5.954  0.2531 -0.5162 -0.3410
  186POPC   H2R21312   4.969   7.010   5.893  1.5047  1.4639  2.8880
  186POPC   H2S21313   4.868   7.017   6.030  0.9454  2.0177 -2.3247
  186POPC    C321314   4.843   6.558   6.193  0.6103 -0.5054  0.2004
  186POPC    HX21315   4.755   6.622   6.216  2.2597  1.6495  0.9265
  186POPC    HY21316   4.855   6.501   6.288  2.9799  0.7046  0.7148
  186POPC   O3121317   4.810   6.473   6.074 -0.3040  0.0081  0.1285
  186POPC   C3121318   4.891   6.367   6.052 -0.6764 -0.7058 -0.2190
  186POPC   O3221319   4.999   6.351   6.109 -0.3280  0.1792  0.2640
  186POPC   C3221320   4.823   6.279   5.946 -0.0204  0.5322 -0.5815
  186POPC   H2X21321   4.783   6.344   5.866  2.0821 -1.2826 -3.2772
  186POPC   H2Y21322   4.753   6.213   6.001  0.0137 -0.7966 -2.0871
  186POPC   C2321323   4.787   6.890   5.867  0.7273 -0.0086  0.8230
  186POPC   H3R21324   4.722   6.972   5.830 -1.4124 -1.3312  1.4426
  186POPC   H3S21325   4.721   6.825   5.929 -0.6680  0.2211 -0.3622
  186POPC   C2421326   4.844   6.803   5.745 -0.0917 -0.4748  0.5421
  186POPC   H4R21327   4.909   6.719   5.776 -1.0723 -1.2552  0.5431
  186POPC   H4S21328   4.903   6.872   5.681 -1.2695 -0.1585 -0.2399
  186POPC   C2521329   4.739   6.746   5.661  0.4380  0.2657  0.5716
  186POPC   H5R21330   4.664   6.822   5.630  0.2404  0.5815  1.8028
  186POPC   H5S21331   4.681   6.676   5.726 -1.0817  1.2170  0.3002
  186POPC   C2621332   4.789   6.671   5.535 -0.3015 -0.2040 -0.1512
  186POPC   H6R21333   4.875   6.731   5.499  1.0281 -0.6231  2.1740
  186POPC   H6S21334   4.718   6.692   5.452 -1.1935 -1.2586  0.3131
  186POPC   C2721335   4.807   6.527   5.564 -0.9265  0.1197  0.0678
  186POPC   H7R21336   4.709   6.477   5.581 -0.7494  0.3458  2.0092
  186POPC   H7S21337   4.871   6.519   5.655 -1.3063  0.3092  0.3580
  186POPC   C2821338   4.899   6.457   5.457 -0.0660 -0.0404  0.2315
  186POPC   H8R21339   4.921   6.353   5.491  0.2672 -1.0895 -2.8805
  186POPC   H8S21340   4.992   6.516   5.465 -0.9864  1.8040 -1.7848
  186POPC   C2921341   4.843   6.465   5.319 -0.0669 -0.7817  0.2826
  186POPC   H9121342   4.747   6.412   5.313  0.2618 -1.4637  0.9152
  186POPC  C21021343   4.905   6.511   5.207 -0.3036  0.4453 -0.5256
  186POPC  H10121344   4.860   6.502   5.107 -1.5941  1.7811 -0.0941
  186POPC  C21121345   5.042   6.562   5.191  0.1855  0.3595 -0.3426
  186POPC  H11R21346   5.114   6.478   5.180  0.9400  0.9232  0.1819
  186POPC  H11S21347   5.079   6.630   5.271  1.4070  0.4749 -0.9766
  186POPC  C21221348   5.054   6.630   5.056  0.6241 -0.3325  0.4133
  186POPC  H12R21349   4.981   6.714   5.057  0.8454 -0.1380  0.2916
  186POPC  H12S21350   5.012   6.560   4.981  1.4815 -0.7144  0.2875
  186POPC  C21321351   5.187   6.685   5.012 -0.4769  0.2630 -0.2662
  186POPC  H13R21352   5.258   6.603   4.992  0.4248  0.3788  2.1496
  186POPC  H13S21353   5.220   6.745   5.100  1.9193  0.5276 -1.2872
  186POPC  C21421354   5.169   6.775   4.886 -0.1961 -0.1560  0.2641
  186POPC  H14R21355   5.095   6.850   4.921  2.5090  3.0375 -0.4115
  186POPC  H14S21356   5.138   6.705   4.805  1.4932 -1.1191  0.4252
  186POPC  C21521357   5.292   6.859   4.841  0.1289 -0.6820 -0.0066
  186POPC  H15R21358   5.360   6.787   4.790  1.5369 -0.1974  1.1223
  186POPC  H15S21359   5.349   6.910   4.922  2.3561 -0.8526 -1.3856
  186POPC  C21621360   5.236   6.958   4.731 -0.0064 -0.1772  0.1669
  186POPC  H16R21361   5.165   7.031   4.775  1.4227  1.0155  0.5797
  186POPC  H16S21362   5.188   6.883   4.664  1.6670 -2.8256  1.7351
  186POPC  C21721363   5.350   7.032   4.659  0.3254  0.0331  0.6687
  186POPC  H17R21364   5.396   6.953   4.597 -0.6492 -0.0697  0.0500
  186POPC  H17S21365   5.416   7.083   4.732  1.2390 -0.3825  0.1462
  186POPC  C21821366   5.299   7.144   4.554 -0.8097 -0.2957 -0.3447
  186POPC  H18R21367   5.257   7.223   4.620 -1.6758 -1.5414  0.6411
  186POPC  H18S21368   5.227   7.090   4.489 -0.6134 -2.9210  1.4711
  186POPC  H18T21369   5.388   7.186   4.502  0.5668 -0.6795  1.5872
  186POPC   C3321370   4.916   6.189   5.871  0.4650  0.2553  0.2134
  186POPC   H3X21371   4.978   6.143   5.951 -0.6581 -1.0983  0.3587
  186POPC   H3Y21372   4.963   6.256   5.796 -3.6508  1.6934 -1.3729
  186POPC   C3421373   4.835   6.083   5.792  0.3632  0.7733 -0.6671
  186POPC   H4X21374   4.763   6.140   5.729 -0.7574 -1.7228 -1.7870
  186POPC   H4Y21375   4.776   6.025   5.866 -0.5884  4.2398  1.5121
  186POPC   C3521376   4.918   5.991   5.712 -0.2066  0.0820  0.8557
  186POPC   H5X21377   4.993   5.932   5.770  0.9740 -1.4824 -2.0143
  186POPC   H5Y21378   4.988   6.044   5.644  0.6994 -2.1108 -0.0428
  186POPC   C3621379   4.833   5.901   5.616 -0.1649  0.1547 -0.3965
  186POPC   H6X21380   4.784   5.972   5.547  0.8125  0.9121 -0.3345
  186POPC   H6Y21381   4.752   5.856   5.678 -0.7652  1.4158 -0.2336
  186POPC   C3721382   4.896   5.789   5.525 -0.0760 -0.4558  0.5359
  186POPC   H7X21383   4.878   5.705   5.596 -2.1002  0.8500  1.6473
  186POPC   H7Y21384   5.002   5.814   5.502 -0.1638  0.0846  0.7087
  186POPC   C3821385   4.816   5.761   5.400  0.3786  0.0078 -0.3900
  186POPC   H8X21386   4.709   5.748   5.426  0.2722  2.5315  0.6914
  186POPC   H8Y21387   4.845   5.661   5.359  0.7566 -1.4539  3.0679
  186POPC   C3921388   4.847   5.871   5.295 -0.4552  0.2169  0.4418
  186POPC   H9X21389   4.957   5.862   5.278 -0.4270 -4.1066  1.8520
  186POPC   H9Y21390   4.833   5.969   5.346  1.1060 -0.1377  1.6035
  186POPC  C31021391   4.782   5.867   5.150 -0.3161  0.1982  0.8367
  186POPC  H10X21392   4.676   5.897   5.162 -0.0696  2.3350 -1.5219
  186POPC  H10Y21393   4.793   5.761   5.119 -1.0963  0.5777 -0.7993
  186POPC  C31121394   4.858   5.961   5.053 -0.1192  0.2717 -0.9808
  186POPC  H11X21395   4.969   5.951   5.058 -0.1685 -1.0694 -2.0449
  186POPC  H11Y21396   4.837   6.065   5.086  0.5561  0.4014 -0.9523
  186POPC  C31221397   4.826   5.944   4.901 -0.6858 -0.0234  0.6689
  186POPC  H12X21398   4.867   6.031   4.846 -2.4585  0.1930 -0.3905
  186POPC  H12Y21399   4.715   5.939   4.892 -0.7493 -4.3196  1.6061
  186POPC  C31321400   4.852   5.805   4.841 -0.8314 -0.0223  0.3500
  186POPC  H13X21401   4.785   5.732   4.892 -1.1404 -1.6129 -2.1131
  186POPC  H13Y21402   4.956   5.768   4.853  0.2122  1.7859 -2.1453
  186POPC  C31421403   4.818   5.803   4.688 -0.0518  0.7411 -0.6354
  186POPC  H14X21404   4.903   5.857   4.641  2.0908 -0.0577  2.0583
  186POPC  H14Y21405   4.722   5.856   4.670  1.0026  3.5032  1.2691
  186POPC  C31521406   4.819   5.671   4.622 -0.0081  0.4933  0.1683
  186POPC  H15X21407   4.758   5.597   4.678 -0.4812  0.0748 -0.8771
  186POPC  H15Y21408   4.924   5.636   4.628  0.3386  1.5351  0.3668
  186POPC  C31621409   4.760   5.676   4.485 -0.6097 -0.0963  0.0391
  186POPC  H16X21410   4.749   5.585   4.422 -0.1741  1.5189 -2.4942
  186POPC  H16Y21411   4.813   5.748   4.419  2.2810 -1.1265  1.0505
  186POPC  H16Z21412   4.659   5.723   4.491 -0.5737 -0.1641  4.3033
  187POPC     N21413   5.248   6.697   1.537 -0.2375  0.2839 -0.1890
  187POPC   C1221414   5.274   6.704   1.684  1.2122  0.3318 -0.6167
  187POPC  H12A21415   5.238   6.611   1.724  1.7648  0.1095 -0.6186
  187POPC  H12B21416   5.211   6.783   1.721 -0.5672 -1.0229 -0.6411
  187POPC   C1321417   5.299   6.819   1.478 -0.6757 -0.1327 -0.4117
  187POPC  H13A21418   5.257   6.902   1.533 -0.5611 -0.5426  0.3043
  187POPC  H13B21419   5.407   6.822   1.488 -0.7842  0.3023  0.7782
  187POPC  H13C21420   5.261   6.831   1.378 -0.4342  0.4275 -0.4390
  187POPC   C1421421   5.323   6.579   1.483 -0.7463 -0.3094  0.3360
  187POPC  H14A21422   5.293   6.565   1.380  2.5696  0.2851 -0.8121
  187POPC  H14B21423   5.428   6.602   1.489 -0.7631 -0.0863 -0.2713
  187POPC  H14C21424   5.298   6.493   1.544 -3.6685  0.7434  0.7879
  187POPC   C1521425   5.102   6.689   1.510 -0.2255  0.2465  0.0840
  187POPC  H15A21426   5.079   6.682   1.405 -0.0120 -0.7937  0.0898
  187POPC  H15B21427   5.047   6.773   1.548 -1.2743 -0.6263  0.5453
  187POPC  H15C21428   5.065   6.596   1.550 -1.4345 -0.1511 -1.8368
  187POPC   C1121429   5.417   6.716   1.724 -0.3568  0.1011  0.0708
  187POPC  H11A21430   5.414   6.765   1.824 -2.6192  1.3855 -0.5447
  187POPC  H11B21431   5.469   6.791   1.662  1.7012 -0.5229  0.9784
  187POPC     P21432   5.451   6.476   1.818  0.5986  0.2353  0.2759
  187POPC   O1321433   5.543   6.366   1.781  0.5885 -0.4625 -0.2070
  187POPC   O1421434   5.310   6.442   1.821  0.1989  0.1936  0.1402
  187POPC   O1221435   5.483   6.583   1.711  0.0889 -0.3839  0.2341
  187POPC   O1121436   5.496   6.551   1.949  0.1569  0.6860  0.2772
  187POPC    C121437   5.636   6.563   1.975  0.1480 -0.1484  1.0202
  187POPC    HA21438   5.686   6.586   1.878  2.4239 -1.8681  1.6914
  187POPC    HB21439   5.671   6.459   1.994  0.8561 -0.2728 -0.7392
  187POPC    C221440   5.671   6.671   2.080 -0.1469 -0.1802  0.2637
  187POPC    HS21441   5.779   6.669   2.107 -0.5071 -0.4062  1.7696
  187POPC   O2121442   5.588   6.660   2.198  0.1878  0.1412 -0.1598
  187POPC   C2121443   5.651   6.577   2.283 -0.1783 -0.6623  0.3625
  187POPC   O2221444   5.747   6.504   2.253 -0.0298 -0.5538  0.3340
  187POPC   C2221445   5.588   6.588   2.421  0.2932  0.0710 -0.4205
  187POPC   H2R21446   5.524   6.502   2.448  0.0853  0.0393 -0.9973
  187POPC   H2S21447   5.525   6.680   2.426  1.2242  0.7636 -1.1330
  187POPC    C321448   5.646   6.811   2.016  0.9373  0.1120 -0.0235
  187POPC    HX21449   5.539   6.807   1.986  1.0044 -0.7127 -0.2014
  187POPC    HY21450   5.701   6.818   1.920  2.3288  1.2624  0.8130
  187POPC   O3121451   5.684   6.922   2.098  0.3783 -0.0705  0.3856
  187POPC   C3121452   5.589   7.008   2.124  0.2446 -0.9566 -0.8382
  187POPC   O3221453   5.473   7.001   2.093 -0.0426 -0.1498  0.6802
  187POPC   C3221454   5.641   7.133   2.196  0.7766 -0.2995 -0.0718
  187POPC   H2X21455   5.620   7.216   2.124 -0.4332 -0.5861 -0.0725
  187POPC   H2Y21456   5.751   7.135   2.210  0.9289 -0.1888 -1.1550
  187POPC   C2321457   5.692   6.614   2.538 -0.0642 -0.0798 -0.0078
  187POPC   H3R21458   5.738   6.713   2.516  0.4942 -0.9000 -2.9491
  187POPC   H3S21459   5.772   6.537   2.531 -0.2463 -0.1234 -2.3224
  187POPC   C2421460   5.629   6.596   2.673 -0.2646  0.3094  0.4217
  187POPC   H4R21461   5.575   6.500   2.680 -0.5989  0.5459  1.1493
  187POPC   H4S21462   5.558   6.682   2.676  0.2886  1.1325 -3.6475
  187POPC   C2521463   5.741   6.615   2.787 -0.3261  0.4478 -0.3881
  187POPC   H5R21464   5.798   6.706   2.757  0.4041  0.6110  1.3966
  187POPC   H5S21465   5.813   6.531   2.785  1.0884  1.5657  0.8277
  187POPC   C2621466   5.680   6.629   2.926  0.5156 -0.1530 -0.2928
  187POPC   H6R21467   5.603   6.554   2.949 -0.8916  2.1622  3.4844
  187POPC   H6S21468   5.620   6.722   2.933  1.3845  0.3675  0.4404
  187POPC   C2721469   5.775   6.635   3.045  0.1181 -0.0045 -0.0152
  187POPC   H7R21470   5.801   6.743   3.045  1.2694 -0.2753 -0.1893
  187POPC   H7S21471   5.869   6.592   3.005  0.1464 -1.3914  1.4245
  187POPC   C2821472   5.725   6.574   3.181  0.0424 -0.9076  0.9617
  187POPC   H8R21473   5.692   6.473   3.149 -1.2769 -0.1972 -0.0217
  187POPC   H8S21474   5.643   6.641   3.216  1.8480  0.9183  1.9870
  187POPC   C2921475   5.839   6.559   3.276 -0.3694  0.2144  0.1822
  187POPC   H9121476   5.932   6.536   3.224 -0.5586  0.7547 -0.4123
  187POPC  C21021477   5.849   6.597   3.404  0.0515  0.5606  0.2071
  187POPC  H10121478   5.945   6.597   3.458  0.7493  1.9733 -0.9619
  187POPC  C21121479   5.737   6.654   3.491  0.5223 -0.2629  0.2193
  187POPC  H11R21480   5.678   6.566   3.524  1.3651 -1.3471 -1.0659
  187POPC  H11S21481   5.673   6.722   3.431  1.1459 -0.3171 -0.5328
  187POPC  C21221482   5.782   6.738   3.616 -0.4937 -0.2647 -0.3646
  187POPC  H12R21483   5.695   6.791   3.660 -0.0564  1.4850 -1.4995
  187POPC  H12S21484   5.847   6.811   3.562 -2.3385  0.8383 -1.1755
  187POPC  C21321485   5.876   6.654   3.715  1.6845 -0.6652 -0.7584
  187POPC  H13R21486   5.965   6.619   3.659  1.3515 -0.1837 -1.6214
  187POPC  H13S21487   5.814   6.566   3.743  0.9636  0.3154  0.9281
  187POPC  C21421488   5.925   6.750   3.823  0.4005 -0.3378  0.2015
  187POPC  H14R21489   5.842   6.776   3.893 -1.3603  0.3664 -2.0026
  187POPC  H14S21490   5.958   6.847   3.778  1.1595 -0.0242  1.4010
  187POPC  C21521491   6.047   6.697   3.908  0.2463  0.6458  0.4916
  187POPC  H15R21492   6.141   6.691   3.848  0.8506  3.1860  1.0701
  187POPC  H15S21493   6.020   6.594   3.938  0.1756 -0.0142 -1.6538
  187POPC  C21621494   6.080   6.778   4.036 -0.2092 -0.3699  0.2152
  187POPC  H16R21495   6.006   6.744   4.112  1.7315  0.5389  2.6465
  187POPC  H16S21496   6.065   6.886   4.015  0.4452 -0.3145  0.0007
  187POPC  C21721497   6.215   6.742   4.094 -0.4761 -0.2132 -0.1650
  187POPC  H17R21498   6.236   6.815   4.175  1.6174 -0.6185 -0.2881
  187POPC  H17S21499   6.295   6.742   4.016  0.3186  0.1423  0.6297
  187POPC  C21821500   6.219   6.600   4.154  0.0691  0.2801 -0.1326
  187POPC  H18R21501   6.131   6.604   4.222 -1.5325 -0.5976 -2.0490
  187POPC  H18S21502   6.299   6.580   4.228 -2.6162  0.3437  3.0564
  187POPC  H18T21503   6.208   6.515   4.085 -1.1488 -1.2592  1.8469
  187POPC   C3321504   5.567   7.175   2.323  0.7999 -0.2689 -0.4639
  187POPC   H3X21505   5.475   7.231   2.296  0.3718 -1.2007 -0.9682
  187POPC   H3Y21506   5.626   7.250   2.382  0.7156  0.1757 -0.9391
  187POPC   C3421507   5.517   7.060   2.412  0.1056  1.0608  0.5909
  187POPC   H4X21508   5.448   6.994   2.354  0.7232  0.0825  0.9486
  187POPC   H4Y21509   5.452   7.098   2.494  2.2048  0.8113  2.4589
  187POPC   C3521510   5.640   6.981   2.459  0.4195  0.4493 -0.1695
  187POPC   H5X21511   5.689   6.937   2.370  1.3909  0.2803  0.4425
  187POPC   H5Y21512   5.604   6.894   2.518  1.9963 -0.1903 -0.1069
  187POPC   C3621513   5.739   7.064   2.545 -0.3669 -0.0620 -0.6884
  187POPC   H6X21514   5.677   7.139   2.598 -0.9406 -1.2791  0.4388
  187POPC   H6Y21515   5.815   7.121   2.487 -0.3031 -0.1720 -0.7123
  187POPC   C3721516   5.810   6.986   2.656  0.0555  0.3201  0.4607
  187POPC   H7X21517   5.889   6.928   2.605 -0.9411 -0.5469 -0.1463
  187POPC   H7Y21518   5.746   6.912   2.710  1.1586  0.3672  1.9041
  187POPC   C3821519   5.871   7.078   2.771 -0.4497  0.3067 -0.1830
  187POPC   H8X21520   5.780   7.130   2.807 -1.1611  1.0134 -2.7953
  187POPC   H8Y21521   5.956   7.138   2.729  0.6177 -1.3215 -0.4227
  187POPC   C3921522   5.951   6.992   2.876  0.0029 -0.2974  0.2064
  187POPC   H9X21523   6.024   6.932   2.818 -1.6242 -1.4124 -0.7698
  187POPC   H9Y21524   5.869   6.924   2.907  0.2445 -0.8545 -0.3759
  187POPC  C31021525   6.009   7.074   2.988  0.0888  0.3096  0.4861
  187POPC  H10X21526   5.931   7.142   3.029  0.4405  0.8824  0.2195
  187POPC  H10Y21527   6.090   7.139   2.950 -0.8217  0.2032 -1.7779
  187POPC  C31121528   6.074   6.986   3.096 -0.2166 -0.5072 -1.0557
  187POPC  H11X21529   6.152   6.926   3.046  0.8602 -0.5321  0.5956
  187POPC  H11Y21530   5.995   6.931   3.152 -0.8815  2.4041  1.1084
  187POPC  C31221531   6.143   7.076   3.213  0.8003  1.0075 -0.3630
  187POPC  H12X21532   6.072   7.148   3.259  0.9296  1.0915 -0.2951
  187POPC  H12Y21533   6.227   7.133   3.169  0.7615  0.7456 -0.7790
  187POPC  C31321534   6.194   6.972   3.324  0.2914  0.4607  0.3697
  187POPC  H13X21535   6.272   7.025   3.384  1.2735 -0.3091 -0.1962
  187POPC  H13Y21536   6.230   6.883   3.269  1.9708  0.7313  0.9634
  187POPC  C31421537   6.092   6.936   3.430 -0.4158  0.4740  0.5029
  187POPC  H14X21538   6.008   6.880   3.385  1.9589 -2.3013 -0.7941
  187POPC  H14Y21539   6.063   7.020   3.498 -0.1416  0.2482  0.9046
  187POPC  C31521540   6.149   6.833   3.527  0.0658  0.2170 -0.1414
  187POPC  H15X21541   6.205   6.760   3.464 -1.6147 -0.5407 -0.8213
  187POPC  H15Y21542   6.076   6.764   3.575 -1.0929  2.2450  1.1376
  187POPC  C31621543   6.246   6.893   3.627  0.2477 -0.7463  0.0985
  187POPC  H16X21544   6.325   6.965   3.597  0.3750 -0.8015  0.3014
  187POPC  H16Y21545   6.303   6.818   3.685  1.2579  0.2421  0.4119
  187POPC  H16Z21546   6.187   6.949   3.703  0.9859  0.9043 -0.4891
  188POPC     N21547   5.596   5.096   1.785 -0.4155 -0.1253  0.3744
  188POPC   C1221548   5.670   5.087   1.650 -0.2559  0.0916  0.3177
  188POPC  H12A21549   5.631   5.163   1.584  2.1635 -0.4356 -1.8922
  188POPC  H12B21550   5.637   4.996   1.601 -0.1478 -0.6614  1.6088
  188POPC   C1321551   5.598   5.239   1.834 -0.2721 -0.6259 -0.0465
  188POPC  H13A21552   5.559   5.247   1.934  1.1704 -0.5168  0.5352
  188POPC  H13B21553   5.697   5.278   1.850 -0.8348 -0.1190  2.5435
  188POPC  H13C21554   5.553   5.299   1.756 -0.7310 -4.1999 -2.8007
  188POPC   C1421555   5.458   5.042   1.764 -0.1792  0.7761  0.8537
  188POPC  H14A21556   5.399   5.052   1.854 -1.5566  1.8271 -0.1196
  188POPC  H14B21557   5.408   5.098   1.686 -0.4104 -2.1971 -1.3159
  188POPC  H14C21558   5.446   4.939   1.732  1.3069  1.0384 -0.6466
  188POPC   C1521559   5.666   5.004   1.884 -0.8960 -0.0771 -0.5623
  188POPC  H15A21560   5.626   5.020   1.983 -0.2222  1.0003 -0.4512
  188POPC  H15B21561   5.768   5.037   1.897 -0.3740 -1.5933 -0.5692
  188POPC  H15C21562   5.660   4.903   1.845  0.7372  0.1630 -1.5680
  188POPC   C1121563   5.832   5.081   1.648 -0.9332 -0.6409  0.1556
  188POPC  H11A21564   5.856   5.083   1.540 -0.9340 -0.5818  0.1564
  188POPC  H11B21565   5.868   4.989   1.700 -3.5905 -1.1914  1.1486
  188POPC     P21566   5.893   5.339   1.641  0.1231  0.2983  0.3577
  188POPC   O1321567   5.783   5.348   1.549  0.2904  0.4962  0.0258
  188POPC   O1421568   6.028   5.364   1.591  0.0209  0.3837 -0.5645
  188POPC   O1221569   5.897   5.194   1.703  0.3283 -0.2048 -0.1677
  188POPC   O1121570   5.865   5.426   1.769  0.6932  1.0273 -0.0952
  188POPC    C121571   5.967   5.501   1.826  0.3356 -0.2849 -0.2651
  188POPC    HA21572   6.019   5.575   1.761 -0.0050  0.8747  0.7305
  188POPC    HB21573   6.048   5.437   1.867  0.0954 -1.8991 -2.1876
  188POPC    C221574   5.906   5.592   1.939  0.6069  0.0353 -0.2064
  188POPC    HS21575   5.989   5.648   1.988  1.5234 -2.2301  0.9845
  188POPC   O2121576   5.828   5.526   2.048 -0.1495 -0.3400  0.4024
  188POPC   C2121577   5.891   5.421   2.108  0.2786 -0.6527  0.1140
  188POPC   O2221578   6.007   5.399   2.101 -0.4792  0.3608  0.0890
  188POPC   C2221579   5.800   5.356   2.202 -0.2338  0.1528 -0.4213
  188POPC   H2R21580   5.714   5.309   2.150 -2.0014  0.3376  2.1749
  188POPC   H2S21581   5.775   5.439   2.271  1.0859  0.6863 -0.5466
  188POPC    C321582   5.819   5.703   1.867  0.0049 -0.2397  0.0239
  188POPC    HX21583   5.731   5.654   1.820 -1.2656  1.9326 -0.0015
  188POPC    HY21584   5.877   5.747   1.783 -1.4868 -0.7061 -1.2956
  188POPC   O3121585   5.774   5.806   1.958  0.1845 -0.7539 -0.2736
  188POPC   C3121586   5.868   5.885   2.009 -0.6030 -0.1791 -0.1904
  188POPC   O3221587   5.991   5.879   1.987  0.5525  0.1714 -0.5511
  188POPC   C3221588   5.815   5.976   2.116 -0.1476  0.2228  0.1110
  188POPC   H2X21589   5.717   6.021   2.088  1.0642  3.3105  0.4131
  188POPC   H2Y21590   5.892   6.056   2.126  0.9951 -0.7968 -0.3225
  188POPC   C2321591   5.874   5.245   2.282 -0.1449 -0.0786 -0.2006
  188POPC   H3R21592   5.984   5.258   2.298 -0.2553 -1.3854  1.9656
  188POPC   H3S21593   5.864   5.152   2.222  1.0229  0.7707 -1.7940
  188POPC   C2421594   5.811   5.215   2.416  0.3272 -0.5594  0.0654
  188POPC   H4R21595   5.702   5.198   2.401  0.3396  0.2380 -1.0617
  188POPC   H4S21596   5.825   5.309   2.474  0.9075 -0.8601  0.4225
  188POPC   C2521597   5.875   5.095   2.483  0.2697  0.3164 -0.5556
  188POPC   H5R21598   5.986   5.105   2.484  0.1999  1.3740  1.4676
  188POPC   H5S21599   5.837   5.010   2.422 -3.1742  1.4243 -0.1621
  188POPC   C2621600   5.835   5.074   2.633 -0.2596  0.2162  1.0621
  188POPC   H6R21601   5.863   4.970   2.656 -1.7977 -0.4675  0.0309
  188POPC   H6S21602   5.725   5.075   2.651 -0.3214  0.3557  0.6776
  188POPC   C2721603   5.898   5.163   2.743 -0.0538 -0.3141 -0.3317
  188POPC   H7R21604   5.909   5.262   2.693  0.3561 -0.4078 -0.4341
  188POPC   H7S21605   6.001   5.122   2.752  0.4713  0.6907 -1.4398
  188POPC   C2821606   5.831   5.175   2.876  0.4120  0.6245 -0.1603
  188POPC   H8R21607   5.727   5.209   2.857  1.1127  4.1042  1.4717
  188POPC   H8S21608   5.886   5.251   2.935 -0.6657 -0.4609  2.3584
  188POPC   C2921609   5.839   5.042   2.952  0.3589  0.5018 -0.1647
  188POPC   H9121610   5.829   4.951   2.892 -0.7459 -0.3364  1.2313
  188POPC  C21021611   5.854   5.023   3.081  0.0211  0.7819 -0.1880
  188POPC  H10121612   5.855   4.922   3.126 -0.0736  1.2233  0.8283
  188POPC  C21121613   5.877   5.134   3.180 -0.0099 -0.6983  0.3894
  188POPC  H11R21614   5.845   5.234   3.143  1.7062  0.0352  0.7755
  188POPC  H11S21615   5.986   5.146   3.200 -0.1547  1.0762  0.2685
  188POPC  C21221616   5.810   5.111   3.314 -0.5359  0.1229  0.8580
  188POPC  H12R21617   5.703   5.086   3.295 -0.1988  0.4499 -1.8595
  188POPC  H12S21618   5.817   5.205   3.374  2.0596  1.3414 -1.1382
  188POPC  C21321619   5.883   5.005   3.395  0.1721 -0.0403 -0.1828
  188POPC  H13R21620   5.991   5.033   3.402  0.7341 -1.3195 -2.4912
  188POPC  H13S21621   5.885   4.904   3.347  1.0306 -1.6157  2.8561
  188POPC  C21421622   5.829   4.977   3.533  0.8475  0.0286 -0.3164
  188POPC  H14R21623   5.833   5.065   3.601  1.0448 -1.0509  1.1049
  188POPC  H14S21624   5.892   4.901   3.583  1.8796  0.8362 -0.3515
  188POPC  C21521625   5.686   4.926   3.528  0.5914  0.7077 -0.1107
  188POPC  H15R21626   5.684   4.834   3.465  1.6474  1.5465 -1.4174
  188POPC  H15S21627   5.619   5.003   3.485  1.2994  2.4248  1.7129
  188POPC  C21621628   5.622   4.896   3.662  0.6531 -0.6240 -0.0690
  188POPC  H16R21629   5.672   4.805   3.703 -1.1117 -0.6017  2.3372
  188POPC  H16S21630   5.516   4.865   3.651  0.4418  0.5531 -1.6018
  188POPC  C21721631   5.638   5.018   3.767  0.0514 -0.5029 -0.6178
  188POPC  H17R21632   5.742   5.019   3.805 -0.6242 -0.4755  1.3621
  188POPC  H17S21633   5.574   4.980   3.850 -1.0773 -2.5248 -2.2952
  188POPC  C21821634   5.576   5.149   3.738  0.2606 -0.0702 -0.1965
  188POPC  H18R21635   5.585   5.231   3.812  2.3747 -0.1798 -0.2540
  188POPC  H18S21636   5.469   5.145   3.710 -0.2714  0.7128  1.5884
  188POPC  H18T21637   5.630   5.184   3.647  0.1329  1.7006  0.3819
  188POPC   C3321638   5.818   5.913   2.258 -0.0581 -0.3501 -0.8016
  188POPC   H3X21639   5.806   5.987   2.340  1.3737  0.2235 -1.0752
  188POPC   H3Y21640   5.919   5.870   2.276  0.7703  0.6893 -2.6459
  188POPC   C3421641   5.699   5.816   2.287 -0.0375  0.0590  0.3479
  188POPC   H4X21642   5.683   5.757   2.194 -1.9278 -0.0466  0.6934
  188POPC   H4Y21643   5.604   5.872   2.301 -2.2208 -3.4080  0.5997
  188POPC   C3521644   5.722   5.717   2.401  0.2672 -0.7095  0.3906
  188POPC   H5X21645   5.827   5.683   2.390  0.4782  0.3552 -1.1976
  188POPC   H5Y21646   5.653   5.631   2.392 -1.3931  0.6736 -0.8360
  188POPC   C3621647   5.697   5.774   2.542  0.0731 -0.2406  0.2771
  188POPC   H6X21648   5.589   5.798   2.554  0.4993  1.7004  0.4290
  188POPC   H6Y21649   5.769   5.858   2.553  0.0179 -0.4760  3.2433
  188POPC   C3721650   5.728   5.660   2.646  0.1707  0.3230 -0.0689
  188POPC   H7X21651   5.837   5.639   2.645  0.2051  0.4645 -1.5504
  188POPC   H7Y21652   5.687   5.563   2.611 -0.5152  0.4684  0.3143
  188POPC   C3821653   5.697   5.700   2.786 -0.0035 -0.3054 -0.8221
  188POPC   H8X21654   5.587   5.689   2.800 -0.2130  1.4581 -0.8469
  188POPC   H8Y21655   5.713   5.809   2.801 -2.5691  0.3107 -1.9395
  188POPC   C3921656   5.775   5.611   2.893  1.1731  0.2723  0.4651
  188POPC   H9X21657   5.885   5.627   2.880  1.0219  0.2794 -0.9783
  188POPC   H9Y21658   5.752   5.503   2.888  0.7537  0.1812  3.2014
  188POPC  C31021659   5.735   5.650   3.034  0.2779 -0.6084  0.4117
  188POPC  H10X21660   5.627   5.669   3.048  0.1525  1.9132 -2.7215
  188POPC  H10Y21661   5.783   5.745   3.065  1.0313 -0.7270 -0.3357
  188POPC  C31121662   5.791   5.557   3.144  0.7841 -0.0351 -0.0280
  188POPC  H11X21663   5.900   5.538   3.140  0.7331 -0.3535  0.0610
  188POPC  H11Y21664   5.738   5.460   3.132 -1.3941  1.1776 -0.7285
  188POPC  C31221665   5.748   5.602   3.287  1.2401 -0.1866  0.0120
  188POPC  H12X21666   5.637   5.612   3.288  1.3266  1.0190  1.8547
  188POPC  H12Y21667   5.789   5.701   3.317  0.2925 -0.1859  1.3882
  188POPC  C31321668   5.794   5.501   3.385  0.5321  0.7242 -0.1276
  188POPC  H13X21669   5.890   5.457   3.348  0.8635  2.7056 -1.7726
  188POPC  H13Y21670   5.720   5.418   3.390  0.2929  0.8623 -1.0742
  188POPC  C31421671   5.802   5.560   3.530  0.2715  0.0911  0.1973
  188POPC  H14X21672   5.700   5.585   3.564  0.0062  0.8875 -1.1094
  188POPC  H14Y21673   5.859   5.655   3.539 -0.4451  0.4663  0.8592
  188POPC  C31521674   5.858   5.458   3.631  0.0485 -0.0867  0.2799
  188POPC  H15X21675   5.925   5.390   3.573 -0.5990 -0.3960 -0.1082
  188POPC  H15Y21676   5.781   5.390   3.672 -0.8999  1.4292  1.1039
  188POPC  C31621677   5.925   5.528   3.752  0.1705 -0.2333  0.0334
  188POPC  H16X21678   5.872   5.613   3.800 -1.1741 -1.0004 -0.0656
  188POPC  H16Y21679   6.015   5.582   3.714 -0.4225  0.2110 -0.7582
  188POPC  H16Z21680   5.953   5.456   3.833 -1.0685  0.2142  0.8799
  189SAPI   C1221681   3.006   0.761   6.800  0.5241 -0.0106  0.0366
  189SAPI    H221682   2.971   0.865   6.781 -0.4349 -0.4975 -0.9463
  189SAPI    O221683   3.077   0.723   6.684  0.0570  0.4109 -0.4546
  189SAPI   HO221684   3.013   0.713   6.612 -1.4625 -2.2646  1.0674
  189SAPI   C1321685   3.095   0.764   6.917 -0.0273 -0.1084 -1.3057
  189SAPI    H321686   3.025   0.799   6.996 -0.0575 -0.8861 -0.9844
  189SAPI    O321687   3.191   0.878   6.911 -0.2268  0.2281  0.5082
  189SAPI   HO321688   3.256   0.852   6.845 -2.2972 -0.6957 -1.3256
  189SAPI   C1421689   3.152   0.633   6.959 -0.0072 -0.4103  0.5340
  189SAPI    H421690   3.242   0.614   6.896 -0.8970 -0.9590 -0.6156
  189SAPI    O421691   3.204   0.642   7.087 -0.3725 -0.1825 -0.1413
  189SAPI   HO421692   3.294   0.607   7.089 -0.7302 -1.1413 -0.4658
  189SAPI   C1521693   3.058   0.507   6.931  0.3998 -0.8987  0.3730
  189SAPI    H521694   3.005   0.497   7.029 -2.7210 -0.4409 -1.1415
  189SAPI    O521695   3.129   0.382   6.925 -0.2889 -0.4706 -0.4725
  189SAPI   HO521696   3.103   0.333   6.846 -1.3993  0.6376 -0.8223
  189SAPI   C1621697   2.936   0.518   6.837 -0.4419 -0.4200  0.2187
  189SAPI    H621698   2.972   0.481   6.738  1.6211 -0.6663  1.0173
  189SAPI    O621699   2.831   0.437   6.883 -0.3090 -0.1352  0.2784
  189SAPI   HO621700   2.808   0.376   6.813  0.9954 -1.6994  1.1427
  189SAPI   C1121701   2.892   0.668   6.817  0.2515  0.4921  0.2191
  189SAPI    H121702   2.846   0.696   6.914 -0.7608  1.3093 -0.4766
  189SAPI     P21703   2.640   0.729   6.752  0.0519 -0.2039 -0.3208
  189SAPI   O1321704   2.633   0.877   6.774  0.7146  0.0082  0.0274
  189SAPI   O1421705   2.590   0.651   6.865  0.1333 -0.1086  0.2230
  189SAPI   O1221706   2.795   0.682   6.719 -0.6598  0.0058 -0.3474
  189SAPI   O1121707   2.555   0.703   6.621  0.1866  0.4073 -0.4677
  189SAPI    C121708   2.606   0.757   6.502  0.2627  0.3820  0.0564
  189SAPI    HA21709   2.714   0.783   6.512  0.2493  0.0948  1.0381
  189SAPI    HB21710   2.576   0.683   6.424 -2.0760  1.2931  0.0120
  189SAPI    C221711   2.523   0.886   6.462 -0.1352 -0.3143 -0.2402
  189SAPI    HS21712   2.509   0.949   6.552 -0.6929 -1.2897  0.3856
  189SAPI   O2121713   2.394   0.842   6.420 -0.2822 -0.6773 -0.4465
  189SAPI   C2121714   2.305   0.934   6.400 -0.2394 -0.2361 -0.1384
  189SAPI   O2221715   2.321   1.049   6.439  0.0740 -0.2933  0.2998
  189SAPI   C2221716   2.181   0.873   6.342 -0.1395  0.0226  0.3779
  189SAPI   H2R21717   2.106   0.860   6.423 -0.4607  0.3175  0.1335
  189SAPI   H2S21718   2.134   0.957   6.286 -0.1898 -0.4302 -0.2647
  189SAPI    C321719   2.596   0.966   6.358 -0.0787  0.3857 -0.1617
  189SAPI    HX21720   2.703   0.980   6.383 -0.6772  1.6203  1.9264
  189SAPI    HY21721   2.546   1.064   6.372  1.5858  1.4727 -1.4123
  189SAPI   O3121722   2.576   0.912   6.227  0.3712  0.6312 -0.1991
  189SAPI   C3121723   2.669   0.826   6.179  0.2168 -0.5836  0.2545
  189SAPI   O3221724   2.773   0.789   6.228 -0.2351 -0.1325  0.0148
  189SAPI   C3221725   2.630   0.765   6.046 -0.6572  0.0097 -0.6153
  189SAPI   H2X21726   2.665   0.826   5.960  1.3654  0.7308  0.6534
  189SAPI   H2Y21727   2.519   0.758   6.046 -0.6141 -0.8847 -1.7718
  189SAPI   C2321728   2.215   0.747   6.255  0.1585  0.0879  0.6525
  189SAPI   H3R21729   2.253   0.675   6.329 -0.3520  0.2896  1.1111
  189SAPI   H3S21730   2.298   0.773   6.185  0.5674 -0.7376  0.8210
  189SAPI   C2421731   2.106   0.676   6.183 -0.1399 -0.5013  0.0673
  189SAPI   H4R21732   2.040   0.630   6.260  0.0720 -1.0209 -0.0553
  189SAPI   H4S21733   2.152   0.594   6.124  0.4568 -0.8773  1.0242
  189SAPI   C2521734   2.027   0.769   6.099  0.4450  0.6485  0.4224
  189SAPI   H5R21735   1.990   0.855   6.157 -1.0228 -1.5001  2.8829
  189SAPI   C2621736   1.997   0.760   5.966 -1.1116  0.0564  0.8301
  189SAPI   H6R21737   1.929   0.832   5.918  0.1395  0.1728 -0.8836
  189SAPI   C2721738   2.033   0.648   5.874 -0.1394  0.0340 -0.2269
  189SAPI   H7R21739   1.947   0.623   5.807  1.0843 -2.0915 -1.1410
  189SAPI   H7S21740   2.053   0.555   5.932 -0.7583 -1.0133 -1.6142
  189SAPI   C2821741   2.159   0.678   5.798 -0.1930 -0.3601  0.7297
  189SAPI   H8R21742   2.229   0.743   5.853 -0.4922  1.7911 -1.2266
  189SAPI   C2921743   2.192   0.652   5.674 -0.0097  0.9380  0.4755
  189SAPI   H9R21744   2.280   0.700   5.629 -0.4918  0.8802 -0.5567
  189SAPI  C21021745   2.103   0.573   5.584  0.8643 -0.6107 -0.2401
  189SAPI  H10R21746   2.029   0.509   5.637  0.2337  0.1601 -0.1740
  189SAPI  H10S21747   2.160   0.497   5.526 -0.4507 -1.9575  0.1699
  189SAPI  C21121748   2.027   0.663   5.486 -0.6125 -0.8350  0.0922
  189SAPI  H11R21749   1.978   0.744   5.543  0.9461 -0.1550  0.5293
  189SAPI  C21221750   2.017   0.658   5.349  0.7147  0.1840 -0.2568
  189SAPI  H12R21751   1.948   0.728   5.301 -1.0327 -0.5620  1.0321
  189SAPI  C21321752   2.078   0.552   5.267 -0.2107  0.9417 -0.1740
  189SAPI  H13R21753   2.138   0.487   5.335  0.8749 -0.1813 -2.0994
  189SAPI  H13S21754   2.146   0.597   5.191  0.0820 -1.6631 -1.5700
  189SAPI  C21421755   1.975   0.472   5.195  0.5192 -0.2986 -0.1317
  189SAPI  H14R21756   1.875   0.488   5.237 -0.1069  1.7229 -2.1986
  189SAPI  C21521757   1.974   0.411   5.074  0.2719  0.5021 -0.3615
  189SAPI  H15R21758   1.878   0.370   5.038 -0.3011  0.8034  0.7795
  189SAPI  C21621759   2.095   0.397   4.983 -0.3257 -0.0451  0.5545
  189SAPI  H16R21760   2.139   0.295   4.985 -0.0462  0.0796  0.8496
  189SAPI  H16S21761   2.168   0.473   5.018  0.4399  0.4110 -1.8343
  189SAPI  C21721762   2.072   0.438   4.832  0.3610 -0.4640 -1.0627
  189SAPI  H17R21763   2.015   0.359   4.779 -0.2286  0.4424 -1.8178
  189SAPI  H17S21764   2.174   0.445   4.791  0.4803  0.2069 -0.6845
  189SAPI  C21821765   1.983   0.566   4.831 -0.0484 -0.2676  0.3999
  189SAPI  H18R21766   2.012   0.631   4.917  1.3312 -1.4137  0.8415
  189SAPI  H18S21767   1.878   0.535   4.848  0.0713 -0.5854  0.5761
  189SAPI  C21921768   1.988   0.624   4.682 -0.5122 -0.5566 -0.0575
  189SAPI  H19R21769   1.884   0.657   4.666 -0.5974  0.5881  2.4402
  189SAPI  H19S21770   2.005   0.548   4.602  0.0601  0.3577 -0.8303
  189SAPI  C22021771   2.080   0.742   4.656 -0.1219  0.1055  0.6105
  189SAPI  H20R21772   2.079   0.769   4.549 -1.5835 -1.5441  0.1457
  189SAPI  H20S21773   2.187   0.721   4.674  1.3693  4.7597 -1.3981
  189SAPI  H20T21774   2.052   0.835   4.710 -1.7522  1.1441 -1.8352
  189SAPI   C3321775   2.697   0.627   6.025 -0.6064  0.5221 -0.5383
  189SAPI   H3X21776   2.692   0.553   6.107 -1.6610 -1.9606 -2.6851
  189SAPI   H3Y21777   2.807   0.639   6.012 -0.5254  0.3253 -0.0561
  189SAPI   C3421778   2.644   0.551   5.902 -0.0209 -0.3369  0.7053
  189SAPI   H4X21779   2.537   0.525   5.914  0.0100  0.0142  1.8589
  189SAPI   H4Y21780   2.706   0.458   5.894  0.6806  0.1748 -0.0166
  189SAPI   C3521781   2.656   0.617   5.765 -0.5533  0.3531  0.4353
  189SAPI   H5X21782   2.761   0.639   5.736 -0.4992 -1.2143 -0.6716
  189SAPI   H5Y21783   2.602   0.714   5.764 -0.1607  0.5729  0.4960
  189SAPI   C3621784   2.603   0.530   5.650 -0.0097 -0.4620  0.1465
  189SAPI   H6X21785   2.492   0.541   5.651 -0.0753 -1.0858  0.7674
  189SAPI   H6Y21786   2.617   0.422   5.672 -1.0788 -0.1251  2.9938
  189SAPI   C3721787   2.646   0.575   5.513  0.0856 -0.8950 -0.3458
  189SAPI   H7X21788   2.756   0.583   5.503 -0.1789  2.7075 -2.0072
  189SAPI   H7Y21789   2.606   0.677   5.493  0.5749 -0.6145  0.0950
  189SAPI   C3821790   2.582   0.492   5.401  0.8249  0.2035  0.5748
  189SAPI   H8X21791   2.472   0.489   5.414  0.8272 -2.6978  0.7224
  189SAPI   H8Y21792   2.610   0.386   5.421 -0.3371 -0.1807  0.2552
  189SAPI   C3921793   2.611   0.555   5.266  0.3339 -0.1238 -0.4896
  189SAPI   H9X21794   2.718   0.552   5.240  0.1327  0.4128 -1.4078
  189SAPI   H9Y21795   2.568   0.657   5.262 -0.4089 -0.3029  1.4580
  189SAPI  C31021796   2.540   0.476   5.156  0.5175 -0.5140  0.2885
  189SAPI  H10X21797   2.430   0.493   5.151  0.6690  1.0867  1.5278
  189SAPI  H10Y21798   2.578   0.371   5.159  1.2891 -0.2378  0.2674
  189SAPI  C31121799   2.600   0.509   5.010 -0.1293 -0.6712  0.5673
  189SAPI  H11X21800   2.709   0.487   5.008  0.5390  2.2404 -1.9550
  189SAPI  H11Y21801   2.584   0.616   4.986  1.5154 -0.6032 -0.3625
  189SAPI  C31221802   2.539   0.432   4.901  0.2467  0.3856 -0.3893
  189SAPI  H12X21803   2.429   0.451   4.907  0.3589  0.6519  1.2812
  189SAPI  H12Y21804   2.551   0.321   4.904 -0.3280  0.3198 -0.3220
  189SAPI  C31321805   2.580   0.486   4.766 -0.5170 -0.7248  0.4016
  189SAPI  H13X21806   2.690   0.505   4.765 -0.7924  1.1426 -1.0663
  189SAPI  H13Y21807   2.544   0.589   4.743  1.7504  0.3247  1.2680
  189SAPI  C31421808   2.537   0.393   4.653 -0.1285 -0.2734  0.6055
  189SAPI  H14X21809   2.426   0.401   4.655 -0.1018  0.0660  1.0253
  189SAPI  H14Y21810   2.563   0.287   4.675 -0.5124 -0.1599  1.6982
  189SAPI  C31521811   2.581   0.438   4.505 -0.3266  0.5998 -0.5170
  189SAPI  H15X21812   2.592   0.548   4.509 -0.2912  0.5575  2.4296
  189SAPI  H15Y21813   2.500   0.412   4.434 -0.1545  0.2097 -0.5757
  189SAPI  C31621814   2.698   0.358   4.459  0.4010  0.4289  0.2921
  189SAPI  H16X21815   2.780   0.372   4.533 -0.1883  0.9257  0.8670
  189SAPI  H16Y21816   2.735   0.400   4.364 -0.2378 -0.3496 -0.3181
  189SAPI  C31721817   2.666   0.214   4.430  0.4423  0.2633  0.1079
  189SAPI  H17X21818   2.575   0.201   4.367 -0.4819 -0.7470  1.5907
  189SAPI  H17Y21819   2.633   0.167   4.525 -0.6382 -0.6746 -0.6918
  189SAPI  C31821820   2.785   0.133   4.380 -0.3430 -0.0656 -0.4463
  189SAPI  H18X21821   2.741   0.033   4.357  1.5026 -0.6902 -1.4346
  189SAPI  H18Y21822   2.863   0.129   4.460  1.1547  2.8108 -1.6290
  189SAPI  H18Z21823   2.824   0.188   4.292  0.7104 -0.0107  0.0285
  190SAPI   C1221824   2.792   2.381   6.790 -0.0743 -0.0636  0.1253
  190SAPI    H221825   2.731   2.420   6.875  0.7108 -1.7848  1.5480
  190SAPI    O221826   2.839   2.499   6.717 -0.3169  0.4892 -0.1794
  190SAPI   HO221827   2.775   2.508   6.645  1.5975 -2.6702 -2.5077
  190SAPI   C1321828   2.904   2.302   6.854 -0.5073  0.0762 -0.1669
  190SAPI    H321829   2.868   2.209   6.903  1.6333 -0.7884 -0.1240
  190SAPI    O321830   2.965   2.377   6.957  0.1933  0.0506 -0.1264
  190SAPI   HO321831   2.993   2.457   6.912  0.3528 -0.6184 -1.2595
  190SAPI   C1421832   3.006   2.252   6.756 -0.0941 -0.0387  0.2251
  190SAPI    H421833   3.058   2.342   6.715 -1.3584  0.7732  0.3444
  190SAPI    O421834   3.108   2.164   6.813  0.5130  0.1640  0.3066
  190SAPI   HO421835   3.171   2.214   6.865  0.2727  1.1250 -0.3167
  190SAPI   C1521836   2.934   2.176   6.645 -0.3292  0.0951  0.3514
  190SAPI    H521837   2.926   2.074   6.687  1.9046  0.2522  1.2764
  190SAPI    O521838   3.022   2.165   6.532  0.6494 -0.0525  0.2592
  190SAPI   HO521839   3.043   2.253   6.499 -0.5735  0.8972  1.8702
  190SAPI   C1621840   2.789   2.217   6.606  0.4029  0.6518 -0.3806
  190SAPI    H621841   2.806   2.285   6.519 -0.7082 -1.0949 -2.0592
  190SAPI    O621842   2.711   2.113   6.543  0.6586 -0.0045  0.3695
  190SAPI   HO621843   2.633   2.166   6.522 -0.2180 -0.1814  2.8299
  190SAPI   C1121844   2.703   2.299   6.700 -0.4801  0.3547  0.4113
  190SAPI    H121845   2.663   2.224   6.772  0.2313  1.5495  2.1230
  190SAPI     P21846   2.450   2.327   6.614  0.0536  0.3686 -0.0319
  190SAPI   O1321847   2.350   2.437   6.610 -0.1528  0.0936  0.1444
  190SAPI   O1421848   2.417   2.219   6.709  0.0485 -0.2097 -0.4066
  190SAPI   O1221849   2.608   2.381   6.638  0.2422  0.6607 -0.5239
  190SAPI   O1121850   2.467   2.255   6.473  0.1685  0.2063  0.1111
  190SAPI    C121851   2.512   2.311   6.349  0.5611 -0.0086 -0.2276
  190SAPI    HA21852   2.508   2.422   6.346  0.0273 -0.0431 -1.3747
  190SAPI    HB21853   2.615   2.273   6.333  0.7846  1.0304 -1.4539
  190SAPI    C221854   2.417   2.269   6.238 -0.3238  0.9859 -0.4216
  190SAPI    HS21855   2.317   2.300   6.276  0.5426  1.8614  1.2523
  190SAPI   O2121856   2.441   2.127   6.215 -0.1170 -0.4826  0.2534
  190SAPI   C2121857   2.346   2.055   6.265 -0.6713  0.3410 -0.1457
  190SAPI   O2221858   2.254   2.088   6.339 -0.4015 -0.2672  0.3652
  190SAPI   C2221859   2.372   1.912   6.229  0.4468  0.1618  0.0872
  190SAPI   H2R21860   2.471   1.903   6.179 -0.1431  2.8196 -1.7906
  190SAPI   H2S21861   2.374   1.843   6.316  0.7795 -2.9067 -2.1955
  190SAPI    C321862   2.443   2.337   6.101 -0.1648 -0.1460  0.2333
  190SAPI    HX21863   2.532   2.297   6.046 -0.5813  0.7837 -1.1765
  190SAPI    HY21864   2.482   2.438   6.128 -0.7487  0.2652 -0.4095
  190SAPI   O3121865   2.325   2.348   6.017 -0.4019 -0.1247 -0.4001
  190SAPI   C3121866   2.352   2.319   5.882 -0.9153 -0.2952  0.3692
  190SAPI   O3221867   2.468   2.282   5.850  0.7258 -0.0175 -0.0795
  190SAPI   C3221868   2.229   2.349   5.795  0.2044 -1.0875 -0.4055
  190SAPI   H2X21869   2.196   2.447   5.835  0.7282  0.0978 -2.7148
  190SAPI   H2Y21870   2.158   2.268   5.823 -1.2671 -0.1478 -1.2358
  190SAPI   C2321871   2.265   1.865   6.127 -0.4535  0.0862 -0.2579
  190SAPI   H3R21872   2.164   1.859   6.174 -1.2468 -0.3584 -1.9546
  190SAPI   H3S21873   2.301   1.763   6.103 -0.7132 -0.5576  1.8562
  190SAPI   C2421874   2.258   1.934   5.987 -1.0730  0.3549  0.1464
  190SAPI   H4R21875   2.234   2.042   5.996 -2.2109  0.1196  0.0946
  190SAPI   H4S21876   2.172   1.884   5.938 -0.4687  0.7302 -1.3666
  190SAPI   C2521877   2.379   1.928   5.911 -0.1240 -0.0011  0.6940
  190SAPI   H5R21878   2.465   1.963   5.969 -0.1983  0.5636  0.4683
  190SAPI   C2621879   2.387   1.890   5.789  0.5017  0.2534  0.4975
  190SAPI   H6R21880   2.483   1.884   5.736 -0.6078  0.5681 -1.7226
  190SAPI   C2721881   2.268   1.862   5.702  0.3790  0.1400 -0.5094
  190SAPI   H7R21882   2.292   1.873   5.594 -0.1466 -3.6418 -1.1393
  190SAPI   H7S21883   2.189   1.937   5.722 -1.0898 -1.5588  0.3597
  190SAPI   C2821884   2.201   1.724   5.719 -0.0479  0.2559 -0.3024
  190SAPI   H8R21885   2.212   1.694   5.824  1.5907 -0.9095 -0.7608
  190SAPI   C2921886   2.157   1.628   5.635 -1.1282  0.3443 -0.0002
  190SAPI   H9R21887   2.114   1.535   5.673 -1.1657  0.4724  0.2786
  190SAPI  C21021888   2.144   1.639   5.483  0.3017  0.4865 -1.4450
  190SAPI  H10R21889   2.114   1.743   5.463 -0.4711  0.2693 -1.4201
  190SAPI  H10S21890   2.063   1.569   5.452 -0.6980  1.2527 -0.6158
  190SAPI  C21121891   2.267   1.599   5.400 -0.4125 -0.3304  0.4898
  190SAPI  H11R21892   2.367   1.601   5.444 -0.0345 -1.0907 -0.3191
  190SAPI  C21221893   2.269   1.539   5.282 -0.3080 -0.3809 -1.2908
  190SAPI  H12R21894   2.369   1.517   5.242  0.6318 -1.5424  1.4504
  190SAPI  C21321895   2.160   1.503   5.187  0.8475  0.0513 -0.0181
  190SAPI  H13R21896   2.155   1.571   5.100 -0.5050  0.1770  0.1245
  190SAPI  H13S21897   2.064   1.522   5.240  1.0589  1.5509 -0.1308
  190SAPI  C21421898   2.169   1.357   5.136  0.0072  0.1892  0.3039
  190SAPI  H14R21899   2.104   1.280   5.180  1.3472 -1.0256  0.2012
  190SAPI  C21521900   2.242   1.320   5.029  0.2143  0.2651  0.0337
  190SAPI  H15R21901   2.232   1.215   4.997  0.8939  1.0232 -3.0293
  190SAPI  C21621902   2.324   1.405   4.936 -0.0163  0.4381 -0.0259
  190SAPI  H16R21903   2.431   1.377   4.939 -0.5508 -1.6955  0.2674
  190SAPI  H16S21904   2.320   1.515   4.952 -2.8508  0.5598 -0.8684
  190SAPI  C21721905   2.273   1.394   4.790  0.4326 -0.4426 -0.0569
  190SAPI  H17R21906   2.181   1.455   4.779 -1.4062 -3.1919 -1.2665
  190SAPI  H17S21907   2.248   1.290   4.760 -0.1998 -0.0474 -0.9543
  190SAPI  C21821908   2.389   1.434   4.694 -0.0301 -0.5641  0.7552
  190SAPI  H18R21909   2.448   1.514   4.743  1.5872 -0.1398 -1.6909
  190SAPI  H18S21910   2.336   1.487   4.612  2.0105 -0.8330 -0.8332
  190SAPI  C21921911   2.478   1.323   4.639 -0.3321  0.0445  0.2796
  190SAPI  H19R21912   2.433   1.248   4.570  0.1360  1.4303 -1.6086
  190SAPI  H19S21913   2.516   1.270   4.729  0.5039 -2.2440 -1.3319
  190SAPI  C22021914   2.602   1.374   4.565 -0.1247 -0.2601 -0.1502
  190SAPI  H20R21915   2.570   1.423   4.470  1.4226 -0.8803 -1.0241
  190SAPI  H20S21916   2.665   1.287   4.539  0.4924 -0.1730  1.0085
  190SAPI  H20T21917   2.666   1.439   4.628  0.3178  1.0500 -1.8603
  190SAPI   C3321918   2.248   2.364   5.644  0.3757 -0.7021 -0.6837
  190SAPI   H3X21919   2.318   2.446   5.622  1.7142 -1.9913 -1.4233
  190SAPI   H3Y21920   2.152   2.393   5.597 -0.0428 -1.6027 -0.4183
  190SAPI   C3421921   2.290   2.239   5.580 -0.1253  0.7772  0.7760
  190SAPI   H4X21922   2.212   2.161   5.577 -1.2976  1.8825  1.4858
  190SAPI   H4Y21923   2.378   2.194   5.629  0.5926 -1.2655 -2.1328
  190SAPI   C3521924   2.319   2.269   5.435  0.1919 -0.2564 -0.8178
  190SAPI   H5X21925   2.413   2.327   5.432  1.0863 -1.7072 -2.7312
  190SAPI   H5Y21926   2.240   2.328   5.384 -0.7106 -1.5117 -0.9335
  190SAPI   C3621927   2.345   2.145   5.359  0.6142 -0.2251  0.6423
  190SAPI   H6X21928   2.414   2.086   5.423 -1.1071 -1.1716  1.6774
  190SAPI   H6Y21929   2.395   2.176   5.264  0.8650 -2.4863 -0.0375
  190SAPI   C3721930   2.239   2.051   5.321 -0.8937  0.5010 -0.4549
  190SAPI   H7X21931   2.166   2.120   5.273 -0.7659  2.2325  1.7312
  190SAPI   H7Y21932   2.180   2.005   5.403 -0.7777 -1.0940 -1.2139
  190SAPI   C3821933   2.279   1.937   5.224  0.2478 -0.4589  0.7245
  190SAPI   H8X21934   2.184   1.879   5.223 -0.9039  1.3161 -1.6076
  190SAPI   H8Y21935   2.360   1.872   5.262  0.3555  0.2560  1.7723
  190SAPI   C3921936   2.304   1.976   5.080 -0.0657  0.1325 -0.9893
  190SAPI   H9X21937   2.413   2.000   5.081 -0.0385  0.0097 -0.4900
  190SAPI   H9Y21938   2.247   2.066   5.050 -1.1331  0.5474  1.9271
  190SAPI  C31021939   2.272   1.861   4.982 -0.2284  0.5930  0.3310
  190SAPI  H10X21940   2.171   1.818   4.996  0.3095 -2.5803 -3.6407
  190SAPI  H10Y21941   2.345   1.785   5.016 -0.4821 -1.2913 -2.9466
  190SAPI  C31121942   2.283   1.904   4.832  0.3689  0.0206  0.3597
  190SAPI  H11X21943   2.389   1.920   4.800 -0.4433  3.5419 -1.1389
  190SAPI  H11Y21944   2.237   2.005   4.830  1.8865  0.7503  0.7801
  190SAPI  C31221945   2.199   1.817   4.729 -0.0738  0.2715 -0.0232
  190SAPI  H12X21946   2.091   1.836   4.749 -0.2825 -0.8846  0.0518
  190SAPI  H12Y21947   2.216   1.707   4.737  0.4369  0.3857  0.5674
  190SAPI  C31321948   2.217   1.848   4.579 -0.0050  0.3571 -0.1257
  190SAPI  H13X21949   2.225   1.959   4.574  2.2119  0.2209 -0.7109
  190SAPI  H13Y21950   2.126   1.813   4.527 -1.1299  1.4886  1.0232
  190SAPI  C31421951   2.344   1.797   4.518 -0.2187  0.3016  0.4526
  190SAPI  H14X21952   2.354   1.687   4.535 -0.0712  0.4136  1.1096
  190SAPI  H14Y21953   2.430   1.849   4.564 -0.0169  0.2197  0.1693
  190SAPI  C31521954   2.356   1.816   4.364 -1.0328  0.0578 -0.2779
  190SAPI  H15X21955   2.422   1.904   4.352 -1.7400  0.4269 -1.7173
  190SAPI  H15Y21956   2.260   1.855   4.323 -0.6445 -0.6030 -1.9038
  190SAPI  C31621957   2.414   1.693   4.289 -0.3068  0.6423  0.1949
  190SAPI  H16X21958   2.501   1.659   4.349  1.9312  1.4563 -2.3651
  190SAPI  H16Y21959   2.453   1.729   4.191 -2.1228  0.9092 -0.4631
  190SAPI  C31721960   2.291   1.601   4.267 -0.1674  0.2013 -0.4460
  190SAPI  H17X21961   2.214   1.665   4.220 -1.0642 -1.0990 -0.8043
  190SAPI  H17Y21962   2.239   1.578   4.362 -1.3754 -2.5188 -1.6731
  190SAPI  C31821963   2.325   1.468   4.196  0.3840  0.0648  0.1199
  190SAPI  H18X21964   2.420   1.434   4.243  0.1384 -0.9623 -0.0943
  190SAPI  H18Y21965   2.349   1.472   4.088 -2.1523 -1.3632 -0.5872
  190SAPI  H18Z21966   2.246   1.390   4.203 -1.5376  1.9787  1.1571
  191SAPI   C1221967   4.667   2.936   2.310 -0.5764  0.0854  0.5183
  191SAPI    H221968   4.674   3.012   2.390  0.4007  0.3495  0.1929
  191SAPI    O221969   4.705   3.002   2.190  0.0301 -1.0683  0.5249
  191SAPI   HO221970   4.681   3.095   2.186 -1.7530 -1.5230 -0.7667
  191SAPI   C1321971   4.755   2.817   2.342 -0.1734  1.0736  1.4019
  191SAPI    H321972   4.712   2.760   2.427 -0.8209 -0.3615  0.1586
  191SAPI    O321973   4.882   2.865   2.382  0.4738 -0.2028  0.4270
  191SAPI   HO321974   4.936   2.799   2.427  0.7725  0.2995  0.8110
  191SAPI   C1421975   4.762   2.726   2.220 -0.2128  0.4397  0.4883
  191SAPI    H421976   4.825   2.777   2.145  1.6248 -1.0369  0.9266
  191SAPI    O421977   4.837   2.611   2.252 -0.5814  0.3720  0.6722
  191SAPI   HO421978   4.927   2.611   2.218 -0.1588 -0.0496  1.7518
  191SAPI   C1521979   4.626   2.688   2.169 -0.4808  0.1402  0.4261
  191SAPI    H521980   4.594   2.599   2.227  0.3945  0.3508  1.2494
  191SAPI    O521981   4.626   2.644   2.033 -0.2844 -0.6032  0.5901
  191SAPI   HO521982   4.664   2.556   2.037  2.2781  0.4589  1.5490
  191SAPI   C1621983   4.503   2.778   2.193 -0.7788 -0.5090 -1.5103
  191SAPI    H621984   4.491   2.841   2.102 -0.0964 -0.0099 -1.2587
  191SAPI    O621985   4.381   2.704   2.206 -0.2843  0.3432 -0.8985
  191SAPI   HO621986   4.324   2.759   2.260  1.8016 -0.1001  1.9743
  191SAPI   C1121987   4.523   2.885   2.299 -0.1358  0.4511  0.0768
  191SAPI    H121988   4.508   2.849   2.403 -0.7255  0.9638  0.1787
  191SAPI     P21989   4.283   3.017   2.327 -0.5701 -0.1000 -0.5534
  191SAPI   O1321990   4.226   2.884   2.327  0.0809 -0.9400  0.1588
  191SAPI   O1421991   4.227   3.118   2.246  0.0319 -0.3349  0.2235
  191SAPI   O1221992   4.441   3.002   2.283  0.3839  0.4259 -0.2934
  191SAPI   O1121993   4.290   3.073   2.474  0.0134 -0.4638 -0.4048
  191SAPI    C121994   4.368   3.188   2.511 -0.6068  0.6095  0.6195
  191SAPI    HA21995   4.476   3.160   2.521 -1.0142 -1.1091  0.6076
  191SAPI    HB21996   4.362   3.263   2.430  3.2315  1.7311  1.1328
  191SAPI    C221997   4.315   3.253   2.639 -0.5671 -0.5345  0.6504
  191SAPI    HS21998   4.379   3.343   2.652 -0.4440 -0.4982 -0.1488
  191SAPI   O2121999   4.314   3.167   2.758 -0.2154  0.0829  0.5153
  191SAPI   C2122000   4.434   3.153   2.819 -0.2396  0.7308 -0.6311
  191SAPI   O2222001   4.539   3.207   2.798  0.7907  0.4197 -0.1556
  191SAPI   C2222002   4.421   3.040   2.922  0.1385 -0.1042  0.0886
  191SAPI   H2R22003   4.315   3.017   2.943  0.2009  0.5560  1.2114
  191SAPI   H2S22004   4.463   2.955   2.864 -0.2532 -1.2166  1.3767
  191SAPI    C322005   4.168   3.299   2.609 -0.0251 -0.1260 -0.3218
  191SAPI    HX22006   4.092   3.218   2.611 -1.1138  0.8925  1.1774
  191SAPI    HY22007   4.169   3.335   2.504 -1.9985  0.1462 -0.2706
  191SAPI   O3122008   4.125   3.384   2.715  0.5710 -0.4553  0.5543
  191SAPI   C3122009   4.010   3.449   2.700  0.3047 -0.2326 -0.7734
  191SAPI   O3222010   3.924   3.431   2.614  0.7104  0.4462 -0.0720
  191SAPI   C3222011   4.018   3.564   2.807  0.3148 -0.3243  0.2361
  191SAPI   H2X22012   4.103   3.630   2.777 -0.3354 -0.5590 -2.3515
  191SAPI   H2Y22013   4.041   3.512   2.903 -1.9340 -0.5096  0.7249
  191SAPI   C2322014   4.498   3.052   3.054 -0.6083 -0.1315  0.1969
  191SAPI   H3R22015   4.600   3.094   3.038  0.1254  0.7331  5.2769
  191SAPI   H3S22016   4.503   2.958   3.113  0.1599 -0.3864 -0.2577
  191SAPI   C2422017   4.425   3.158   3.138  0.5093  0.2457  0.1239
  191SAPI   H4R22018   4.320   3.128   3.158  0.7121 -0.0607  0.7486
  191SAPI   H4S22019   4.404   3.250   3.079 -0.4132 -0.3538 -0.4972
  191SAPI   C2522020   4.501   3.207   3.253 -0.2879 -0.1260  0.3974
  191SAPI   H5R22021   4.562   3.294   3.224  0.3331 -1.3205 -2.1182
  191SAPI   C2622022   4.497   3.156   3.377  1.0377  0.4908 -0.4762
  191SAPI   H6R22023   4.566   3.195   3.454  0.2494 -0.7678  0.9199
  191SAPI   C2722024   4.408   3.035   3.423  0.0092 -0.1622 -0.9967
  191SAPI   H7R22025   4.468   2.961   3.481 -0.3797  0.4693  0.2699
  191SAPI   H7S22026   4.379   2.983   3.330 -1.2872  0.8492 -1.1750
  191SAPI   C2822027   4.281   3.068   3.501 -0.1425  0.1537 -0.0842
  191SAPI   H8R22028   4.195   3.091   3.436 -0.1622  0.3895  0.0215
  191SAPI   C2922029   4.251   3.059   3.630  0.2029 -0.2237  0.0619
  191SAPI   H9R22030   4.150   3.084   3.664 -0.6324 -0.3211 -2.1624
  191SAPI  C21022031   4.347   3.015   3.736  0.0686  0.6447 -0.1530
  191SAPI  H10R22032   4.345   3.094   3.814  0.4842  0.2272  0.2832
  191SAPI  H10S22033   4.452   3.012   3.700  0.1425  1.7836 -0.0749
  191SAPI  C21122034   4.316   2.883   3.795 -0.3010  0.3984  0.2726
  191SAPI  H11R22035   4.246   2.823   3.735 -0.9822  1.7428 -0.3156
  191SAPI  C21222036   4.345   2.839   3.916 -0.2247  0.6692  0.1264
  191SAPI  H12R22037   4.297   2.744   3.943 -0.4901  0.5965 -0.5874
  191SAPI  C21322038   4.424   2.911   4.025  0.4006 -0.3640  0.0276
  191SAPI  H13R22039   4.438   3.021   4.012 -0.3701 -0.3462 -0.7561
  191SAPI  H13S22040   4.533   2.892   4.013  0.3044  0.2371 -2.3053
  191SAPI  C21422041   4.376   2.901   4.162  0.1476  0.0364 -0.3955
  191SAPI  H14R22042   4.284   2.959   4.178 -0.3055 -0.1763 -2.0875
  191SAPI  C21522043   4.424   2.819   4.260 -0.3281 -0.5297 -1.2183
  191SAPI  H15R22044   4.372   2.823   4.357  0.9588 -0.3259 -0.5261
  191SAPI  C21622045   4.554   2.740   4.256  0.3922  0.2253  0.7257
  191SAPI  H16R22046   4.609   2.750   4.161  0.6486 -0.9082  0.7429
  191SAPI  H16S22047   4.537   2.631   4.259  0.8876  0.1545  1.0885
  191SAPI  C21722048   4.650   2.806   4.354  0.1004 -0.2342 -0.5905
  191SAPI  H17R22049   4.675   2.912   4.328 -0.4424 -0.0038 -0.1895
  191SAPI  H17S22050   4.745   2.752   4.336 -0.1135 -1.2783  1.1932
  191SAPI  C21822051   4.626   2.788   4.507  0.2533  0.3617 -0.0970
  191SAPI  H18R22052   4.577   2.695   4.542  2.5580 -0.5780  0.8338
  191SAPI  H18S22053   4.553   2.868   4.531 -1.1030 -0.2221 -1.9753
  191SAPI  C21922054   4.744   2.825   4.590  0.6583  0.4605  0.2419
  191SAPI  H19R22055   4.784   2.918   4.544  1.2618  0.1985  0.2262
  191SAPI  H19S22056   4.828   2.752   4.586 -0.2033 -0.5559  0.4925
  191SAPI  C22022057   4.699   2.864   4.732 -0.5536  0.0624 -0.0702
  191SAPI  H20R22058   4.664   2.969   4.742 -0.5480  0.1908 -1.2385
  191SAPI  H20S22059   4.777   2.853   4.811 -1.7154  1.3679  1.3103
  191SAPI  H20T22060   4.613   2.801   4.762  0.0154 -3.0967 -4.1938
  191SAPI   C3322061   3.894   3.652   2.812  0.6806 -0.2191  0.7366
  191SAPI   H3X22062   3.811   3.585   2.845  1.2837 -0.7376  1.2133
  191SAPI   H3Y22063   3.867   3.704   2.717  0.2921 -0.8666  0.4852
  191SAPI   C3422064   3.895   3.771   2.917 -1.2194 -0.1428 -0.4185
  191SAPI   H4X22065   3.815   3.841   2.884 -0.7151  0.6186 -0.0450
  191SAPI   H4Y22066   3.990   3.824   2.892 -1.7062  0.9250 -0.0513
  191SAPI   C3522067   3.902   3.735   3.069  0.1365  0.1976  0.0002
  191SAPI   H5X22068   3.978   3.658   3.094  0.3660 -0.5562 -2.7223
  191SAPI   H5Y22069   3.804   3.689   3.095 -0.1590  0.5280 -0.5064
  191SAPI   C3622070   3.928   3.850   3.166 -0.7929  0.5630  0.2916
  191SAPI   H6X22071   3.869   3.942   3.146  0.7019  1.4377 -0.3041
  191SAPI   H6Y22072   4.031   3.878   3.135 -1.3448  0.9288 -1.3086
  191SAPI   C3722073   3.925   3.800   3.308 -0.1747  0.3070 -0.2126
  191SAPI   H7X22074   4.014   3.737   3.329 -0.3097 -0.2555 -1.2146
  191SAPI   H7Y22075   3.846   3.722   3.318 -0.0837  0.1715 -0.5388
  191SAPI   C3822076   3.925   3.904   3.418  0.3724  0.5742  0.3522
  191SAPI   H8X22077   3.854   3.980   3.379 -0.9601  0.2268  2.0011
  191SAPI   H8Y22078   4.030   3.939   3.430  0.7146 -0.7565  1.5297
  191SAPI   C3922079   3.872   3.850   3.551  0.7037  1.1499 -0.0237
  191SAPI   H9X22080   3.912   3.747   3.562  0.6691  1.1843  0.4357
  191SAPI   H9Y22081   3.764   3.824   3.548  0.8498  0.1745  1.9645
  191SAPI  C31022082   3.891   3.953   3.655  0.5360  0.8113 -1.1800
  191SAPI  H10X22083   3.822   4.039   3.644 -0.9659 -0.2585 -0.4218
  191SAPI  H10Y22084   4.001   3.966   3.665  0.1997  2.0382  2.8156
  191SAPI  C31122085   3.852   3.885   3.786  0.4825 -0.0865  0.2062
  191SAPI  H11X22086   3.918   3.803   3.820  2.0448  1.2143  0.4621
  191SAPI  H11Y22087   3.756   3.840   3.751  2.0706 -2.3516 -1.5074
  191SAPI  C31222088   3.851   3.986   3.905  0.2321 -0.4210  0.2704
  191SAPI  H12X22089   3.922   4.068   3.885  0.2628 -0.9452 -2.0508
  191SAPI  H12Y22090   3.883   3.930   3.996 -0.1010 -1.4038 -0.1993
  191SAPI  C31322091   3.718   4.037   3.947  0.7512  0.1411  0.3939
  191SAPI  H13X22092   3.660   3.944   3.963 -0.9507  1.3280  1.3582
  191SAPI  H13Y22093   3.660   4.087   3.867  1.4910 -1.7939 -1.4677
  191SAPI  C31422094   3.707   4.124   4.070  0.4312 -0.8925  0.2099
  191SAPI  H14X22095   3.801   4.183   4.077  0.7183 -1.3772  0.4644
  191SAPI  H14Y22096   3.712   4.064   4.163 -2.0376 -0.1090  0.9173
  191SAPI  C31522097   3.571   4.203   4.058 -0.0634  0.7775 -0.5112
  191SAPI  H15X22098   3.567   4.248   4.160 -1.1915 -1.0351  0.3128
  191SAPI  H15Y22099   3.480   4.139   4.049  0.3908 -0.1676  1.1380
  191SAPI  C31622100   3.574   4.325   3.972 -0.3273  0.2050 -0.0702
  191SAPI  H16X22101   3.480   4.381   3.985  0.6915  1.8162  0.5712
  191SAPI  H16Y22102   3.583   4.291   3.866 -1.0754  0.1767 -0.1294
  191SAPI  C31722103   3.691   4.423   3.982 -0.3568 -0.4211 -0.8648
  191SAPI  H17X22104   3.780   4.366   3.949  0.2951 -0.5210  0.9380
  191SAPI  H17Y22105   3.697   4.453   4.089 -0.1345 -0.3250 -0.9051
  191SAPI  C31822106   3.687   4.540   3.888 -0.0270 -0.4802  0.1811
  191SAPI  H18X22107   3.767   4.615   3.907 -1.1611  0.7282  0.3855
  191SAPI  H18Y22108   3.598   4.604   3.910  1.2404  0.9738  1.3414
  191SAPI  H18Z22109   3.676   4.517   3.780  0.0045 -0.5342  0.1892
  192SAPI   C1222110   1.308   2.007   1.869 -0.0762  0.6723 -0.2930
  192SAPI    H222111   1.275   1.923   1.935  1.3070 -0.1833 -0.6607
  192SAPI    O222112   1.311   2.126   1.945 -0.0730  0.1723 -0.5301
  192SAPI   HO222113   1.226   2.159   1.975  0.6248  1.1651  0.4254
  192SAPI   C1322114   1.444   1.964   1.812 -1.1506  0.3283  0.2278
  192SAPI    H322115   1.430   1.861   1.771 -0.7777 -0.4387  1.9185
  192SAPI    O322116   1.542   1.952   1.918  0.6087  0.2538  0.1333
  192SAPI   HO322117   1.594   1.873   1.901 -1.3202 -1.5334  1.8737
  192SAPI   C1422118   1.497   2.066   1.704  0.4679  0.0056  0.0893
  192SAPI    H422119   1.534   2.147   1.771 -0.9177  1.0664 -0.3844
  192SAPI    O422120   1.609   2.031   1.617  0.2638  0.2464 -0.2095
  192SAPI   HO422121   1.683   2.052   1.675  1.8690  0.5195 -2.2735
  192SAPI   C1522122   1.389   2.140   1.619  0.3492 -0.2168 -0.7270
  192SAPI    H522123   1.393   2.072   1.531  0.9709 -2.8172  1.1591
  192SAPI    O522124   1.423   2.271   1.584 -0.0999  0.3355 -0.0574
  192SAPI   HO522125   1.416   2.329   1.660 -0.6007 -1.9690  1.7485
  192SAPI   C1622126   1.246   2.131   1.663  0.0749  0.3408  0.3555
  192SAPI    H622127   1.227   2.223   1.723  1.0555  0.5780  0.3201
  192SAPI    O622128   1.158   2.125   1.546 -0.3081  0.8810  0.0522
  192SAPI   HO622129   1.107   2.044   1.558 -2.3789  1.4222 -3.6474
  192SAPI   C1122130   1.209   2.023   1.761 -0.2623  0.2549 -0.2242
  192SAPI    H122131   1.213   1.930   1.700  1.2750 -0.5205  0.9673
  192SAPI     P22132   0.986   1.926   1.870  0.2590  0.0477 -0.2449
  192SAPI   O1322133   0.973   1.822   1.768  0.3003 -0.2248  0.1227
  192SAPI   O1422134   0.860   1.987   1.918  0.4391 -0.2592 -0.3160
  192SAPI   O1222135   1.083   2.049   1.819 -0.0415 -0.2743  0.1573
  192SAPI   O1122136   1.054   1.865   2.000 -0.4847 -0.4080 -0.1091
  192SAPI    C122137   1.064   1.940   2.121  1.1882 -0.2586  0.6981
  192SAPI    HA22138   1.143   2.016   2.106 -0.3191  0.9834 -1.5629
  192SAPI    HB22139   0.965   1.987   2.142  0.6280 -1.0800  0.0056
  192SAPI    C222140   1.085   1.860   2.252 -0.4563  0.4551  0.7217
  192SAPI    HS22141   1.118   1.935   2.327  1.6141  3.3998 -2.7607
  192SAPI   O2122142   1.197   1.766   2.225  0.2803 -0.0152  0.5438
  192SAPI   C2122143   1.317   1.814   2.201  0.2512  1.0265  0.5796
  192SAPI   O2222144   1.351   1.930   2.212  0.5909 -0.2871  0.2811
  192SAPI   C2222145   1.406   1.701   2.147  0.1958 -0.2467 -0.1103
  192SAPI   H2R22146   1.384   1.608   2.204  2.9952 -0.2568  1.0915
  192SAPI   H2S22147   1.386   1.682   2.039 -0.1441  0.3813 -0.1647
  192SAPI    C322148   0.960   1.777   2.301  0.4614 -0.0625  0.0394
  192SAPI    HX22149   0.986   1.709   2.385  2.1743 -0.1577 -0.5401
  192SAPI    HY22150   0.927   1.712   2.217  2.0255 -1.9369  0.7995
  192SAPI   O3122151   0.859   1.873   2.345  0.4715  0.4840  0.0304
  192SAPI   C3122152   0.733   1.821   2.354 -0.1857 -0.6428 -0.3013
  192SAPI   O3222153   0.704   1.702   2.346  0.2324  0.7981 -0.1528
  192SAPI   C3222154   0.634   1.934   2.379 -0.1092  0.8656  0.3378
  192SAPI   H2X22155   0.581   1.948   2.282 -0.8702 -0.9485  0.4558
  192SAPI   H2Y22156   0.685   2.031   2.396 -2.0211  1.6600  1.9111
  192SAPI   C2322157   1.548   1.713   2.178 -0.4699 -0.5842 -0.1149
  192SAPI   H3R22158   1.590   1.806   2.135 -0.3248  0.6625  2.5326
  192SAPI   H3S22159   1.608   1.622   2.153  0.0043 -0.4759  0.6137
  192SAPI   C2422160   1.584   1.730   2.330  0.7703  0.4893 -0.0092
  192SAPI   H4R22161   1.549   1.831   2.358 -0.2641  0.1126  0.1314
  192SAPI   H4S22162   1.694   1.735   2.333  0.9883  0.3229 -3.3847
  192SAPI   C2522163   1.529   1.621   2.412  0.0137  0.5887 -0.8422
  192SAPI   H5R22164   1.529   1.519   2.370  0.9490  0.5468 -0.7548
  192SAPI   C2622165   1.495   1.623   2.541  1.0263 -0.1157 -0.4271
  192SAPI   H6R22166   1.444   1.531   2.573  0.1722 -0.0845 -1.6193
  192SAPI   C2722167   1.496   1.744   2.627 -0.1232 -0.2277  0.0378
  192SAPI   H7R22168   1.574   1.819   2.602  0.4205  0.1741  2.6866
  192SAPI   H7S22169   1.528   1.725   2.731  2.6672  0.3195 -0.6530
  192SAPI   C2822170   1.365   1.817   2.621  0.2984  0.0734 -0.3890
  192SAPI   H8R22171   1.352   1.895   2.544  2.3316  0.1675 -0.6899
  192SAPI   C2922172   1.282   1.820   2.728  0.3023  0.6590 -0.5300
  192SAPI   H9R22173   1.192   1.882   2.726 -0.1713  0.0643  0.9932
  192SAPI  C21022174   1.307   1.738   2.858  0.6924  0.4887  0.0443
  192SAPI  H10R22175   1.385   1.660   2.845 -0.9690 -1.5500  1.7143
  192SAPI  H10S22176   1.212   1.685   2.879  0.5285  0.5352 -0.5759
  192SAPI  C21122177   1.346   1.815   2.982 -0.2993 -0.7022 -0.0907
  192SAPI  H11R22178   1.414   1.900   2.968 -1.0200 -0.2940 -1.2370
  192SAPI  C21222179   1.314   1.783   3.111 -0.1058  0.4438  0.2941
  192SAPI  H12R22180   1.368   1.831   3.193  1.5270  1.7147 -1.4394
  192SAPI  C21322181   1.216   1.670   3.141  0.3888  0.0378 -0.1210
  192SAPI  H13R22182   1.111   1.698   3.117  0.7491 -1.1410 -3.8807
  192SAPI  H13S22183   1.211   1.662   3.251 -1.2882 -2.2826 -0.2929
  192SAPI  C21422184   1.219   1.522   3.084  0.3940  0.4438  0.1274
  192SAPI  H14R22185   1.309   1.512   3.021  1.3209  0.3196  1.4284
  192SAPI  C21522186   1.140   1.421   3.112  0.3128 -0.4778  0.0746
  192SAPI  H15R22187   1.154   1.323   3.064  0.4040  0.1210 -1.1667
  192SAPI  C21622188   1.020   1.416   3.199  0.2416  0.2160 -0.3755
  192SAPI  H16R22189   1.037   1.490   3.281 -0.7528  0.3114 -0.2468
  192SAPI  H16S22190   1.010   1.317   3.247  1.1854 -0.5683 -1.7288
  192SAPI  C21722191   0.886   1.454   3.134 -0.4239  0.0312 -0.5188
  192SAPI  H17R22192   0.870   1.384   3.049  1.9360 -2.4895  0.9393
  192SAPI  H17S22193   0.894   1.556   3.093 -0.0728  0.6038  0.9195
  192SAPI  C21822194   0.770   1.458   3.242 -0.3207 -0.5985 -0.2219
  192SAPI  H18R22195   0.789   1.543   3.312 -2.0104  1.2986 -1.9283
  192SAPI  H18S22196   0.762   1.373   3.313 -2.2750  0.3553  0.7857
  192SAPI  C21922197   0.627   1.478   3.191  0.1213 -0.1581 -0.1054
  192SAPI  H19R22198   0.619   1.399   3.114  0.4602  0.5528 -0.8861
  192SAPI  H19S22199   0.610   1.574   3.137  0.0990 -0.6195 -0.9388
  192SAPI  C22022200   0.517   1.456   3.301 -0.4452  0.4093 -0.2272
  192SAPI  H20R22201   0.425   1.425   3.247  0.3711 -0.3896 -1.2167
  192SAPI  H20S22202   0.502   1.538   3.375  1.2896 -0.2138  0.8733
  192SAPI  H20T22203   0.556   1.368   3.357 -0.3370  1.3344  1.1830
  192SAPI   C3322204   0.536   1.912   2.494 -0.6130 -0.2650  0.5204
  192SAPI   H3X22205   0.595   1.906   2.588 -1.3406  0.1461  1.0140
  192SAPI   H3Y22206   0.478   1.818   2.484  1.3058 -1.4953  0.5490
  192SAPI   C3422207   0.424   2.016   2.517  0.4204  0.2747  0.1469
  192SAPI   H4X22208   0.354   2.014   2.431  1.8163 -1.2426 -1.0124
  192SAPI   H4Y22209   0.475   2.115   2.515  1.8424 -0.4409  0.0829
  192SAPI   C3522210   0.376   2.002   2.659 -0.1376 -1.2245  0.8877
  192SAPI   H5X22211   0.319   2.093   2.686 -0.2653 -0.6355 -1.2156
  192SAPI   H5Y22212   0.466   1.990   2.724 -0.0974 -1.5932  0.7669
  192SAPI   C3622213   0.292   1.877   2.675 -0.0239  0.4188 -0.6882
  192SAPI   H6X22214   0.354   1.785   2.661 -1.4850 -0.6848 -0.1466
  192SAPI   H6Y22215   0.219   1.878   2.592 -0.3912  1.5973 -0.3707
  192SAPI   C3722216   0.230   1.868   2.814 -0.0474 -0.7679  0.9901
  192SAPI   H7X22217   0.141   1.803   2.812 -1.1534  0.6794 -1.3094
  192SAPI   H7Y22218   0.197   1.974   2.813  1.0697 -0.4103  0.2874
  192SAPI   C3822219   0.329   1.811   2.909  0.0334  0.3969 -0.2887
  192SAPI   H8X22220   0.423   1.868   2.901 -0.1131  0.8585  1.0431
  192SAPI   H8Y22221   0.354   1.710   2.868 -1.1000 -1.3071  2.8376
  192SAPI   C3922222   0.283   1.800   3.058 -0.6277  0.0179  0.0147
  192SAPI   H9X22223   0.356   1.730   3.104 -0.5018  0.7704  0.9897
  192SAPI   H9Y22224   0.185   1.749   3.060  0.4391 -2.1746 -0.6166
  192SAPI  C31022225   0.292   1.937   3.110  0.5918 -0.5067  0.2370
  192SAPI  H10X22226   0.246   2.012   3.042  0.5267 -0.3717  0.4287
  192SAPI  H10Y22227   0.400   1.965   3.106  0.0708  1.6152 -1.4203
  192SAPI  C31122228   0.241   1.954   3.250  0.8653  0.0324  0.2451
  192SAPI  H11X22229   0.133   1.925   3.247  0.3388  1.8230  0.5549
  192SAPI  H11Y22230   0.242   2.063   3.273 -2.7061 -0.0287  1.4173
  192SAPI  C31222231   0.313   1.883   3.363  0.0120  0.3910  0.4116
  192SAPI  H12X22232   0.418   1.920   3.355  0.1011 -0.1009 -1.1661
  192SAPI  H12Y22233   0.312   1.774   3.341 -0.4715  0.6509 -0.9945
  192SAPI  C31322234   0.270   1.914   3.504 -0.0029 -0.7582 -0.1079
  192SAPI  H13X22235   0.163   1.885   3.509 -1.0382  2.4012 -1.1477
  192SAPI  H13Y22236   0.279   2.023   3.526  1.1638  0.0008 -3.6297
  192SAPI  C31422237   0.377   1.841   3.594  0.4933 -0.4762 -0.3198
  192SAPI  H14X22238   0.473   1.897   3.589 -0.3120  1.1558  1.5716
  192SAPI  H14Y22239   0.397   1.741   3.549  0.4096  0.4904 -2.6579
  192SAPI  C31522240   0.323   1.818   3.735 -0.0419 -0.1875 -0.3124
  192SAPI  H15X22241   0.372   1.734   3.789  1.9487  0.2793 -1.3060
  192SAPI  H15Y22242   0.217   1.786   3.734 -0.5070  0.8122  3.0716
  192SAPI  C31622243   0.320   1.937   3.827  0.0092 -0.5706 -0.1877
  192SAPI  H16X22244   0.279   2.024   3.771  2.1796  0.5472 -0.1686
  192SAPI  H16Y22245   0.421   1.972   3.857 -0.7937  0.1581  1.8565
  192SAPI  C31722246   0.238   1.921   3.954 -0.4361 -0.3121 -0.4548
  192SAPI  H17X22247   0.288   1.838   4.008  1.5587  1.0394 -0.0837
  192SAPI  H17Y22248   0.130   1.898   3.942 -0.8954 -0.1597  2.6463
  192SAPI  C31822249   0.249   2.042   4.050  0.5260 -0.2589  0.0487
  192SAPI  H18X22250   0.355   2.038   4.084  1.0144 -1.2302 -1.5466
  192SAPI  H18Y22251   0.182   2.032   4.138  2.3923  1.3207  1.7823
  192SAPI  H18Z22252   0.231   2.138   3.997 -1.8259  0.3277  1.7249
  193SOD    SOD22253   5.414   3.934   1.848 -0.8318 -0.1303  0.2405
  194SOD    SOD22254   3.258   3.911   8.418 -0.2255 -0.0608  0.2856
  195SOD    SOD22255   4.784   5.116   1.126  0.2205 -0.5190  0.1550
  196SOD    SOD22256   5.845   3.554   2.300  0.1073 -0.0504  0.0286
  197SOD    SOD22257   2.954   2.739   7.526 -0.5825  0.5197  0.4930
  198SOD    SOD22258   2.496   4.451   1.848  0.2561 -0.3505  0.0853
  199SOD    SOD22259   6.416   1.139   7.631 -0.4538 -0.5295 -0.0181
  200SOD    SOD22260   4.522   3.451   2.098  0.1723  0.1604  0.3844
  201SOD    SOD22261   4.590   3.551   0.007  0.6457  0.0809 -0.0768
  202SOD    SOD22262   2.686   3.417   7.288 -0.1910  0.1237 -0.4483
  203SOD    SOD22263   2.451   6.281   6.904 -0.4937 -0.1126  0.1176
  204SOD    SOD22264   0.282   2.998   7.246 -0.0215  0.5880 -0.3869
  205SOD    SOD22265   2.608   0.458   6.963 -0.1744  0.1019 -0.4372
  206SOD    SOD22266   4.739   1.935   2.014 -0.5848 -0.0671  0.2786
  207SOD    SOD22267   3.167   2.572   8.064 -0.0304  0.5931 -0.6347
  208SOD    SOD22268   5.870   4.203   8.450  0.5353  0.1871  0.8662
  209SOD    SOD22269   4.088   6.351   6.467 -0.0054 -0.4997 -0.0368
  210SOD    SOD22270   0.142   3.632   1.042  0.0149  0.2017 -0.3608
  211SOD    SOD22271   1.338   5.410   1.438 -0.2764 -0.4867  0.0203
  212SOD    SOD22272   5.799   4.505   5.980  0.9172  0.4353  0.3566
  213SOD    SOD22273   4.774   3.472   0.742 -0.5347  0.3919  0.1338
  214SOD    SOD22274   0.712   2.994   1.286 -0.1030  0.1684  0.0455
  215SOD    SOD22275   5.533   3.173   0.231 -0.2390 -0.0501 -0.0477
  216SOD    SOD22276   3.772   0.388   1.894  0.2869 -0.2827  0.1138
  217SOD    SOD22277   6.118   1.502   6.654 -0.3826  0.4617 -0.2810
  218SOD    SOD22278   3.758   6.605   6.629 -0.3883  0.4362  0.0525
  219SOD    SOD22279   1.507   2.078   2.113 -0.7118 -0.7369  0.2726
  220SOD    SOD22280   6.324   5.372   7.014  0.3211 -0.0604 -0.3096
  221SOD    SOD22281   2.792   1.520   1.591  0.0311  0.2648  0.0307
  222SOD    SOD22282   1.198   5.221   6.471  0.3693 -0.0851  0.0612
  223SOD    SOD22283   2.161   6.249   7.988  0.0861  0.1021  0.6857
  224SOD    SOD22284   2.458   6.652   0.951  0.4765 -0.3387 -0.3424
  225SOD    SOD22285   5.536   1.636   0.733  0.1375 -0.1241  0.2041
  226SOD    SOD22286   1.606   0.608   7.063  0.0193 -0.0761  0.3966
  227SOD    SOD22287   0.817   6.057   1.249 -0.5317 -0.3203  0.0302
  228SOD    SOD22288   0.251   1.473   6.852  0.1662  0.0608  0.1779
  229SOD    SOD22289   4.657   3.735   6.500  0.1299 -0.1587 -0.5529
  230SOD    SOD22290   5.217   2.016   6.264 -0.3602 -0.1302 -0.1764
  231SOD    SOD22291   2.754   4.350   7.994 -0.1961 -0.3584 -0.1279
  232SOD    SOD22292   1.845   4.810   8.122  0.0931 -0.0859  0.1825
  233SOD    SOD22293   4.205   1.776   7.622 -0.1968  0.5016  0.4009
  234CLA    CLA22294   4.846   5.470   0.359  0.1341  0.2530 -0.2287
  235CLA    CLA22295   0.006   4.937   7.386  0.0507 -0.0414  0.2216
  236CLA    CLA22296   3.083   3.700   7.426 -0.2295  0.5523  0.4364
  237CLA    CLA22297   1.292   2.856   7.442 -0.1294  0.1313 -0.2913
  238CLA    CLA22298   6.580   1.712   7.781 -0.1722  0.2627  0.4450
  239CLA    CLA22299   6.351   3.405   7.653 -0.3590  0.4507 -0.0089
  240CLA    CLA22300   2.238   3.423   8.248 -0.0006  0.3176 -0.0077
  241CLA    CLA22301   3.475   5.137   8.332 -0.5326  0.0042 -0.0402
  242CLA    CLA22302   4.256   3.473   8.422  0.1636 -0.2648  0.1665
  243CLA    CLA22303   3.767   6.359   1.654 -0.2058  0.2459  0.0592
  244CLA    CLA22304   5.654   1.673   7.944  0.1536  0.1850 -0.3535
  245CLA    CLA22305   1.524   4.414   1.144 -0.2125 -0.1422 -0.3138
  246CLA    CLA22306   3.662   2.721   7.733 -0.1177 -0.3325 -0.0093
  247CLA    CLA22307   5.813   3.325   0.607  0.2978 -0.2212  0.0531
  248CLA    CLA22308   4.857   5.857   7.001 -0.3468  0.3554 -0.2861
  249CLA    CLA22309   2.905   4.507   7.271  0.0636 -0.0825  0.1603
  250CLA    CLA22310   6.369   5.688   8.294 -0.1018 -0.0821  0.0862
  251TIP3   OH222311   5.071   0.223   0.727  0.1832  0.1150 -0.1458
  251TIP3    H122312   5.006   0.205   0.795 -0.2068 -0.4227 -0.6484
  251TIP3    H222313   5.057   0.154   0.662 -0.3247  1.3504 -1.4024
  252TIP3   OH222314   1.142   5.029   1.482 -0.5988  0.1851  0.1293
  252TIP3    H122315   1.073   5.091   1.457 -2.0265 -0.8650  1.2460
  252TIP3    H222316   1.104   4.943   1.464  0.5708 -0.4124  0.4317
  253TIP3   OH222317   6.352   1.655   8.016 -0.2928  0.1458 -0.1449
  253TIP3    H122318   6.417   1.673   7.948 -0.1735  0.9013  0.1605
  253TIP3    H222319   6.365   1.725   8.081 -0.4936 -0.4904  0.5895
  254TIP3   OH222320   0.655   0.315   8.714 -0.0851 -0.0472  0.5069
  254TIP3    H122321   0.656   0.277   8.626 -0.9281 -1.1854  0.9658
  254TIP3    H222322   0.737   0.285   8.754  0.1744  0.2524  0.2094
  255TIP3   OH222323   0.571   3.284   0.160  0.0804  0.2869 -0.7671
  255TIP3    H122324   0.639   3.271   0.226 -1.1845  2.6765  1.1844
  255TIP3    H222325   0.556   3.197   0.123  2.2070 -0.7900  0.7110
  256TIP3   OH222326   2.973   6.836   1.056  0.5045  0.8729 -0.3174
  256TIP3    H122327   2.935   6.909   1.005 -2.6032 -0.7055 -0.5063
  256TIP3    H222328   2.905   6.814   1.119  1.8272 -1.1652  0.4648
  257TIP3   OH222329   5.762   0.049   8.029 -0.7806  0.0823  0.0622
  257TIP3    H122330   5.689   0.055   7.967  1.2661 -2.2156 -2.9318
  257TIP3    H222331   5.735  -0.019   8.091 -1.8072  0.3829 -0.0400
  258TIP3   OH222332   1.015   6.143   7.399  0.0318  0.5840 -0.0616
  258TIP3    H122333   1.013   6.094   7.317  2.1730  1.2274 -0.5620
  258TIP3    H222334   0.989   6.079   7.465  0.1834 -0.4871 -0.9974
  259TIP3   OH222335   0.543   2.278   6.044  0.0970  0.2059  0.2204
  259TIP3    H122336   0.598   2.227   6.104 -0.5615 -0.5045  0.2301
  259TIP3    H222337   0.590   2.361   6.035  1.1904 -0.3837  0.2021
  260TIP3   OH222338   4.986   1.121   6.287  0.2903  0.0514  0.3584
  260TIP3    H122339   4.975   1.064   6.364  0.5219 -1.2196 -0.5123
  260TIP3    H222340   5.064   1.086   6.243 -0.6005 -0.0981 -1.1580
  261TIP3   OH222341   1.380   3.179   6.857 -0.3663 -0.1048  0.3154
  261TIP3    H122342   1.448   3.121   6.823 -0.7509 -0.0080 -0.6703
  261TIP3    H222343   1.300   3.127   6.853 -0.4700  0.0165  0.7897
  262TIP3   OH222344   6.003   3.955   6.753  0.6393  0.5014  0.3732
  262TIP3    H122345   5.986   3.921   6.665  0.8808 -0.6008  0.7313
  262TIP3    H222346   6.090   3.920   6.776  0.1493 -0.0633  1.4294
  263TIP3   OH222347   2.914   3.019   0.048  0.1897 -0.1201 -0.5852
  263TIP3    H122348   2.826   3.046   0.072  0.1038 -1.4003  0.6585
  263TIP3    H222349   2.921   3.040  -0.045 -0.7858  1.5935 -0.3017
  264TIP3   OH222350   2.145   1.168   8.534 -0.0648 -0.2550  0.1455
  264TIP3    H122351   2.058   1.206   8.531  0.4250  0.9405  0.7766
  264TIP3    H222352   2.170   1.169   8.626  0.1786 -1.6658  0.1312
  265TIP3   OH222353   3.373   1.452   6.520  0.2062 -0.5903  0.3738
  265TIP3    H122354   3.348   1.448   6.613  1.5797  1.5124  0.9283
  265TIP3    H222355   3.465   1.426   6.520  0.2511 -0.4360 -0.3784
  266TIP3   OH222356   4.541   2.281   0.647  0.7189  0.3206  0.0268
  266TIP3    H122357   4.508   2.227   0.576  1.1383 -0.6559  0.5617
  266TIP3    H222358   4.470   2.343   0.666  1.2475  1.8060 -2.4089
  267TIP3   OH222359   2.288   0.333   1.031  0.0140 -0.2701  0.1545
  267TIP3    H122360   2.254   0.359   1.116 -1.0082 -1.9459  0.3009
  267TIP3    H222361   2.333   0.250   1.048  1.2475  0.1922 -0.6732
  268TIP3   OH222362   0.391   0.858   8.594 -0.2623  0.4461  0.0124
  268TIP3    H122363   0.409   0.775   8.639  1.2551  0.0871 -1.1641
  268TIP3    H222364   0.385   0.923   8.664 -0.1224 -0.4376  0.8690
  269TIP3   OH222365   1.360   6.078   7.654 -0.0668  0.0746  0.2697
  269TIP3    H122366   1.435   6.137   7.641 -0.2030  0.8335  2.5111
  269TIP3    H222367   1.291   6.135   7.689 -0.8417 -1.0836  0.6564
  270TIP3   OH222368   5.100   2.959   0.421 -0.0835  0.3374 -0.2401
  270TIP3    H122369   5.012   2.980   0.453 -0.5735 -0.6697 -0.8777
  270TIP3    H222370   5.103   2.864   0.422  1.3416  0.3693  0.6335
  271TIP3   OH222371   2.444   5.683   6.265 -0.1921 -0.4629 -0.7331
  271TIP3    H122372   2.539   5.677   6.256 -0.1850  0.3425 -1.3875
  271TIP3    H222373   2.424   5.636   6.345  0.8024 -0.3372 -0.3963
  272TIP3   OH222374   3.813   5.970   1.811  0.0488 -0.1575 -0.2786
  272TIP3    H122375   3.799   5.880   1.840 -1.8749 -0.8720 -2.9770
  272TIP3    H222376   3.872   5.961   1.736 -1.9433  0.4264 -2.0315
  273TIP3   OH222377   1.132   0.744   1.952 -0.2494  0.0056  0.0862
  273TIP3    H122378   1.043   0.771   1.930  0.3163  2.9145  0.9293
  273TIP3    H222379   1.176   0.736   1.867 -0.8781  0.2270 -0.2632
  274TIP3   OH222380   2.677   2.510   8.554 -0.6473  0.3120 -0.1060
  274TIP3    H122381   2.650   2.580   8.614  0.2561  0.0430  0.6348
  274TIP3    H222382   2.754   2.472   8.595 -1.7237 -1.8493  0.0406
  275TIP3   OH222383   5.001   1.304   6.652 -0.1471 -0.2779 -0.2749
  275TIP3    H122384   4.991   1.369   6.582  1.5356 -0.9928 -1.2649
  275TIP3    H222385   4.938   1.236   6.630 -2.0903  1.0591  0.9000
  276TIP3   OH222386   0.005   2.815   6.403 -0.3948 -0.0864  0.5908
  276TIP3    H122387   0.061   2.873   6.456 -1.6025  1.5001  0.2140
  276TIP3    H222388   0.036   2.727   6.423  0.7113  0.6080  2.1492
  277TIP3   OH222389   4.031   3.233   7.175 -0.2662  0.6339 -0.0949
  277TIP3    H122390   4.031   3.328   7.164 -0.4450  0.4086 -2.6651
  277TIP3    H222391   3.940   3.206   7.157 -0.2176 -0.0398  0.5876
  278TIP3   OH222392   6.460   0.129   0.706  0.1263 -0.3999  0.3233
  278TIP3    H122393   6.489   0.132   0.614 -1.7457 -2.2403 -0.4001
  278TIP3    H222394   6.509   0.056   0.743 -1.9374 -2.2461 -0.3730
  279TIP3   OH222395   0.046   2.311   1.170  0.4332  0.9551 -0.9243
  279TIP3    H122396   0.077   2.390   1.215  1.8419 -1.2453  2.3641
  279TIP3    H222397  -0.045   2.302   1.198  0.5210  0.9991 -0.6198
  280TIP3   OH222398   0.259   6.236   0.722  0.2377  0.3478 -0.3033
  280TIP3    H122399   0.319   6.311   0.727 -0.7077  1.0725  0.5730
  280TIP3    H222400   0.208   6.253   0.643 -0.0622  0.7079 -0.0368
  281TIP3   OH222401   3.495   0.798   8.448 -0.3779  0.2904 -0.1448
  281TIP3    H122402   3.400   0.809   8.437 -0.5304  1.0555  1.7057
  281TIP3    H222403   3.519   0.860   8.516  1.0245 -1.6115  1.2094
  282TIP3   OH222404   6.141   3.052   0.377 -0.4586  0.6526  0.2377
  282TIP3    H122405   6.109   3.056   0.468  2.0179  2.5313  1.1521
  282TIP3    H222406   6.236   3.054   0.386 -0.0347 -2.0096 -2.3863
  283TIP3   OH222407   1.421   0.466   6.985  0.2727 -0.4348  0.4563
  283TIP3    H122408   1.446   0.377   7.012  0.0439 -1.0004 -1.1079
  283TIP3    H222409   1.437   0.468   6.891 -0.6469  0.8913  0.3017
  284TIP3   OH222410   4.535   3.087   0.731 -0.4255 -0.4442  0.5633
  284TIP3    H122411   4.535   3.166   0.784  0.5220  1.2580 -1.7752
  284TIP3    H222412   4.622   3.050   0.743  0.6847  1.2698 -1.4685
  285TIP3   OH222413   3.291   4.224   1.197 -0.1975 -0.4932 -0.1075
  285TIP3    H122414   3.197   4.233   1.184 -0.1854 -0.2698 -0.0427
  285TIP3    H222415   3.323   4.185   1.116 -0.5432 -1.8826  0.3990
  286TIP3   OH222416   0.386   2.155   6.943  0.1942 -0.5209 -0.5394
  286TIP3    H122417   0.400   2.097   6.868  0.0771 -0.1211 -0.8738
  286TIP3    H222418   0.474   2.183   6.968  0.2811 -1.1357 -0.1379
  287TIP3   OH222419   6.225   6.229   8.244  0.5848  0.0999 -0.1797
  287TIP3    H122420   6.317   6.243   8.269  0.0995  0.9808  1.2375
  287TIP3    H222421   6.221   6.136   8.222  1.5999 -0.2112  0.7993
  288TIP3   OH222422   4.743   1.285   6.865 -0.0236  0.0177 -0.2120
  288TIP3    H122423   4.820   1.248   6.908 -0.9252  0.1114  1.5425
  288TIP3    H222424   4.773   1.370   6.832  0.1905  0.8934  2.0857
  289TIP3   OH222425   4.186   0.808   7.403 -0.5627 -0.0486 -0.3766
  289TIP3    H122426   4.158   0.899   7.413 -0.3899  0.0943 -1.2014
  289TIP3    H222427   4.171   0.769   7.490 -1.3254  0.5734 -0.2170
  290TIP3   OH222428   1.266   2.582   0.436  0.2087 -0.0048 -0.4711
  290TIP3    H122429   1.239   2.637   0.362  2.4548  1.2917 -0.4227
  290TIP3    H222430   1.325   2.518   0.397  0.3719 -0.1427 -0.0013
  291TIP3   OH222431   1.363   1.041   7.324  0.2185 -0.1329 -0.4362
  291TIP3    H122432   1.363   1.081   7.238 -0.8313  2.9625  0.8672
  291TIP3    H222433   1.412   1.102   7.379 -2.0201 -0.2097  1.8380
  292TIP3   OH222434   5.094   1.445   7.387  0.1566  0.2010 -0.0315
  292TIP3    H122435   5.115   1.406   7.302  2.3706 -0.9377  0.9371
  292TIP3    H222436   5.023   1.392   7.421  0.2775 -0.3005 -0.5445
  293TIP3   OH222437   4.547   4.426   0.439 -0.2822  0.0750  0.9840
  293TIP3    H122438   4.571   4.450   0.349  0.0602  0.1821  1.1003
  293TIP3    H222439   4.463   4.381   0.431 -1.4320  2.1232  0.8588
  294TIP3   OH222440   5.798   3.097   7.901  0.5149  0.0907 -0.2741
  294TIP3    H122441   5.804   3.002   7.910  0.1156  0.1430  0.6618
  294TIP3    H222442   5.707   3.118   7.925  0.4942  0.6707 -0.8358
  295TIP3   OH222443   3.264   3.661   1.774  0.2056 -0.2706 -0.3504
  295TIP3    H122444   3.215   3.706   1.706 -0.7072 -1.3492 -0.4446
  295TIP3    H222445   3.200   3.646   1.844  1.1583  0.9509  0.8363
  296TIP3   OH222446   2.313   4.142   7.875 -0.5447  0.9526  0.3525
  296TIP3    H122447   2.366   4.089   7.935  0.0629  0.9069 -0.2152
  296TIP3    H222448   2.287   4.218   7.927  2.3475  2.3824 -0.0431
  297TIP3   OH222449   6.118   5.791   7.078 -0.2613  0.0098  0.1563
  297TIP3    H122450   6.093   5.812   6.988 -0.4396  0.2549  0.2607
  297TIP3    H222451   6.139   5.876   7.117  2.0481 -0.3030 -0.3091
  298TIP3   OH222452   6.261   5.211   6.867 -0.0111  0.3538 -0.1036
  298TIP3    H122453   6.258   5.116   6.857 -0.3916  0.2088  1.1693
  298TIP3    H222454   6.228   5.245   6.785 -1.5429 -0.6575  0.0523
  299TIP3   OH222455   4.205   2.307   8.282  0.8105  0.0022 -0.1269
  299TIP3    H122456   4.122   2.339   8.318  1.5539  1.6547  0.2034
  299TIP3    H222457   4.266   2.311   8.356  2.2418  2.9786 -1.3246
  300TIP3   OH222458   2.090   1.635   7.838 -0.1745  0.1489 -0.2805
  300TIP3    H122459   2.048   1.579   7.773  0.1948 -0.4387 -0.0206
  300TIP3    H222460   2.127   1.708   7.788 -1.0063  0.3752 -0.5725
  301TIP3   OH222461   5.181   2.211   6.128 -0.4240  0.2685 -0.1959
  301TIP3    H122462   5.145   2.270   6.062  1.4652  1.3324 -0.3642
  301TIP3    H222463   5.178   2.260   6.210  0.1149  0.1877 -0.1191
  302TIP3   OH222464   5.070   5.623   7.653  0.5220  0.1809  0.0562
  302TIP3    H122465   5.163   5.638   7.671  0.2452  1.1185  0.8027
  302TIP3    H222466   5.053   5.670   7.571  0.8428 -0.5197 -0.4143
  303TIP3   OH222467   2.747   4.719   7.075 -0.1329  0.3153 -0.9429
  303TIP3    H122468   2.782   4.633   7.101 -1.4367 -0.0226 -0.1740
  303TIP3    H222469   2.804   4.748   7.004  0.4274 -1.1283 -1.1176
  304TIP3   OH222470   2.285   5.155   8.183 -0.6835 -0.3679 -0.2878
  304TIP3    H122471   2.286   5.060   8.175  3.4607 -0.5341  0.1250
  304TIP3    H222472   2.337   5.174   8.261  0.4331  2.2165 -1.5114
  305TIP3   OH222473   3.633   0.599   0.577  0.0385 -0.2648 -0.0097
  305TIP3    H122474   3.712   0.615   0.526 -0.9382  1.6117 -1.0456
  305TIP3    H222475   3.623   0.678   0.631 -1.2064 -0.4012 -0.0162
  306TIP3   OH222476   6.306   4.744   8.280 -0.1712 -0.3373  0.0648
  306TIP3    H122477   6.373   4.763   8.345  1.2737  1.4770 -1.8191
  306TIP3    H222478   6.355   4.716   8.202 -1.4085  2.2211 -1.7806
  307TIP3   OH222479   5.323   4.125   7.993  0.3709  0.3944  0.1614
  307TIP3    H122480   5.403   4.082   7.963  0.0461 -0.7468  0.8954
  307TIP3    H222481   5.256   4.100   7.928  0.0208 -0.8305  0.9562
  308TIP3   OH222482   3.379   5.213   2.464  0.4416 -0.2308 -0.1661
  308TIP3    H122483   3.448   5.279   2.467  1.2319 -1.0812  0.6706
  308TIP3    H222484   3.306   5.253   2.512  1.3088 -0.3947  1.3413
  309TIP3   OH222485   5.708   5.882   1.090  0.3944  0.2327 -0.7302
  309TIP3    H122486   5.687   5.797   1.130  2.9636 -0.3549 -0.4341
  309TIP3    H222487   5.696   5.945   1.160 -0.5273 -0.0209 -0.6502
  310TIP3   OH222488   0.036   4.804   7.934  0.0656 -0.1790 -0.5943
  310TIP3    H122489   0.079   4.732   7.980 -1.8452  0.3162  2.2469
  310TIP3    H222490  -0.048   4.767   7.905 -1.5587  1.0819  2.1042
  311TIP3   OH222491   0.187   6.686   7.346 -0.2336  0.0345 -0.1343
  311TIP3    H122492   0.255   6.636   7.302  1.0105  0.8748  0.7608
  311TIP3    H222493   0.207   6.676   7.439 -1.6427 -0.1073  0.1764
  312TIP3   OH222494   2.837   5.313   1.458 -0.4859 -0.0742  0.2494
  312TIP3    H122495   2.873   5.297   1.371  0.5596 -1.0319  0.8409
  312TIP3    H222496   2.805   5.228   1.488 -3.7314  0.7618 -0.3983
  313TIP3   OH222497   5.690   3.697   6.798  0.6126  0.5678  0.4347
  313TIP3    H122498   5.774   3.657   6.822  0.6510  0.2210 -0.2566
  313TIP3    H222499   5.700   3.720   6.705 -0.5516 -0.8013 -0.0621
  314TIP3   OH222500   2.251   0.131   8.697  0.3689  0.1283 -0.4634
  314TIP3    H122501   2.321   0.107   8.636  0.8195  1.6649 -0.6051
  314TIP3    H222502   2.281   0.099   8.782 -0.5302 -2.5447 -1.0689
  315TIP3   OH222503   1.238   1.861   0.454  0.4439  0.3007 -0.5612
  315TIP3    H122504   1.299   1.813   0.510  0.1432 -0.1134 -0.5845
  315TIP3    H222505   1.176   1.902   0.514 -0.5968 -1.1148 -0.6151
  316TIP3   OH222506   1.648   0.941   1.759 -0.2854  0.1790 -0.0774
  316TIP3    H122507   1.564   0.944   1.806 -0.2540  1.7233 -0.0554
  316TIP3    H222508   1.673   1.033   1.750  0.0823 -0.0943 -2.4690
  317TIP3   OH222509   3.206   5.102   8.524 -0.3288 -0.2583 -0.4385
  317TIP3    H122510   3.293   5.089   8.486 -0.6235  0.1695 -1.2798
  317TIP3    H222511   3.195   5.027   8.583  0.2679 -0.7745 -0.9590
  318TIP3   OH222512   2.404   0.423   7.094  0.2926  0.3192 -0.0931
  318TIP3    H122513   2.349   0.361   7.046 -0.5561  0.4583  0.6547
  318TIP3    H222514   2.341   0.479   7.140  1.0594  0.4645  0.8110
  319TIP3   OH222515   2.759   2.435   5.937  0.3281 -0.4486 -0.8973
  319TIP3    H122516   2.744   2.522   5.976  1.7640 -0.7254  0.3638
  319TIP3    H222517   2.815   2.453   5.861  2.3886 -0.3971  0.5485
  320TIP3   OH222518   3.454   6.220   7.771  0.2748 -0.0142  0.2022
  320TIP3    H122519   3.457   6.265   7.686  2.6236  1.6206  1.0452
  320TIP3    H222520   3.439   6.290   7.835  1.1810 -0.8028  1.3328
  321TIP3   OH222521   2.851   2.384   0.773  0.1658  0.7094 -0.0823
  321TIP3    H122522   2.773   2.330   0.759  0.7477 -0.6386  1.4956
  321TIP3    H222523   2.824   2.473   0.751 -1.6134  0.1676 -0.2208
  322TIP3   OH222524   1.934   6.786   2.422 -0.3797  0.3280 -0.3379
  322TIP3    H122525   1.926   6.881   2.411 -0.8068  0.4002  0.4276
  322TIP3    H222526   1.844   6.753   2.413 -0.4789  0.1938  0.8945
  323TIP3   OH222527   5.010   5.729   0.396 -0.7979 -0.2814  0.0290
  323TIP3    H122528   4.969   5.810   0.364 -0.5506 -0.8601 -1.8595
  323TIP3    H222529   4.945   5.661   0.380  0.2534 -0.9653 -1.5962
  324TIP3   OH222530   6.391   6.430   1.025 -0.7383  0.7720  0.3290
  324TIP3    H122531   6.376   6.358   0.963  0.2208  0.7916  0.0535
  324TIP3    H222532   6.481   6.417   1.055 -0.9625  1.1621  1.2054
  325TIP3   OH222533   1.377   3.959   7.342  0.1567  0.2472 -0.1544
  325TIP3    H122534   1.303   4.004   7.302 -1.3328  0.3462  2.5201
  325TIP3    H222535   1.413   3.904   7.272 -2.3944  0.2369 -1.5498
  326TIP3   OH222536   1.495   2.008   8.577 -0.2785  0.3213 -0.0459
  326TIP3    H122537   1.530   2.044   8.495  0.0253 -1.7933 -0.9130
  326TIP3    H222538   1.403   1.992   8.558 -0.2140 -0.1449  0.0205
  327TIP3   OH222539   2.195   0.453   8.573 -0.4807 -0.9411 -0.4297
  327TIP3    H122540   2.159   0.370   8.607  0.7734 -1.3092  0.0402
  327TIP3    H222541   2.120   0.513   8.574 -1.3771 -2.0057 -0.6177
  328TIP3   OH222542   5.175   1.886   0.947  0.0449 -0.1233 -0.5418
  328TIP3    H122543   5.191   1.946   1.020  0.1111  1.0049 -1.4502
  328TIP3    H222544   5.102   1.832   0.976 -1.0758  1.4564 -0.2797
  329TIP3   OH222545   1.290   4.317   7.081 -0.4633  0.2519  0.3791
  329TIP3    H122546   1.373   4.310   7.035 -1.6945  0.8395 -2.1356
  329TIP3    H222547   1.226   4.275   7.022 -2.3102  1.9461  1.0519
  330TIP3   OH222548   5.370   4.406   8.322 -0.2825  0.4305  0.9167
  330TIP3    H122549   5.327   4.329   8.359 -0.9788  0.0612 -0.5847
  330TIP3    H222550   5.341   4.408   8.231  1.1248  1.4693  0.4579
  331TIP3   OH222551   0.327   3.541   7.189  0.0094 -0.2018 -0.9252
  331TIP3    H122552   0.262   3.585   7.243  1.8491  0.8867  0.4805
  331TIP3    H222553   0.386   3.498   7.251  1.1958 -0.3415 -2.0941
  332TIP3   OH222554   4.585   1.356   0.595 -0.0182  0.0746  0.1059
  332TIP3    H122555   4.492   1.333   0.601  0.3697 -1.3501  1.2712
  332TIP3    H222556   4.609   1.381   0.684  0.4456  1.6405 -0.4406
  333TIP3   OH222557   3.163   4.584   7.623  0.0897  0.2105 -0.6454
  333TIP3    H122558   3.097   4.621   7.681 -0.5212 -0.6139 -0.7954
  333TIP3    H222559   3.161   4.490   7.640 -0.2364 -0.0751 -2.1145
  334TIP3   OH222560   2.273   1.651   1.127 -1.0119  0.0975  0.7264
  334TIP3    H122561   2.192   1.638   1.077 -0.7425 -1.6977  0.6987
  334TIP3    H222562   2.266   1.591   1.201  0.7844 -0.9957  0.0874
  335TIP3   OH222563   1.566   6.097   0.742 -0.2454  0.3430 -0.6025
  335TIP3    H122564   1.474   6.078   0.723 -0.1048 -0.2981 -0.6360
  335TIP3    H222565   1.598   6.021   0.789 -0.3248  1.5052  1.4486
  336TIP3   OH222566   0.124   2.075   2.251  0.4288  0.4078 -0.5464
  336TIP3    H122567   0.051   2.138   2.253  0.4580  0.4305  1.3582
  336TIP3    H222568   0.202   2.129   2.265  0.7552  0.2667 -1.6896
  337TIP3   OH222569   2.545   3.725   0.633 -0.2958  0.2500 -0.7026
  337TIP3    H122570   2.586   3.665   0.696 -0.1148  0.7997 -0.2986
  337TIP3    H222571   2.614   3.743   0.569 -0.2319  0.3321 -0.6105
  338TIP3   OH222572   6.139   4.636   7.606 -0.5734 -0.0637 -0.3273
  338TIP3    H122573   6.082   4.625   7.682 -0.6366  0.1379 -0.3451
  338TIP3    H222574   6.210   4.693   7.638  0.9748 -2.2655  0.4250
  339TIP3   OH222575   2.746   0.308   2.058  0.1697  0.5527  0.0813
  339TIP3    H122576   2.756   0.320   2.153  0.6691 -0.2835  0.1460
  339TIP3    H222577   2.749   0.397   2.022 -1.5832  1.0101  0.9811
  340TIP3   OH222578   4.930   2.401   1.368 -0.0673  0.1641  0.4996
  340TIP3    H122579   5.005   2.368   1.419 -0.3213 -0.1920  0.6493
  340TIP3    H222580   4.909   2.485   1.408  1.0722  0.8925 -0.3712
  341TIP3   OH222581   2.879   2.846   8.223 -0.0336  0.1020  0.1425
  341TIP3    H122582   2.832   2.924   8.251 -2.0963 -1.3396  0.9205
  341TIP3    H222583   2.885   2.793   8.302 -0.7047 -1.4975 -0.8345
  342TIP3   OH222584   3.440   5.599   0.781  0.4026  0.1348 -0.0873
  342TIP3    H122585   3.463   5.529   0.719  0.2231  1.2734 -1.5018
  342TIP3    H222586   3.475   5.570   0.865  1.6519 -0.9572 -0.9467
  343TIP3   OH222587   0.660   1.405   1.170 -0.4137  0.0792  0.2915
  343TIP3    H122588   0.598   1.406   1.097 -0.7651  1.2626  0.5696
  343TIP3    H222589   0.631   1.478   1.226  1.2071  0.6335  0.4507
  344TIP3   OH222590   4.621   3.098   1.320 -0.0225 -0.1432  0.2199
  344TIP3    H122591   4.700   3.044   1.323  0.5069  0.2108 -3.2743
  344TIP3    H222592   4.549   3.036   1.322  0.4043 -0.6365  0.8074
  345TIP3   OH222593   0.403   0.114   0.682 -0.5592  0.0775 -0.5382
  345TIP3    H122594   0.433   0.172   0.613 -1.4247  0.4680 -0.5959
  345TIP3    H222595   0.445   0.148   0.762  1.5678 -1.2138 -1.0351
  346TIP3   OH222596   1.575   3.257   0.912 -0.1544 -0.4374  0.3807
  346TIP3    H122597   1.639   3.244   0.842  2.1150 -1.1349  2.4292
  346TIP3    H222598   1.624   3.242   0.993 -2.7693 -0.2558  2.1456
  347TIP3   OH222599   0.666   5.514   7.216 -0.5918  0.4999  0.1158
  347TIP3    H122600   0.625   5.600   7.212 -1.9055 -0.1494 -1.3172
  347TIP3    H222601   0.716   5.506   7.135  0.5300  0.3560  0.7899
  348TIP3   OH222602   1.079   2.329   2.105 -0.4036 -0.4828  0.3758
  348TIP3    H122603   1.091   2.393   2.175  0.4837 -0.4006  0.1658
  348TIP3    H222604   1.068   2.382   2.026  3.1807 -0.4873 -0.2841
  349TIP3   OH222605   5.999   4.618   7.845 -0.7395  0.2350  0.6456
  349TIP3    H122606   5.927   4.639   7.905 -1.0685  1.4970 -0.1561
  349TIP3    H222607   5.983   4.527   7.820 -0.4264 -0.4197  2.6604
  350TIP3   OH222608   2.787   5.754   7.810  0.5278 -0.0906 -1.0666
  350TIP3    H122609   2.858   5.702   7.849  0.3447  0.0882 -0.4851
  350TIP3    H222610   2.724   5.689   7.779 -0.1529 -0.2255  0.5029
  351TIP3   OH222611   5.807   0.792   0.019 -0.4133  0.3989  0.5689
  351TIP3    H122612   5.837   0.738  -0.055 -3.3370 -0.0580 -0.4342
  351TIP3    H222613   5.741   0.738   0.063 -0.9026  1.8288  1.6834
  352TIP3   OH222614   3.766   1.499   8.507 -0.3441 -0.2581 -0.3756
  352TIP3    H122615   3.672   1.491   8.494 -0.2803 -0.4440 -0.7346
  352TIP3    H222616   3.803   1.419   8.469 -0.3561 -2.5052  3.7347
  353TIP3   OH222617   4.486   2.966   7.584  0.2277  0.3193  0.2540
  353TIP3    H122618   4.412   2.947   7.526 -1.0108  1.4283  1.3983
  353TIP3    H222619   4.500   3.060   7.575  0.4103  0.3977  1.2897
  354TIP3   OH222620   1.470   3.076   7.800 -0.7607 -0.4889  0.2049
  354TIP3    H122621   1.472   2.983   7.776 -2.2945 -0.2043 -1.2076
  354TIP3    H222622   1.381   3.104   7.781  0.0693  1.6353 -0.8744
  355TIP3   OH222623   2.653   1.175   8.391  0.1496  0.5163 -0.4016
  355TIP3    H122624   2.593   1.246   8.365 -0.8906 -0.9065 -2.0712
  355TIP3    H222625   2.739   1.206   8.364 -0.1976  1.4001 -0.5643
  356TIP3   OH222626   0.368   4.221   0.726 -0.0928 -0.3494 -0.7720
  356TIP3    H122627   0.357   4.201   0.633  0.4546 -0.8946 -0.7307
  356TIP3    H222628   0.462   4.206   0.742  1.2171  5.2334 -1.4234
  357TIP3   OH222629   3.822   4.794   7.577  0.4094 -0.2778 -0.3293
  357TIP3    H122630   3.877   4.862   7.539  1.3076 -0.0886  1.1914
  357TIP3    H222631   3.784   4.748   7.502 -0.2317  1.8807 -1.4029
  358TIP3   OH222632   6.680   2.892   8.397 -0.1537 -0.2314  0.2060
  358TIP3    H122633   6.707   2.825   8.459 -1.1190  0.4516  1.4121
  358TIP3    H222634   6.586   2.901   8.411  0.2877  3.2189  2.0618
  359TIP3   OH222635   2.114   6.218   0.568  0.6932 -0.6852 -0.4599
  359TIP3    H122636   2.179   6.195   0.635  0.0062 -1.7616 -0.1265
  359TIP3    H222637   2.032   6.225   0.617  0.7558  2.2368 -0.5997
  360TIP3   OH222638   4.470   1.519   0.346  0.2018 -0.4545  0.1386
  360TIP3    H122639   4.504   1.528   0.257  0.7867 -1.2985  0.2657
  360TIP3    H222640   4.538   1.470   0.393  0.7971  1.6038  1.5802
  361TIP3   OH222641   6.097   0.330   1.198  0.5612  0.4216  0.2749
  361TIP3    H122642   6.139   0.274   1.132  0.3132  1.2180 -0.5858
  361TIP3    H222643   6.160   0.401   1.212 -0.7667  2.0667 -1.6247
  362TIP3   OH222644   5.165   5.176   1.707 -0.2736  0.0935 -0.0000
  362TIP3    H122645   5.083   5.185   1.657 -0.0057 -0.2980 -0.5094
  362TIP3    H222646   5.193   5.267   1.722 -1.2160  0.2618  0.8819
  363TIP3   OH222647   0.756   5.188   6.340  0.2280 -0.1843  0.0068
  363TIP3    H122648   0.742   5.280   6.315  0.4319 -0.4721 -1.2593
  363TIP3    H222649   0.678   5.143   6.309  0.9877 -0.7391 -1.1703
  364TIP3   OH222650   5.190   6.237   7.131  0.1054 -0.1521  0.5876
  364TIP3    H122651   5.240   6.226   7.050 -0.5165 -1.6537  0.3722
  364TIP3    H222652   5.153   6.150   7.149 -2.4995  0.8645  0.6821
  365TIP3   OH222653   6.055   4.929   2.155  0.0091 -0.4755  0.0456
  365TIP3    H122654   5.998   4.915   2.230  0.5501  1.7102  0.9355
  365TIP3    H222655   5.995   4.943   2.082 -0.5542 -0.6125  0.4783
  366TIP3   OH222656   0.711   1.362   6.863 -0.1675 -0.1617 -0.1145
  366TIP3    H122657   0.641   1.302   6.839 -0.9837  1.2574 -1.4884
  366TIP3    H222658   0.744   1.395   6.779  1.1593  0.2900  0.5613
  367TIP3   OH222659   2.982   1.504   8.124 -0.4063 -0.1933 -0.0775
  367TIP3    H122660   3.003   1.490   8.032 -0.6352  0.0909 -0.1744
  367TIP3    H222661   3.057   1.469   8.171  0.7809  1.7671 -0.4543
  368TIP3   OH222662   2.331   4.886   0.581  0.2123  0.5125  0.5621
  368TIP3    H122663   2.327   4.802   0.536  0.3208  2.0071 -2.5451
  368TIP3    H222664   2.424   4.901   0.595  0.1400 -0.2643  2.0047
  369TIP3   OH222665   5.988   2.799   8.717  0.2731  0.3202  0.3177
  369TIP3    H122666   5.981   2.715   8.670  2.5868  0.4193 -0.3103
  369TIP3    H222667   6.028   2.858   8.654 -1.4661  1.9999  0.7127
  370TIP3   OH222668   3.926   2.107   1.000 -0.2803 -0.0422  0.8141
  370TIP3    H122669   3.953   2.079   0.912 -0.8979 -0.8403  0.8721
  370TIP3    H222670   3.935   2.202   0.997 -1.0262  0.0142 -0.3714
  371TIP3   OH222671   3.402   5.978   7.873 -0.0156  0.1032  0.0257
  371TIP3    H122672   3.485   5.959   7.916 -0.1158  2.3082  1.3458
  371TIP3    H222673   3.417   6.060   7.826 -1.4207  0.5141  0.2470
  372TIP3   OH222674   6.118   5.224   0.982  0.2177  0.0230 -0.0465
  372TIP3    H122675   6.169   5.296   1.019  1.4602 -1.1442  0.6128
  372TIP3    H222676   6.167   5.198   0.904  1.4148 -1.9101  1.2608
  373TIP3   OH222677   5.641   2.878   7.365 -0.5392  0.4312  0.5515
  373TIP3    H122678   5.605   2.959   7.402 -0.3907  0.0372  1.6047
  373TIP3    H222679   5.720   2.862   7.417 -0.0161  0.1444 -0.3207
  374TIP3   OH222680   1.105   2.298   0.251 -0.8768 -0.5319 -0.1421
  374TIP3    H122681   1.168   2.364   0.223 -0.6047 -0.1621  1.3055
  374TIP3    H222682   1.037   2.300   0.183 -0.0853  0.1049 -0.9380
  375TIP3   OH222683   4.316   4.149   2.471 -0.2931 -0.2702  0.2100
  375TIP3    H122684   4.227   4.140   2.437 -0.3273 -2.3408  0.7103
  375TIP3    H222685   4.304   4.180   2.561 -0.3165  2.4058 -0.6262
  376TIP3   OH222686   5.736   2.818   0.080  0.4151  0.6483 -0.5927
  376TIP3    H122687   5.824   2.791   0.054  0.3634  2.1172 -2.4425
  376TIP3    H222688   5.749   2.862   0.165  1.3832  0.4375 -0.6221
  377TIP3   OH222689   3.263   2.439   7.136 -0.3201  0.0304  0.2017
  377TIP3    H122690   3.255   2.365   7.076  0.4552  0.3422 -0.2990
  377TIP3    H222691   3.239   2.403   7.221  1.8016 -1.2834  0.2963
  378TIP3   OH222692   0.620   3.018   7.628  0.1417 -0.7435  0.0927
  378TIP3    H122693   0.639   3.008   7.721  0.0666 -2.5730 -0.0502
  378TIP3    H222694   0.618   3.112   7.614  0.3127 -0.4328  1.9063
  379TIP3   OH222695   4.444   4.753   8.575 -0.1175  0.6142 -0.3470
  379TIP3    H122696   4.352   4.725   8.580  0.4787 -1.2199  1.7239
  379TIP3    H222697   4.489   4.681   8.532  0.7008  0.4208  0.7869
  380TIP3   OH222698   2.783   1.612   0.453 -0.7961  0.0338  0.4655
  380TIP3    H122699   2.796   1.702   0.424 -0.4998 -0.1232  0.0983
  380TIP3    H222700   2.689   1.602   0.463 -0.8013  0.5068  0.9066
  381TIP3   OH222701   2.326   2.532   2.166 -0.4479 -1.3870 -0.1324
  381TIP3    H122702   2.332   2.609   2.111 -0.4092 -3.0972 -2.6931
  381TIP3    H222703   2.401   2.539   2.225  0.2197 -0.0556 -1.0964
  382TIP3   OH222704   1.731   5.888   7.872 -0.1663 -0.2590  0.2779
  382TIP3    H122705   1.798   5.879   7.804 -0.2762 -1.1967  0.2778
  382TIP3    H222706   1.721   5.800   7.908  0.1681  0.2966  1.7901
  383TIP3   OH222707   2.086   5.829   2.013  0.0162  0.0908  0.7704
  383TIP3    H122708   2.015   5.766   2.002  0.8860 -1.0121  1.2190
  383TIP3    H222709   2.063   5.877   2.093  0.6693 -1.5708  2.0280
  384TIP3   OH222710   4.443   2.849   7.280  0.2349 -0.3078 -0.1582
  384TIP3    H122711   4.396   2.787   7.336 -1.3797  1.2184  0.2689
  384TIP3    H222712   4.398   2.933   7.294  1.6542  0.7405 -1.5319
  385TIP3   OH222713   1.732   5.912   6.280 -0.2446  0.1738  0.3325
  385TIP3    H122714   1.769   6.000   6.280  2.7027 -0.8874 -1.7485
  385TIP3    H222715   1.722   5.890   6.187  1.1668 -2.3936  0.6893
  386TIP3   OH222716   2.907   6.499   1.468  0.7698  0.0776 -0.8432
  386TIP3    H122717   2.854   6.507   1.547  1.5549  0.7498 -0.3685
  386TIP3    H222718   2.912   6.405   1.451  4.1069 -0.5734  2.4062
  387TIP3   OH222719   1.016   1.149   0.379  0.0579  0.3408 -0.1981
  387TIP3    H122720   1.027   1.225   0.322 -1.5515  1.4095  0.8199
  387TIP3    H222721   0.949   1.096   0.334 -0.5591  0.7404  0.2285
  388TIP3   OH222722   1.019   0.848   7.055 -0.1849 -0.1358  0.1034
  388TIP3    H122723   1.049   0.934   7.086 -1.3290 -0.1285  1.2824
  388TIP3    H222724   1.079   0.826   6.984  1.0122  1.0062  0.7037
  389TIP3   OH222725   2.514   6.453   7.025  0.5392  0.3018 -0.0105
  389TIP3    H122726   2.462   6.528   7.054  0.3414 -0.2970  1.2293
  389TIP3    H222727   2.588   6.451   7.085  0.8485 -0.1572 -0.4046
  390TIP3   OH222728   3.951   6.762   6.671 -0.5447 -0.7617  0.3667
  390TIP3    H122729   3.964   6.806   6.755 -0.4681 -2.1578  1.1123
  390TIP3    H222730   3.984   6.824   6.606  2.4489 -0.8825  1.5948
  391TIP3   OH222731   6.712   2.081   1.106 -0.4029 -0.1990  0.7140
  391TIP3    H122732   6.655   2.093   1.030 -0.3451 -0.9810  0.5401
  391TIP3    H222733   6.658   2.107   1.181 -1.3217 -1.7775  0.6452
  392TIP3   OH222734   4.283   4.942   0.311  0.7408  0.0145  0.2747
  392TIP3    H122735   4.357   4.952   0.251 -0.1005 -0.4352 -0.8787
  392TIP3    H222736   4.322   4.939   0.398  2.2349 -1.9307 -0.4037
  393TIP3   OH222737   5.691   4.875   1.432  0.4198  0.2964  0.3074
  393TIP3    H122738   5.726   4.802   1.483  2.6204 -1.3016 -3.1494
  393TIP3    H222739   5.607   4.844   1.399 -1.0902  1.3937  2.7826
  394TIP3   OH222740   2.139   2.148   1.198 -0.1876  0.2151 -0.1991
  394TIP3    H122741   2.231   2.173   1.208  0.3359 -1.3462 -0.8106
  394TIP3    H222742   2.097   2.227   1.164  1.2654  0.4840 -1.5236
  395TIP3   OH222743   1.438   2.138   8.113  0.4775 -0.0096  0.2756
  395TIP3    H122744   1.400   2.225   8.113  0.7966  0.1501  1.6339
  395TIP3    H222745   1.509   2.143   8.049 -1.5737 -0.2684 -2.1721
  396TIP3   OH222746   5.443   6.643   6.708  0.6871  0.1103 -0.6017
  396TIP3    H122747   5.516   6.668   6.764 -0.7778  0.2711  1.3318
  396TIP3    H222748   5.484   6.604   6.631  2.7969  0.0081  0.5081
  397TIP3   OH222749   2.703   3.253   6.898 -0.8998 -0.2012 -0.1781
  397TIP3    H122750   2.697   3.242   6.803  0.5424  0.8829 -0.4323
  397TIP3    H222751   2.759   3.181   6.928 -0.3340  0.1687 -0.3343
  398TIP3   OH222752   1.920   2.256   0.627 -0.3023  0.3294  0.8106
  398TIP3    H122753   1.987   2.190   0.646  0.5600  0.9349 -0.0977
  398TIP3    H222754   1.842   2.223   0.672  0.0070 -1.4943  0.1112
  399TIP3   OH222755   6.535   4.047   1.343  0.5575  0.3266  0.3418
  399TIP3    H122756   6.449   4.089   1.336  0.4550 -0.0506 -0.9471
  399TIP3    H222757   6.562   4.062   1.434 -1.6146 -1.0309  1.2907
  400TIP3   OH222758   5.813   0.188   0.892 -0.7384 -0.8224  0.4151
  400TIP3    H122759   5.721   0.163   0.891 -1.1476  0.5647 -0.5110
  400TIP3    H222760   5.823   0.247   0.817  0.6232 -0.0088  1.1790
  401TIP3   OH222761   5.541   1.944   7.445  0.4326  0.1740 -0.0081
  401TIP3    H122762   5.622   1.912   7.483  0.6899 -0.5419 -1.0979
  401TIP3    H222763   5.472   1.903   7.497  0.7712 -0.7413 -0.2692
  402TIP3   OH222764   3.079   5.986   1.523  0.0288 -0.2157 -0.0668
  402TIP3    H122765   3.112   5.902   1.555 -0.4197  0.1404  1.4382
  402TIP3    H222766   2.992   5.994   1.562 -0.0911  0.7769 -0.4948
  403TIP3   OH222767   1.650   5.855   8.481 -0.1852 -0.9529  0.6056
  403TIP3    H122768   1.685   5.943   8.494 -0.8896 -0.4132 -1.0041
  403TIP3    H222769   1.555   5.865   8.488 -0.2574 -1.6476  0.6843
  404TIP3   OH222770   5.935   2.201   1.953 -0.3245  0.1797 -0.8618
  404TIP3    H122771   5.843   2.176   1.959 -0.6404  1.4913  0.6452
  404TIP3    H222772   5.936   2.294   1.975  1.5068 -0.1410  0.7191
  405TIP3   OH222773   2.366   6.370   7.371  0.0560 -0.0165  0.4460
  405TIP3    H122774   2.288   6.421   7.394 -0.1903  0.2976 -1.0048
  405TIP3    H222775   2.340   6.279   7.382 -0.7608  0.0606 -0.7042
  406TIP3   OH222776   3.499   0.195   6.183 -0.5721 -0.2182 -0.3983
  406TIP3    H122777   3.569   0.149   6.229 -0.5604  0.9059  0.7598
  406TIP3    H222778   3.543   0.265   6.136 -1.0649  2.2087  2.4743
  407TIP3   OH222779   0.998   2.142   8.051  0.1051 -0.2273 -0.2076
  407TIP3    H122780   0.908   2.145   8.086 -0.0658  0.4989 -0.6800
  407TIP3    H222781   1.024   2.234   8.046  1.1870 -0.4774  0.6958
  408TIP3   OH222782   2.098   3.014   1.078  0.0575  0.0946 -0.0944
  408TIP3    H122783   2.020   3.031   1.130  0.9534  0.9425  1.0036
  408TIP3    H222784   2.133   3.101   1.058  0.9609 -0.2865 -0.2096
  409TIP3   OH222785   3.251   0.871   8.073  0.0515  0.0708  0.0496
  409TIP3    H122786   3.316   0.859   8.142 -1.6777 -1.2662  1.5503
  409TIP3    H222787   3.233   0.965   8.072 -0.0480  0.0948  1.6167
  410TIP3   OH222788   5.584   6.188   1.509 -0.0889 -0.6587 -0.2735
  410TIP3    H122789   5.557   6.246   1.580  3.1434 -0.2739  0.8236
  410TIP3    H222790   5.606   6.247   1.437  0.3648 -0.7426 -0.2048
  411TIP3   OH222791   4.697   0.607   8.700  0.3777  0.6369 -0.4892
  411TIP3    H122792   4.619   0.559   8.673  0.1163  0.4965  0.4973
  411TIP3    H222793   4.671   0.652   8.781  1.2310  0.8216 -0.3118
  412TIP3   OH222794   2.662   3.075   0.743  0.3609 -0.3223 -0.1890
  412TIP3    H122795   2.755   3.094   0.732  0.8361 -0.0365  3.2910
  412TIP3    H222796   2.647   3.083   0.837 -3.3975  0.5259 -0.7130
  413TIP3   OH222797   5.319   2.897   1.116  0.4988 -0.5567  0.3685
  413TIP3    H122798   5.280   2.969   1.066 -0.5676 -1.5840 -0.3454
  413TIP3    H222799   5.292   2.818   1.069  1.5035 -1.4386  1.2207
  414TIP3   OH222800   0.673   0.353   7.380  0.9111  0.0541  0.1207
  414TIP3    H122801   0.657   0.262   7.407  0.0400 -0.1588 -1.0497
  414TIP3    H222802   0.691   0.348   7.286  1.2756  1.0559  0.1240
  415TIP3   OH222803   3.948   6.043   1.007 -0.3077  0.0082 -0.4924
  415TIP3    H122804   3.882   5.984   0.972  0.9187  0.1421 -3.3225
  415TIP3    H222805   3.923   6.129   0.975 -0.9231  0.7419  1.8327
  416TIP3   OH222806   1.204   5.837   7.641 -0.0095 -0.2229 -0.0345
  416TIP3    H122807   1.161   5.826   7.556 -1.9347  2.5043  0.4341
  416TIP3    H222808   1.242   5.925   7.637  0.4868 -0.3291  1.6438
  417TIP3   OH222809   1.887   1.252   8.434  0.0495 -0.0154 -0.2478
  417TIP3    H122810   1.947   1.260   8.360 -0.3250  0.5021 -0.4982
  417TIP3    H222811   1.801   1.270   8.397 -0.3055 -1.0236  0.0511
  418TIP3   OH222812   2.890   3.023   1.419  0.7403  0.2630 -0.1797
  418TIP3    H122813   2.907   3.026   1.325 -0.5536 -0.0693 -0.4393
  418TIP3    H222814   2.887   3.115   1.446 -0.8675  0.4385 -0.8566
  419TIP3   OH222815   2.142   2.461   7.020 -0.5835 -0.1563  0.1982
  419TIP3    H122816   2.212   2.408   7.059 -1.8725 -0.3765  2.4155
  419TIP3    H222817   2.127   2.422   6.934 -1.0840 -3.1262  1.4951
  420TIP3   OH222818   2.625   5.804   1.797 -0.6076  0.4762 -0.5452
  420TIP3    H122819   2.592   5.726   1.841  0.7981 -0.3991 -1.0022
  420TIP3    H222820   2.589   5.877   1.849 -0.3372 -0.4908  1.0742
  421TIP3   OH222821   4.678   2.114   0.300  0.1160 -0.3304  0.4316
  421TIP3    H122822   4.703   2.065   0.378  2.9728 -0.5313 -0.4880
  421TIP3    H222823   4.757   2.164   0.277 -0.1477 -1.2433 -2.9831
  422TIP3   OH222824   2.523   5.971   0.587  0.1635  0.0411 -0.4417
  422TIP3    H122825   2.548   5.892   0.540 -0.1559 -0.0026 -0.5417
  422TIP3    H222826   2.598   5.991   0.643  0.4108 -0.0963 -0.7228
  423TIP3   OH222827   0.666   3.338   8.523  0.6212 -0.5428 -0.1186
  423TIP3    H122828   0.650   3.267   8.460 -0.6643  0.0101 -0.4378
  423TIP3    H222829   0.582   3.382   8.532  1.4072  0.9875  0.0500
  424TIP3   OH222830   5.215   3.006   6.478 -0.1489 -0.0583 -0.0647
  424TIP3    H122831   5.286   3.067   6.457  0.8897 -1.7811 -1.9562
  424TIP3    H222832   5.260   2.926   6.507 -1.3286 -0.8811 -0.4242
  425TIP3   OH222833   0.043   0.152   0.874 -0.4360  0.1831  0.2149
  425TIP3    H122834  -0.051   0.136   0.866 -0.4534  0.0441  0.6678
  425TIP3    H222835   0.080   0.066   0.892 -0.2467  0.2753  0.2631
  426TIP3   OH222836   5.985   6.516   1.838  0.2688  0.6746  0.4235
  426TIP3    H122837   5.934   6.459   1.781  0.6186 -0.0921  0.8603
  426TIP3    H222838   5.983   6.602   1.795 -2.0403  0.8727  0.8282
  427TIP3   OH222839   5.575   0.373   8.057 -0.4345 -0.2706  0.2793
  427TIP3    H122840   5.611   0.361   7.969  0.8968 -1.4331  0.9439
  427TIP3    H222841   5.598   0.293   8.104  0.6722  1.1188  2.2626
  428TIP3   OH222842   1.319   1.606   6.848  0.0415  0.2421 -0.2893
  428TIP3    H122843   1.312   1.665   6.923  0.6743  3.0419 -2.2752
  428TIP3    H222844   1.401   1.559   6.862 -0.6063 -0.4431  1.4721
  429TIP3   OH222845   0.623   2.176   7.083 -0.2035 -0.2714 -0.4176
  429TIP3    H122846   0.706   2.137   7.056  0.9442  2.0099 -0.4451
  429TIP3    H222847   0.622   2.166   7.178  0.4212  0.2617 -0.3522
  430TIP3   OH222848   2.527   1.210   7.731  0.4102  0.5553  0.5442
  430TIP3    H122849   2.524   1.188   7.824  3.7612  0.5561  0.7859
  430TIP3    H222850   2.540   1.305   7.730 -2.7486  1.1060 -0.1493
  431TIP3   OH222851   1.048   2.760   8.311  0.6586 -0.3784  0.3097
  431TIP3    H122852   1.030   2.784   8.220  1.6173  0.2387  0.2656
  431TIP3    H222853   1.142   2.743   8.313  1.2104  2.2454  1.7046
  432TIP3   OH222854   6.348   1.328   7.485  0.5788 -0.1769  0.2359
  432TIP3    H122855   6.378   1.308   7.396 -1.0376  0.8888 -0.5882
  432TIP3    H222856   6.406   1.398   7.514  1.9812 -1.4249  0.5898
  433TIP3   OH222857   2.342   4.803   1.617 -0.5631 -0.2875 -0.0749
  433TIP3    H122858   2.358   4.829   1.708  1.2106 -0.4908 -0.2982
  433TIP3    H222859   2.269   4.859   1.589  1.9062  3.3441  0.0213
  434TIP3   OH222860   0.378   1.471   0.087  0.4976  0.3380  0.3077
  434TIP3    H122861   0.354   1.391   0.134 -0.2052  0.0406 -0.5518
  434TIP3    H222862   0.451   1.445   0.031  0.4085  0.3625  0.1825
  435TIP3   OH222863   1.344   3.175   7.391 -0.4148 -0.4117  0.1030
  435TIP3    H122864   1.349   3.082   7.413 -0.0672 -0.3440  0.3137
  435TIP3    H222865   1.425   3.192   7.341  0.1364  0.0591  1.1237
  436TIP3   OH222866   5.385   3.279   7.492 -0.0717  0.0036 -0.1824
  436TIP3    H122867   5.293   3.299   7.479  0.1050  0.0363 -1.5613
  436TIP3    H222868   5.429   3.364   7.484  0.0188  0.1328  1.3693
  437TIP3   OH222869   2.520   1.545   1.188 -0.3849  0.5750  0.1633
  437TIP3    H122870   2.456   1.602   1.145 -1.8009 -1.2486 -0.2959
  437TIP3    H222871   2.471   1.466   1.210  1.4471 -0.4380  0.8732
  438TIP3   OH222872   0.160   3.206   1.532 -0.4411  0.2622  0.1034
  438TIP3    H122873   0.102   3.141   1.572  1.6394 -0.4409  2.2079
  438TIP3    H222874   0.239   3.157   1.509 -0.0403  1.4725 -1.2504
  439TIP3   OH222875   0.897   3.654   6.828 -0.0391 -0.0198  0.1878
  439TIP3    H122876   0.856   3.733   6.795 -0.7472 -0.3550  0.2369
  439TIP3    H222877   0.985   3.655   6.791 -0.9792 -0.7051 -2.3096
  440TIP3   OH222878   5.881   1.442   7.927 -0.0045 -0.2930 -0.3637
  440TIP3    H122879   5.821   1.509   7.960 -0.1880 -0.3820 -0.5155
  440TIP3    H222880   5.963   1.489   7.911  0.4220 -0.4369  1.2021
  441TIP3   OH222881   0.110   1.906   0.007 -0.1639  0.0184  0.1056
  441TIP3    H122882   0.183   1.967  -0.005 -0.8936  1.5318  2.6776
  441TIP3    H222883   0.041   1.939  -0.050  0.1640  0.3189 -0.1196
  442TIP3   OH222884   6.508   6.406   8.425  0.1459 -0.2114 -0.0428
  442TIP3    H122885   6.460   6.483   8.395  0.1028 -0.0123  0.5242
  442TIP3    H222886   6.527   6.424   8.517 -0.0998 -0.9927  0.1678
  443TIP3   OH222887   4.232   4.102   1.015  0.4902 -0.5123  0.4846
  443TIP3    H122888   4.235   4.046   1.093 -2.6726 -0.8946  0.4610
  443TIP3    H222889   4.192   4.046   0.948  1.9794  0.2241 -1.0898
  444TIP3   OH222890   6.688   3.922   6.692  0.0957 -0.0271 -0.0526
  444TIP3    H122891   6.683   4.016   6.677 -0.9646 -0.0347  0.1542
  444TIP3    H222892   6.754   3.912   6.760  0.0997  0.5849  0.0428
  445TIP3   OH222893   6.733   4.363   8.501 -0.0364 -0.4110  0.1234
  445TIP3    H122894   6.641   4.337   8.511 -0.1996  0.7138  1.9489
  445TIP3    H222895   6.771   4.294   8.446 -1.4799 -2.0783  1.0868
  446TIP3   OH222896   6.472   6.275   0.023  0.4017 -0.4088 -0.5066
  446TIP3    H122897   6.499   6.225   0.100 -0.0848  0.1619  0.0346
  446TIP3    H222898   6.487   6.215  -0.050 -0.7336 -1.5847  0.1861
  447TIP3   OH222899   5.116   3.788   1.736  0.7188  0.2904  0.4859
  447TIP3    H122900   5.051   3.719   1.727 -0.3307  1.2389  0.6036
  447TIP3    H222901   5.165   3.765   1.815  1.4716 -1.1601 -0.3511
  448TIP3   OH222902   4.600   5.480   7.091  0.4325 -0.0697 -0.0923
  448TIP3    H122903   4.595   5.574   7.109 -1.5217 -0.0715 -0.4001
  448TIP3    H222904   4.556   5.439   7.165 -2.6433 -0.4094 -1.9288
  449TIP3   OH222905   3.287   0.220   7.511 -0.1488 -0.1699  0.3228
  449TIP3    H122906   3.270   0.202   7.418  0.9689 -1.6582  0.3795
  449TIP3    H222907   3.254   0.309   7.524 -1.3390 -0.3433 -1.2224
  450TIP3   OH222908   6.559   2.147   2.048  0.3070  0.8849  0.4844
  450TIP3    H122909   6.648   2.110   2.043 -0.4340 -0.9042 -0.1795
  450TIP3    H222910   6.513   2.109   1.973 -1.4218  0.6624  1.6104
  451TIP3   OH222911   6.842   2.456   0.500 -0.0796 -0.6133 -0.2887
  451TIP3    H122912   6.781   2.437   0.428  0.2364 -1.4407 -0.3529
  451TIP3    H222913   6.803   2.531   0.545 -0.5150 -0.3721 -1.0522
  452TIP3   OH222914   4.982   2.392   8.650 -0.3338 -0.2381 -0.0391
  452TIP3    H122915   5.073   2.376   8.626 -0.7711 -0.3656 -1.7246
  452TIP3    H222916   4.975   2.487   8.659 -0.1140 -0.2069 -0.2038
  453TIP3   OH222917   5.346   5.609   7.678 -0.1269  0.3755  0.0015
  453TIP3    H122918   5.366   5.636   7.767 -0.8780 -3.3075  1.4777
  453TIP3    H222919   5.432   5.599   7.636  0.3273  0.4705  0.8955
  454TIP3   OH222920   6.393   0.752   7.511 -0.2334 -0.1259 -0.1230
  454TIP3    H122921   6.343   0.729   7.589 -0.2696  0.5656  0.0630
  454TIP3    H222922   6.358   0.837   7.483  1.2454  0.6963  0.3881
  455TIP3   OH222923   1.057   4.140   7.350 -0.0570 -0.5816 -0.4202
  455TIP3    H122924   1.061   4.104   7.262  0.6505 -0.0120 -0.6285
  455TIP3    H222925   1.146   4.171   7.368 -0.2373 -0.5114  0.4173
  456TIP3   OH222926   1.583   3.654   8.391 -0.1041  0.1627  0.4930
  456TIP3    H122927   1.678   3.638   8.388 -0.2668 -0.8654  0.3174
  456TIP3    H222928   1.544   3.569   8.371 -1.0706  0.9064 -1.0654
  457TIP3   OH222929   6.686   0.169   2.407 -0.7829  0.2435 -0.1066
  457TIP3    H122930   6.657   0.079   2.425  1.5656 -0.7747 -1.0386
  457TIP3    H222931   6.780   0.162   2.395 -0.5183  2.8925 -0.0984
  458TIP3   OH222932   1.394   5.197   8.141  0.0403 -0.7248  0.2725
  458TIP3    H122933   1.322   5.137   8.161  0.2818 -2.3534 -3.0084
  458TIP3    H222934   1.445   5.151   8.075  3.2377  1.0516  1.2984
  459TIP3   OH222935   6.527   0.373   7.708  0.3354  0.2976  0.0308
  459TIP3    H122936   6.496   0.430   7.779 -2.4561  0.1165 -0.9092
  459TIP3    H222937   6.566   0.434   7.644  1.9453  0.5544  1.1832
  460TIP3   OH222938   5.279   2.338   7.043 -0.0091  0.9293  0.5627
  460TIP3    H122939   5.236   2.307   6.963  0.5948  0.1662  0.5299
  460TIP3    H222940   5.259   2.432   7.045  0.2341  1.0233 -0.6574
  461TIP3   OH222941   1.776   6.301   8.226 -0.2788 -0.2798 -0.0482
  461TIP3    H122942   1.867   6.302   8.255 -0.4244  2.0033  0.5436
  461TIP3    H222943   1.769   6.223   8.171  2.4338  0.2363 -1.3185
  462TIP3   OH222944   3.607   5.019   8.569 -0.2727  0.0569 -0.2517
  462TIP3    H122945   3.698   5.044   8.585 -0.1600  0.3063 -1.2778
  462TIP3    H222946   3.577   5.077   8.500 -1.0615 -0.3514 -0.2624
  463TIP3   OH222947   5.434   5.527   0.232 -0.3121 -0.5146  0.4047
  463TIP3    H122948   5.456   5.452   0.177  1.6875  0.5509 -0.3703
  463TIP3    H222949   5.518   5.561   0.261 -1.1470  1.4439  0.7047
  464TIP3   OH222950   6.096   5.793   6.796  0.2955 -0.1599  0.4855
  464TIP3    H122951   6.098   5.791   6.700  3.1674  2.8503  0.2887
  464TIP3    H222952   6.184   5.821   6.821 -0.5091 -0.3422  4.0109
  465TIP3   OH222953   1.007   1.509   6.669  0.1918 -0.1158 -0.0482
  465TIP3    H122954   0.941   1.449   6.636  2.0387 -1.3747 -1.6924
  465TIP3    H222955   0.958   1.577   6.714 -2.1568 -1.2604 -0.7464
  466TIP3   OH222956   5.513   1.806   1.159 -0.3820 -0.1721  0.2904
  466TIP3    H122957   5.604   1.802   1.190 -0.2518  2.9410  0.6392
  466TIP3    H222958   5.469   1.736   1.206  2.1466 -3.0440 -1.3010
  467TIP3   OH222959   1.860   5.111   0.273 -0.0743  0.3749 -0.0086
  467TIP3    H122960   1.950   5.090   0.249  0.6007  0.4902  2.2682
  467TIP3    H222961   1.849   5.203   0.248  0.3527  0.3021 -0.4758
  468TIP3   OH222962   2.291   4.350   1.115 -0.1829 -0.1804  0.5174
  468TIP3    H122963   2.242   4.336   1.195 -0.5219 -0.6759  0.2286
  468TIP3    H222964   2.225   4.375   1.050  0.1039  0.3533  0.4260
  469TIP3   OH222965   4.375   1.084   7.897 -0.6160  0.2017 -0.1560
  469TIP3    H122966   4.301   1.141   7.915 -0.5702  0.0925  0.4042
  469TIP3    H222967   4.420   1.075   7.982 -0.3773 -0.3094 -0.3295
  470TIP3   OH222968   1.037   1.882   0.635 -0.6559  0.3271 -0.4974
  470TIP3    H122969   0.957   1.860   0.682  1.1970 -0.5057  2.4783
  470TIP3    H222970   1.048   1.811   0.572 -2.1717  0.4296 -0.9213
  471TIP3   OH222971   2.529   5.731   8.049  0.1069 -0.3070 -0.2241
  471TIP3    H122972   2.450   5.723   7.997 -0.3446 -1.2930  0.5685
  471TIP3    H222973   2.500   5.720   8.140  0.9991  0.4204  0.1756
  472TIP3   OH222974   5.158   2.656   1.655  0.0437 -0.1300 -0.1842
  472TIP3    H122975   5.078   2.634   1.703 -0.9605  0.1785 -1.6202
  472TIP3    H222976   5.221   2.680   1.722 -1.1849 -0.0292  0.9793
  473TIP3   OH222977   0.161   1.047   6.676  0.2049 -0.3989 -0.2624
  473TIP3    H122978   0.124   0.972   6.721 -1.3447  0.9410  0.8066
  473TIP3    H222979   0.126   1.042   6.587 -0.8687 -0.3266  0.1391
  474TIP3   OH222980   3.497   1.487   8.334 -0.1275  0.3098  0.4486
  474TIP3    H122981   3.547   1.527   8.262  1.6732 -0.1177  1.4083
  474TIP3    H222982   3.490   1.556   8.399 -3.0153  1.1682 -0.6218
  475TIP3   OH222983   4.041   6.550   8.380 -0.3911  0.0273 -0.0482
  475TIP3    H122984   4.042   6.595   8.295 -1.3516 -2.0917 -1.2545
  475TIP3    H222985   3.960   6.499   8.379  1.2146 -2.7477  0.6462
  476TIP3   OH222986   6.019   1.630   8.400  0.1586 -0.3209 -0.2214
  476TIP3    H122987   6.052   1.549   8.361 -0.2664 -2.0272  2.7001
  476TIP3    H222988   5.926   1.614   8.414  0.5795 -0.5988  3.0129
  477TIP3   OH222989   0.703   5.338   8.678  0.4708 -0.2439 -0.2105
  477TIP3    H122990   0.629   5.399   8.686 -0.8075 -1.8916  1.4566
  477TIP3    H222991   0.777   5.385   8.715 -0.4431  0.3830  0.8894
  478TIP3   OH222992   6.331   0.207   6.783 -0.4126  0.8037 -0.4075
  478TIP3    H122993   6.269   0.154   6.732 -0.4428  0.2693  0.1833
  478TIP3    H222994   6.408   0.213   6.727 -0.1759 -0.3851 -0.2344
  479TIP3   OH222995   6.411   0.142   0.293 -0.1634  0.4685 -0.1073
  479TIP3    H122996   6.426   0.234   0.312 -0.4448  0.4796  0.0658
  479TIP3    H222997   6.316   0.132   0.296 -0.1086  0.0537  0.4477
  480TIP3   OH222998   5.512   0.786   8.070  0.4995  0.1932  0.0170
  480TIP3    H122999   5.428   0.741   8.059  0.5423  0.0069  0.4193
  480TIP3    H223000   5.572   0.717   8.099  0.8053  0.3162 -0.3149
  481TIP3   OH223001   0.472   2.644   7.460 -0.1767  0.3754 -0.2782
  481TIP3    H123002   0.395   2.587   7.461 -0.8188  1.0674 -2.8870
  481TIP3    H223003   0.449   2.717   7.516 -0.6938 -0.2725  0.3705
  482TIP3   OH223004   6.561   1.654   0.369  0.4962  0.2477  0.0137
  482TIP3    H123005   6.581   1.562   0.386 -1.5309 -0.3098 -0.3104
  482TIP3    H223006   6.556   1.694   0.456 -3.0994 -1.0566  0.5923
  483TIP3   OH223007   5.475   2.907   8.183 -0.3359  0.5516 -0.3464
  483TIP3    H123008   5.492   2.971   8.114 -1.0952 -1.3045 -2.3615
  483TIP3    H223009   5.412   2.846   8.145  0.3865 -1.4431  1.4429
  484TIP3   OH223010   1.375   3.357   6.406 -0.0409 -0.1682 -0.3056
  484TIP3    H123011   1.334   3.273   6.382  0.8030 -0.3412 -1.1941
  484TIP3    H223012   1.312   3.423   6.375 -0.9230 -0.4541  0.8005
  485TIP3   OH223013   0.403   5.155   0.959 -0.6425 -0.4039 -0.1794
  485TIP3    H123014   0.362   5.198   1.034  0.7505  0.1853  0.2899
  485TIP3    H223015   0.467   5.095   0.999  0.8476  0.6604 -0.8654
  486TIP3   OH223016   2.826   5.144   8.618  0.1499  0.7379  0.5162
  486TIP3    H123017   2.846   5.057   8.584 -0.8650  0.8995 -0.5625
  486TIP3    H223018   2.894   5.161   8.683  0.0653 -1.0478  1.1015
  487TIP3   OH223019   5.629   4.743   6.899 -0.1377  0.4066 -0.6477
  487TIP3    H123020   5.723   4.747   6.915 -0.1340  0.6088 -0.7222
  487TIP3    H223021   5.591   4.718   6.984  0.2094 -2.5115 -1.2217
  488TIP3   OH223022   0.732   4.141   7.673 -0.1138  0.6374  0.4443
  488TIP3    H123023   0.790   4.073   7.640 -0.1571 -0.2452  2.0918
  488TIP3    H223024   0.647   4.123   7.633 -0.0423 -0.0702  0.6123
  489TIP3   OH223025   0.884   2.877   6.766  0.3344 -0.0808 -0.0910
  489TIP3    H123026   0.889   2.972   6.774  0.4833 -0.2202  2.9904
  489TIP3    H223027   0.960   2.852   6.714 -0.2838  1.5221 -1.8370
  490TIP3   OH223028   4.898   5.135   0.925 -0.1892 -0.0483  0.1216
  490TIP3    H123029   4.878   5.070   0.858 -0.0659 -1.1012  1.0620
  490TIP3    H223030   4.986   5.166   0.903  0.0605 -0.7666  0.0800
  491TIP3   OH223031   6.237   0.759   8.515  0.2322 -0.6355 -0.3545
  491TIP3    H123032   6.327   0.775   8.487  0.6161 -1.6585  0.2071
  491TIP3    H223033   6.236   0.666   8.538 -0.7121 -0.4124  0.5868
  492TIP3   OH223034   6.321   5.087   0.792  0.0709  0.4981 -0.3280
  492TIP3    H123035   6.335   5.062   0.701  0.7941 -1.0160  0.1710
  492TIP3    H223036   6.384   5.157   0.808  0.9630 -0.2208 -0.6014
  493TIP3   OH223037   2.760   4.856   0.959 -0.4319  0.4009  0.0927
  493TIP3    H123038   2.730   4.941   0.930  1.0734  1.6473  1.9161
  493TIP3    H223039   2.851   4.870   0.986 -0.0112 -1.8675  0.1259
  494TIP3   OH223040   0.595   4.449   7.352  0.4775  0.6559 -0.6051
  494TIP3    H123041   0.583   4.500   7.272  0.6046  0.9946 -0.4137
  494TIP3    H223042   0.677   4.482   7.389  0.8407 -0.0630 -0.7504
  495TIP3   OH223043   2.301   1.280   1.427 -0.4685  0.2229 -0.0345
  495TIP3    H123044   2.361   1.283   1.353 -0.8253  0.4200 -0.3152
  495TIP3    H223045   2.237   1.349   1.409  0.2223  1.2239  1.1200
  496TIP3   OH223046   3.826   6.103   8.159 -0.2667 -0.0650  0.2250
  496TIP3    H123047   3.885   6.106   8.234  1.1963 -0.3943 -0.8718
  496TIP3    H223048   3.802   6.194   8.143  1.0041  0.2145 -0.1245
  497TIP3   OH223049   4.656   5.683   1.284 -0.2226  0.5078 -0.2845
  497TIP3    H123050   4.607   5.645   1.211 -1.5185 -1.3222  1.4107
  497TIP3    H223051   4.680   5.771   1.255 -1.1800  0.0503 -2.6501
  498TIP3   OH223052   3.988   0.027   7.168 -0.4003 -0.0745  0.0785
  498TIP3    H123053   4.016  -0.064   7.169 -0.9649 -0.2507 -0.1259
  498TIP3    H223054   3.955   0.043   7.257  0.6151  0.2277  0.4223
  499TIP3   OH223055   4.426   0.035   2.656  0.5374 -0.7128  0.3369
  499TIP3    H123056   4.416   0.077   2.571 -0.0577  0.2956  0.8922
  499TIP3    H223057   4.345  -0.014   2.669 -0.3626  0.9331  1.2738
  500TIP3   OH223058   3.618   1.281   0.436 -0.0663 -0.0918  0.5673
  500TIP3    H123059   3.542   1.333   0.409  0.0170 -0.4164 -0.3342
  500TIP3    H223060   3.679   1.346   0.472 -0.1962  0.3750 -0.0211
  501TIP3   OH223061   1.900   1.633   6.498  0.5704  0.0228 -0.2346
  501TIP3    H123062   1.839   1.664   6.431  0.2760 -1.0465 -0.4903
  501TIP3    H223063   1.953   1.567   6.453  1.7626  0.7596  0.0553
  502TIP3   OH223064   4.743   2.969   1.654  0.5599 -0.1136  0.4158
  502TIP3    H123065   4.689   2.904   1.609 -0.3290 -0.7140  2.2416
  502TIP3    H223066   4.831   2.955   1.620  0.2504 -1.7801  0.2287
  503TIP3   OH223067   1.251   0.303   7.618  0.4872 -0.0431 -0.7243
  503TIP3    H123068   1.262   0.237   7.550  0.5070  1.3611 -2.1159
  503TIP3    H223069   1.264   0.387   7.574  2.2618  0.8804  1.3271
  504TIP3   OH223070   4.944   3.557   1.736  0.6080  0.1005 -0.7456
  504TIP3    H123071   4.882   3.517   1.677 -1.8679  0.2759  1.5345
  504TIP3    H223072   4.897   3.565   1.819  3.1728  1.6992  0.7142
  505TIP3   OH223073   2.422   4.425   1.607 -0.0552  0.0499  0.4652
  505TIP3    H123074   2.339   4.393   1.572 -0.9715  1.5586  1.1600
  505TIP3    H223075   2.480   4.430   1.531 -1.6760  2.2910 -0.7542
  506TIP3   OH223076   2.301   5.614   8.491 -0.5208 -0.7938 -0.1596
  506TIP3    H123077   2.288   5.542   8.552 -0.3802 -0.5541  0.1553
  506TIP3    H223078   2.337   5.573   8.412  1.1224 -0.8640  0.5888
  507TIP3   OH223079   0.552   4.088   7.414  0.0663  0.0473 -0.1572
  507TIP3    H123080   0.551   4.178   7.382 -0.1296  0.2631  0.4318
  507TIP3    H223081   0.644   4.062   7.411  0.1870  0.4413  0.1391
  508TIP3   OH223082   2.207   1.193   8.013  0.4494 -0.2174 -0.4397
  508TIP3    H123083   2.129   1.147   7.980 -0.0824  0.2427  0.1572
  508TIP3    H223084   2.227   1.257   7.944 -0.9435  1.0634  0.2878
  509TIP3   OH223085   3.147   0.292   2.205 -0.9294 -0.4189  0.0844
  509TIP3    H123086   3.168   0.344   2.282  0.1547  0.1684 -0.5897
  509TIP3    H223087   3.157   0.201   2.233 -0.6058 -0.2086  0.6485
  510TIP3   OH223088   5.302   1.373   1.812  0.3319 -0.0033  0.0053
  510TIP3    H123089   5.377   1.429   1.828 -0.4062  0.9511  0.2578
  510TIP3    H223090   5.227   1.424   1.842 -0.3661 -1.1600  0.3072
  511TIP3   OH223091   6.309   2.863   2.206 -0.3222 -0.2151  0.1740
  511TIP3    H123092   6.281   2.774   2.228 -0.3019  0.0253  1.2389
  511TIP3    H223093   6.368   2.888   2.278 -1.2133  1.0723  0.4979
  512TIP3   OH223094   2.616   4.163   6.657 -0.0490 -0.6202 -0.3310
  512TIP3    H123095   2.548   4.097   6.665 -0.1117 -0.7809 -1.9042
  512TIP3    H223096   2.606   4.198   6.569  1.0848  0.2692 -0.1356
  513TIP3   OH223097   6.464   6.305   7.475  0.3505  0.1579  0.2994
  513TIP3    H123098   6.446   6.389   7.519  1.0518 -0.1332  1.1803
  513TIP3    H223099   6.402   6.244   7.514  0.7644 -0.0320  0.6675
  514TIP3   OH223100   1.696   0.358   0.078  0.7991  0.5754 -0.3114
  514TIP3    H123101   1.677   0.271   0.115  0.9392  0.4664 -0.4922
  514TIP3    H223102   1.746   0.339  -0.002  0.2517  0.7957 -0.7143
  515TIP3   OH223103   4.435   3.452   1.088 -0.0795  0.1088  0.7686
  515TIP3    H123104   4.514   3.406   1.114 -0.8132 -1.0339  1.0434
  515TIP3    H223105   4.411   3.414   1.004 -0.2283  0.6094  0.5773
  516TIP3   OH223106   1.129   5.138   0.058  0.3813 -0.2500  0.3254
  516TIP3    H123107   1.074   5.076   0.105  0.6253 -0.1868  0.6947
  516TIP3    H223108   1.158   5.200   0.125 -1.2236  1.2636 -0.3115
  517TIP3   OH223109   6.721   2.114   1.769  0.5548 -0.0388 -0.4758
  517TIP3    H123110   6.748   2.156   1.850  0.5696 -0.3133 -0.3374
  517TIP3    H223111   6.696   2.026   1.795  0.8873 -0.2391 -0.8195
  518TIP3   OH223112   0.314   4.693   1.954  0.2589 -0.1343  0.3317
  518TIP3    H123113   0.279   4.772   1.913  0.5609 -0.1669  0.0082
  518TIP3    H223114   0.409   4.702   1.946  0.3285 -0.0991  1.1057
  519TIP3   OH223115   1.257   0.633   7.791 -0.0943  0.6851 -0.2465
  519TIP3    H123116   1.298   0.593   7.715 -0.3905 -0.3498  0.1162
  519TIP3    H223117   1.175   0.586   7.802 -1.2027  2.4334 -0.6987
  520TIP3   OH223118   5.951   6.293   8.030  0.1606 -0.1102  0.2453
  520TIP3    H123119   5.857   6.306   8.020  0.3320  2.3178  1.1586
  520TIP3    H223120   5.959   6.238   8.109 -0.4792 -1.2480 -0.4529
  521TIP3   OH223121   5.103   3.062   0.169 -0.3624  0.1946 -0.0509
  521TIP3    H123122   5.144   2.987   0.125  2.0330 -0.3650  2.8259
  521TIP3    H223123   5.095   3.035   0.260  3.0296  4.1287  1.7654
  522TIP3   OH223124   6.607   6.462   7.198  0.3655 -0.2314 -0.4551
  522TIP3    H123125   6.627   6.452   7.104  0.3509  0.2265 -0.5057
  522TIP3    H223126   6.692   6.453   7.241  0.2783 -1.1862 -0.4476
  523TIP3   OH223127   1.677   6.494   7.002  0.0770  0.0762  0.4511
  523TIP3    H123128   1.689   6.433   6.929 -0.6504  1.4913 -0.9119
  523TIP3    H223129   1.760   6.493   7.049 -0.3349 -3.0374  1.4012
  524TIP3   OH223130   5.772   2.933   2.337 -0.4451  0.0594  1.0856
  524TIP3    H123131   5.678   2.914   2.340 -0.2088 -1.1862  1.1968
  524TIP3    H223132   5.781   2.995   2.265 -1.0637 -1.8390 -0.7406
  525TIP3   OH223133   6.645   4.212   6.691 -0.0644  0.3585  0.3621
  525TIP3    H123134   6.638   4.233   6.784 -0.6527  0.1019  0.3865
  525TIP3    H223135   6.691   4.286   6.652  0.1458  0.4875  0.8520
  526TIP3   OH223136   4.890   2.760   1.779 -0.2195  0.5194 -0.1421
  526TIP3    H123137   4.851   2.695   1.838 -0.3526  1.2344  0.5757
  526TIP3    H223138   4.845   2.842   1.800  0.8178  1.1061 -0.1521
  527TIP3   OH223139   4.135   0.756   8.387  0.2268 -0.2445  0.4348
  527TIP3    H123140   4.041   0.772   8.378  0.2111 -0.6541 -0.1288
  527TIP3    H223141   4.141   0.666   8.418  0.4460 -0.3270  0.1549
  528TIP3   OH223142   5.569   2.667   7.181  0.0295  0.0140 -0.4804
  528TIP3    H123143   5.661   2.661   7.158  0.6987 -3.7068  2.2680
  528TIP3    H223144   5.566   2.726   7.256  0.4545 -1.0672  0.4025
  529TIP3   OH223145   5.144   5.599   0.862 -0.0268  0.5911  0.0191
  529TIP3    H123146   5.135   5.627   0.771  0.3148 -1.3862 -0.6790
  529TIP3    H223147   5.055   5.583   0.892 -0.1109  0.7574 -0.1447
  530TIP3   OH223148   5.218   5.774   8.635 -0.0301 -0.1441  0.3209
  530TIP3    H123149   5.195   5.711   8.704  0.7679 -1.4640 -0.5627
  530TIP3    H223150   5.313   5.780   8.639 -0.0011  0.0224 -0.4309
  531TIP3   OH223151   4.119   4.678   0.405  0.1072  0.2493 -0.1799
  531TIP3    H123152   4.153   4.701   0.492 -1.2378  0.1210  0.4023
  531TIP3    H223153   4.166   4.736   0.345 -0.0554  1.4351  0.7977
  532TIP3   OH223154   3.040   5.226   0.075 -0.2556 -0.0588  0.7179
  532TIP3    H123155   3.101   5.244   0.004 -1.0754  0.0452  0.0269
  532TIP3    H223156   3.096   5.200   0.149  0.6983  1.3145  0.5091
  533TIP3   OH223157   4.200   6.029   8.504  0.0690 -0.3488  0.0616
  533TIP3    H123158   4.216   6.021   8.597 -2.3604 -1.8166  0.4524
  533TIP3    H223159   4.269   6.087   8.472  2.0134 -1.2072  2.4234
  534TIP3   OH223160   1.598   5.740   2.066 -0.0117  0.4903  0.2047
  534TIP3    H123161   1.688   5.709   2.068 -0.2206 -0.1296  0.3357
  534TIP3    H223162   1.598   5.812   2.004  0.7792  1.1644  0.9604
  535TIP3   OH223163   2.844   4.468   6.129  0.0257  0.2982 -0.6730
  535TIP3    H123164   2.882   4.552   6.156  0.5809  0.3733 -1.6207
  535TIP3    H223165   2.767   4.457   6.184  1.5424  0.0424  1.4899
  536TIP3   OH223166   5.351   4.738   7.826 -0.1511  0.1596 -0.4217
  536TIP3    H123167   5.271   4.724   7.878 -0.3905  1.5022 -0.3807
  536TIP3    H223168   5.337   4.823   7.784  1.9173  1.2302  0.8626
  537TIP3   OH223169   3.515   2.037   0.235  0.5745  0.6065  0.2999
  537TIP3    H123170   3.524   1.990   0.318  1.5291 -0.6273 -0.4675
  537TIP3    H223171   3.604   2.058   0.209  0.3708  0.0562 -0.9109
  538TIP3   OH223172   6.641   3.235   8.032  0.6923 -0.1728  0.4902
  538TIP3    H123173   6.655   3.155   8.082  0.3308  0.9350  2.4551
  538TIP3    H223174   6.677   3.304   8.087 -0.2078  1.1654 -0.5528
  539TIP3   OH223175   3.112   4.041   0.124  0.0165 -0.2545  0.1396
  539TIP3    H123176   3.138   4.124   0.084 -0.9812 -0.6696 -1.4206
  539TIP3    H223177   3.138   4.050   0.216  2.3360  0.7417 -0.5411
  540TIP3   OH223178   2.684   6.744   7.670  0.1292  0.5431 -0.0714
  540TIP3    H123179   2.663   6.816   7.610 -0.1428  0.0411 -0.5840
  540TIP3    H223180   2.758   6.776   7.721  2.0470  0.0622 -2.3615
  541TIP3   OH223181   3.153   0.082   8.500 -0.3484 -0.8969 -0.1227
  541TIP3    H123182   3.112  -0.004   8.499 -1.6663 -0.2943  0.0884
  541TIP3    H223183   3.127   0.123   8.418  0.0045 -0.5734 -0.0787
  542TIP3   OH223184   6.082   6.517   7.729  0.0646  0.5083  0.3303
  542TIP3    H123185   6.060   6.430   7.763  0.4776  0.2896  0.0406
  542TIP3    H223186   6.030   6.577   7.782  0.8827  0.1907  1.5397
  543TIP3   OH223187   2.150   3.441   0.514 -0.0187  0.2541 -0.5780
  543TIP3    H123188   2.089   3.496   0.563 -0.7151 -1.4502  0.5549
  543TIP3    H223189   2.235   3.459   0.554 -0.3471  0.0213  0.2440
  544TIP3   OH223190   1.407   3.886   8.384  0.1567  0.0710  0.1276
  544TIP3    H123191   1.479   3.941   8.356 -1.1412  1.6684 -0.2420
  544TIP3    H223192   1.447   3.818   8.437  1.8381  1.2927  0.4805
  545TIP3   OH223193   4.467   4.972   0.750  0.3600  0.0138 -0.0941
  545TIP3    H123194   4.523   4.897   0.730  0.5519  0.0954  0.1397
  545TIP3    H223195   4.427   4.950   0.835  1.9430  1.0493  0.9589
  546TIP3   OH223196   3.219   6.548   8.051  1.0626 -0.4101  0.2111
  546TIP3    H123197   3.292   6.560   8.112 -0.3503  0.2243  1.8276
  546TIP3    H223198   3.147   6.597   8.089  0.1835  0.2920 -2.1476
  547TIP3   OH223199   0.245   4.768   1.098 -0.1418 -0.3556  0.0108
  547TIP3    H123200   0.208   4.852   1.126  0.1403 -0.0418 -0.5391
  547TIP3    H223201   0.339   4.779   1.108 -0.0571 -0.3543 -0.7181
  548TIP3   OH223202   5.976   1.336   6.286  0.1948 -0.2336  0.3927
  548TIP3    H123203   5.954   1.389   6.209  2.3266 -1.0924 -0.8832
  548TIP3    H223204   5.929   1.254   6.271 -0.0005 -0.1262  0.4062
  549TIP3   OH223205   4.493   5.909   0.601  0.3229  0.5860 -0.4615
  549TIP3    H123206   4.565   5.971   0.608  1.0434 -0.2997  0.3032
  549TIP3    H223207   4.445   5.918   0.683  0.6599 -0.1191 -0.1753
  550TIP3   OH223208   2.974   4.909   1.601  0.0176 -0.0643  0.1110
  550TIP3    H123209   2.927   4.857   1.535  1.1180  1.8290 -2.3322
  550TIP3    H223210   3.044   4.850   1.632 -0.1226 -0.7991 -0.9136
  551TIP3   OH223211   5.399   4.667   1.046  0.1884  0.4059  1.1036
  551TIP3    H123212   5.345   4.679   1.124 -0.2635 -2.5191  1.3392
  551TIP3    H223213   5.488   4.657   1.079  0.2453  0.8105  1.0814
  552TIP3   OH223214   1.334   6.629   7.129  0.2713  0.3963 -0.3476
  552TIP3    H123215   1.285   6.622   7.047  0.7627  0.3663 -0.6457
  552TIP3    H223216   1.423   6.649   7.101  0.0109  2.6154  0.2559
  553TIP3   OH223217   2.919   5.519   7.832 -0.1789  0.2230 -0.6252
  553TIP3    H123218   2.969   5.446   7.870  0.4998  1.1457  0.3332
  553TIP3    H223219   2.925   5.506   7.738 -1.6331 -1.9762 -0.5044
  554TIP3   OH223220   1.609   4.241   8.703 -0.7989 -0.4095  0.9794
  554TIP3    H123221   1.525   4.199   8.684 -0.9433 -0.8023  2.3594
  554TIP3    H223222   1.662   4.170   8.741  0.6090 -0.4893 -0.9912
  555TIP3   OH223223   2.630   6.139   6.936  0.0649  0.1056 -0.6574
  555TIP3    H123224   2.709   6.137   6.991  0.9064  0.9619 -1.7656
  555TIP3    H223225   2.627   6.053   6.894  0.8638  0.3161 -1.1779
  556TIP3   OH223226   2.646   1.752   0.999  0.9336  0.3358  0.1888
  556TIP3    H123227   2.597   1.672   1.018  0.3985  0.6965  0.3478
  556TIP3    H223228   2.708   1.760   1.072  0.0249  0.8191  0.9282
  557TIP3   OH223229   4.635   1.863   7.354 -0.5312 -0.0349  0.1280
  557TIP3    H123230   4.687   1.942   7.357  0.0508 -0.2702 -2.1503
  557TIP3    H223231   4.699   1.792   7.350 -1.0482 -0.6085  1.4401
  558TIP3   OH223232   5.150   0.493   0.819  0.0540  0.6716 -0.0823
  558TIP3    H123233   5.122   0.402   0.830 -1.7940  1.4344  2.1819
  558TIP3    H223234   5.132   0.512   0.727 -1.2098 -0.7529 -0.1735
  559TIP3   OH223235   0.577   6.796   7.181  0.4676 -0.3458 -0.1534
  559TIP3    H123236   0.505   6.838   7.134 -0.5628 -1.7004  0.1634
  559TIP3    H223237   0.638   6.769   7.113  1.3979  2.0052 -0.3412
  560TIP3   OH223238   3.650   5.047   0.930 -0.4988  0.0573  0.3013
  560TIP3    H123239   3.701   5.126   0.951  0.1094  0.2078 -1.5589
  560TIP3    H223240   3.563   5.080   0.909 -0.7762  0.0241  1.3630
  561TIP3   OH223241   6.510   4.538   1.050  0.0583  0.2891 -0.1480
  561TIP3    H123242   6.457   4.596   0.996 -0.9139 -2.2809 -2.1544
  561TIP3    H223243   6.601   4.558   1.026 -0.0521  2.6845  1.1481
  562TIP3   OH223244   4.371   3.041   1.923  0.0748 -0.1767 -0.0096
  562TIP3    H123245   4.280   3.060   1.947 -0.1520 -1.7002  0.4181
  562TIP3    H223246   4.422   3.075   1.996 -0.3383 -1.4116  0.8796
  563TIP3   OH223247   6.831   0.540   7.967 -0.4241 -0.3501  0.0652
  563TIP3    H123248   6.917   0.499   7.972  0.5029  1.3688 -0.8591
  563TIP3    H223249   6.846   0.631   7.993 -1.9636 -0.0185 -0.1245
  564TIP3   OH223250   4.671   2.710   7.347 -0.2793  0.2891 -0.1382
  564TIP3    H123251   4.596   2.758   7.312 -1.2330 -1.3666 -0.5082
  564TIP3    H223252   4.657   2.708   7.442  1.4201  3.3335  0.2769
  565TIP3   OH223253   2.941   6.220   6.451 -0.1710 -0.0011 -0.5399
  565TIP3    H123254   2.898   6.261   6.526  0.7785  1.1855 -0.6078
  565TIP3    H223255   3.007   6.162   6.490  0.8952  1.2389 -0.4064
  566TIP3   OH223256   0.724   6.214   2.369  0.8185  0.1309  0.6247
  566TIP3    H123257   0.677   6.183   2.446  0.3436 -0.6875  0.0182
  566TIP3    H223258   0.738   6.136   2.316 -0.0926  0.8823 -0.7779
  567TIP3   OH223259   0.328   4.909   7.991 -0.1552 -0.4061 -0.1205
  567TIP3    H123260   0.343   4.874   8.078  0.1061 -2.5448 -0.9657
  567TIP3    H223261   0.256   4.858   7.956 -1.4730  1.6227 -0.5561
  568TIP3   OH223262   3.135   5.058   2.395  0.3371 -0.0583 -0.3671
  568TIP3    H123263   3.041   5.042   2.388  0.1262  0.1666  1.5623
  568TIP3    H223264   3.145   5.114   2.472  2.1355 -0.8665  0.0557
  569TIP3   OH223265   6.154   0.656   1.436  0.0459  0.2466  0.0790
  569TIP3    H123266   6.109   0.636   1.355 -0.2653  0.1026  0.2858
  569TIP3    H223267   6.100   0.616   1.505  1.9708 -2.5194  0.1554
  570TIP3   OH223268   5.648   1.321   1.835 -0.3085  0.0149  0.6026
  570TIP3    H123269   5.743   1.310   1.825 -0.3985 -0.1556 -0.0682
  570TIP3    H223270   5.639   1.375   1.913  0.5044  3.1189 -1.2905
  571TIP3   OH223271   3.195   6.292   8.233 -0.3085 -0.3112  0.2595
  571TIP3    H123272   3.250   6.251   8.166  0.0216 -0.8364  0.8457
  571TIP3    H223273   3.124   6.230   8.248 -0.1407 -0.3943  0.7125
  572TIP3   OH223274   0.641   2.561   2.158 -0.0300 -0.0491 -0.6146
  572TIP3    H123275   0.655   2.550   2.064  0.8259 -0.1099 -0.4907
  572TIP3    H223276   0.692   2.639   2.180 -0.6416  0.2614 -0.2910
  573TIP3   OH223277   0.775   5.785   1.777 -0.1719  0.5145 -0.3504
  573TIP3    H123278   0.804   5.772   1.687 -1.5941 -2.3132 -0.4976
  573TIP3    H223279   0.756   5.697   1.810 -0.9104  1.5606  2.3007
  574TIP3   OH223280   6.845   5.967   7.640 -0.0663 -0.2190 -0.4896
  574TIP3    H123281   6.774   5.941   7.580  0.1813 -0.3040 -0.7501
  574TIP3    H223282   6.910   5.898   7.631 -0.7051 -1.0644  1.0653
  575TIP3   OH223283   3.618   5.479   7.946 -0.8211  0.1456  0.4647
  575TIP3    H123284   3.557   5.455   7.876  0.5730 -0.6263 -0.5316
  575TIP3    H223285   3.628   5.399   7.998  2.4619 -1.1657 -1.8284
  576TIP3   OH223286   4.054   2.774   7.280 -0.1912 -0.0499  0.1485
  576TIP3    H123287   3.981   2.758   7.221 -0.2074 -1.0130  0.4051
  576TIP3    H223288   4.130   2.782   7.222 -0.2761 -0.5281 -0.0363
  577TIP3   OH223289   2.671   4.108   8.498  0.0670 -0.2637 -0.3289
  577TIP3    H123290   2.591   4.057   8.512  0.0434 -0.2008 -0.2304
  577TIP3    H223291   2.692   4.094   8.406  1.0584 -1.8736  0.0962
  578TIP3   OH223292   3.013   2.934   7.407 -0.2658  0.2359 -0.0144
  578TIP3    H123293   3.033   3.003   7.470 -1.9043  1.4393 -0.7510
  578TIP3    H223294   3.082   2.941   7.341 -0.0844  0.7865  0.2323
  579TIP3   OH223295   5.684   2.129   8.165 -0.5519 -0.9421  0.0245
  579TIP3    H123296   5.644   2.042   8.166 -2.4750 -0.1770  2.9751
  579TIP3    H223297   5.629   2.181   8.224  1.8992  1.6475  0.2201
  580TIP3   OH223298   1.880   2.289   0.068 -0.0805 -0.2272  0.2758
  580TIP3    H123299   1.968   2.284   0.030 -0.3715 -1.2317 -0.3250
  580TIP3    H223300   1.869   2.205   0.112 -1.6331 -1.1955 -1.7777
  581TIP3   OH223301   0.263   0.169   7.854 -0.3434 -0.1400  0.0058
  581TIP3    H123302   0.325   0.212   7.794 -0.4435  1.1660  0.7916
  581TIP3    H223303   0.181   0.217   7.842 -0.2922  0.3347  1.3611
  582TIP3   OH223304   3.822   6.016   0.588 -0.1110 -0.1359  0.6121
  582TIP3    H123305   3.885   6.002   0.659 -0.4294  0.6566  1.0589
  582TIP3    H223306   3.744   6.051   0.632 -0.2159  0.6152 -0.1664
  583TIP3   OH223307   0.814   4.496   7.539  0.2528 -0.7654 -0.0454
  583TIP3    H123308   0.814   4.431   7.610 -0.5476 -1.1673 -0.3960
  583TIP3    H223309   0.848   4.576   7.580 -2.1246 -0.3797  1.4138
  584TIP3   OH223310   2.583   2.663   1.310 -0.7328  0.3889 -0.3767
  584TIP3    H123311   2.603   2.652   1.217 -2.0351 -0.9428 -0.5330
  584TIP3    H223312   2.665   2.642   1.355 -0.3689  0.0520 -1.1797
  585TIP3   OH223313   4.056   5.633   0.166 -0.5377 -0.1858  0.1062
  585TIP3    H123314   4.133   5.600   0.120 -1.0569 -1.5109  0.1273
  585TIP3    H223315   4.013   5.692   0.104  0.2158  0.1580 -0.0901
  586TIP3   OH223316   5.769   0.053   8.562 -0.0850  0.6142  0.5691
  586TIP3    H123317   5.717   0.001   8.623  0.3289  0.2990  0.6629
  586TIP3    H223318   5.804   0.124   8.615  0.1958  0.3945  0.6867
  587TIP3   OH223319   2.512   4.338   0.255  0.0129 -0.4030 -0.4229
  587TIP3    H123320   2.545   4.328   0.166 -0.3615  0.2458 -0.6425
  587TIP3    H223321   2.583   4.383   0.302 -0.3920  0.6398 -0.7936
  588TIP3   OH223322   5.922   4.693   8.217 -0.2947  0.4987 -0.9792
  588TIP3    H123323   5.872   4.750   8.158  1.0088  2.2445 -0.4901
  588TIP3    H223324   5.922   4.740   8.301 -0.3521 -0.9237 -0.1640
  589TIP3   OH223325   5.673   4.147   7.066  0.1089 -0.0707 -0.0638
  589TIP3    H123326   5.747   4.128   7.125 -1.8086 -1.2984  2.1202
  589TIP3    H223327   5.680   4.081   6.997  1.6042  0.4971 -0.5051
  590TIP3   OH223328   5.227   5.236   8.434 -0.1187  0.0628 -0.0766
  590TIP3    H123329   5.185   5.311   8.391 -1.9645 -0.2581  1.0629
  590TIP3    H223330   5.196   5.160   8.385  1.2583 -0.0380 -0.8413
  591TIP3   OH223331   6.574   2.074   7.624  0.6243  0.3635 -0.1741
  591TIP3    H123332   6.637   2.003   7.637 -0.4135 -0.5098  0.1676
  591TIP3    H223333   6.488   2.032   7.632 -0.0185  1.8357  1.1419
  592TIP3   OH223334   4.114   4.482   0.951  0.0625 -0.0670 -0.4539
  592TIP3    H123335   4.165   4.451   0.876  0.2408 -1.7194  0.2936
  592TIP3    H223336   4.037   4.425   0.954 -1.0485  1.3523 -0.6056
  593TIP3   OH223337   3.725   6.652   6.401 -0.6211 -0.0881  0.8912
  593TIP3    H123338   3.807   6.678   6.360 -0.2920  0.3082  1.7641
  593TIP3    H223339   3.673   6.613   6.331  1.1294 -2.2845  0.7206
  594TIP3   OH223340   5.561   3.728   1.422  0.4269  0.2568  0.3113
  594TIP3    H123341   5.480   3.716   1.473  0.8722 -2.0190  0.6111
  594TIP3    H223342   5.614   3.786   1.475 -0.2389  0.1723  1.1021
  595TIP3   OH223343   0.608   4.100   1.921  0.2435  0.0427 -0.3176
  595TIP3    H123344   0.695   4.066   1.901  0.2241  0.3971 -1.0465
  595TIP3    H223345   0.550   4.023   1.917  0.6067 -0.3253  0.8742
  596TIP3   OH223346   1.080   2.023   7.811 -0.1896  0.1688 -0.0987
  596TIP3    H123347   1.071   2.072   7.893 -1.2330 -0.0451 -0.0738
  596TIP3    H223348   0.993   2.027   7.771  0.5644  1.1917 -1.7332
  597TIP3   OH223349   5.554   1.264   6.948  0.0419 -0.4318  0.1515
  597TIP3    H123350   5.472   1.234   6.987  0.4081 -1.6938  0.0123
  597TIP3    H223351   5.529   1.298   6.862 -0.3091 -1.0743 -0.0054
  598TIP3   OH223352   2.644   4.428   6.469 -0.2569 -0.0077  0.1616
  598TIP3    H123353   2.553   4.441   6.495  0.0436  1.9036  0.3937
  598TIP3    H223354   2.639   4.377   6.388 -1.3946 -2.0975  1.4596
  599TIP3   OH223355   5.881   2.916   6.581  0.0316  0.0549 -0.3905
  599TIP3    H123356   5.944   2.976   6.541  0.2774  0.7175  0.9219
  599TIP3    H223357   5.802   2.969   6.592 -0.5102 -0.5376 -1.2763
  600TIP3   OH223358   6.002   5.960   0.098 -0.4795 -0.5850 -0.3447
  600TIP3    H123359   6.010   6.020   0.024 -0.9660 -1.9149 -1.5278
  600TIP3    H223360   5.931   5.996   0.150 -0.4241  0.1374 -0.7552
  601TIP3   OH223361   0.166   4.562   6.393  0.1357 -0.5180  0.1319
  601TIP3    H123362   0.085   4.525   6.359 -0.5232  0.8043  0.2029
  601TIP3    H223363   0.155   4.657   6.384  1.7506 -0.3133 -0.0369
  602TIP3   OH223364   1.749   3.781   6.839  0.0787 -0.0481  0.6410
  602TIP3    H123365   1.704   3.843   6.896 -2.3695  0.1181 -1.3158
  602TIP3    H223366   1.693   3.703   6.841  0.4277 -0.3592 -0.7916
  603TIP3   OH223367   2.682   6.491   1.599 -0.5695  0.4733  0.1626
  603TIP3    H123368   2.593   6.498   1.564 -0.4608 -0.1204 -0.2511
  603TIP3    H223369   2.671   6.449   1.685 -0.7812  1.3799  0.5880
  604TIP3   OH223370   6.810   1.588   7.176 -0.0868 -0.0067  0.3305
  604TIP3    H123371   6.758   1.612   7.099 -2.5361  0.8482  2.1573
  604TIP3    H223372   6.856   1.509   7.149 -0.5846  0.4440 -2.1154
  605TIP3   OH223373   0.179   4.610   7.611  0.3711 -0.4214 -0.0091
  605TIP3    H123374   0.155   4.569   7.694  0.2145 -1.6383 -0.6270
  605TIP3    H223375   0.221   4.540   7.561 -0.4170 -0.0001 -1.3251
  606TIP3   OH223376   0.447   5.964   7.895 -0.8350 -0.4159 -0.2016
  606TIP3    H123377   0.433   5.991   7.804  1.2024 -2.0031 -1.0624
  606TIP3    H223378   0.381   5.897   7.911  1.8230 -3.8308 -2.3275
  607TIP3   OH223379   1.361   2.959   6.108 -0.3412  0.3149  0.0703
  607TIP3    H123380   1.372   3.053   6.123  2.2889  0.1309 -0.0982
  607TIP3    H223381   1.451   2.927   6.094 -1.0742 -2.3417  0.8678
  608TIP3   OH223382   2.744   4.001   6.213  0.2998 -0.0603 -0.3954
  608TIP3    H123383   2.675   3.935   6.209  0.2010  0.0156  0.0526
  608TIP3    H223384   2.699   4.085   6.217  0.3516  0.3859 -4.6264
  609TIP3   OH223385   0.590   4.544   8.685 -0.0645 -0.5454 -0.3521
  609TIP3    H123386   0.636   4.520   8.604  1.7780  2.2729 -0.2758
  609TIP3    H223387   0.643   4.506   8.755  1.8731  1.9787 -0.3064
  610TIP3   OH223388   4.556   4.781   0.460  0.3132  0.5252  0.3094
  610TIP3    H123389   4.587   4.711   0.403 -0.0505  2.2283 -2.1114
  610TIP3    H223390   4.560   4.860   0.406 -1.7253  1.9548  2.0866
  611TIP3   OH223391   3.209   4.877   1.813  0.2897  0.0981  0.0337
  611TIP3    H123392   3.220   4.876   1.908 -0.2271  1.0139  0.1184
  611TIP3    H223393   3.290   4.916   1.779  0.7837 -0.9015  0.0350
  612TIP3   OH223394   4.702   2.555   6.898 -0.1354  0.1530  0.5801
  612TIP3    H123395   4.657   2.590   6.821 -1.2762 -1.4674  0.4877
  612TIP3    H223396   4.781   2.513   6.862 -0.0281  0.4676  0.4397
  613TIP3   OH223397   1.340   6.023   1.819  0.2783  0.4485  0.1268
  613TIP3    H123398   1.418   6.009   1.873 -0.1226 -1.7959  0.2592
  613TIP3    H223399   1.290   6.090   1.865  0.6696 -0.3288  1.7829
  614TIP3   OH223400   2.099   0.910   0.651  0.7520  0.0565  0.1997
  614TIP3    H123401   2.006   0.897   0.635  0.8935 -1.4217  0.3705
  614TIP3    H223402   2.127   0.828   0.693  1.8834  0.9392  1.2338
  615TIP3   OH223403   0.357   3.217   7.170  0.1810  0.2453 -0.3014
  615TIP3    H123404   0.390   3.263   7.247 -1.2066 -0.4846  0.7762
  615TIP3    H223405   0.275   3.261   7.148  0.4405  0.2931 -1.2327
  616TIP3   OH223406   1.205   4.809   1.097 -0.0705  0.0046 -0.2187
  616TIP3    H123407   1.299   4.818   1.111  0.2953  0.5096 -2.5876
  616TIP3    H223408   1.187   4.860   1.019 -1.9392 -1.7471 -1.0371
  617TIP3   OH223409   3.084   6.176   8.559 -0.0133  0.5326  0.5597
  617TIP3    H123410   3.103   6.152   8.649  2.4274 -0.8726 -0.2539
  617TIP3    H223411   3.132   6.113   8.506 -1.4228  1.2714 -1.7596
  618TIP3   OH223412   3.731   3.680   7.825  0.4795 -0.0114 -0.2686
  618TIP3    H123413   3.761   3.634   7.903  1.3725  0.0484 -0.5629
  618TIP3    H223414   3.790   3.651   7.756 -0.9983 -0.9602 -1.2001
  619TIP3   OH223415   0.591   1.541   2.176  0.1843 -0.3861  0.4235
  619TIP3    H123416   0.513   1.530   2.230 -0.7857  0.9213 -0.6271
  619TIP3    H223417   0.650   1.595   2.230  0.6925 -1.9205  1.4807
  620TIP3   OH223418   2.429   3.384   0.545  0.0430 -0.2633  0.1087
  620TIP3    H123419   2.506   3.413   0.496 -1.1839  0.3078 -1.5958
  620TIP3    H223420   2.433   3.289   0.542  0.9439 -0.2480  0.5061
  621TIP3   OH223421   4.892   3.971   1.806 -0.2198 -0.0380  0.7452
  621TIP3    H123422   4.975   3.923   1.808  0.3749  0.7783 -1.3107
  621TIP3    H223423   4.829   3.913   1.849  1.1976 -1.0942  1.4938
  622TIP3   OH223424   6.818   5.505   7.546 -0.5069 -0.2885 -0.5355
  622TIP3    H123425   6.898   5.516   7.596 -0.6204 -0.1014 -0.3922
  622TIP3    H223426   6.772   5.433   7.588 -1.6356  1.2581  1.0096
  623TIP3   OH223427   4.460   4.583   1.906 -0.5077 -0.1870  0.2488
  623TIP3    H123428   4.498   4.591   1.993  0.9173 -1.1076 -0.2345
  623TIP3    H223429   4.503   4.652   1.855 -0.5503 -0.3115  0.0433
  624TIP3   OH223430   6.690   0.058   0.202  0.1512  0.3913 -0.4889
  624TIP3    H123431   6.608   0.102   0.183  0.1544  0.7832  0.3218
  624TIP3    H223432   6.716   0.016   0.120 -1.0519 -0.0661 -0.6457
  625TIP3   OH223433   4.499   1.026   8.135  0.1954 -0.1990  0.2826
  625TIP3    H123434   4.572   0.980   8.175  1.4656  0.8898 -0.7033
  625TIP3    H223435   4.423   1.001   8.188  1.5757  0.1829  2.5695
  626TIP3   OH223436   3.140   5.871   7.184 -0.1631  0.0100  0.0749
  626TIP3    H123437   3.065   5.914   7.225  0.1537  0.8344 -0.1927
  626TIP3    H223438   3.110   5.848   7.096 -0.0429  0.5168 -0.1002
  627TIP3   OH223439   1.995   5.376   8.107 -0.1367  0.1168 -0.9158
  627TIP3    H123440   1.951   5.308   8.055 -0.2691  0.3925 -1.1683
  627TIP3    H223441   2.045   5.426   8.043 -0.1145  0.3136 -0.7447
  628TIP3   OH223442   0.033   5.944   2.011  0.1539  0.2924 -0.0181
  628TIP3    H123443   0.039   5.877   2.079  0.8685  1.0081  0.6536
  628TIP3    H223444   0.122   5.953   1.978 -0.6019 -2.1205 -3.1867
  629TIP3   OH223445   3.784   1.248   7.864  0.0660 -0.4634  0.7242
  629TIP3    H123446   3.714   1.222   7.924 -0.6990 -2.3039 -0.8361
  629TIP3    H223447   3.861   1.261   7.920 -1.5046  1.8436  2.5260
  630TIP3   OH223448   6.786   3.591   6.945  0.1046 -0.1877  0.2740
  630TIP3    H123449   6.869   3.583   6.897  1.0179 -0.5320  1.8468
  630TIP3    H223450   6.754   3.678   6.923  2.1835  0.9858  1.5840
  631TIP3   OH223451   1.490   3.747   7.217  0.3320 -0.2773  0.1411
  631TIP3    H123452   1.426   3.697   7.268  0.4877  0.4163  1.0473
  631TIP3    H223453   1.561   3.685   7.201  0.0166 -0.6726  0.2602
  632TIP3   OH223454   1.093   4.640   7.458  0.3290 -0.2137 -0.0507
  632TIP3    H123455   1.120   4.617   7.369  1.9335  0.5931  0.1851
  632TIP3    H223456   1.019   4.700   7.446 -0.9049 -1.7976 -0.7509
  633TIP3   OH223457   4.921   4.985   1.235  0.5814  0.0697 -0.1747
  633TIP3    H123458   4.964   4.983   1.321 -0.3217 -0.6410  0.2790
  633TIP3    H223459   4.910   4.893   1.211  1.3014  0.2589 -1.3194
  634TIP3   OH223460   2.911   2.080   7.725  0.0323 -0.0495 -0.2195
  634TIP3    H123461   2.935   2.061   7.815  1.3010  0.0948 -0.5088
  634TIP3    H223462   2.831   2.029   7.710 -1.3165  1.4379  1.5569
  635TIP3   OH223463   6.729   4.642   1.359  0.1040 -0.5311 -0.0706
  635TIP3    H123464   6.786   4.575   1.320  0.3722  0.3499 -1.2524
  635TIP3    H223465   6.645   4.632   1.313  0.5825  0.8663 -1.3261
  636TIP3   OH223466   5.018   5.789   7.432  0.0047 -0.1472 -0.2108
  636TIP3    H123467   5.088   5.849   7.457 -0.6304  0.9248 -0.9233
  636TIP3    H223468   5.046   5.752   7.349  0.3683 -0.8047  0.1984
  637TIP3   OH223469   5.019   5.888   7.849 -0.1306 -0.0173 -0.2003
  637TIP3    H123470   5.057   5.845   7.926 -0.7069 -0.6336 -0.2547
  637TIP3    H223471   4.950   5.828   7.820  0.4302 -0.0436 -1.5111
  638TIP3   OH223472   1.208   3.076   7.696  0.1046 -0.6181 -0.5810
  638TIP3    H123473   1.225   3.000   7.640  1.0990  0.5248 -1.8912
  638TIP3    H223474   1.172   3.142   7.638 -0.1723  0.1404  0.4223
  639TIP3   OH223475   2.079   1.564   7.368 -0.1280  0.4001  0.0131
  639TIP3    H123476   2.046   1.475   7.386 -1.5066  0.7341 -0.7415
  639TIP3    H223477   2.000   1.617   7.361  0.7011  1.8825  1.3050
  640TIP3   OH223478   5.184   4.509   1.488 -0.2145 -0.2255 -0.8016
  640TIP3    H123479   5.106   4.453   1.493 -0.6580  0.4402  0.0889
  640TIP3    H223480   5.200   4.536   1.578  1.2277 -0.5599 -0.9353
  641TIP3   OH223481   3.628   3.162   8.256 -0.0687  0.0387 -0.7228
  641TIP3    H123482   3.707   3.135   8.303 -0.3608 -2.2413 -1.4012
  641TIP3    H223483   3.660   3.186   8.169 -0.0068  0.1261 -0.6759
  642TIP3   OH223484   1.576   4.544   1.446  0.3514 -0.3395 -0.0710
  642TIP3    H123485   1.629   4.624   1.447  1.4575 -1.0496  0.1806
  642TIP3    H223486   1.562   4.526   1.353  1.6867 -0.8519 -0.1912
  643TIP3   OH223487   3.634   0.855   7.342  0.0812  0.3925  0.6955
  643TIP3    H123488   3.604   0.853   7.433 -0.0889  1.0932  0.6585
  643TIP3    H223489   3.730   0.852   7.349  0.0759 -3.0435  0.7781
  644TIP3   OH223490   0.466   2.863   0.447 -0.0548  0.0345  0.4791
  644TIP3    H123491   0.437   2.781   0.487  1.5286 -0.7345  0.1676
  644TIP3    H223492   0.521   2.904   0.514  1.1388 -0.3769 -0.2165
  645TIP3   OH223493   6.714   6.005   0.097 -0.2589 -0.9430  0.1290
  645TIP3    H123494   6.694   5.916   0.127 -2.7559 -0.6766 -0.5694
  645TIP3    H223495   6.687   6.062   0.169 -1.3276 -0.6158 -0.5071
  646TIP3   OH223496   1.920   6.589   8.070  0.0225  0.2063 -0.1797
  646TIP3    H123497   1.864   6.515   8.047  0.5570 -0.0902 -0.5678
  646TIP3    H223498   1.951   6.622   7.986 -2.7807  2.9789 -0.2729
  647TIP3   OH223499   5.633   4.230   8.419  0.2849  0.0095 -0.1689
  647TIP3    H123500   5.557   4.247   8.364  1.0864 -1.0154 -1.6950
  647TIP3    H223501   5.597   4.213   8.506 -0.9845  2.3073 -0.1726
  648TIP3   OH223502   1.583   1.703   5.914  0.5146 -0.7658  0.4227
  648TIP3    H123503   1.587   1.749   5.998 -0.0998 -1.2997  0.7487
  648TIP3    H223504   1.670   1.664   5.904  0.7330 -0.3310  0.5981
  649TIP3   OH223505   3.262   5.287   8.143 -0.7165 -0.6121 -0.0398
  649TIP3    H123506   3.322   5.265   8.214 -1.9510 -0.3158  1.1579
  649TIP3    H223507   3.272   5.217   8.079  1.6914  0.0187 -0.4360
  650TIP3   OH223508   1.726   2.389   6.509  0.2022  0.2549  0.4257
  650TIP3    H123509   1.811   2.431   6.491  0.1140 -0.0988 -0.9236
  650TIP3    H223510   1.693   2.365   6.423 -0.6481 -0.8505  1.0437
  651TIP3   OH223511   0.837   3.092   0.520  0.2316 -0.3459 -0.0442
  651TIP3    H123512   0.899   3.027   0.487  1.3376  0.9587 -0.6774
  651TIP3    H223513   0.816   3.147   0.444  0.7899  1.1325  0.8194
  652TIP3   OH223514   5.521   1.911   8.144  0.9572  0.3995 -0.1749
  652TIP3    H123515   5.426   1.920   8.146  1.0774  3.8611 -1.8057
  652TIP3    H223516   5.538   1.854   8.070  0.1576  0.1046 -0.1414
  653TIP3   OH223517   1.480   1.112   0.633  0.5049  0.4335 -0.6452
  653TIP3    H123518   1.469   1.066   0.717  0.0970 -1.1030 -1.4947
  653TIP3    H223519   1.506   1.201   0.658 -3.0973  1.1697  1.2515
  654TIP3   OH223520   2.998   0.593   0.933 -0.1259  0.1676  0.2255
  654TIP3    H123521   3.085   0.576   0.972 -0.2479  1.0483  0.9113
  654TIP3    H223522   2.979   0.513   0.884  0.0453 -1.0372  1.9909
  655TIP3   OH223523   2.563   4.049   1.105 -0.4130  0.1918 -0.0638
  655TIP3    H123524   2.611   4.109   1.162 -1.0647  0.6555 -0.0038
  655TIP3    H223525   2.471   4.061   1.129 -0.8253  1.2305 -1.9835
  656TIP3   OH223526   4.434   1.590   7.974  0.2588  0.0438 -0.2072
  656TIP3    H123527   4.444   1.541   8.055  1.7674  0.5607 -0.0568
  656TIP3    H223528   4.508   1.650   7.972  1.1474 -0.9918 -2.6836
  657TIP3   OH223529   3.965   2.086   1.366  0.1901  0.8141  0.1144
  657TIP3    H123530   3.929   2.043   1.444 -1.4338  1.4243 -0.2514
  657TIP3    H223531   4.039   2.031   1.340  0.0422 -0.0413  1.4009
  658TIP3   OH223532   1.982   5.901   0.328  0.3333  0.1731  0.1871
  658TIP3    H123533   2.055   5.956   0.359 -0.0410  0.4761  0.5345
  658TIP3    H223534   2.009   5.874   0.240 -0.5805  3.0336 -1.0868
  659TIP3   OH223535   4.964   5.768   1.687 -0.4725 -0.1133 -0.1955
  659TIP3    H123536   4.945   5.707   1.616 -0.7363 -2.8466  2.0665
  659TIP3    H223537   5.059   5.763   1.699 -0.6792 -1.5725  1.1520
  660TIP3   OH223538   0.337   1.522   8.060 -0.1689  0.7880  0.1281
  660TIP3    H123539   0.339   1.453   7.993 -0.2275  0.1342  0.7885
  660TIP3    H223540   0.366   1.601   8.014 -0.2492  0.3586 -0.6786
  661TIP3   OH223541   0.324   6.028   8.430  0.0886 -0.1570  0.8741
  661TIP3    H123542   0.273   6.065   8.358 -0.0891 -0.0034  1.0800
  661TIP3    H223543   0.270   5.958   8.465 -0.1499  0.2441  1.3305
  662TIP3   OH223544   5.289   0.294   1.724 -0.2112  0.1881 -0.1690
  662TIP3    H123545   5.291   0.310   1.818  1.8190  3.3108 -0.5703
  662TIP3    H223546   5.370   0.246   1.706 -0.3468  0.0325 -0.3725
  663TIP3   OH223547   0.887   0.512   1.998 -0.4168  0.2560  0.5553
  663TIP3    H123548   0.937   0.505   2.080 -0.9838  0.3528  0.9170
  663TIP3    H223549   0.875   0.606   1.985 -1.6984  0.2155  1.2273
  664TIP3   OH223550   4.187   2.396   1.363 -0.1273  0.5094  0.2103
  664TIP3    H123551   4.212   2.335   1.433  0.4495  1.5720  0.9722
  664TIP3    H223552   4.095   2.378   1.347  0.5047 -2.0913 -1.1914
  665TIP3   OH223553   4.107   1.389   1.373  0.4474  0.0062 -0.0826
  665TIP3    H123554   4.170   1.435   1.317 -0.3336 -0.7024 -1.6144
  665TIP3    H223555   4.022   1.408   1.334  0.0361 -2.1262 -0.3641
  666TIP3   OH223556   0.883   2.185   1.421  0.0349  0.4529  0.3634
  666TIP3    H123557   0.819   2.115   1.413  1.3829 -0.6114 -3.1383
  666TIP3    H223558   0.955   2.146   1.471 -0.1945  0.1164  0.4325
  667TIP3   OH223559   1.482   0.963   0.871  0.1307 -0.0344 -0.4146
  667TIP3    H123560   1.533   1.001   0.943 -0.1550 -1.5474  0.6293
  667TIP3    H223561   1.434   0.890   0.911 -1.9634  0.6038 -1.6226
  668TIP3   OH223562   2.128   3.841   1.422  0.4139 -0.0050  0.3759
  668TIP3    H123563   2.133   3.828   1.327  2.2894  0.7665  0.3357
  668TIP3    H223564   2.111   3.754   1.457  1.6377 -0.6450 -0.5561
  669TIP3   OH223565   5.168   2.249   1.436 -0.0030  0.3065  0.2140
  669TIP3    H123566   5.241   2.189   1.452  2.4309  2.5477 -1.6552
  669TIP3    H223567   5.207   2.336   1.437 -2.9767  1.7616  0.6306
  670TIP3   OH223568   4.629   1.977   2.230  0.3112 -0.4733  0.1779
  670TIP3    H123569   4.643   2.009   2.320 -0.5337 -1.2724  0.6081
  670TIP3    H223570   4.535   1.989   2.215  0.4628 -0.2672 -0.6375
  671TIP3   OH223571   1.922   0.493   1.003 -0.0009 -0.2664  0.1839
  671TIP3    H123572   1.921   0.586   1.026  1.9853 -0.0828 -0.2576
  671TIP3    H223573   1.851   0.482   0.940  0.2558  1.1382 -0.3773
  672TIP3   OH223574   5.234   1.150   8.339  0.0777  0.0797  0.2916
  672TIP3    H123575   5.312   1.108   8.302  0.1535  0.9975 -0.6292
  672TIP3    H223576   5.164   1.086   8.327  0.1950  0.1779 -1.0736
  673TIP3   OH223577   6.502   6.203   8.147 -0.4773  0.0116  0.4916
  673TIP3    H123578   6.526   6.115   8.177 -1.5745  0.1237  1.8143
  673TIP3    H223579   6.455   6.188   8.065  2.9890 -0.2769 -1.6412
  674TIP3   OH223580   0.387   5.705   6.610  0.0549 -0.0609  0.3602
  674TIP3    H123581   0.349   5.629   6.655  1.5380 -0.9901  0.1142
  674TIP3    H223582   0.440   5.667   6.540 -1.2239  1.3111 -1.4539
  675TIP3   OH223583   6.807   6.626   0.102 -0.4080  0.3059  0.3461
  675TIP3    H123584   6.897   6.654   0.122 -0.3938  0.1389  0.5182
  675TIP3    H223585   6.816   6.540   0.062 -0.4086  0.8447 -0.8434
  676TIP3   OH223586   2.767   5.910   0.758  0.1773  0.0806  0.4803
  676TIP3    H123587   2.827   5.836   0.747  0.3431  0.4747 -1.9138
  676TIP3    H223588   2.740   5.906   0.849  1.8593 -1.6369  0.9705
  677TIP3   OH223589   4.830   4.987   1.981  0.4464  0.7753 -0.7301
  677TIP3    H123590   4.822   4.945   2.066 -1.7418  1.1160 -0.7273
  677TIP3    H223591   4.879   5.067   1.999  1.7334 -0.1032 -0.1715
  678TIP3   OH223592   5.055   4.507   0.673  0.2858  0.1678 -0.3634
  678TIP3    H123593   5.084   4.466   0.755  0.5842 -0.7945 -0.9471
  678TIP3    H223594   4.959   4.504   0.677  0.1813 -3.8409 -1.9363
  679TIP3   OH223595   5.404   0.271   7.045 -0.0383 -0.7119  0.2448
  679TIP3    H123596   5.331   0.259   6.984 -0.6452  0.9012  0.6059
  679TIP3    H223597   5.368   0.245   7.130  0.3381 -1.5074  0.1683
  680TIP3   OH223598   1.316   2.993   1.257  0.2056 -0.1413  0.0286
  680TIP3    H123599   1.387   3.055   1.273 -0.3222  1.2865 -2.4864
  680TIP3    H223600   1.341   2.948   1.176 -1.8927  0.7505 -1.2182
  681TIP3   OH223601   0.766   4.854   1.308  0.5057  0.2257 -0.4206
  681TIP3    H123602   0.792   4.762   1.319 -0.8866 -0.3034 -1.3388
  681TIP3    H223603   0.821   4.886   1.237  2.5862  0.8114  1.3327
  682TIP3   OH223604   0.254   3.461   8.172 -0.0768  0.0368  0.4043
  682TIP3    H123605   0.191   3.423   8.111 -0.0742 -0.2227  0.5627
  682TIP3    H223606   0.210   3.457   8.257 -0.2230  0.7216  0.3650
  683TIP3   OH223607   1.885   2.553   0.986  0.1634 -0.7674 -0.5464
  683TIP3    H123608   1.907   2.630   1.037  0.4441 -1.8108  0.9619
  683TIP3    H223609   1.900   2.579   0.895  3.7152 -0.1317  0.0934
  684TIP3   OH223610   6.307   3.286   8.400  0.1567 -0.7791  0.0507
  684TIP3    H123611   6.219   3.254   8.381  0.5692 -2.0732  0.2120
  684TIP3    H223612   6.362   3.246   8.332  0.7067 -0.4479  0.2932
  685TIP3   OH223613   5.680   0.483   6.770 -0.5993 -0.7998 -0.0827
  685TIP3    H123614   5.751   0.541   6.797 -1.0000  0.4611 -1.5959
  685TIP3    H223615   5.605   0.511   6.823 -0.6844 -0.1698 -0.5159
  686TIP3   OH223616   2.539   6.720   7.345  0.4814 -0.4139 -0.1642
  686TIP3    H123617   2.570   6.637   7.307  0.4997 -0.9817  1.0535
  686TIP3    H223618   2.619   6.766   7.370  0.4372 -0.5408  0.2128
  687TIP3   OH223619   2.342   5.560   6.797 -0.0718 -0.0720 -0.5848
  687TIP3    H123620   2.430   5.523   6.791 -0.0239  0.2862 -4.6427
  687TIP3    H223621   2.314   5.540   6.886  2.6471 -3.5367 -0.2842
  688TIP3   OH223622   6.644   1.926   1.483  0.3870  0.0343 -0.2483
  688TIP3    H123623   6.632   1.888   1.570 -0.2815  3.6910  1.4409
  688TIP3    H223624   6.617   2.017   1.493  3.2469  1.4513 -3.5246
  689TIP3   OH223625   1.408   5.294   0.991  0.6296  0.1580 -0.4588
  689TIP3    H123626   1.369   5.343   1.063 -0.5465  0.3452 -1.2005
  689TIP3    H223627   1.500   5.321   0.990  0.2008  1.6815 -0.3085
  690TIP3   OH223628   6.530   1.596   1.344 -0.0976  0.1136  0.0063
  690TIP3    H123629   6.527   1.678   1.295 -0.8034  0.3374  0.4124
  690TIP3    H223630   6.439   1.576   1.365 -0.0237 -1.1866 -0.7416
  691TIP3   OH223631   5.140   6.219   0.379  0.0551 -0.2179 -0.5936
  691TIP3    H123632   5.071   6.162   0.414 -0.6179  1.6680  1.4368
  691TIP3    H223633   5.219   6.190   0.424  0.2385 -1.1929 -1.5251
  692TIP3   OH223634   4.946   2.744   7.284 -0.6528  0.2528 -0.0711
  692TIP3    H123635   4.974   2.685   7.354  1.1575 -0.5918 -1.4115
  692TIP3    H223636   4.850   2.741   7.287 -0.6442  0.4935  2.5152
  693TIP3   OH223637   5.126   3.971   8.241  0.4292  0.5339  0.3436
  693TIP3    H123638   5.211   3.981   8.200 -0.4903  1.0471 -1.5645
  693TIP3    H223639   5.080   3.906   8.187 -1.2229  2.0371 -0.1644
  694TIP3   OH223640   4.041   6.315   0.510  0.2766  0.5740 -0.0273
  694TIP3    H123641   4.072   6.227   0.529  0.9431  0.7542 -0.2470
  694TIP3    H223642   4.091   6.371   0.569 -0.1440  0.8086  0.1107
  695TIP3   OH223643   3.771   5.686   1.409 -0.1859 -0.5773  0.1902
  695TIP3    H123644   3.780   5.725   1.322  2.8598  1.3761  1.2140
  695TIP3    H223645   3.737   5.756   1.463 -1.2104 -1.5088  0.7776
  696TIP3   OH223646   4.453   3.112   0.210 -0.0828  0.7280  0.3268
  696TIP3    H123647   4.443   3.097   0.304 -0.2251 -0.9238  0.0772
  696TIP3    H223648   4.368   3.087   0.173  0.7285 -0.9109 -0.4711
  697TIP3   OH223649   3.944   3.127   2.313  0.2761  0.3482  0.2525
  697TIP3    H123650   4.033   3.104   2.286 -0.2092 -1.7234  0.2230
  697TIP3    H223651   3.897   3.044   2.311 -1.4212  1.2409  1.2248
  698TIP3   OH223652   6.695   4.855   6.198  0.1383  0.0533  0.2396
  698TIP3    H123653   6.687   4.771   6.153 -0.2126 -0.3896  1.0992
  698TIP3    H223654   6.787   4.859   6.224  0.0885 -0.2205  0.4717
  699TIP3   OH223655   5.686   0.930   6.424  0.0932  0.6272 -0.2501
  699TIP3    H123656   5.697   1.020   6.454 -2.2349  1.3063 -1.2587
  699TIP3    H223657   5.634   0.937   6.344 -3.6308 -1.7451  1.6733
  700TIP3   OH223658   2.050   1.625   1.607  0.1155 -0.5217 -0.3508
  700TIP3    H123659   1.982   1.688   1.629 -0.4078 -1.3518  0.4447
  700TIP3    H223660   2.071   1.582   1.689  2.1239  0.1858 -0.4351
  701TIP3   OH223661   3.368   2.231   6.917 -0.6367  0.1904 -0.4002
  701TIP3    H123662   3.419   2.164   6.871  0.4673 -0.1980  1.3197
  701TIP3    H223663   3.336   2.186   6.995 -1.3222  1.2162 -0.0792
  702TIP3   OH223664   3.354   6.304   8.576 -0.1688 -0.3222 -0.6329
  702TIP3    H123665   3.334   6.396   8.557  0.4166  0.1013  0.7183
  702TIP3    H223666   3.270   6.259   8.568 -0.3144  0.1534 -2.1668
  703TIP3   OH223667   3.510   1.983   7.565  0.2076  0.3141 -0.9652
  703TIP3    H123668   3.510   2.048   7.495  0.0992  2.4641  0.9257
  703TIP3    H223669   3.555   2.025   7.638 -0.6606 -1.3884  0.6571
  704TIP3   OH223670   4.063   1.757   7.111  0.1334 -0.0401 -0.0181
  704TIP3    H123671   4.015   1.786   7.033  0.2709  0.4460  0.0738
  704TIP3    H223672   3.996   1.755   7.180  0.5716  2.6234  0.6073
  705TIP3   OH223673   2.469   0.969   0.440 -0.4036 -0.0584 -0.2335
  705TIP3    H123674   2.441   0.949   0.530  1.2171  0.1944  0.3674
  705TIP3    H223675   2.534   0.902   0.420 -1.6400 -0.8773 -1.7363
  706TIP3   OH223676   4.982   0.946   1.800  0.4962  0.3483 -0.1013
  706TIP3    H123677   4.916   1.013   1.817  0.2318 -0.1606  1.0303
  706TIP3    H223678   4.938   0.884   1.741  0.6432  0.9994 -0.9125
  707TIP3   OH223679   2.325   6.266   8.349  0.8841 -0.0932 -0.1646
  707TIP3    H123680   2.246   6.277   8.400 -0.4210  1.2750 -2.3215
  707TIP3    H223681   2.390   6.321   8.393  0.5255 -0.8142  1.3209
  708TIP3   OH223682   0.311   2.135   8.679 -0.5998 -0.1670 -0.6536
  708TIP3    H123683   0.287   2.227   8.668  1.6825  0.5929  0.1741
  708TIP3    H223684   0.322   2.102   8.590  1.2410  1.1621 -0.9614
  709TIP3   OH223685   5.952   1.201   8.049 -0.0394  0.3383  0.2368
  709TIP3    H123686   5.930   1.282   8.002 -0.1906  0.0226 -0.2472
  709TIP3    H223687   6.046   1.189   8.035 -0.4885 -1.1032 -2.2084
  710TIP3   OH223688   0.511   6.850   0.179  0.0736  0.1333  0.1019
  710TIP3    H123689   0.451   6.865   0.107 -1.1931 -1.0333  0.8655
  710TIP3    H223690   0.531   6.937   0.212 -0.5995  0.5835 -0.6430
  711TIP3   OH223691   2.301   2.965   8.258 -0.3845 -0.6133  0.0290
  711TIP3    H123692   2.271   3.046   8.215 -3.4689  0.0047  2.9255
  711TIP3    H223693   2.284   2.896   8.193  2.1600  0.8502 -2.4471
  712TIP3   OH223694   3.511   4.065   7.964  0.1241  0.6340  0.6830
  712TIP3    H123695   3.581   4.122   7.935  0.3316  0.4690  0.8536
  712TIP3    H223696   3.546   4.022   8.043 -0.2452  0.7141  0.8938
  713TIP3   OH223697   0.639   6.481   7.813  0.1887  0.4328  0.1703
  713TIP3    H123698   0.547   6.457   7.829  0.8292 -1.9356  0.5575
  713TIP3    H223699   0.643   6.496   7.719  0.1316 -3.2197 -0.5296
  714TIP3   OH223700   5.729   3.796   8.033 -0.1113  0.3106 -0.1315
  714TIP3    H123701   5.756   3.871   7.980  1.5471  0.3518  0.6810
  714TIP3    H223702   5.808   3.743   8.041 -0.3344  0.2086  2.0915
  715TIP3   OH223703   1.174   4.405   7.977  0.3924  0.1672 -0.0200
  715TIP3    H123704   1.219   4.326   7.946  0.3930  0.7868 -1.6684
  715TIP3    H223705   1.139   4.445   7.898 -0.0855  1.5391  0.8611
  716TIP3   OH223706   0.797   4.410   0.190 -0.0539 -0.3804  0.0503
  716TIP3    H123707   0.738   4.360   0.133  0.9626 -2.3837  0.6352
  716TIP3    H223708   0.828   4.345   0.254 -1.0064  1.6925  2.8471
  717TIP3   OH223709   3.618   6.082   7.215 -0.3015 -0.4315  0.1901
  717TIP3    H123710   3.545   6.042   7.169  0.4847 -0.7027 -0.8521
  717TIP3    H223711   3.629   6.168   7.175  1.5301 -1.3532 -1.4611
  718TIP3   OH223712   5.667   4.625   1.174 -0.0835  0.0202  0.0125
  718TIP3    H123713   5.688   4.655   1.262 -1.2469  2.4374 -0.4370
  718TIP3    H223714   5.729   4.671   1.118  0.4777 -1.3014 -0.4821
  719TIP3   OH223715   2.958   3.451   6.194  0.0185 -0.4887  0.0451
  719TIP3    H123716   2.912   3.530   6.166 -3.9168 -1.8795  1.9357
  719TIP3    H223717   3.000   3.476   6.277 -0.3143 -0.0682  0.0900
  720TIP3   OH223718   3.485   3.657   7.682  0.3897 -0.3091  0.2869
  720TIP3    H123719   3.464   3.749   7.701  0.0178 -0.4933  0.7877
  720TIP3    H223720   3.568   3.642   7.727  0.7429 -0.0573 -0.2763
  721TIP3   OH223721   5.019   1.497   1.330 -0.3483  0.2437 -0.0277
  721TIP3    H123722   5.096   1.549   1.306 -0.7390  1.2387  0.7451
  721TIP3    H223723   5.031   1.479   1.423  0.8690 -3.0436 -0.7121
  722TIP3   OH223724   0.362   5.638   0.616  0.0757 -0.0172 -0.1314
  722TIP3    H123725   0.324   5.686   0.543 -2.5433 -0.5877  0.7438
  722TIP3    H223726   0.359   5.546   0.589 -0.6680 -0.2087  0.5492
  723TIP3   OH223727   6.558   3.731   2.245  0.5777  0.0766  0.4992
  723TIP3    H123728   6.626   3.674   2.280 -0.4414  0.1138  2.6574
  723TIP3    H223729   6.553   3.804   2.307 -1.8126 -0.2164  0.7433
  724TIP3   OH223730   3.104   3.121   0.201  0.1171  0.1792  0.2491
  724TIP3    H123731   3.029   3.094   0.148  0.7208  0.6649 -0.8785
  724TIP3    H223732   3.181   3.099   0.148  0.7792  0.0345  1.2233
  725TIP3   OH223733   3.181   3.221   8.583  0.5559 -0.0842  0.0929
  725TIP3    H123734   3.099   3.179   8.558 -0.2897  1.5305  0.0422
  725TIP3    H223735   3.228   3.232   8.500  0.3780 -0.1065 -0.0114
  726TIP3   OH223736   0.789   0.676   7.070 -0.0703  0.1927 -0.4028
  726TIP3    H123737   0.856   0.734   7.034 -1.0683  0.6754 -1.5699
  726TIP3    H223738   0.708   0.727   7.065 -0.1081  0.9161  4.0256
  727TIP3   OH223739   4.703   0.499   7.248  0.2199  0.4463 -0.5717
  727TIP3    H123740   4.644   0.555   7.197  0.2689 -0.0728 -1.2052
  727TIP3    H223741   4.733   0.433   7.186  0.9467  0.3080 -0.0787
  728TIP3   OH223742   2.135   5.297   7.202 -0.3769  0.2694  0.9508
  728TIP3    H123743   2.107   5.212   7.166 -0.5421  0.6684  0.1052
  728TIP3    H223744   2.055   5.350   7.201  0.1396  1.0725 -0.4426
  729TIP3   OH223745   6.258   1.184   8.375 -0.2746 -0.5862  0.2284
  729TIP3    H123746   6.248   1.220   8.463 -1.8328 -1.2393  0.3497
  729TIP3    H223747   6.176   1.206   8.330  0.7834  0.3807 -1.3194
  730TIP3   OH223748   2.268   5.348   8.609 -0.4767  0.1160 -0.7323
  730TIP3    H123749   2.255   5.268   8.558 -1.0842  0.5367 -1.2472
  730TIP3    H223750   2.210   5.339   8.684  0.5793 -0.6036  0.0308
  731TIP3   OH223751   5.411   3.232   6.570 -0.4391 -0.4335 -0.6078
  731TIP3    H123752   5.398   3.310   6.625  0.9262 -1.0586  0.6728
  731TIP3    H223753   5.447   3.266   6.488 -0.5925  0.3473 -0.3568
  732TIP3   OH223754   2.365   6.652   8.613  0.0677  0.0399  0.1476
  732TIP3    H123755   2.272   6.656   8.592 -0.2205  0.6789  1.4620
  732TIP3    H223756   2.400   6.735   8.579 -0.0257  0.2179  0.4853
  733TIP3   OH223757   2.129   5.965   8.386 -0.4394  0.2218 -0.4117
  733TIP3    H123758   2.073   5.959   8.309  0.4140 -0.9816 -0.9782
  733TIP3    H223759   2.214   5.931   8.357  0.2229  0.7770  0.7661
  734TIP3   OH223760   6.560   6.609   0.203  0.0492  0.3686  0.7482
  734TIP3    H123761   6.650   6.626   0.176  0.0535 -0.5491  0.1448
  734TIP3    H223762   6.517   6.694   0.199  0.4805  0.5432 -0.5314
  735TIP3   OH223763   2.208   6.594   1.400  0.1578  0.5612  0.4115
  735TIP3    H123764   2.238   6.677   1.436  0.7203  0.0913  1.0561
  735TIP3    H223765   2.192   6.539   1.477  0.4844 -0.1560 -0.0233
  736TIP3   OH223766   3.502   0.920   8.213 -0.6931  0.2013 -0.4928
  736TIP3    H123767   3.565   0.882   8.151 -1.2626  0.2822 -1.1425
  736TIP3    H223768   3.521   0.877   8.296 -0.4003 -0.4644 -0.8953
  737TIP3   OH223769   0.816   5.433   6.894  0.5488  0.2288  0.0190
  737TIP3    H123770   0.808   5.338   6.887  3.0226 -0.1133  0.9303
  737TIP3    H223771   0.726   5.465   6.895 -0.3388 -2.1248  0.0068
  738TIP3   OH223772   4.656   2.749   1.492 -0.5845  0.6730 -0.0929
  738TIP3    H123773   4.601   2.683   1.535  0.4363 -0.1128  0.0373
  738TIP3    H223774   4.598   2.789   1.427 -1.9635  1.4280  1.5234
  739TIP3   OH223775   6.760   0.522   6.606 -0.2347  0.6953 -0.3588
  739TIP3    H123776   6.667   0.513   6.585 -0.1472  0.7676 -0.8022
  739TIP3    H223777   6.790   0.432   6.623 -0.6911  0.8162  1.1915
  740TIP3   OH223778   4.792   3.600   8.144  0.4398  0.2305  0.1107
  740TIP3    H123779   4.711   3.552   8.163  0.9369 -0.6560  0.0451
  740TIP3    H223780   4.862   3.538   8.165  1.0842  0.3961 -1.4085
  741TIP3   OH223781   6.646   4.945   0.360  0.0013 -0.2633 -0.4164
  741TIP3    H123782   6.716   4.947   0.294 -0.7735  0.8708 -1.2270
  741TIP3    H223783   6.586   4.877   0.329 -0.6754  0.6840 -1.2375
  742TIP3   OH223784   6.125   4.770   0.730  0.4017  0.7141 -0.5222
  742TIP3    H123785   6.059   4.801   0.669 -0.6148 -0.0771  0.1301
  742TIP3    H223786   6.093   4.684   0.759  1.7990  0.2336 -0.3022
  743TIP3   OH223787   5.418   5.498   8.497  0.5009 -0.1669  0.0931
  743TIP3    H123788   5.431   5.423   8.439 -0.3760 -0.6698  0.5188
  743TIP3    H223789   5.443   5.574   8.444 -0.0510 -0.6322 -0.8666
  744TIP3   OH223790   6.078   0.434   7.379 -0.5548 -0.3233  0.3292
  744TIP3    H123791   6.058   0.523   7.408  0.9890  0.2755 -0.2950
  744TIP3    H223792   6.032   0.377   7.441 -0.7183  0.9120  1.3857
  745TIP3   OH223793   5.214   1.146   7.450  0.0709 -0.1840 -0.1594
  745TIP3    H123794   5.263   1.075   7.409 -0.0659 -0.7787  0.6703
  745TIP3    H223795   5.275   1.219   7.454  0.1586 -0.1868 -1.1857
  746TIP3   OH223796   0.296   0.149   0.071 -0.0120 -0.5751 -0.5299
  746TIP3    H123797   0.228   0.172   0.008  0.9037  1.2505 -0.9177
  746TIP3    H223798   0.301   0.225   0.129 -1.1138 -2.3663  2.0717
  747TIP3   OH223799   6.554   0.284   6.951  0.5287 -0.0348  0.3184
  747TIP3    H123800   6.502   0.272   6.871  1.8245  1.3463 -0.7926
  747TIP3    H223801   6.631   0.229   6.937  0.7410  0.1832  0.6361
  748TIP3   OH223802   0.672   2.491   0.473 -0.2676 -0.4639  0.1523
  748TIP3    H123803   0.670   2.496   0.378 -2.5492  2.5466  0.1925
  748TIP3    H223804   0.765   2.496   0.496  0.2363  0.7278 -1.9116
  749TIP3   OH223805   3.289   4.296   0.795 -0.2739  0.2443  0.0634
  749TIP3    H123806   3.348   4.231   0.757 -0.8841  0.0623 -0.6031
  749TIP3    H223807   3.232   4.246   0.852  0.0192  0.3775  0.4792
  750TIP3   OH223808   0.193   6.225   7.996  0.4133 -0.8090  1.4937
  750TIP3    H123809   0.178   6.164   8.068  0.3742  0.2083  2.3797
  750TIP3    H223810   0.158   6.308   8.028  0.2980 -0.3571  0.2478
  751TIP3   OH223811   0.176   3.673   0.787  0.7883  0.0771  0.3984
  751TIP3    H123812   0.107   3.736   0.768  0.4475  0.3957  2.4530
  751TIP3    H223813   0.186   3.623   0.706 -1.3632  0.4736 -0.1710
  752TIP3   OH223814   0.949   2.487   0.481  0.2915 -0.0263  0.6322
  752TIP3    H123815   1.026   2.499   0.424  0.7691  1.1523  1.4873
  752TIP3    H223816   0.948   2.565   0.536 -1.1739 -0.3254  1.0677
  753TIP3   OH223817   4.631   2.635   6.345  0.1943  0.6976  0.4101
  753TIP3    H123818   4.700   2.590   6.296 -0.7343 -0.7040  0.3263
  753TIP3    H223819   4.551   2.617   6.295 -0.2595  2.2264  0.5437
  754TIP3   OH223820   6.552   0.256   1.703 -0.2733  0.0153 -0.4738
  754TIP3    H123821   6.599   0.206   1.769  1.1839  0.0612 -1.4337
  754TIP3    H223822   6.465   0.215   1.699 -0.9372  0.9254  2.4416
  755TIP3   OH223823   0.917   6.289   0.126  0.4088  0.3316  0.1926
  755TIP3    H123824   0.885   6.199   0.112 -0.2123  0.6286 -0.3508
  755TIP3    H223825   0.866   6.342   0.065  2.0680  0.8198 -0.8179
  756TIP3   OH223826   3.520   1.791   8.173 -0.4126 -0.4920 -0.2203
  756TIP3    H123827   3.486   1.830   8.093  2.3629 -0.2484 -1.4120
  756TIP3    H223828   3.567   1.713   8.143 -0.0216 -0.8632  1.2877
  757TIP3   OH223829   2.716   2.200   8.092  0.2287  0.0224  0.3762
  757TIP3    H123830   2.624   2.203   8.067  0.0598  0.9542  1.0307
  757TIP3    H223831   2.717   2.149   8.174  0.6648 -2.2763 -0.9826
  758TIP3   OH223832   0.320   3.044   8.349 -0.2703  0.1487 -0.2566
  758TIP3    H123833   0.318   3.087   8.435 -1.2117 -0.6105  0.1198
  758TIP3    H223834   0.301   2.952   8.368 -1.3604  0.1241 -1.3638
  759TIP3   OH223835   3.395   0.552   7.598  0.4393 -0.2759  0.4836
  759TIP3    H123836   3.397   0.581   7.507  1.1784  0.2774  0.6687
  759TIP3    H223837   3.302   0.558   7.623  0.1154 -1.1725 -0.4507
  760TIP3   OH223838   1.402   1.354   0.054  0.1585 -0.0649 -0.0313
  760TIP3    H123839   1.344   1.413   0.006 -0.5444  0.3317  1.2628
  760TIP3    H223840   1.467   1.327  -0.010 -1.1557 -0.1140 -1.3899
  761TIP3   OH223841   4.013   3.336   0.002  0.2123  0.2041 -0.1662
  761TIP3    H123842   4.086   3.306   0.056 -0.3146 -0.3320  0.2541
  761TIP3    H223843   3.999   3.426   0.029  0.8576  0.3833 -0.4032
  762TIP3   OH223844   3.931   5.631   1.169 -0.4876 -0.3822  0.2014
  762TIP3    H123845   3.873   5.555   1.162 -2.0803  0.8973 -1.9726
  762TIP3    H223846   3.934   5.667   1.080 -0.3117  2.4472  1.2457
  763TIP3   OH223847   2.268   3.666   8.558  0.5571  0.2347  0.0106
  763TIP3    H123848   2.177   3.641   8.570  0.6050 -0.1977 -0.4483
  763TIP3    H223849   2.318   3.599   8.606  0.6534  0.0092 -0.3946
  764TIP3   OH223850   5.640   3.575   1.692 -0.3764  0.1478  0.5736
  764TIP3    H123851   5.677   3.519   1.624 -0.7151  0.2890  0.2722
  764TIP3    H223852   5.634   3.518   1.769 -2.1122 -0.7003 -0.1256
  765TIP3   OH223853   2.917   5.645   1.743  0.3276 -0.0262 -0.3862
  765TIP3    H123854   2.895   5.619   1.832 -2.7069  0.6138 -0.8426
  765TIP3    H223855   2.843   5.699   1.714 -0.1893 -2.3575 -4.1893
  766TIP3   OH223856   3.497   0.139   6.669 -0.7085 -0.4462  0.1591
  766TIP3    H123857   3.405   0.150   6.645 -1.1233  2.5254  2.4930
  766TIP3    H223858   3.537   0.224   6.652  1.1290 -1.0549  1.0831
  767TIP3   OH223859   5.658   1.760   0.892  0.1704 -0.1223 -0.4200
  767TIP3    H123860   5.623   1.719   0.970 -0.4362  0.8724 -0.1490
  767TIP3    H223861   5.647   1.854   0.907 -1.4954  0.0633 -2.3772
  768TIP3   OH223862   4.291   2.277   1.593  0.2616  0.8261  0.1536
  768TIP3    H123863   4.354   2.278   1.664  0.5256  1.7960 -0.0759
  768TIP3    H223864   4.221   2.219   1.623  0.3675  1.2290  1.2041
  769TIP3   OH223865   0.962   2.395   7.912  0.1226 -0.1579 -0.4327
  769TIP3    H123866   0.947   2.466   7.850 -0.6019  0.4203  0.3808
  769TIP3    H223867   0.876   2.355   7.923  0.6750 -1.7143 -1.5086
  770TIP3   OH223868   4.328   5.962   7.442  0.1014  0.7482  0.2335
  770TIP3    H123869   4.327   6.055   7.422 -0.5594  0.6633 -0.1446
  770TIP3    H223870   4.240   5.942   7.473 -0.5346 -0.2290 -2.0182
  771TIP3   OH223871   6.403   6.373   7.811  0.1534  0.0724  0.1109
  771TIP3    H123872   6.389   6.279   7.814  2.7110 -0.3695  1.2711
  771TIP3    H223873   6.347   6.408   7.881  0.4661 -0.8271  0.8344
  772TIP3   OH223874   6.775   1.176   0.185 -0.2135  0.2036 -0.1038
  772TIP3    H123875   6.836   1.247   0.203  0.2586 -0.1085 -0.4482
  772TIP3    H223876   6.720   1.208   0.114  0.3241  0.0410 -0.6001
  773TIP3   OH223877   3.923   2.019   8.187 -0.2475  0.2863  0.1001
  773TIP3    H123878   3.930   2.085   8.118  1.6803 -1.0558 -1.0951
  773TIP3    H223879   3.904   1.938   8.141  0.9359 -0.6220  1.1264
  774TIP3   OH223880   0.815   5.153   6.962 -0.4308  0.1050 -0.3004
  774TIP3    H123881   0.791   5.146   7.054 -0.8865  1.2809 -0.3081
  774TIP3    H223882   0.739   5.122   6.914 -0.4306  0.0810 -0.2848
  775TIP3   OH223883   0.907   5.998   7.623 -0.0951 -0.1318  0.6403
  775TIP3    H123884   0.903   5.908   7.656  0.4761 -0.8794 -1.2470
  775TIP3    H223885   0.880   6.051   7.698  1.7843 -1.6697  2.5626
  776TIP3   OH223886   2.516   4.718   0.377 -0.2632 -0.1664 -0.0923
  776TIP3    H123887   2.537   4.633   0.417  0.3148  1.0285  2.3047
  776TIP3    H223888   2.431   4.704   0.335 -0.2477 -1.8973  0.3755
  777TIP3   OH223889   4.478   6.629   0.228  0.3396 -0.2494  0.5385
  777TIP3    H123890   4.403   6.601   0.175  0.5184 -0.1503  0.2245
  777TIP3    H223891   4.524   6.547   0.249  1.2484 -0.1717 -0.9705
  778TIP3   OH223892   1.058   2.946   0.885  0.2920  0.1811  0.7327
  778TIP3    H123893   1.143   2.910   0.912  0.9572  0.1663 -1.2431
  778TIP3    H223894   1.037   2.899   0.805 -1.9236 -0.2549  1.5012
  779TIP3   OH223895   0.748   1.658   0.282 -0.5332  0.3381 -0.0671
  779TIP3    H123896   0.737   1.646   0.188 -1.7042 -1.1292  0.2012
  779TIP3    H223897   0.661   1.684   0.313 -0.4345 -0.2291  0.7234
  780TIP3   OH223898   4.464   0.491   8.606  0.1427  0.1953 -0.1142
  780TIP3    H123899   4.370   0.471   8.607  0.2187 -0.2314 -0.9878
  780TIP3    H223900   4.476   0.552   8.534  0.4959  0.4985  0.1935
  781TIP3   OH223901   5.713   2.364   7.032 -0.3809  0.4871 -0.0172
  781TIP3    H123902   5.635   2.346   7.084  0.0114 -1.2596  0.0211
  781TIP3    H223903   5.703   2.309   6.954  3.3716 -4.6303  2.5034
  782TIP3   OH223904   5.775   1.813   1.238 -0.8717 -0.1622 -0.3340
  782TIP3    H123905   5.760   1.793   1.330 -3.3038 -3.3598 -1.2809
  782TIP3    H223906   5.857   1.769   1.218 -1.4600 -1.3477 -0.1894
  783TIP3   OH223907   5.312   3.054   2.905  0.2174  0.0083  0.0746
  783TIP3    H123908   5.362   3.003   2.841 -3.5739 -2.6116 -1.2285
  783TIP3    H223909   5.301   3.140   2.865 -0.5050 -0.9947 -2.0301
  784TIP3   OH223910   4.061   1.772   8.554  0.1827  0.4270 -0.1988
  784TIP3    H123911   4.136   1.811   8.509 -0.6302  1.8575 -0.3827
  784TIP3    H223912   3.993   1.839   8.548 -1.3835 -1.1574 -0.7585
  785TIP3   OH223913   4.678   3.284   7.752 -0.2527  0.5509  0.3377
  785TIP3    H123914   4.752   3.331   7.790  0.2871 -1.1653  1.5126
  785TIP3    H223915   4.602   3.318   7.798  0.0923  0.4898  0.9671
  786TIP3   OH223916   4.475   3.207   6.944  0.4735 -0.3428  0.3228
  786TIP3    H123917   4.412   3.143   6.977 -1.2680  0.5799 -1.0235
  786TIP3    H223918   4.464   3.203   6.849  1.6309  0.6863  0.1287
  787TIP3   OH223919   5.565   3.092   7.541 -0.4158  0.2551  0.0130
  787TIP3    H123920   5.502   3.068   7.609  0.5014  3.3051  2.1508
  787TIP3    H223921   5.524   3.164   7.494  1.0586  1.7506  0.9139
  788TIP3   OH223922   2.761   4.370   6.777 -0.2529  0.4783  0.1861
  788TIP3    H123923   2.738   4.283   6.746  2.6254 -0.8306  1.3878
  788TIP3    H223924   2.763   4.362   6.872 -1.2130  2.2683  0.4143
  789TIP3   OH223925   5.710   3.699   6.295  0.3296  0.3096 -0.0897
  789TIP3    H123926   5.735   3.771   6.238  1.6818 -0.1078 -0.0746
  789TIP3    H223927   5.723   3.620   6.242  1.5989 -0.0839  0.7278
  790TIP3   OH223928   5.747   1.554   8.405  0.0003  0.2719  0.5480
  790TIP3    H123929   5.729   1.563   8.498  0.9775  1.1964  0.6747
  790TIP3    H223930   5.662   1.536   8.365 -0.1239 -2.5861  1.8601
  791TIP3   OH223931   2.032   6.296   7.578 -0.0476  0.2530  0.3957
  791TIP3    H123932   2.050   6.358   7.507  0.6168 -0.3131  0.0490
  791TIP3    H223933   2.102   6.231   7.571 -1.4988 -1.3313 -0.1373
  792TIP3   OH223934   3.753   2.188   1.193 -0.0728  0.3268 -0.1898
  792TIP3    H123935   3.814   2.163   1.263 -1.2391  0.7193  1.0172
  792TIP3    H223936   3.783   2.141   1.116  1.2431 -0.1453  0.5886
  793TIP3   OH223937   4.243   5.438   1.658  0.0140 -0.4837 -0.1722
  793TIP3    H123938   4.156   5.434   1.697  0.4174  1.0775  0.9329
  793TIP3    H223939   4.303   5.412   1.728  0.6195  0.7920 -0.1972
  794TIP3   OH223940   2.490   3.557   8.697  0.2835 -0.5428 -0.4727
  794TIP3    H123941   2.568   3.613   8.702 -0.5265  0.6645 -0.8024
  794TIP3    H223942   2.432   3.591   8.765 -0.1604 -1.1134 -0.5598
  795TIP3   OH223943   5.066   0.940   8.385 -0.0846 -0.3149  0.0793
  795TIP3    H123944   4.996   0.894   8.338  0.8135 -0.8905 -0.7198
  795TIP3    H223945   5.136   0.875   8.394  0.4124  0.2958  0.7536
  796TIP3   OH223946   3.511   0.256   1.513  0.2900  0.2973 -0.0393
  796TIP3    H123947   3.438   0.317   1.505 -0.2387 -0.3852 -0.4675
  796TIP3    H223948   3.521   0.219   1.425  2.8285  2.2459 -0.7123
  797TIP3   OH223949   1.895   3.249   8.352  0.3478  0.0453  0.2431
  797TIP3    H123950   1.830   3.179   8.346 -0.2996  0.3710  2.5786
  797TIP3    H223951   1.980   3.204   8.342 -0.0930 -0.9585  0.8351
  798TIP3   OH223952   0.705   4.861   7.840 -0.0645  0.1084 -0.2288
  798TIP3    H123953   0.648   4.932   7.811 -0.9616 -0.2313  0.6146
  798TIP3    H223954   0.651   4.782   7.831  0.5523 -0.3281 -0.1728
  799TIP3   OH223955   4.327   2.613   7.401 -0.1679 -0.5091  0.5547
  799TIP3    H123956   4.371   2.548   7.455  1.8959  1.8790  1.8988
  799TIP3    H223957   4.243   2.627   7.444  0.3440 -0.5776  1.5917
  800TIP3   OH223958   0.514   6.422   1.464 -0.3970  0.2755  0.4946
  800TIP3    H123959   0.469   6.492   1.511 -0.2326  0.1295  0.8733
  800TIP3    H223960   0.492   6.437   1.372  1.1756  1.9734  0.3218
  801TIP3   OH223961   4.476   3.844   7.705  0.4918 -0.4592  0.0087
  801TIP3    H123962   4.526   3.862   7.625 -1.2796 -1.2336 -1.3622
  801TIP3    H223963   4.406   3.909   7.704 -1.4378 -2.4239 -0.8819
  802TIP3   OH223964   1.572   4.779   6.525  0.3882 -0.3172 -0.3147
  802TIP3    H123965   1.652   4.733   6.549  0.3613 -1.4435 -2.2020
  802TIP3    H223966   1.513   4.710   6.494 -0.7589  0.6697 -0.3933
  803TIP3   OH223967   6.286   2.438   0.906 -0.2851 -1.1086 -0.6111
  803TIP3    H123968   6.327   2.403   0.985 -0.9686  1.0725  0.8118
  803TIP3    H223969   6.211   2.381   0.890  0.1012 -1.8255  0.0655
  804TIP3   OH223970   3.049   2.411   6.385 -0.0366  0.7112 -0.4104
  804TIP3    H123971   2.976   2.454   6.341 -0.4144  1.1839  0.6336
  804TIP3    H223972   3.104   2.484   6.416  0.0270  0.4147  0.1914
  805TIP3   OH223973   0.588   1.511   7.767  0.1624  0.5103  0.1401
  805TIP3    H123974   0.571   1.533   7.675 -0.8126 -1.8448 -0.2975
  805TIP3    H223975   0.519   1.449   7.790  1.0032  0.2703  2.1777
  806TIP3   OH223976   4.839   0.187   0.309  0.0665  0.1456 -0.1938
  806TIP3    H123977   4.795   0.112   0.269  3.3541 -1.4918 -1.0269
  806TIP3    H223978   4.876   0.152   0.390  0.6100  1.2218  0.0317
  807TIP3   OH223979   1.475   5.964   8.204  0.5584  0.1126 -0.0802
  807TIP3    H123980   1.438   5.890   8.253 -2.4948  0.1489 -2.0524
  807TIP3    H223981   1.449   5.949   8.113 -0.5811  3.7560 -0.5289
  808TIP3   OH223982   0.382   5.100   7.011 -0.4332 -0.1238  0.3727
  808TIP3    H123983   0.294   5.135   7.001 -0.9687 -1.7927 -1.1950
  808TIP3    H223984   0.419   5.149   7.086 -2.2505  1.3796  0.3571
  809TIP3   OH223985   2.047   1.397   0.231  0.6168 -0.5733 -0.3171
  809TIP3    H123986   2.040   1.480   0.278 -0.3541 -0.2501 -0.9935
  809TIP3    H223987   2.075   1.422   0.143 -0.5738 -0.8408 -0.8035
  810TIP3   OH223988   4.603   3.231   8.138  0.4235  0.2976 -0.3922
  810TIP3    H123989   4.654   3.190   8.068  0.3861 -0.9321  0.2615
  810TIP3    H223990   4.597   3.163   8.206  0.8036  1.5774  0.9803
  811TIP3   OH223991   3.309   6.099   1.657 -0.3849  0.2726  0.1267
  811TIP3    H123992   3.221   6.074   1.627  0.1213  0.1196 -1.2585
  811TIP3    H223993   3.343   6.157   1.589  1.6093 -1.7542 -0.7269
  812TIP3   OH223994   0.364   6.309   8.308  0.3557  0.2712 -0.4757
  812TIP3    H123995   0.402   6.250   8.243  0.2688 -0.3551  0.0320
  812TIP3    H223996   0.297   6.358   8.261  1.7165  1.3493 -1.3878
  813TIP3   OH223997   6.462   3.256   1.224  0.9740  0.1735 -0.2415
  813TIP3    H123998   6.444   3.347   1.247  0.2126 -0.5438  2.1910
  813TIP3    H223999   6.558   3.251   1.224  1.0149  0.8183  0.2168
  814TIP3   OH224000   0.618   0.439   7.943  0.0811  0.2866 -0.4886
  814TIP3    H124001   0.603   0.352   7.906  1.6490 -0.4008  0.3725
  814TIP3    H224002   0.672   0.484   7.877  0.3492  0.1322 -0.3788
  815TIP3   OH224003   2.935   5.735   2.302 -0.5588  0.3986 -0.2637
  815TIP3    H124004   2.856   5.788   2.295 -0.7102  0.3851  1.0612
  815TIP3    H224005   2.986   5.757   2.224 -1.7295  0.6332 -0.9714
  816TIP3   OH224006   6.106   1.066   6.404 -0.3820 -0.5859 -0.6077
  816TIP3    H124007   6.104   0.977   6.438  0.1635 -0.5417 -0.4425
  816TIP3    H224008   6.197   1.094   6.416 -0.5468 -0.0091 -0.6514
  817TIP3   OH224009   1.109   2.161   0.511 -0.3487 -0.1941  0.4782
  817TIP3    H124010   1.204   2.169   0.520 -0.2137 -2.6638  2.0587
  817TIP3    H224011   1.091   2.193   0.423  2.2057 -1.3357 -0.5640
  818TIP3   OH224012   2.812   6.295   6.686 -0.0942 -0.1294  0.6189
  818TIP3    H124013   2.853   6.310   6.771  0.3853  1.7304  0.1172
  818TIP3    H224014   2.742   6.360   6.682 -0.3368 -0.4324 -0.2627
  819TIP3   OH224015   5.245   1.074   7.794  0.0296  0.5117  0.0092
  819TIP3    H124016   5.279   1.114   7.874  0.5839  1.2246 -0.5626
  819TIP3    H224017   5.323   1.061   7.739 -0.3964  0.4782 -0.5991
  820TIP3   OH224018   5.802   2.838   7.939 -0.6288  0.3477  1.0237
  820TIP3    H124019   5.812   2.819   8.032  0.6429 -1.6208  0.5455
  820TIP3    H224020   5.890   2.824   7.902 -0.9480  1.7729 -0.3755
  821TIP3   OH224021   6.032   6.561   1.244 -0.9977 -0.2990  0.4971
  821TIP3    H124022   6.042   6.467   1.261 -1.4179 -0.6231 -0.8813
  821TIP3    H224023   6.092   6.578   1.171  0.0426  0.7943  1.5776
  822TIP3   OH224024   2.282   1.386   6.692  0.1010 -0.1786  0.4121
  822TIP3    H124025   2.363   1.377   6.642 -0.4606  1.2707 -0.8045
  822TIP3    H224026   2.230   1.310   6.667  1.3740 -1.6035  1.8606
  823TIP3   OH224027   4.276   6.558   1.664 -0.0454  0.1514  0.1667
  823TIP3    H124028   4.183   6.545   1.680  0.2285  0.1737  1.9985
  823TIP3    H224029   4.320   6.512   1.736  1.3765  0.0403 -0.7129
  824TIP3   OH224030   6.644   4.343   1.292  0.4992 -0.3565  0.5441
  824TIP3    H124031   6.600   4.304   1.367 -1.3840  1.7910  0.6786
  824TIP3    H224032   6.598   4.307   1.216  0.8365 -0.7381  0.5180
  825TIP3   OH224033   2.860   3.264   1.541 -0.1016 -0.1886  0.3938
  825TIP3    H124034   2.827   3.225   1.622 -2.2092  1.6320  0.5105
  825TIP3    H224035   2.854   3.359   1.556  3.5721  0.3121 -0.3332
  826TIP3   OH224036   4.333   4.677   7.309  0.2272 -0.1903  0.1142
  826TIP3    H124037   4.315   4.584   7.324  1.0692 -0.4739 -0.5444
  826TIP3    H224038   4.299   4.721   7.387 -2.5781 -0.7352 -0.7081
  827TIP3   OH224039   2.515   1.361   8.225 -0.3694  0.0978 -0.6625
  827TIP3    H124040   2.434   1.331   8.268 -0.5163  0.8553 -0.3940
  827TIP3    H224041   2.484   1.413   8.151 -0.1204 -0.1604 -0.9476
  828TIP3   OH224042   0.008   1.219   2.174  0.1689  0.4659  0.3619
  828TIP3    H124043  -0.075   1.172   2.184 -0.0063  0.4134 -1.0121
  828TIP3    H224044   0.049   1.178   2.097  0.9121  1.2781  0.3109
  829TIP3   OH224045   1.006   5.780   1.572  0.1140 -0.5649 -0.2747
  829TIP3    H124046   0.976   5.869   1.553 -2.9688 -1.6729 -1.1067
  829TIP3    H224047   1.057   5.790   1.653 -0.7015  1.8568  0.0435
  830TIP3   OH224048   5.411   6.694   7.313 -0.3104 -0.5427  0.4149
  830TIP3    H124049   5.479   6.716   7.250 -1.5860 -2.1211 -1.6646
  830TIP3    H224050   5.444   6.615   7.358  0.1376 -0.0364  0.9949
  831TIP3   OH224051   5.871   4.789   8.460  1.0567 -0.3323  0.0818
  831TIP3    H124052   5.781   4.800   8.428  0.7704  0.5813  1.1422
  831TIP3    H224053   5.861   4.747   8.545  1.7152 -1.2393 -0.2699
  832TIP3   OH224054   3.566   5.547   0.195  0.2350  0.1602  0.2546
  832TIP3    H124055   3.532   5.564   0.283 -1.2968 -0.7857 -0.1110
  832TIP3    H224056   3.660   5.563   0.202  0.1560  0.0322  2.0822
  833TIP3   OH224057   0.352   4.638   1.636 -0.1240  0.0828 -0.3424
  833TIP3    H124058   0.371   4.612   1.546 -0.3999 -0.2933 -0.2923
  833TIP3    H224059   0.299   4.718   1.627 -0.1742  0.0301 -0.5115
  834TIP3   OH224060   1.051   2.718   1.072  0.2620  0.1707 -0.5084
  834TIP3    H124061   1.061   2.807   1.106  4.0224 -0.9748  1.8958
  834TIP3    H224062   1.006   2.670   1.142  1.2042 -0.5049 -0.3419
  835TIP3   OH224063   4.776   2.881   6.779  0.0228 -0.3697  0.0450
  835TIP3    H124064   4.698   2.841   6.741 -1.1004  1.1976  0.5996
  835TIP3    H224065   4.832   2.901   6.704 -1.4885  1.2660 -0.7262
  836TIP3   OH224066   0.077   4.317   1.611 -0.1444 -0.0994  0.2654
  836TIP3    H124067   0.035   4.402   1.598 -0.8030 -0.3500  0.7027
  836TIP3    H224068   0.071   4.301   1.705 -1.7756 -1.4917 -0.0202
  837TIP3   OH224069   2.823   1.328   2.153  0.0882 -0.9221  0.0356
  837TIP3    H124070   2.751   1.356   2.096  0.1928  0.4003  0.5155
  837TIP3    H224071   2.779   1.289   2.229 -0.1010 -0.7552  0.0121
  838TIP3   OH224072   0.317   5.727   2.265 -0.0393 -0.1343 -0.1090
  838TIP3    H124073   0.344   5.641   2.295 -1.0201 -0.8255 -1.1057
  838TIP3    H224074   0.222   5.728   2.278 -0.1713  0.4116 -0.9968
  839TIP3   OH224075   1.837   3.257   7.684 -0.1597  0.5646 -0.2377
  839TIP3    H124076   1.825   3.302   7.768 -1.9137 -1.0476  0.4463
  839TIP3    H224077   1.753   3.264   7.640  0.2237 -0.0934 -1.1159
  840TIP3   OH224078   6.296   3.491   1.391  0.0135 -0.1908 -0.2129
  840TIP3    H124079   6.390   3.509   1.390  0.0903 -0.5169  0.4937
  840TIP3    H224080   6.255   3.577   1.386  0.3431 -0.0706 -0.9787
  841TIP3   OH224081   1.075   2.312   7.457  0.1424 -0.0113 -0.1429
  841TIP3    H124082   1.148   2.263   7.495 -1.6605 -1.5284  1.5712
  841TIP3    H224083   1.020   2.244   7.417 -1.3961  0.8089  0.5075
  842TIP3   OH224084   2.103   0.203   2.184  0.3806  0.1527  0.0852
  842TIP3    H124085   2.126   0.111   2.195 -0.0526 -0.0276 -0.4940
  842TIP3    H224086   2.153   0.249   2.252  0.1756 -0.5708  0.7297
  843TIP3   OH224087   4.611   5.238   7.898  0.0308  0.1363 -0.0843
  843TIP3    H124088   4.622   5.296   7.823  2.0324 -0.7369 -0.5442
  843TIP3    H224089   4.665   5.162   7.877  0.1665 -0.3907  1.9769
  844TIP3   OH224090   5.768   3.284   7.671  0.1139  0.3073 -0.2018
  844TIP3    H124091   5.729   3.205   7.635  2.1612 -0.8579  0.0122
  844TIP3    H224092   5.768   3.271   7.766 -0.2066  0.8966 -0.1131
  845TIP3   OH224093   5.116   1.963   6.042  0.4427  0.3256 -0.2741
  845TIP3    H124094   5.097   2.057   6.043 -2.8954 -0.2055  2.3906
  845TIP3    H224095   5.120   1.941   5.949  2.4917  3.1863 -1.0174
  846TIP3   OH224096   2.799   5.484   7.062 -0.4315  0.1535  0.2055
  846TIP3    H124097   2.743   5.413   7.094  1.3386 -2.1654 -1.4275
  846TIP3    H224098   2.881   5.472   7.110 -0.4160  1.7828  0.6248
  847TIP3   OH224099   1.604   0.574   0.582  0.2055 -0.0307  0.7268
  847TIP3    H124100   1.680   0.625   0.554  0.3212 -0.2443  0.6480
  847TIP3    H224101   1.535   0.638   0.593  0.1766  0.0731  0.0196
  848TIP3   OH224102   0.072   5.501   1.137  0.5405 -0.5648 -0.3476
  848TIP3    H124103   0.065   5.550   1.055  1.8899 -0.1018 -0.2113
  848TIP3    H224104   0.014   5.548   1.197 -0.2410 -0.7396 -0.9540
  849TIP3   OH224105   5.562   4.142   8.681 -0.1338 -0.0100  0.1090
  849TIP3    H124106   5.469   4.121   8.694 -0.4953  0.8800 -0.9210
  849TIP3    H224107   5.608   4.067   8.718 -1.3060 -1.3082 -0.9636
  850TIP3   OH224108   0.967   0.448   7.122 -0.0478 -0.3713  0.5975
  850TIP3    H124109   0.908   0.520   7.102  2.4352  1.6970  0.0972
  850TIP3    H224110   1.035   0.453   7.054  0.4639 -2.9341  0.8146
  851TIP3   OH224111   4.792   3.291   0.303 -0.3895 -0.6922 -0.4802
  851TIP3    H124112   4.722   3.348   0.272 -0.1366 -0.7418 -1.1548
  851TIP3    H224113   4.821   3.243   0.225 -0.5520 -1.6959  0.0538
  852TIP3   OH224114   4.530   6.486   7.817 -0.0656  0.4309 -0.0099
  852TIP3    H124115   4.447   6.465   7.775 -0.4545 -0.2722  1.0821
  852TIP3    H224116   4.567   6.401   7.841  0.7118  0.7645  0.0173
  853TIP3   OH224117   4.972   5.462   1.831  0.6382 -0.6143  0.1175
  853TIP3    H124118   4.979   5.459   1.735  0.5199  0.8278  0.0437
  853TIP3    H224119   5.060   5.441   1.861  1.5190  2.0258 -0.4182
  854TIP3   OH224120   0.760   5.245   7.724 -0.6363 -0.3122 -0.1993
  854TIP3    H124121   0.778   5.339   7.726 -0.4888 -0.3277 -0.8948
  854TIP3    H224122   0.822   5.208   7.787 -2.3561  0.3238  2.0166
  855TIP3   OH224123   0.868   3.138   1.444  0.3708  0.8529 -0.3889
  855TIP3    H124124   0.909   3.147   1.530  1.7160 -1.1362 -0.7507
  855TIP3    H224125   0.942   3.133   1.383 -0.5382  3.7234 -1.9400
  856TIP3   OH224126   3.209   1.661   8.211 -0.0678  0.1884  0.1401
  856TIP3    H124127   3.255   1.621   8.137  0.0378  1.7751 -0.7221
  856TIP3    H224128   3.151   1.725   8.170  0.5591  1.6714  1.4424
  857TIP3   OH224129   3.733   3.519   1.158  0.1348 -0.0688 -0.0056
  857TIP3    H124130   3.696   3.587   1.214 -0.2534  0.3461 -0.7501
  857TIP3    H224131   3.744   3.561   1.072  1.9687 -0.2979  0.0766
  858TIP3   OH224132   3.655   0.364   6.572  0.3912 -0.6566 -0.1621
  858TIP3    H124133   3.692   0.445   6.607 -1.7791  0.3681 -0.0933
  858TIP3    H224134   3.696   0.354   6.486 -0.7050  1.6063 -1.0339
  859TIP3   OH224135   2.559   4.673   7.492 -0.1328 -0.2805 -0.0303
  859TIP3    H124136   2.530   4.739   7.555 -0.7624 -0.1006 -0.5005
  859TIP3    H224137   2.654   4.684   7.488 -0.1300 -0.0112  0.5665
  860TIP3   OH224138   0.548   1.599   1.675  0.2197 -0.6155  0.1419
  860TIP3    H124139   0.508   1.608   1.762 -0.3211  0.4846 -0.1960
  860TIP3    H224140   0.642   1.599   1.692  0.1259 -0.1185  0.7122
  861TIP3   OH224141   1.433   1.705   7.796  0.1312  0.1961 -0.1177
  861TIP3    H124142   1.469   1.632   7.847  0.2899  1.2151  1.2636
  861TIP3    H224143   1.415   1.773   7.860 -1.5250  0.8059 -1.1753
  862TIP3   OH224144   1.741   2.682   0.365 -0.1084 -0.4710  0.2226
  862TIP3    H124145   1.809   2.633   0.411 -0.2486 -0.2212  0.7035
  862TIP3    H224146   1.742   2.647   0.276  1.1891  0.0888 -0.0069
  863TIP3   OH224147   2.954   2.013   5.982 -0.4834 -0.3472  0.3366
  863TIP3    H124148   2.868   2.053   5.973 -0.1314  0.5549  0.8335
  863TIP3    H224149   2.965   1.999   6.076  0.8114  1.6943  0.5598
  864TIP3   OH224150   3.274   6.531   8.348  0.1837 -0.4130  0.2629
  864TIP3    H124151   3.259   6.442   8.318 -0.6571  0.6304 -2.7898
  864TIP3    H224152   3.188   6.560   8.379 -0.5583  0.4797 -2.3779
  865TIP3   OH224153   2.429   6.196   1.575  0.2246  0.3993 -0.0675
  865TIP3    H124154   2.432   6.107   1.539 -1.4845  1.3703 -3.0031
  865TIP3    H224155   2.348   6.200   1.625  1.2225 -0.1448  1.6844
  866TIP3   OH224156   3.823   4.832   7.856  0.1775  0.1915  0.1519
  866TIP3    H124157   3.900   4.888   7.852 -0.4001  1.0026  0.1983
  866TIP3    H224158   3.801   4.814   7.764  1.2929 -1.2949  0.1365
  867TIP3   OH224159   5.323   2.373   8.107  0.5442 -0.1172 -0.1543
  867TIP3    H124160   5.355   2.308   8.170 -1.0911 -0.3788  0.4729
  867TIP3    H224161   5.384   2.446   8.115  0.6789 -0.3559  1.3876
  868TIP3   OH224162   0.581   3.277   6.410  0.2717 -0.0818  0.7614
  868TIP3    H124163   0.491   3.271   6.439  0.7404  1.6578  2.8131
  868TIP3    H224164   0.616   3.189   6.420 -1.0178 -0.6444  0.4804
  869TIP3   OH224165   5.468   1.104   7.650  0.0705 -0.2970  0.3212
  869TIP3    H124166   5.486   1.138   7.563 -1.5671 -0.1754 -0.0037
  869TIP3    H224167   5.436   1.179   7.700 -2.5468 -1.0235 -0.0965
  870TIP3   OH224168   1.103   3.157   1.963 -1.0513  0.1978  0.3783
  870TIP3    H124169   1.166   3.090   1.938 -1.7587 -0.3968  0.1578
  870TIP3    H224170   1.148   3.240   1.945 -0.8331 -0.2121 -1.1060
  871TIP3   OH224171   5.238   0.378   7.796 -0.1893 -0.0607 -0.4146
  871TIP3    H124172   5.188   0.432   7.735 -0.1987 -0.3498 -0.6632
  871TIP3    H224173   5.327   0.414   7.793 -0.2022 -0.0412 -0.5598
  872TIP3   OH224174   6.545   3.657   7.604 -0.3077 -0.1536  0.2319
  872TIP3    H124175   6.563   3.690   7.692  0.4990  1.4633 -0.5038
  872TIP3    H224176   6.481   3.587   7.618  0.1637 -0.2619  2.1379
  873TIP3   OH224177   6.738   4.887   1.459  0.9067  0.4955  0.0713
  873TIP3    H124178   6.737   4.803   1.413  0.3210  1.5304 -1.9372
  873TIP3    H224179   6.787   4.870   1.539 -0.6299 -2.1574  0.5501
  874TIP3   OH224180   5.622   3.899   2.428 -0.6631  0.0015  0.6430
  874TIP3    H124181   5.662   3.919   2.512  2.3595  0.1207 -0.6915
  874TIP3    H224182   5.582   3.813   2.440 -2.2616  0.9377  2.7360
  875TIP3   OH224183   1.607   2.272   8.717 -0.2666 -0.5064 -0.1135
  875TIP3    H124184   1.582   2.181   8.703 -1.4802 -0.1713 -0.2840
  875TIP3    H224185   1.698   2.268   8.745  0.4585 -1.6101 -2.3782
  876TIP3   OH224186   6.332   5.278   1.195 -0.3677 -0.2478  0.5243
  876TIP3    H124187   6.269   5.280   1.267  0.5144 -0.9536  1.3421
  876TIP3    H224188   6.372   5.365   1.195  0.7986 -0.7438  1.9865
  877TIP3   OH224189   4.426   1.745   7.224 -0.0708  0.3253  0.4715
  877TIP3    H124190   4.367   1.742   7.299  0.3642  3.2302  1.0287
  877TIP3    H224191   4.501   1.795   7.255  1.9560 -1.7503 -0.7739
  878TIP3   OH224192   2.151   3.115   0.185 -0.2613  0.6119  0.4855
  878TIP3    H124193   2.216   3.048   0.207  0.3830  1.2613  0.6094
  878TIP3    H224194   2.094   3.073   0.121  1.8596  0.8604 -1.6895
  879TIP3   OH224195   2.958   4.275   7.616 -0.0149 -0.1591  0.2414
  879TIP3    H124196   2.874   4.320   7.611  0.2909  0.3300 -0.7343
  879TIP3    H224197   2.971   4.238   7.529  0.9568  0.0881  0.2693
  880TIP3   OH224198   2.367   5.557   0.627  0.0042 -0.2847 -0.2493
  880TIP3    H124199   2.405   5.594   0.707 -0.5600 -0.0205 -0.1003
  880TIP3    H224200   2.420   5.479   0.610 -0.3562 -0.7827  0.8116
  881TIP3   OH224201   4.748   0.281   7.067  0.2417  0.0647  0.0732
  881TIP3    H124202   4.673   0.222   7.069 -0.6832  1.1599 -0.8837
  881TIP3    H224203   4.819   0.232   7.108 -1.3351 -0.5034  2.2848
  882TIP3   OH224204   4.020   1.275   0.737 -0.4318 -0.3563  0.1354
  882TIP3    H124205   3.979   1.232   0.812  1.8176  0.5768  2.0461
  882TIP3    H224206   3.968   1.354   0.722 -1.9786 -1.4590 -0.5452
  883TIP3   OH224207   2.425   5.327   2.039 -0.1902 -0.4437 -0.2396
  883TIP3    H124208   2.444   5.281   2.121  1.7238  1.4544  0.4814
  883TIP3    H224209   2.406   5.258   1.976 -1.5880 -1.9596  1.7455
  884TIP3   OH224210   4.828   1.680   7.359  0.0167  0.1726 -0.2374
  884TIP3    H124211   4.809   1.586   7.355  0.5637  0.0235  0.3988
  884TIP3    H224212   4.916   1.688   7.324 -0.6136  0.6645 -1.7695
  885TIP3   OH224213   1.329   1.489   0.843  0.8094  0.5091 -0.2791
  885TIP3    H124214   1.315   1.561   0.906  0.0060 -0.5019  0.7442
  885TIP3    H224215   1.258   1.499   0.780  0.8368  0.7515 -0.2738
  886TIP3   OH224216   2.201   3.602   7.422 -0.0075  0.0842  0.3811
  886TIP3    H124217   2.268   3.533   7.425 -1.2579 -1.2087 -0.3018
  886TIP3    H224218   2.126   3.560   7.381 -0.6302  2.0447 -0.5911
  887TIP3   OH224219   2.583   3.219   8.520 -0.2101 -0.2510 -0.3273
  887TIP3    H124220   2.491   3.220   8.547 -0.5496 -0.6246 -1.4084
  887TIP3    H224221   2.602   3.309   8.495 -1.0928 -0.6227 -2.5935
  888TIP3   OH224222   5.621   0.026   1.192 -0.1164  0.1638 -0.2501
  888TIP3    H124223   5.703   0.071   1.172 -0.4888  1.2301  0.5096
  888TIP3    H224224   5.559   0.058   1.127 -0.2777  0.4495  0.0392
  889TIP3   OH224225   2.317   1.276   7.530  0.5685  0.1576  0.3556
  889TIP3    H124226   2.322   1.357   7.478  1.5135 -0.0858  0.0546
  889TIP3    H224227   2.406   1.261   7.559  0.2955 -0.4938  0.8756
  890TIP3   OH224228   6.708   2.922   0.950  0.4793  0.2776 -0.2129
  890TIP3    H124229   6.722   2.835   0.912  1.7371  0.6500 -0.6471
  890TIP3    H224230   6.639   2.909   1.014 -0.0875 -0.8337 -1.0084
  891TIP3   OH224231   6.445   6.811   7.147 -0.3318 -0.0892 -0.0369
  891TIP3    H124232   6.540   6.827   7.145 -0.2557 -0.4676  0.4522
  891TIP3    H224233   6.428   6.779   7.235 -1.0743  0.8900  0.1981
  892TIP3   OH224234   0.404   1.926   2.115 -0.6012  0.0271 -0.3060
  892TIP3    H124235   0.473   1.881   2.066 -0.7164  1.6100 -2.0373
  892TIP3    H224236   0.385   1.868   2.188 -0.0895 -2.2568 -1.8723
  893TIP3   OH224237   4.157   1.205   1.053  0.2889 -0.0643 -0.2024
  893TIP3    H124238   4.093   1.276   1.053 -0.1498 -0.4379  0.9011
  893TIP3    H224239   4.238   1.245   1.022 -0.6183  0.2539 -2.3176
  894TIP3   OH224240   1.190   6.383   7.025  0.4622 -0.8380 -0.1466
  894TIP3    H124241   1.153   6.462   6.986 -1.5322 -1.7153 -0.1445
  894TIP3    H224242   1.196   6.403   7.118 -0.1961 -0.7482 -0.1214
  895TIP3   OH224243   3.729   1.794   0.309  0.5890  0.4123 -0.8281
  895TIP3    H124244   3.672   1.844   0.367  1.9748 -0.0013  0.9903
  895TIP3    H224245   3.803   1.768   0.364  1.0498 -1.6714 -2.2747
  896TIP3   OH224246   1.790   2.853   7.912  0.7966 -0.4345 -0.7545
  896TIP3    H124247   1.757   2.766   7.932  0.6336 -0.5763 -1.5934
  896TIP3    H224248   1.798   2.896   7.997  0.0641 -0.9750 -0.4021
  897TIP3   OH224249   6.052   6.796   7.515  0.1480 -0.1175 -0.3828
  897TIP3    H124250   6.138   6.827   7.486 -0.1670  1.0594 -0.0792
  897TIP3    H224251   6.052   6.812   7.609  0.2180 -1.6627 -0.0816
  898TIP3   OH224252   6.615   3.459   7.816  0.1792  0.1997  0.0825
  898TIP3    H124253   6.641   3.397   7.883 -0.5111  0.4409  0.5764
  898TIP3    H224254   6.528   3.430   7.788  0.2462  0.3971 -0.3469
  899TIP3   OH224255   2.159   6.783   1.881  0.1886  0.1187 -0.2334
  899TIP3    H124256   2.125   6.778   1.792  1.1110 -0.4011 -0.5655
  899TIP3    H224257   2.120   6.708   1.927  1.6764 -1.1058 -0.9021
  900TIP3   OH224258   0.507   0.799   6.252  0.4560 -0.5615  0.7380
  900TIP3    H124259   0.505   0.705   6.236 -0.0199 -0.1521 -2.0188
  900TIP3    H224260   0.422   0.818   6.291 -0.6541 -0.9281 -1.3622
  901TIP3   OH224261   1.435   0.696   8.059  0.3163  0.3171  0.4416
  901TIP3    H124262   1.380   0.717   7.983  1.4496  0.6314 -0.3264
  901TIP3    H224263   1.381   0.637   8.112 -0.8324  0.7812 -0.1638
  902TIP3   OH224264   5.264   6.009   8.040  0.6905  0.4419  0.2320
  902TIP3    H124265   5.340   6.049   8.082  0.2816  0.2163  1.2182
  902TIP3    H224266   5.189   6.040   8.091  0.2243 -0.2737  0.0031
  903TIP3   OH224267   5.014   3.747   6.193 -1.1728  0.4587 -0.2919
  903TIP3    H124268   4.976   3.792   6.117  0.2295 -0.2908 -1.4901
  903TIP3    H224269   5.093   3.797   6.213  1.0409 -1.9296 -2.3477
  904TIP3   OH224270   6.025   5.737   8.476  0.3314 -0.1087 -0.3818
  904TIP3    H124271   6.002   5.792   8.401  0.0992  0.5601  0.1681
  904TIP3    H224272   6.115   5.709   8.458 -0.3456 -1.4630 -1.7822
  905TIP3   OH224273   0.106   0.182   2.303 -0.1020  0.1163  0.1364
  905TIP3    H124274   0.152   0.266   2.302  0.3823 -0.1362  0.6518
  905TIP3    H224275   0.159   0.126   2.246  0.5576 -0.3340  1.1569
  906TIP3   OH224276   6.349   1.998   8.477  0.0306 -0.3439  0.3949
  906TIP3    H124277   6.328   2.032   8.390 -0.0698 -0.5297  0.3483
  906TIP3    H224278   6.391   2.072   8.521  1.9396 -0.8309 -0.4884
  907TIP3   OH224279   5.257   5.397   8.676 -0.3107 -0.1287 -0.0079
  907TIP3    H124280   5.311   5.441   8.610 -0.2680  1.4181  1.0029
  907TIP3    H224281   5.247   5.307   8.644  1.5401 -0.0204 -1.0087
  908TIP3   OH224282   4.963   0.546   7.663  0.0918  0.0678  0.5519
  908TIP3    H124283   4.909   0.611   7.618  0.9611  0.7992  0.5410
  908TIP3    H224284   5.039   0.534   7.606  1.0282  0.7265  1.6203
  909TIP3   OH224285   4.034   1.902   7.912 -0.5329  0.3116  0.3535
  909TIP3    H124286   4.128   1.918   7.916 -0.4531 -0.4353  3.1809
  909TIP3    H224287   3.995   1.988   7.927 -0.4360  1.0286 -2.8137
  910TIP3   OH224288   1.091   3.845   1.446  0.5030  0.4916 -0.3637
  910TIP3    H124289   1.066   3.896   1.368  0.6608  0.8152 -0.2021
  910TIP3    H224290   1.008   3.823   1.488  0.3904 -0.0714 -0.8682
  911TIP3   OH224291   3.702   2.841   7.340 -0.1629 -0.2856 -0.0149
  911TIP3    H124292   3.725   2.807   7.427  0.5840 -0.5070 -0.2866
  911TIP3    H224293   3.675   2.932   7.356  0.9316 -0.0040  0.3373
  912TIP3   OH224294   0.326   4.249   7.849 -0.4228  0.4555 -0.3177
  912TIP3    H124295   0.370   4.211   7.773 -1.9992 -2.0371 -0.1291
  912TIP3    H224296   0.290   4.332   7.818  1.7920  1.1251 -1.2677
  913TIP3   OH224297   5.324   5.049   8.080  0.3379 -0.0492  0.2584
  913TIP3    H124298   5.279   5.067   8.162  0.3483  1.1821  0.0212
  913TIP3    H224299   5.254   5.041   8.015  0.3910  0.6520  0.1046
  914TIP3   OH224300   2.079   2.057   0.743 -0.3732 -0.1207  0.1033
  914TIP3    H124301   2.128   2.105   0.810 -2.1826 -0.5780  1.8774
  914TIP3    H224302   2.028   1.993   0.793 -0.7265 -1.4685 -1.8842
  915TIP3   OH224303   4.855   0.971   0.263 -0.1499  0.1310 -0.5188
  915TIP3    H124304   4.781   1.033   0.258  1.4454  2.0971 -1.2631
  915TIP3    H224305   4.821   0.897   0.314 -2.6779  0.8585 -0.9820
  916TIP3   OH224306   5.676   2.767   7.681  0.0324 -0.3185  0.1870
  916TIP3    H124307   5.742   2.698   7.688  0.5342  0.0231 -0.8796
  916TIP3    H224308   5.714   2.841   7.728  1.3344  0.5045 -1.9890
  917TIP3   OH224309   5.248   4.872   6.465  0.1881  0.4142 -0.0825
  917TIP3    H124310   5.160   4.835   6.470 -0.2913  1.3196 -1.2711
  917TIP3    H224311   5.281   4.869   6.555 -0.6256 -0.9237  0.1980
  918TIP3   OH224312   1.572   0.494   6.698  0.2996  0.1424  0.0238
  918TIP3    H124313   1.506   0.438   6.660 -0.5478 -0.2447  1.9377
  918TIP3    H224314   1.655   0.462   6.662 -0.4367 -0.0774 -1.5453
  919TIP3   OH224315   2.437   3.229   2.038 -0.5099 -0.4019 -0.3614
  919TIP3    H124316   2.487   3.292   1.985  0.6186 -0.7028  0.3104
  919TIP3    H224317   2.463   3.249   2.128 -0.5065 -1.5161 -0.1051
  920TIP3   OH224318   6.234   2.096   0.034 -0.4606  0.1493 -0.3223
  920TIP3    H124319   6.287   2.124   0.108 -0.8052  0.1581 -0.0772
  920TIP3    H224320   6.291   2.106  -0.042 -0.8683  2.4537 -0.3824
  921TIP3   OH224321   2.700   0.492   7.199  0.1988  0.4730 -0.6763
  921TIP3    H124322   2.733   0.581   7.203  0.4197  0.4351 -1.4906
  921TIP3    H224323   2.773   0.438   7.230  0.1046  0.5603 -0.2956
  922TIP3   OH224324   3.662   2.462   1.692  0.0425 -0.1896  0.1450
  922TIP3    H124325   3.663   2.467   1.788  1.1757  1.4218  0.0930
  922TIP3    H224326   3.692   2.373   1.672 -1.6445 -1.0552  1.2748
  923TIP3   OH224327   3.671   5.575   7.469 -0.5195 -0.8465 -0.0250
  923TIP3    H124328   3.761   5.601   7.451 -0.7665  0.2798  0.2567
  923TIP3    H224329   3.653   5.504   7.407  0.2013 -0.3132 -0.8668
  924TIP3   OH224330   2.309   4.096   7.199  0.1162  0.0516  0.0062
  924TIP3    H124331   2.235   4.109   7.257  0.8954 -1.3137  1.3774
  924TIP3    H224332   2.270   4.086   7.112 -1.1380  1.2124  0.4062
  925TIP3   OH224333   0.258   1.249   6.915 -0.4229  0.4233 -0.0325
  925TIP3    H124334   0.223   1.192   6.846 -3.3214 -0.6543  2.1156
  925TIP3    H224335   0.342   1.208   6.939 -0.9157 -1.0661 -0.7245
  926TIP3   OH224336   3.942   0.475   7.375  0.5022  0.1674 -0.3029
  926TIP3    H124337   3.894   0.398   7.343  2.6987 -1.4039 -0.0318
  926TIP3    H224338   4.030   0.466   7.337  1.5746  1.1694  1.7852
  927TIP3   OH224339   1.446   1.103   0.196  0.0841  0.0849 -0.3737
  927TIP3    H124340   1.447   1.177   0.135  2.4372  1.4303  1.1329
  927TIP3    H224341   1.516   1.046   0.165  0.0740 -0.1279 -0.0114
  928TIP3   OH224342   3.601   1.264   8.110 -0.4628  0.0683  0.2325
  928TIP3    H124343   3.626   1.306   8.192  2.1519 -1.0288  0.0948
  928TIP3    H224344   3.559   1.182   8.136  0.7174 -0.4633  0.5043
  929TIP3   OH224345   6.460   0.934   7.727 -0.2745  0.2168 -0.2716
  929TIP3    H124346   6.425   0.877   7.795 -1.1650  1.8892  0.7376
  929TIP3    H224347   6.511   0.876   7.670 -1.7490 -1.6794  0.2677
  930TIP3   OH224348   0.515   1.832   7.021  0.6156  0.1232 -0.3957
  930TIP3    H124349   0.471   1.913   7.047  0.7974  0.1493 -0.1731
  930TIP3    H224350   0.553   1.853   6.936 -1.0646 -0.3507 -1.3178
  931TIP3   OH224351   2.370   0.855   0.662  0.0078  0.5180 -0.6711
  931TIP3    H124352   2.345   0.764   0.682  1.1031  0.6333  1.4065
  931TIP3    H224353   2.301   0.908   0.702  0.9862  0.6767  0.8529
  932TIP3   OH224354   0.782   3.647   8.219  0.2584 -0.4046  0.0533
  932TIP3    H124355   0.824   3.615   8.139 -0.9326  0.7324 -1.0826
  932TIP3    H224356   0.701   3.595   8.226  0.6280 -0.8957  0.8626
  933TIP3   OH224357   6.369   1.047   1.733 -0.1734 -0.0097 -0.0543
  933TIP3    H124358   6.427   1.052   1.809  1.2578  1.3571 -1.1574
  933TIP3    H224359   6.311   1.123   1.742 -0.3889 -0.1760 -0.0346
  934TIP3   OH224360   2.201   6.641   0.210  0.0938  0.2272  0.4294
  934TIP3    H124361   2.236   6.729   0.228  1.1822 -0.2830  0.9234
  934TIP3    H224362   2.261   6.604   0.146 -0.4355 -0.1159  0.1273
  935TIP3   OH224363   5.065   0.127   1.780  0.3764  0.2492  0.1838
  935TIP3    H124364   5.112   0.158   1.858 -1.1688  1.2282  0.7638
  935TIP3    H224365   5.099   0.181   1.708  0.8908  0.2166  0.3988
  936TIP3   OH224366   6.697   0.096   1.514  0.7238 -0.0402  0.9499
  936TIP3    H124367   6.670   0.109   1.423 -0.0401 -0.1352  1.1601
  936TIP3    H224368   6.627   0.133   1.566  0.2787 -1.5950  1.5179
  937TIP3   OH224369   2.503   2.826   8.536 -0.3901  0.2119 -0.5830
  937TIP3    H124370   2.414   2.809   8.567 -0.1631 -1.7095 -0.8702
  937TIP3    H224371   2.502   2.796   8.445 -0.4175  3.6067 -1.8603
  938TIP3   OH224372   4.593   0.352   0.605 -0.0162 -0.1359 -0.2195
  938TIP3    H124373   4.643   0.328   0.683 -0.6049 -0.6015  0.0292
  938TIP3    H224374   4.502   0.338   0.631 -0.2017 -0.6367 -1.1034
  939TIP3   OH224375   0.695   0.827   8.663  0.3347 -0.7190  0.0976
  939TIP3    H124376   0.652   0.743   8.680 -2.3740  0.4370 -0.4553
  939TIP3    H224377   0.644   0.890   8.713 -0.8623  1.2232 -3.2600
  940TIP3   OH224378   4.975   2.435   7.752 -0.6657 -0.0369  0.1656
  940TIP3    H124379   4.930   2.459   7.833 -1.3417 -0.6082 -0.0298
  940TIP3    H224380   5.066   2.425   7.777 -0.0084  3.9499  0.0474
  941TIP3   OH224381   4.266   3.096   7.097  0.2526  0.1786  0.3922
  941TIP3    H124382   4.244   3.004   7.085  1.8713 -0.3068  0.8758
  941TIP3    H224383   4.186   3.136   7.130 -0.6295 -0.9325 -0.3367
  942TIP3   OH224384   1.605   2.831   0.566  0.1098  0.3631  0.2630
  942TIP3    H124385   1.647   2.771   0.505  0.4707  0.0592  0.8042
  942TIP3    H224386   1.663   2.907   0.569 -0.0763  0.5188 -0.0175
  943TIP3   OH224387   0.439   2.344   7.906 -0.4826  0.0141 -0.1434
  943TIP3    H124388   0.485   2.358   7.988 -0.1451  1.3479 -0.5377
  943TIP3    H224389   0.437   2.249   7.896  2.5392 -0.1465 -0.2851
  944TIP3   OH224390   6.242   6.192   0.238 -0.0795  0.5236 -0.0436
  944TIP3    H124391   6.275   6.110   0.203  0.7527 -0.6791  3.1472
  944TIP3    H224392   6.150   6.194   0.213 -0.3131 -1.8148  0.4077
  945TIP3   OH224393   2.065   5.793   1.275 -0.6275  0.3785  0.1839
  945TIP3    H124394   2.011   5.734   1.328 -0.5182 -1.1527 -1.3205
  945TIP3    H224395   2.154   5.761   1.286 -0.7738 -1.1318 -2.2099
  946TIP3   OH224396   1.663   2.416   0.913 -0.5332  0.2203  0.0519
  946TIP3    H124397   1.688   2.327   0.889 -0.9248 -0.4928  2.0428
  946TIP3    H224398   1.742   2.454   0.949 -0.1055  1.0626 -1.6968
  947TIP3   OH224399   0.076   6.848   7.136 -0.3354 -0.0631 -0.1882
  947TIP3    H124400   0.088   6.804   7.220  0.1080  0.4847  0.0393
  947TIP3    H224401   0.121   6.793   7.073 -0.7737 -0.5418 -0.0925
  948TIP3   OH224402   5.939   5.088   8.604 -0.0603  0.1777  0.3072
  948TIP3    H124403   6.010   5.094   8.668 -0.9063  1.3623  1.1832
  948TIP3    H224404   5.983   5.069   8.521  1.2182  0.2736  0.9357
  949TIP3   OH224405   1.958   6.658   7.798 -0.2742  0.4041  0.1953
  949TIP3    H124406   1.871   6.652   7.760 -1.0078 -0.6730  1.9194
  949TIP3    H224407   2.004   6.723   7.744 -2.3635  1.5614 -0.2769
  950TIP3   OH224408   3.850   4.316   1.892 -0.2786 -0.4391 -0.5724
  950TIP3    H124409   3.761   4.281   1.901  0.1055 -1.3848 -0.3552
  950TIP3    H224410   3.837   4.406   1.863 -1.2958 -0.7025 -0.9825
  951TIP3   OH224411   4.251   3.558   6.851 -0.1975  0.0507  0.0303
  951TIP3    H124412   4.299   3.532   6.930  1.7376 -2.2805 -1.7922
  951TIP3    H224413   4.168   3.593   6.885  0.0581 -1.8738  3.0520
  952TIP3   OH224414   1.429   1.489   6.126  0.6811  0.0005 -0.5939
  952TIP3    H124415   1.458   1.559   6.068 -0.1974  0.7175 -0.1869
  952TIP3    H224416   1.334   1.502   6.133  0.5377 -1.0919 -0.3290
  953TIP3   OH224417   0.049   6.384   0.293  0.0597  0.1352 -0.3550
  953TIP3    H124418  -0.042   6.410   0.302  0.1414  0.5081 -0.5933
  953TIP3    H224419   0.097   6.443   0.351  0.3589  1.2174 -1.6302
  954TIP3   OH224420   4.418   5.555   0.693  0.2092 -0.3320  0.0633
  954TIP3    H124421   4.493   5.507   0.728 -0.6229 -0.4039  1.8997
  954TIP3    H224422   4.395   5.509   0.612  2.0749 -0.3473 -0.4824
  955TIP3   OH224423   4.758   3.098   8.539  0.1619 -0.2889 -0.2057
  955TIP3    H124424   4.815   3.049   8.480 -0.5033 -0.0849 -1.0471
  955TIP3    H224425   4.670   3.070   8.515 -0.0835 -1.2595  1.6693
  956TIP3   OH224426   1.916   0.190   2.384  0.4132  0.0582  0.2630
  956TIP3    H124427   1.969   0.244   2.325 -1.6485  1.8022 -0.1211
  956TIP3    H224428   1.857   0.252   2.427 -1.8010 -1.8326  0.1361
  957TIP3   OH224429   6.586   4.334   0.621 -0.6149 -0.4159  0.3031
  957TIP3    H124430   6.550   4.248   0.645  0.2345 -0.5220  1.2835
  957TIP3    H224431   6.681   4.322   0.625 -0.4602  0.1563 -1.1356
  958TIP3   OH224432   1.362   3.807   1.299 -0.4967 -0.0423  1.1467
  958TIP3    H124433   1.300   3.817   1.371  0.5549  3.6457  1.7766
  958TIP3    H224434   1.311   3.825   1.221 -1.0445 -1.2316  1.2114
  959TIP3   OH224435   0.786   2.571   7.244 -0.1679  0.4481  0.3730
  959TIP3    H124436   0.858   2.629   7.220  1.5843 -1.1798  1.4158
  959TIP3    H224437   0.815   2.484   7.217 -0.6245 -0.6018  2.9376
  960TIP3   OH224438   6.749   6.571   1.675 -0.0491 -0.2445 -0.8313
  960TIP3    H124439   6.805   6.629   1.727 -0.3843 -1.6798  1.2419
  960TIP3    H224440   6.667   6.566   1.723 -0.3934 -1.6015 -1.4910
  961TIP3   OH224441   1.066   0.693   0.028  0.4474  0.1943 -0.4035
  961TIP3    H124442   1.072   0.731  -0.059 -0.5128  3.4607  0.7764
  961TIP3    H224443   1.116   0.753   0.084  1.0481 -1.7850  1.3234
  962TIP3   OH224444   3.417   1.767   7.690 -0.6003 -0.1655 -0.5294
  962TIP3    H124445   3.445   1.701   7.626 -1.3389  0.3119 -1.3785
  962TIP3    H224446   3.468   1.844   7.669 -1.4580  0.2602 -1.1359
  963TIP3   OH224447   0.376   3.172   6.670 -0.1430  0.1989  0.4239
  963TIP3    H124448   0.382   3.263   6.699  0.3783 -0.0924  1.2652
  963TIP3    H224449   0.464   3.136   6.684 -0.4786 -0.5777  0.5851
  964TIP3   OH224450   6.179   5.282   7.176  0.3929 -0.1639  0.3726
  964TIP3    H124451   6.127   5.293   7.255 -1.0834 -0.1177 -0.5806
  964TIP3    H224452   6.207   5.190   7.179  1.0469  0.0439  1.3295
  965TIP3   OH224453   0.512   1.803   0.353 -0.2431 -0.0938 -0.8587
  965TIP3    H124454   0.519   1.891   0.317 -0.0584 -0.4055 -1.6078
  965TIP3    H224455   0.439   1.763   0.306  0.4889 -0.7624 -1.4623
  966TIP3   OH224456   1.283   1.992   0.206 -0.1288 -0.4375 -0.1770
  966TIP3    H124457   1.257   1.938   0.281  1.2050  0.7062  1.1587
  966TIP3    H224458   1.213   2.057   0.199 -0.7625 -1.1410 -0.5850
  967TIP3   OH224459   0.005   1.980   6.755 -0.6350  0.3164 -0.5684
  967TIP3    H124460  -0.018   1.970   6.662  1.2377  0.2364 -1.0650
  967TIP3    H224461   0.009   2.075   6.768  1.3661  0.3594 -1.2209
  968TIP3   OH224462   1.398   2.805   8.408  0.1091  0.0190 -0.7319
  968TIP3    H124463   1.414   2.870   8.476  1.3600 -0.3820 -0.6203
  968TIP3    H224464   1.343   2.738   8.450  0.5933 -0.0585 -0.2114
  969TIP3   OH224465   2.570   4.354   1.399 -0.0141  0.0402  0.0505
  969TIP3    H124466   2.561   4.262   1.371 -1.2287 -0.1065  0.8571
  969TIP3    H224467   2.649   4.354   1.454  0.9503 -0.1662 -1.2879
  970TIP3   OH224468   4.870   3.655   0.608 -0.0470  0.4209  0.0419
  970TIP3    H124469   4.842   3.711   0.535  0.0856  0.7902  0.2739
  970TIP3    H224470   4.947   3.699   0.644  0.0762  0.0724  0.2075
  971TIP3   OH224471   2.736   1.915   7.152 -0.3924 -0.0237 -0.4752
  971TIP3    H124472   2.734   1.912   7.247 -1.0894 -0.2991 -0.4967
  971TIP3    H224473   2.828   1.898   7.130 -0.0421  0.9393  0.1653
  972TIP3   OH224474   0.447   1.518   7.513  0.5682 -0.8788 -0.2782
  972TIP3    H124475   0.491   1.495   7.431 -0.5802 -0.6855 -0.9657
  972TIP3    H224476   0.354   1.502   7.496  0.0660  1.1974  0.2773
  973TIP3   OH224477   5.907   2.783   8.181  0.0439  0.0601  0.0174
  973TIP3    H124478   5.858   2.758   8.260 -0.4964 -0.4815 -0.4776
  973TIP3    H224479   5.997   2.795   8.212 -0.5385  2.0736  1.1520
  974TIP3   OH224480   3.345   5.302   7.077 -0.3291 -0.3574  0.1019
  974TIP3    H124481   3.297   5.219   7.083  1.1620 -1.5389 -2.4191
  974TIP3    H224482   3.428   5.284   7.120 -0.5312  0.3214  0.7905
  975TIP3   OH224483   4.513   1.558   0.086 -0.3177 -0.6243 -0.0498
  975TIP3    H124484   4.490   1.641   0.045 -1.0407 -0.7967  0.0045
  975TIP3    H224485   4.549   1.505   0.014  3.3291  0.8610  0.4846
  976TIP3   OH224486   2.825   2.787   0.913  0.5016  0.1365 -0.7380
  976TIP3    H124487   2.791   2.730   0.844  0.5042  2.6843 -3.0121
  976TIP3    H224488   2.756   2.852   0.928  1.0994  0.4938  0.6178
  977TIP3   OH224489   1.116   2.063   7.051 -0.1434  0.0367 -0.3603
  977TIP3    H124490   1.166   2.059   6.969  0.2416 -2.0177 -0.0839
  977TIP3    H224491   1.179   2.040   7.119 -0.4366  1.8233  0.5622
  978TIP3   OH224492   4.620   2.864   0.461 -0.0050 -0.3837 -0.6166
  978TIP3    H124493   4.570   2.845   0.382 -1.8461  0.7066  0.2130
  978TIP3    H224494   4.565   2.832   0.533  0.4114  0.9648  0.3480
  979TIP3   OH224495   5.258   6.376   2.408 -0.1361  0.6411  0.4238
  979TIP3    H124496   5.283   6.424   2.329  1.3244  3.4015  2.4002
  979TIP3    H224497   5.176   6.416   2.436 -1.4772 -1.3636 -0.4166
  980TIP3   OH224498   5.728   3.845   1.776 -0.5076 -0.0523 -1.1612
  980TIP3    H124499   5.714   3.762   1.730  2.1136 -1.0813 -0.2888
  980TIP3    H224500   5.720   3.822   1.869  1.0589  0.4491 -0.8777
  981TIP3   OH224501   0.371   3.196   1.075  0.3465  0.4486  0.2837
  981TIP3    H124502   0.385   3.106   1.046 -1.2408  0.2186  0.1249
  981TIP3    H224503   0.398   3.250   1.001  0.4779  0.0645  0.0507
  982TIP3   OH224504   3.801   5.993   0.013  0.0659  0.3381 -1.0085
  982TIP3    H124505   3.795   5.977   0.107 -0.1062  0.8028 -0.9378
  982TIP3    H224506   3.852   5.919  -0.021 -2.3445 -1.4469 -0.9862
  983TIP3   OH224507   4.164   1.931   1.300 -0.4271  0.1984  0.1737
  983TIP3    H124508   4.212   1.911   1.219 -1.5208 -1.1029 -0.2046
  983TIP3    H224509   4.232   1.942   1.366  0.4825  0.9731 -0.8425
  984TIP3   OH224510   6.843   2.425   6.867 -0.3629 -0.0582  0.2105
  984TIP3    H124511   6.819   2.398   6.778 -2.9409  0.9874  0.4873
  984TIP3    H224512   6.863   2.518   6.860 -1.2089  0.1853  0.7695
  985TIP3   OH224513   3.412   3.864   0.311 -0.6612 -0.1517 -0.4420
  985TIP3    H124514   3.341   3.888   0.251 -0.2128 -0.9089 -1.2788
  985TIP3    H224515   3.450   3.785   0.274  0.6959  0.3024 -0.0498
  986TIP3   OH224516   3.583   4.211   1.886 -0.3579  0.0943 -0.2063
  986TIP3    H124517   3.540   4.128   1.870 -0.5024  0.1234  0.0308
  986TIP3    H224518   3.514   4.269   1.918 -0.1353  0.1238  0.2301
  987TIP3   OH224519   6.826   2.193   1.536  0.1170  0.6977  0.4495
  987TIP3    H124520   6.791   2.163   1.619 -0.6738 -0.5785 -0.3192
  987TIP3    H224521   6.759   2.171   1.471  0.8993  1.2583 -0.5943
  988TIP3   OH224522   0.748   2.759   1.830 -0.2580 -0.5748 -0.1982
  988TIP3    H124523   0.719   2.669   1.849 -1.8909  0.0160  0.2859
  988TIP3    H224524   0.828   2.769   1.881 -0.4788 -1.4992  0.3662
  989TIP3   OH224525   2.223   5.064   7.848  0.1416 -0.6345 -0.3223
  989TIP3    H124526   2.298   5.024   7.804 -0.0480 -0.3986 -0.8750
  989TIP3    H224527   2.251   5.154   7.864  0.9468 -1.2183  1.8250
  990TIP3   OH224528   5.872   6.277   2.324  0.4006 -0.3464  0.0257
  990TIP3    H124529   5.921   6.337   2.267  0.3739 -0.4422 -0.0974
  990TIP3    H224530   5.781   6.288   2.297  0.4539 -0.8389 -0.3625
  991TIP3   OH224531   4.710   6.770   0.191 -0.1475  0.2043  0.3309
  991TIP3    H124532   4.682   6.712   0.261  1.9665  0.9352  1.8565
  991TIP3    H224533   4.730   6.711   0.118 -2.1877 -0.5726  0.3162
  992TIP3   OH224534   6.140   3.046   1.718 -0.0117  0.4479 -0.3663
  992TIP3    H124535   6.195   3.117   1.685  0.8743  0.6748  1.4646
  992TIP3    H224536   6.181   3.020   1.801 -1.7130 -0.5280  0.2232
  993TIP3   OH224537   0.379   0.827   8.030 -0.2194 -0.2741 -0.0645
  993TIP3    H124538   0.458   0.788   8.067 -0.4350  0.1365  0.8768
  993TIP3    H224539   0.337   0.757   7.981 -0.8558 -1.4110  1.9888
  994TIP3   OH224540   0.106   6.176   7.136 -0.0750 -0.4681 -0.3772
  994TIP3    H124541   0.193   6.176   7.096 -0.0549 -0.9862 -0.3433
  994TIP3    H224542   0.048   6.144   7.067 -0.5657  1.7217 -1.0534
  995TIP3   OH224543   3.575   6.816   8.170 -0.1097  0.1890  0.0728
  995TIP3    H124544   3.545   6.784   8.255  1.4113 -1.2913  0.1010
  995TIP3    H224545   3.501   6.799   8.111 -2.0801  3.3063  1.4304
  996TIP3   OH224546   5.547   1.055   7.140  0.2858  0.7358 -0.6359
  996TIP3    H124547   5.560   0.963   7.120  0.2868  0.7565 -0.7289
  996TIP3    H224548   5.576   1.102   7.062  1.6684  0.8898 -0.0799
  997TIP3   OH224549   5.909   5.296   8.160  0.6349  0.3547 -0.4347
  997TIP3    H124550   5.867   5.380   8.174 -0.6492 -0.3295 -0.0188
  997TIP3    H224551   5.966   5.285   8.236  0.0277  0.4069  0.0416
  998TIP3   OH224552   5.410   1.572   8.461  0.2096  0.4460  0.0489
  998TIP3    H124553   5.477   1.605   8.520  1.1797  1.3725 -1.4870
  998TIP3    H224554   5.420   1.476   8.465  2.0797  0.5546 -0.5693
  999TIP3   OH224555   3.032   1.413   1.285  0.3960  0.8205  0.0917
  999TIP3    H124556   3.013   1.319   1.277 -0.6313  1.0573 -0.2760
  999TIP3    H224557   3.079   1.435   1.204  1.8603  0.3546  0.7685
 1000TIP3   OH224558   0.404   0.408   0.237 -0.0545  0.1711  0.2240
 1000TIP3    H124559   0.383   0.489   0.190 -2.5159 -0.2993  0.3841
 1000TIP3    H224560   0.328   0.392   0.292  0.5054 -2.0936  0.4310
 1001TIP3   OH224561   0.095   4.171   6.397 -0.2576 -0.6656  0.1400
 1001TIP3    H124562   0.036   4.099   6.376 -1.0121  0.0908 -0.3594
 1001TIP3    H224563   0.119   4.208   6.312 -1.5193  0.9745  0.4673
 1002TIP3   OH224564   1.412   4.538   0.141  0.3099  0.1020 -0.1052
 1002TIP3    H124565   1.368   4.485   0.075  0.3062 -0.7078  0.5374
 1002TIP3    H224566   1.351   4.609   0.160 -0.8785 -1.1411  0.9585
 1003TIP3   OH224567   5.557   4.989   6.461 -0.0868  0.0533 -0.1177
 1003TIP3    H124568   5.545   4.894   6.456  2.4370 -0.4951  2.2245
 1003TIP3    H224569   5.496   5.017   6.529 -0.3549  0.0055 -0.3379
 1004TIP3   OH224570   0.638   3.076   7.889  0.6371 -0.0647  0.3071
 1004TIP3    H124571   0.567   3.132   7.922 -0.2754 -0.9844 -0.0500
 1004TIP3    H224572   0.657   3.017   7.962 -0.7016 -1.4487 -0.4153
 1005TIP3   OH224573   3.527   0.772   7.603  0.0139 -0.7120  0.0269
 1005TIP3    H124574   3.495   0.833   7.670 -1.8999  0.4145 -1.7506
 1005TIP3    H224575   3.471   0.695   7.612  0.2659 -0.8722  0.2171
 1006TIP3   OH224576   5.513   1.150   0.480 -0.0544 -0.8906 -0.3166
 1006TIP3    H124577   5.542   1.218   0.420 -0.4511  0.3773  0.8838
 1006TIP3    H224578   5.433   1.185   0.519 -0.8565 -2.4971 -0.4135
 1007TIP3   OH224579   1.719   1.713   1.437 -0.1848 -0.0539  0.0593
 1007TIP3    H124580   1.674   1.748   1.514  1.8449 -0.8826  1.7051
 1007TIP3    H224581   1.713   1.618   1.447  0.1247 -0.1749 -0.8176
 1008TIP3   OH224582   1.065   3.251   6.462 -0.0176  0.3491  0.0377
 1008TIP3    H124583   1.017   3.308   6.402 -0.5643  0.3081  0.4238
 1008TIP3    H224584   1.130   3.207   6.408 -0.5639  0.2441 -0.5403
 1009TIP3   OH224585   2.984   5.147   1.806 -0.3473 -0.3338  0.1744
 1009TIP3    H124586   3.065   5.177   1.846 -1.1044  0.4678  1.1639
 1009TIP3    H224587   3.007   5.064   1.764  1.1501  0.2633 -0.2557
 1010TIP3   OH224588   3.715   2.115   1.627 -0.7985 -0.8851 -0.1250
 1010TIP3    H124589   3.786   2.051   1.617 -0.2618 -0.1747 -0.9209
 1010TIP3    H224590   3.657   2.075   1.692 -2.2622 -3.8049 -2.9085
 1011TIP3   OH224591   2.664   3.826   7.648  0.2612  0.2250 -0.2007
 1011TIP3    H124592   2.743   3.873   7.673 -0.5566  0.1455  2.8963
 1011TIP3    H224593   2.598   3.894   7.636 -0.8442  0.1554  3.9889
 1012TIP3   OH224594   1.445   5.012   0.297  0.2271 -0.1186 -0.0466
 1012TIP3    H124595   1.506   4.987   0.228 -1.2870  1.2084 -1.9939
 1012TIP3    H224596   1.376   4.946   0.294 -1.4233  1.5451 -2.0505
 1013TIP3   OH224597   2.012   5.576   1.460  0.1290  0.0082  0.4673
 1013TIP3    H124598   1.922   5.566   1.493  0.9556 -0.9228  2.5814
 1013TIP3    H224599   2.037   5.488   1.431  1.2233 -0.3493  2.3491
 1014TIP3   OH224600   4.957   3.084   6.511 -0.4171  0.3738 -0.2555
 1014TIP3    H124601   5.046   3.050   6.512 -1.7927 -3.7595  0.4983
 1014TIP3    H224602   4.927   3.074   6.602 -1.6282  1.9166 -0.4398
 1015TIP3   OH224603   3.293   2.830   8.619 -0.0977 -0.1702 -0.3717
 1015TIP3    H124604   3.226   2.773   8.656  1.9010 -2.4233 -0.0005
 1015TIP3    H224605   3.271   2.918   8.651 -2.2274 -0.9908  0.5693
 1016TIP3   OH224606   3.110   5.686   0.047 -0.3210  0.4522  0.0544
 1016TIP3    H124607   3.069   5.719  -0.032 -0.3554  0.8164  0.2236
 1016TIP3    H224608   3.174   5.621   0.016  0.5944  1.5203 -0.3658
 1017TIP3   OH224609   4.278   6.603   7.133  0.3201  0.2471  0.7168
 1017TIP3    H124610   4.358   6.608   7.186  1.2533  2.8518 -0.7602
 1017TIP3    H224611   4.306   6.558   7.053  0.3601  1.2167  0.1735
 1018TIP3   OH224612   5.689   6.216   8.394 -0.2691 -0.1209  0.1311
 1018TIP3    H124613   5.675   6.134   8.441  2.2077 -0.6532  0.0618
 1018TIP3    H224614   5.776   6.207   8.355 -0.3617  2.1402 -0.7410
 1019TIP3   OH224615   5.329   1.266   0.818  0.3489 -0.3641  0.1206
 1019TIP3    H124616   5.251   1.317   0.796  1.5100  1.6426  0.4185
 1019TIP3    H224617   5.296   1.192   0.869 -1.2428  1.1857  1.4574
 1020TIP3   OH224618   4.865   2.031   7.696 -0.7605  0.4852  0.2610
 1020TIP3    H124619   4.956   2.024   7.667 -0.8935 -0.7468  0.0706
 1020TIP3    H224620   4.871   2.040   7.791 -0.4258  1.2179  0.1793
 1021TIP3   OH224621   3.723   3.513   1.570  1.1041  0.0574  0.3532
 1021TIP3    H124622   3.771   3.584   1.613  0.3966  0.0229  1.2170
 1021TIP3    H224623   3.762   3.433   1.605  1.1100  0.0233  0.2694
 1022TIP3   OH224624   6.129   2.513   8.434  0.0837  0.7633 -0.1090
 1022TIP3    H124625   6.221   2.491   8.445 -0.0732  0.3830  0.4761
 1022TIP3    H224626   6.111   2.494   8.342 -0.2270 -2.3480  0.4849
 1023TIP3   OH224627   0.514   0.434   1.020 -0.1545 -0.2046  0.4488
 1023TIP3    H124628   0.500   0.469   1.107 -1.2505  0.7093 -0.0704
 1023TIP3    H224629   0.587   0.486   0.985 -0.6996  0.4753  0.2881
 1024TIP3   OH224630   5.335   3.485   7.834 -0.0302 -0.3616  0.2828
 1024TIP3    H124631   5.421   3.451   7.807  0.5291 -0.0944  1.6321
 1024TIP3    H224632   5.310   3.545   7.763  1.2553  0.1296  0.2139
 1025TIP3   OH224633   2.752   2.927   7.326 -0.0524  0.3143 -0.1487
 1025TIP3    H124634   2.835   2.954   7.367 -0.7194  1.2462  0.6530
 1025TIP3    H224635   2.775   2.853   7.271  1.1708  0.0116  0.7248
 1026TIP3   OH224636   4.242   6.804   6.622 -0.9121 -0.4577 -0.0603
 1026TIP3    H124637   4.230   6.829   6.714 -1.4000 -4.3981  1.0941
 1026TIP3    H224638   4.165   6.838   6.578 -0.8360  1.2061  0.9966
 1027TIP3   OH224639   5.712   0.902   7.913  0.6858  0.6338 -0.0945
 1027TIP3    H124640   5.627   0.864   7.933  0.4929  0.1769 -1.6618
 1027TIP3    H224641   5.734   0.953   7.991 -1.0858  0.8787  0.2974
 1028TIP3   OH224642   2.560   5.391   6.458  0.1520 -0.2575  0.2903
 1028TIP3    H124643   2.645   5.425   6.430 -0.4915  0.0316 -1.4139
 1028TIP3    H224644   2.563   5.298   6.436 -0.2784 -0.0705 -0.6093
 1029TIP3   OH224645   3.729   3.213   7.749  0.0811  0.3557 -0.1124
 1029TIP3    H124646   3.766   3.256   7.672  0.2555 -0.7791 -0.6734
 1029TIP3    H224647   3.668   3.148   7.715  0.4702 -0.4564  0.6781
 1030TIP3   OH224648   0.725   2.087   6.681  0.1907 -0.4270  0.0222
 1030TIP3    H124649   0.691   2.176   6.685  0.5028 -0.2391 -1.1364
 1030TIP3    H224650   0.745   2.073   6.588  1.9148 -1.0356  0.4468
 1031TIP3   OH224651   4.189   5.900   0.946  0.3325  0.2631  0.2945
 1031TIP3    H124652   4.202   5.810   0.978 -0.4919 -0.3698 -1.0625
 1031TIP3    H224653   4.120   5.935   1.003 -1.8144 -1.1789 -1.2319
 1032TIP3   OH224654   0.877   2.250   6.919  0.0746  0.4507  0.2311
 1032TIP3    H124655   0.882   2.298   6.837  1.2902 -0.3551 -0.2054
 1032TIP3    H224656   0.869   2.158   6.893  0.0699  0.2185  1.0101
 1033TIP3   OH224657   3.385   1.165   7.654  0.3620  0.6184  0.0159
 1033TIP3    H124658   3.357   1.163   7.562 -1.5023  1.0139  0.5316
 1033TIP3    H224659   3.471   1.124   7.653 -0.6878 -1.7925 -1.5506
 1034TIP3   OH224660   5.805   3.423   1.554 -0.7006 -0.3941  0.1341
 1034TIP3    H124661   5.874   3.489   1.545 -2.7612  1.6862 -1.8326
 1034TIP3    H224662   5.851   3.340   1.551  1.7607  0.8990 -0.7324
 1035TIP3   OH224663   4.065   0.539   8.680  0.4517 -0.2964 -0.4911
 1035TIP3    H124664   4.087   0.510   8.592  0.1129  0.2271 -0.7566
 1035TIP3    H224665   4.108   0.477   8.738  0.2852 -0.9224 -1.0330
 1036TIP3   OH224666   6.194   1.377   6.452 -0.2795  0.2280  0.2603
 1036TIP3    H124667   6.260   1.309   6.436  0.0910  0.9380 -1.4841
 1036TIP3    H224668   6.125   1.360   6.388  0.0255  1.7102 -0.5232
 1037TIP3   OH224669   6.797   0.737   8.522 -0.0134 -0.4328  0.4950
 1037TIP3    H124670   6.856   0.777   8.586 -2.6575  0.5977  2.4775
 1037TIP3    H224671   6.786   0.804   8.454  0.8070 -0.4990  0.2966
 1038TIP3   OH224672   2.823   4.894   7.725  0.0477 -0.3054  0.4051
 1038TIP3    H124673   2.740   4.858   7.758 -0.0827  0.4514  0.9271
 1038TIP3    H224674   2.820   4.987   7.749  1.7880 -0.5856  1.9342
 1039TIP3   OH224675   3.400   2.331   6.633  0.2503  0.4919  0.1752
 1039TIP3    H124676   3.423   2.261   6.694 -0.4988  0.2376  0.1790
 1039TIP3    H224677   3.468   2.397   6.645  0.1646  0.4070  1.2295
 1040TIP3   OH224678   5.628   2.361   0.740  0.4567 -0.4659 -0.4583
 1040TIP3    H124679   5.582   2.445   0.734  0.5332 -0.0301  3.0381
 1040TIP3    H224680   5.569   2.306   0.793  1.8397 -1.4840  0.0797
 1041TIP3   OH224681   1.067   6.451   8.412  0.2403 -0.4645 -0.5757
 1041TIP3    H124682   1.144   6.500   8.381  0.3630 -0.4789 -0.2950
 1041TIP3    H224683   1.103   6.388   8.475 -0.3726  1.7315  2.1486
 1042TIP3   OH224684   1.564   1.952   6.639  0.3756  0.2211  0.6548
 1042TIP3    H124685   1.648   1.996   6.649  0.1112  0.8384  0.2074
 1042TIP3    H224686   1.574   1.901   6.558 -0.3198  1.8358 -0.5083
 1043TIP3   OH224687   0.318   6.001   6.377 -0.0960 -0.0483  0.2611
 1043TIP3    H124688   0.406   5.966   6.362  0.0389 -0.3908  1.6429
 1043TIP3    H224689   0.325   6.094   6.356  0.7950  0.0691  1.0041
 1044TIP3   OH224690   5.160   5.602   0.096  0.1322 -0.3563  0.4612
 1044TIP3    H124691   5.181   5.605   0.189  1.3008 -0.7776  0.2278
 1044TIP3    H224692   5.212   5.530   0.061 -2.1016 -1.8028 -0.1019
 1045TIP3   OH224693   5.725   1.207   7.470  0.1606  0.3710 -0.3389
 1045TIP3    H124694   5.726   1.164   7.555 -1.1725  2.1439  0.6168
 1045TIP3    H224695   5.761   1.141   7.410  0.1363 -1.2902  1.3860
 1046TIP3   OH224696   3.743   1.873   1.259  0.0615  0.0800  0.1646
 1046TIP3    H124697   3.660   1.912   1.231  0.0043 -1.3253 -1.8178
 1046TIP3    H224698   3.804   1.947   1.262 -0.2665  0.5812 -2.5403
 1047TIP3   OH224699   3.323   4.814   7.699 -0.2101 -0.4524 -0.4388
 1047TIP3    H124700   3.311   4.724   7.670  0.4136 -0.6463 -0.1157
 1047TIP3    H224701   3.267   4.822   7.776  0.1605 -0.7410 -0.1325
 1048TIP3   OH224702   2.781   1.412   1.819  0.2601 -0.3997  0.2093
 1048TIP3    H124703   2.874   1.391   1.820  0.1380 -1.2991 -1.7688
 1048TIP3    H224704   2.737   1.327   1.829 -0.3214 -0.1614 -0.2444
 1049TIP3   OH224705   6.612   6.413   6.920 -0.2638  1.1033 -0.0259
 1049TIP3    H124706   6.655   6.481   6.868  0.0891  0.9616  0.0810
 1049TIP3    H224707   6.602   6.339   6.861  0.9070  0.6351  0.3341
 1050TIP3   OH224708   3.187   4.309   0.126 -0.0947  0.1147  0.5445
 1050TIP3    H124709   3.250   4.372   0.161 -0.8491  0.2873  1.6576
 1050TIP3    H224710   3.107   4.326   0.175 -0.9347 -0.2850 -0.6528
 1051TIP3   OH224711   5.568   5.485   1.626  0.5502 -0.5000 -0.4289
 1051TIP3    H124712   5.554   5.547   1.554 -0.1974  0.6617  0.6563
 1051TIP3    H224713   5.637   5.427   1.595 -0.5792 -0.8121 -2.5425
 1052TIP3   OH224714   0.859   2.305   1.781  0.9281  0.5717 -0.0812
 1052TIP3    H124715   0.916   2.380   1.796  1.3218  0.1002  0.9153
 1052TIP3    H224716   0.901   2.233   1.829 -0.1862  0.0679  0.1814
 1053TIP3   OH224717   3.498   1.242   1.061 -0.1127 -0.0383 -0.4997
 1053TIP3    H124718   3.476   1.162   1.109  0.8345 -1.2277 -1.9652
 1053TIP3    H224719   3.496   1.311   1.128 -1.7648 -1.1243  0.6299
 1054TIP3   OH224720   4.880   2.777   7.676  0.3060 -0.2087 -0.2571
 1054TIP3    H124721   4.792   2.740   7.668 -0.0980  0.4987  0.6900
 1054TIP3    H224722   4.936   2.716   7.629 -0.5984 -1.0261 -0.3102
 1055TIP3   OH224723   5.971   1.985   7.608  0.1218  0.3805 -0.1276
 1055TIP3    H124724   5.878   1.991   7.589  0.5745  0.1795 -2.9032
 1055TIP3    H224725   6.001   1.909   7.557  1.5487 -0.5847  2.0143
 1056TIP3   OH224726   5.599   2.384   1.751  0.1366 -0.5654 -0.1556
 1056TIP3    H124727   5.589   2.366   1.658  1.1399 -0.7386 -0.2411
 1056TIP3    H224728   5.623   2.299   1.789 -1.2222 -0.7161  0.4252
 1057TIP3   OH224729   6.699   4.140   0.447 -0.0183 -0.4006 -0.3262
 1057TIP3    H124730   6.737   4.203   0.386 -0.4259 -1.7069 -2.0053
 1057TIP3    H224731   6.764   4.070   0.452 -1.1456 -1.5696 -1.4271
 1058TIP3   OH224732   1.853   1.502   6.921 -0.3414 -0.5024  0.3371
 1058TIP3    H124733   1.786   1.443   6.888  0.4791 -0.5854 -1.3452
 1058TIP3    H224734   1.902   1.528   6.842  0.9078  0.3952  1.3630
 1059TIP3   OH224735   1.026   1.891   1.519 -0.2575 -0.0462  0.6039
 1059TIP3    H124736   0.971   1.830   1.470 -3.1170  1.9390  1.1298
 1059TIP3    H224737   1.027   1.856   1.608 -0.2513 -0.3583  0.4825
 1060TIP3   OH224738   1.628   4.000   1.089  0.0944 -0.3483  0.3917
 1060TIP3    H124739   1.669   4.086   1.093 -1.3311  0.4130 -0.3262
 1060TIP3    H224740   1.534   4.018   1.096 -0.5719 -1.4239 -3.2256
 1061TIP3   OH224741   5.779   6.078   6.873  0.3156 -0.7321 -0.3524
 1061TIP3    H124742   5.850   6.128   6.834  0.2737 -0.3277  0.0740
 1061TIP3    H224743   5.807   6.063   6.963 -0.1504 -0.5348 -0.1696
 1062TIP3   OH224744   3.472   0.728   0.939  0.8709 -0.0489  0.2110
 1062TIP3    H124745   3.452   0.813   0.900  1.2922 -0.7111 -1.5294
 1062TIP3    H224746   3.545   0.694   0.887 -1.6702 -3.1078 -1.6804
 1063TIP3   OH224747   3.631   0.444   2.372 -0.0091  0.3408  0.4547
 1063TIP3    H124748   3.631   0.447   2.467 -3.3477 -0.9438  0.6046
 1063TIP3    H224749   3.675   0.362   2.350  3.1421  1.8266  0.6308
 1064TIP3   OH224750   4.360   2.040   0.499 -0.4259 -0.3273 -0.0363
 1064TIP3    H124751   4.358   1.948   0.473 -1.6867 -0.3151 -0.0591
 1064TIP3    H224752   4.383   2.087   0.419 -0.3360 -0.5835 -0.1604
 1065TIP3   OH224753   2.552   5.425   0.130  1.1057 -0.2884 -0.6665
 1065TIP3    H124754   2.552   5.491   0.199  1.0746 -1.9859  1.0621
 1065TIP3    H224755   2.645   5.411   0.110  1.0949  0.5233 -1.3045
 1066TIP3   OH224756   5.788   6.322   0.524  0.3058  0.0108 -0.8700
 1066TIP3    H124757   5.737   6.275   0.590  1.9721 -0.1304  0.3833
 1066TIP3    H224758   5.814   6.404   0.566 -0.1171  0.7697 -2.0177
 1067TIP3   OH224759   3.665   0.974   8.688 -0.4927  0.6657 -0.6197
 1067TIP3    H124760   3.711   1.036   8.632  0.5182  2.0336  1.5723
 1067TIP3    H224761   3.703   0.889   8.666 -1.2023  0.9124 -2.9954
 1068TIP3   OH224762   4.757   6.126   0.543  0.0653  0.3882  0.2665
 1068TIP3    H124763   4.829   6.110   0.481  0.2104 -2.0590  0.9655
 1068TIP3    H224764   4.784   6.204   0.591  2.0945 -0.2220  0.2325
 1069TIP3   OH224765   0.062   0.324   7.786 -0.2483 -0.1227  0.3020
 1069TIP3    H124766  -0.024   0.346   7.821 -0.5812 -0.3639 -0.3392
 1069TIP3    H224767   0.061   0.360   7.697  0.8177  1.0512  0.7376
 1070TIP3   OH224768   6.057   2.455   0.638  0.4374 -1.3811 -0.1467
 1070TIP3    H124769   6.097   2.540   0.620 -4.7990  2.4536  3.2596
 1070TIP3    H224770   6.032   2.421   0.552  2.0153  0.8867 -1.6039
 1071TIP3   OH224771   6.618   6.839   1.783  0.6961 -0.3694  0.2180
 1071TIP3    H124772   6.695   6.840   1.726 -0.5987 -2.2528 -1.7648
 1071TIP3    H224773   6.651   6.812   1.869  2.3543 -0.1820 -0.3286
 1072TIP3   OH224774   6.417   2.013   0.339 -0.2318 -0.0502 -0.2934
 1072TIP3    H124775   6.413   2.041   0.430  0.0179  0.0075 -0.3004
 1072TIP3    H224776   6.510   1.996   0.322 -0.3514 -0.6849 -0.3482
 1073TIP3   OH224777   5.664   4.589   1.854  0.2931 -0.4467 -0.0998
 1073TIP3    H124778   5.598   4.540   1.903  0.9484  0.3488  1.6704
 1073TIP3    H224779   5.695   4.656   1.916  1.1772  0.6115 -1.6172
 1074TIP3   OH224780   1.319   0.594   1.413 -0.8249 -0.8921 -0.2604
 1074TIP3    H124781   1.297   0.639   1.331 -0.4548 -1.3092 -0.5963
 1074TIP3    H224782   1.259   0.520   1.416 -0.3749 -1.2797 -0.5185
 1075TIP3   OH224783   0.263   1.520   0.432 -0.2908 -0.1961 -0.5448
 1075TIP3    H124784   0.288   1.593   0.376  0.4664  0.0105  0.0422
 1075TIP3    H224785   0.328   1.452   0.413 -0.4158 -0.3590 -0.3912
 1076TIP3   OH224786   4.112   4.599   7.654  0.4653  0.1047 -0.8852
 1076TIP3    H124787   4.076   4.511   7.641 -1.3908  0.9248 -1.5990
 1076TIP3    H224788   4.111   4.611   7.749 -2.0370  0.3819 -0.8804
 1077TIP3   OH224789   1.894   1.901   6.704  0.8489  0.6737 -0.0027
 1077TIP3    H124790   1.960   1.867   6.643  0.4318  1.2265 -0.7877
 1077TIP3    H224791   1.872   1.987   6.669 -1.3241 -0.0595 -0.5868
 1078TIP3   OH224792   0.114   2.755   8.468  0.2097  0.3612  0.2795
 1078TIP3    H124793   0.106   2.742   8.374  2.8329 -0.8667  0.1438
 1078TIP3    H224794   0.208   2.765   8.483  0.0535 -1.1653  2.9271
 1079TIP3   OH224795   6.797   2.626   0.974 -0.6189 -0.1737 -0.1315
 1079TIP3    H124796   6.784   2.535   0.947  3.4331 -0.1592 -3.0075
 1079TIP3    H224797   6.835   2.619   1.061 -1.6339 -1.1093  0.2646
 1080TIP3   OH224798   5.270   3.534   8.625  0.3312  0.3385  0.0468
 1080TIP3    H124799   5.233   3.455   8.665  1.3905  0.1265  0.6306
 1080TIP3    H224800   5.222   3.543   8.543 -1.3702  0.3516  0.9828
 1081TIP3   OH224801   4.320   0.431   8.207  0.2686 -0.3272 -0.1699
 1081TIP3    H124802   4.284   0.402   8.123  1.7269  1.9637 -1.7046
 1081TIP3    H224803   4.364   0.354   8.243 -1.4632 -1.7012 -0.8324
 1082TIP3   OH224804   5.240   3.807   0.230  0.0806 -0.4889  0.1050
 1082TIP3    H124805   5.295   3.808   0.308  1.3989 -2.1332 -0.7468
 1082TIP3    H224806   5.152   3.786   0.262  0.7090 -1.7204  1.1114
 1083TIP3   OH224807   0.461   2.257   0.842 -0.0435 -0.3584  0.2178
 1083TIP3    H124808   0.455   2.239   0.748  0.3458 -2.3506  0.5356
 1083TIP3    H224809   0.551   2.284   0.856 -0.2283  0.4077 -0.0465
 1084TIP3   OH224810   4.385   2.156   0.260 -0.1489  0.1656 -0.5180
 1084TIP3    H124811   4.401   2.244   0.227  1.8196 -0.5206 -1.5572
 1084TIP3    H224812   4.472   2.115   0.261 -0.9885 -1.6768  0.1699
 1085TIP3   OH224813   2.708   1.306   1.140  0.2156  0.1309 -0.2329
 1085TIP3    H124814   2.663   1.357   1.207  0.2777  0.5967 -0.5384
 1085TIP3    H224815   2.790   1.280   1.181  0.8369  1.5040 -0.5377
 1086TIP3   OH224816   6.299   3.491   7.142  0.3602  0.5835 -0.5195
 1086TIP3    H124817   6.249   3.572   7.137  0.1341  0.4306 -0.7407
 1086TIP3    H224818   6.252   3.438   7.206  0.4693  0.5968 -0.4267
 1087TIP3   OH224819   3.968   6.704   0.128  0.0797  0.1885 -0.1108
 1087TIP3    H124820   3.954   6.680   0.220  1.6069  0.9745  0.3679
 1087TIP3    H224821   4.015   6.629   0.091  0.9368  0.5359  0.2226
 1088TIP3   OH224822   6.651   6.622   8.024  0.0475 -0.3067 -0.1887
 1088TIP3    H124823   6.559   6.598   8.036  0.4409 -2.1843 -0.6066
 1088TIP3    H224824   6.693   6.597   8.107  0.3225 -0.2113 -0.2987
 1089TIP3   OH224825   1.478   2.114   0.818  0.1889 -0.0887 -0.4164
 1089TIP3    H124826   1.387   2.104   0.790  0.0311 -0.3149  0.1615
 1089TIP3    H224827   1.472   2.142   0.909  0.7016 -0.6513 -0.2043
 1090TIP3   OH224828   4.916   4.195   1.624  0.2134 -0.0138  0.5097
 1090TIP3    H124829   4.909   4.115   1.675  0.3451 -0.3857 -0.0365
 1090TIP3    H224830   4.832   4.240   1.635  0.0165 -0.3924  0.5519
 1091TIP3   OH224831   2.075   1.875   0.193 -0.1771  0.1476 -0.5574
 1091TIP3    H124832   2.016   1.809   0.157  0.7518  0.7524 -3.5152
 1091TIP3    H224833   2.026   1.957   0.182 -0.1089  0.2859  0.1736
 1092TIP3   OH224834   3.598   1.252   6.890 -0.0917  0.2898  0.0708
 1092TIP3    H124835   3.586   1.214   6.803 -1.2682 -0.4539  0.5383
 1092TIP3    H224836   3.607   1.177   6.949  0.7666  0.7843  0.6035
 1093TIP3   OH224837   6.331   4.515   6.799  0.9962  0.3089 -0.0617
 1093TIP3    H124838   6.294   4.598   6.830  0.5581 -0.0458  0.3756
 1093TIP3    H224839   6.255   4.457   6.789  1.1490  0.3547 -1.6344
 1094TIP3   OH224840   1.092   3.673   0.371  0.3567  0.0079  0.8397
 1094TIP3    H124841   1.126   3.587   0.348 -0.1600 -0.5307  2.0114
 1094TIP3    H224842   1.081   3.718   0.287  0.8215 -0.9889  0.2283
 1095TIP3   OH224843   5.338   5.068   0.539 -0.3731  0.4855  0.5763
 1095TIP3    H124844   5.243   5.057   0.534 -0.4321  1.6269 -2.3334
 1095TIP3    H224845   5.350   5.151   0.585 -0.9810  2.0394 -1.9363
 1096TIP3   OH224846   0.575   6.073   8.416 -0.2079 -0.1363  0.0761
 1096TIP3    H124847   0.593   6.151   8.467  0.6482 -0.3486  0.1291
 1096TIP3    H224848   0.480   6.065   8.414 -0.2619  0.1922  1.1424
 1097TIP3   OH224849   1.910   3.122   8.001  0.2959  0.1203  0.3267
 1097TIP3    H124850   1.887   3.073   7.922  1.6035 -0.1360  0.0941
 1097TIP3    H224851   1.888   3.213   7.980 -2.5193 -0.3201  0.8986
 1098TIP3   OH224852   0.598   5.507   7.828 -0.0531 -0.2490 -0.3262
 1098TIP3    H124853   0.549   5.553   7.896 -1.0817  0.6147 -1.6067
 1098TIP3    H224854   0.660   5.572   7.795 -0.7656 -0.1013 -1.4013
 1099TIP3   OH224855   6.031   0.157   1.634  0.3636 -0.5030  0.2433
 1099TIP3    H124856   5.997   0.196   1.554 -1.0489 -0.5096  0.8207
 1099TIP3    H224857   6.026   0.227   1.699  0.0957 -0.9290  0.6868
 1100TIP3   OH224858   6.065   1.627   7.876  0.2802  0.1148 -0.5126
 1100TIP3    H124859   6.130   1.657   7.940  0.6768  1.6304 -1.5837
 1100TIP3    H224860   6.000   1.697   7.873 -0.0877 -0.2472 -1.2782
 1101TIP3   OH224861   5.382   0.583   0.946 -0.1720  0.0649  0.5023
 1101TIP3    H124862   5.423   0.571   0.860 -0.0331  2.6067  0.1309
 1101TIP3    H224863   5.289   0.563   0.932  0.1673 -1.4566  0.2819
 1102TIP3   OH224864   0.596   0.878   1.128 -0.0976  0.1491 -0.6991
 1102TIP3    H124865   0.602   0.851   1.036  0.0428 -0.9149 -0.3844
 1102TIP3    H224866   0.608   0.973   1.125 -0.5234  0.1892 -1.8212
 1103TIP3   OH224867   5.347   5.956   0.977 -0.3275 -0.0324  0.0753
 1103TIP3    H124868   5.303   5.897   1.038  2.3507 -1.4735  0.7798
 1103TIP3    H224869   5.360   5.904   0.898  1.5227 -0.2745  0.4839
 1104TIP3   OH224870   5.712   1.115   0.205  0.0573  0.0280  0.5595
 1104TIP3    H124871   5.655   1.055   0.158  0.5139  0.9343 -1.2529
 1104TIP3    H224872   5.796   1.070   0.210 -0.3105 -0.5775  1.6615
 1105TIP3   OH224873   3.871   6.500   6.821  0.2786  0.1556  0.4318
 1105TIP3    H124874   3.818   6.549   6.884  0.3456  1.1826 -0.2898
 1105TIP3    H224875   3.889   6.417   6.865 -0.0319  0.6801  1.5919
 1106TIP3   OH224876   0.201   2.626   6.747  0.1554  0.3543  0.3573
 1106TIP3    H124877   0.257   2.620   6.670  0.1765 -0.1692  0.4065
 1106TIP3    H224878   0.258   2.602   6.820  0.2918  1.4302  0.6166
 1107TIP3   OH224879   1.055   5.250   7.720 -0.0134  0.2446 -0.0002
 1107TIP3    H124880   1.080   5.281   7.807 -0.7455  0.2509  0.2182
 1107TIP3    H224881   1.058   5.327   7.664 -0.1852  0.3769  0.1711
 1108TIP3   OH224882   1.661   3.103   8.552 -0.5788 -0.0268 -0.5044
 1108TIP3    H124883   1.689   3.048   8.479 -0.4753  0.1643 -0.6088
 1108TIP3    H224884   1.576   3.067   8.578  0.0302 -1.0164  0.2203
 1109TIP3   OH224885   5.850   6.761   1.313 -0.3098  0.2910 -0.5592
 1109TIP3    H124886   5.786   6.731   1.248 -0.4411 -0.4521 -0.0914
 1109TIP3    H224887   5.920   6.696   1.310 -0.3973  0.1598  0.1597
 1110TIP3   OH224888   4.648   6.227   7.844 -0.4127  0.3095  0.2673
 1110TIP3    H124889   4.738   6.194   7.845 -0.5470 -0.0404  1.2689
 1110TIP3    H224890   4.595   6.154   7.876 -1.0064  0.6674  0.1115
 1111TIP3   OH224891   3.856   5.108   8.603  0.0134  0.3396  0.3016
 1111TIP3    H124892   3.926   5.044   8.594  0.2228  0.8152 -2.1050
 1111TIP3    H224893   3.888   5.170   8.668  1.2531 -0.1865  0.2170
 1112TIP3   OH224894   6.373   1.192   6.409 -0.3004  0.0232  0.4606
 1112TIP3    H124895   6.437   1.162   6.344  0.7388  1.9742  0.5156
 1112TIP3    H224896   6.416   1.180   6.493 -0.0977  1.1046  0.5167
 1113TIP3   OH224897   1.888   0.347   7.665  0.6686  0.6704 -0.5444
 1113TIP3    H124898   1.836   0.320   7.589 -0.3238  0.6989  0.1009
 1113TIP3    H224899   1.929   0.267   7.696 -0.2715  0.3416 -0.1219
 1114TIP3   OH224900   0.204   0.267   7.135 -0.0750  0.0508 -0.0164
 1114TIP3    H124901   0.148   0.290   7.061  0.0424  1.2247  0.2397
 1114TIP3    H224902   0.168   0.185   7.168  0.0373 -0.6348 -1.5288
 1115TIP3   OH224903   0.873   0.250   0.679  0.5973 -0.0463  0.4063
 1115TIP3    H124904   0.903   0.338   0.653 -0.6009  0.5703  1.0270
 1115TIP3    H224905   0.861   0.203   0.597  1.2094  0.3836  0.0611
 1116TIP3   OH224906   6.830   5.778   6.750 -0.4345 -0.4732  0.2153
 1116TIP3    H124907   6.753   5.795   6.695  0.8441 -3.1604 -2.6626
 1116TIP3    H224908   6.877   5.862   6.751 -1.8678  0.3823 -0.4728
 1117TIP3   OH224909   6.270   1.776   7.411  0.6336  0.2187 -0.5574
 1117TIP3    H124910   6.321   1.832   7.469  1.1238  0.7768 -1.5118
 1117TIP3    H224911   6.236   1.707   7.469  0.0828  1.4215  0.6263
 1118TIP3   OH224912   2.536   3.893   0.223  0.4943 -0.4211  0.3944
 1118TIP3    H124913   2.609   3.887   0.286  1.1487  1.3644 -0.1193
 1118TIP3    H224914   2.498   3.979   0.240 -0.1136 -0.4414 -0.8161
 1119TIP3   OH224915   4.166   0.037   1.094  0.6417 -0.7895 -0.6167
 1119TIP3    H124916   4.080   0.025   1.133 -0.3527  1.2970 -1.9763
 1119TIP3    H224917   4.148   0.054   1.001  2.5588 -0.7730 -1.0256
 1120TIP3   OH224918   2.415   5.343   1.462 -0.5922 -0.1335 -0.2179
 1120TIP3    H124919   2.321   5.324   1.461 -0.6547  0.0929  0.4066
 1120TIP3    H224920   2.443   5.314   1.549 -0.4009  1.2437  0.2062
 1121TIP3   OH224921   0.828   6.060   1.016 -0.1491  0.6178  0.3047
 1121TIP3    H124922   0.822   5.998   0.944 -0.5471  0.3821  0.5400
 1121TIP3    H224923   0.918   6.095   1.011 -0.7549  2.0716 -1.5204
 1122TIP3   OH224924   6.128   1.995   1.417 -0.0637  0.3944  0.6952
 1122TIP3    H124925   6.162   1.965   1.332 -1.1323  1.2851 -0.0859
 1122TIP3    H224926   6.095   1.916   1.459  0.2076 -0.0216  0.1399
 1123TIP3   OH224927   0.283   3.464   0.626  0.5422 -0.1029 -0.0359
 1123TIP3    H124928   0.194   3.429   0.623  0.6092 -0.2597 -0.1926
 1123TIP3    H224929   0.296   3.505   0.540  0.5110  0.1914  0.0992
 1124TIP3   OH224930   6.427   5.532   1.136 -0.0592 -0.5087 -0.0519
 1124TIP3    H124931   6.395   5.555   1.049 -1.6581  2.6409  1.1982
 1124TIP3    H224932   6.492   5.600   1.156  0.8031 -1.5959  0.9487
 1125TIP3   OH224933   1.249   0.315   2.308  0.0296 -0.1652  0.1771
 1125TIP3    H124934   1.254   0.274   2.394  3.6337  0.3824  0.3814
 1125TIP3    H224935   1.282   0.249   2.247  1.8962  0.9220 -0.0660
 1126TIP3   OH224936   2.633   6.586   6.332  0.1077 -0.4733 -0.2578
 1126TIP3    H124937   2.586   6.532   6.269  0.1575 -1.3230  0.4149
 1126TIP3    H224938   2.724   6.583   6.301  0.0522 -0.4735 -0.4260
 1127TIP3   OH224939   3.748   5.947   2.646  0.5828 -0.3185 -0.1087
 1127TIP3    H124940   3.806   5.873   2.626  2.5626  1.1751 -0.2301
 1127TIP3    H224941   3.739   5.993   2.563  0.4121  0.2601  0.2290
 1128TIP3   OH224942   1.716   2.607   7.075 -0.1406 -0.0025  0.3064
 1128TIP3    H124943   1.802   2.645   7.057 -0.1210  1.6585  3.3308
 1128TIP3    H224944   1.735   2.518   7.105  0.4144 -0.0157 -0.0686
 1129TIP3   OH224945   5.065   2.767   2.042 -0.3472  0.6735 -0.7807
 1129TIP3    H124946   5.075   2.715   1.961  0.0240  0.7000 -0.7521
 1129TIP3    H224947   5.119   2.722   2.106 -0.4126  0.8200 -0.6219
 1130TIP3   OH224948   4.544   3.471   8.254 -0.4420  0.5766 -0.0163
 1130TIP3    H124949   4.553   3.381   8.221  0.5795  0.6129  0.1054
 1130TIP3    H224950   4.464   3.470   8.306 -0.6533 -0.1639 -0.3415
 1131TIP3   OH224951   1.547   5.286   0.228  0.0604 -0.0435 -0.5181
 1131TIP3    H124952   1.555   5.193   0.250 -2.9658 -0.7336 -1.9337
 1131TIP3    H224953   1.570   5.291   0.136 -0.9793  0.3825 -0.7658
 1132TIP3   OH224954   6.800   3.922   5.986 -0.8721  0.6639  0.1774
 1132TIP3    H124955   6.705   3.910   5.991 -0.9032  0.5013 -0.6070
 1132TIP3    H224956   6.836   3.858   6.046 -1.2594  0.6950  0.4455
 1133TIP3   OH224957   4.120   3.885   2.432 -0.3983 -0.2158 -0.3329
 1133TIP3    H124958   4.041   3.874   2.485 -0.3405 -0.0253 -0.2061
 1133TIP3    H224959   4.125   3.979   2.416  0.9246  0.0637  1.4135
 1134TIP3   OH224960   6.414   1.769   0.160  0.0458 -0.5621  0.3462
 1134TIP3    H124961   6.426   1.844   0.218 -1.6829 -0.8069  1.0920
 1134TIP3    H224962   6.440   1.694   0.214 -0.3774 -0.6880  0.3735
 1135TIP3   OH224963   3.152   4.989   0.391  0.1835  0.2315  0.4063
 1135TIP3    H124964   3.082   4.925   0.407  0.4041  0.3076  1.7352
 1135TIP3    H224965   3.232   4.944   0.417  0.7116 -0.0038 -1.5137
 1136TIP3   OH224966   3.104   2.791   8.055 -0.9268 -0.0132  0.5692
 1136TIP3    H124967   3.068   2.835   7.978  2.6127  1.8870 -0.1785
 1136TIP3    H224968   3.041   2.810   8.125 -2.0618  1.9408 -0.8810
 1137TIP3   OH224969   2.721   4.113   7.351  0.2981  0.3926 -0.1867
 1137TIP3    H124970   2.662   4.167   7.299  0.0540  0.7099  0.4048
 1137TIP3    H224971   2.729   4.031   7.302  1.1002  1.1410 -1.3774
 1138TIP3   OH224972   4.332   4.211   8.659 -0.6870  0.3584 -0.3286
 1138TIP3    H124973   4.312   4.194   8.567 -2.1134  1.3787 -0.2324
 1138TIP3    H224974   4.250   4.244   8.696  0.1232  0.8676  1.0914
 1139TIP3   OH224975   0.420   6.740   8.234  0.3965  0.1760  0.0459
 1139TIP3    H124976   0.402   6.821   8.283  1.2605 -0.2523  1.1099
 1139TIP3    H224977   0.339   6.724   8.185  0.2143  1.6865 -0.1988
 1140TIP3   OH224978   1.608   5.922   7.423  0.2884 -0.0748 -0.0529
 1140TIP3    H124979   1.580   5.883   7.506  0.8733 -3.7919 -1.3779
 1140TIP3    H224980   1.527   5.948   7.380  0.0268  3.0536  2.0091
 1141TIP3   OH224981   2.840   5.587   8.626  0.0054  0.1923 -0.2756
 1141TIP3    H124982   2.791   5.517   8.583 -0.1852  0.0104  0.2325
 1141TIP3    H224983   2.902   5.618   8.560  0.2036 -0.5674 -0.4448
 1142TIP3   OH224984   0.815   5.286   0.910  0.0700  0.0295  0.5737
 1142TIP3    H124985   0.877   5.299   0.838  1.1737 -1.1184  1.2830
 1142TIP3    H224986   0.845   5.345   0.979 -0.8286  0.9295  0.2279
 1143TIP3   OH224987   0.068   1.816   1.750 -0.6034 -0.2531 -0.2878
 1143TIP3    H124988  -0.024   1.845   1.753 -1.1873 -1.9987  0.0314
 1143TIP3    H224989   0.076   1.756   1.825  0.3803 -1.2917 -1.1923
 1144TIP3   OH224990   0.121   6.710   7.664 -0.2719  0.4970  0.0727
 1144TIP3    H124991   0.048   6.684   7.607  0.9065 -0.0192 -1.2554
 1144TIP3    H224992   0.135   6.634   7.720 -0.7960  0.6312  0.3961
 1145TIP3   OH224993   2.176   0.069   6.407  0.8934 -0.3116  0.1152
 1145TIP3    H124994   2.215   0.111   6.483  0.6555 -0.2680  0.2125
 1145TIP3    H224995   2.250   0.050   6.349  1.1968 -1.1746  0.7566
 1146TIP3   OH224996   2.250   0.057   1.438 -0.6721 -0.0285 -0.1772
 1146TIP3    H124997   2.160   0.040   1.464 -0.8876  2.0297  0.5895
 1146TIP3    H224998   2.244   0.118   1.365  0.0831  1.0252  0.6086
 1147TIP3   OH224999   4.932   0.893   1.404 -0.7781  0.1646  0.0290
 1147TIP3    H125000   4.875   0.834   1.453 -1.3480  0.5620 -0.1500
 1147TIP3    H225001   4.921   0.978   1.446  0.3429  0.0744  0.5317
 1148TIP3   OH225002   3.790   3.337   2.397 -0.2137  0.1404  0.2608
 1148TIP3    H125003   3.831   3.381   2.472  1.2045  1.3953 -1.1763
 1148TIP3    H225004   3.836   3.253   2.391 -2.0113 -1.0972  2.1954
 1149TIP3   OH225005   3.080   5.299   8.371 -0.8158  0.3624 -1.0832
 1149TIP3    H125006   3.123   5.296   8.285  0.1093  2.2100 -0.7600
 1149TIP3    H225007   3.127   5.235   8.424 -1.5708 -0.9851 -2.0099
 1150TIP3   OH225008   6.327   2.883   6.390  0.0040 -0.3084 -0.2139
 1150TIP3    H125009   6.314   2.868   6.484  0.9103  2.5163  0.4520
 1150TIP3    H225010   6.279   2.963   6.372  0.5574 -0.3452 -1.9960
 1151TIP3   OH225011   5.282   2.169   0.167  0.0302 -0.2946 -0.0319
 1151TIP3    H125012   5.374   2.192   0.156 -0.1831  0.8557  0.4460
 1151TIP3    H225013   5.270   2.164   0.261 -0.4541 -0.1579 -0.0838
 1152TIP3   OH225014   2.915   2.033   7.990 -0.0705  0.1665 -0.2838
 1152TIP3    H125015   2.854   2.101   8.019  1.2754  0.7951  1.2606
 1152TIP3    H225016   2.871   1.951   8.013 -0.0782  0.6171  1.5065
 1153TIP3   OH225017   2.303   6.166   7.814 -0.2351 -0.5302  0.3776
 1153TIP3    H125018   2.270   6.089   7.767  0.1047 -2.2637  2.7937
 1153TIP3    H225019   2.397   6.165   7.799 -0.3637  0.1512 -0.5600
 1154TIP3   OH225020   6.353   3.853   7.876 -0.0877 -0.4435 -0.7372
 1154TIP3    H125021   6.310   3.768   7.887  0.6134 -0.5155  2.2505
 1154TIP3    H225022   6.439   3.832   7.839 -1.0601 -0.6576 -3.0356
 1155TIP3   OH225023   0.741   2.350   0.853  0.0608  0.2569  0.7652
 1155TIP3    H125024   0.817   2.402   0.880  0.6895 -0.4239  0.3327
 1155TIP3    H225025   0.768   2.310   0.771 -0.6656 -0.2254  0.7620
 1156TIP3   OH225026   0.428   5.274   0.356  0.1113 -0.4665 -0.2107
 1156TIP3    H125027   0.487   5.350   0.349 -0.1418  0.0525  2.3247
 1156TIP3    H225028   0.460   5.226   0.433 -1.1206 -1.6999 -0.4314
 1157TIP3   OH225029   5.682   2.607   0.965 -0.2773  0.3173  0.1187
 1157TIP3    H125030   5.590   2.601   0.940 -0.5681  1.7923  0.7159
 1157TIP3    H225031   5.722   2.658   0.895 -0.0567  0.2743  0.2128
 1158TIP3   OH225032   2.154   1.490   1.371  0.1625 -0.3649  0.0955
 1158TIP3    H125033   2.080   1.506   1.313 -0.5341  0.3096  1.1355
 1158TIP3    H225034   2.143   1.552   1.443  2.5237  0.7666 -0.4090
 1159TIP3   OH225035   6.590   0.512   1.314 -0.4548  0.1146  0.0295
 1159TIP3    H125036   6.571   0.538   1.404  0.0272 -2.9659  1.1615
 1159TIP3    H225037   6.685   0.505   1.310 -0.4675  0.3065 -0.7414
 1160TIP3   OH225038   0.018   3.097   0.276  0.1457 -0.6864  0.1820
 1160TIP3    H125039   0.098   3.062   0.315 -0.0183 -0.3071  0.8734
 1160TIP3    H225040  -0.049   3.083   0.342 -0.1483 -0.0578  0.0223
 1161TIP3   OH225041   1.963   2.948   6.686  0.0474  0.0400 -0.4296
 1161TIP3    H125042   1.910   2.895   6.626  0.1734 -1.9389  1.1348
 1161TIP3    H225043   2.047   2.957   6.641 -0.0092 -1.0083 -0.7856
 1162TIP3   OH225044   4.994   0.101   6.843 -0.0684 -0.3688 -0.0012
 1162TIP3    H125045   4.969   0.040   6.913  0.1327 -0.9477 -0.4249
 1162TIP3    H225046   4.954   0.065   6.765  0.3766 -0.1737 -0.3237
 1163TIP3   OH225047   3.024   2.939   7.832 -0.4350 -0.3122  0.2082
 1163TIP3    H125048   3.044   3.028   7.862 -1.0944 -0.1212  0.1091
 1163TIP3    H225049   3.068   2.933   7.747  1.2680 -0.7902  1.0964
 1164TIP3   OH225050   3.560   1.225   8.417  0.1353 -0.6052  0.0197
 1164TIP3    H125051   3.526   1.209   8.505  1.7635  1.9376  1.2567
 1164TIP3    H225052   3.523   1.310   8.392  3.0251  0.8441  0.2064
 1165TIP3   OH225053   2.100   0.418   1.231 -0.2484  0.0435  0.5616
 1165TIP3    H125054   2.090   0.487   1.297 -0.6977 -1.1948  1.8381
 1165TIP3    H225055   2.028   0.433   1.170  2.0863  3.3267 -1.8037
 1166TIP3   OH225056   5.595   1.731   0.523 -0.4918 -0.0376 -0.3575
 1166TIP3    H125057   5.551   1.752   0.442 -0.0269 -0.7779 -0.8137
 1166TIP3    H225058   5.657   1.803   0.536 -0.8117  0.2603 -0.4646
 1167TIP3   OH225059   1.543   5.391   1.614 -0.7269  0.6567  0.0399
 1167TIP3    H125060   1.568   5.379   1.706  1.0150  1.1996 -0.3299
 1167TIP3    H225061   1.547   5.303   1.577 -0.6677  0.5451  0.3048
 1168TIP3   OH225062   3.593   4.075   1.602 -0.1315  0.3117  0.3217
 1168TIP3    H125063   3.503   4.075   1.568 -0.6962 -2.6153  1.5393
 1168TIP3    H225064   3.623   4.165   1.589 -2.0118  0.5978 -3.2019
 1169TIP3   OH225065   0.013   1.469   0.425  0.5897 -0.4524 -0.0961
 1169TIP3    H125066   0.102   1.475   0.459  0.4078  3.6277  0.1583
 1169TIP3    H225067   0.022   1.422   0.342  3.0795  0.1637 -0.2508
 1170TIP3   OH225068   3.830   1.588   6.497  0.0353 -0.8403  0.0822
 1170TIP3    H125069   3.905   1.540   6.533 -0.1649 -0.8324  0.5220
 1170TIP3    H225070   3.764   1.584   6.567 -0.3353 -0.7597 -0.2625
 1171TIP3   OH225071   2.069   3.510   6.604  0.3267  0.0589  0.2926
 1171TIP3    H125072   2.053   3.476   6.692 -0.4976 -0.2252  0.0402
 1171TIP3    H225073   2.153   3.471   6.578 -0.3843 -1.4504  0.1885
 1172TIP3   OH225074   2.351   2.084   8.085 -0.0926  0.3786  0.0375
 1172TIP3    H125075   2.301   2.058   8.162 -1.8696  0.1833 -1.1411
 1172TIP3    H225076   2.360   2.179   8.092  0.5406  0.2633  0.9196
 1173TIP3   OH225077   4.330   3.137   0.462  0.2675 -0.9376 -0.0203
 1173TIP3    H125078   4.243   3.121   0.499  0.5052 -0.6410  0.6947
 1173TIP3    H225079   4.387   3.072   0.504 -0.0075 -2.7116 -2.2455
 1174TIP3   OH225080   5.210   5.999   1.315 -0.3846  0.2061 -0.5156
 1174TIP3    H125081   5.182   6.027   1.402  0.3329 -0.1392 -0.1677
 1174TIP3    H225082   5.262   6.072   1.282  1.6944 -0.7521  0.4913
 1175TIP3   OH225083   2.576   5.370   0.637  0.2388  0.1834 -0.0457
 1175TIP3    H125084   2.626   5.326   0.706  0.6832  0.6750 -0.0479
 1175TIP3    H225085   2.636   5.376   0.563 -0.1680 -0.1518 -0.4073
 1176TIP3   OH225086   2.924   4.591   6.818  0.4530 -0.1197  0.4091
 1176TIP3    H125087   2.859   4.539   6.772 -0.4983  2.2211 -1.0793
 1176TIP3    H225088   2.985   4.527   6.855  0.9666 -2.2637 -3.6438
 1177TIP3   OH225089   4.244   2.817   8.070 -0.4272 -0.6376 -0.5693
 1177TIP3    H125090   4.248   2.913   8.074 -0.3822 -0.6727  0.9961
 1177TIP3    H225091   4.239   2.797   7.977  0.8288  0.8258 -0.9875
 1178TIP3   OH225092   2.423   3.997   8.309  0.1476  0.7112 -0.3176
 1178TIP3    H125093   2.395   3.905   8.314  0.2648  0.5772 -1.7563
 1178TIP3    H225094   2.350   4.046   8.346  0.3891  0.0097  1.1663
 1179TIP3   OH225095   4.776   1.189   8.028  0.3992  0.5068 -0.0270
 1179TIP3    H125096   4.860   1.225   8.055  0.2898 -0.0098  1.0770
 1179TIP3    H225097   4.748   1.135   8.102 -0.6077  0.1649 -0.6288
 1180TIP3   OH225098   3.219   6.632   0.575 -0.2128 -0.1110  0.4234
 1180TIP3    H125099   3.177   6.575   0.638 -0.5634  0.6761  0.9199
 1180TIP3    H225100   3.174   6.717   0.586 -0.5288 -0.0464 -1.1127
 1181TIP3   OH225101   5.852   3.187   0.038  0.2415  0.1774  0.4804
 1181TIP3    H125102   5.845   3.115  -0.024  1.4397  0.2344  0.2570
 1181TIP3    H225103   5.858   3.145   0.124 -1.3366  0.0966  0.5768
 1182TIP3   OH225104   0.698   5.722   6.305  0.1257 -0.0692  0.5255
 1182TIP3    H125105   0.626   5.752   6.250  0.5271 -0.0333  0.0071
 1182TIP3    H225106   0.714   5.794   6.366  0.9320  0.7043 -0.5587
 1183TIP3   OH225107   0.679   2.127   8.498 -0.4196 -0.1181 -0.2237
 1183TIP3    H125108   0.637   2.211   8.518 -0.1483  0.1042 -0.5919
 1183TIP3    H225109   0.685   2.083   8.583 -1.0733 -0.0009 -0.1146
 1184TIP3   OH225110   2.318   4.191   8.665 -0.2728 -0.1501 -0.3323
 1184TIP3    H125111   2.411   4.209   8.656  0.0740 -1.5486  0.0480
 1184TIP3    H225112   2.308   4.102   8.631 -1.3905 -0.1755  0.0276
 1185TIP3   OH225113   0.598   6.306   0.063  0.0737 -0.1263 -0.0016
 1185TIP3    H125114   0.535   6.375   0.083  0.9144  0.7614 -0.3587
 1185TIP3    H225115   0.587   6.291  -0.031  2.1672  1.9017 -0.6550
 1186TIP3   OH225116   6.321   5.762   1.699  0.3753  0.6134  0.0921
 1186TIP3    H125117   6.417   5.757   1.699  0.3339 -0.8999  0.9233
 1186TIP3    H225118   6.299   5.813   1.777  0.5014 -1.3349  1.5012
 1187TIP3   OH225119   0.625   0.810   7.285 -0.1334  0.4659  0.6997
 1187TIP3    H125120   0.603   0.769   7.202  4.1657  0.4163 -0.6930
 1187TIP3    H225121   0.628   0.738   7.348 -1.6700  0.2314  0.5383
 1188TIP3   OH225122   0.594   0.021   2.472  0.2138  0.8737 -0.1435
 1188TIP3    H125123   0.506   0.042   2.503  0.1783 -0.9090  1.0738
 1188TIP3    H225124   0.602  -0.074   2.483  2.4670  1.0517  0.2430
 1189TIP3   OH225125   2.035   0.640   0.775 -0.5500 -0.3629 -0.3052
 1189TIP3    H125126   2.097   0.611   0.842 -1.1615  0.9541  0.9039
 1189TIP3    H225127   2.029   0.567   0.713 -0.2146 -1.7696  1.2555
 1190TIP3   OH225128   4.147   5.140   8.183 -0.0706 -0.0960 -0.4482
 1190TIP3    H125129   4.226   5.171   8.139  0.0868  0.6459  0.3366
 1190TIP3    H225130   4.075   5.184   8.137 -0.1109 -1.3382 -1.6485
 1191TIP3   OH225131   5.340   6.595   1.171  0.1668  0.3417  0.6871
 1191TIP3    H125132   5.271   6.534   1.145  0.0019  1.7740 -2.7034
 1191TIP3    H225133   5.298   6.681   1.168  1.7063  1.1072 -0.0502
 1192TIP3   OH225134   1.556   4.045   7.529 -0.6418  0.1945  0.5207
 1192TIP3    H125135   1.497   4.011   7.462 -0.0600  0.2492 -0.0334
 1192TIP3    H225136   1.516   4.128   7.555 -0.8195  0.2233  0.1683
 1193TIP3   OH225137   3.187   3.512   1.278 -0.4981  0.2230 -0.4187
 1193TIP3    H125138   3.273   3.485   1.245 -0.9226 -0.0289 -1.3518
 1193TIP3    H225139   3.159   3.439   1.334  0.4864  0.9102  1.0417
 1194TIP3   OH225140   1.790   2.464   8.196  0.0647 -0.4318  0.4608
 1194TIP3    H125141   1.704   2.436   8.165 -0.3554 -0.6037  1.6958
 1194TIP3    H225142   1.813   2.400   8.264  1.8957 -1.3194 -0.9001
 1195TIP3   OH225143   5.734   5.732   7.126 -0.1603 -0.0111 -0.1309
 1195TIP3    H125144   5.676   5.807   7.111  0.9620  0.6753 -1.2553
 1195TIP3    H225145   5.766   5.709   7.038 -0.1818 -1.5733  0.2457
 1196TIP3   OH225146   0.916   0.316   1.617 -0.0646 -0.1157 -0.3751
 1196TIP3    H125147   0.870   0.255   1.559  0.1842 -0.2147 -0.4711
 1196TIP3    H225148   0.906   0.278   1.705 -0.5844  0.1238 -0.3301
 1197TIP3   OH225149   3.329   1.507   0.080 -0.4902  0.2696 -0.1446
 1197TIP3    H125150   3.399   1.502   0.145 -0.3291  0.1291 -0.3272
 1197TIP3    H225151   3.283   1.423   0.088  1.3037 -1.0022 -2.1904
 1198TIP3   OH225152   0.501   3.751   0.306 -0.4935 -0.1644 -0.4210
 1198TIP3    H125153   0.586   3.761   0.263  0.2726 -1.4796  0.7393
 1198TIP3    H225154   0.483   3.657   0.303 -1.8748  0.0777 -0.5412
 1199TIP3   OH225155   1.617   6.757   0.966 -0.0369  0.4563  0.3919
 1199TIP3    H125156   1.552   6.687   0.960  0.8951 -0.3827 -0.3825
 1199TIP3    H225157   1.700   6.714   0.943  0.7280  1.5843  0.9463
 1200TIP3   OH225158   1.284   6.678   1.699 -0.5694  0.3281 -0.2013
 1200TIP3    H125159   1.262   6.771   1.704  1.9524  0.9458  1.0941
 1200TIP3    H225160   1.238   6.638   1.772 -0.7599  0.7936 -0.0648
 1201TIP3   OH225161   4.599   3.515   6.571 -0.4611  0.0343  0.3941
 1201TIP3    H125162   4.508   3.487   6.573 -0.1036 -1.2998 -0.7179
 1201TIP3    H225163   4.648   3.443   6.610  0.0999  0.9940  1.5546
 1202TIP3   OH225164   4.028   0.615   0.219  0.6433  0.5606  0.7807
 1202TIP3    H125165   4.032   0.711   0.217  0.4054  0.5609 -0.4519
 1202TIP3    H225166   4.004   0.590   0.130  0.9872 -0.6634  1.0103
 1203TIP3   OH225167   5.821   5.372   6.716  0.0285  0.1908  0.0004
 1203TIP3    H125168   5.739   5.339   6.678  0.3374  1.1185 -1.5744
 1203TIP3    H225169   5.822   5.465   6.694 -0.1335  1.0369  3.0943
 1204TIP3   OH225170   0.658   2.056   0.717  0.1827  0.1833  0.1524
 1204TIP3    H125171   0.600   2.121   0.678  0.6065 -0.2262 -1.2011
 1204TIP3    H225172   0.746   2.088   0.701  0.3634  0.2672  1.2544
 1205TIP3   OH225173   3.951   6.661   0.421  0.2272  0.1755  0.5130
 1205TIP3    H125174   3.877   6.701   0.465 -0.2183 -1.1381  1.0117
 1205TIP3    H225175   4.027   6.686   0.473  0.2476  2.0572 -0.3579
 1206TIP3   OH225176   2.994   6.836   7.589  0.0767  0.3579 -0.1684
 1206TIP3    H125177   3.058   6.805   7.524  0.9527 -0.2753  0.9566
 1206TIP3    H225178   3.023   6.797   7.672 -1.2003  0.8854  0.5550
 1207TIP3   OH225179   0.574   2.756   7.897  0.1762 -0.8077  0.2499
 1207TIP3    H125180   0.650   2.727   7.948 -1.1717 -1.7323  1.8483
 1207TIP3    H225181   0.564   2.690   7.829  2.0576  0.4912 -1.4065
 1208TIP3   OH225182   3.378   2.786   0.209  0.1594 -0.2208  0.4641
 1208TIP3    H125183   3.392   2.863   0.154 -1.0656 -1.1214 -1.1832
 1208TIP3    H225184   3.385   2.712   0.149  0.4615 -1.3608  1.8595
 1209TIP3   OH225185   1.138   5.961   7.040 -0.4257  0.5154  0.7914
 1209TIP3    H125186   1.196   5.889   7.067  0.3968  0.4569 -0.9400
 1209TIP3    H225187   1.197   6.035   7.026 -0.8186  0.6098 -0.4785
 1210TIP3   OH225188   6.276   5.914   0.163 -0.2809 -0.0111  0.0681
 1210TIP3    H125189   6.181   5.911   0.176 -0.1013 -0.9788  1.4232
 1210TIP3    H225190   6.289   5.881   0.074 -1.1071 -2.8429  0.8631
 1211TIP3   OH225191   5.840   4.573   7.184  0.4670  0.2114 -0.2218
 1211TIP3    H125192   5.882   4.631   7.247 -0.4625 -0.0441  0.6593
 1211TIP3    H225193   5.911   4.522   7.146  1.0924  0.7240  0.2418
 1212TIP3   OH225194   2.111   3.195   7.085  0.2314 -0.0175  0.0398
 1212TIP3    H125195   2.143   3.147   7.161  0.1378  1.9920  1.4471
 1212TIP3    H225196   2.169   3.170   7.013  0.9784 -1.1847  1.0257
 1213TIP3   OH225197   3.890   5.966   6.556 -0.5022  0.3452 -0.5691
 1213TIP3    H125198   3.944   5.928   6.488  1.6246  0.8059  0.7567
 1213TIP3    H225199   3.800   5.959   6.523  0.4183  0.4452 -3.3091
 1214TIP3   OH225200   1.374   4.741   7.444 -0.1225 -0.6561 -0.2515
 1214TIP3    H125201   1.408   4.663   7.398  0.2222 -0.8078  0.2502
 1214TIP3    H225202   1.288   4.714   7.476 -0.6871 -0.3103 -1.4263
 1215TIP3   OH225203   0.943   1.123   7.684  0.4381  0.6206 -0.4914
 1215TIP3    H125204   0.855   1.161   7.690  0.1251 -0.2722  2.6815
 1215TIP3    H225205   0.934   1.035   7.721  2.5958  0.3701 -0.4337
 1216TIP3   OH225206   1.121   5.269   7.155  0.1669  0.3735  0.0380
 1216TIP3    H125207   1.074   5.297   7.076  0.7132 -1.6382 -1.0680
 1216TIP3    H225208   1.213   5.281   7.133  0.3130  0.0390  0.4629
 1217TIP3   OH225209   0.403   6.336   6.281  0.5144 -0.6508  0.0964
 1217TIP3    H125210   0.479   6.344   6.223 -0.0959  1.0627 -0.5096
 1217TIP3    H225211   0.433   6.372   6.364  0.2476  0.4919 -0.2837
 1218TIP3   OH225212   5.815   6.042   7.556 -0.3327 -0.6481 -0.2068
 1218TIP3    H125213   5.873   6.070   7.627 -1.0579 -0.1936  0.2177
 1218TIP3    H225214   5.734   6.017   7.599 -0.2874 -1.7759 -0.7529
 1219TIP3   OH225215   3.837   4.731   8.316  0.2518 -0.1859 -0.4353
 1219TIP3    H125216   3.750   4.718   8.353  0.6589  0.1444  0.6977
 1219TIP3    H225217   3.843   4.826   8.300  0.5646 -0.1291 -0.0291
 1220TIP3   OH225218   6.448   3.473   6.658 -0.0406  0.9481  0.2545
 1220TIP3    H125219   6.495   3.539   6.710  0.3172  0.5001  0.5016
 1220TIP3    H225220   6.459   3.502   6.567  0.8602  0.7526  0.2958
 1221TIP3   OH225221   6.816   4.233   0.006 -0.2150 -0.3104  0.8028
 1221TIP3    H125222   6.821   4.295   0.079  2.7927  2.2417 -1.3401
 1221TIP3    H225223   6.784   4.285  -0.068 -0.4912 -2.1070 -0.4134
 1222TIP3   OH225224   5.830   1.878   0.639  0.4200 -0.1324 -0.7641
 1222TIP3    H125225   5.883   1.799   0.646  0.3028 -0.0898  1.3009
 1222TIP3    H225226   5.805   1.898   0.729  2.8918  3.9023 -0.7098
 1223TIP3   OH225227   2.281   3.204   0.995 -0.5537  0.0163  0.4113
 1223TIP3    H125228   2.371   3.195   0.963 -0.5498 -0.9716  0.6920
 1223TIP3    H225229   2.256   3.293   0.968  0.5166  0.3256  0.3772
 1224TIP3   OH225230   2.301   6.239   7.110 -0.5486  0.2441 -0.1095
 1224TIP3    H125231   2.213   6.234   7.073 -0.3715  0.4640 -0.5686
 1224TIP3    H225232   2.292   6.295   7.187 -0.9979 -0.5516  0.4280
 1225TIP3   OH225233   3.404   6.754   0.999  0.4814  0.5564 -0.5934
 1225TIP3    H125234   3.388   6.800   0.917  2.5309  0.1950 -1.2551
 1225TIP3    H225235   3.432   6.666   0.972  1.1951  0.4364  0.4722
 1226TIP3   OH225236   0.731   2.537   6.323 -0.3401  0.2730 -0.5768
 1226TIP3    H125237   0.735   2.544   6.228  1.7445  1.5346 -0.4675
 1226TIP3    H225238   0.768   2.451   6.342 -1.0561 -0.1169 -0.8862
 1227TIP3   OH225239   1.818   0.896   0.599  0.0387  0.5036  0.5002
 1227TIP3    H125240   1.779   0.966   0.547 -0.1632 -0.1234 -0.2269
 1227TIP3    H225241   1.813   0.819   0.542 -0.6469 -0.3370  1.6384
 1228TIP3   OH225242   0.806   2.798   2.120  0.4060 -0.5142  0.0269
 1228TIP3    H125243   0.797   2.883   2.076  2.9230  0.0744  0.5122
 1228TIP3    H225244   0.856   2.817   2.199  2.7498 -2.6755 -0.7980
 1229TIP3   OH225245   0.348   1.588   1.059 -0.4946  0.4906 -0.4543
 1229TIP3    H125246   0.385   1.647   1.125  0.3825  0.2328 -0.7078
 1229TIP3    H225247   0.266   1.559   1.098 -0.3392  0.9086  0.2135
 1230TIP3   OH225248   0.781   6.494   2.299 -0.5661 -0.3747 -0.7062
 1230TIP3    H125249   0.746   6.409   2.325 -0.5924  0.2892  1.6179
 1230TIP3    H225250   0.720   6.558   2.336  0.6577  0.7022 -0.4740
 1231TIP3   OH225251   0.027   5.364   6.275 -0.1483 -0.0855 -0.0279
 1231TIP3    H125252   0.066   5.450   6.256 -0.8670  0.6303  1.6083
 1231TIP3    H225253  -0.037   5.351   6.205  2.6954 -1.1858 -2.6592
 1232TIP3   OH225254   0.141   2.959   8.676 -0.4193 -0.0505 -0.3863
 1232TIP3    H125255   0.099   3.030   8.628  0.2195 -1.1280 -2.7088
 1232TIP3    H225256   0.186   2.908   8.608  0.1043 -2.0073  1.3281
 1233TIP3   OH225257   2.869   2.598   0.477 -0.0079 -0.4916  0.0161
 1233TIP3    H125258   2.780   2.563   0.487  0.2843 -1.0457  0.8492
 1233TIP3    H225259   2.857   2.692   0.471 -0.5706 -0.4258  1.6358
 1234TIP3   OH225260   5.070   6.797   0.313 -0.0809  0.4571  0.1864
 1234TIP3    H125261   5.157   6.824   0.344 -1.6101  2.6202  3.1120
 1234TIP3    H225262   5.048   6.861   0.245  1.1368 -1.0371 -1.7055
 1235TIP3   OH225263   5.975   6.302   0.873  0.1149  0.0730  0.4463
 1235TIP3    H125264   6.035   6.261   0.935  0.5835 -1.9224 -1.2048
 1235TIP3    H225265   5.892   6.256   0.888  0.3228 -0.6642 -0.6026
 1236TIP3   OH225266   2.523   4.928   6.488 -0.2870 -0.3431 -0.5229
 1236TIP3    H125267   2.436   4.892   6.507 -0.3553 -0.0112 -0.2018
 1236TIP3    H225268   2.583   4.875   6.539 -0.3000 -0.5719 -0.7434
 1237TIP3   OH225269   4.104   1.176   5.994  0.4837 -0.0009 -0.0140
 1237TIP3    H125270   4.130   1.086   6.013  1.4302  0.2676  0.0145
 1237TIP3    H225271   4.171   1.208   5.935 -0.0226  0.5930 -0.2788
 1238TIP3   OH225272   6.853   4.126   1.085 -0.8213  0.7310 -1.0712
 1238TIP3    H125273   6.946   4.134   1.065 -0.3605  0.1040  0.6758
 1238TIP3    H225274   6.833   4.202   1.139 -0.7529 -0.2874  0.4348
 1239TIP3   OH225275   4.970   0.744   6.595  0.4739  0.2412 -0.0679
 1239TIP3    H125276   4.998   0.733   6.504  0.2916 -0.8435 -0.0102
 1239TIP3    H225277   4.878   0.718   6.595  0.4497  0.3217  0.4148
 1240TIP3   OH225278   4.933   4.109   1.357 -0.5885 -0.5885 -0.6595
 1240TIP3    H125279   4.936   4.136   1.449  0.9150 -0.7355 -0.6427
 1240TIP3    H225280   4.845   4.073   1.346 -0.6601 -0.9605  0.8461
 1241TIP3   OH225281   5.158   1.054   0.859 -0.0079  0.2253  0.4719
 1241TIP3    H125282   5.109   1.087   0.784  0.4232  1.6059  0.7742
 1241TIP3    H225283   5.174   0.962   0.839 -0.7020  0.3418 -0.6908
 1242TIP3   OH225284   5.448   6.279   0.034 -0.2550 -0.8166 -0.2492
 1242TIP3    H125285   5.368   6.312  -0.008 -0.6205 -0.7103  0.5202
 1242TIP3    H225286   5.508   6.354   0.034 -0.2469 -0.8199 -0.5861
 1243TIP3   OH225287   0.365   0.396   7.316  0.1200 -0.1342 -0.1394
 1243TIP3    H125288   0.442   0.442   7.283 -0.3688  0.6422 -0.2248
 1243TIP3    H225289   0.325   0.357   7.238 -0.1375  0.3304 -0.2423
 1244TIP3   OH225290   3.874   4.628   1.816  0.0325 -0.1222 -0.2112
 1244TIP3    H125291   3.939   4.655   1.881 -0.0034  1.2262 -0.7037
 1244TIP3    H225292   3.820   4.706   1.802 -1.5485 -1.1517  0.0005
 1245TIP3   OH225293   1.704   1.653   7.569  0.2340  0.3602 -0.1553
 1245TIP3    H125294   1.639   1.723   7.575 -0.5734 -0.4259  0.7368
 1245TIP3    H225295   1.751   1.670   7.487 -1.5083  0.6141 -1.1583
 1246TIP3   OH225296   5.562   5.610   0.584 -0.4287 -0.1663  0.1777
 1246TIP3    H125297   5.596   5.691   0.548 -0.9778  1.3795  2.8921
 1246TIP3    H225298   5.581   5.615   0.678 -1.6335 -2.5787  0.6354
 1247TIP3   OH225299   0.913   5.548   7.433  0.6030  0.7278  0.3966
 1247TIP3    H125300   0.862   5.623   7.402  1.0251  0.9441  0.2090
 1247TIP3    H225301   0.849   5.478   7.446  0.3064  0.8950 -0.1531
 1248TIP3   OH225302   6.180   3.733   1.463 -0.0251  0.8585 -0.1016
 1248TIP3    H125303   6.195   3.797   1.532 -0.5891  0.8597  0.0181
 1248TIP3    H225304   6.118   3.776   1.403 -0.4851  0.3891  0.0321
 1249TIP3   OH225305   0.823   1.925   0.276  0.9741  0.4485  0.2706
 1249TIP3    H125306   0.917   1.933   0.290  0.7216  2.0487  1.3078
 1249TIP3    H225307   0.806   1.831   0.279  2.2267  0.2318  2.3679
 1250TIP3   OH225308   3.604   6.745   6.737 -0.3465  0.2185  0.3914
 1250TIP3    H125309   3.563   6.709   6.816  0.4260 -2.2564 -0.2752
 1250TIP3    H225310   3.564   6.832   6.728 -1.4175  0.0555  2.7554
 1251TIP3   OH225311   4.111   3.079   2.010 -0.0897 -0.6365  0.1988
 1251TIP3    H125312   4.033   3.026   2.026 -1.3137  1.0889  0.2110
 1251TIP3    H225313   4.137   3.111   2.097  0.5466 -1.0719  0.1752
 1252TIP3   OH225314   0.027   5.664   1.714  0.3812  0.1208 -0.0766
 1252TIP3    H125315  -0.057   5.699   1.683  0.8347 -0.0967 -1.6641
 1252TIP3    H225316   0.008   5.627   1.800 -0.5959  2.2683  0.7148
 1253TIP3   OH225317   4.444   2.760   0.297  0.0278 -0.4060  0.2062
 1253TIP3    H125318   4.485   2.681   0.262  1.0524  0.3062 -0.2533
 1253TIP3    H225319   4.361   2.767   0.248  0.7015 -0.3023 -0.9630
 1254TIP3   OH225320   6.417   5.161   7.875  0.2496  0.1931 -0.4068
 1254TIP3    H125321   6.392   5.070   7.889 -0.4414  0.5290  0.6986
 1254TIP3    H225322   6.425   5.198   7.963 -3.3325  2.1778 -0.7058
 1255TIP3   OH225323   1.774   5.630   7.585 -0.0675 -0.1880  0.2076
 1255TIP3    H125324   1.805   5.577   7.659  0.1639 -1.0471 -0.4885
 1255TIP3    H225325   1.799   5.580   7.508 -2.5153 -0.5854 -0.4338
 1256TIP3   OH225326   3.211   2.830   0.423 -0.2212  0.1822  0.2937
 1256TIP3    H125327   3.282   2.820   0.486  0.4108 -0.9679 -0.5615
 1256TIP3    H225328   3.248   2.798   0.341 -1.6867 -0.3380 -0.1911
 1257TIP3   OH225329   5.679   5.967   0.149  0.4613  0.3992  0.1123
 1257TIP3    H125330   5.663   6.003   0.062 -0.8747 -2.6980 -1.0807
 1257TIP3    H225331   5.593   5.936   0.179  1.1106  0.2667  1.9861
 1258TIP3   OH225332   5.490   3.154   1.773  0.0304 -0.0400 -1.2055
 1258TIP3    H125333   5.487   3.058   1.776 -0.4412  0.0137  0.7840
 1258TIP3    H225334   5.449   3.176   1.689 -0.9450 -1.5394 -1.1583
 1259TIP3   OH225335   0.278   3.868   8.538 -0.4333  0.2591 -0.8778
 1259TIP3    H125336   0.211   3.868   8.468  0.3586  1.0918 -1.6633
 1259TIP3    H225337   0.228   3.879   8.618 -1.3875 -0.8535 -1.2789
 1260TIP3   OH225338   3.688   6.686   0.183 -0.6466 -0.1029 -0.3533
 1260TIP3    H125339   3.776   6.691   0.144  0.0080  0.5776  1.1437
 1260TIP3    H225340   3.664   6.777   0.200 -0.9026 -0.3786  0.8152
 1261TIP3   OH225341   5.829   1.662   6.651 -0.0965  0.0321  0.1929
 1261TIP3    H125342   5.846   1.580   6.605  0.2845  0.6818 -0.8524
 1261TIP3    H225343   5.734   1.675   6.643 -0.0912 -0.0759 -0.0467
 1262TIP3   OH225344   4.346   6.286   6.906 -0.1871 -0.4875  0.2139
 1262TIP3    H125345   4.349   6.218   6.839  1.4387 -0.9180  0.6745
 1262TIP3    H225346   4.356   6.238   6.989 -1.9937  0.0469  0.7872
 1263TIP3   OH225347   3.171   4.534   7.960  0.1289 -0.1763  0.3765
 1263TIP3    H125348   3.233   4.567   8.025 -2.0944 -2.3521  3.8994
 1263TIP3    H225349   3.133   4.613   7.921  2.4578  1.2017  0.7227
 1264TIP3   OH225350   6.172   3.738   6.934  0.3480  0.4669  0.3818
 1264TIP3    H125351   6.115   3.709   7.005 -0.7756 -0.0234 -0.6827
 1264TIP3    H225352   6.131   3.703   6.855  0.1206  3.1253 -0.7882
 1265TIP3   OH225353   3.492   6.506   8.156 -0.7172 -0.2974  0.2328
 1265TIP3    H125354   3.576   6.460   8.150 -1.3180 -1.3712 -0.2416
 1265TIP3    H225355   3.455   6.477   8.240 -0.4496  0.4826  0.6284
 1266TIP3   OH225356   2.637   2.219   8.521 -0.6250 -0.3214 -0.4578
 1266TIP3    H125357   2.719   2.245   8.562 -0.3512 -2.0649  0.1743
 1266TIP3    H225358   2.657   2.137   8.476 -1.4700  0.3953 -2.2460
 1267TIP3   OH225359   4.693   5.548   1.903 -0.0980 -0.4912 -0.0723
 1267TIP3    H125360   4.665   5.615   1.966 -0.2297 -1.0626  0.4953
 1267TIP3    H225361   4.788   5.549   1.908 -0.1075 -0.5636  0.1833
 1268TIP3   OH225362   4.821   3.548   1.985  0.4530  0.2282 -0.3526
 1268TIP3    H125363   4.892   3.569   2.046  0.9272 -0.0677 -0.7982
 1268TIP3    H225364   4.816   3.453   1.986 -0.5496  0.2707  0.3623
 1269TIP3   OH225365   4.556   2.658   6.693  0.4893 -0.2026  1.0048
 1269TIP3    H125366   4.487   2.723   6.679  0.1228 -0.5103  1.3364
 1269TIP3    H225367   4.575   2.623   6.605 -0.4495 -0.7803  1.0118
 1270TIP3   OH225368   2.483   4.264   7.373  0.3242 -0.2456 -0.9483
 1270TIP3    H125369   2.438   4.193   7.328  0.0841 -0.7041 -0.0134
 1270TIP3    H225370   2.414   4.313   7.417  0.4812  0.6240 -1.6539
 1271TIP3   OH225371   0.745   4.415   6.625 -0.8400  0.4627 -0.6876
 1271TIP3    H125372   0.821   4.447   6.576 -0.7066  1.3598  0.0691
 1271TIP3    H225373   0.701   4.495   6.654 -2.7282 -0.0276 -2.0652
 1272TIP3   OH225374   0.882   3.928   8.633  0.1621  0.2922 -0.0598
 1272TIP3    H125375   0.910   4.009   8.590  0.3380 -0.2021 -0.9166
 1272TIP3    H225376   0.829   3.884   8.566  1.3088 -0.9958 -0.1520
 1273TIP3   OH225377   4.113   2.357   7.351 -0.1992  0.1871 -0.1149
 1273TIP3    H125378   4.174   2.331   7.419 -0.5690 -1.6891 -0.4569
 1273TIP3    H225379   4.078   2.441   7.381  1.2813  0.4803  0.8952
 1274TIP3   OH225380   1.719   1.485   6.628 -0.1779  0.0297 -0.2895
 1274TIP3    H125381   1.673   1.557   6.672  3.4441  2.0206  0.7129
 1274TIP3    H225382   1.775   1.529   6.564  0.1659 -2.1991 -1.6038
 1275TIP3   OH225383   6.823   2.206   6.455 -0.3951  0.1554 -0.3585
 1275TIP3    H125384   6.907   2.232   6.418 -1.2531  0.8999 -1.9247
 1275TIP3    H225385   6.825   2.110   6.455  0.2352  0.1631 -0.9197
 1276TIP3   OH225386   5.642   6.339   1.294 -0.5043  0.3673 -0.4879
 1276TIP3    H125387   5.734   6.321   1.313 -0.3975  1.2454 -0.1534
 1276TIP3    H225388   5.645   6.400   1.220 -0.7665  1.4576  0.3722
 1277TIP3   OH225389   5.193   5.118   6.575 -0.3117 -0.1228  0.4274
 1277TIP3    H125390   5.180   5.111   6.669  0.5522  1.2948  0.6871
 1277TIP3    H225391   5.227   5.207   6.562 -0.1708 -0.3803 -1.1893
 1278TIP3   OH225392   5.106   1.138   1.597 -0.2505 -0.0218  0.1238
 1278TIP3    H125393   5.173   1.075   1.626 -0.4092  0.2772  1.1937
 1278TIP3    H225394   5.073   1.175   1.678 -1.1138  0.4661 -0.4470
 1279TIP3   OH225395   0.486   4.660   7.765 -0.0488  0.2798  0.0612
 1279TIP3    H125396   0.490   4.688   7.674  0.0080  2.7997  0.7468
 1279TIP3    H225397   0.397   4.629   7.778  0.4094 -1.7534 -1.2189
 1280TIP3   OH225398   0.533   4.519   0.490  0.4140 -0.5308  0.4117
 1280TIP3    H125399   0.565   4.559   0.571 -0.4342  0.4577  0.2838
 1280TIP3    H225400   0.597   4.546   0.424 -0.7009  1.6220  0.1138
 1281TIP3   OH225401   1.142   4.982   7.623  0.6826 -0.2767  0.2144
 1281TIP3    H125402   1.102   4.977   7.709  0.0018 -0.1270 -0.0888
 1281TIP3    H225403   1.114   5.067   7.588  0.0537 -0.8012 -0.5897
 1282TIP3   OH225404   2.276   5.680   1.863  0.0794  0.4954 -0.1581
 1282TIP3    H125405   2.368   5.678   1.890 -0.1970  0.0175  0.7924
 1282TIP3    H225406   2.232   5.728   1.933 -0.5882 -0.3440  0.0088
 1283TIP3   OH225407   5.503   0.740   7.370 -0.2023  0.1619  0.2870
 1283TIP3    H125408   5.428   0.688   7.341 -0.1508  0.4644 -0.4129
 1283TIP3    H225409   5.482   0.830   7.344  1.4326 -0.0631 -2.1492
 1284TIP3   OH225410   6.246   1.583   0.045 -0.3077  0.0982 -0.0427
 1284TIP3    H125411   6.189   1.636  -0.011 -0.8154 -1.4023 -0.9803
 1284TIP3    H225412   6.316   1.644   0.071 -0.4711  1.0453 -1.6782
 1285TIP3   OH225413   4.261   2.327   0.423  0.6791  0.2904 -0.0437
 1285TIP3    H125414   4.299   2.338   0.336 -2.4340 -1.7186 -1.8376
 1285TIP3    H225415   4.296   2.243   0.455 -0.3979 -0.4364 -0.7092
 1286TIP3   OH225416   3.970   6.181   1.488  0.0806 -0.3225 -0.2607
 1286TIP3    H125417   3.902   6.207   1.550 -0.5955 -1.8345 -0.3060
 1286TIP3    H225418   3.924   6.173   1.404  0.9931  1.7510 -1.0269
 1287TIP3   OH225419   4.064   4.036   0.470  0.2201  0.1386 -0.1825
 1287TIP3    H125420   4.061   3.964   0.406 -0.7520  0.2393 -0.2607
 1287TIP3    H225421   4.111   4.106   0.425 -0.0218  0.0285 -0.6133
 1288TIP3   OH225422   3.432   6.693   8.531  0.2143 -0.2619  0.4231
 1288TIP3    H125423   3.446   6.635   8.605  3.0390 -2.0519 -1.3112
 1288TIP3    H225424   3.355   6.657   8.486 -0.9344  0.2721  1.9001
 1289TIP3   OH225425   6.530   6.079   7.315  0.1356  0.0053 -0.1438
 1289TIP3    H125426   6.505   6.090   7.223  0.4735 -0.6437 -0.3187
 1289TIP3    H225427   6.486   6.151   7.360  0.3774  0.6406 -0.8880
 1290TIP3   OH225428   1.969   3.451   7.332  0.1899 -0.0291 -0.0594
 1290TIP3    H125429   1.930   3.365   7.346  0.2296  0.3590  3.0842
 1290TIP3    H225430   1.898   3.514   7.345  1.1445  0.5600  3.0668
 1291TIP3   OH225431   2.975   3.842   6.675 -0.2191 -0.2460  0.2214
 1291TIP3    H125432   3.031   3.793   6.735  0.6973 -0.1545 -0.5420
 1291TIP3    H225433   3.020   3.837   6.590 -1.5759 -0.5235 -0.5075
 1292TIP3   OH225434   0.517   1.399   0.914  0.7692 -0.0994  0.2351
 1292TIP3    H125435   0.431   1.441   0.913  0.9066  0.3226  2.0732
 1292TIP3    H225436   0.578   1.470   0.896  0.7564 -0.4276 -1.2213
 1293TIP3   OH225437   5.478   4.735   1.637 -0.0061  0.5331  0.1390
 1293TIP3    H125438   5.531   4.655   1.631  0.0033  0.4454  1.2280
 1293TIP3    H225439   5.451   4.739   1.728  0.6291  2.1721  0.2946
 1294TIP3   OH225440   0.146   1.395   7.133  0.0516 -0.6301  0.6405
 1294TIP3    H125441   0.233   1.426   7.108 -0.5144  0.0530 -0.5608
 1294TIP3    H225442   0.160   1.303   7.156  0.7616 -1.2260 -1.7957
 1295TIP3   OH225443   4.348   1.749   0.389  0.1158 -0.2175  0.1856
 1295TIP3    H125444   4.288   1.740   0.314  1.4474  1.8808 -1.2496
 1295TIP3    H225445   4.403   1.671   0.385  0.1192 -0.1798 -1.0243
 1296TIP3   OH225446   3.989   1.272   0.021 -0.1257 -0.3973  0.0723
 1296TIP3    H125447   4.026   1.196   0.066  0.6487  1.1264  2.1373
 1296TIP3    H225448   4.064   1.309  -0.027 -0.0737  0.0178  0.4662
 1297TIP3   OH225449   3.767   6.410   0.614  0.1095  0.4100 -0.0415
 1297TIP3    H125450   3.710   6.434   0.540 -0.2209  0.4194  0.2129
 1297TIP3    H225451   3.855   6.429   0.583 -0.0463  0.6576 -0.3428
 1298TIP3   OH225452   5.995   4.984   8.340  0.0891 -0.0472  0.1134
 1298TIP3    H125453   5.929   4.995   8.272  1.2083  0.8552 -0.8850
 1298TIP3    H225454   5.974   4.901   8.382 -0.4393 -0.8032 -1.5748
 1299TIP3   OH225455   1.239   1.192   8.427 -0.1043 -0.3768 -0.0831
 1299TIP3    H125456   1.170   1.138   8.389 -0.8605  0.5184 -0.0072
 1299TIP3    H225457   1.196   1.275   8.448  0.8967  0.0435  0.3605
 1300TIP3   OH225458   4.177   5.041   6.882 -0.5901 -0.0054  0.1871
 1300TIP3    H125459   4.252   5.099   6.890  0.0582 -0.8902  0.7116
 1300TIP3    H225460   4.170   4.998   6.967 -0.0447 -1.8773 -0.6621
 1301TIP3   OH225461   6.849   1.510   6.882  0.2727  0.2947 -0.1177
 1301TIP3    H125462   6.793   1.470   6.816 -0.6524  1.0181  0.1971
 1301TIP3    H225463   6.831   1.604   6.876  0.6110  0.4337  0.7564
 1302TIP3   OH225464   2.925   3.965   7.652  0.6818  0.0220 -0.7289
 1302TIP3    H125465   3.008   3.918   7.643  1.0938  0.3377  0.9759
 1302TIP3    H225466   2.948   4.048   7.694 -0.6332 -0.5994  1.4350
 1303TIP3   OH225467   6.318   0.344   1.402 -0.1963 -0.2174  0.2988
 1303TIP3    H125468   6.373   0.399   1.346 -0.2600 -0.3199  0.1352
 1303TIP3    H225469   6.290   0.402   1.473  0.2275 -0.1989  0.4535
 1304TIP3   OH225470   4.808   1.114   0.954  0.7643  0.2306  0.0951
 1304TIP3    H125471   4.813   1.065   1.036 -2.5907 -0.5075  0.0304
 1304TIP3    H225472   4.800   1.047   0.887 -0.8421  0.7733 -0.3147
 1305TIP3   OH225473   5.124   3.329   6.829  0.4125  0.3615  0.2763
 1305TIP3    H125474   5.214   3.358   6.814  0.7051 -0.5545  0.1698
 1305TIP3    H225475   5.123   3.299   6.920  0.4809 -0.5165 -0.0006
 1306TIP3   OH225476   3.706   4.867   1.367  0.0168  0.0683 -0.2616
 1306TIP3    H125477   3.783   4.811   1.370  0.3208  0.4813 -0.3059
 1306TIP3    H225478   3.636   4.809   1.336 -0.3679 -1.0514  2.4159
 1307TIP3   OH225479   6.010   4.273   0.630 -0.4341 -0.0541  0.1582
 1307TIP3    H125480   5.999   4.368   0.631  0.2635  0.0711 -1.1671
 1307TIP3    H225481   5.921   4.238   0.637 -0.9965  0.7680 -2.0626
 1308TIP3   OH225482   1.914   3.602   8.583  0.3467  0.2371 -0.5371
 1308TIP3    H125483   1.894   3.695   8.593 -0.5303  0.0531 -0.4700
 1308TIP3    H225484   1.898   3.584   8.491 -0.5693 -0.0740 -0.3325
 1309TIP3   OH225485   0.286   0.493   0.611 -0.3126 -0.3066 -0.7401
 1309TIP3    H125486   0.215   0.447   0.656  1.5635 -1.3148  1.4262
 1309TIP3    H225487   0.357   0.428   0.606  0.7600  0.8892 -2.0745
 1310TIP3   OH225488   3.371   4.282   8.622 -0.2744  0.3957 -0.0292
 1310TIP3    H125489   3.275   4.289   8.622 -0.6194 -2.7703  0.7146
 1310TIP3    H225490   3.397   4.310   8.710 -0.9564 -1.9112  0.9856
 1311TIP3   OH225491   5.009   6.368   8.368  0.1623  0.0582  0.1659
 1311TIP3    H125492   5.028   6.460   8.346  0.4337  0.1325  0.7131
 1311TIP3    H225493   4.913   6.362   8.361 -0.1435  1.0244  2.5079
 1312TIP3   OH225494   0.372   4.377   0.933 -0.0421  0.1940  0.4576
 1312TIP3    H125495   0.347   4.339   0.850 -0.1723  1.9287 -0.3459
 1312TIP3    H225496   0.351   4.470   0.924  2.2626  0.8797  1.5049
 1313TIP3   OH225497   5.463   0.356   0.544 -0.6553 -0.4048  0.0676
 1313TIP3    H125498   5.464   0.271   0.590  1.3019 -1.2739 -1.4287
 1313TIP3    H225499   5.401   0.343   0.472 -0.7631 -0.3732  0.1538
 1314TIP3   OH225500   3.626   3.938   8.179  0.3086  0.8214 -0.4953
 1314TIP3    H125501   3.686   3.953   8.252 -0.2249 -0.4011  0.2207
 1314TIP3    H225502   3.552   3.892   8.218  0.0346  0.0998 -1.8202
 1315TIP3   OH225503   3.528   6.134   1.136 -0.5812  0.2633 -0.3235
 1315TIP3    H125504   3.544   6.056   1.083  0.7067  0.3077 -0.0430
 1315TIP3    H225505   3.440   6.121   1.173 -0.0759 -1.4672  0.3924
 1316TIP3   OH225506   3.657   4.476   0.087 -0.1371 -0.0257  0.1991
 1316TIP3    H125507   3.732   4.535   0.078  0.7052 -1.1680 -0.5119
 1316TIP3    H225508   3.676   4.404   0.027 -0.2619 -1.9473  2.3322
 1317TIP3   OH225509   2.024   0.435   7.183  0.1723  0.2291  0.2261
 1317TIP3    H125510   2.085   0.481   7.241  1.1609 -0.8170  0.0579
 1317TIP3    H225511   2.010   0.495   7.110  1.0897  0.4465  0.2172
 1318TIP3   OH225512   2.171   4.479   8.689 -0.7359  0.1306 -0.1037
 1318TIP3    H125513   2.174   4.482   8.785  0.3607 -0.3335 -0.1089
 1318TIP3    H225514   2.261   4.459   8.663 -1.2563 -0.8989 -1.1894
 1319TIP3   OH225515   4.040   6.589   2.511  0.2184  0.1379 -0.3736
 1319TIP3    H125516   3.977   6.601   2.582  0.6428 -0.0427  0.0438
 1319TIP3    H225517   4.065   6.497   2.517 -0.8325 -0.2500 -1.6906
 1320TIP3   OH225518   1.431   3.631   1.053  0.0938  0.5777 -0.0975
 1320TIP3    H125519   1.415   3.563   0.988 -0.8605  0.3969  0.3066
 1320TIP3    H225520   1.370   3.701   1.031  0.5723  1.0127 -0.0805
 1321TIP3   OH225521   2.853   0.426   8.616  0.1681 -0.0597  0.6051
 1321TIP3    H125522   2.938   0.383   8.630 -0.4158 -1.8494 -0.9580
 1321TIP3    H225523   2.792   0.376   8.670 -0.1263  0.4572  0.7632
 1322TIP3   OH225524   3.074   1.424   7.881 -0.0637 -0.2223 -0.7957
 1322TIP3    H125525   3.150   1.367   7.886  0.5016  0.5615  0.0236
 1322TIP3    H225526   3.105   1.502   7.835  0.4138  1.1826  1.6930
 1323TIP3   OH225527   6.679   2.983   0.103 -0.6282  0.3369 -0.2140
 1323TIP3    H125528   6.753   3.017   0.152  0.5913 -1.6689 -0.5350
 1323TIP3    H225529   6.609   2.974   0.167  0.8713 -2.0556  1.2396
 1324TIP3   OH225530   1.006   5.278   0.689  0.2683 -0.4904  0.1762
 1324TIP3    H125531   1.093   5.309   0.714  0.7777 -0.7534 -1.1891
 1324TIP3    H225532   0.990   5.317   0.603 -0.6875 -0.9729  0.1150
 1325TIP3   OH225533   4.328   0.055   0.256 -0.1235 -0.1412  0.0744
 1325TIP3    H125534   4.293   0.047   0.167 -0.0736  1.0814 -0.0666
 1325TIP3    H225535   4.302  -0.027   0.298 -0.4406 -0.5986 -0.9603
 1326TIP3   OH225536   1.871   4.139   0.603  0.3613 -0.4507  0.2837
 1326TIP3    H125537   1.812   4.065   0.594 -0.4843 -0.0999  2.2844
 1326TIP3    H225538   1.883   4.148   0.698 -0.6550  2.7506  0.2295
 1327TIP3   OH225539   4.575   5.036   0.343 -0.1877 -0.2261  0.4888
 1327TIP3    H125540   4.523   5.081   0.276  4.2151  0.4587 -2.8924
 1327TIP3    H225541   4.606   5.107   0.401  1.1619  0.1870 -0.6946
 1328TIP3   OH225542   1.347   4.747   7.765  0.3238 -0.2164 -0.2582
 1328TIP3    H125543   1.382   4.799   7.693  1.1265  2.0249  1.6054
 1328TIP3    H225544   1.277   4.802   7.801  1.9817  0.2575  2.5262
 1329TIP3   OH225545   2.622   2.759   7.805 -0.2186 -0.2828  0.3939
 1329TIP3    H125546   2.678   2.824   7.763 -0.3048 -1.1715 -1.1652
 1329TIP3    H225547   2.637   2.771   7.899  0.2595  1.5173  0.1205
 1330TIP3   OH225548   3.341   0.644   7.905  0.5914 -0.0356 -0.0823
 1330TIP3    H125549   3.321   0.556   7.874  0.4446  0.1686 -0.5768
 1330TIP3    H225550   3.256   0.680   7.931  0.5644  0.1782 -0.4620
 1331TIP3   OH225551   5.685   5.377   8.431 -0.3228 -0.0221 -0.2312
 1331TIP3    H125552   5.700   5.353   8.523  0.5311  1.6278  0.1021
 1331TIP3    H225553   5.648   5.299   8.391 -0.8765 -0.7200  1.5639
 1332TIP3   OH225554   1.127   5.367   1.033 -0.4393  0.2882 -0.2512
 1332TIP3    H125555   1.183   5.319   0.971 -1.0468 -0.4642 -0.2298
 1332TIP3    H225556   1.141   5.322   1.116 -0.4482  0.6234 -0.0674
 1333TIP3   OH225557   5.558   5.292   6.905 -0.0263 -0.0826  0.4564
 1333TIP3    H125558   5.646   5.324   6.884 -0.4195  0.5893 -0.2438
 1333TIP3    H225559   5.500   5.365   6.880 -1.0459 -1.6020 -2.0256
 1334TIP3   OH225560   0.250   3.060   0.446 -0.0472  0.1152  0.1860
 1334TIP3    H125561   0.238   3.078   0.539 -1.3827 -3.0521  0.7587
 1334TIP3    H225562   0.326   3.001   0.442 -0.4996 -0.4376 -0.6161
 1335TIP3   OH225563   6.663   6.020   1.200  0.3982  0.1567  0.2091
 1335TIP3    H125564   6.643   6.020   1.293  1.0153  0.5963  0.3459
 1335TIP3    H225565   6.582   6.049   1.157  0.1717  0.1251  0.6153
 1336TIP3   OH225566   1.583   5.622   7.054 -0.1181 -0.8090  0.0240
 1336TIP3    H125567   1.554   5.608   7.144  0.9754 -0.7483  0.4030
 1336TIP3    H225568   1.588   5.534   7.017  1.1356 -0.9958  0.5894
 1337TIP3   OH225569   0.332   3.072   0.726  0.0143 -0.2507  0.0130
 1337TIP3    H125570   0.403   3.008   0.728  1.5384  1.2897  3.0580
 1337TIP3    H225571   0.273   3.044   0.796 -0.6059  0.3011 -0.2809
 1338TIP3   OH225572   2.828   1.052   6.878  0.1566  0.0883 -0.2310
 1338TIP3    H125573   2.779   1.134   6.879  0.6952  0.4190  1.0185
 1338TIP3    H225574   2.761   0.985   6.865 -0.3552  0.6814 -0.7361
 1339TIP3   OH225575   3.184   5.585   1.930  0.4763  0.6271 -0.2228
 1339TIP3    H125576   3.117   5.518   1.919  0.8776  0.4738 -2.0180
 1339TIP3    H225577   3.136   5.663   1.960 -0.7211  0.8541 -2.5225
 1340TIP3   OH225578   5.446   4.370   6.035 -0.1709  0.2992  0.0238
 1340TIP3    H125579   5.516   4.435   6.037  1.6445 -1.5558  0.1523
 1340TIP3    H225580   5.467   4.315   5.959 -2.2315  0.4172 -0.6902
 1341TIP3   OH225581   4.605   3.282   0.024  0.1147 -0.1546 -0.0810
 1341TIP3    H125582   4.556   3.239   0.094 -0.1160 -0.2835 -0.3171
 1341TIP3    H225583   4.686   3.231   0.017  1.0225  0.9942  1.3676
 1342TIP3   OH225584   0.177   5.801   0.432  0.0988  0.0270 -0.0815
 1342TIP3    H125585   0.143   5.864   0.368  0.5377 -0.1475 -0.4919
 1342TIP3    H225586   0.167   5.845   0.516  0.9574  0.9223 -0.4177
 1343TIP3   OH225587   2.022   5.708   7.379 -0.6666  0.2264 -0.4155
 1343TIP3    H125588   2.021   5.803   7.374 -0.8909  0.2533  0.1082
 1343TIP3    H225589   1.954   5.680   7.318 -1.6691  0.4609  0.5574
 1344TIP3   OH225590   1.887   4.607   1.190 -0.6997 -0.5633  0.4537
 1344TIP3    H125591   1.792   4.609   1.174 -0.6243 -0.5933 -0.0135
 1344TIP3    H225592   1.909   4.697   1.215 -0.7535 -0.4023 -0.0549
 1345TIP3   OH225593   6.399   2.387   1.638 -0.0380 -1.0092  0.6739
 1345TIP3    H125594   6.342   2.376   1.714 -0.3155  0.8418  0.7724
 1345TIP3    H225595   6.342   2.375   1.562 -0.6051  0.7919  0.7730
 1346TIP3   OH225596   1.690   4.771   1.410  0.0557  0.2040 -0.5874
 1346TIP3    H125597   1.618   4.816   1.365  0.4293  1.7056  0.2534
 1346TIP3    H225598   1.769   4.808   1.370  0.3694  0.6985  0.4659
 1347TIP3   OH225599   3.808   2.874   7.949  0.0041 -0.2680 -0.2986
 1347TIP3    H125600   3.748   2.849   7.879  1.0973  1.4625 -1.9643
 1347TIP3    H225601   3.895   2.862   7.911  0.6406  0.4568  0.8642
 1348TIP3   OH225602   5.178   6.288   7.826 -0.1549 -0.2686  0.3339
 1348TIP3    H125603   5.234   6.327   7.759 -1.3070  0.2472 -0.3761
 1348TIP3    H225604   5.232   6.221   7.867  0.5576 -0.6763 -1.1949
 1349TIP3   OH225605   2.281   2.233   7.693  0.4618  0.0202  0.4881
 1349TIP3    H125606   2.208   2.226   7.755 -0.1985 -0.7327 -0.3487
 1349TIP3    H225607   2.293   2.327   7.680  0.3719  0.1768  1.4656
 1350TIP3   OH225608   1.916   4.798   8.357  0.0517 -0.1663  0.3191
 1350TIP3    H125609   1.888   4.752   8.436 -0.0621  1.8394  1.5167
 1350TIP3    H225610   2.001   4.836   8.381  0.7936 -0.8818 -1.0943
 1351TIP3   OH225611   1.304   4.707   0.449  0.2026 -0.6206 -0.0442
 1351TIP3    H125612   1.314   4.734   0.357 -0.0349  1.2664  0.4458
 1351TIP3    H225613   1.221   4.747   0.477  0.9175 -0.0353  1.3432
 1352TIP3   OH225614   4.077   3.128   0.558 -0.1994 -0.4667 -0.5430
 1352TIP3    H125615   4.013   3.059   0.544 -1.0310  0.5146 -1.9037
 1352TIP3    H225616   4.037   3.185   0.624  1.4394 -2.3253  2.2951
 1353TIP3   OH225617   0.484   6.047   0.663  0.4278 -0.5446  0.1888
 1353TIP3    H125618   0.431   6.010   0.734  1.3705 -0.5393  0.9074
 1353TIP3    H225619   0.439   6.128   0.639  0.7779  0.1177  1.6537
 1354TIP3   OH225620   6.773   1.999   0.504  0.0641  1.1329 -0.1044
 1354TIP3    H125621   6.822   1.920   0.527 -1.7958  0.8833  4.0065
 1354TIP3    H225622   6.739   1.981   0.417  1.1534 -1.8497 -0.0413
 1355TIP3   OH225623   2.210   5.492   7.853  0.1390  0.3017 -0.5712
 1355TIP3    H125624   2.206   5.526   7.764 -0.9209 -1.3482 -1.1969
 1355TIP3    H225625   2.284   5.432   7.853 -0.4192 -0.4100 -0.6417
 1356TIP3   OH225626   0.481   3.851   8.312  0.4182  0.6775  0.2532
 1356TIP3    H125627   0.425   3.861   8.390 -0.2614  1.1341 -0.2763
 1356TIP3    H225628   0.430   3.892   8.242  0.4610 -0.8176 -0.6934
 1357TIP3   OH225629   6.194   3.446   8.115  0.0883 -0.0522 -0.2076
 1357TIP3    H125630   6.158   3.450   8.204  0.9258  0.3396  0.1198
 1357TIP3    H225631   6.242   3.364   8.112  0.8913  0.4054  0.0260
 1358TIP3   OH225632   1.110   4.662   8.055 -0.5737  0.1925  0.0356
 1358TIP3    H125633   1.031   4.653   8.107  1.5920  1.1810  3.9431
 1358TIP3    H225634   1.138   4.572   8.037 -1.3022 -0.1896  0.7821
 1359TIP3   OH225635   0.311   2.666   8.249 -0.1680  0.0440 -0.9136
 1359TIP3    H125636   0.266   2.649   8.166 -1.6316  2.9921 -0.8209
 1359TIP3    H225637   0.290   2.590   8.303 -0.5749 -1.1442 -2.6336
 1360TIP3   OH225638   3.494   5.423   0.562  0.2673 -0.0769  0.7184
 1360TIP3    H125639   3.476   5.332   0.537 -0.3177 -0.3485  2.0309
 1360TIP3    H225640   3.435   5.474   0.507  0.2073 -0.5320  0.3496
 1361TIP3   OH225641   2.577   4.261   0.921  0.2313 -0.2073 -0.4612
 1361TIP3    H125642   2.503   4.210   0.889  0.8155 -1.4349  0.0369
 1361TIP3    H225643   2.551   4.352   0.910 -1.9142 -0.5753  0.9588
 1362TIP3   OH225644   5.585   0.181   7.847 -0.2777 -0.0008  0.0175
 1362TIP3    H125645   5.638   0.187   7.768  0.7056 -0.7534  0.6096
 1362TIP3    H225646   5.541   0.097   7.840  1.9391 -1.3790  1.5347
 1363TIP3   OH225647   2.526   4.506   0.551 -0.0356  0.7365  0.5167
 1363TIP3    H125648   2.522   4.457   0.633  0.1137 -1.5752 -0.7540
 1363TIP3    H225649   2.436   4.504   0.518  0.4620 -1.2499 -0.8837
 1364TIP3   OH225650   0.598   4.770   7.000 -0.4208 -0.4500 -0.4075
 1364TIP3    H125651   0.578   4.858   6.970 -0.4435 -0.2080  0.2935
 1364TIP3    H225652   0.630   4.782   7.090  0.8948 -1.0201 -0.7660
 1365TIP3   OH225653   4.775   5.584   6.825  0.7198 -0.4319  0.1261
 1365TIP3    H125654   4.803   5.670   6.857 -0.0573  0.5150 -1.5930
 1365TIP3    H225655   4.845   5.557   6.766  0.5400 -0.5575 -0.0305
 1366TIP3   OH225656   4.836   6.543   1.631 -0.4169 -0.5723  0.3528
 1366TIP3    H125657   4.761   6.534   1.689 -0.2252 -0.5516  0.6061
 1366TIP3    H225658   4.895   6.472   1.657 -0.2741 -0.4859  0.2659
 1367TIP3   OH225659   0.798   1.380   8.549 -0.2699 -0.2508  0.1487
 1367TIP3    H125660   0.886   1.377   8.587  0.7243 -0.2592 -1.9854
 1367TIP3    H225661   0.812   1.367   8.455 -2.5984 -0.5763 -0.2206
 1368TIP3   OH225662   2.265   2.499   7.638 -0.5051 -0.1503  0.0156
 1368TIP3    H125663   2.180   2.522   7.599  0.0785 -0.1768 -1.3141
 1368TIP3    H225664   2.298   2.582   7.673 -1.2218 -0.2052  0.8605
 1369TIP3   OH225665   1.983   4.315   8.174  0.7253  0.0598  0.0388
 1369TIP3    H125666   1.915   4.249   8.161  0.7907 -0.2373  1.1118
 1369TIP3    H225667   1.936   4.395   8.195  0.6893 -0.2891  1.4013
 1370TIP3   OH225668   5.629   5.743   0.852 -0.4578 -0.0498  0.0472
 1370TIP3    H125669   5.649   5.815   0.912  0.9907 -1.0213  0.7673
 1370TIP3    H225670   5.683   5.670   0.882 -0.2229 -0.7804 -2.0149
 1371TIP3   OH225671   0.375   1.830   1.217 -0.7811  0.0046  0.0581
 1371TIP3    H125672   0.402   1.910   1.173  0.1347  0.1311  0.8329
 1371TIP3    H225673   0.296   1.855   1.266  0.8280  1.0892  2.2189
 1372TIP3   OH225674   6.393   0.635   0.817  0.4627 -0.0307 -0.0527
 1372TIP3    H125675   6.408   0.634   0.723  2.5334 -0.8350  0.2325
 1372TIP3    H225676   6.471   0.594   0.854 -1.5704 -2.5100  1.8624
 1373TIP3   OH225677   4.825   4.329   7.692  0.4764 -0.2646  0.4916
 1373TIP3    H125678   4.784   4.400   7.740  1.0897  0.9782 -0.7549
 1373TIP3    H225679   4.905   4.309   7.740  1.0203  0.8776  0.0803
 1374TIP3   OH225680   6.034   5.767   1.399  0.0941  0.1425  0.1357
 1374TIP3    H125681   6.105   5.718   1.440  0.8048  0.6133 -0.4976
 1374TIP3    H225682   5.986   5.807   1.472 -1.0245 -2.1176  0.7405
 1375TIP3   OH225683   0.267   0.856   6.379  0.0032 -0.2864 -0.7100
 1375TIP3    H125684   0.210   0.791   6.420  0.0487 -0.0384 -0.2425
 1375TIP3    H225685   0.218   0.938   6.385  0.2210 -0.1549 -0.6924
 1376TIP3   OH225686   0.888   4.896   8.582  0.6860  0.0645  0.0007
 1376TIP3    H125687   0.810   4.952   8.585  0.5394 -0.0968 -0.5853
 1376TIP3    H225688   0.892   4.855   8.668  0.3538  0.3840  0.1705
 1377TIP3   OH225689   5.136   2.803   0.844 -0.6762 -0.1158  0.8404
 1377TIP3    H125690   5.148   2.897   0.836 -1.4543 -0.0349  0.6023
 1377TIP3    H225691   5.049   2.786   0.810 -0.1860 -1.0485 -0.0153
 1378TIP3   OH225692   6.282   3.502   1.053  0.0598  1.2465  0.1588
 1378TIP3    H125693   6.214   3.529   1.115 -1.0777  0.2526 -0.6326
 1378TIP3    H225694   6.310   3.416   1.083 -0.1846  0.9510 -0.4488
 1379TIP3   OH225695   4.024   5.007   7.930 -0.6650  0.2328  0.0981
 1379TIP3    H125696   4.026   4.954   8.009 -1.0916  0.0383 -0.0203
 1379TIP3    H225697   3.998   5.094   7.959 -0.5941  0.2197  0.2013
 1380TIP3   OH225698   4.815   3.478   8.680 -0.3946  0.1369  0.4081
 1380TIP3    H125699   4.848   3.560   8.643 -1.0075  0.5368  0.7320
 1380TIP3    H225700   4.814   3.417   8.606  0.5389  0.2694  0.2739
 1381TIP3   OH225701   0.753   4.354   0.966 -0.0714 -0.2124 -0.0426
 1381TIP3    H125702   0.757   4.367   0.871 -2.0294 -0.3486 -0.1959
 1381TIP3    H225703   0.829   4.400   1.000  0.9045 -0.5156 -1.7075
 1382TIP3   OH225704   1.315   1.259   1.501  0.2442 -0.6798 -0.0810
 1382TIP3    H125705   1.295   1.166   1.489  0.8943 -0.7661 -0.6354
 1382TIP3    H225706   1.345   1.266   1.591 -3.7419 -0.2308  1.3898
 1383TIP3   OH225707   5.995   4.127   1.028 -0.1933  0.3926 -0.2080
 1383TIP3    H125708   6.063   4.062   1.010  0.5392  1.1705 -0.3057
 1383TIP3    H225709   5.914   4.076   1.034  0.1187 -0.3374 -1.8293
 1384TIP3   OH225710   6.682   4.659   7.850 -0.1167  0.0891  0.0978
 1384TIP3    H125711   6.725   4.573   7.842 -0.8097 -0.1497 -1.3857
 1384TIP3    H225712   6.638   4.671   7.766  0.3195  2.1097  0.1262
 1385TIP3   OH225713   0.649   0.705   0.257  0.2767 -0.5908 -0.3261
 1385TIP3    H125714   0.682   0.622   0.224  0.1915 -0.2276 -1.3441
 1385TIP3    H225715   0.561   0.713   0.220 -0.0184 -0.4064  0.3969
 1386TIP3   OH225716   0.650   1.507   7.346  0.3226  0.0312 -0.0684
 1386TIP3    H125717   0.733   1.504   7.393  0.0388 -0.0836  0.4318
 1386TIP3    H225718   0.675   1.519   7.254  0.9278 -0.8159 -0.0292
 1387TIP3   OH225719   4.128   6.331   0.907 -0.1776  0.1221  0.0193
 1387TIP3    H125720   4.143   6.297   0.995 -0.1332  1.6141  0.6044
 1387TIP3    H225721   4.125   6.252   0.852  0.2766 -0.8044  1.2641
 1388TIP3   OH225722   6.803   1.473   1.850 -0.0740  0.7905  0.0077
 1388TIP3    H125723   6.725   1.527   1.850 -0.4573  0.2472  0.4215
 1388TIP3    H225724   6.771   1.384   1.866  0.5336  0.4188 -0.7712
 1389TIP3   OH225725   5.336   5.656   1.037  0.1341 -0.4979 -0.3733
 1389TIP3    H125726   5.277   5.604   1.091 -1.7123  1.6709 -0.1369
 1389TIP3    H225727   5.305   5.644   0.947 -0.3380  0.1717 -0.3121
 1390TIP3   OH225728   1.048   5.072   1.911  0.1216 -0.7696  0.1901
 1390TIP3    H125729   1.019   5.148   1.962 -1.3510 -0.5731 -0.8810
 1390TIP3    H225730   1.139   5.090   1.891  0.6242 -0.6336  2.3406
 1391TIP3   OH225731   5.160   4.503   0.941  0.3831  0.1660 -0.2934
 1391TIP3    H125732   5.207   4.447   1.002 -1.8517 -0.3664  1.0665
 1391TIP3    H225733   5.204   4.588   0.947  1.0263 -0.2446  1.0750
 1392TIP3   OH225734   6.360   1.336   0.189 -0.2764 -0.4729  0.7827
 1392TIP3    H125735   6.302   1.302   0.257 -0.3106 -1.2574  0.3687
 1392TIP3    H225736   6.312   1.410   0.152 -1.0076 -1.0965  0.4652
 1393TIP3   OH225737   1.436   6.034   1.063  0.6122  0.8857  0.0194
 1393TIP3    H125738   1.378   6.040   0.988 -1.0998  0.0340  1.2173
 1393TIP3    H225739   1.513   5.986   1.031 -1.7782 -3.1678 -0.3343
 1394TIP3   OH225740   2.862   3.872   7.341  0.0950  0.9822 -0.3430
 1394TIP3    H125741   2.940   3.817   7.353 -0.0234  0.2808 -2.2744
 1394TIP3    H225742   2.865   3.935   7.412  0.8838 -0.7992  1.2805
 1395TIP3   OH225743   1.784   4.554   7.760  0.4165 -0.6171  0.5346
 1395TIP3    H125744   1.763   4.589   7.674  0.3014 -0.0968  0.7729
 1395TIP3    H225745   1.705   4.570   7.812  0.7942 -0.1585  0.9715
 1396TIP3   OH225746   2.795   3.222   1.813  0.1049 -0.0656  0.1846
 1396TIP3    H125747   2.857   3.243   1.883  1.7590  1.2985 -1.5947
 1396TIP3    H225748   2.716   3.271   1.836  0.0865 -0.7731  1.7880
 1397TIP3   OH225749   1.880   5.959   7.378 -0.6706  0.3826  0.1083
 1397TIP3    H125750   1.912   6.041   7.343  1.0724 -0.7684 -1.1579
 1397TIP3    H225751   1.784   5.966   7.372 -0.5674  2.2738  0.0644
 1398TIP3   OH225752   6.308   2.373   6.119 -0.7200 -0.1210 -0.2415
 1398TIP3    H125753   6.329   2.349   6.028 -0.8163  0.0482 -0.3081
 1398TIP3    H225754   6.376   2.435   6.144 -2.2148  1.9612 -1.1142
 1399TIP3   OH225755   1.261   0.832   1.252  0.5354 -0.7569 -0.0007
 1399TIP3    H125756   1.276   0.863   1.342 -1.3692 -1.6837  0.6768
 1399TIP3    H225757   1.188   0.885   1.221  0.1653 -1.5153 -0.4339
 1400TIP3   OH225758   3.044   3.038   0.460  0.4477 -0.1837 -0.1843
 1400TIP3    H125759   3.093   2.956   0.464 -1.0833 -1.1235 -0.0364
 1400TIP3    H225760   3.066   3.075   0.374  0.1835 -1.3700 -0.7752
 1401TIP3   OH225761   3.618   6.811   1.793 -0.0868 -0.9610 -1.0654
 1401TIP3    H125762   3.591   6.896   1.760  1.8286  0.6059  1.0783
 1401TIP3    H225763   3.713   6.811   1.787  0.0265 -2.5117 -0.0453
 1402TIP3   OH225764   1.882   2.000   1.074  0.1317  0.0134  0.0253
 1402TIP3    H125765   1.949   2.029   1.137 -0.7953 -1.0182  1.5470
 1402TIP3    H225766   1.805   1.981   1.128 -1.6947  1.8791 -1.7469
 1403TIP3   OH225767   2.091   1.663   7.004  0.3425 -0.0227  0.3146
 1403TIP3    H125768   2.069   1.599   6.937 -1.2369  1.2698 -0.4815
 1403TIP3    H225769   2.140   1.614   7.069 -0.1624 -1.8623 -0.6236
 1404TIP3   OH225770   4.424   1.736   8.648  0.0811 -0.1585 -0.0305
 1404TIP3    H125771   4.442   1.727   8.555 -1.4905 -0.8943 -0.2885
 1404TIP3    H225772   4.404   1.829   8.660 -4.2549 -0.7261 -1.3747
 1405TIP3   OH225773   5.400   5.636   5.909  0.2062 -0.2204 -0.4056
 1405TIP3    H125774   5.452   5.639   5.989 -0.5872  2.3381  0.1180
 1405TIP3    H225775   5.322   5.585   5.932  0.3569 -0.1723  0.2063
 1406TIP3   OH225776   0.350   1.542   8.348 -0.1713 -0.1985  0.0319
 1406TIP3    H125777   0.392   1.508   8.268  1.5005  0.1185  0.7189
 1406TIP3    H225778   0.423   1.558   8.408 -1.4408 -1.2473  1.9645
 1407TIP3   OH225779   2.784   6.279   0.738 -0.1197 -0.0010  0.5252
 1407TIP3    H125780   2.704   6.240   0.772  0.3534 -0.2086  1.4226
 1407TIP3    H225781   2.852   6.255   0.801  0.5785  0.5081 -0.0082
 1408TIP3   OH225782   6.768   2.459   7.579  0.0729 -0.5153 -0.5099
 1408TIP3    H125783   6.818   2.536   7.553  1.2473 -1.8274 -2.3070
 1408TIP3    H225784   6.834   2.393   7.600 -0.6922 -2.7405 -4.2321
 1409TIP3   OH225785   0.312   5.055   0.557  0.0572  0.0032 -0.3401
 1409TIP3    H125786   0.259   5.122   0.514 -1.3800 -0.1572  1.1146
 1409TIP3    H225787   0.392   5.101   0.583 -0.4770  0.9028 -0.2454
 1410TIP3   OH225788   3.166   1.632   7.749 -0.3767 -0.5819 -0.2619
 1410TIP3    H125789   3.260   1.632   7.729 -0.0725 -0.6720  1.0720
 1410TIP3    H225790   3.130   1.702   7.695  0.3788 -0.8492 -1.1328
 1411TIP3   OH225791   6.083   3.246   7.725  0.4913 -0.1029  0.0915
 1411TIP3    H125792   6.011   3.309   7.724  0.4507 -0.0624  2.1836
 1411TIP3    H225793   6.161   3.298   7.707  0.3121  0.3514  0.6006
 1412TIP3   OH225794   6.611   3.197   0.926  0.2265  0.1861 -0.1588
 1412TIP3    H125795   6.564   3.191   1.009  1.1697  0.4057  0.3952
 1412TIP3    H225796   6.669   3.122   0.925  0.9432  0.7319 -0.1620
 1413TIP3   OH225797   4.122   5.277   7.565 -0.0773 -0.4633  0.2166
 1413TIP3    H125798   4.036   5.293   7.603  0.8676  2.6315  1.3218
 1413TIP3    H225799   4.163   5.214   7.625 -0.8294 -0.3775  0.8339
 1414TIP3   OH225800   3.109   6.150   7.493 -0.3341 -0.5363  0.4986
 1414TIP3    H125801   3.051   6.090   7.445  0.8449 -1.1418 -0.2228
 1414TIP3    H225802   3.195   6.138   7.451  0.5892 -0.5696  2.3121
 1415TIP3   OH225803   2.714   3.121   6.063 -0.1700 -0.2522  0.1774
 1415TIP3    H125804   2.619   3.127   6.077 -0.2227  0.1314 -0.3225
 1415TIP3    H225805   2.751   3.187   6.122 -0.2699  0.1165 -0.1649
 1416TIP3   OH225806   6.620   0.300   8.135 -0.3931 -0.0932  0.2505
 1416TIP3    H125807   6.563   0.274   8.208  1.6744 -1.0014  1.6524
 1416TIP3    H225808   6.602   0.236   8.067 -1.1865 -0.2393  0.5838
 1417TIP3   OH225809   1.635   6.442   7.503  0.1131 -0.2866  0.4430
 1417TIP3    H125810   1.620   6.385   7.578 -1.4173  0.9769  1.1410
 1417TIP3    H225811   1.547   6.463   7.471  0.5543  2.3746  0.7658
 1418TIP3   OH225812   0.846   4.201   0.357  0.0039  0.1238 -0.4694
 1418TIP3    H125813   0.893   4.204   0.441  0.4931  0.0093 -0.7373
 1418TIP3    H225814   0.784   4.128   0.367 -1.4982  1.4651  0.5926
 1419TIP3   OH225815   4.241   6.541   6.367  0.0878 -0.2143  0.0384
 1419TIP3    H125816   4.311   6.505   6.313 -0.2286 -1.8034  0.6359
 1419TIP3    H225817   4.231   6.631   6.337  1.0120 -0.5761 -1.4271
 1420TIP3   OH225818   1.867   3.223   8.678 -0.4979 -0.4404 -0.6747
 1420TIP3    H125819   1.837   3.151   8.623 -0.4200  0.5323 -2.0325
 1420TIP3    H225820   1.898   3.289   8.616  2.0421 -0.3328  0.5776
 1421TIP3   OH225821   5.507   3.684   8.696  0.8137  0.3835  0.3555
 1421TIP3    H125822   5.520   3.755   8.633  0.6877  1.1923  1.2170
 1421TIP3    H225823   5.440   3.628   8.656  0.9597  0.7172 -0.3611
 1422TIP3   OH225824   1.832   3.269   1.065 -0.1115 -0.3977  0.2295
 1422TIP3    H125825   1.862   3.200   1.125  0.1899 -0.9371 -0.5313
 1422TIP3    H225826   1.828   3.348   1.120  1.9582 -0.4640  0.5702
 1423TIP3   OH225827   3.764   5.016   7.295 -0.3866 -0.1881 -0.1166
 1423TIP3    H125828   3.708   4.939   7.300  0.0583 -0.9088 -3.9223
 1423TIP3    H225829   3.843   4.992   7.344 -0.8430 -1.5933 -0.0518
 1424TIP3   OH225830   3.360   1.436   0.659 -0.5607 -0.0244 -0.1055
 1424TIP3    H125831   3.302   1.368   0.626 -1.1028  0.2255  0.3244
 1424TIP3    H225832   3.307   1.515   0.659 -0.0127  0.3443 -0.3453
 1425TIP3   OH225833   0.540   2.250   7.382  0.2194 -0.5782 -0.0898
 1425TIP3    H125834   0.593   2.228   7.459 -0.1723  0.6554  0.5602
 1425TIP3    H225835   0.595   2.311   7.333 -0.6093  0.7950  0.6429
 1426TIP3   OH225836   0.199   5.694   8.552 -0.0695  0.0691 -0.5461
 1426TIP3    H125837   0.117   5.700   8.600 -0.6730 -0.9520 -1.3998
 1426TIP3    H225838   0.200   5.604   8.517 -0.3974  1.1768 -3.6902
 1427TIP3   OH225839   0.334   5.966   1.650  0.0048 -0.4191  0.1469
 1427TIP3    H125840   0.240   5.959   1.635  0.1952 -2.8824 -0.3189
 1427TIP3    H225841   0.344   6.042   1.706 -2.4911 -1.2617  1.9023
 1428TIP3   OH225842   6.098   3.727   0.324 -0.1436 -0.3021 -0.0928
 1428TIP3    H125843   6.101   3.659   0.257 -0.5097  0.4311 -0.8689
 1428TIP3    H225844   6.143   3.802   0.285  1.4541 -0.5129  1.2649
 1429TIP3   OH225845   4.659   3.371   1.320 -0.1292 -0.0442  0.7465
 1429TIP3    H125846   4.639   3.279   1.340 -2.0079 -0.4067 -2.1395
 1429TIP3    H225847   4.741   3.366   1.270  0.3747 -0.0018  1.5561
 1430TIP3   OH225848   4.792   4.739   6.782  0.4239 -0.5865  0.1877
 1430TIP3    H125849   4.749   4.687   6.714  1.9964 -0.5859 -0.8653
 1430TIP3    H225850   4.741   4.821   6.784 -1.5238 -1.7556  1.2430
 1431TIP3   OH225851   1.171   3.808   8.169 -0.1758  0.0721 -0.0676
 1431TIP3    H125852   1.135   3.897   8.170  0.1011  0.1833  0.8519
 1431TIP3    H225853   1.265   3.820   8.187 -0.0636 -0.3748 -0.3508
 1432TIP3   OH225854   5.280   5.696   1.430  0.0247 -0.3639  0.2507
 1432TIP3    H125855   5.365   5.688   1.474 -0.1293  1.1917  0.9045
 1432TIP3    H225856   5.276   5.787   1.401 -0.2486 -1.1238 -2.3157
 1433TIP3   OH225857   2.747   1.877   0.377 -0.0598  0.3954 -0.2412
 1433TIP3    H125858   2.662   1.921   0.377 -0.5570 -0.5582 -0.2510
 1433TIP3    H225859   2.803   1.934   0.324 -0.5943  1.1981  0.0312
 1434TIP3   OH225860   3.676   3.914   8.493 -0.0512 -0.0597 -0.4351
 1434TIP3    H125861   3.591   3.922   8.535 -0.4520 -1.1023 -1.0153
 1434TIP3    H225862   3.714   3.835   8.531  1.1263  0.9622  0.5956
 1435TIP3   OH225863   2.105   4.767   8.597  0.4057  1.0177 -0.2712
 1435TIP3    H125864   2.194   4.786   8.625  0.0818  0.8096  0.9451
 1435TIP3    H225865   2.058   4.747   8.678 -0.0667 -1.7146 -1.1019
 1436TIP3   OH225866   3.931   2.622   6.678  0.6920 -0.3079 -0.4002
 1436TIP3    H125867   4.013   2.658   6.711  0.9354 -0.9185 -0.3371
 1436TIP3    H225868   3.951   2.531   6.656  0.4035 -0.0785 -1.7351
 1437TIP3   OH225869   5.203   3.931   7.062 -0.7287 -0.1037 -0.3461
 1437TIP3    H125870   5.162   3.847   7.038  0.0213  0.0235 -2.1845
 1437TIP3    H225871   5.282   3.936   7.008  0.1874  1.0088  1.0136
 1438TIP3   OH225872   6.346   5.114   2.271  0.2260  1.1849 -0.3525
 1438TIP3    H125873   6.305   5.079   2.350 -0.4076  0.6654 -0.9023
 1438TIP3    H225874   6.277   5.167   2.230 -0.1821 -0.2914 -1.6698
 1439TIP3   OH225875   5.280   5.478   0.488 -0.3734  0.1115 -0.8163
 1439TIP3    H125876   5.351   5.481   0.424 -0.6419 -0.7893 -1.1641
 1439TIP3    H225877   5.259   5.570   0.504  1.9180  0.4814  0.5019
 1440TIP3   OH225878   1.629   2.036   7.901  0.9445  0.0735  0.2523
 1440TIP3    H125879   1.719   2.034   7.870  0.6559  0.0207 -0.6004
 1440TIP3    H225880   1.610   1.946   7.927  1.6916  0.4137  2.1095
 1441TIP3   OH225881   4.209   4.980   2.564  0.1627 -0.5512 -0.0519
 1441TIP3    H125882   4.284   4.920   2.569 -0.0040 -0.7923 -0.4201
 1441TIP3    H225883   4.240   5.051   2.508 -0.4645 -1.5184 -1.6804
 1442TIP3   OH225884   5.722   5.340   6.145  0.4281  0.5262  0.1342
 1442TIP3    H125885   5.755   5.271   6.203 -0.2398 -0.8387 -1.0566
 1442TIP3    H225886   5.666   5.294   6.083 -2.4414  2.5337  1.0538
 1443TIP3   OH225887   4.696   3.962   1.329 -0.5395  0.1989  0.4235
 1443TIP3    H125888   4.656   4.019   1.395 -2.7581 -0.4335 -0.2993
 1443TIP3    H225889   4.701   3.877   1.371 -1.2627 -0.0320  0.0623
 1444TIP3   OH225890   4.026   0.640   1.529 -0.0388  0.4099  0.8450
 1444TIP3    H125891   4.050   0.729   1.554  0.9426  1.0151 -1.9118
 1444TIP3    H225892   4.110   0.592   1.529 -0.2721 -0.0069  0.4889
 1445TIP3   OH225893   2.199   5.891   7.222  0.0538 -0.5163  0.3372
 1445TIP3    H125894   2.133   5.898   7.152  0.4425 -0.9254 -0.0765
 1445TIP3    H225895   2.226   5.799   7.220 -0.2416 -0.6298  1.3193
 1446TIP3   OH225896   3.159   0.263   6.225 -0.9626  0.6306 -0.2896
 1446TIP3    H125897   3.071   0.243   6.257 -1.4694 -0.3105 -2.1141
 1446TIP3    H225898   3.207   0.180   6.232 -1.2897  0.1967 -2.4315
 1447TIP3   OH225899   4.048   5.828   2.104  0.2303  0.3942 -0.5165
 1447TIP3    H125900   4.042   5.826   2.199  1.4644 -1.1205 -0.4164
 1447TIP3    H225901   4.127   5.878   2.085  1.6127 -1.6931 -0.5650
 1448TIP3   OH225902   6.081   0.280   6.966  0.7786  0.0945  0.4410
 1448TIP3    H125903   6.168   0.262   6.931  0.7070  1.6087 -0.6009
 1448TIP3    H225904   6.028   0.301   6.890  0.1666  1.7159  1.2632
 1449TIP3   OH225905   4.646   0.509   0.365 -0.3551  0.2035  0.1909
 1449TIP3    H125906   4.625   0.459   0.444 -0.8694  1.2874  0.7671
 1449TIP3    H225907   4.658   0.443   0.297  0.4616 -0.7781  1.2481
 1450TIP3   OH225908   1.786   2.839   6.487  0.4498  0.4159  0.6902
 1450TIP3    H125909   1.739   2.900   6.431  0.5510 -1.5939 -1.7634
 1450TIP3    H225910   1.723   2.770   6.507  1.6643 -1.3552 -1.1039
 1451TIP3   OH225911   3.363   0.106   1.729 -0.0866 -0.4586  0.0181
 1451TIP3    H125912   3.349   0.144   1.642 -0.2735  0.1881  0.3255
 1451TIP3    H225913   3.286   0.051   1.744 -0.6705  0.4123  0.2855
 1452TIP3   OH225914   3.996   2.368   7.060  0.2482  0.2313 -0.0297
 1452TIP3    H125915   4.027   2.430   6.994 -0.8959 -0.1749 -0.9829
 1452TIP3    H225916   4.043   2.392   7.140  1.5431  0.8384 -0.9422
 1453TIP3   OH225917   1.563   0.526   8.380 -0.3506  0.5364  0.6450
 1453TIP3    H125918   1.472   0.498   8.362  0.2433 -1.1865  0.0595
 1453TIP3    H225919   1.559   0.568   8.465 -1.7499  0.6827  0.5304
 1454TIP3   OH225920   1.016   5.714   0.683  0.3680  0.2792 -0.0926
 1454TIP3    H125921   1.098   5.762   0.671  1.4808 -1.4067  0.4390
 1454TIP3    H225922   1.021   5.681   0.773 -0.8337 -0.0008 -0.1073
 1455TIP3   OH225923   2.869   4.984   6.914  0.4831 -0.1648  0.9063
 1455TIP3    H125924   2.869   4.953   6.823  1.2313 -1.4336  1.3144
 1455TIP3    H225925   2.896   5.075   6.908 -1.3826  0.3856 -0.3109
 1456TIP3   OH225926   5.479   6.623   8.297 -0.2482 -0.0734 -0.1792
 1456TIP3    H125927   5.476   6.693   8.362  1.5758  0.1941 -0.3312
 1456TIP3    H225928   5.457   6.665   8.214 -4.2879 -0.7295  0.3607
 1457TIP3   OH225929   3.391   4.093   8.431  0.0044 -0.1672 -0.0504
 1457TIP3    H125930   3.439   4.130   8.357  1.3870 -0.4973  0.6534
 1457TIP3    H225931   3.392   4.163   8.497 -2.3939  0.6438 -0.7761
 1458TIP3   OH225932   1.675   2.635   1.809 -0.1471  0.6462 -0.1104
 1458TIP3    H125933   1.709   2.570   1.871  0.0327  1.7791  1.0469
 1458TIP3    H225934   1.581   2.637   1.825 -0.0937  0.9776  0.1807
 1459TIP3   OH225935   6.634   6.086   2.141  0.0785 -0.1569  0.2071
 1459TIP3    H125936   6.574   6.066   2.213 -0.7222  0.2763 -0.3135
 1459TIP3    H225937   6.577   6.092   2.064  0.6162  1.3978 -0.1164
 1460TIP3   OH225938   0.367   6.597   7.169 -0.5745  0.0677  0.2441
 1460TIP3    H125939   0.459   6.625   7.171  0.2272 -2.3589  2.3292
 1460TIP3    H225940   0.352   6.571   7.078  0.3703  1.6417 -0.4099
 1461TIP3   OH225941   0.777   3.025   7.262 -0.0398 -0.9193 -0.0007
 1461TIP3    H125942   0.856   2.979   7.234  0.1204 -0.3742 -0.4546
 1461TIP3    H225943   0.782   3.110   7.219 -0.9380 -0.9245 -0.1271
 1462TIP3   OH225944   4.450   0.046   0.503  0.4160  0.0012 -0.0338
 1462TIP3    H125945   4.411   0.084   0.424  1.0373  0.0782 -0.3122
 1462TIP3    H225946   4.421   0.104   0.574  0.2381  0.2025 -0.2677
 1463TIP3   OH225947   4.323   2.358   6.349  0.2347 -0.2556  0.5129
 1463TIP3    H125948   4.398   2.305   6.323 -1.0562 -1.6563 -0.5604
 1463TIP3    H225949   4.351   2.448   6.333  0.9114 -0.8525 -2.1172
 1464TIP3   OH225950   0.819   1.986   7.773  0.1588 -0.2079 -0.2902
 1464TIP3    H125951   0.797   1.914   7.832 -0.8032  0.2428 -0.0754
 1464TIP3    H225952   0.752   2.052   7.790  1.3683  1.0049 -0.0420
 1465TIP3   OH225953   2.211   5.570   0.261 -0.2193 -0.2594  0.9058
 1465TIP3    H125954   2.183   5.647   0.212 -0.0977  0.1042  1.4019
 1465TIP3    H225955   2.277   5.603   0.322  1.7768 -1.1694 -0.6396
 1466TIP3   OH225956   4.510   4.159   8.353 -0.2005 -0.0064 -0.3495
 1466TIP3    H125957   4.419   4.181   8.373  0.5220  1.4879  1.5796
 1466TIP3    H225958   4.532   4.087   8.413  0.4153  0.9137  0.5620
 1467TIP3   OH225959   4.077   0.725   0.697  0.3983 -0.4449  0.3812
 1467TIP3    H125960   4.049   0.785   0.628  0.0228 -0.7996  0.2200
 1467TIP3    H225961   3.999   0.713   0.751  0.3870 -1.0173  0.2418
 1468TIP3   OH225962   6.797   1.882   7.636  0.3092  0.8140 -0.1439
 1468TIP3    H125963   6.763   1.811   7.690  0.9252  1.2781  0.8844
 1468TIP3    H225964   6.824   1.840   7.555  1.2379 -0.2373  0.6739
 1469TIP3   OH225965   2.361   0.555   1.353 -0.1305  0.3110  0.7345
 1469TIP3    H125966   2.296   0.626   1.349  0.6551  1.0284  0.4576
 1469TIP3    H225967   2.439   0.591   1.311  0.2136 -0.8055  0.3703
 1470TIP3   OH225968   1.517   5.021   7.985  0.1633 -0.1410  0.0616
 1470TIP3    H125969   1.450   5.025   7.917  0.7675  2.9508 -0.4907
 1470TIP3    H225970   1.593   4.984   7.941  0.4503  1.5330 -0.9315
 1471TIP3   OH225971   5.501   6.171   0.287 -0.3278 -0.3817 -0.0394
 1471TIP3    H125972   5.544   6.254   0.311  0.1862 -1.0975  1.6488
 1471TIP3    H225973   5.468   6.186   0.199 -3.1692  2.8279  1.3310
 1472TIP3   OH225974   3.995   2.865   8.251 -0.6307 -1.0776  0.2463
 1472TIP3    H125975   4.057   2.869   8.178 -0.9395  0.5545  0.0374
 1472TIP3    H225976   3.947   2.784   8.237 -0.0912 -1.2274 -0.8741
 1473TIP3   OH225977   2.320   1.326   6.351 -0.5667 -0.2353  0.2174
 1473TIP3    H125978   2.393   1.341   6.410 -0.5412 -0.4241  0.2335
 1473TIP3    H225979   2.301   1.232   6.359  0.1890 -0.5023 -0.9512
 1474TIP3   OH225980   1.609   0.034   7.678  0.6694 -0.0584 -0.4568
 1474TIP3    H125981   1.592   0.005   7.767  1.5453 -0.0931 -0.2998
 1474TIP3    H225982   1.677  -0.025   7.645  1.1050  0.6107 -0.7832
 1475TIP3   OH225983   2.162   5.543   6.591 -0.2324 -0.1804  0.4786
 1475TIP3    H125984   2.228   5.571   6.655 -0.9479  1.9598  0.3546
 1475TIP3    H225985   2.086   5.599   6.609 -1.6895 -1.8750 -0.0543
 1476TIP3   OH225986   0.831   3.384   6.867  0.3827 -0.3119 -0.1827
 1476TIP3    H125987   0.782   3.375   6.786 -3.5064  2.5224  1.5360
 1476TIP3    H225988   0.854   3.476   6.871  2.5797 -0.8480  0.9305
 1477TIP3   OH225989   4.067   4.935   8.660  0.1543 -0.8561  0.2811
 1477TIP3    H125990   4.068   4.938   8.756 -0.4898 -2.2764  0.3560
 1477TIP3    H225991   4.135   4.998   8.634 -0.7001  0.6986  1.6150
 1478TIP3   OH225992   6.536   5.686   0.479  0.1931 -0.7670 -0.5416
 1478TIP3    H125993   6.496   5.611   0.523 -1.5943 -0.8472 -2.1311
 1478TIP3    H225994   6.466   5.751   0.473 -0.2325 -1.3254 -4.4320
 1479TIP3   OH225995   6.290   1.862   0.680  0.0940  0.7227  0.3378
 1479TIP3    H125996   6.310   1.954   0.668 -1.0991  0.9504  0.0116
 1479TIP3    H225997   6.369   1.816   0.650  1.1163  1.6507  1.5283
 1480TIP3   OH225998   6.528   1.213   0.007 -0.0336  0.1735 -0.5853
 1480TIP3    H125999   6.476   1.272   0.061 -1.3957  1.3554 -2.9716
 1480TIP3    H226000   6.475   1.133   0.002 -0.4788  0.4896 -1.0651
 1481TIP3   OH226001   3.689   5.996   1.345  0.8252  0.2629  0.1889
 1481TIP3    H126002   3.664   6.064   1.282  0.0587  0.3844  0.6097
 1481TIP3    H226003   3.609   5.979   1.394  1.2801 -0.2131  0.7756
 1482TIP3   OH226004   0.717   0.376   7.648 -0.1087 -0.0978 -0.2141
 1482TIP3    H126005   0.698   0.335   7.563 -0.8238  0.8360 -0.5236
 1482TIP3    H226006   0.812   0.378   7.653 -0.0551  0.0665 -1.1155
 1483TIP3   OH226007   4.843   1.462   0.573 -0.1645  0.6701 -0.3150
 1483TIP3    H126008   4.805   1.535   0.622 -1.7603 -0.0277 -0.4258
 1483TIP3    H226009   4.769   1.403   0.557  1.0192 -0.8549 -0.4451
 1484TIP3   OH226010   3.106   2.475   0.559 -0.0403 -0.1506  0.2377
 1484TIP3    H126011   3.017   2.504   0.541 -0.0188 -0.2756 -0.0799
 1484TIP3    H226012   3.098   2.380   0.571 -0.0158 -0.1028  0.6448
 1485TIP3   OH226013   0.999   0.243   8.541 -0.3948 -0.1294  0.2239
 1485TIP3    H126014   1.086   0.219   8.574 -0.1613  0.4881  0.0644
 1485TIP3    H226015   0.978   0.324   8.586  0.3321  1.2634 -1.7963
 1486TIP3   OH226016   0.740   6.252   6.988 -0.1317 -0.0849 -0.6992
 1486TIP3    H126017   0.711   6.311   6.918  1.8641  0.5549 -1.0496
 1486TIP3    H226018   0.747   6.167   6.945 -1.1939 -0.2149 -0.6554
 1487TIP3   OH226019   0.236   3.882   7.604 -0.0723 -0.6776  0.3160
 1487TIP3    H126020   0.269   3.881   7.514 -1.2592  1.5067 -0.2081
 1487TIP3    H226021   0.314   3.887   7.658  0.6212  1.3892 -0.7740
 1488TIP3   OH226022   4.863   6.109   0.888  0.3434  0.1329  0.4523
 1488TIP3    H126023   4.786   6.157   0.919 -1.4965 -1.4578 -1.3891
 1488TIP3    H226024   4.843   6.018   0.908  1.1864 -0.4331 -1.1742
 1489TIP3   OH226025   0.305   5.956   8.723 -0.1378  0.6081 -0.5046
 1489TIP3    H126026   0.333   5.869   8.749 -1.1690  0.2765 -0.4289
 1489TIP3    H226027   0.336   5.966   8.633  3.5290  1.8041  0.7370
 1490TIP3   OH226028   5.817   6.071   0.405  0.1503  0.1971 -0.3314
 1490TIP3    H126029   5.846   6.161   0.419 -1.3814  0.6077  0.4498
 1490TIP3    H226030   5.756   6.077   0.332  0.3138 -0.2715 -0.5058
 1491TIP3   OH226031   2.425   0.479   0.025  0.2061  0.9977  0.4019
 1491TIP3    H126032   2.361   0.416  -0.009  1.1073  0.3056 -0.0876
 1491TIP3    H226033   2.410   0.481   0.119  0.7528 -0.6947  0.5669
 1492TIP3   OH226034   6.640   3.464   7.227 -0.7224  0.2548 -0.9175
 1492TIP3    H126035   6.652   3.371   7.210  0.7252  0.4736 -1.1742
 1492TIP3    H226036   6.675   3.508   7.149 -1.8858  1.0073 -1.0411
 1493TIP3   OH226037   2.937   3.484   0.824  0.0438  0.3256  0.4602
 1493TIP3    H126038   2.961   3.493   0.916 -0.2197  1.1810  0.4470
 1493TIP3    H226039   3.000   3.420   0.790 -0.2684 -0.5107  1.3783
 1494TIP3   OH226040   0.746   4.429   0.674 -0.1317 -0.1524 -0.2965
 1494TIP3    H126041   0.688   4.353   0.670  0.1197 -0.3062 -1.2405
 1494TIP3    H226042   0.823   4.403   0.624  0.5396  0.2406  0.5229
 1495TIP3   OH226043   0.759   1.272   0.698  0.0282 -0.5550  0.2873
 1495TIP3    H126044   0.664   1.267   0.696  0.0166 -0.4295 -1.5435
 1495TIP3    H226045   0.784   1.286   0.607  1.7550  0.4493  0.8619
 1496TIP3   OH226046   6.770   3.677   8.719 -0.2698  0.2546  0.1101
 1496TIP3    H126047   6.709   3.629   8.776  0.3309  0.1223  0.6581
 1496TIP3    H226048   6.817   3.736   8.779 -0.6152  1.1338 -0.4710
 1497TIP3   OH226049   4.517   2.444   8.292 -0.2798  0.2370  0.3399
 1497TIP3    H126050   4.513   2.412   8.382 -1.0823 -1.4219 -0.2263
 1497TIP3    H226051   4.441   2.501   8.284  0.2154  0.9949  0.9045
 1498TIP3   OH226052   4.781   0.243   7.657 -0.1642 -0.6125  0.0630
 1498TIP3    H126053   4.728   0.269   7.582 -2.3293  0.1508  1.7536
 1498TIP3    H226054   4.835   0.320   7.675  0.0769 -0.6539 -0.4611
 1499TIP3   OH226055   3.637   2.457   1.423 -0.4747  0.1112 -0.0295
 1499TIP3    H126056   3.633   2.468   1.518  0.2549  2.2094 -0.1985
 1499TIP3    H226057   3.547   2.436   1.398 -1.3625  2.5531  0.8335
 1500TIP3   OH226058   3.434   6.820   0.420 -0.5049 -0.2008 -0.2355
 1500TIP3    H126059   3.522   6.856   0.415 -0.6875  0.4564  0.9809
 1500TIP3    H226060   3.377   6.891   0.390 -0.9196  0.8658  2.7399
 1501TIP3   OH226061   4.380   2.163   7.253  0.5603  0.1631  0.5966
 1501TIP3    H126062   4.370   2.234   7.316  0.1411  0.0235  0.6963
 1501TIP3    H226063   4.307   2.104   7.273 -1.0791  1.2958 -1.5905
 1502TIP3   OH226064   6.551   3.522   1.273  0.1168  0.2952 -0.0884
 1502TIP3    H126065   6.521   3.613   1.262  0.9915  0.4287 -1.6326
 1502TIP3    H226066   6.625   3.528   1.333  2.9968  1.3189 -3.3657
 1503TIP3   OH226067   5.259   2.485   0.749  0.4315 -0.1723  0.2514
 1503TIP3    H126068   5.337   2.504   0.696  0.1906 -1.5368 -0.6300
 1503TIP3    H226069   5.282   2.408   0.799 -0.7304 -1.3215 -0.9083
 1504TIP3   OH226070   3.770   2.486   7.359 -0.3000 -0.2364  0.0248
 1504TIP3    H126071   3.790   2.403   7.316  2.2991 -0.2597  1.0921
 1504TIP3    H226072   3.698   2.523   7.307 -0.4826 -2.4016 -1.4136
 1505TIP3   OH226073   4.175   4.936   7.159  0.4700  0.1446 -0.0134
 1505TIP3    H126074   4.176   5.018   7.208  0.6687 -0.3730  0.8749
 1505TIP3    H226075   4.232   4.877   7.209 -0.1824 -0.7350 -0.2704
 1506TIP3   OH226076   2.698   0.804   0.841 -0.2165 -0.3020 -0.2628
 1506TIP3    H126077   2.640   0.875   0.813 -2.0181 -1.4635  0.3850
 1506TIP3    H226078   2.783   0.826   0.802 -1.1873  1.1842 -1.6684
 1507TIP3   OH226079   2.186   3.746   7.073 -0.4198  0.2008  0.4295
 1507TIP3    H126080   2.161   3.780   7.159  0.4279 -1.0748  1.2178
 1507TIP3    H226081   2.165   3.653   7.076 -1.2626  0.3016 -1.1123
 1508TIP3   OH226082   1.701   3.261   1.391 -0.4162  0.2435  0.5081
 1508TIP3    H126083   1.775   3.236   1.447  1.1114  0.3981 -1.3283
 1508TIP3    H226084   1.730   3.342   1.349 -0.5361 -0.9549 -2.1087
 1509TIP3   OH226085   3.226   4.482   0.585 -0.1324  0.0930 -0.5251
 1509TIP3    H126086   3.272   4.552   0.632  0.2717 -1.8325  2.1230
 1509TIP3    H226087   3.205   4.417   0.652  0.1128 -2.6755 -2.9517
 1510TIP3   OH226088   4.703   1.622   1.723 -0.2732 -0.5282  0.3421
 1510TIP3    H126089   4.745   1.590   1.643 -2.8358  1.8232 -2.1692
 1510TIP3    H226090   4.618   1.578   1.725 -0.8994  0.6605  0.8369
 1511TIP3   OH226091   4.825   3.078   0.510 -0.0237 -0.8162 -0.2028
 1511TIP3    H126092   4.805   3.158   0.461  0.5894  0.1436  1.0609
 1511TIP3    H226093   4.765   3.013   0.473 -0.4030  0.1555 -1.4067
 1512TIP3   OH226094   5.830   4.507   0.592 -0.1442  0.4508  0.4348
 1512TIP3    H126095   5.761   4.442   0.582  0.8347 -0.7177  0.9678
 1512TIP3    H226096   5.808   4.575   0.528 -0.1634 -1.3323 -1.5771
 1513TIP3   OH226097   5.074   6.060   8.516 -0.2907 -0.6069  0.2375
 1513TIP3    H126098   5.095   6.151   8.539 -0.9687 -0.2221 -0.6045
 1513TIP3    H226099   4.982   6.050   8.542 -0.7565 -0.4883 -1.2762
 1514TIP3   OH226100   0.856   0.786   1.912 -0.1392 -0.0723 -0.4461
 1514TIP3    H126101   0.798   0.836   1.969 -1.7093 -0.9609 -1.2121
 1514TIP3    H226102   0.870   0.842   1.836  0.1479  0.2092 -0.1876
 1515TIP3   OH226103   2.184   4.264   7.657  0.9370  0.5286 -0.1958
 1515TIP3    H126104   2.227   4.225   7.733  0.1951  0.3517  0.1362
 1515TIP3    H226105   2.094   4.280   7.685  1.1210  2.2008 -0.4148
 1516TIP3   OH226106   1.291   1.824   1.442  0.1713  0.2008 -0.1127
 1516TIP3    H126107   1.334   1.879   1.377  0.0709  0.7967  0.3130
 1516TIP3    H226108   1.207   1.867   1.457  0.1150 -0.0386  0.2673
 1517TIP3   OH226109   4.538   6.821   2.223 -0.3240  0.7256  0.5734
 1517TIP3    H126110   4.486   6.845   2.299 -1.2055 -0.2149  0.2790
 1517TIP3    H226111   4.535   6.725   2.220 -2.9988  0.7527 -2.4211
 1518TIP3   OH226112   3.953   2.295   1.686 -0.0403  0.2393 -0.0482
 1518TIP3    H126113   4.022   2.246   1.730  2.1427  1.0676 -2.3045
 1518TIP3    H226114   3.906   2.230   1.634 -0.6657 -0.2430  1.0838
 1519TIP3   OH226115   4.020   2.952   7.810 -0.1128  0.1841  0.6156
 1519TIP3    H126116   4.057   3.018   7.869  0.1335 -0.5293  1.2807
 1519TIP3    H226117   3.960   3.000   7.755  1.5396  1.3315 -0.2705
 1520TIP3   OH226118   1.560   1.392   0.646  0.0487 -0.0283  0.7149
 1520TIP3    H126119   1.525   1.374   0.558  0.9588  1.0894  0.0925
 1520TIP3    H226120   1.492   1.442   0.689  0.0266  0.3495  0.2521
 1521TIP3   OH226121   2.663   6.241   1.782 -0.2996 -0.5724  0.5211
 1521TIP3    H126122   2.627   6.250   1.694  0.6205 -2.2065 -0.0747
 1521TIP3    H226123   2.756   6.221   1.767  0.1216  0.2752  1.9021
 1522TIP3   OH226124   3.738   6.251   0.053 -0.0844  0.3639 -0.3323
 1522TIP3    H126125   3.802   6.289   0.113 -0.2433 -0.3706  0.3181
 1522TIP3    H226126   3.774   6.165   0.030 -0.2693  0.4332 -0.8940
 1523TIP3   OH226127   5.750   0.227   0.312 -0.4342 -0.2532 -0.3308
 1523TIP3    H126128   5.672   0.236   0.256  0.6228  0.1019 -1.8023
 1523TIP3    H226129   5.754   0.310   0.359 -0.7232 -0.1161 -0.5390
 1524TIP3   OH226130   2.980   6.051   8.314  0.6320 -0.0109  0.1373
 1524TIP3    H126131   2.929   6.032   8.236  0.1912 -0.2147  0.4721
 1524TIP3    H226132   3.040   5.977   8.323  1.6707  0.6880 -0.7995
 1525TIP3   OH226133   3.863   0.580   7.925  0.6742  0.4269  0.1285
 1525TIP3    H126134   3.782   0.531   7.942  0.3349  0.7775 -0.4306
 1525TIP3    H226135   3.876   0.571   7.830  1.9931 -0.6940  0.3958
 1526TIP3   OH226136   4.216   3.578   1.829 -0.4787  0.3560 -0.6430
 1526TIP3    H126137   4.165   3.496   1.833 -2.1344  1.3483 -0.3057
 1526TIP3    H226138   4.202   3.619   1.915  0.5005  0.9090 -0.7361
 1527TIP3   OH226139   6.660   3.434   8.531 -0.2946 -0.3061 -0.1627
 1527TIP3    H126140   6.617   3.498   8.586 -0.1292  0.9413 -1.4300
 1527TIP3    H226141   6.682   3.362   8.590  0.3641  1.1946  1.5048
 1528TIP3   OH226142   4.408   2.587   8.701 -0.1763 -0.0085 -0.0977
 1528TIP3    H126143   4.480   2.650   8.692 -0.9909  0.8502 -0.9019
 1528TIP3    H226144   4.438   2.526   8.768  0.8823  0.9189  0.3185
 1529TIP3   OH226145   5.732   2.255   8.498 -0.2750  0.3827 -0.1525
 1529TIP3    H126146   5.658   2.308   8.468  1.3226  3.1869  0.4367
 1529TIP3    H226147   5.800   2.319   8.518  1.4336 -1.8699  1.8680
 1530TIP3   OH226148   1.905   4.987   0.927  0.2962 -0.4574  0.4888
 1530TIP3    H126149   1.914   4.967   0.834  0.1944  0.0066  0.3787
 1530TIP3    H226150   1.973   4.935   0.970  0.8569 -0.0622  0.0786
 1531TIP3   OH226151   3.300   6.179   1.280 -0.6647  0.0490  0.0065
 1531TIP3    H126152   3.304   6.207   1.372 -2.5750 -1.2608  0.5576
 1531TIP3    H226153   3.207   6.185   1.257 -0.2355  0.2149 -1.8169
 1532TIP3   OH226154   2.043   6.385   8.456  0.8140  0.2623  0.1363
 1532TIP3    H126155   2.046   6.479   8.443  2.6685  0.5068  1.8877
 1532TIP3    H226156   2.016   6.374   8.547  2.2455 -0.8194  0.4624
 1533TIP3   OH226157   4.207   5.170   6.266 -0.2299 -0.3908  0.2903
 1533TIP3    H126158   4.289   5.213   6.290 -0.1216  0.1232 -0.9012
 1533TIP3    H226159   4.180   5.214   6.185 -2.8293  0.9535  1.7659
 1534TIP3   OH226160   0.039   3.596   0.309 -0.3980 -0.3305 -0.5030
 1534TIP3    H126161  -0.025   3.651   0.355 -0.5602  1.2539 -2.4740
 1534TIP3    H226162   0.026   3.509   0.345 -2.8375  0.1838  0.0300
 1535TIP3   OH226163   4.197   6.732   0.497 -0.1837 -0.1512  0.3294
 1535TIP3    H126164   4.253   6.799   0.536  1.1380 -0.4472 -0.9552
 1535TIP3    H226165   4.240   6.650   0.519 -1.8372 -0.6281  1.9597
 1536TIP3   OH226166   3.442   5.169   1.317  0.0903  0.3241 -0.2240
 1536TIP3    H126167   3.413   5.078   1.318  0.9186  0.0266  1.8874
 1536TIP3    H226168   3.535   5.165   1.336  0.3885  1.5762 -1.2518
 1537TIP3   OH226169   1.448   2.972   8.622  0.1712  0.0299 -1.2756
 1537TIP3    H126170   1.386   3.045   8.622  2.4123  2.0774 -1.5257
 1537TIP3    H226171   1.481   2.967   8.712 -0.1097 -0.8239 -1.2106
 1538TIP3   OH226172   2.696   5.232   1.062  0.0899  0.2656  0.0359
 1538TIP3    H126173   2.765   5.201   1.120  0.6620  0.8557 -0.3195
 1538TIP3    H226174   2.617   5.232   1.117  0.1524 -1.3318  0.1777
 1539TIP3   OH226175   0.841   0.112   7.833 -0.1679  0.2240  0.1857
 1539TIP3    H126176   0.881   0.172   7.770  0.9175  0.8937  1.4560
 1539TIP3    H226177   0.776   0.063   7.782  3.2019 -2.0039 -2.4188
 1540TIP3   OH226178   0.262   0.339   8.103  0.4029  0.2441  0.2249
 1540TIP3    H126179   0.179   0.300   8.128  0.6757 -0.6055 -0.1603
 1540TIP3    H226180   0.301   0.276   8.042  1.0329  0.9329 -0.1061
 1541TIP3   OH226181   5.261   1.786   8.099 -0.3360 -0.1700  0.1632
 1541TIP3    H126182   5.166   1.795   8.088 -0.1810  0.2452 -1.0129
 1541TIP3    H226183   5.271   1.721   8.169 -1.4877 -1.6634 -0.9878
 1542TIP3   OH226184   4.365   0.241   8.521  0.0903  0.7289  0.3480
 1542TIP3    H126185   4.350   0.154   8.556 -2.3321  1.1859  0.6414
 1542TIP3    H226186   4.374   0.297   8.598 -0.3278  1.0189  0.1900
 1543TIP3   OH226187   5.533   6.152   1.055 -0.0461  0.5136 -0.1813
 1543TIP3    H126188   5.469   6.083   1.039 -0.7100  1.4687 -2.0018
 1543TIP3    H226189   5.515   6.182   1.144 -0.9454 -0.4351 -0.0274
 1544TIP3   OH226190   5.909   1.458   1.570  0.7289 -0.0289  0.3625
 1544TIP3    H126191   5.888   1.400   1.643 -1.4639  1.2612  0.8630
 1544TIP3    H226192   5.986   1.506   1.598  2.0186 -1.9750  0.3151
 1545TIP3   OH226193   1.159   2.291   0.996  0.1674 -0.1508  0.4478
 1545TIP3    H126194   1.183   2.222   0.934  1.6806 -1.6043  2.4966
 1545TIP3    H226195   1.239   2.341   1.009  0.1760 -0.4851  1.8903
 1546TIP3   OH226196   3.577   4.792   1.024 -0.5067  0.0678  0.0763
 1546TIP3    H126197   3.655   4.739   1.041 -0.5384  0.7385  2.9233
 1546TIP3    H226198   3.611   4.879   1.003 -0.4601  0.0841  0.2152
 1547TIP3   OH226199   6.140   5.525   0.967  0.3066  0.3960 -0.2528
 1547TIP3    H126200   6.069   5.490   0.914  0.7657 -0.2459 -0.4431
 1547TIP3    H226201   6.096   5.559   1.046  0.0010 -2.2603  0.8256
 1548TIP3   OH226202   3.074   0.859   7.255  0.8358  0.9316  0.7374
 1548TIP3    H126203   3.147   0.890   7.203 -0.0502  1.2194 -0.3763
 1548TIP3    H226204   3.040   0.938   7.298  0.5528  0.9684  0.4460
 1549TIP3   OH226205   1.992   2.820   8.719 -0.2969  0.6060  0.3552
 1549TIP3    H126206   1.931   2.788   8.653  1.5686  0.9522 -1.6355
 1549TIP3    H226207   1.938   2.836   8.796 -2.1810 -2.2714 -0.2028
 1550TIP3   OH226208   0.181   1.633   1.561  0.1576 -0.1091 -0.6245
 1550TIP3    H126209   0.113   1.634   1.493  0.3630  2.5628 -0.8666
 1550TIP3    H226210   0.156   1.702   1.622  2.3171  0.5167 -0.3692
 1551TIP3   OH226211   3.102   6.694   0.859  0.1302 -0.1555  0.0579
 1551TIP3    H126212   3.067   6.775   0.896 -0.7651 -0.5277  0.0483
 1551TIP3    H226213   3.039   6.627   0.884  2.6226 -1.5712  3.2033
 1552TIP3   OH226214   3.722   6.772   1.340  0.0839 -0.1290  0.7766
 1552TIP3    H126215   3.707   6.683   1.308 -1.5495 -0.0164  1.1349
 1552TIP3    H226216   3.743   6.761   1.432  0.3324 -0.1611  0.7180
 1553TIP3   OH226217   4.178   3.543   2.388  0.2201  0.2138 -0.9256
 1553TIP3    H126218   4.272   3.560   2.396  0.2229  0.0678 -0.6417
 1553TIP3    H226219   4.136   3.615   2.434  0.2098 -0.0579 -0.5055
 1554TIP3   OH226220   2.534   2.106   7.624  0.5094 -0.1416 -0.2716
 1554TIP3    H126221   2.451   2.151   7.640  0.4247 -0.3101 -0.2251
 1554TIP3    H226222   2.576   2.156   7.554  0.4254  0.0182 -0.2069
 1555TIP3   OH226223   0.023   2.168   0.722 -0.1861  0.2977 -0.4764
 1555TIP3    H126224  -0.027   2.147   0.644 -0.4528  0.6822 -0.4071
 1555TIP3    H226225  -0.021   2.121   0.792 -0.6916  0.9560 -0.3476
 1556TIP3   OH226226   0.351   0.815   7.387  0.1306 -0.7410 -0.3842
 1556TIP3    H126227   0.338   0.870   7.464 -1.4705 -0.5978 -0.7144
 1556TIP3    H226228   0.446   0.812   7.375  0.3396  0.3256  0.8010
 1557TIP3   OH226229   1.082   4.051   8.076  0.4617  0.0224 -0.5888
 1557TIP3    H126230   1.045   4.080   7.993  1.0720  1.1817 -0.4791
 1557TIP3    H226231   1.012   4.063   8.140  0.6300  1.0894 -0.5878
 1558TIP3   OH226232   0.691   2.641   0.944  0.6007 -0.2493  0.4233
 1558TIP3    H126233   0.642   2.615   0.866  0.4296 -0.0222  0.4544
 1558TIP3    H226234   0.771   2.589   0.941 -0.0861 -1.3801  0.8976
 1559TIP3   OH226235   2.128   3.752   7.700  0.1263 -0.4986  0.4062
 1559TIP3    H126236   2.208   3.787   7.740 -0.7417 -0.4206  2.2183
 1559TIP3    H226237   2.158   3.701   7.626  1.8843 -0.6235  1.1551
 1560TIP3   OH226238   4.635   5.253   1.679  0.0704 -0.1886 -0.0520
 1560TIP3    H126239   4.585   5.219   1.605 -0.8672  1.6591 -0.3231
 1560TIP3    H226240   4.570   5.290   1.738  0.9525  0.2604  0.6697
 1561TIP3   OH226241   6.784   5.854   8.162 -0.1194  0.4659  0.1021
 1561TIP3    H126242   6.856   5.813   8.210 -0.1445  0.7039  0.3467
 1561TIP3    H226243   6.733   5.781   8.128 -0.6656  0.2686  1.2809
 1562TIP3   OH226244   0.295   0.600   6.998 -0.2406  0.6349  0.2494
 1562TIP3    H126245   0.298   0.565   6.909 -0.6667 -1.7894  1.0945
 1562TIP3    H226246   0.262   0.527   7.051 -0.2914  2.0921  2.3570
 1563TIP3   OH226247   5.372   1.324   7.179 -0.4562  0.0610 -0.0813
 1563TIP3    H126248   5.304   1.263   7.149  2.4289 -2.3956 -2.1946
 1563TIP3    H226249   5.371   1.394   7.115  0.7420 -1.4173 -1.8247
 1564TIP3   OH226250   4.577   5.202   1.163 -0.5719 -0.3441  0.1200
 1564TIP3    H126251   4.521   5.157   1.227 -0.8961  1.4646  1.1898
 1564TIP3    H226252   4.516   5.248   1.106 -0.2390 -0.8590 -0.6638
 1565TIP3   OH226253   4.309   4.812   0.574 -0.5561 -0.7266  0.6786
 1565TIP3    H126254   4.320   4.866   0.652 -0.1064  0.3257 -0.0802
 1565TIP3    H226255   4.399   4.798   0.542 -0.7682 -0.7141  0.0691
 1566TIP3   OH226256   3.014   1.405   6.480 -0.0550 -0.4266 -0.1912
 1566TIP3    H126257   2.996   1.490   6.439  0.3247 -0.7303 -0.9982
 1566TIP3    H226258   3.094   1.420   6.531  0.3900 -0.4636 -0.8642
 1567TIP3   OH226259   0.477   5.500   6.447  0.4496  1.0278  0.0372
 1567TIP3    H126260   0.482   5.430   6.512 -1.3911 -0.6388 -1.4786
 1567TIP3    H226261   0.551   5.485   6.389  0.1630  0.4185 -0.1798
 1568TIP3   OH226262   4.357   6.249   0.363  0.1116 -0.0612 -0.0298
 1568TIP3    H126263   4.437   6.245   0.310 -0.7966 -0.5046 -1.4352
 1568TIP3    H226264   4.297   6.303   0.311 -0.8210 -0.5439  0.5281
 1569TIP3   OH226265   2.580   5.379   7.557 -0.3398 -0.3929  1.1614
 1569TIP3    H126266   2.618   5.292   7.543 -0.3901 -0.1368 -1.0353
 1569TIP3    H226267   2.489   5.370   7.526 -0.7860  0.0898  2.2929
 1570TIP3   OH226268   0.829   0.150   0.123 -0.3923 -0.3887  0.1151
 1570TIP3    H126269   0.815   0.087   0.053 -1.9684  0.4986 -0.4083
 1570TIP3    H226270   0.820   0.099   0.204 -1.9196 -0.7986 -0.2916
 1571TIP3   OH226271   4.945   6.589   7.391 -0.6989 -0.0362 -0.3652
 1571TIP3    H126272   5.000   6.649   7.442  0.0646  0.8354 -2.1100
 1571TIP3    H226273   4.894   6.542   7.456  0.0865  1.1463  1.1783
 1572TIP3   OH226274   5.331   3.447   1.663  0.5696 -0.1038 -0.1366
 1572TIP3    H126275   5.265   3.504   1.623  1.8033  0.6188 -1.2165
 1572TIP3    H226276   5.373   3.404   1.588  0.8962 -1.0352  0.5696
 1573TIP3   OH226277   6.435   0.211   8.321  0.0476 -0.3328  0.0120
 1573TIP3    H126278   6.400   0.214   8.410 -0.9379  0.2980 -0.3755
 1573TIP3    H226279   6.358   0.198   8.265  0.5607  0.0298 -0.8018
 1574TIP3   OH226280   4.616   3.050   6.527  0.9607 -0.0680 -0.4717
 1574TIP3    H126281   4.700   3.038   6.483  0.0652  0.4108 -2.4272
 1574TIP3    H226282   4.572   2.965   6.520 -0.3314  0.7156 -3.1800
 1575TIP3   OH226283   4.593   4.765   7.171  0.4727  0.1394 -0.1831
 1575TIP3    H126284   4.574   4.854   7.141  0.8602  0.6738  1.0625
 1575TIP3    H226285   4.508   4.729   7.196  0.2778  0.0470 -0.9727
 1576TIP3   OH226286   2.738   0.987   7.332  0.3034 -0.6915  0.2837
 1576TIP3    H126287   2.750   0.985   7.427  0.2393  3.5087  0.5654
 1576TIP3    H226288   2.648   1.019   7.321  0.0983 -1.7197 -1.2517
 1577TIP3   OH226289   1.807   6.500   1.855 -0.0081  0.5438 -0.4685
 1577TIP3    H126290   1.811   6.406   1.840 -2.0226  0.5606 -1.4632
 1577TIP3    H226291   1.899   6.528   1.861  0.6596 -1.2466 -1.6095
 1578TIP3   OH226292   2.996   0.489   0.384 -0.6738  0.1524  0.6342
 1578TIP3    H126293   2.931   0.427   0.418 -1.8217  1.0445  0.1196
 1578TIP3    H226294   3.020   0.453   0.299  0.2175 -0.6709  1.2179
 1579TIP3   OH226295   2.263   2.605   8.430 -0.1764 -0.0556  0.2781
 1579TIP3    H126296   2.194   2.632   8.369  0.1270 -1.9366 -1.0081
 1579TIP3    H226297   2.282   2.514   8.405  2.5628  0.3015  0.7768
 1580TIP3   OH226298   4.391   5.304   1.861 -0.3149 -0.2072  0.1559
 1580TIP3    H126299   4.366   5.221   1.819 -0.7647 -0.3379  0.6622
 1580TIP3    H226300   4.458   5.279   1.925  0.2438 -0.0349 -0.3560
 1581TIP3   OH226301   5.267   6.194   6.850  0.1433  0.0860  0.2998
 1581TIP3    H126302   5.267   6.245   6.769  0.7053  0.7982  0.7289
 1581TIP3    H226303   5.206   6.122   6.834 -1.3778  1.3940 -0.0132
 1582TIP3   OH226304   0.921   1.695   6.862 -0.3004 -0.0878 -0.4491
 1582TIP3    H126305   0.976   1.686   6.940 -1.1294  0.4701  0.2204
 1582TIP3    H226306   0.939   1.784   6.830  0.0768 -0.3353 -0.9239
 1583TIP3   OH226307   4.139   6.512   7.548  0.3603  0.1553  0.2285
 1583TIP3    H126308   4.206   6.556   7.495  2.2377 -0.2892  2.1101
 1583TIP3    H226309   4.140   6.421   7.517  1.2962 -0.0537  0.8448
 1584TIP3   OH226310   5.443   2.313   6.075 -0.3395  0.1770  0.3124
 1584TIP3    H126311   5.371   2.251   6.084 -0.1144 -0.1662 -0.2238
 1584TIP3    H226312   5.522   2.262   6.092 -0.2871  1.0226  3.2753
 1585TIP3   OH226313   1.962   1.155   6.446  0.2914  0.4107  0.0985
 1585TIP3    H126314   1.873   1.189   6.439  0.4354  0.5881 -1.0115
 1585TIP3    H226315   1.957   1.088   6.513 -1.2344 -1.3268 -1.6382
 1586TIP3   OH226316   5.563   5.560   7.508  0.2731 -0.2431  0.1151
 1586TIP3    H126317   5.622   5.509   7.564 -0.6294 -0.5750  0.7879
 1586TIP3    H226318   5.564   5.516   7.424  0.8706 -0.3284  0.1643
 1587TIP3   OH226319   4.427   6.225   1.640 -0.8917  0.0377 -0.0403
 1587TIP3    H126320   4.493   6.281   1.600 -0.1344 -0.3566  0.6396
 1587TIP3    H226321   4.407   6.268   1.723 -1.5938  0.2195 -0.2933
 1588TIP3   OH226322   3.340   1.214   0.307 -0.0163 -0.0741  0.0714
 1588TIP3    H126323   3.402   1.148   0.275 -0.9275 -0.0583 -1.8894
 1588TIP3    H226324   3.285   1.234   0.231 -1.4216  1.0602  1.3202
 1589TIP3   OH226325   4.688   2.476   1.746 -0.1614 -0.7677  0.3438
 1589TIP3    H126326   4.776   2.506   1.767 -0.7200  1.6222 -0.3279
 1589TIP3    H226327   4.656   2.436   1.827  0.6156  0.7773  1.4784
 1590TIP3   OH226328   6.312   2.312   7.132 -0.1187  0.3062 -0.0873
 1590TIP3    H126329   6.357   2.339   7.211 -0.9710  0.5068  0.3385
 1590TIP3    H226330   6.269   2.230   7.155  1.1509 -0.6306 -0.9044
 1591TIP3   OH226331   2.849   5.881   1.042 -0.1108  0.4269 -0.3577
 1591TIP3    H126332   2.934   5.836   1.041 -0.0343  0.4926  0.9496
 1591TIP3    H226333   2.810   5.856   1.126 -0.9016  1.2897 -0.4513
 1592TIP3   OH226334   6.082   1.428   1.301 -0.1594  0.0462 -0.0902
 1592TIP3    H126335   6.094   1.355   1.362 -0.3473 -0.2498 -0.4021
 1592TIP3    H226336   6.091   1.388   1.214  0.4898  0.5300 -0.2559
 1593TIP3   OH226337   4.311   6.061   8.057 -0.0150 -0.1932 -0.6803
 1593TIP3    H126338   4.360   6.019   7.986 -1.0889 -0.0176 -1.5439
 1593TIP3    H226339   4.351   6.026   8.137  0.8391 -0.8316 -1.3652
 1594TIP3   OH226340   6.059   2.968   1.352 -0.3127 -0.1133 -0.2074
 1594TIP3    H126341   6.114   2.919   1.292  1.0504 -0.2080  1.0579
 1594TIP3    H226342   6.016   2.902   1.406 -0.9634  0.0005 -0.5641
 1595TIP3   OH226343   5.662   0.587   8.182 -0.1176  0.0755  0.1867
 1595TIP3    H126344   5.734   0.610   8.124 -0.6840  0.1591 -0.5018
 1595TIP3    H226345   5.637   0.499   8.154  0.3111 -0.3203  1.0339
 1596TIP3   OH226346   3.265   5.878   0.148  0.1677  0.2826  0.4329
 1596TIP3    H126347   3.212   5.812   0.102  0.3575 -0.2101  0.9006
 1596TIP3    H226348   3.354   5.862   0.118  0.2306  0.2399  0.6371
 1597TIP3   OH226349   5.758   6.460   7.712 -0.1384  0.1656  0.4656
 1597TIP3    H126350   5.801   6.434   7.793 -0.4759  0.4207  0.7334
 1597TIP3    H226351   5.665   6.459   7.733 -0.1808  1.4601  0.4744
 1598TIP3   OH226352   1.866   5.184   1.446 -0.1703  0.0058  0.7025
 1598TIP3    H126353   1.937   5.238   1.480  1.7397 -0.7011 -1.9231
 1598TIP3    H226354   1.866   5.200   1.352 -1.1722 -2.6549  0.1720
 1599TIP3   OH226355   6.265   2.974   1.943 -0.0340 -0.9340  0.6489
 1599TIP3    H126356   6.275   2.963   2.037 -0.1905  2.2847  1.1634
 1599TIP3    H226357   6.352   2.998   1.912 -0.4190  0.2206  0.4023
 1600TIP3   OH226358   3.885   3.452   8.298 -0.0475 -0.3730  0.1766
 1600TIP3    H126359   3.918   3.370   8.333 -0.1002 -0.7792 -0.6968
 1600TIP3    H226360   3.921   3.519   8.355 -1.2016 -1.0803  1.8063
 1601TIP3   OH226361   3.011   5.673   1.055 -0.4377  0.0823  0.1901
 1601TIP3    H126362   3.102   5.642   1.060 -0.1877  1.0075  2.5865
 1601TIP3    H226363   2.977   5.660   1.144 -2.2741  0.9090 -0.3555
 1602TIP3   OH226364   5.570   4.259   7.624  0.5042 -0.7326 -0.0423
 1602TIP3    H126365   5.491   4.246   7.571  1.8853 -2.2275 -1.8467
 1602TIP3    H226366   5.641   4.226   7.571  2.4653  0.9020  1.3807
 1603TIP3   OH226367   1.899   3.366   6.935  0.9584  0.4199  0.2793
 1603TIP3    H126368   1.965   3.312   6.977  1.0281 -0.3638 -0.7754
 1603TIP3    H226369   1.889   3.328   6.848 -0.1956  1.1087  0.0827
 1604TIP3   OH226370   2.154   1.010   1.365  0.4669 -0.2056  0.0288
 1604TIP3    H126371   2.196   1.095   1.377 -0.8454  0.2186  2.3615
 1604TIP3    H226372   2.067   1.021   1.403  0.7048 -2.9318  1.6169
 1605TIP3   OH226373   0.209   1.394   8.619 -0.5941 -1.0294  0.2015
 1605TIP3    H126374   0.260   1.365   8.543 -0.2269  1.1535 -0.4416
 1605TIP3    H226375   0.260   1.465   8.657 -1.7016 -0.8240  1.3717
 1606TIP3   OH226376   1.364   4.278   5.754 -0.3293  0.1131  0.5943
 1606TIP3    H126377   1.397   4.349   5.699  0.0503 -1.2449 -0.9923
 1606TIP3    H226378   1.331   4.323   5.832  1.6545  1.8852  0.5333
 1607TIP3   OH226379   4.374   0.542   6.691 -0.0901 -0.0815  0.1034
 1607TIP3    H126380   4.415   0.557   6.606  0.2061 -0.6857  0.1341
 1607TIP3    H226381   4.367   0.447   6.698  2.1520 -0.2132  1.8066
 1608TIP3   OH226382   6.131   2.551   1.532  0.2786 -0.5297 -0.2032
 1608TIP3    H126383   6.139   2.605   1.610 -1.3253 -1.2594  0.5122
 1608TIP3    H226384   6.100   2.466   1.564  0.4460 -1.1265 -1.5378
 1609TIP3   OH226385   2.897   1.757   8.229  0.4776 -0.3012  0.5010
 1609TIP3    H126386   2.920   1.685   8.171 -0.0454  0.0869 -0.1983
 1609TIP3    H226387   2.801   1.753   8.235  0.2743  1.3706 -0.9337
 1610TIP3   OH226388   4.709   4.631   1.755  0.4004  0.1651 -0.2739
 1610TIP3    H126389   4.781   4.613   1.815 -1.1266 -1.7006  1.1528
 1610TIP3    H226390   4.681   4.720   1.775  0.9567  0.1345  0.6444
 1611TIP3   OH226391   3.740   5.559   0.681  0.2167 -0.3420  0.3148
 1611TIP3    H126392   3.715   5.646   0.647  1.4197  0.1334  0.6065
 1611TIP3    H226393   3.663   5.505   0.664 -0.1443  0.4923 -0.9236
 1612TIP3   OH226394   4.803   2.675   0.600  0.0384  0.0858 -0.3199
 1612TIP3    H126395   4.716   2.714   0.594  0.9530  2.2722 -0.4160
 1612TIP3    H226396   4.788   2.588   0.636 -2.1032  0.7305  0.5081
 1613TIP3   OH226397   5.262   0.291   0.362  0.3870 -0.4264  0.2046
 1613TIP3    H126398   5.247   0.376   0.403  0.0573 -0.0412 -0.6849
 1613TIP3    H226399   5.228   0.301   0.273  1.5496 -1.0658 -0.3400
 1614TIP3   OH226400   3.501   4.667   1.362 -0.4086  0.2646  0.5187
 1614TIP3    H126401   3.551   4.605   1.415  1.7056  1.0871 -0.4345
 1614TIP3    H226402   3.439   4.612   1.314 -0.0304 -0.8594  1.2707
 1615TIP3   OH226403   2.960   5.696   0.796  0.1458  0.1028 -0.5042
 1615TIP3    H126404   3.050   5.692   0.762  0.4190  1.9647 -0.1312
 1615TIP3    H226405   2.970   5.685   0.890 -0.0607  0.0142 -0.4924
 1616TIP3   OH226406   4.246   4.671   0.108  0.7431 -0.0040  0.0908
 1616TIP3    H126407   4.322   4.706   0.064 -0.2523  1.0082 -0.8836
 1616TIP3    H226408   4.189   4.640   0.038 -0.2197  0.2757  0.7226
 1617TIP3   OH226409   1.228   2.614   8.502 -0.4125  0.7974  0.1365
 1617TIP3    H126410   1.281   2.540   8.529  1.8842  1.6363 -1.6571
 1617TIP3    H226411   1.138   2.589   8.522  0.3907 -1.9283  0.6774
 1618TIP3   OH226412   3.086   2.608   8.295 -0.1599  0.1961  0.0236
 1618TIP3    H126413   3.012   2.558   8.262 -0.7212  0.1888  1.2265
 1618TIP3    H226414   3.046   2.677   8.349  0.6983  0.0342  0.9024
 1619TIP3   OH226415   2.745   1.486   7.430  0.4115  0.2279 -0.0062
 1619TIP3    H126416   2.703   1.401   7.441  1.0440  0.0510  1.2636
 1619TIP3    H226417   2.793   1.478   7.348 -0.1090 -0.3901 -0.2608
 1620TIP3   OH226418   4.989   1.143   5.849 -0.4259 -0.8649 -0.1824
 1620TIP3    H126419   4.989   1.047   5.854 -0.2459 -0.8423  0.4346
 1620TIP3    H226420   5.043   1.164   5.774 -0.6476 -1.2533 -0.4523
 1621TIP3   OH226421   0.571   3.986   1.623 -0.3886  0.7558  0.2016
 1621TIP3    H126422   0.586   3.934   1.702  1.7379 -1.4020 -1.4422
 1621TIP3    H226423   0.659   4.010   1.594 -0.9604 -0.0748 -2.4371
 1622TIP3   OH226424   1.292   4.645   1.481 -0.4500  0.2110  0.3113
 1622TIP3    H126425   1.383   4.624   1.501 -0.4519 -0.6847 -0.4839
 1622TIP3    H226426   1.242   4.614   1.557  0.0754  2.9165  1.8720
 1623TIP3   OH226427   6.808   1.139   0.818  0.2705 -0.7057  0.1089
 1623TIP3    H126428   6.750   1.203   0.775 -1.1662  0.3652  3.3199
 1623TIP3    H226429   6.894   1.180   0.815 -0.1642  0.2454 -0.0739
 1624TIP3   OH226430   3.951   2.056   0.728  0.5101 -0.2713  0.8908
 1624TIP3    H126431   3.981   2.067   0.638  0.5755 -0.3167  0.9076
 1624TIP3    H226432   3.855   2.061   0.722  0.5157 -0.2521  0.8222
 1625TIP3   OH226433   3.375   0.251   0.523 -0.4354 -0.5519 -0.2237
 1625TIP3    H126434   3.325   0.273   0.602 -0.6824 -0.9563 -0.2663
 1625TIP3    H226435   3.466   0.245   0.552 -0.3381  0.6471 -0.2303
 1626TIP3   OH226436   5.993   5.055   1.907  0.7898  0.4284 -0.0111
 1626TIP3    H126437   5.954   5.098   1.831  0.5657 -0.7852 -0.6220
 1626TIP3    H226438   6.088   5.067   1.896  0.6870  1.8731  0.5410
 1627TIP3   OH226439   1.063   6.384   7.281  0.5238  0.5900  0.1658
 1627TIP3    H126440   1.093   6.357   7.368 -1.1894  0.1740  0.6714
 1627TIP3    H226441   0.982   6.334   7.268 -1.2706  3.3911 -0.0773
 1628TIP3   OH226442   4.123   0.005   1.393  0.2269 -0.1888  0.3937
 1628TIP3    H126443   4.080  -0.033   1.316 -0.6890 -1.7433  1.6106
 1628TIP3    H226444   4.178   0.075   1.358  2.2485 -2.7792 -2.0387
 1629TIP3   OH226445   1.222   1.669   1.166  0.1971  0.0540  0.2174
 1629TIP3    H126446   1.133   1.689   1.138 -0.6608  0.2746  2.8638
 1629TIP3    H226447   1.238   1.725   1.242  1.8029 -1.4309  1.0755
 1630TIP3   OH226448   1.276   6.646   7.464  0.0689  0.1087 -0.2319
 1630TIP3    H126449   1.313   6.594   7.535 -2.8272 -2.7265 -0.5819
 1630TIP3    H226450   1.322   6.615   7.385  0.9770  0.8878 -0.0292
 1631TIP3   OH226451   4.989   0.384   1.067 -0.3415  0.2328  0.2511
 1631TIP3    H126452   5.052   0.316   1.047 -0.6077  0.0047  0.1733
 1631TIP3    H226453   4.956   0.361   1.154 -1.0375 -0.2154 -0.1168
 1632TIP3   OH226454   5.618   1.073   1.113 -0.4975  0.2710  0.1037
 1632TIP3    H126455   5.668   1.044   1.037  0.7601 -0.8257  1.2744
 1632TIP3    H226456   5.541   1.017   1.113  1.0979 -2.1139  1.3927
 1633TIP3   OH226457   5.172   5.211   1.130 -0.1522 -0.4441 -0.3084
 1633TIP3    H126458   5.152   5.119   1.110 -1.6354  0.1312 -1.6101
 1633TIP3    H226459   5.134   5.260   1.058 -0.6768  1.3323  1.1163
 1634TIP3   OH226460   1.825   1.236   0.049 -0.1000 -0.0265  0.5015
 1634TIP3    H126461   1.853   1.156   0.093 -0.4035 -1.1204 -1.2172
 1634TIP3    H226462   1.902   1.265  -0.001 -1.0527 -1.5190 -2.0386
 1635TIP3   OH226463   6.018   2.790   7.711 -0.1378  0.0252 -0.4951
 1635TIP3    H126464   6.099   2.741   7.694 -0.3560  0.2285 -2.3246
 1635TIP3    H226465   6.048   2.875   7.742  0.5259  0.9977 -3.4665
 1636TIP3   OH226466   1.562   6.261   7.695 -0.8967  0.4392  0.0639
 1636TIP3    H126467   1.563   6.275   7.789 -0.0266  0.5589  0.0537
 1636TIP3    H226468   1.645   6.218   7.676 -2.1587 -1.9555 -0.3304
 1637TIP3   OH226469   6.568   5.642   8.050  0.4576 -0.3719 -0.0258
 1637TIP3    H126470   6.515   5.575   8.007 -1.2522  1.6849 -1.3573
 1637TIP3    H226471   6.526   5.655   8.135 -0.4455  0.3488 -0.5633
 1638TIP3   OH226472   2.821   1.574   8.598  0.6027 -0.1838  0.4163
 1638TIP3    H126473   2.824   1.562   8.504 -1.6400 -1.5803  0.4425
 1638TIP3    H226474   2.907   1.545   8.629  0.7687 -1.3698 -1.0456
 1639TIP3   OH226475   6.232   5.841   7.584 -0.6999  0.0806 -0.0557
 1639TIP3    H126476   6.167   5.853   7.515  0.4265  1.9403 -0.8799
 1639TIP3    H226477   6.271   5.756   7.564 -2.2148 -0.6375 -0.0836
 1640TIP3   OH226478   2.996   0.255   7.746  0.0106 -0.2795  0.0023
 1640TIP3    H126479   2.967   0.188   7.685  0.4433 -1.6820  1.2874
 1640TIP3    H226480   2.921   0.315   7.753 -0.3591 -0.5825 -1.1988
 1641TIP3   OH226481   1.970   5.626   0.472 -0.0351 -0.1504 -0.1579
 1641TIP3    H126482   1.983   5.696   0.408 -0.2676  0.3659  0.3520
 1641TIP3    H226483   1.894   5.578   0.440 -2.4651  2.2752  1.5700
 1642TIP3   OH226484   3.732   4.241   6.851 -0.5130  1.0812  0.7075
 1642TIP3    H126485   3.683   4.321   6.832 -1.7591 -0.0643 -1.2379
 1642TIP3    H226486   3.823   4.263   6.829 -1.0815  1.5299 -1.3989
 1643TIP3   OH226487   0.302   5.979   1.955  0.3210 -0.4582  0.4931
 1643TIP3    H126488   0.324   5.978   2.048 -2.5617 -0.9449  1.2714
 1643TIP3    H226489   0.372   5.930   1.913  1.7186 -0.1790  2.3904
 1644TIP3   OH226490   4.855   2.329   6.915  0.5424  0.3369 -0.1832
 1644TIP3    H126491   4.840   2.332   7.009 -0.8399  0.8842 -0.3950
 1644TIP3    H226492   4.904   2.248   6.901  3.6925  1.8074  1.3277
 1645TIP3   OH226493   5.029   4.802   7.628 -0.0945  0.3628 -0.0918
 1645TIP3    H126494   5.017   4.763   7.541  2.5734 -2.2727  0.5643
 1645TIP3    H226495   5.123   4.818   7.634 -0.1960  0.3887  2.3286
 1646TIP3   OH226496   6.780   2.060   8.581 -0.1840  0.5507 -0.2128
 1646TIP3    H126497   6.797   2.151   8.605  0.1498  0.3517  0.3149
 1646TIP3    H226498   6.696   2.041   8.622  0.4547  0.1672  0.9356
 1647TIP3   OH226499   5.208   3.963   1.487 -0.1397  0.2757  0.2389
 1647TIP3    H126500   5.165   4.046   1.468  1.0903  0.7360 -0.6902
 1647TIP3    H226501   5.252   3.977   1.571 -1.2202  0.0183  0.8667
 1648TIP3   OH226502   0.371   6.022   2.229 -1.1651 -0.6063 -0.2695
 1648TIP3    H126503   0.394   6.098   2.177 -0.0519  0.5395  1.8025
 1648TIP3    H226504   0.286   6.044   2.268 -1.2657 -0.8105 -0.3696
 1649TIP3   OH226505   3.253   3.580   0.205  0.4580  0.7171 -0.1887
 1649TIP3    H126506   3.199   3.657   0.224 -2.8389 -0.8535 -2.2527
 1649TIP3    H226507   3.241   3.523   0.281 -0.1053  0.7498 -0.2494
 1650TIP3   OH226508   3.031   0.212   7.133  0.3030  0.6326  0.0377
 1650TIP3    H126509   3.093   0.146   7.166  0.5538  0.0367 -1.5044
 1650TIP3    H226510   3.084   0.292   7.125  0.0482  1.0059  1.7264
 1651TIP3   OH226511   1.735   5.210   8.448 -0.1828  0.3753 -0.2580
 1651TIP3    H126512   1.821   5.208   8.406  0.2089  0.8586  0.5034
 1651TIP3    H226513   1.706   5.301   8.441  1.0965  1.1533  2.8386
 1652TIP3   OH226514   0.607   0.516   8.358  1.1091 -0.5374  0.0457
 1652TIP3    H126515   0.597   0.433   8.310 -0.1716 -0.5014  0.2007
 1652TIP3    H226516   0.571   0.498   8.444 -0.8481  0.6370 -0.4607
 1653TIP3   OH226517   3.226   1.433   7.507  0.8078 -0.5127  0.6381
 1653TIP3    H126518   3.165   1.507   7.500  1.2627 -0.2387 -0.9182
 1653TIP3    H226519   3.174   1.357   7.480  0.7384 -0.5247  0.8055
 1654TIP3   OH226520   2.730   0.959   0.238  0.2274 -0.4514  0.1042
 1654TIP3    H126521   2.662   1.003   0.187 -0.2620 -0.8932  0.3638
 1654TIP3    H226522   2.689   0.876   0.266  1.0702 -0.9962 -0.2356
 1655TIP3   OH226523   2.776   4.141   7.901 -0.2287  0.0461  0.3171
 1655TIP3    H126524   2.766   4.063   7.956 -0.1458 -0.2960 -0.1467
 1655TIP3    H226525   2.745   4.113   7.815  1.5565 -0.0406 -0.3233
 1656TIP3   OH226526   6.590   5.631   8.516 -0.4419  0.2352  0.4146
 1656TIP3    H126527   6.531   5.647   8.444  2.9698  0.4385 -2.6258
 1656TIP3    H226528   6.628   5.545   8.498 -0.2324 -0.2102  2.6177
 1657TIP3   OH226529   5.572   0.758   0.190  0.0471  0.1260 -0.2813
 1657TIP3    H126530   5.512   0.709   0.135 -0.3945 -2.0474  1.9518
 1657TIP3    H226531   5.522   0.835   0.217  0.2257  1.1618 -2.6455
 1658TIP3   OH226532   3.920   0.984   8.445 -0.1111 -0.4537  0.8408
 1658TIP3    H126533   3.881   0.914   8.392  1.0494 -1.1597  0.9013
 1658TIP3    H226534   3.952   0.939   8.523  0.3439  0.2103  1.0379
 1659TIP3   OH226535   6.399   2.896   8.121  0.0425  0.1368 -0.0091
 1659TIP3    H126536   6.341   2.843   8.175  1.6126 -1.0908  0.5479
 1659TIP3    H226537   6.395   2.856   8.034 -0.0732  0.1619 -0.0153
 1660TIP3   OH226538   3.865   0.055   7.425  0.1642 -1.0569  0.0353
 1660TIP3    H126539   3.807  -0.008   7.468 -0.3111  0.0158  1.0134
 1660TIP3    H226540   3.948   0.048   7.473 -0.6315  0.7780  1.8313
 1661TIP3   OH226541   1.715   2.048   2.236 -0.2135 -0.8826  0.2784
 1661TIP3    H126542   1.776   2.093   2.294 -1.6637  3.3078 -1.1030
 1661TIP3    H226543   1.767   2.023   2.160  0.2808  0.3894  0.1815
 1662TIP3   OH226544   3.537   4.859   8.256 -0.2330  0.7329  0.9129
 1662TIP3    H126545   3.511   4.949   8.277 -0.8007  0.9220 -0.4750
 1662TIP3    H226546   3.555   4.819   8.340 -0.2044  2.0812  1.5752
 1663TIP3   OH226547   5.918   5.959   1.617 -0.4530  0.4590  0.2000
 1663TIP3    H126548   6.013   5.962   1.624 -0.2426 -0.7885 -1.4456
 1663TIP3    H226549   5.886   5.996   1.699  1.4416 -0.4675  1.4230
 1664TIP3   OH226550   5.734   4.941   7.569 -0.1199  0.3192 -0.3382
 1664TIP3    H126551   5.766   5.030   7.581 -0.9670  0.4789  0.8752
 1664TIP3    H226552   5.806   4.886   7.600  0.0867  0.6002 -0.3129
 1665TIP3   OH226553   2.611   6.652   6.761  0.0542 -0.4580  0.4805
 1665TIP3    H126554   2.531   6.681   6.806 -0.1732  0.2654 -0.3678
 1665TIP3    H226555   2.637   6.727   6.708 -0.6125 -1.8200 -1.8917
 1666TIP3   OH226556   3.426   3.076   7.428 -0.2405  0.2749  0.0332
 1666TIP3    H126557   3.474   3.069   7.510  1.5133  0.2044 -0.9627
 1666TIP3    H226558   3.337   3.100   7.455  0.4495  0.9146  1.9087
 1667TIP3   OH226559   2.234   4.587   0.574 -0.4497 -0.0415  0.1740
 1667TIP3    H126560   2.163   4.527   0.552  0.0495  0.0294 -1.7679
 1667TIP3    H226561   2.204   4.631   0.653 -2.6616  0.1136 -0.6908
 1668TIP3   OH226562   6.558   2.709   1.959 -0.3441  0.0335 -0.1419
 1668TIP3    H126563   6.491   2.648   1.928 -1.8612  1.8938 -0.7602
 1668TIP3    H226564   6.536   2.723   2.051 -2.3022  2.2789 -0.8299
 1669TIP3   OH226565   3.158   4.465   1.158  0.2762 -0.0183  0.3155
 1669TIP3    H126566   3.170   4.497   1.069  0.8853 -1.8329 -0.3061
 1669TIP3    H226567   3.246   4.468   1.197 -0.1423  1.6553  1.2104
 1670TIP3   OH226568   1.405   5.959   7.249 -0.0143  0.2658  0.0277
 1670TIP3    H126569   1.384   5.893   7.182  1.1366  0.1176 -0.2061
 1670TIP3    H226570   1.401   6.043   7.202 -3.5832  0.6545  0.7864
 1671TIP3   OH226571   6.426   3.969   8.161 -0.4557  0.5182 -0.0718
 1671TIP3    H126572   6.359   3.900   8.166  2.4323 -2.5089 -0.0253
 1671TIP3    H226573   6.418   4.004   8.072 -1.9858  0.1928 -0.1012
 1672TIP3   OH226574   2.631   4.907   8.345 -0.0782  0.6688 -0.4792
 1672TIP3    H126575   2.634   4.869   8.433 -1.1047  1.9051  0.1323
 1672TIP3    H226576   2.546   4.951   8.341  0.7909  2.3653 -1.3511
 1673TIP3   OH226577   5.654   0.003   0.773  0.4798 -0.0122  0.1395
 1673TIP3    H126578   5.650  -0.065   0.840 -1.7523  1.9736  2.2452
 1673TIP3    H226579   5.747   0.012   0.754  0.8518 -3.6866 -0.3971
 1674TIP3   OH226580   3.851   3.255   2.020  0.3739 -0.3229 -0.1949
 1674TIP3    H126581   3.809   3.263   2.106  0.2166 -0.5665 -0.2462
 1674TIP3    H226582   3.836   3.164   1.995 -1.0886  0.1730 -1.2501
 1675TIP3   OH226583   6.220   3.053   0.021 -0.1239 -0.0769 -0.2695
 1675TIP3    H126584   6.225   3.146   0.039  1.4337 -0.4484  1.5153
 1675TIP3    H226585   6.192   3.047  -0.070 -3.3903  2.0644  0.4373
 1676TIP3   OH226586   3.497   3.825   0.900  0.2099  0.1436  0.1965
 1676TIP3    H126587   3.435   3.814   0.827 -0.6735  0.4968  0.8772
 1676TIP3    H226588   3.442   3.847   0.975  1.0385 -0.8557  1.1319
 1677TIP3   OH226589   3.370   2.017   0.674 -0.0142 -0.0468 -0.1875
 1677TIP3    H126590   3.384   2.101   0.718 -0.7480 -0.0422  0.0475
 1677TIP3    H226591   3.401   1.951   0.736 -0.6739 -0.0173  0.1875
 1678TIP3   OH226592   2.347   2.769   7.639 -0.4510  0.4480 -0.1821
 1678TIP3    H126593   2.314   2.779   7.728  0.6011 -1.9176  0.5614
 1678TIP3    H226594   2.430   2.817   7.638  1.7460 -2.9070  1.5755
 1679TIP3   OH226595   2.372   5.811   6.628 -0.4275 -0.0411 -0.7458
 1679TIP3    H126596   2.391   5.720   6.653  0.6261  0.0161 -1.3074
 1679TIP3    H226597   2.324   5.803   6.545 -2.6185 -0.1661  0.4622
 1680TIP3   OH226598   5.819   4.363   1.871 -0.0502 -0.2365  0.3376
 1680TIP3    H126599   5.829   4.370   1.966  0.2647  0.3480  0.2645
 1680TIP3    H226600   5.763   4.437   1.847  0.4368  0.0271 -0.0131
 1681TIP3   OH226601   3.127   4.959   0.698 -0.2894 -0.0345  0.0431
 1681TIP3    H126602   3.187   4.908   0.753  1.1536 -2.3829 -3.3707
 1681TIP3    H226603   3.093   4.895   0.634 -3.4967  2.0463 -0.5853
 1682TIP3   OH226604   6.653   6.185   7.073 -0.3911  0.2858  0.2307
 1682TIP3    H126605   6.681   6.204   7.162 -1.3852  0.2921  0.5603
 1682TIP3    H226606   6.662   6.267   7.026 -0.0586  0.3354  0.3829
 1683TIP3   OH226607   4.375   0.810   7.767 -0.0554  0.2981  0.4855
 1683TIP3    H126608   4.443   0.760   7.811 -1.2098 -1.5767  0.2505
 1683TIP3    H226609   4.363   0.887   7.821  0.6161 -0.4904  1.8162
 1684TIP3   OH226610   0.702   3.302   0.638 -0.5563  0.0279 -0.8756
 1684TIP3    H126611   0.771   3.236   0.625  0.1255  0.5678 -0.1154
 1684TIP3    H226612   0.668   3.284   0.725  1.5395  2.3127  0.5540
 1685TIP3   OH226613   0.751   1.055   6.947  0.1260 -0.2409  0.2649
 1685TIP3    H126614   0.844   1.079   6.955  0.1848 -0.1157 -0.6907
 1685TIP3    H226615   0.747   1.001   6.868 -0.7515  0.5313 -0.2424
 1686TIP3   OH226616   1.830   0.268   0.629  0.0019 -0.3620 -0.3375
 1686TIP3    H126617   1.787   0.182   0.634 -0.8086 -0.0324 -1.2205
 1686TIP3    H226618   1.775   0.318   0.569  0.9419  0.4977 -0.5048
 1687TIP3   OH226619   3.054   5.647   6.727 -0.3371  0.1318  0.0288
 1687TIP3    H126620   3.088   5.573   6.778  0.0784  0.4189  0.1805
 1687TIP3    H226621   3.100   5.640   6.643 -0.2155  0.2775  0.0825
 1688TIP3   OH226622   3.593   2.560   7.991 -0.9362 -0.4733  0.4043
 1688TIP3    H126623   3.623   2.602   7.910  0.8079  0.4732  1.4791
 1688TIP3    H226624   3.604   2.627   8.058  0.4052 -2.1035  1.9214
 1689TIP3   OH226625   3.339   4.511   8.469  0.1920 -0.2305  0.1681
 1689TIP3    H126626   3.359   4.418   8.481 -1.3997 -0.8817 -1.6158
 1689TIP3    H226627   3.268   4.528   8.531  1.0090  0.0352  1.0541
 1690TIP3   OH226628   4.070   1.152   0.305  0.0128  0.3540 -0.1927
 1690TIP3    H126629   4.055   1.247   0.308  1.4583  0.5914  0.0358
 1690TIP3    H226630   3.984   1.115   0.282 -0.7857  1.6481  0.5931
 1691TIP3   OH226631   0.350   2.934   7.962  0.0087 -0.3631  0.7682
 1691TIP3    H126632   0.335   2.973   7.876 -1.4330  0.3800  1.3203
 1691TIP3    H226633   0.420   2.871   7.947  0.8687  0.8479 -0.6129
 1692TIP3   OH226634   6.825   4.134   8.338  0.2179 -0.3957  0.2630
 1692TIP3    H126635   6.858   4.130   8.249 -0.6641  0.4983 -0.1230
 1692TIP3    H226636   6.811   4.043   8.363  0.2974 -0.6433 -0.5814
 1693TIP3   OH226637   5.714   6.583   1.557 -0.4301  0.2973 -0.3904
 1693TIP3    H126638   5.699   6.606   1.465  1.0150 -0.4088 -0.8304
 1693TIP3    H226639   5.632   6.606   1.601 -0.7265  1.7847 -1.6304
 1694TIP3   OH226640   5.925   6.770   1.729  0.0948  0.6093 -0.0976
 1694TIP3    H126641   5.892   6.744   1.643  0.6129  1.6532 -0.6315
 1694TIP3    H226642   5.956   6.860   1.716  0.7539  0.5530  1.0259
 1695TIP3   OH226643   5.462   5.694   8.278  0.1196  0.4179  0.1468
 1695TIP3    H126644   5.498   5.782   8.267  2.0672 -0.3540 -0.0274
 1695TIP3    H226645   5.489   5.647   8.199 -0.3109 -0.5267  0.5449
 1696TIP3   OH226646   2.526   1.738   1.911  0.8356  0.3171 -0.2892
 1696TIP3    H126647   2.441   1.705   1.883  1.9367 -1.2302 -2.0446
 1696TIP3    H226648   2.513   1.832   1.923 -0.7925  0.3442 -1.9041
 1697TIP3   OH226649   0.159   1.140   7.183  0.0001  0.0451  0.1367
 1697TIP3    H126650   0.187   1.133   7.092  0.7743  0.5938  0.3223
 1697TIP3    H226651   0.233   1.107   7.234 -0.4718 -0.3733  0.5661
 1698TIP3   OH226652   6.007   5.924   6.370 -0.0534 -0.1030  0.3324
 1698TIP3    H126653   6.007   5.848   6.312 -0.9318  0.5103 -0.4946
 1698TIP3    H226654   6.032   5.889   6.455  0.7891 -1.1038 -0.3019
 1699TIP3   OH226655   2.723   3.343   0.532 -0.0887 -0.5447  0.2850
 1699TIP3    H126656   2.710   3.324   0.625 -0.9883 -1.1935  0.0361
 1699TIP3    H226657   2.738   3.258   0.492 -2.7832 -0.6755 -0.6333
 1700TIP3   OH226658   1.731   5.568   1.525  0.0457  0.1713  0.2900
 1700TIP3    H126659   1.658   5.508   1.510  0.4638 -0.6114  1.3095
 1700TIP3    H226660   1.735   5.579   1.620  1.1929  0.2651  0.2486
 1701TIP3   OH226661   4.827   6.582   0.015 -0.8627  0.5531  0.1074
 1701TIP3    H126662   4.891   6.621  -0.045 -0.7669  2.7687  1.5314
 1701TIP3    H226663   4.787   6.512  -0.035  0.1761  1.4057 -2.0562
 1702TIP3   OH226664   1.266   3.894   0.182 -0.1164 -0.0999 -0.2233
 1702TIP3    H126665   1.311   3.851   0.110  0.1763  1.0960 -0.7730
 1702TIP3    H226666   1.188   3.933   0.142  0.6586  1.5845 -0.1442
 1703TIP3   OH226667   4.576   3.790   0.030  0.1109  0.4224  0.1318
 1703TIP3    H126668   4.608   3.836  -0.048  1.2516  1.1232  0.9714
 1703TIP3    H226669   4.498   3.838   0.056  0.3073  0.8116  0.0097
 1704TIP3   OH226670   1.459   4.540   0.864  0.4933  1.1688  0.0547
 1704TIP3    H126671   1.491   4.517   0.951 -0.7060  2.9812  1.0536
 1704TIP3    H226672   1.375   4.496   0.856  0.3230  1.4875  0.0681
 1705TIP3   OH226673   5.637   2.244   2.130 -0.1104 -0.1707 -0.2467
 1705TIP3    H126674   5.660   2.176   2.067 -0.1832  0.0045 -0.4639
 1705TIP3    H226675   5.710   2.246   2.191 -0.3267 -0.7773  0.0410
 1706TIP3   OH226676   6.202   2.355   1.816 -0.0551  0.3117 -0.0332
 1706TIP3    H126677   6.206   2.269   1.858  1.1043 -1.1633 -2.8679
 1706TIP3    H226678   6.109   2.376   1.814 -0.3230 -0.6307  1.1851
 1707TIP3   OH226679   3.537   4.673   1.877 -0.2967  0.1483 -0.2700
 1707TIP3    H126680   3.524   4.598   1.818 -2.1930 -0.0432  0.3342
 1707TIP3    H226681   3.506   4.749   1.827  1.5161  0.5551 -0.8391
 1708TIP3   OH226682   4.780   4.176   7.177 -0.3752 -0.0276  0.3158
 1708TIP3    H126683   4.760   4.254   7.125  0.2188  0.7510  1.2220
 1708TIP3    H226684   4.854   4.202   7.232  1.0033 -1.7667 -0.5910
 1709TIP3   OH226685   2.795   5.352   0.452  0.0146  0.1205 -0.0496
 1709TIP3    H126686   2.834   5.265   0.455 -0.4141 -0.0773 -0.1792
 1709TIP3    H226687   2.810   5.382   0.362  0.6265  0.4012  0.1374
 1710TIP3   OH226688   1.293   4.441   1.834  0.0501  0.2134 -0.3911
 1710TIP3    H126689   1.318   4.462   1.924  1.2081 -5.0225  0.8365
 1710TIP3    H226690   1.376   4.426   1.789 -0.5672  0.8974 -1.7958
 1711TIP3   OH226691   1.906   5.323   0.096  0.6070  0.2766 -0.3288
 1711TIP3    H126692   1.997   5.308   0.122  0.9695 -0.5367 -1.9151
 1711TIP3    H226693   1.895   5.272   0.016 -0.6553  1.9789 -1.3077
 1712TIP3   OH226694   1.684   1.425   0.239  0.1351  0.2823  0.0617
 1712TIP3    H126695   1.753   1.476   0.282 -0.4450 -0.2809  1.7280
 1712TIP3    H226696   1.729   1.380   0.167  1.6535 -0.5113  1.4458
 1713TIP3   OH226697   3.955   0.928   1.745  0.0762  0.1239  0.2320
 1713TIP3    H126698   3.905   0.949   1.825  1.0841  0.3744  0.8180
 1713TIP3    H226699   4.045   0.950   1.768  0.7722 -2.1539 -0.1285
 1714TIP3   OH226700   6.731   3.132   7.465 -0.7198  0.0729  0.6685
 1714TIP3    H126701   6.662   3.069   7.486 -2.0035  0.4320 -2.0710
 1714TIP3    H226702   6.692   3.218   7.481 -0.5212  0.2574  0.2024
 1715TIP3   OH226703   2.130   2.672   1.628  0.2685 -0.1157 -0.1601
 1715TIP3    H126704   2.149   2.669   1.722 -0.8213  3.9470  0.3876
 1715TIP3    H226705   2.212   2.700   1.588  0.3561 -0.4922 -0.2472
 1716TIP3   OH226706   3.131   4.266   8.493 -0.5248 -0.0608  0.6851
 1716TIP3    H126707   3.110   4.323   8.567  0.7393 -1.2567  2.0405
 1716TIP3    H226708   3.091   4.182   8.515  2.0460 -1.2153  1.4131
 1717TIP3   OH226709   5.329   6.497   8.523  0.2658 -0.1844  0.4379
 1717TIP3    H126710   5.344   6.574   8.577 -0.4338 -0.8677  1.6563
 1717TIP3    H226711   5.281   6.529   8.447  2.6681  1.0620 -0.6747
 1718TIP3   OH226712   3.295   4.566   0.326  0.8784 -0.8701 -0.0455
 1718TIP3    H126713   3.389   4.561   0.306  0.9301 -1.0161  0.2263
 1718TIP3    H226714   3.287   4.524   0.412  0.8386  0.8160  0.8133
 1719TIP3   OH226715   2.073   3.169   0.471 -0.5355  0.1844 -0.3637
 1719TIP3    H126716   2.086   3.262   0.490  1.6065  0.0355 -0.8227
 1719TIP3    H226717   2.108   3.157   0.383  0.6266 -1.2869  0.2394
 1720TIP3   OH226718   3.737   5.258   1.104 -0.2474  0.0457 -0.1623
 1720TIP3    H126719   3.725   5.205   1.183 -0.9884  1.2912  0.5885
 1720TIP3    H226720   3.781   5.337   1.135  0.9290 -0.1311 -1.2801
 1721TIP3   OH226721   4.614   3.815   2.338 -0.2998 -0.1098 -0.2305
 1721TIP3    H126722   4.676   3.757   2.382 -2.2562 -2.2247 -0.0573
 1721TIP3    H226723   4.534   3.807   2.389 -0.5968  3.1518  0.0378
 1722TIP3   OH226724   6.743   0.069   8.296  0.1761 -0.4167  0.6463
 1722TIP3    H126725   6.657   0.036   8.270  0.7184 -0.7145 -0.9165
 1722TIP3    H226726   6.776   0.115   8.218  0.3170  2.0916  2.0827
 1723TIP3   OH226727   1.152   2.947   8.464 -0.3020  0.6789  0.5150
 1723TIP3    H126728   1.076   2.905   8.422 -0.0089 -0.1896  0.8154
 1723TIP3    H226729   1.225   2.927   8.405  0.0507 -0.2577  1.2299
 1724TIP3   OH226730   0.897   4.088   0.670 -0.1447 -0.3321 -0.5045
 1724TIP3    H126731   0.979   4.042   0.655  0.1668 -0.1258  0.4634
 1724TIP3    H226732   0.920   4.161   0.728 -0.6447  0.9750 -1.8775
 1725TIP3   OH226733   0.672   3.678   7.647 -0.0235 -0.1615  0.3667
 1725TIP3    H126734   0.670   3.588   7.680  1.2673  0.3262  1.8559
 1725TIP3    H226735   0.765   3.695   7.631 -0.2127  1.0508  0.5290
 1726TIP3   OH226736   4.873   6.838   1.209 -0.2602 -0.1034 -0.3030
 1726TIP3    H126737   4.906   6.851   1.298 -0.9031 -1.6220  0.1976
 1726TIP3    H226738   4.922   6.762   1.176  0.0529  0.5101 -1.3097
 1727TIP3   OH226739   5.859   1.067   7.017 -0.0780  0.0554  0.1124
 1727TIP3    H126740   5.902   1.127   6.955 -0.0126 -0.3435 -0.2312
 1727TIP3    H226741   5.802   1.013   6.963 -1.0656  0.6170  0.5758
 1728TIP3   OH226742   5.185   5.434   7.301  0.4726  0.2169 -0.5562
 1728TIP3    H126743   5.216   5.417   7.212  2.2495  0.3269  0.0018
 1728TIP3    H226744   5.115   5.497   7.291  1.8504  1.6187 -1.7847
 1729TIP3   OH226745   2.139   6.800   7.666  0.2300  0.6735 -0.3168
 1729TIP3    H126746   2.216   6.770   7.617  1.1481  0.7936  0.9946
 1729TIP3    H226747   2.149   6.895   7.668  0.4777  0.6330  0.5283
 1730TIP3   OH226748   4.494   1.528   8.244 -0.3735 -0.1276  0.1093
 1730TIP3    H126749   4.586   1.504   8.257 -0.4310 -1.7744 -1.8942
 1730TIP3    H226750   4.445   1.450   8.270 -1.1303  0.3134  0.0496
 1731TIP3   OH226751   4.626   1.520   7.113 -0.2602  0.2542  0.4059
 1731TIP3    H126752   4.609   1.534   7.019 -1.1484 -4.1819 -0.3181
 1731TIP3    H226753   4.550   1.559   7.157 -0.1091  1.9012 -0.6832
 1732TIP3   OH226754   5.249   1.612   7.559  0.1510  0.0597 -0.6499
 1732TIP3    H126755   5.212   1.526   7.538 -0.9706  0.6182 -1.0233
 1732TIP3    H226756   5.281   1.602   7.649  2.9854 -1.6902 -1.6996
 1733TIP3   OH226757   4.717   6.174   1.608 -0.1200 -0.0769  0.2227
 1733TIP3    H126758   4.749   6.087   1.629  0.6654  0.0552 -0.4254
 1733TIP3    H226759   4.769   6.203   1.533 -1.6847  0.1725 -0.8239
 1734TIP3   OH226760   5.871   6.017   7.127  0.5541 -0.6609 -0.1535
 1734TIP3    H126761   5.859   5.923   7.132  0.6701 -0.6237  1.4282
 1734TIP3    H226762   5.956   6.033   7.169  0.0105  0.2303  0.6518
 1735TIP3   OH226763   5.458   4.463   0.779 -0.0491 -0.3515 -0.2307
 1735TIP3    H126764   5.546   4.452   0.815  0.2072  0.0942 -0.6916
 1735TIP3    H226765   5.448   4.558   0.771 -0.5776 -0.4010 -0.1632
 1736TIP3   OH226766   1.600   0.330   1.073  0.4288 -0.2916  0.4158
 1736TIP3    H126767   1.661   0.377   1.017 -0.0861  0.3127  0.3492
 1736TIP3    H226768   1.572   0.394   1.139 -1.4877  0.0163 -0.6169
 1737TIP3   OH226769   1.824   6.040   6.758 -0.2766  0.1838  0.2807
 1737TIP3    H126770   1.784   5.999   6.835 -0.5019 -1.1015 -0.4767
 1737TIP3    H226771   1.762   6.022   6.687  0.1686  0.9001 -0.2973
 1738TIP3   OH226772   6.203   1.773   8.580  0.5479  0.2002 -0.2621
 1738TIP3    H126773   6.226   1.860   8.545  0.0426 -0.3095 -1.9607
 1738TIP3    H226774   6.169   1.725   8.504  0.5332 -1.3960  0.7114
 1739TIP3   OH226775   4.735   4.761   8.660  0.0815  0.2112 -0.0191
 1739TIP3    H126776   4.801   4.694   8.641  1.3656  1.3736  0.2473
 1739TIP3    H226777   4.661   4.712   8.695  1.0717 -1.0588  0.3666
 1740TIP3   OH226778   1.776   0.553   8.176  0.0732  0.1626  0.4075
 1740TIP3    H126779   1.702   0.541   8.236  0.7717 -1.2121  1.0349
 1740TIP3    H226780   1.821   0.469   8.176  0.1739  0.1396 -1.9800
 1741TIP3   OH226781   1.659   6.301   6.805 -0.0152  0.3034 -0.5219
 1741TIP3    H126782   1.625   6.359   6.737  2.2167  0.6492 -1.4424
 1741TIP3    H226783   1.738   6.263   6.766 -0.1333 -1.5630  0.9309
 1742TIP3   OH226784   4.252   4.922   6.375 -0.1250  0.1959  0.5044
 1742TIP3    H126785   4.342   4.923   6.342 -0.3178  0.0283 -0.0506
 1742TIP3    H226786   4.214   5.004   6.344 -1.0072 -0.9801 -1.7731
 1743TIP3   OH226787   1.402   3.575   8.583  0.4238 -0.7996  0.6632
 1743TIP3    H126788   1.474   3.628   8.548  0.4106 -0.3771  1.2473
 1743TIP3    H226789   1.434   3.545   8.668 -0.2363 -0.2504  1.1228
 1744TIP3   OH226790   3.140   1.579   1.084 -0.4824  0.4829 -0.0414
 1744TIP3    H126791   3.193   1.610   1.010  0.5446  0.5899  0.7018
 1744TIP3    H226792   3.050   1.587   1.054 -0.0828 -0.8501 -1.8223
 1745TIP3   OH226793   6.816   4.359   6.546 -0.3212  0.4444  0.4228
 1745TIP3    H126794   6.773   4.386   6.465 -0.2351  0.2454  0.3109
 1745TIP3    H226795   6.892   4.309   6.518 -1.7860 -2.0318  0.5960
 1746TIP3   OH226796   0.383   6.833   6.955  0.2164 -0.1554 -0.6965
 1746TIP3    H126797   0.395   6.926   6.936  1.7835 -0.4816 -1.4124
 1746TIP3    H226798   0.325   6.802   6.885 -0.5914  0.3376 -0.2592
 1747TIP3   OH226799   4.944   4.305   0.312 -0.5025  0.2810 -0.3532
 1747TIP3    H126800   5.007   4.246   0.354 -1.2699  0.0066  0.4427
 1747TIP3    H226801   4.996   4.353   0.247  0.8025  0.9916  1.1442
 1748TIP3   OH226802   0.741   1.614   0.911  0.3210 -0.1118  0.0316
 1748TIP3    H126803   0.731   1.581   0.821  0.2829 -0.4585  0.1634
 1748TIP3    H226804   0.679   1.687   0.916  0.9126  0.4395 -0.4817
 1749TIP3   OH226805   0.143   4.479   7.851 -0.2743 -0.0588 -0.5418
 1749TIP3    H126806   0.160   4.516   7.938  1.2077  0.2567 -0.9375
 1749TIP3    H226807   0.049   4.460   7.851 -0.2094 -0.5668  1.3091
 1750TIP3   OH226808   5.820   0.656   0.649  0.1941 -0.5020  0.5470
 1750TIP3    H126809   5.793   0.737   0.605 -1.2764 -1.7428 -1.0052
 1750TIP3    H226810   5.853   0.684   0.734 -0.9255  1.6757  0.3317
 1751TIP3   OH226811   0.347   4.380   8.079 -0.3843  0.5099 -0.2468
 1751TIP3    H126812   0.318   4.330   8.004 -0.7983  1.1886 -0.5479
 1751TIP3    H226813   0.442   4.366   8.082 -0.4721 -0.1474 -0.4196
 1752TIP3   OH226814   2.876   5.474   7.554  0.2134 -0.2626  0.0176
 1752TIP3    H126815   2.784   5.446   7.552  0.3927 -0.8673  0.1302
 1752TIP3    H226816   2.924   5.399   7.521  0.7998 -0.4530  1.2866
 1753TIP3   OH226817   5.531   2.286   0.148 -0.3777  0.2251  0.1346
 1753TIP3    H126818   5.579   2.368   0.160 -1.4004  0.5647  2.3322
 1753TIP3    H226819   5.598   2.222   0.122  0.2576  1.9469 -2.9451
 1754TIP3   OH226820   1.852   2.238   7.628  0.0619  0.0398 -0.0611
 1754TIP3    H126821   1.874   2.157   7.673 -0.7227  0.2847  0.7774
 1754TIP3    H226822   1.768   2.220   7.586 -0.8223  0.8366  1.2916
 1755TIP3   OH226823   4.864   5.565   0.942 -0.3954  0.0969 -0.2793
 1755TIP3    H126824   4.882   5.557   1.036  1.7545 -1.6454 -0.7644
 1755TIP3    H226825   4.773   5.538   0.933 -0.5553  0.0083  1.2696
 1756TIP3   OH226826   6.672   2.334   8.669 -0.1854  0.1207 -0.0393
 1756TIP3    H126827   6.699   2.426   8.667  0.1051  0.0391  0.0617
 1756TIP3    H226828   6.706   2.301   8.752 -0.2020 -0.1027 -0.1199
 1757TIP3   OH226829   4.800   4.354   8.059  0.0876  0.3808  0.2392
 1757TIP3    H126830   4.736   4.422   8.039 -0.2661  0.0052  0.0823
 1757TIP3    H226831   4.750   4.273   8.058  0.8366 -0.0921 -1.3322
 1758TIP3   OH226832   2.287   5.366   6.383 -0.3284 -0.5174 -0.6227
 1758TIP3    H126833   2.379   5.380   6.407 -0.0821 -3.4482  0.6596
 1758TIP3    H226834   2.239   5.433   6.430  1.0126 -0.1087  0.2242
 1759TIP3   OH226835   2.279   2.504   1.314 -0.4282  0.6496  0.2549
 1759TIP3    H126836   2.357   2.544   1.352 -0.6198  1.3781 -0.0890
 1759TIP3    H226837   2.308   2.418   1.284  0.1967  0.8386  0.3052
 1760TIP3   OH226838   6.401   2.237   0.181 -0.0981  0.2390  0.2769
 1760TIP3    H126839   6.428   2.292   0.255 -0.4836 -1.2357  1.5548
 1760TIP3    H226840   6.461   2.261   0.111 -0.4216  2.4757  0.6811
 1761TIP3   OH226841   5.379   4.051   0.927  0.9463  0.2266 -0.4796
 1761TIP3    H126842   5.303   4.050   0.984  1.2584  0.4237 -0.0472
 1761TIP3    H226843   5.374   3.970   0.877  1.0666 -0.3119  0.3659
 1762TIP3   OH226844   6.115   2.123   0.782 -0.0302  1.2308  0.0580
 1762TIP3    H126845   6.172   2.161   0.715 -0.6417  2.6963  0.3239
 1762TIP3    H226846   6.049   2.191   0.799 -1.5365 -0.1900  0.1596
 1763TIP3   OH226847   1.673   0.362   0.408 -0.1250 -0.0813 -0.1882
 1763TIP3    H126848   1.602   0.299   0.399  1.6248 -1.8397 -3.2625
 1763TIP3    H226849   1.634   0.436   0.454 -4.1619 -0.6006 -2.3719
 1764TIP3   OH226850   0.424   3.481   0.316  0.5141 -0.0564  0.1101
 1764TIP3    H126851   0.343   3.439   0.347  0.0399  0.2244 -0.7344
 1764TIP3    H226852   0.477   3.409   0.282  0.1715 -0.1094 -0.3116
 1765TIP3   OH226853   0.348   5.947   0.881  0.0373 -0.2177  0.1716
 1765TIP3    H126854   0.321   6.017   0.940  0.5604  0.0672  0.0798
 1765TIP3    H226855   0.374   5.875   0.938  1.1350  0.2733  0.3276
 1766TIP3   OH226856   5.975   4.355   7.767  0.1217 -0.3148  0.5869
 1766TIP3    H126857   6.037   4.289   7.734 -0.3732  0.9506 -3.3284
 1766TIP3    H226858   5.894   4.306   7.780  0.0078 -0.7592 -1.4039
 1767TIP3   OH226859   2.299   5.317   7.532 -0.4680 -0.0487  0.3919
 1767TIP3    H126860   2.233   5.250   7.547 -1.1193 -0.6144 -3.7511
 1767TIP3    H226861   2.254   5.386   7.484  1.2881  1.0220  0.1720
 1768TIP3   OH226862   6.025   2.406   7.878  0.8818 -0.6577 -0.2016
 1768TIP3    H126863   6.014   2.340   7.947 -0.8260 -1.3455 -1.0552
 1768TIP3    H226864   6.028   2.355   7.797 -0.4037  0.2626 -0.8679
 1769TIP3   OH226865   4.632   1.829   0.384  0.0049  0.1647 -0.4759
 1769TIP3    H126866   4.542   1.841   0.354 -0.4293  1.0709  1.0438
 1769TIP3    H226867   4.624   1.816   0.479  1.5027  1.0000 -0.1875
 1770TIP3   OH226868   4.996   2.830   6.325 -0.5436  0.3181  0.1961
 1770TIP3    H126869   5.065   2.864   6.267 -0.9612 -0.7994 -1.0003
 1770TIP3    H226870   5.036   2.831   6.412  0.6279  0.6547 -0.3197
 1771TIP3   OH226871   1.441   3.934   7.896 -0.1160  0.4492  0.4547
 1771TIP3    H126872   1.420   4.015   7.943  1.2541  1.3167 -0.3590
 1771TIP3    H226873   1.472   3.874   7.964 -1.5486  0.4237  1.1270
 1772TIP3   OH226874   3.751   1.086   0.601 -0.2464 -0.4994  0.4461
 1772TIP3    H126875   3.778   1.144   0.673 -1.4202  1.2879 -0.4792
 1772TIP3    H226876   3.687   1.137   0.552  0.6135 -1.5989 -1.9725
 1773TIP3   OH226877   2.173   4.817   0.814 -0.2989 -0.0454 -0.2951
 1773TIP3    H126878   2.257   4.783   0.845 -0.6714  0.5580  1.4742
 1773TIP3    H226879   2.197   4.893   0.761  0.2652  0.4164  0.5972
 1774TIP3   OH226880   3.863   5.732   1.931 -1.1627 -0.1400  0.7718
 1774TIP3    H126881   3.812   5.656   1.957 -1.1820 -0.0664  0.9530
 1774TIP3    H226882   3.924   5.745   2.004  1.7349 -2.5110 -0.9774
 1775TIP3   OH226883   4.268   0.246   7.993  0.1707 -0.0605 -0.1432
 1775TIP3    H126884   4.207   0.283   7.929  1.8991  2.4279 -0.5192
 1775TIP3    H226885   4.330   0.195   7.940  0.0975 -0.1781 -0.1163
 1776TIP3   OH226886   0.806   5.998   1.548  0.2870  0.3597 -0.1634
 1776TIP3    H126887   0.829   6.026   1.636 -0.7789  0.1634  0.1914
 1776TIP3    H226888   0.727   5.945   1.559 -0.4055  1.1029 -1.3389
 1777TIP3   OH226889   5.438   6.192   7.643 -0.0323  0.0039 -0.5067
 1777TIP3    H126890   5.407   6.118   7.696  2.5104 -0.1673  0.8821
 1777TIP3    H226891   5.491   6.152   7.574 -1.3231  0.3918 -1.7711
 1778TIP3   OH226892   5.276   3.343   0.880  0.4293  0.0270 -0.0665
 1778TIP3    H126893   5.256   3.400   0.806  0.5484  2.1094  1.4021
 1778TIP3    H226894   5.360   3.303   0.859  0.0305 -0.1160 -1.4250
 1779TIP3   OH226895   5.694   3.507   2.462 -0.8375 -0.1498 -0.5895
 1779TIP3    H126896   5.610   3.465   2.479 -1.0459  0.7019  0.6550
 1779TIP3    H226897   5.735   3.515   2.548  0.5307 -0.5336 -1.1637
 1780TIP3   OH226898   3.390   1.034   0.739  0.1576 -0.3650  0.0762
 1780TIP3    H126899   3.337   1.036   0.819 -0.4513  1.2980 -0.3385
 1780TIP3    H226900   3.481   1.041   0.771 -0.0547 -0.0972  0.6429
 1781TIP3   OH226901   5.511   4.953   8.593 -0.3749  0.1701 -0.1977
 1781TIP3    H126902   5.517   5.005   8.673  1.3977 -1.5263  0.8627
 1781TIP3    H226903   5.428   4.906   8.601  0.0567 -0.4553  1.0228
 1782TIP3   OH226904   4.999   1.308   1.014  0.1539 -0.7763  0.0872
 1782TIP3    H126905   5.064   1.272   1.075 -0.0577 -1.0486  0.1556
 1782TIP3    H226906   4.958   1.231   0.975  0.2610 -0.6007 -0.3734
 1783TIP3   OH226907   5.961   2.093   6.490  0.3473  0.0672  0.5626
 1783TIP3    H126908   6.050   2.060   6.502  0.3335  0.3091  1.4059
 1783TIP3    H226909   5.904   2.017   6.500  0.5008 -0.3499 -1.2878
 1784TIP3   OH226910   1.813   0.846   0.862  0.2353  0.6655 -0.3263
 1784TIP3    H126911   1.892   0.807   0.823 -0.0216 -1.3027  0.9768
 1784TIP3    H226912   1.773   0.895   0.791  0.9847 -0.8964 -1.9146
 1785TIP3   OH226913   2.871   2.772   6.757 -0.2588 -0.1043  0.3215
 1785TIP3    H126914   2.847   2.834   6.688  0.4215 -0.5953 -0.3770
 1785TIP3    H226915   2.833   2.689   6.729  0.4091 -0.4076  0.2830
 1786TIP3   OH226916   1.246   5.082   0.983 -0.0034 -0.0986 -0.2711
 1786TIP3    H126917   1.250   5.053   0.892  0.0809 -1.2296  0.0755
 1786TIP3    H226918   1.321   5.140   0.993  0.2264 -0.2934 -0.8153
 1787TIP3   OH226919   1.297   3.856   1.714 -0.2288  0.0087 -0.3228
 1787TIP3    H126920   1.296   3.778   1.770  2.2624  0.2426  0.1273
 1787TIP3    H226921   1.374   3.905   1.742 -2.7448  3.7699  0.8575
 1788TIP3   OH226922   3.902   5.503   8.212  0.2003 -0.0589 -0.1306
 1788TIP3    H126923   3.859   5.428   8.254 -0.6360  0.4310 -0.0923
 1788TIP3    H226924   3.958   5.539   8.280 -1.3193  0.8706  0.6807
 1789TIP3   OH226925   6.066   4.919   0.988  0.5578 -0.6187 -0.4510
 1789TIP3    H126926   6.113   4.918   0.904  3.5641 -1.8355  1.1020
 1789TIP3    H226927   6.049   5.012   1.004 -0.9796 -0.4141 -2.7938
 1790TIP3   OH226928   1.411   5.424   0.457  0.3593  0.3313 -0.4377
 1790TIP3    H126929   1.476   5.393   0.393  0.0633 -1.4092  0.0313
 1790TIP3    H226930   1.354   5.483   0.408  0.3330 -0.7093 -1.7185
 1791TIP3   OH226931   2.783   4.554   0.933 -0.2503 -0.4634  0.1374
 1791TIP3    H126932   2.811   4.646   0.934  1.3830 -0.9178 -0.4691
 1791TIP3    H226933   2.700   4.554   0.980 -0.0013  1.2358  0.6572
 1792TIP3   OH226934   5.479   0.355   6.554  0.7435 -0.0937  0.3064
 1792TIP3    H126935   5.444   0.270   6.582  1.0348 -0.3230 -0.0321
 1792TIP3    H226936   5.565   0.335   6.519  0.5111  0.2430 -0.4563
 1793TIP3   OH226937   0.453   5.594   7.437  0.4590  0.0310  0.2295
 1793TIP3    H126938   0.511   5.567   7.366  0.8139  1.6226 -0.1279
 1793TIP3    H226939   0.366   5.595   7.398  0.1562 -2.1943  0.7193
 1794TIP3   OH226940   5.697   3.082   6.882  0.0519 -0.0412 -0.2006
 1794TIP3    H126941   5.681   3.026   6.957  0.0850 -1.8428 -1.4772
 1794TIP3    H226942   5.792   3.081   6.870 -0.0816 -1.4438 -1.4389
 1795TIP3   OH226943   0.135   4.958   7.671 -0.4605  0.1928  0.5037
 1795TIP3    H126944   0.158   4.869   7.697 -1.5827 -0.0137  0.8521
 1795TIP3    H226945   0.093   4.948   7.585 -0.1701  0.4465  0.3287
 1796TIP3   OH226946   2.167   1.249   0.436  0.3413 -0.1139  0.3574
 1796TIP3    H126947   2.165   1.160   0.400  0.9117  1.0283 -2.9258
 1796TIP3    H226948   2.145   1.305   0.361  0.4978  2.5461  2.1649
 1797TIP3   OH226949   4.588   3.144   1.024 -0.0985  0.4633  0.4212
 1797TIP3    H126950   4.494   3.146   1.007 -0.1198 -0.1506  0.4236
 1797TIP3    H226951   4.595   3.100   1.109  0.1819  0.5986  0.4663
 1798TIP3   OH226952   6.392   5.760   8.679  0.1501 -0.2799  0.0666
 1798TIP3    H126953   6.476   5.755   8.632 -1.0021 -2.3476 -2.0295
 1798TIP3    H226954   6.364   5.669   8.687 -1.1665  0.2437  2.2131
 1799TIP3   OH226955   5.859   1.419   0.046 -0.3418  0.4175  0.0309
 1799TIP3    H126956   5.933   1.368   0.013 -0.3789 -0.0283  0.6317
 1799TIP3    H226957   5.900   1.493   0.091 -0.2677  0.4030 -0.0123
 1800TIP3   OH226958   1.232   1.014   1.454 -0.8635 -0.2659 -0.3981
 1800TIP3    H126959   1.220   0.977   1.541 -0.4836 -1.1095 -0.6857
 1800TIP3    H226960   1.144   1.039   1.426 -1.0906 -0.6784 -0.0645
 1801TIP3   OH226961   5.715   2.941   8.313  0.4510 -0.6660  0.5805
 1801TIP3    H126962   5.636   2.955   8.262  1.4164 -0.2335 -0.8483
 1801TIP3    H226963   5.724   2.846   8.317  0.6719 -0.7132 -0.5958
 1802TIP3   OH226964   3.756   6.787   0.554 -0.6036  0.5354  0.7835
 1802TIP3    H126965   3.700   6.713   0.579 -0.7843  0.6915  0.8448
 1802TIP3    H226966   3.774   6.833   0.637  0.2367  0.0573  0.8719
 1803TIP3   OH226967   4.294   0.328   0.575 -0.8135 -0.1317  0.4272
 1803TIP3    H126968   4.239   0.258   0.539  0.2757  0.1937 -2.1599
 1803TIP3    H226969   4.287   0.399   0.511  0.9551  0.6899  1.0828
 1804TIP3   OH226970   5.495   3.834   0.415  0.1566 -0.2221 -0.1500
 1804TIP3    H126971   5.531   3.923   0.409 -0.5572  0.1578  0.8256
 1804TIP3    H226972   5.560   3.779   0.374  1.0949  0.6421  0.1317
 1805TIP3   OH226973   3.653   2.454   6.697 -0.2026 -0.1348  0.0430
 1805TIP3    H126974   3.640   2.452   6.791 -1.6018  0.6891 -0.1140
 1805TIP3    H226975   3.735   2.406   6.683  0.7095  0.8560  1.7814
 1806TIP3   OH226976   4.439   0.052   0.824  0.4522 -0.6460  0.0123
 1806TIP3    H126977   4.353   0.015   0.802  0.3420  0.2930 -1.2543
 1806TIP3    H226978   4.461   0.013   0.909 -0.7683 -1.6708 -0.1126
 1807TIP3   OH226979   6.006   5.557   1.211  0.0388 -0.1143 -0.0790
 1807TIP3    H126980   5.985   5.620   1.279  1.2300 -0.2726  0.4670
 1807TIP3    H226981   6.042   5.482   1.258  0.6997 -0.3045 -0.8558
 1808TIP3   OH226982   6.720   0.165   7.379  0.5589  0.3649  0.6482
 1808TIP3    H126983   6.662   0.194   7.309 -0.8179 -0.2011  1.5098
 1808TIP3    H226984   6.722   0.069   7.370  2.0575  0.4291  0.1100
 1809TIP3   OH226985   0.007   2.829   6.778 -0.7520 -0.5389 -0.4830
 1809TIP3    H126986   0.072   2.761   6.759 -0.6168 -0.7092  0.5342
 1809TIP3    H226987   0.058   2.909   6.788 -0.7239 -0.6089 -0.0261
 1810TIP3   OH226988   4.915   0.457   8.568 -0.5689  0.2358 -0.0723
 1810TIP3    H126989   4.914   0.502   8.484  0.1316 -0.0866 -0.2660
 1810TIP3    H226990   4.861   0.511   8.626  0.3692  1.4179 -0.2525
 1811TIP3   OH226991   6.412   2.778   1.619  0.0308 -0.2877 -0.5878
 1811TIP3    H126992   6.397   2.775   1.524  1.6902  0.3143 -0.9034
 1811TIP3    H226993   6.331   2.743   1.657 -0.8848 -0.0349 -2.1967
 1812TIP3   OH226994   2.257   1.287   8.301  0.6240 -0.7800 -0.1783
 1812TIP3    H126995   2.198   1.240   8.359  1.3743 -0.9128  0.4968
 1812TIP3    H226996   2.238   1.252   8.214 -0.0131 -1.0928  0.0803
 1813TIP3   OH226997   3.962   3.565   1.978 -0.0090  0.0973  0.1940
 1813TIP3    H126998   3.877   3.522   1.969  0.0079  0.3228 -1.2433
 1813TIP3    H226999   3.945   3.641   2.034 -1.2272  1.3171 -1.7196
 1814TIP3   OH227000   5.420   3.661   8.330 -0.0182  0.0283  0.2577
 1814TIP3    H127001   5.505   3.661   8.374 -0.5103  0.2953  1.2495
 1814TIP3    H227002   5.439   3.686   8.240  0.8896  0.6203  0.6028
 1815TIP3   OH227003   2.511   0.571   7.410 -0.3374  0.1683  0.1129
 1815TIP3    H127004   2.586   0.534   7.364 -1.3956 -1.4958 -0.3519
 1815TIP3    H227005   2.546   0.598   7.495  0.6547 -1.1556  0.1457
 1816TIP3   OH227006   3.705   0.769   8.111 -0.5057  0.1477 -0.0242
 1816TIP3    H127007   3.748   0.763   8.026  3.2246  0.7369  1.6300
 1816TIP3    H227008   3.665   0.682   8.124  0.6334 -0.6393 -1.5064
 1817TIP3   OH227009   6.177   0.655   7.663 -0.0076  0.3403  0.5768
 1817TIP3    H127010   6.198   0.566   7.637 -0.3784 -0.3587  2.5379
 1817TIP3    H227011   6.099   0.678   7.611 -0.9864 -1.1552  1.3279
 1818TIP3   OH227012   6.331   3.304   1.673  0.2431 -0.1351  0.2564
 1818TIP3    H127013   6.412   3.347   1.647  0.1088  0.2333  0.4414
 1818TIP3    H227014   6.285   3.287   1.590  0.6767 -0.6805  0.1278
 1819TIP3   OH227015   0.418   5.198   7.470 -0.4623  0.2988 -0.1493
 1819TIP3    H127016   0.426   5.115   7.519 -0.2770 -0.1274 -0.8943
 1819TIP3    H227017   0.389   5.261   7.536 -1.2825 -0.5058  0.2881
 1820TIP3   OH227018   5.897   5.726   8.088  0.7895 -0.0243  0.1535
 1820TIP3    H127019   5.844   5.765   8.158  0.0585 -0.7439  0.0219
 1820TIP3    H227020   5.875   5.633   8.091  3.5469 -0.7326  1.3803
 1821TIP3   OH227021   5.843   6.525   0.156  0.0762  0.2880 -0.1602
 1821TIP3    H127022   5.795   6.533   0.239  1.6064 -0.2665  0.8246
 1821TIP3    H227023   5.784   6.476   0.099 -0.3997 -0.7093  1.1391
 1822TIP3   OH227024   5.674   3.924   0.127  0.4393 -0.3270  0.4936
 1822TIP3    H127025   5.655   3.835   0.100  1.3645 -0.0336 -1.2943
 1822TIP3    H227026   5.763   3.920   0.163 -0.1397 -0.3930  2.0099
 1823TIP3   OH227027   6.135   3.547   8.405 -0.4998 -0.2018 -0.0528
 1823TIP3    H127028   6.052   3.543   8.452 -0.3226 -0.3856  0.2457
 1823TIP3    H227029   6.158   3.456   8.389 -0.1116 -0.1696  0.2986
 1824TIP3   OH227030   2.219   5.597   8.167  0.6686  0.1044  0.1110
 1824TIP3    H127031   2.298   5.573   8.215  0.9022 -0.7325 -0.6696
 1824TIP3    H227032   2.238   5.576   8.076  0.1823  1.5266 -0.3583
 1825TIP3   OH227033   3.094   3.637   1.979 -0.0193  0.6351  0.2390
 1825TIP3    H127034   3.036   3.562   1.989  3.0523 -2.2322 -1.4497
 1825TIP3    H227035   3.128   3.652   2.067 -0.3109 -0.3352  0.5331
 1826TIP3   OH227036   0.145   1.599   1.977 -0.4061  0.1677  0.2040
 1826TIP3    H127037   0.074   1.558   1.928  0.1125  0.3186 -0.6964
 1826TIP3    H227038   0.153   1.548   2.057  0.0178 -1.3033 -0.7415
 1827TIP3   OH227039   2.632   3.466   0.320 -0.2607 -0.7308 -0.8640
 1827TIP3    H127040   2.696   3.435   0.385 -0.4500 -0.6008 -0.6168
 1827TIP3    H227041   2.626   3.393   0.258 -0.0143 -0.8224 -0.7852
 1828TIP3   OH227042   1.010   1.572   0.578 -0.0367 -0.1231  0.0619
 1828TIP3    H127043   0.924   1.529   0.577 -0.8881  1.4981 -1.1614
 1828TIP3    H227044   1.067   1.511   0.532 -1.1773 -0.1004 -1.4803
 1829TIP3   OH227045   1.326   3.463   1.281 -0.1526 -0.1235 -0.4182
 1829TIP3    H127046   1.291   3.501   1.361  1.6220  0.9445 -0.0876
 1829TIP3    H227047   1.337   3.538   1.222  1.6144 -0.3527 -0.4446
 1830TIP3   OH227048   4.197   0.426   7.033  0.2905  0.0432  0.1605
 1830TIP3    H127049   4.210   0.495   7.098 -0.1727  3.1122 -2.7319
 1830TIP3    H227050   4.267   0.438   6.969 -1.2093 -0.5194 -1.7062
 1831TIP3   OH227051   1.106   2.689   0.229 -0.5238  0.1223  0.1953
 1831TIP3    H127052   1.019   2.674   0.191 -0.0250  0.4259 -1.1235
 1831TIP3    H227053   1.134   2.773   0.193 -0.6491  1.2285  2.4913
 1832TIP3   OH227054   6.752   0.967   8.348 -0.2138 -0.2237  0.1765
 1832TIP3    H127055   6.713   0.913   8.279  0.2842 -1.9799  1.2084
 1832TIP3    H227056   6.796   1.038   8.301 -1.2179 -0.4832 -1.2118
 1833TIP3   OH227057   4.676   6.765   0.807  0.3248 -0.2439  0.1643
 1833TIP3    H127058   4.661   6.698   0.873  0.3033 -0.7134 -0.3103
 1833TIP3    H227059   4.590   6.802   0.789  0.1505 -0.8849 -0.3973
 1834TIP3   OH227060   6.850   3.746   6.231 -0.0816  0.4792 -0.3138
 1834TIP3    H127061   6.932   3.724   6.275  0.1244 -1.3271 -1.4846
 1834TIP3    H227062   6.786   3.683   6.266 -0.1517 -0.3015 -1.7734
 1835TIP3   OH227063   0.022   2.905   1.352 -0.0414 -0.5197 -0.0527
 1835TIP3    H127064  -0.068   2.880   1.373 -0.1423  0.0187  0.1823
 1835TIP3    H227065   0.075   2.866   1.421 -0.2203  0.0874  0.4388
 1836TIP3   OH227066   1.625   3.370   8.456  0.4183  0.4723  0.3316
 1836TIP3    H127067   1.609   3.276   8.460 -2.7667  0.8986  0.2406
 1836TIP3    H227068   1.631   3.397   8.547  0.7215  0.2652  0.3744
 1837TIP3   OH227069   0.997   5.885   8.491 -0.3914 -1.0551 -0.1259
 1837TIP3    H127070   1.080   5.850   8.525 -0.7368  0.3247  2.3953
 1837TIP3    H227071   1.021   5.968   8.450 -0.3191 -1.4947 -0.9913
 1838TIP3   OH227072   4.878   3.759   0.966  0.2467  0.8181  0.0271
 1838TIP3    H127073   4.873   3.679   0.913 -0.7580  1.4441 -0.8563
 1838TIP3    H227074   4.932   3.735   1.041 -0.2412 -0.7632 -0.0996
 1839TIP3   OH227075   0.657   0.056   2.149  0.3574  0.2198  0.3526
 1839TIP3    H127076   0.692   0.143   2.126 -0.7120  0.7031  0.4750
 1839TIP3    H227077   0.734  -0.001   2.152  1.0852  1.1712  0.3017
 1840TIP3   OH227078   5.700   3.726   2.042  0.0067 -0.2819 -0.0818
 1840TIP3    H127079   5.609   3.735   2.012  0.0983  1.1931 -0.0322
 1840TIP3    H227080   5.717   3.808   2.088  1.3777 -0.5328 -0.1170
 1841TIP3   OH227081   0.508   5.533   0.048 -0.4375 -0.4330 -0.0067
 1841TIP3    H127082   0.521   5.625   0.026  2.3248 -0.4411  1.1918
 1841TIP3    H227083   0.416   5.527   0.073 -0.0556  2.7383  2.8365
 1842TIP3   OH227084   5.221   1.225   0.520 -0.2157 -0.6030 -0.2132
 1842TIP3    H127085   5.179   1.249   0.437 -0.3507  2.1684  0.5437
 1842TIP3    H227086   5.148   1.222   0.582  0.2268  0.4545  0.3734
 1843TIP3   OH227087   1.957   6.135   7.909 -0.1030 -0.2407 -0.0195
 1843TIP3    H127088   1.892   6.186   7.860  0.3337 -0.2996 -0.6883
 1843TIP3    H227089   1.906   6.067   7.953 -0.5967  0.2700  0.2153
 1844TIP3   OH227090   0.172   1.034   8.643  0.1398  0.6338 -0.2447
 1844TIP3    H127091   0.081   1.064   8.636 -0.4770 -0.6570  1.4954
 1844TIP3    H227092   0.214   1.068   8.564 -2.2969 -0.2256 -2.0623
 1845TIP3   OH227093   6.417   3.276   0.192  0.5241  0.2351 -0.4363
 1845TIP3    H127094   6.361   3.317   0.259 -1.1522 -0.8002 -1.1291
 1845TIP3    H227095   6.379   3.304   0.109  0.5853 -1.0699 -0.9269
 1846TIP3   OH227096   3.238   2.535   6.575 -0.4264 -0.2886  0.2191
 1846TIP3    H127097   3.279   2.451   6.594 -0.8342 -0.6799 -0.5785
 1846TIP3    H227098   3.267   2.556   6.486  0.7470  1.0733  0.8810
 1847TIP3   OH227099   2.566   1.215   0.705 -0.1366 -0.2910  0.3101
 1847TIP3    H127100   2.623   1.271   0.758  0.5053 -0.5150 -0.1408
 1847TIP3    H227101   2.492   1.271   0.683  1.0251  0.7699 -1.0904
 1848TIP3   OH227102   0.869   5.361   0.327  0.1564 -0.4157  0.1427
 1848TIP3    H127103   0.867   5.434   0.388 -0.5540 -0.7636  0.5422
 1848TIP3    H227104   0.954   5.368   0.284  0.0259  0.7291  0.0621
 1849TIP3   OH227105   5.004   2.086   7.126 -0.1945  0.2125  0.2840
 1849TIP3    H127106   4.962   2.106   7.043 -0.4376 -0.4043  0.2564
 1849TIP3    H227107   5.009   2.171   7.171  2.0270  1.0219 -1.2874
 1850TIP3   OH227108   2.001   0.178   1.399 -0.0185  0.5855 -0.0866
 1850TIP3    H127109   2.024   0.265   1.366  3.4360 -0.7194 -1.5387
 1850TIP3    H227110   1.943   0.142   1.332  0.3184  0.9764 -0.5941
 1851TIP3   OH227111   5.105   2.127   1.181 -0.2659 -0.0910  0.1042
 1851TIP3    H127112   5.108   2.216   1.146  0.5976 -0.2790 -0.3122
 1851TIP3    H227113   5.126   2.137   1.273 -1.1558  0.2425  0.2862
 1852TIP3   OH227114   4.700   3.785   1.872  0.5061 -0.4906  0.0193
 1852TIP3    H127115   4.740   3.718   1.926 -0.2932 -1.8267 -0.9859
 1852TIP3    H227116   4.609   3.790   1.902  0.8003  0.8944  0.7685
 1853TIP3   OH227117   0.943   3.185   7.760  0.1791  0.0307  0.1169
 1853TIP3    H127118   1.026   3.232   7.770  0.4104 -0.3009 -0.2395
 1853TIP3    H227119   0.877   3.245   7.797  0.3501  1.0124 -1.0903
 1854TIP3   OH227120   5.117   2.665   0.461 -0.6934  0.3897 -0.3284
 1854TIP3    H127121   5.185   2.603   0.436 -0.2205  1.1944 -1.1080
 1854TIP3    H227122   5.063   2.618   0.524  0.0248 -0.5862 -0.4244
 1855TIP3   OH227123   3.846   1.632   0.104  0.1425 -0.0931  0.0893
 1855TIP3    H127124   3.791   1.698   0.146  1.1388  1.6643 -1.2214
 1855TIP3    H227125   3.835   1.648   0.010  0.3315 -1.8932 -0.2725
 1856TIP3   OH227126   4.692   0.823   7.217 -0.0369  0.0977  0.9512
 1856TIP3    H127127   4.695   0.829   7.312 -1.2232  0.5213  0.9730
 1856TIP3    H227128   4.607   0.782   7.198  0.1639  0.0701  0.0772
 1857TIP3   OH227129   4.305   3.363   2.173 -0.1315 -0.1890 -0.1008
 1857TIP3    H127130   4.253   3.402   2.243 -0.1093 -0.8797  0.3093
 1857TIP3    H227131   4.284   3.270   2.177 -0.7576 -0.1365 -1.5425
 1858TIP3   OH227132   5.335   5.295   0.685  0.2076 -0.2020 -0.2976
 1858TIP3    H127133   5.420   5.322   0.720 -0.0443 -0.3680  0.4788
 1858TIP3    H227134   5.318   5.353   0.611  0.4528  0.6176  0.2858
 1859TIP3   OH227135   5.249   4.997   7.397 -0.1397 -1.0521  0.3223
 1859TIP3    H127136   5.343   4.983   7.404  0.3610  1.3307 -0.6388
 1859TIP3    H227137   5.226   4.968   7.309  0.3877  1.3089 -0.6684
 1860TIP3   OH227138   3.430   4.893   6.919 -0.3178 -0.6332  0.5356
 1860TIP3    H127139   3.525   4.905   6.911 -0.5001  0.5820 -0.1461
 1860TIP3    H227140   3.397   4.904   6.829 -1.3334  1.6227  1.1166
 1861TIP3   OH227141   6.359   3.130   7.094  0.4189  0.4965  0.5626
 1861TIP3    H127142   6.304   3.181   7.035  0.6241 -0.9722 -1.0134
 1861TIP3    H227143   6.372   3.186   7.170 -0.1883  2.3471 -0.6197
 1862TIP3   OH227144   4.699   1.916   8.320 -0.0407 -0.2822 -0.2849
 1862TIP3    H127145   4.732   1.947   8.405  0.7815 -2.4365  0.2624
 1862TIP3    H227146   4.706   1.992   8.262  1.0517  0.7630  1.1380
 1863TIP3   OH227147   6.792   0.157   6.940 -0.2193  0.1055  0.5538
 1863TIP3    H127148   6.773   0.098   6.868  2.5666  0.5434 -0.6666
 1863TIP3    H227149   6.830   0.100   7.008  2.5460  0.3281 -0.6540
 1864TIP3   OH227150   3.396   5.126   7.940  0.0531  0.1517  0.1311
 1864TIP3    H127151   3.425   5.160   7.856  2.7212  0.7095  1.1829
 1864TIP3    H227152   3.467   5.069   7.969 -0.2508  0.8684  2.4980
 1865TIP3   OH227153   3.970   5.334   7.002 -0.0200 -0.0106 -0.4022
 1865TIP3    H127154   3.968   5.323   7.097  1.3921  0.2837 -0.3119
 1865TIP3    H227155   3.936   5.251   6.967 -0.2839 -0.2262  0.3566
 1866TIP3   OH227156   1.220   3.800   8.651 -0.0472 -0.3917  0.0207
 1866TIP3    H127157   1.289   3.738   8.629  0.4953 -0.2812  1.2962
 1866TIP3    H227158   1.139   3.758   8.623  0.2897 -1.7998  1.0541
 1867TIP3   OH227159   5.787   3.433   1.073  0.0092  0.0674 -0.3160
 1867TIP3    H127160   5.721   3.470   1.014 -2.5503 -2.2552  0.8749
 1867TIP3    H227161   5.765   3.468   1.159 -1.0121 -2.2350  0.4329
 1868TIP3   OH227162   1.158   1.446   1.313  0.0286  0.1172 -0.0035
 1868TIP3    H127163   1.217   1.371   1.304  2.8618  2.0719  0.7457
 1868TIP3    H227164   1.189   1.509   1.249 -0.9193  1.4446  0.7762
 1869TIP3   OH227165   4.509   0.803   8.566 -0.0841  0.1182 -0.1269
 1869TIP3    H127166   4.599   0.834   8.551  0.4788 -1.0112  0.7193
 1869TIP3    H227167   4.491   0.746   8.492 -0.3886  0.9100 -0.6731
 1870TIP3   OH227168   0.203   3.327   0.351 -0.5368  0.2911 -0.3264
 1870TIP3    H127169   0.245   3.249   0.387 -0.9251 -0.4775 -1.5023
 1870TIP3    H227170   0.115   3.326   0.388 -1.1130 -0.7927 -1.6639
 1871TIP3   OH227171   3.831   1.675   1.513 -0.0749  0.6548  0.4701
 1871TIP3    H127172   3.741   1.651   1.536 -0.4456  2.2678  0.8553
 1871TIP3    H227173   3.829   1.685   1.418 -0.9312  2.8460  0.6544
 1872TIP3   OH227174   0.818   3.061   6.186 -0.2145 -0.4867  0.1656
 1872TIP3    H127175   0.794   3.053   6.279 -0.9218  0.7432  0.1066
 1872TIP3    H227176   0.862   2.979   6.166 -0.8509 -1.1491  1.3571
 1873TIP3   OH227177   3.009   6.193   0.475  0.5214 -0.0161  0.1099
 1873TIP3    H127178   3.017   6.140   0.554  0.4414 -0.0074  0.1239
 1873TIP3    H227179   2.939   6.151   0.425  0.4138  0.1134  0.1502
 1874TIP3   OH227180   1.968   5.574   1.126 -0.1265 -0.1375  0.3303
 1874TIP3    H127181   1.885   5.583   1.174 -0.2601  1.1647 -0.0998
 1874TIP3    H227182   2.022   5.646   1.159  0.1156  0.2139 -0.7909
 1875TIP3   OH227183   0.909   2.349   7.167 -0.0729 -0.2807 -0.1176
 1875TIP3    H127184   0.913   2.322   7.075  2.4610 -0.5664  0.0189
 1875TIP3    H227185   0.939   2.272   7.216 -2.8940 -0.7243  1.1766
 1876TIP3   OH227186   0.318   6.160   6.948 -0.2151  0.0276 -0.2924
 1876TIP3    H127187   0.394   6.182   7.002 -0.5845  1.1573 -0.2111
 1876TIP3    H227188   0.351   6.162   6.858  0.1618 -0.8545 -0.1855
 1877TIP3   OH227189   6.762   5.912   7.019 -0.0054  0.5961 -0.3088
 1877TIP3    H127190   6.696   5.965   7.064  0.5890 -0.2609  1.7150
 1877TIP3    H227191   6.810   5.974   6.964  0.1207  2.0221  1.3242
 1878TIP3   OH227192   5.430   2.041   1.057  0.2288  0.1487  0.2337
 1878TIP3    H127193   5.362   2.076   1.114 -2.7080 -0.4302 -2.6365
 1878TIP3    H227194   5.442   1.950   1.086 -2.4033 -0.6482 -0.9082
 1879TIP3   OH227195   1.064   4.395   6.689  0.3614 -0.1557 -0.5223
 1879TIP3    H127196   1.061   4.319   6.631 -1.5473 -0.9812  0.5596
 1879TIP3    H227197   1.017   4.464   6.642 -2.8634 -1.3721  0.6219
 1880TIP3   OH227198   5.135   0.269   8.487  0.4479  0.1210  0.1688
 1880TIP3    H127199   5.065   0.328   8.516  0.1631 -0.4183  0.6039
 1880TIP3    H227200   5.178   0.316   8.415  0.6402  1.1303  0.9220
 1881TIP3   OH227201   3.591   6.831   7.542  0.1432  0.0783 -0.0486
 1881TIP3    H127202   3.649   6.855   7.615 -0.6352  1.2898  0.1967
 1881TIP3    H227203   3.509   6.876   7.561  0.0296  0.7170 -1.8667
 1882TIP3   OH227204   1.653   4.909   7.256 -0.5579  0.7016  0.1929
 1882TIP3    H127205   1.597   4.941   7.186  1.9283  1.2877 -1.6875
 1882TIP3    H227206   1.667   4.817   7.236 -2.7888 -0.1362  2.1192
 1883TIP3   OH227207   0.583   6.819   8.533 -0.2863 -0.1500  0.6288
 1883TIP3    H127208   0.532   6.878   8.477  0.1773  0.8205  1.1964
 1883TIP3    H227209   0.524   6.745   8.549  0.4538 -1.8091 -3.2254
 1884TIP3   OH227210   0.153   4.024   8.718 -0.1965  0.5156 -0.1585
 1884TIP3    H127211   0.130   3.990   8.805  0.3488  0.8883  0.1342
 1884TIP3    H227212   0.088   4.093   8.702  0.3256  1.1565  0.4086
 1885TIP3   OH227213   0.383   1.313   7.877 -0.2635  0.3629  0.4316
 1885TIP3    H127214   0.360   1.260   7.953 -1.4219  3.0339  2.1083
 1885TIP3    H227215   0.332   1.276   7.805  1.2445 -2.5468  0.7317
 1886TIP3   OH227216   6.357   5.634   0.874 -0.1377  0.3816  0.4958
 1886TIP3    H127217   6.324   5.719   0.845 -0.6243 -0.6507 -2.2971
 1886TIP3    H227218   6.280   5.588   0.908 -0.1840  0.5165  0.5708
 1887TIP3   OH227219   4.986   5.604   7.225 -0.0042 -0.4399 -0.2114
 1887TIP3    H127220   4.922   5.546   7.267 -0.4307  1.2760  1.6223
 1887TIP3    H227221   4.953   5.616   7.136 -1.8335 -0.2218  0.4592
 1888TIP3   OH227222   6.152   5.508   6.876 -0.4696 -0.2354  0.2294
 1888TIP3    H127223   6.175   5.594   6.911  0.8268 -0.3903 -0.1965
 1888TIP3    H227224   6.157   5.518   6.781 -1.8507 -0.3846  0.1235
 1889TIP3   OH227225   1.455   1.270   0.976 -0.3042  0.3257  0.2027
 1889TIP3    H127226   1.418   1.346   0.931  0.9789 -0.2598 -2.0235
 1889TIP3    H227227   1.379   1.220   1.005 -1.2373  0.7227 -1.4051
 1890TIP3   OH227228   4.582   3.627   8.522 -0.0041 -0.2116 -0.1808
 1890TIP3    H127229   4.553   3.714   8.494  0.9553 -0.4977 -2.1612
 1890TIP3    H227230   4.590   3.577   8.442 -1.0744 -2.3420  0.9594
 1891TIP3   OH227231   1.716   0.892   1.288  0.0171 -0.0749  0.1889
 1891TIP3    H127232   1.685   0.974   1.250  2.4195  0.4718 -0.7302
 1891TIP3    H227233   1.703   0.826   1.220  0.0439 -0.0479  0.1585
 1892TIP3   OH227234   2.596   1.494   2.012 -0.3324 -0.1239 -0.4266
 1892TIP3    H127235   2.670   1.481   1.952  0.1062 -0.6685  0.2071
 1892TIP3    H227236   2.568   1.584   1.997 -0.7190 -0.4718 -1.9777
 1893TIP3   OH227237   6.003   6.728   8.256  0.2160 -0.5570  0.2486
 1893TIP3    H127238   5.912   6.697   8.255  0.4873 -1.3620  0.7125
 1893TIP3    H227239   6.056   6.649   8.254  0.9168 -0.1856  2.1053
 1894TIP3   OH227240   1.650   1.918   7.488  0.3593 -0.1245 -0.0467
 1894TIP3    H127241   1.733   1.952   7.455  0.0833  0.1109 -0.5080
 1894TIP3    H227242   1.604   1.995   7.523 -0.8483  0.2621 -2.3192
 1895TIP3   OH227243   1.160   6.795   0.063 -0.2092 -0.6526 -0.0885
 1895TIP3    H127244   1.201   6.775   0.147  0.0067 -0.1224 -0.0674
 1895TIP3    H227245   1.147   6.890   0.065  0.0688 -0.5977 -0.7784
 1896TIP3   OH227246   1.611   0.620   0.207 -0.2031  1.0754 -0.6844
 1896TIP3    H127247   1.667   0.545   0.187 -0.9946  0.3905 -0.4238
 1896TIP3    H227248   1.523   0.582   0.214 -0.8811  2.2785 -2.1710
 1897TIP3   OH227249   3.695   6.641   7.374 -0.2493 -0.1178 -0.0547
 1897TIP3    H127250   3.655   6.681   7.452  0.3428 -0.2949  0.3479
 1897TIP3    H227251   3.676   6.702   7.303 -1.5998 -0.3941  0.0297
 1898TIP3   OH227252   6.499   3.630   6.890 -0.1370  0.2751  0.1005
 1898TIP3    H127253   6.583   3.589   6.912 -0.5640 -0.1646  0.9044
 1898TIP3    H227254   6.480   3.688   6.964 -0.2944  0.7744 -0.3231
 1899TIP3   OH227255   2.912   3.479   7.277 -0.0873 -0.0669  0.4043
 1899TIP3    H127256   2.899   3.509   7.187 -0.1341  0.3428  0.5468
 1899TIP3    H227257   2.972   3.543   7.316  2.1930 -1.7062 -0.1368
 1900TIP3   OH227258   2.569   5.415   6.727 -0.5486  0.3056  0.6793
 1900TIP3    H127259   2.545   5.416   6.634 -0.1702 -2.3756  0.4832
 1900TIP3    H227260   2.606   5.328   6.742 -0.1424  0.8326  3.2511
 1901TIP3   OH227261   4.050   5.133   6.660  0.0616  0.2407  0.3166
 1901TIP3    H127262   4.119   5.112   6.722 -0.3756 -0.9172  0.4336
 1901TIP3    H227263   3.969   5.127   6.710 -0.1662  1.3193  0.1146
 1902TIP3   OH227264   0.202   4.632   8.063  0.0962  0.7600  0.5409
 1902TIP3    H127265   0.217   4.700   8.128  0.1968  0.9330  0.3364
 1902TIP3    H227266   0.269   4.566   8.081  1.3406  1.6746 -0.5718
 1903TIP3   OH227267   1.208   0.967   2.105  0.4470 -0.1707  0.0488
 1903TIP3    H127268   1.174   1.035   2.046  0.2812 -1.0571 -0.9173
 1903TIP3    H227269   1.195   0.885   2.056  2.9545 -0.6751  0.0934
 1904TIP3   OH227270   0.561   5.817   1.546  0.5549 -0.6927  0.7662
 1904TIP3    H127271   0.490   5.807   1.610 -0.0214 -0.6497  0.1491
 1904TIP3    H227272   0.516   5.830   1.463  1.2467  1.8902  0.7025
 1905TIP3   OH227273   1.125   6.445   0.204  0.1024  0.6221 -0.3235
 1905TIP3    H127274   1.120   6.511   0.273 -0.8574  1.5223 -1.2139
 1905TIP3    H227275   1.034   6.419   0.189  0.3438  0.1084 -0.9369
 1906TIP3   OH227276   5.074   1.255   7.660  0.0088  0.1392 -0.4135
 1906TIP3    H127277   5.115   1.235   7.744 -0.7383 -3.4923 -0.7442
 1906TIP3    H227278   5.123   1.203   7.597 -0.6503  1.3387 -1.9783
 1907TIP3   OH227279   2.789   5.323   2.152  0.1095  0.5694  0.4059
 1907TIP3    H127280   2.881   5.348   2.144 -0.0136  0.6744 -0.9813
 1907TIP3    H227281   2.763   5.351   2.239  2.1464 -1.9656  1.9824
 1908TIP3   OH227282   0.558   2.261   0.544 -0.0444  0.0896 -0.4785
 1908TIP3    H127283   0.502   2.239   0.470 -0.0272  0.5743 -0.6403
 1908TIP3    H227284   0.613   2.332   0.512  0.6224 -0.3367 -0.2969
 1909TIP3   OH227285   6.308   4.400   8.165  0.0859  0.0004  0.0717
 1909TIP3    H127286   6.278   4.457   8.236 -0.0971  0.5425 -0.4404
 1909TIP3    H227287   6.382   4.352   8.203  0.6224  0.9978  0.3335
 1910TIP3   OH227288   2.215   3.125   6.832 -0.2348  0.1082  0.1780
 1910TIP3    H127289   2.212   3.192   6.764 -1.0454  3.2051  3.0227
 1910TIP3    H227290   2.137   3.071   6.815 -0.7571  1.1714 -0.9776
 1911TIP3   OH227291   1.160   0.513   6.948 -0.3284  0.2220 -0.1858
 1911TIP3    H127292   1.155   0.598   6.903 -1.2234  0.2515 -0.0543
 1911TIP3    H227293   1.254   0.496   6.957 -0.1335  1.2017 -0.2148
 1912TIP3   OH227294   0.349   0.985   7.608  0.0901  0.0824 -0.0876
 1912TIP3    H127295   0.404   0.953   7.679 -0.2626  0.3771  0.3266
 1912TIP3    H227296   0.260   0.966   7.636 -0.0791  0.6497 -0.2224
 1913TIP3   OH227297   1.318   3.491   0.576  0.2037 -0.0907  0.2727
 1913TIP3    H127298   1.383   3.446   0.522 -0.5998  0.1407 -0.9311
 1913TIP3    H227299   1.234   3.454   0.548 -0.7223  3.2627 -2.0802
 1914TIP3   OH227300   2.128   0.766   8.635 -0.3517 -0.1303  0.8286
 1914TIP3    H127301   2.146   0.759   8.541 -1.4840 -1.1162  0.6677
 1914TIP3    H227302   2.215   0.770   8.675  0.1566 -0.3262 -0.2208
 1915TIP3   OH227303   2.964   3.326   8.175 -0.4787 -0.4512  0.0141
 1915TIP3    H127304   2.940   3.303   8.264  0.2434  0.0881  0.3583
 1915TIP3    H227305   2.880   3.344   8.131 -0.7825  0.1331  0.8236
 1916TIP3   OH227306   3.325   0.241   7.221 -0.2249  0.2671 -0.1799
 1916TIP3    H127307   3.394   0.185   7.184  1.2866  0.4868  2.1289
 1916TIP3    H227308   3.362   0.329   7.220 -0.8330  0.5373  0.2770
 1917TIP3   OH227309   4.450   6.218   0.638 -0.2664 -0.0141 -0.6355
 1917TIP3    H127310   4.500   6.288   0.680  0.6948 -1.5007  0.8120
 1917TIP3    H227311   4.427   6.253   0.552  3.1374  0.8305 -1.3278
 1918TIP3   OH227312   6.463   1.226   8.175  0.2593  0.1218 -0.1939
 1918TIP3    H127313   6.527   1.155   8.166 -0.0349 -0.0060 -1.5333
 1918TIP3    H227314   6.407   1.199   8.248 -0.6021 -1.6534 -1.4442
 1919TIP3   OH227315   0.888   1.960   1.187 -0.4623  0.2609 -0.7277
 1919TIP3    H127316   0.880   2.035   1.127  0.3717 -0.0797 -1.2954
 1919TIP3    H227317   0.814   1.968   1.246 -0.8059  1.1180 -1.2544
 1920TIP3   OH227318   3.500   0.720   6.926  0.3423  0.6017  0.2767
 1920TIP3    H127319   3.503   0.787   6.857  0.5680  0.5175  0.2012
 1920TIP3    H227320   3.586   0.678   6.921  0.2106  0.3229  0.3395
 1921TIP3   OH227321   6.316   2.560   1.982 -0.0695 -0.9191 -0.0044
 1921TIP3    H127322   6.366   2.512   2.048  0.7552  0.2833  0.2773
 1921TIP3    H227323   6.285   2.492   1.922  0.7803 -1.8361  0.5487
 1922TIP3   OH227324   4.293   1.460   7.208  0.1695  0.8283  0.8282
 1922TIP3    H127325   4.243   1.397   7.260 -0.3915  0.0227 -0.6391
 1922TIP3    H227326   4.384   1.448   7.236 -0.3201  2.0230  3.2363
 1923TIP3   OH227327   1.036   3.190   8.583  0.3258 -0.2138 -0.7857
 1923TIP3    H127328   1.050   3.270   8.532 -3.5451  0.6351 -0.8254
 1923TIP3    H227329   1.067   3.120   8.526 -0.3063  0.9824 -2.7024
 1924TIP3   OH227330   6.713   2.618   0.301  0.1094 -0.3923 -0.2151
 1924TIP3    H127331   6.766   2.652   0.228 -1.9496 -1.8336 -2.5157
 1924TIP3    H227332   6.720   2.686   0.368  1.5030  1.3806 -2.0088
 1925TIP3   OH227333   5.249   4.050   7.372  0.0778 -0.4452 -0.4306
 1925TIP3    H127334   5.199   4.072   7.450 -0.8478 -1.2307 -0.7822
 1925TIP3    H227335   5.298   4.130   7.352 -1.9202  0.7767 -0.7378
 1926TIP3   OH227336   6.543   6.532   1.841  0.5076 -0.1201  0.0308
 1926TIP3    H127337   6.473   6.469   1.826 -2.0921  2.5361  0.1668
 1926TIP3    H227338   6.517   6.579   1.920  0.8282  2.9158 -1.5114
 1927TIP3   OH227339   5.274   4.652   1.281 -0.2916  0.5621  0.4400
 1927TIP3    H127340   5.313   4.723   1.332  2.8198 -0.9830  0.4409
 1927TIP3    H227341   5.229   4.597   1.346  0.6926  0.4497  1.0390
 1928TIP3   OH227342   1.799   1.485   0.752  0.9014  0.1743 -0.5759
 1928TIP3    H127343   1.799   1.459   0.845  0.0657  0.1759 -0.5735
 1928TIP3    H227344   1.715   1.455   0.719 -0.6200  3.6565 -0.3452
 1929TIP3   OH227345   2.051   1.198   7.613 -0.0115  0.7351 -0.9358
 1929TIP3    H127346   2.130   1.214   7.561  0.7493 -1.7006 -0.6429
 1929TIP3    H227347   2.069   1.117   7.660 -1.7719  1.3933  1.0234
 1930TIP3   OH227348   0.686   2.988   1.693 -0.0576  0.6008 -0.4790
 1930TIP3    H127349   0.698   2.894   1.706 -0.9548  0.4858 -0.3961
 1930TIP3    H227350   0.720   3.027   1.774 -2.5808  0.1039  0.9445
 1931TIP3   OH227351   6.494   2.786   0.757 -0.4724 -0.1340  0.5324
 1931TIP3    H127352   6.430   2.762   0.824 -0.9412 -2.9127 -0.7801
 1931TIP3    H227353   6.453   2.860   0.711 -0.8462  0.7814  2.2508
 1932TIP3   OH227354   6.148   3.468   7.406 -0.2052  0.6820  0.4875
 1932TIP3    H127355   6.166   3.555   7.372 -0.7637  0.7277  0.2815
 1932TIP3    H227356   6.208   3.456   7.479  1.8012  0.1834 -1.1450
 1933TIP3   OH227357   6.108   0.514   0.796  0.0319 -0.0976 -0.1686
 1933TIP3    H127358   6.202   0.512   0.811  0.1525 -0.7690 -0.9932
 1933TIP3    H227359   6.093   0.596   0.748  0.0531  0.4744  0.7600
 1934TIP3   OH227360   6.605   2.279   0.707 -0.7084  0.1902 -0.0207
 1934TIP3    H127361   6.675   2.302   0.768  0.5840  1.5376 -1.8949
 1934TIP3    H227362   6.549   2.357   0.706 -1.2689 -0.2067  0.1522
 1935TIP3   OH227363   0.907   4.725   7.733  0.4472 -0.1936  0.5869
 1935TIP3    H127364   0.994   4.764   7.724  0.9750 -0.9445  2.0860
 1935TIP3    H227365   0.851   4.797   7.760  0.9385 -0.0204  1.1512
 1936TIP3   OH227366   5.528   2.438   7.682 -0.2783  0.4756  0.0099
 1936TIP3    H127367   5.559   2.349   7.662 -0.5196  0.4534 -0.2780
 1936TIP3    H227368   5.604   2.481   7.722 -0.6025 -0.3019  1.5228
 1937TIP3   OH227369   2.187   6.144   7.391 -0.1838 -0.2052  0.4081
 1937TIP3    H127370   2.115   6.187   7.344 -0.6649 -0.9474  0.4439
 1937TIP3    H227371   2.168   6.050   7.384  1.3813 -0.4846 -0.5177
 1938TIP3   OH227372   3.178   2.930   0.871  0.4615  0.6392 -0.4639
 1938TIP3    H127373   3.166   2.867   0.799  0.3618  1.5328 -1.2518
 1938TIP3    H227374   3.216   2.879   0.942 -0.5426 -0.5264 -0.7374
 1939TIP3   OH227375   1.925   4.112   8.448 -0.2138  0.0318  0.3870
 1939TIP3    H127376   1.957   4.049   8.384  1.7211  0.9702  0.3592
 1939TIP3    H227377   1.969   4.194   8.425 -1.9558  1.1986  0.9774
 1940TIP3   OH227378   0.954   2.107   7.289  0.1631 -0.2918 -0.1322
 1940TIP3    H127379   0.917   2.047   7.354  0.8373  0.4377  0.9757
 1940TIP3    H227380   0.970   2.053   7.212 -2.3867 -0.8163 -0.3944
 1941TIP3   OH227381   4.301   6.187   7.631  0.1777  0.2027  0.4230
 1941TIP3    H127382   4.383   6.234   7.646 -0.7008  1.7571  0.6370
 1941TIP3    H227383   4.242   6.219   7.700 -0.7964 -0.3996 -0.0967
 1942TIP3   OH227384   5.010   5.326   6.858 -0.8975 -0.6930 -0.1437
 1942TIP3    H127385   5.059   5.246   6.837  1.7238  0.3578  1.4199
 1942TIP3    H227386   5.021   5.382   6.782  1.6759  0.0504  0.6785
 1943TIP3   OH227387   0.915   5.029   0.589 -0.2130 -0.3852 -0.0393
 1943TIP3    H127388   0.820   5.017   0.592 -0.3818  0.9843  2.2839
 1943TIP3    H227389   0.930   5.119   0.618  1.8144 -0.4524 -0.6579
 1944TIP3   OH227390   6.240   1.225   8.023  0.0473 -1.0136  0.0156
 1944TIP3    H127391   6.333   1.207   8.031  0.2124  0.0521  0.5964
 1944TIP3    H227392   6.224   1.298   8.082 -0.6535  0.5475 -2.0000
 1945TIP3   OH227393   2.757   4.469   7.795  0.2640 -0.4281 -0.4373
 1945TIP3    H127394   2.730   4.557   7.821 -0.3302 -1.1547  1.6162
 1945TIP3    H227395   2.700   4.447   7.722 -0.3511  0.4671 -0.2465
 1946TIP3   OH227396   1.962   0.989   6.652 -0.6316 -0.5098 -0.1423
 1946TIP3    H127397   1.966   0.907   6.603 -1.8811 -0.4567 -0.3739
 1946TIP3    H227398   1.886   0.979   6.709  1.1353 -0.8085  2.2931
 1947TIP3   OH227399   0.154   1.354   8.140  0.1169  0.5467 -0.3250
 1947TIP3    H127400   0.112   1.439   8.132 -2.2247 -0.0976  3.0032
 1947TIP3    H227401   0.224   1.368   8.204 -1.5623 -0.2484  1.8380
 1948TIP3   OH227402   5.217   4.336   1.981  0.0604  0.0267 -0.4375
 1948TIP3    H127403   5.309   4.361   1.977  0.9067 -2.2850  1.8983
 1948TIP3    H227404   5.198   4.327   2.075 -2.2892 -0.4186 -0.8808
 1949TIP3   OH227405   6.002   4.467   6.081 -0.3164 -0.1709  0.0884
 1949TIP3    H127406   6.083   4.462   6.031 -0.2443 -2.4439  0.3489
 1949TIP3    H227407   6.030   4.499   6.167  0.0579  0.5394 -0.2879
 1950TIP3   OH227408   3.519   3.372   1.252  0.2700  0.1353  0.4077
 1950TIP3    H127409   3.482   3.445   1.303 -2.4816  1.7569 -3.4662
 1950TIP3    H227410   3.609   3.400   1.233 -0.0646  1.5182  0.7398
 1951TIP3   OH227411   6.773   1.253   6.995  0.1057  0.4723 -0.1405
 1951TIP3    H127412   6.766   1.257   6.900  0.0791 -0.7699 -0.2087
 1951TIP3    H227413   6.828   1.328   7.019 -1.2470  1.7729 -0.9642
 1952TIP3   OH227414   0.427   1.590   1.924  0.0166  0.4017 -0.3280
 1952TIP3    H127415   0.477   1.585   2.006  0.4185 -0.8479 -0.6294
 1952TIP3    H227416   0.336   1.580   1.951  0.3009 -2.6531 -0.2193
 1953TIP3   OH227417   4.686   2.940   0.189  0.2991  0.2334  0.7732
 1953TIP3    H127418   4.600   2.980   0.207 -0.6209 -1.2616 -0.0429
 1953TIP3    H227419   4.730   3.003   0.133 -1.2022  0.0453 -0.6921
 1954TIP3   OH227420   1.168   4.000   0.662  0.4303  0.6601 -0.7788
 1954TIP3    H127421   1.189   4.005   0.568 -0.7026 -1.8725 -1.2628
 1954TIP3    H227422   1.203   3.915   0.689  0.1666  1.0749  0.9468
 1955TIP3   OH227423   5.217   3.574   7.321 -0.0443  0.7543 -0.1391
 1955TIP3    H127424   5.216   3.519   7.242  1.2334 -0.9895  0.9875
 1955TIP3    H227425   5.295   3.628   7.310  1.5765 -1.2126  0.9461
 1956TIP3   OH227426   5.069   6.724   7.062  0.5193 -0.6598 -0.0856
 1956TIP3    H127427   5.000   6.664   7.090  0.4799 -0.4928  0.1832
 1956TIP3    H227428   5.111   6.680   6.988  0.0958 -0.7394 -0.2796
 1957TIP3   OH227429   0.053   3.161   6.258 -0.6042 -0.0382  0.6494
 1957TIP3    H127430  -0.021   3.216   6.283 -0.0376  0.6458  0.8638
 1957TIP3    H227431   0.021   3.109   6.184 -1.1410  0.6287  0.4059
 1958TIP3   OH227432   2.794   3.198   6.629  0.2379  0.5451 -0.3865
 1958TIP3    H127433   2.755   3.114   6.604  2.0064 -0.5880  0.4506
 1958TIP3    H227434   2.887   3.189   6.606  0.7080  1.7795  0.8993
 1959TIP3   OH227435   5.778   2.441   8.264  0.4200 -0.1307  0.6444
 1959TIP3    H127436   5.854   2.390   8.236  0.4070  0.5893 -0.7778
 1959TIP3    H227437   5.742   2.478   8.183  0.9868  2.9062  1.6550
 1960TIP3   OH227438   0.593   3.558   0.572  0.7171  0.4072 -0.1244
 1960TIP3    H127439   0.682   3.565   0.537  0.8091  0.5432  0.1295
 1960TIP3    H227440   0.582   3.465   0.591  0.2433  0.1429 -1.5828
 1961TIP3   OH227441   4.449   5.311   6.211  0.9415  0.1387 -0.6576
 1961TIP3    H127442   4.441   5.376   6.281  0.5278 -0.1910 -0.3848
 1961TIP3    H227443   4.529   5.335   6.164  0.5023  1.1508 -0.8982
 1962TIP3   OH227444   4.649   3.401   0.560 -0.5201 -0.1217  0.1534
 1962TIP3    H127445   4.566   3.445   0.536 -0.1558  0.2857 -0.3873
 1962TIP3    H227446   4.651   3.323   0.505  0.4391  0.9450 -1.3940
 1963TIP3   OH227447   5.928   5.809   7.839  0.3654  0.0490 -0.1019
 1963TIP3    H127448   6.023   5.824   7.839 -0.0830  3.9292  0.0713
 1963TIP3    H227449   5.909   5.782   7.929  1.2884 -0.6591 -0.1040
 1964TIP3   OH227450   2.121   4.959   1.542  0.1474  0.1141 -0.0962
 1964TIP3    H127451   2.032   4.951   1.576  1.0478 -1.3010  2.1230
 1964TIP3    H227452   2.144   5.051   1.554 -1.3474  0.7584 -1.7414
 1965TIP3   OH227453   1.698   1.935   1.279  0.6826 -0.4319  0.1590
 1965TIP3    H127454   1.708   2.019   1.323 -1.0187 -0.8669  1.4379
 1965TIP3    H227455   1.717   1.870   1.346  1.8164 -1.1149 -0.7773
 1966TIP3   OH227456   4.524   0.026   7.960 -0.3996 -0.0288 -0.2598
 1966TIP3    H127457   4.516  -0.015   8.046 -0.2966 -1.1542 -0.7776
 1966TIP3    H227458   4.615   0.055   7.955 -0.4517  0.1995  0.0749
 1967TIP3   OH227459   5.820   1.450   7.520  0.3518  0.5565  0.1444
 1967TIP3    H127460   5.909   1.413   7.522  0.4033  0.6551  2.4503
 1967TIP3    H227461   5.766   1.378   7.486  1.2882  0.5204 -1.3650
 1968TIP3   OH227462   5.518   5.993   1.700 -0.6552  0.0735 -0.1872
 1968TIP3    H127463   5.544   6.059   1.636 -1.8638  0.5588 -0.2013
 1968TIP3    H227464   5.547   6.027   1.784 -1.8079  0.9522 -0.1148
 1969TIP3   OH227465   3.474   3.146   1.049 -0.0704  0.0140  0.5667
 1969TIP3    H127466   3.501   3.213   1.111  0.1873  0.2834  0.1705
 1969TIP3    H227467   3.415   3.089   1.099 -1.1001  1.0997  0.6500
 1970TIP3   OH227468   4.029   5.022   0.212 -0.0969  0.3126  0.0614
 1970TIP3    H127469   3.965   4.993   0.277 -0.2392  0.0693 -0.1867
 1970TIP3    H227470   4.114   5.006   0.253 -0.1560 -0.8531 -0.2363
 1971TIP3   OH227471   2.233   6.432   6.876  0.4710  0.2300  0.1180
 1971TIP3    H127472   2.143   6.447   6.906  0.6859 -2.0788  2.3368
 1971TIP3    H227473   2.284   6.499   6.921 -0.0164  0.9129 -0.3343
 1972TIP3   OH227474   5.974   3.437   0.370 -0.6885 -0.2360 -0.0120
 1972TIP3    H127475   5.995   3.344   0.361 -0.1207  0.0201 -1.7283
 1972TIP3    H227476   5.905   3.440   0.437 -2.1020 -2.0811 -1.2913
 1973TIP3   OH227477   0.164   4.401   8.304  0.2822  0.1570  0.1174
 1973TIP3    H127478   0.157   4.309   8.328  0.0273  0.0792 -0.2601
 1973TIP3    H227479   0.235   4.404   8.241  0.3507  0.2329  0.1983
 1974TIP3   OH227480   1.381   2.666   0.099 -0.1736  0.0086  0.0664
 1974TIP3    H127481   1.461   2.718   0.097  0.7744 -1.3901 -1.7349
 1974TIP3    H227482   1.316   2.720   0.055 -0.1394  0.9634  1.1276
 1975TIP3   OH227483   2.311   2.202   6.944  0.0532 -0.6418 -0.5788
 1975TIP3    H127484   2.355   2.214   6.860 -0.8761 -1.7893 -1.2639
 1975TIP3    H227485   2.219   2.190   6.922 -0.3154 -0.3226  0.6643
 1976TIP3   OH227486   0.686   5.048   8.143  0.6183  0.3824  0.3411
 1976TIP3    H127487   0.776   5.041   8.112  0.4862  0.3615 -0.0515
 1976TIP3    H227488   0.653   5.128   8.102  0.4563  0.3826  0.4709
 1977TIP3   OH227489   5.903   0.093   0.106  0.4205 -0.8321  0.2872
 1977TIP3    H127490   5.958   0.024   0.143  1.6060  0.5148  1.1663
 1977TIP3    H227491   5.846   0.120   0.178  0.4101 -0.4688  0.1451
 1978TIP3   OH227492   6.763   1.243   8.266  0.5892  0.1208  0.7119
 1978TIP3    H127493   6.839   1.299   8.249  0.3306  0.1695 -0.3091
 1978TIP3    H227494   6.689   1.303   8.270  0.1720 -0.2099 -1.3127
 1979TIP3   OH227495   4.460   2.777   1.869  0.3245 -0.9203 -0.0755
 1979TIP3    H127496   4.464   2.865   1.906 -0.0141 -0.8076 -0.3094
 1979TIP3    H227497   4.525   2.728   1.920  1.1919 -0.3084 -0.5552
 1980TIP3   OH227498   3.128   3.307   0.742 -0.1497  0.0832  0.1108
 1980TIP3    H127499   3.221   3.285   0.749 -0.6485 -2.1386  0.4556
 1980TIP3    H227500   3.083   3.223   0.747 -2.2406  1.1682  0.7751
 1981TIP3   OH227501   1.242   3.298   8.404 -0.1464 -0.2532 -0.6253
 1981TIP3    H127502   1.295   3.361   8.355  0.9893 -0.9394 -0.3210
 1981TIP3    H227503   1.152   3.314   8.375  0.1525  1.2671 -0.8067
 1982TIP3   OH227504   0.392   2.878   7.070  0.3166  0.7071  0.3410
 1982TIP3    H127505   0.393   2.862   6.975 -3.6684  0.4809  0.1618
 1982TIP3    H227506   0.452   2.812   7.105 -1.0609 -1.9302 -1.8211
 1983TIP3   OH227507   5.543   3.007   1.464 -0.5296 -0.5512 -0.1667
 1983TIP3    H127508   5.625   3.053   1.483  0.3525 -2.1789  0.1126
 1983TIP3    H227509   5.567   2.943   1.398 -1.4927 -1.3431  0.2349
 1984TIP3   OH227510   2.897   3.575   0.576 -0.3446 -0.0165  0.3555
 1984TIP3    H127511   2.927   3.522   0.650  1.2424  0.6653  0.2370
 1984TIP3    H227512   2.805   3.550   0.565  0.1393 -2.2154  0.7573
 1985TIP3   OH227513   0.849   2.635   0.162  0.2743  0.1644  0.2834
 1985TIP3    H127514   0.760   2.650   0.195  1.3517  1.6851  2.7806
 1985TIP3    H227515   0.864   2.707   0.101  0.1304  0.4984  0.6354
 1986TIP3   OH227516   4.629   1.870   7.684  0.2676  0.4367  0.6033
 1986TIP3    H127517   4.703   1.923   7.713  2.0467 -0.6080 -1.6414
 1986TIP3    H227518   4.668   1.808   7.622 -2.0993 -1.8592  1.2253
 1987TIP3   OH227519   5.141   6.385   0.153  0.7546 -0.1444  0.0326
 1987TIP3    H127520   5.168   6.304   0.197  0.9024 -0.8398 -1.2945
 1987TIP3    H227521   5.048   6.392   0.170  0.7923 -0.4540  0.3681
 1988TIP3   OH227522   0.106   1.998   7.852  0.2969  0.1698  0.2256
 1988TIP3    H127523   0.130   1.944   7.927  0.7893 -0.5726 -0.4539
 1988TIP3    H227524   0.033   1.950   7.811 -0.4274  0.9173  0.6041
 1989TIP3   OH227525   4.758   3.976   2.111  0.0976 -0.2023 -0.1093
 1989TIP3    H127526   4.741   3.908   2.176  1.0654 -0.9394 -0.6084
 1989TIP3    H227527   4.853   3.980   2.103  0.0058 -0.1528 -1.4961
 1990TIP3   OH227528   1.039   5.587   8.216 -0.0069 -0.1689 -0.1791
 1990TIP3    H127529   1.091   5.664   8.192 -0.3894  0.2693  0.3688
 1990TIP3    H227530   1.007   5.552   8.133 -1.8717  1.7046 -0.3238
 1991TIP3   OH227531   2.621   1.697   7.042  0.7565  0.0927  0.2170
 1991TIP3    H127532   2.630   1.693   6.947  1.9051 -0.2583  0.3220
 1991TIP3    H227533   2.678   1.769   7.069 -0.1939  0.7233  0.5783
 1992TIP3   OH227534   0.081   2.769   1.596 -0.7551 -0.4308 -1.2616
 1992TIP3    H127535  -0.007   2.732   1.605 -0.6685 -0.2684  0.8561
 1992TIP3    H227536   0.140   2.694   1.601 -0.7536 -0.4972 -2.2363
 1993TIP3   OH227537   6.346   4.822   7.657 -0.2318  0.7948 -0.1701
 1993TIP3    H127538   6.435   4.848   7.634  0.2515  1.5236  2.2913
 1993TIP3    H227539   6.343   4.823   7.752 -1.5503 -3.7555  0.1098
 1994TIP3   OH227540   5.268   2.613   1.066  0.2829 -0.0864  0.1793
 1994TIP3    H127541   5.238   2.654   0.985 -0.8712 -0.5955  0.3317
 1994TIP3    H227542   5.204   2.544   1.082  1.0414 -0.5953  1.0236
 1995TIP3   OH227543   6.571   3.881   8.597 -0.3372 -0.1853 -0.0569
 1995TIP3    H127544   6.550   3.973   8.617  0.2729  0.1966 -1.1213
 1995TIP3    H227545   6.637   3.857   8.663 -0.3467  0.2017  0.0973
 1996TIP3   OH227546   4.012   3.387   7.966 -0.4099 -0.3587 -0.3780
 1996TIP3    H127547   3.961   3.307   7.957 -1.2053 -0.1345  1.4689
 1996TIP3    H227548   3.990   3.439   7.889 -2.9153 -0.3650  0.2206
 1997TIP3   OH227549   5.681   5.419   1.290 -0.2657 -1.3010  0.0347
 1997TIP3    H127550   5.759   5.390   1.241  0.3779  0.3148  0.0474
 1997TIP3    H227551   5.712   5.430   1.380 -0.7269 -1.4415  0.2121
 1998TIP3   OH227552   3.826   0.980   1.521  0.1002 -0.1800  0.6950
 1998TIP3    H127553   3.809   1.072   1.541  1.3933  0.0169  1.0235
 1998TIP3    H227554   3.879   0.949   1.594  2.6639 -0.2024 -1.0374
 1999TIP3   OH227555   4.895   3.905   7.470  0.1855  0.1300  0.0880
 1999TIP3    H127556   4.956   3.867   7.533 -0.3110 -1.1483 -0.1731
 1999TIP3    H227557   4.929   3.879   7.385  0.3022  1.0045 -0.1386
 2000TIP3   OH227558   6.243   3.144   6.552  0.4733  0.2362  0.3921
 2000TIP3    H127559   6.235   3.055   6.586  1.5747 -0.3611 -0.8273
 2000TIP3    H227560   6.173   3.153   6.488  0.9276 -0.1017 -0.1645
 2001TIP3   OH227561   1.350   5.438   8.291 -0.0278 -0.2598 -0.1799
 2001TIP3    H127562   1.254   5.439   8.281 -0.2597 -0.6312  1.6677
 2001TIP3    H227563   1.380   5.372   8.230 -0.8389  0.6105 -1.5677
 2002TIP3   OH227564   1.243   4.985   0.719  0.3452 -0.3899  0.0640
 2002TIP3    H127565   1.250   5.050   0.649  1.0819 -0.6482 -0.1142
 2002TIP3    H227566   1.306   4.917   0.694  1.2559 -0.0757  1.4098
 2003TIP3   OH227567   1.942   1.016   7.888 -0.2832  0.1964  0.2773
 2003TIP3    H127568   1.937   0.923   7.864 -0.7005  0.2841  0.0258
 2003TIP3    H227569   1.857   1.052   7.865 -0.6037  0.3519  1.6253
 2004TIP3   OH227570   0.100   5.363   2.301  0.7001  0.0422  0.2509
 2004TIP3    H127571   0.152   5.421   2.245 -0.2062  0.3331 -0.3182
 2004TIP3    H227572   0.046   5.313   2.239 -0.0688  0.1188  0.8465
 2005TIP3   OH227573   0.344   1.885   0.559  0.0535  0.2404 -0.2994
 2005TIP3    H127574   0.385   1.833   0.490  2.5039  0.6993  0.7127
 2005TIP3    H227575   0.311   1.820   0.622  0.5969 -0.1175 -0.3839
 2006TIP3   OH227576   6.774   2.353   0.912  0.5564 -0.1309  0.0293
 2006TIP3    H127577   6.841   2.373   0.847  0.2176  1.6465  0.1589
 2006TIP3    H227578   6.821   2.309   0.983  1.4937  0.5924 -0.1264
 2007TIP3   OH227579   1.007   3.609   8.052  0.3556 -0.2856 -0.5298
 2007TIP3    H127580   1.031   3.699   8.077 -1.0267 -0.6311  2.4923
 2007TIP3    H227581   1.090   3.561   8.054  0.9993  0.7309 -1.4394
 2008TIP3   OH227582   3.220   4.923   7.975  0.3032 -0.4816  0.2059
 2008TIP3    H127583   3.279   4.992   7.946  0.8042 -1.6241 -1.6603
 2008TIP3    H227584   3.258   4.892   8.057  1.1859  0.1084  0.0337
 2009TIP3   OH227585   5.102   3.039   8.513 -0.4614  0.1411 -0.5140
 2009TIP3    H127586   5.050   3.100   8.461  0.3879 -0.8704 -2.7019
 2009TIP3    H227587   5.193   3.057   8.487 -0.1162 -1.3117 -0.4134
 2010TIP3   OH227588   3.624   3.791   7.430 -0.0900 -0.2031  0.0282
 2010TIP3    H127589   3.566   3.811   7.503  0.7665  0.8551  0.4380
 2010TIP3    H227590   3.650   3.876   7.395  1.4579 -0.6336  0.0528
 2011TIP3   OH227591   0.293   0.584   7.603  0.3874 -0.3823 -0.2731
 2011TIP3    H127592   0.246   0.520   7.549 -1.6764  3.0908 -3.0771
 2011TIP3    H227593   0.354   0.627   7.543 -0.3280  2.1301  0.6580
 2012TIP3   OH227594   1.231   0.042   1.431 -0.4470 -0.5966 -0.5632
 2012TIP3    H127595   1.182   0.059   1.511  1.2313 -0.3247  0.4357
 2012TIP3    H227596   1.219  -0.052   1.415 -0.9308 -0.6172 -0.0960
 2013TIP3   OH227597   4.709   3.357   1.601 -0.3087 -0.1187 -0.4659
 2013TIP3    H127598   4.743   3.384   1.516  0.9454 -1.9786 -0.6214
 2013TIP3    H227599   4.614   3.369   1.594 -0.2643 -0.5008 -2.2496
 2014TIP3   OH227600   2.800   1.045   0.638  0.4570  0.1278  0.0753
 2014TIP3    H127601   2.719   1.092   0.622 -0.9638 -1.4383  2.2563
 2014TIP3    H227602   2.849   1.100   0.700  1.5440  1.4705 -1.8526
 2015TIP3   OH227603   4.403   6.428   1.086 -0.5677 -0.3212 -0.2358
 2015TIP3    H127604   4.332   6.370   1.061 -2.5736  1.9836 -0.2089
 2015TIP3    H227605   4.376   6.514   1.056  2.5713  0.5984 -0.8590
 2016TIP3   OH227606   0.123   6.094   8.241 -0.0087  0.2845 -0.8226
 2016TIP3    H127607   0.079   6.011   8.222  1.0038 -0.4706 -0.0129
 2016TIP3    H227608   0.064   6.138   8.303 -0.2455 -0.1393 -0.7389
 2017TIP3   OH227609   5.235   2.962   7.206 -0.7360 -0.5360  0.9362
 2017TIP3    H127610   5.260   2.903   7.276  1.7168 -0.5449  0.1482
 2017TIP3    H227611   5.217   2.904   7.132  2.0896 -0.4451  0.0351
 2018TIP3   OH227612   4.071   1.879   6.686  0.3956  0.5501  0.6721
 2018TIP3    H127613   4.057   1.919   6.600 -1.5959 -0.2466  0.5587
 2018TIP3    H227614   4.004   1.918   6.742 -0.1353 -0.9178  1.1198
 2019TIP3   OH227615   0.181   2.532   8.038  0.6261  0.3885  0.4511
 2019TIP3    H127616   0.134   2.449   8.036  1.6759 -0.2016  0.0229
 2019TIP3    H227617   0.204   2.549   7.946  0.1758  1.3017  0.4905
 2020TIP3   OH227618   3.008   2.166   8.252 -0.2816 -0.2918  0.0951
 2020TIP3    H127619   2.998   2.107   8.327 -2.2294 -0.1369  0.0282
 2020TIP3    H227620   2.962   2.122   8.181 -0.6339  0.6899 -0.3041
 2021TIP3   OH227621   3.942   4.161   6.582 -0.2919  0.5360  0.1197
 2021TIP3    H127622   3.979   4.242   6.617 -0.4378  0.3304  0.7586
 2021TIP3    H227623   4.014   4.120   6.533 -0.1300  0.8945  0.0572
 2022TIP3   OH227624   2.946   1.027   1.469  0.3388 -0.0486  0.2141
 2022TIP3    H127625   2.969   0.936   1.450  3.2460  0.5733  0.3380
 2022TIP3    H227626   2.875   1.021   1.533  0.6164 -2.2229  0.3954
 2023TIP3   OH227627   3.846   1.206   7.433  0.1934 -0.1813  0.1983
 2023TIP3    H127628   3.779   1.195   7.501 -0.5968  0.5102 -0.4421
 2023TIP3    H227629   3.808   1.271   7.373  0.8246 -0.8755 -0.9762
 2024TIP3   OH227630   4.060   3.891   1.701  0.1836 -0.4386  0.5008
 2024TIP3    H127631   4.108   3.916   1.622 -0.5320  0.6274  0.3870
 2024TIP3    H227632   4.104   3.938   1.772 -0.8001  0.7240  0.3658
 2025TIP3   OH227633   5.081   4.747   1.683  0.4869  0.2324 -0.0350
 2025TIP3    H127634   5.176   4.753   1.699  0.0627  2.6165  2.4704
 2025TIP3    H227635   5.045   4.726   1.769 -1.4624  3.5886  0.1255
 2026TIP3   OH227636   0.972   1.652   8.309  0.2298  0.1648  0.2078
 2026TIP3    H127637   0.974   1.695   8.223  5.6443 -1.6530 -0.9606
 2026TIP3    H227638   0.933   1.566   8.291 -1.3600  0.8106  0.3554
 2027TIP3   OH227639   3.004   6.842   6.371  0.8137  0.2189  0.3780
 2027TIP3    H127640   3.091   6.827   6.334  1.4925  0.9559  1.6095
 2027TIP3    H227641   3.008   6.930   6.407 -0.3007  0.0885  0.8556
 2028TIP3   OH227642   4.424   4.802   7.816  0.0719  0.5377  0.0797
 2028TIP3    H127643   4.449   4.841   7.732  0.1857 -2.2351 -1.2784
 2028TIP3    H227644   4.414   4.709   7.797 -1.3269  0.0196  2.8586
 2029TIP3   OH227645   6.302   4.238   7.172  0.0680 -0.5854 -0.2777
 2029TIP3    H127646   6.233   4.191   7.124  0.6449 -1.0542 -0.6661
 2029TIP3    H227647   6.320   4.181   7.247  0.4459 -0.7622 -0.5001
 2030TIP3   OH227648   3.956   0.093   8.724  0.4064  0.3275  0.5324
 2030TIP3    H127649   3.934   0.016   8.776  1.6141  0.1441  0.8023
 2030TIP3    H227650   4.006   0.059   8.650 -0.8808  0.6439 -0.5296
 2031TIP3   OH227651   6.568   6.204   6.764  0.0551  0.0400  0.1354
 2031TIP3    H127652   6.507   6.237   6.699  0.7743 -0.3436 -0.7613
 2031TIP3    H227653   6.579   6.111   6.742  0.5385 -0.0254  0.6188
 2032TIP3   OH227654   1.285   6.573   0.031  0.0610  0.3983  0.5213
 2032TIP3    H127655   1.237   6.516   0.091  0.1114 -0.3580 -0.1391
 2032TIP3    H227656   1.224   6.645   0.013 -1.6184 -1.3917 -1.6551
 2033TIP3   OH227657   3.497   1.905   0.475 -0.1852 -0.0779 -0.2233
 2033TIP3    H127658   3.416   1.866   0.441 -0.8302 -0.1457  1.3034
 2033TIP3    H227659   3.468   1.963   0.546  1.0017  1.0317 -0.6049
 2034TIP3   OH227660   0.085   1.524   1.131 -0.6975  0.2944 -0.1638
 2034TIP3    H127661   0.023   1.469   1.180 -0.4807 -0.1040 -0.3332
 2034TIP3    H227662   0.038   1.605   1.115 -0.0299  1.3810  2.7235
 2035TIP3   OH227663   0.993   5.492   0.519  0.0420  0.2078  0.0654
 2035TIP3    H127664   0.986   5.565   0.581 -2.0087 -0.4924  0.7601
 2035TIP3    H227665   1.058   5.521   0.455 -0.9081  2.7909  0.1272
 2036TIP3   OH227666   0.550   2.786   8.301  0.3150  0.1177 -0.1035
 2036TIP3    H127667   0.573   2.867   8.255  0.1847 -1.3969 -3.0661
 2036TIP3    H227668   0.459   2.770   8.277  0.3331 -0.8861  0.4709
 2037TIP3   OH227669   1.838   1.902   0.457 -0.2833  0.0500 -0.3169
 2037TIP3    H127670   1.752   1.927   0.424  0.2731  0.2488 -1.6893
 2037TIP3    H227671   1.824   1.886   0.550 -1.1826  3.2707  0.2463
 2038TIP3   OH227672   6.664   4.530   7.235 -0.0896  0.3440 -0.3792
 2038TIP3    H127673   6.733   4.582   7.276  0.6904 -1.7914  1.2075
 2038TIP3    H227674   6.604   4.508   7.307 -0.7170 -0.4199 -1.1158
 2039TIP3   OH227675   2.673   1.918   6.082  0.2056 -0.5133 -0.0498
 2039TIP3    H127676   2.661   2.006   6.046 -1.6050 -0.2572  1.0453
 2039TIP3    H227677   2.723   1.932   6.163  1.5969 -0.7392 -0.8454
 2040TIP3   OH227678   5.199   4.959   8.381  0.0269  0.3905  0.1663
 2040TIP3    H127679   5.236   4.936   8.466  0.5091 -0.3714 -0.2450
 2040TIP3    H227680   5.221   4.885   8.324 -1.2942  0.3613 -0.3318
 2041TIP3   OH227681   4.782   2.666   0.298 -0.4914  0.6667  0.6475
 2041TIP3    H127682   4.800   2.660   0.392 -0.8869 -0.5877  0.6592
 2041TIP3    H227683   4.748   2.754   0.286  0.3261  1.1312  1.5407
 2042TIP3   OH227684   5.167   4.614   6.241 -0.1425  0.3299  0.0415
 2042TIP3    H127685   5.118   4.697   6.244  0.2557  0.6256 -1.1287
 2042TIP3    H227686   5.121   4.557   6.303 -1.4213  0.8958 -0.3538
 2043TIP3   OH227687   5.357   0.134   6.050 -0.3996  0.2187 -0.8550
 2043TIP3    H127688   5.286   0.071   6.057 -0.0833 -0.4565 -3.0746
 2043TIP3    H227689   5.435   0.087   6.080 -0.4808  0.2215 -0.6328
 2044TIP3   OH227690   0.845   3.283   0.336  0.2921 -0.5014 -0.3750
 2044TIP3    H127691   0.821   3.366   0.376  0.4946 -0.2232 -0.8151
 2044TIP3    H227692   0.930   3.300   0.296  2.2235 -1.9374  2.7039
 2045TIP3   OH227693   3.107   6.386   0.294  0.4067  0.4766  0.1826
 2045TIP3    H127694   3.024   6.434   0.285  0.1962 -0.1167 -1.2853
 2045TIP3    H227695   3.088   6.318   0.359 -0.1829  0.5227  0.0685
 2046TIP3   OH227696   0.918   1.317   1.204 -0.2086 -0.2922 -0.2211
 2046TIP3    H127697   0.834   1.362   1.212 -0.6870 -1.5064  3.3982
 2046TIP3    H227698   0.983   1.386   1.223 -0.1560  0.7989 -3.6347
 2047TIP3   OH227699   4.048   2.022   6.448  0.6637 -0.4262 -0.0609
 2047TIP3    H127700   4.117   2.077   6.411 -0.7953  0.3035 -1.8025
 2047TIP3    H227701   3.993   1.999   6.374 -0.2999 -2.0269  1.0828
 2048TIP3   OH227702   4.403   3.137   6.686  0.4289  0.4927  0.3650
 2048TIP3    H127703   4.335   3.073   6.665 -0.0798  0.9466  0.6026
 2048TIP3    H227704   4.480   3.105   6.640  0.2422 -0.4045  0.6424
 2049TIP3   OH227705   2.003   6.541   1.206  0.2112  0.1533  0.3443
 2049TIP3    H127706   2.055   6.576   1.278 -0.5516  2.5991 -0.1786
 2049TIP3    H227707   2.010   6.608   1.137 -1.5457 -0.6285 -0.6681
 2050TIP3   OH227708   6.146   0.060   0.353 -0.5516  0.7002 -0.0096
 2050TIP3    H127709   6.120   0.000   0.283  0.3292 -1.0658  1.0856
 2050TIP3    H227710   6.114   0.018   0.433  0.7103  1.3273  0.8622
 2051TIP3   OH227711   5.153   5.028   1.935 -0.1636 -0.1273  0.0132
 2051TIP3    H127712   5.162   5.086   1.860  2.8440 -0.1573  0.2411
 2051TIP3    H227713   5.073   4.979   1.918 -1.5992  2.4633 -1.2762
 2052TIP3   OH227714   0.695   1.808   0.573  0.4488  0.4251 -0.4375
 2052TIP3    H127715   0.666   1.829   0.484 -0.9754  0.5121  0.0115
 2052TIP3    H227716   0.662   1.881   0.626 -0.2094 -0.4527  0.3981
 2053TIP3   OH227717   1.048   6.231   1.494  0.4140 -0.0274  0.1559
 2053TIP3    H127718   1.139   6.262   1.500  1.4489 -2.8037  0.4699
 2053TIP3    H227719   1.049   6.167   1.424 -0.7130 -1.8073  1.6700
 2054TIP3   OH227720   1.619   3.146   0.367 -0.0274  0.1395 -0.1411
 2054TIP3    H127721   1.642   3.135   0.460 -0.7388 -3.1556 -0.2304
 2054TIP3    H227722   1.699   3.181   0.327  1.7432 -2.1706  1.1190
 2055TIP3   OH227723   3.453   0.890   7.822 -0.2812  0.0865  0.0700
 2055TIP3    H127724   3.409   0.950   7.883 -0.6983  0.8515 -0.9341
 2055TIP3    H227725   3.429   0.803   7.852 -2.0145  0.4650 -0.0491
 2056TIP3   OH227726   5.804   2.620   6.584  0.4131 -0.7817  0.3417
 2056TIP3    H127727   5.847   2.640   6.501 -1.4276  0.4092 -0.3867
 2056TIP3    H227728   5.818   2.699   6.637  0.8383 -1.1966  0.8509
 2057TIP3   OH227729   6.560   4.249   2.495 -0.2862 -0.3827 -0.3470
 2057TIP3    H127730   6.527   4.260   2.584  0.7204  0.4843 -0.0586
 2057TIP3    H227731   6.486   4.271   2.439 -0.7394 -0.2979  0.2702
 2058TIP3   OH227732   1.843   5.435   0.893  0.3956 -0.4460  0.8048
 2058TIP3    H127733   1.919   5.383   0.867 -0.5097 -1.5080  0.1249
 2058TIP3    H227734   1.778   5.416   0.825 -1.4166 -1.7457  2.7661
 2059TIP3   OH227735   3.573   3.131   1.367 -0.2636  0.2345 -0.0699
 2059TIP3    H127736   3.612   3.211   1.331 -0.5342 -0.1214 -1.2000
 2059TIP3    H227737   3.553   3.153   1.458 -0.6188  1.5734 -0.4393
 2060TIP3   OH227738   6.560   5.324   8.570 -0.2772  0.1100 -0.1242
 2060TIP3    H127739   6.550   5.234   8.601  0.4799  0.2047  0.4034
 2060TIP3    H227740   6.646   5.326   8.529 -0.8485  0.2501 -1.3519
 2061TIP3   OH227741   1.732   2.809   1.089  0.1649 -0.4427 -0.3501
 2061TIP3    H127742   1.703   2.823   0.999  0.0737  0.5597 -0.1768
 2061TIP3    H227743   1.652   2.787   1.137  0.3456 -1.9211 -0.6722
 2062TIP3   OH227744   2.630   1.349   1.496 -0.0809  0.0932  0.0407
 2062TIP3    H127745   2.652   1.261   1.463  1.6771  0.3837  0.3381
 2062TIP3    H227746   2.536   1.358   1.479  0.2587 -0.6873 -2.7365
 2063TIP3   OH227747   1.707   5.769   6.820 -0.3949 -0.0735  0.0097
 2063TIP3    H127748   1.657   5.735   6.746 -1.0563 -0.7127  0.7405
 2063TIP3    H227749   1.646   5.770   6.893  0.7838 -1.4437  1.0823
 2064TIP3   OH227750   0.150   3.587   7.425  0.3307  0.3813 -0.5039
 2064TIP3    H127751   0.129   3.576   7.517 -1.8623  2.0874 -0.7180
 2064TIP3    H227752   0.243   3.610   7.424  0.4589  0.0468  1.2420
 2065TIP3   OH227753   3.616   2.680   0.404  0.3821 -0.0503  0.0909
 2065TIP3    H127754   3.644   2.594   0.374 -1.0219 -0.9713  1.3001
 2065TIP3    H227755   3.524   2.686   0.380  0.4761  1.1730 -0.0654
 2066TIP3   OH227756   0.680   4.263   0.012 -0.3450  0.2003  0.2726
 2066TIP3    H127757   0.620   4.193   0.037  0.6794 -1.7059 -2.2798
 2066TIP3    H227758   0.667   4.274  -0.082  2.1755  0.8056 -0.0740
 2067TIP3   OH227759   6.578   4.664   0.296 -0.0850  0.5383  0.2096
 2067TIP3    H127760   6.507   4.633   0.353 -0.3917 -1.1464 -1.0033
 2067TIP3    H227761   6.655   4.616   0.326  0.1039  0.8436  0.2163
 2068TIP3   OH227762   3.522   5.959   0.360  0.2119  0.2476  0.2796
 2068TIP3    H127763   3.527   6.051   0.335  0.5840  0.3134  0.5969
 2068TIP3    H227764   3.433   5.948   0.394  0.4221  0.6832  0.9898
 2069TIP3   OH227765   0.521   5.261   6.641  0.4781  0.0975  0.2284
 2069TIP3    H127766   0.494   5.257   6.733  0.3023 -1.8901  0.1202
 2069TIP3    H227767   0.520   5.171   6.611  2.3400  0.4920 -1.2291
 2070TIP3   OH227768   6.204   6.051   7.121  0.6146 -0.4977  0.1089
 2070TIP3    H127769   6.276   6.066   7.059  0.3823 -0.7676 -0.2352
 2070TIP3    H227770   6.203   6.129   7.176  2.8333 -1.5847  1.8353
 2071TIP3   OH227771   6.052   6.781   8.509  0.2666  0.2316 -0.1806
 2071TIP3    H127772   6.027   6.760   8.419 -1.7003 -1.0925  0.6046
 2071TIP3    H227773   5.977   6.830   8.543  0.5639 -0.1236  1.0152
 2072TIP3   OH227774   6.801   2.285   2.229 -0.3241 -0.5249  0.0351
 2072TIP3    H127775   6.790   2.372   2.269  1.7018 -0.4267  0.5224
 2072TIP3    H227776   6.787   2.299   2.136  2.1873  0.8849 -0.2249
 2073TIP3   OH227777   2.229   2.992   0.625 -0.3623 -0.0888  0.2728
 2073TIP3    H127778   2.165   3.047   0.578 -0.2753 -0.4581 -0.2855
 2073TIP3    H227779   2.312   3.040   0.616 -0.2476 -0.3996 -0.3824
 2074TIP3   OH227780   1.595   4.066   8.278 -0.0490 -0.3011 -0.6267
 2074TIP3    H127781   1.626   4.147   8.321 -0.2522 -1.1475  1.2281
 2074TIP3    H227782   1.670   4.037   8.227  0.8566 -0.1525  0.5544
 2075TIP3   OH227783   5.022   3.841   1.264 -0.1056 -0.5596 -0.4292
 2075TIP3    H127784   4.998   3.811   1.352  3.3814 -1.7316  0.3024
 2075TIP3    H227785   4.983   3.927   1.256  0.1295 -0.0517  2.6758
 2076TIP3   OH227786   5.179   0.318   7.305  0.0787 -0.0494 -0.0302
 2076TIP3    H127787   5.142   0.292   7.221  1.4027 -0.5265 -0.5046
 2076TIP3    H227788   5.200   0.235   7.349  1.5675  0.1595 -0.2713
 2077TIP3   OH227789   6.176   6.611   7.226  0.2080  0.0099  0.8798
 2077TIP3    H127790   6.265   6.594   7.257  0.7165  0.4288 -0.2932
 2077TIP3    H227791   6.159   6.541   7.163  0.0203  0.3907  0.5037
 2078TIP3   OH227792   2.173   4.625   8.085 -0.3631  0.1367 -0.6971
 2078TIP3    H127793   2.198   4.617   8.177  2.2288  1.4422 -1.1858
 2078TIP3    H227794   2.090   4.672   8.086  0.4565  1.6737  0.9705
 2079TIP3   OH227795   3.010   0.497   1.832 -0.0866 -0.1889  0.5800
 2079TIP3    H127796   3.068   0.436   1.877  0.4258 -0.0896  0.0678
 2079TIP3    H227797   2.952   0.530   1.900  0.5062 -0.2286  1.1105
 2080TIP3   OH227798   3.527   2.702   1.853 -0.2130 -0.3921  0.2278
 2080TIP3    H127799   3.603   2.741   1.896 -0.2236 -0.0209 -0.0872
 2080TIP3    H227800   3.536   2.727   1.761 -1.4874  0.8974  0.4322
 2081TIP3   OH227801   6.592   3.767   8.263 -0.0418 -0.2366 -0.4170
 2081TIP3    H127802   6.514   3.727   8.301 -0.6063  0.2998 -0.9931
 2081TIP3    H227803   6.568   3.859   8.248  0.5659 -0.1547 -0.9583
 2082TIP3   OH227804   1.866   2.988   6.236  0.1365 -0.5578  0.0614
 2082TIP3    H127805   1.924   2.986   6.160  0.5023 -0.9353  0.3442
 2082TIP3    H227806   1.862   2.897   6.266  0.0286 -0.4065  0.5180
 2083TIP3   OH227807   1.561   4.162   7.205 -0.2811  0.5313 -0.3229
 2083TIP3    H127808   1.487   4.176   7.264 -0.7032  1.1777 -0.9945
 2083TIP3    H227809   1.525   4.173   7.117  0.3580 -0.3385 -0.7085
 2084TIP3   OH227810   4.006   5.974   6.836 -0.5131  0.6955 -0.2095
 2084TIP3    H127811   3.944   6.047   6.834 -2.3642 -0.8267 -1.1458
 2084TIP3    H227812   4.038   5.969   6.746  0.7837  1.2668  0.1978
 2085TIP3   OH227813   1.064   5.261   6.879 -0.1214  0.0660 -0.5829
 2085TIP3    H127814   0.985   5.230   6.924  0.6124  1.4070  1.8609
 2085TIP3    H227815   1.050   5.355   6.869  1.4023  0.4694  0.6132
 2086TIP3   OH227816   4.382   1.905   7.532 -0.4736 -0.2649  0.2316
 2086TIP3    H127817   4.443   1.896   7.605  0.4267 -0.3986 -0.5082
 2086TIP3    H227818   4.438   1.924   7.456 -1.0865 -2.8590 -0.9770
 2087TIP3   OH227819   2.525   6.066   0.155  0.0611 -0.2910 -0.4267
 2087TIP3    H127820   2.536   6.102   0.067  2.2723 -0.8485 -0.4392
 2087TIP3    H227821   2.497   5.976   0.141  1.6428 -0.7772 -0.6425
 2088TIP3   OH227822   4.822   0.702   0.779  0.1631  0.5615  0.0266
 2088TIP3    H127823   4.829   0.678   0.872  0.3189 -0.5983 -0.2667
 2088TIP3    H227824   4.728   0.700   0.761  0.1045  1.1521  0.2422
 2089TIP3   OH227825   4.587   2.750   0.959 -0.3956  0.1037 -0.2627
 2089TIP3    H127826   4.508   2.782   0.915 -0.6729 -0.1427  0.0520
 2089TIP3    H227827   4.559   2.669   1.003  0.8338 -2.0824 -3.1298
 2090TIP3   OH227828   5.715   3.433   2.753  0.1014  0.4929 -0.2625
 2090TIP3    H127829   5.700   3.526   2.740  1.4506  1.1180  2.0855
 2090TIP3    H227830   5.635   3.391   2.721 -0.7797  2.4749 -0.8359
 2091TIP3   OH227831   2.780   2.636   6.480  0.1771  0.3456 -0.6191
 2091TIP3    H127832   2.838   2.694   6.430 -0.8593  1.5657 -0.4585
 2091TIP3    H227833   2.740   2.579   6.414 -0.5831  1.4165 -1.1102
 2092TIP3   OH227834   0.188   3.924   7.955  0.0129 -0.6990  0.3561
 2092TIP3    H127835   0.187   3.937   7.861 -2.0881  0.3634  0.4530
 2092TIP3    H227836   0.207   3.831   7.967 -2.1979 -1.4531 -1.2759
 2093TIP3   OH227837   2.475   2.092   8.717  0.7477  0.2246 -0.4883
 2093TIP3    H127838   2.502   2.103   8.808 -0.0577  0.4653 -0.2709
 2093TIP3    H227839   2.538   2.145   8.667  0.5033  1.0371  0.0379
 2094TIP3   OH227840   1.405   0.286   0.074  0.0523 -0.1676  0.6891
 2094TIP3    H127841   1.433   0.371   0.108  0.1706 -1.1178  3.1554
 2094TIP3    H227842   1.478   0.227   0.094 -0.8672 -1.2525  0.9263
 2095TIP3   OH227843   5.519   0.349   0.199  0.0860 -0.4908  0.4173
 2095TIP3    H127844   5.565   0.406   0.138  0.1195 -1.6118 -0.6348
 2095TIP3    H227845   5.463   0.408   0.249  0.9908  0.6033  0.1746
 2096TIP3   OH227846   5.966   1.793   6.062  0.0490 -0.1719  0.0197
 2096TIP3    H127847   5.961   1.787   6.158 -1.8362 -0.4139 -0.0668
 2096TIP3    H227848   5.992   1.706   6.034 -0.2676 -0.3444  0.2582
 2097TIP3   OH227849   4.656   4.900   1.115  0.1892  0.1258  0.1544
 2097TIP3    H127850   4.566   4.922   1.092  0.5248  2.1420  0.5527
 2097TIP3    H227851   4.693   4.862   1.036 -0.7684  0.0338 -0.2636
 2098TIP3   OH227852   2.285   6.779   7.412 -0.4529  0.2709  0.1987
 2098TIP3    H127853   2.287   6.873   7.396 -1.3283  0.7519  2.5454
 2098TIP3    H227854   2.377   6.753   7.416 -0.1974  0.7305 -1.7128
 2099TIP3   OH227855   4.799   2.254   8.480  0.0428 -0.1761  0.5680
 2099TIP3    H127856   4.766   2.168   8.507 -0.6182  0.1720  0.8875
 2099TIP3    H227857   4.860   2.278   8.549  1.4272 -1.0700 -0.3033
 2100TIP3   OH227858   4.938   1.237   1.387 -0.2751  0.5821 -0.2018
 2100TIP3    H127859   4.991   1.218   1.465 -1.3668 -0.2105  0.3728
 2100TIP3    H227860   4.999   1.279   1.327  0.9650 -0.1132  0.5169
 2101TIP3   OH227861   3.600   0.144   1.283  0.1938  0.2522  0.1612
 2101TIP3    H127862   3.656   0.197   1.226  0.4804 -0.1917  0.0199
 2101TIP3    H227863   3.647   0.061   1.292  0.2393  0.3842  1.2011
 2102TIP3   OH227864   5.468   1.004   1.388 -0.4200  0.1084  0.3729
 2102TIP3    H127865   5.446   1.092   1.359 -0.3482 -0.0343 -0.1202
 2102TIP3    H227866   5.422   0.946   1.328  1.5111 -0.1940 -0.9034
 2103TIP3   OH227867   2.078   3.072   7.702  0.0090 -0.7397  0.4416
 2103TIP3    H127868   2.131   3.073   7.622  1.6747 -0.1458  1.4953
 2103TIP3    H227869   2.022   3.150   7.694  0.4671 -0.4453  0.0516
 2104TIP3   OH227870   0.760   2.104   8.223  0.6724  0.1108 -0.5867
 2104TIP3    H127871   0.780   2.092   8.315  1.1136 -0.7078 -0.7818
 2104TIP3    H227872   0.727   2.019   8.194  0.8796  0.2533 -1.2614
 2105TIP3   OH227873   2.597   6.477   7.875 -0.1848  0.2248  0.1049
 2105TIP3    H127874   2.600   6.386   7.845 -0.6769  0.2681 -0.0842
 2105TIP3    H227875   2.525   6.516   7.826 -0.1305  0.6562  0.3629
 2106TIP3   OH227876   1.407   4.610   8.128  0.2704 -0.1987  0.3184
 2106TIP3    H127877   1.382   4.633   8.218  1.8473 -0.9008  0.9665
 2106TIP3    H227878   1.323   4.598   8.083 -0.5595  0.9802  1.4584
 2107TIP3   OH227879   1.295   6.170   1.604  0.2223 -0.0083  0.2101
 2107TIP3    H127880   1.308   6.120   1.523  0.9422  1.2202 -0.4640
 2107TIP3    H227881   1.322   6.110   1.673  0.5714 -0.7337 -0.5314
 2108TIP3   OH227882   5.960   2.386   0.399 -0.0755  0.4905  0.6764
 2108TIP3    H127883   5.875   2.404   0.358 -0.7083 -0.5164  1.5073
 2108TIP3    H227884   5.961   2.291   0.412  1.0614  0.5296  0.9492
 2109TIP3   OH227885   5.719   2.558   7.474 -0.6072 -0.9023  0.0563
 2109TIP3    H127886   5.667   2.593   7.546  2.4989  1.9280  1.1902
 2109TIP3    H227887   5.699   2.615   7.400  0.4344 -0.1334  0.3525
 2110TIP3   OH227888   0.878   1.620   7.445 -0.7443 -0.0573  0.4013
 2110TIP3    H127889   0.861   1.711   7.470  1.0670  0.3414  0.3225
 2110TIP3    H227890   0.920   1.582   7.522 -1.3898 -0.8203  0.3920
 2111TIP3   OH227891   2.545   5.092   0.591  0.0640 -0.7126 -0.5278
 2111TIP3    H127892   2.589   5.096   0.676  0.8313  1.9938 -0.9369
 2111TIP3    H227893   2.489   5.170   0.590  0.0524 -0.6989 -2.4858
 2112TIP3   OH227894   6.291   0.992   7.469 -0.1063  0.0794  0.0293
 2112TIP3    H127895   6.202   1.008   7.501  0.2606  0.9268  0.6714
 2112TIP3    H227896   6.289   1.022   7.378 -0.9151 -1.5020 -0.5200
 2113TIP3   OH227897   3.357   1.266   1.482  0.2485 -0.6814  0.0396
 2113TIP3    H127898   3.376   1.172   1.485  2.0997 -0.3323  0.9260
 2113TIP3    H227899   3.360   1.294   1.573  0.1334  0.3070 -0.2453
 2114TIP3   OH227900   4.391   4.927   1.004  0.0896 -0.7229 -0.0324
 2114TIP3    H127901   4.360   4.852   1.054  0.3018 -0.6694  0.1828
 2114TIP3    H227902   4.326   4.996   1.021  1.9029  0.4458  3.0344
 2115TIP3   OH227903   3.348   4.641   8.187  0.1644  0.2398 -0.2549
 2115TIP3    H127904   3.403   4.567   8.213  1.6103  0.7725 -1.6306
 2115TIP3    H227905   3.405   4.717   8.192 -0.4817  0.8436 -1.5010
 2116TIP3   OH227906   1.127   3.674   6.644 -0.5639 -0.6029 -0.0783
 2116TIP3    H127907   1.220   3.694   6.639 -0.4533 -0.8230  0.8672
 2116TIP3    H227908   1.124   3.578   6.651 -0.8982 -0.6474 -0.7702
 2117TIP3   OH227909   3.075   0.061   1.293 -0.3693 -0.1539  0.4097
 2117TIP3    H127910   3.123  -0.022   1.289 -3.1235 -1.9284  1.3605
 2117TIP3    H227911   3.029   0.065   1.209 -1.1667 -0.2428  0.8304
 2118TIP3   OH227912   4.298   1.094   6.311  0.5297 -0.1112 -0.7915
 2118TIP3    H127913   4.366   1.160   6.320  2.3115 -2.1151  2.1056
 2118TIP3    H227914   4.217   1.144   6.298  1.8208  2.6010  0.7971
 2119TIP3   OH227915   5.471   0.180   1.035 -0.0607  0.1172  0.1541
 2119TIP3    H127916   5.493   0.271   1.013 -1.4602  0.5265  0.3150
 2119TIP3    H227917   5.392   0.162   0.983  0.0578 -0.9248  0.3197
 2120TIP3   OH227918   3.405   6.116   1.907  0.3843  0.2700  0.2306
 2120TIP3    H127919   3.353   6.045   1.944  2.5905 -2.9504 -2.2545
 2120TIP3    H227920   3.366   6.133   1.822  0.3139  1.6507  0.5062
 2121TIP3   OH227921   4.652   2.196   1.212 -0.4938 -0.0747  0.2436
 2121TIP3    H127922   4.570   2.195   1.164 -0.8686  0.4036  0.8523
 2121TIP3    H227923   4.637   2.258   1.284 -1.0063 -2.9248  2.8164
 2122TIP3   OH227924   4.346   2.429   0.775 -0.3469 -0.2267 -0.3047
 2122TIP3    H127925   4.276   2.493   0.764 -0.7201 -0.5531  0.0995
 2122TIP3    H227926   4.300   2.345   0.785  0.1023 -0.4541 -0.0972
 2123TIP3   OH227927   1.055   2.546   6.968  0.8371 -0.7949  0.5241
 2123TIP3    H127928   1.098   2.472   7.011  0.3707 -1.1333  0.4220
 2123TIP3    H227929   1.104   2.623   6.996  0.9718 -1.0856  1.0961
 2124TIP3   OH227930   4.411   3.410   0.425 -0.0318 -0.1546 -0.2313
 2124TIP3    H127931   4.392   3.317   0.428  0.1918 -0.1666  0.9423
 2124TIP3    H227932   4.329   3.453   0.449 -0.1545 -0.0402 -0.8385
 2125TIP3   OH227933   0.592   0.271   1.618  0.1242  0.2667 -0.4519
 2125TIP3    H127934   0.577   0.182   1.652  1.8840 -0.3980 -1.3020
 2125TIP3    H227935   0.625   0.257   1.529  0.0365  1.8083 -0.7420
 2126TIP3   OH227936   6.144   2.519   8.126  0.0143  0.3962 -0.1593
 2126TIP3    H127937   6.198   2.449   8.088 -1.4083 -1.2977  0.7927
 2126TIP3    H227938   6.073   2.531   8.063 -1.8530 -1.7883  1.3852
 2127TIP3   OH227939   6.718   5.474   7.284 -0.2897 -0.1044  0.0042
 2127TIP3    H127940   6.662   5.551   7.276  1.5470  1.3040 -0.0267
 2127TIP3    H227941   6.767   5.488   7.365  0.9776 -0.5896 -0.6421
 2128TIP3   OH227942   4.243   5.196   1.426 -0.4209 -0.1606  0.1706
 2128TIP3    H127943   4.256   5.282   1.464 -0.9347 -0.4783  1.0893
 2128TIP3    H227944   4.326   5.151   1.437 -0.5548 -0.2357  0.8820
 2129TIP3   OH227945   4.983   2.844   6.977 -0.0078 -0.3351 -0.6899
 2129TIP3    H127946   4.911   2.868   6.918 -0.7594 -0.9404 -0.0468
 2129TIP3    H227947   4.944   2.847   7.064  1.2562  1.1805 -0.1283
 2130TIP3   OH227948   3.700   0.063   0.320  0.1597 -0.1562 -0.5374
 2130TIP3    H127949   3.719   0.155   0.339 -2.3273  0.1820  0.6973
 2130TIP3    H227950   3.746   0.014   0.388 -0.4199  0.3741  0.2605
 2131TIP3   OH227951   2.216   5.844   6.428 -0.4389 -0.0507  0.6371
 2131TIP3    H127952   2.160   5.919   6.452 -1.0179 -0.5813  0.9756
 2131TIP3    H227953   2.165   5.796   6.363  1.1276  1.3808 -1.7712
 2132TIP3   OH227954   4.595   2.314   2.312  0.4931 -0.2190 -0.2692
 2132TIP3    H127955   4.655   2.259   2.362 -0.7409 -0.8192  0.6037
 2132TIP3    H227956   4.518   2.324   2.369  0.0874  1.2076 -1.0061
 2133TIP3   OH227957   2.645   4.790   1.583 -0.1680 -0.0311 -0.5922
 2133TIP3    H127958   2.682   4.738   1.512 -1.8834 -1.6392 -0.3764
 2133TIP3    H227959   2.551   4.790   1.567 -0.4753  0.5840  1.0158
 2134TIP3   OH227960   2.274   3.281   6.604 -0.2121  0.1000 -0.8406
 2134TIP3    H127961   2.296   3.358   6.552  0.7004  0.8543  0.6095
 2134TIP3    H227962   2.281   3.208   6.542  0.1384  1.0313 -1.9362
 2135TIP3   OH227963   0.960   1.649   1.412  0.4051  0.5750 -0.2657
 2135TIP3    H127964   0.921   1.660   1.325  1.9249  1.0909 -0.9166
 2135TIP3    H227965   1.038   1.595   1.397  1.5163  1.8966  0.5123
 2136TIP3   OH227966   5.375   3.226   2.033  0.0471  0.0442 -0.1402
 2136TIP3    H127967   5.382   3.184   1.947 -0.7149 -0.5421  0.0807
 2136TIP3    H227968   5.404   3.159   2.095 -0.0645  0.2316  0.1147
 2137TIP3   OH227969   0.395   1.842   1.536  0.0804 -0.3290  0.0281
 2137TIP3    H127970   0.302   1.863   1.533  0.4994  1.8064  0.1943
 2137TIP3    H227971   0.399   1.752   1.567 -1.9383 -0.7095 -0.6915
 2138TIP3   OH227972   4.799   5.163   7.475 -0.3463  0.0929 -0.4747
 2138TIP3    H127973   4.893   5.145   7.482 -0.5357 -0.7489 -0.0258
 2138TIP3    H227974   4.762   5.085   7.435 -0.5620  1.3019 -2.8226
 2139TIP3   OH227975   6.755   5.374   0.946 -0.2197  0.8852  0.3370
 2139TIP3    H127976   6.768   5.437   1.017  0.3142  0.9388  0.2001
 2139TIP3    H227977   6.842   5.338   0.931 -0.3981  0.6144 -0.0522
 2140TIP3   OH227978   1.875   0.166   1.652 -0.3458  0.4580 -0.0366
 2140TIP3    H127979   1.786   0.141   1.627 -0.5848 -0.5753  1.6574
 2140TIP3    H227980   1.922   0.175   1.569 -1.5297 -0.9777 -0.9151
 2141TIP3   OH227981   1.073   5.823   7.923 -0.2055 -1.0152 -0.2542
 2141TIP3    H127982   0.980   5.819   7.903 -0.6023 -0.7830  1.3993
 2141TIP3    H227983   1.116   5.821   7.838 -1.7046 -1.4155 -1.0308
 2142TIP3   OH227984   3.015   0.758   0.301  0.3319  0.1071 -0.5855
 2142TIP3    H127985   3.032   0.667   0.327 -0.3180 -0.0745 -0.7762
 2142TIP3    H227986   2.956   0.750   0.226  0.0375  0.6988 -0.4196
 2143TIP3   OH227987   5.338   2.089   7.215 -0.0543 -0.0448  0.4790
 2143TIP3    H127988   5.301   2.162   7.166  1.5655  0.6573  0.2149
 2143TIP3    H227989   5.349   2.020   7.150 -0.1791  0.0223  0.3861
 2144TIP3   OH227990   6.236   3.637   0.550 -0.3720  0.5042  0.7693
 2144TIP3    H127991   6.322   3.622   0.510 -1.2208 -2.2622 -0.2221
 2144TIP3    H227992   6.179   3.663   0.477 -0.7320  0.7815  1.1439
 2145TIP3   OH227993   5.738   1.918   6.477  0.0255  0.1133  0.1530
 2145TIP3    H127994   5.703   1.927   6.388  0.2580  1.0769  0.1461
 2145TIP3    H227995   5.670   1.958   6.533  0.7208  1.2686  0.2136
 2146TIP3   OH227996   0.875   0.189   1.854  0.4482 -0.0531 -0.0125
 2146TIP3    H127997   0.796   0.220   1.898  0.1884 -1.1333  0.3037
 2146TIP3    H227998   0.943   0.193   1.921  0.2862 -0.6941  0.1972
 2147TIP3   OH227999   1.605   2.186   8.392  0.1900  0.1140 -0.3875
 2147TIP3    H128000   1.571   2.276   8.387 -1.2790 -0.4320 -0.8010
 2147TIP3    H228001   1.581   2.147   8.308 -0.0504 -0.9429  0.1516
 2148TIP3   OH228002   2.688   3.081   1.029 -0.1828  0.5105 -0.1013
 2148TIP3    H128003   2.763   3.044   1.075  1.0008  3.0969  0.2312
 2148TIP3    H228004   2.626   3.008   1.021  1.0562 -0.9548  2.3851
 2149TIP3   OH228005   2.949   4.919   8.501  0.7843 -0.3923  0.7643
 2149TIP3    H128006   3.022   4.908   8.561  2.3540  0.0582 -0.9777
 2149TIP3    H228007   2.938   4.833   8.460  0.5973 -0.3515  0.7239
 2150TIP3   OH228008   4.280   5.278   0.652 -0.0573 -0.2523 -0.5242
 2150TIP3    H128009   4.282   5.356   0.596 -1.1208  0.4118  0.3235
 2150TIP3    H228010   4.292   5.205   0.591 -0.5042  0.4960 -1.5423
 2151TIP3   OH228011   4.339   2.886   1.624  0.1317 -0.4779  0.0959
 2151TIP3    H128012   4.383   2.864   1.706  0.8950 -0.5538 -0.3253
 2151TIP3    H228013   4.372   2.973   1.602 -1.0347  0.0816  0.5136
 2152TIP3   OH228014   5.578   2.572   1.927 -0.2988 -0.2852 -0.3272
 2152TIP3    H128015   5.664   2.566   1.969 -0.0909  0.1616 -0.6879
 2152TIP3    H228016   5.578   2.502   1.862 -0.1543 -0.1987 -0.4204
 2153TIP3   OH228017   6.322   3.719   8.257 -0.0073 -0.6596 -0.0395
 2153TIP3    H128018   6.328   3.630   8.222 -1.8255 -0.8932  0.1506
 2153TIP3    H228019   6.234   3.724   8.294 -0.7074  1.8539 -1.8051
 2154TIP3   OH228020   3.005   0.771   1.711  0.3860 -0.1758 -0.1873
 2154TIP3    H128021   3.015   0.683   1.747  0.6481  0.2818  0.9218
 2154TIP3    H228022   2.923   0.803   1.749  1.4864  0.9233  1.3919
 2155TIP3   OH228023   1.374   2.192   0.449 -0.6416 -0.4973  0.0108
 2155TIP3    H128024   1.435   2.132   0.492  0.0347  0.8802  1.0096
 2155TIP3    H228025   1.421   2.222   0.371 -1.0101 -1.2893 -0.5316
 2156TIP3   OH228026   5.600   0.610   7.759  0.0618 -0.6270 -0.2527
 2156TIP3    H128027   5.647   0.581   7.681 -0.1862 -0.1649 -0.5786
 2156TIP3    H228028   5.531   0.668   7.725 -1.3705 -2.0599  0.1191
 2157TIP3   OH228029   3.550   4.231   7.531 -0.1807 -0.4815  0.2617
 2157TIP3    H128030   3.456   4.211   7.531 -0.8627  2.2993  1.5616
 2157TIP3    H228031   3.554   4.326   7.521  2.5943 -0.6506 -1.1901
 2158TIP3   OH228032   1.329   2.976   0.449  0.1131  0.6499 -0.1273
 2158TIP3    H128033   1.392   3.044   0.474  1.8325 -0.6359 -0.6967
 2158TIP3    H228034   1.362   2.897   0.493 -1.4459  0.0405 -0.0107
 2159TIP3   OH228035   6.244   3.538   5.966 -0.3135  0.0211  0.0465
 2159TIP3    H128036   6.282   3.454   5.991 -2.3015 -0.5960  1.2336
 2159TIP3    H228037   6.205   3.521   5.880  1.2980  0.4227 -0.7889
 2160TIP3   OH228038   4.567   1.678   6.536 -0.8959  0.3649  0.1297
 2160TIP3    H128039   4.517   1.631   6.469  0.9596 -1.5936  0.0026
 2160TIP3    H228040   4.568   1.769   6.506 -0.4023 -0.3853 -2.3563
 2161TIP3   OH228041   3.307   5.562   8.581 -0.7893  0.0747 -0.1657
 2161TIP3    H128042   3.359   5.643   8.578  0.3915 -0.5942  1.1464
 2161TIP3    H228043   3.246   5.571   8.508  0.5546  1.3211 -1.2237
 2162TIP3   OH228044   3.504   6.501   7.617  0.0060 -0.7929  0.2371
 2162TIP3    H128045   3.429   6.524   7.561 -0.2148  0.4004  0.9793
 2162TIP3    H228046   3.479   6.531   7.704  0.8483 -1.5164  0.7467
 2163TIP3   OH228047   1.343   2.591   1.180  0.1020 -0.1788 -0.4055
 2163TIP3    H128048   1.297   2.625   1.104  1.5745  0.4738 -1.0652
 2163TIP3    H228049   1.338   2.496   1.173 -1.5870 -0.1306 -0.1347
 2164TIP3   OH228050   1.574   1.959   0.277 -0.1501 -0.1758  0.6919
 2164TIP3    H128051   1.516   1.946   0.202 -0.0286  1.1858  0.3340
 2164TIP3    H228052   1.515   1.973   0.351 -0.2700 -0.6460  0.6885
 2165TIP3   OH228053   6.724   0.035   8.560 -0.2220 -0.0191 -0.3093
 2165TIP3    H128054   6.727   0.036   8.464  1.9071  2.9601 -0.3574
 2165TIP3    H228055   6.805  -0.009   8.586 -0.9265 -1.0665  0.1690
 2166TIP3   OH228056   4.963   0.094   1.449  0.7297 -0.5135  0.0610
 2166TIP3    H128057   5.031   0.160   1.438 -0.2653  0.3835 -0.9846
 2166TIP3    H228058   4.881   0.143   1.441 -0.0773 -1.4473  1.9127
 2167TIP3   OH228059   4.965   4.430   1.200  0.2659  0.4344 -0.0299
 2167TIP3    H128060   4.881   4.459   1.236 -0.0067  1.1577 -1.1671
 2167TIP3    H228061   4.941   4.381   1.121  0.8952  0.1377 -0.0385
 2168TIP3   OH228062   3.956   3.016   1.118  0.6224  0.5668 -0.0785
 2168TIP3    H128063   3.954   3.105   1.082 -0.1777  0.9624  0.9026
 2168TIP3    H228064   4.029   3.018   1.181  1.4249  0.1421 -0.9678
 2169TIP3   OH228065   4.760   2.197   1.489  0.0145 -0.0429  0.0586
 2169TIP3    H128066   4.808   2.244   1.421 -1.6121  0.7120 -0.6266
 2169TIP3    H228067   4.673   2.238   1.489 -0.9026 -1.8765  0.6696
 2170TIP3   OH228068   1.192   2.099   0.781  0.4362  0.0414 -0.3153
 2170TIP3    H128069   1.117   2.100   0.721  0.1887  1.5684 -0.0089
 2170TIP3    H228070   1.179   2.019   0.833 -1.4154  0.6624  0.2595
 2171TIP3   OH228071   3.679   3.608   0.902  0.1971  0.0408  0.2008
 2171TIP3    H128072   3.626   3.533   0.872 -0.3696  1.3629 -2.3958
 2171TIP3    H228073   3.623   3.684   0.888  2.1257  1.3241 -0.9474
 2172TIP3   OH228074   4.770   0.322   0.823  0.1861  1.0740 -0.2452
 2172TIP3    H128075   4.780   0.239   0.871 -0.9702  1.5614  0.9092
 2172TIP3    H228076   4.763   0.388   0.891  0.5962  2.0700 -1.1539
 2173TIP3   OH228077   0.811   3.802   6.039 -0.2966  0.1228  0.5134
 2173TIP3    H128078   0.875   3.767   6.101  0.8613  1.8917  0.4105
 2173TIP3    H228079   0.864   3.842   5.970 -1.4972  1.4505  0.3050
 2174TIP3   OH228080   2.347   0.074   2.017  0.4016  0.4097  0.2532
 2174TIP3    H128081   2.385  -0.008   2.050  0.9611  0.2346 -0.7727
 2174TIP3    H228082   2.254   0.054   2.004  0.0685  0.6200  2.0947
 2175TIP3   OH228083   6.238   5.498   0.418  0.2696  0.1408 -0.5965
 2175TIP3    H128084   6.197   5.514   0.333  1.0218  0.7071 -0.8588
 2175TIP3    H228085   6.176   5.534   0.482  0.4705  1.2296 -1.0000
 2176TIP3   OH228086   1.720   6.536   8.398 -0.1049  0.0152  0.1721
 2176TIP3    H128087   1.712   6.600   8.327  0.9612 -0.0622 -0.0369
 2176TIP3    H228088   1.712   6.451   8.354 -0.4745 -0.0177  0.3001
 2177TIP3   OH228089   6.126   2.460   1.220 -0.2988 -0.1951  0.1451
 2177TIP3    H128090   6.086   2.396   1.161  1.4864 -2.9455  1.6841
 2177TIP3    H228091   6.091   2.439   1.307 -0.3743  1.5860  0.5863
 2178TIP3   OH228092   5.266   6.756   7.785 -0.1118  0.4033  0.0834
 2178TIP3    H128093   5.246   6.829   7.843 -0.2348  0.8022 -0.4524
 2178TIP3    H228094   5.274   6.680   7.843 -1.6914  0.5101  0.4731
 2179TIP3   OH228095   6.696   6.301   6.328  0.0431  0.1374  0.0668
 2179TIP3    H128096   6.752   6.235   6.370 -0.7244 -0.7172 -0.2070
 2179TIP3    H228097   6.658   6.351   6.400  0.3000 -0.0012  0.2987
 2180TIP3   OH228098   5.077   1.692   0.697 -0.1399 -0.0337  0.0302
 2180TIP3    H128099   5.134   1.667   0.624 -1.0637 -1.0791 -0.3590
 2180TIP3    H228100   5.110   1.642   0.772 -0.8628 -1.0753 -0.3256
 2181TIP3   OH228101   1.627   2.236   6.300  0.2851 -0.6178 -0.2014
 2181TIP3    H128102   1.578   2.251   6.219  0.3301 -2.9236 -0.7414
 2181TIP3    H228103   1.649   2.142   6.298  2.1278 -0.3034  1.4723
 2182TIP3   OH228104   4.833   1.492   1.148 -0.1566 -0.2046 -0.0154
 2182TIP3    H128105   4.866   1.483   1.238  3.8751 -0.6204 -1.3601
 2182TIP3    H228106   4.869   1.417   1.101 -0.7204  0.9010 -2.3401
 2183TIP3   OH228107   3.604   6.471   0.856 -0.0128 -0.4916 -0.1812
 2183TIP3    H128108   3.510   6.482   0.842 -0.1705 -1.3661  0.1148
 2183TIP3    H228109   3.634   6.422   0.778 -0.2613 -2.3187  0.8098
 2184TIP3   OH228110   3.611   5.453   1.419  0.2281 -0.4548 -0.1987
 2184TIP3    H128111   3.666   5.531   1.428 -0.6020  0.0243  0.9204
 2184TIP3    H228112   3.666   5.391   1.370  1.9227 -0.1291  1.1673
 2185TIP3   OH228113   0.920   5.628   8.494 -0.4008 -0.5175 -0.2600
 2185TIP3    H128114   0.914   5.723   8.482 -1.6310 -0.6724 -1.0390
 2185TIP3    H228115   0.960   5.596   8.413  2.6892 -0.4563  1.0840
 2186TIP3   OH228116   5.337   5.710   7.933  0.0311 -0.0856  0.1103
 2186TIP3    H128117   5.340   5.624   7.977 -0.9464 -0.0640  0.2429
 2186TIP3    H228118   5.300   5.769   7.998  0.0835  0.2970 -0.2026
 2187TIP3   OH228119   3.575   3.233   1.623 -0.1102 -0.1117  0.1871
 2187TIP3    H128120   3.668   3.241   1.644 -0.3060  0.9277  0.7386
 2187TIP3    H228121   3.542   3.166   1.683  0.2035 -0.2123  0.2468
 2188TIP3   OH228122   0.176   5.774   8.285  0.2045  0.4174  0.2463
 2188TIP3    H128123   0.258   5.824   8.287 -0.0480  0.8200  1.4710
 2188TIP3    H228124   0.167   5.739   8.374 -0.7210 -0.0100 -0.0018
 2189TIP3   OH228125   4.708   2.619   8.154 -0.0412 -0.2013  0.2590
 2189TIP3    H128126   4.668   2.540   8.190 -1.1320  0.7270  1.1280
 2189TIP3    H228127   4.636   2.682   8.147  0.9388  0.9406  0.2050
 2190TIP3   OH228128   6.245   6.674   8.706  0.0870  0.1157 -0.2457
 2190TIP3    H128129   6.201   6.707   8.785 -0.9536 -1.4961 -0.0961
 2190TIP3    H228130   6.191   6.707   8.634  1.3504  2.0540 -0.3667
 2191TIP3   OH228131   5.454   5.052   1.168 -0.1165  0.5025 -0.0716
 2191TIP3    H128132   5.422   5.009   1.089  2.0513 -3.2372  0.8507
 2191TIP3    H228133   5.401   5.014   1.238 -1.8025  3.5385  0.5287
 2192TIP3   OH228134   5.035   2.004   7.384 -0.1820  0.0509 -0.2129
 2192TIP3    H128135   5.108   2.055   7.420  1.3703 -1.4339 -1.1435
 2192TIP3    H228136   5.026   2.036   7.294 -0.4013 -0.0671 -0.2327
 2193TIP3   OH228137   6.357   4.190   2.050  0.3364 -0.1160  0.2055
 2193TIP3    H128138   6.339   4.224   2.138 -0.8368 -1.3680  0.4907
 2193TIP3    H228139   6.450   4.167   2.051  0.9150  2.0393  0.3326
 2194TIP3   OH228140   0.420   0.266   6.937 -0.0292  0.2626 -0.3218
 2194TIP3    H128141   0.496   0.301   6.983  0.4066 -2.5594  1.3276
 2194TIP3    H228142   0.346   0.286   6.995 -0.0084 -0.1563 -0.1492
 2195TIP3   OH228143   4.450   2.422   8.002 -0.1043  0.3277 -0.3430
 2195TIP3    H128144   4.475   2.399   8.091  0.8476  1.7905 -0.2052
 2195TIP3    H228145   4.505   2.367   7.946  0.5342  0.6313 -0.0227
 2196TIP3   OH228146   0.866   2.925   8.074 -0.0789 -0.2420  0.1873
 2196TIP3    H128147   0.940   2.941   8.015  0.3991 -1.5510  0.4069
 2196TIP3    H228148   0.842   2.834   8.058 -0.2670 -0.4696  1.6643
 2197TIP3   OH228149   0.083   2.783   0.781  0.1632 -0.0681 -0.3340
 2197TIP3    H128150   0.179   2.774   0.784  0.1107 -1.2561 -1.3509
 2197TIP3    H228151   0.053   2.750   0.865  0.6263 -0.1541 -0.2005
 2198TIP3   OH228152   1.336   6.320   0.740 -0.0687 -0.2926 -0.7923
 2198TIP3    H128153   1.382   6.304   0.657  0.9206 -2.4779  0.1055
 2198TIP3    H228154   1.404   6.356   0.798 -0.2446 -0.6997 -0.3337
 2199TIP3   OH228155   4.812   4.576   0.882  0.3542  0.8579 -0.0287
 2199TIP3    H128156   4.753   4.510   0.846  0.0203  1.0541  0.1531
 2199TIP3    H228157   4.878   4.525   0.929  1.9580  0.4667 -2.5064
 2200TIP3   OH228158   4.796   1.366   0.232  0.1485  0.1549  0.3096
 2200TIP3    H128159   4.768   1.458   0.234  0.3872  0.3607 -2.3899
 2200TIP3    H228160   4.714   1.317   0.235 -0.1479  0.5566 -0.7059
 2201TIP3   OH228161   5.213   6.350   6.273  0.3790 -0.4962  0.0754
 2201TIP3    H128162   5.140   6.364   6.213  0.6769 -0.8351 -0.3706
 2201TIP3    H228163   5.201   6.261   6.306 -0.7954  0.2891  1.9258
 2202TIP3   OH228164   1.433   0.228   0.447 -0.2656  0.8391  0.3496
 2202TIP3    H128165   1.418   0.169   0.521 -2.2566 -1.0284 -1.3785
 2202TIP3    H228166   1.362   0.291   0.452 -0.3051  0.8121  0.1529
 2203TIP3   OH228167   6.003   0.062   7.772 -0.0969 -0.5857 -0.5480
 2203TIP3    H128168   6.010  -0.007   7.838  1.3215 -0.7541 -0.8528
 2203TIP3    H228169   6.042   0.139   7.814  0.9258 -0.7235 -1.2144
 2204TIP3   OH228170   1.539   5.822   1.315 -0.1101 -0.5616  0.5746
 2204TIP3    H128171   1.605   5.867   1.263 -0.8612  0.0084  0.0974
 2204TIP3    H228172   1.547   5.861   1.402  0.5308 -0.8665  0.6550
 2205TIP3   OH228173   5.802   6.409   6.617  0.0773  0.2496  0.4146
 2205TIP3    H128174   5.810   6.404   6.522  1.8999  3.2598  0.2630
 2205TIP3    H228175   5.853   6.335   6.649  1.3504  0.4746 -0.9739
 2206TIP3   OH228176   2.597   0.168   0.855 -0.0842 -0.0309 -0.3704
 2206TIP3    H128177   2.568   0.138   0.769  0.5394 -1.2312 -0.1816
 2206TIP3    H228178   2.575   0.261   0.857  0.4234  0.1411 -2.0474
 2207TIP3   OH228179   2.719   6.108   0.398 -0.3726  0.3199 -0.3077
 2207TIP3    H128180   2.776   6.107   0.322  1.4784 -2.5253  0.9526
 2207TIP3    H228181   2.699   6.016   0.415 -2.6613  1.0134  1.2883
 2208TIP3   OH228182   1.263   4.318   6.003 -0.3289 -0.0352  0.1603
 2208TIP3    H128183   1.296   4.371   6.075 -0.0142  0.9927 -0.7191
 2208TIP3    H228184   1.256   4.230   6.039  1.2194  0.1668  1.0238
 2209TIP3   OH228185   2.905   4.395   6.537  0.8995 -0.3828  0.6457
 2209TIP3    H128186   2.817   4.423   6.514  1.6189  0.9802 -0.6861
 2209TIP3    H228187   2.894   4.338   6.613 -1.1263 -0.4355  0.3503
 2210TIP3   OH228188   0.468   2.016   0.163  0.2521 -0.1426 -0.2242
 2210TIP3    H128189   0.412   2.057   0.097  0.0211 -1.6164 -0.9819
 2210TIP3    H228190   0.533   2.083   0.185 -1.5713  1.5075  0.4436
 2211TIP3   OH228191   1.012   5.474   6.621  0.4434 -0.6223  0.4633
 2211TIP3    H128192   0.942   5.538   6.606  1.5647  0.5531  0.1326
 2211TIP3    H228193   0.965   5.392   6.639 -1.0614 -0.5492 -2.4513
 2212TIP3   OH228194   1.100   1.845   7.362 -0.6861 -0.1261  0.6316
 2212TIP3    H128195   1.164   1.781   7.392 -1.4752 -0.8848  0.7368
 2212TIP3    H228196   1.024   1.832   7.419 -2.2147 -1.5829 -1.5692
 2213TIP3   OH228197   0.254   2.410   0.559  0.5194 -0.7950 -0.3560
 2213TIP3    H128198   0.250   2.316   0.543 -1.4509 -0.8905  0.4273
 2213TIP3    H228199   0.164   2.441   0.547  0.8869  0.7704  0.5650
 2214TIP3   OH228200   4.102   3.833   1.380  0.8798  0.3296  0.5365
 2214TIP3    H128201   4.041   3.853   1.309  2.4735 -0.5786 -1.1867
 2214TIP3    H228202   4.081   3.743   1.405  2.7233 -0.7855 -1.5248
 2215TIP3   OH228203   3.807   2.060   8.430  0.1567 -0.3459 -0.0050
 2215TIP3    H128204   3.774   1.972   8.446 -1.3148 -0.1028 -1.4263
 2215TIP3    H228205   3.834   2.059   8.338 -1.1235  1.0154 -0.4448
 2216TIP3   OH228206   0.363   0.232   7.537  0.1507  0.4953 -0.0811
 2216TIP3    H128207   0.370   0.282   7.455  2.5873 -0.8127 -0.7660
 2216TIP3    H228208   0.401   0.289   7.603 -1.3393  1.3389  0.1072
 2217TIP3   OH228209   4.695   3.836   8.226 -0.2641  0.3095  0.2773
 2217TIP3    H128210   4.744   3.754   8.223  3.2290  2.2379 -2.4356
 2217TIP3    H228211   4.652   3.842   8.141 -0.1485  1.4310  0.2822
 2218TIP3   OH228212   5.582   1.031   8.623 -0.4720 -0.6295 -0.0951
 2218TIP3    H128213   5.580   0.940   8.594 -1.1756 -1.0036  1.0539
 2218TIP3    H228214   5.613   1.080   8.547 -0.1845 -1.8135 -0.7617
 2219TIP3   OH228215   6.401   1.886   8.161  0.2467  0.0258 -0.2788
 2219TIP3    H128216   6.324   1.938   8.185  1.2180  0.6976  1.5816
 2219TIP3    H228217   6.444   1.938   8.093  0.2722  0.8055  0.3168
 2220TIP3   OH228218   6.798   4.346   6.942  0.6277  0.3791 -0.2451
 2220TIP3    H128219   6.710   4.381   6.951  1.0064  1.9206 -2.1050
 2220TIP3    H228220   6.820   4.315   7.030 -2.5145 -2.0444 -0.1322
 2221TIP3   OH228221   2.909   5.607   1.336 -0.3551  0.0987 -0.2523
 2221TIP3    H128222   2.992   5.566   1.361 -1.1366 -0.3853  1.6698
 2221TIP3    H228223   2.843   5.539   1.348 -1.4134  1.3159  1.1264
 2222TIP3   OH228224   2.327   1.807   1.541  0.0883  0.2569  0.0481
 2222TIP3    H128225   2.272   1.765   1.607  0.4348  0.2352  0.3298
 2222TIP3    H228226   2.269   1.820   1.466  0.4669 -2.7826 -0.9239
 2223TIP3   OH228227   1.863   4.762   1.616  0.0327  0.0430 -0.7637
 2223TIP3    H128228   1.787   4.770   1.559  0.2299  1.0507 -0.9075
 2223TIP3    H228229   1.830   4.785   1.703 -0.2084 -1.2344 -0.4954
 2224TIP3   OH228230   4.711   6.826   1.949 -0.1556  0.0696 -0.0385
 2224TIP3    H128231   4.716   6.730   1.953  0.3184 -0.0307 -1.9825
 2224TIP3    H228232   4.631   6.843   1.900  1.3763  0.5119 -2.5576
 2225TIP3   OH228233   1.199   6.714   0.318  0.6686  0.3936 -0.0841
 2225TIP3    H128234   1.163   6.801   0.336 -0.0921  0.4891 -1.8283
 2225TIP3    H228235   1.278   6.709   0.372 -0.6892  1.0908  2.1182
 2226TIP3   OH228236   2.691   0.888   1.112  0.1598 -0.5556 -0.4240
 2226TIP3    H128237   2.658   0.830   1.044 -0.6471 -2.2646  1.3163
 2226TIP3    H228238   2.784   0.869   1.117  0.2789 -0.2185 -1.2075
 2227TIP3   OH228239   4.658   1.471   8.574 -0.0085 -0.0860 -0.6615
 2227TIP3    H128240   4.692   1.383   8.593 -2.6348 -0.6542  2.5257
 2227TIP3    H228241   4.720   1.530   8.616  0.6487 -0.5970 -0.9043
 2228TIP3   OH228242   2.994   4.666   1.247 -0.2460  0.1429 -0.1133
 2228TIP3    H128243   3.016   4.574   1.230 -0.9621 -0.2497  0.9486
 2228TIP3    H228244   3.048   4.690   1.322  1.8734  1.4281 -1.9317
 2229TIP3   OH228245   6.051   1.673   0.657  0.7114 -0.6836 -0.5453
 2229TIP3    H128246   6.083   1.747   0.709 -0.4754 -0.0330 -0.7109
 2229TIP3    H228247   6.090   1.687   0.570  1.5188 -0.9712 -0.2395
 2230TIP3   OH228248   3.106   2.975   1.730 -0.1985  0.4056 -0.0317
 2230TIP3    H128249   3.160   3.024   1.792  1.2562 -0.7854 -0.2819
 2230TIP3    H228250   3.022   2.962   1.774  1.0678 -1.1521  2.1069
 2231TIP3   OH228251   4.802   6.134   6.646  0.3406 -0.2566  0.2155
 2231TIP3    H128252   4.873   6.077   6.674 -0.1956 -0.2605  1.6581
 2231TIP3    H228253   4.811   6.139   6.551  0.3246 -2.8613  0.0037
 2232TIP3   OH228254   4.744   2.893   8.346 -0.4218  0.1268  0.6996
 2232TIP3    H128255   4.669   2.878   8.288  0.4295 -0.3545 -0.3176
 2232TIP3    H228256   4.814   2.920   8.286  0.1829  0.6792  1.6458
 2233TIP3   OH228257   3.716   5.301   6.730  0.1473  0.2423  0.0297
 2233TIP3    H128258   3.802   5.323   6.767  0.3546  2.6331 -1.6218
 2233TIP3    H228259   3.674   5.386   6.717 -2.0107 -0.8139 -0.3562
 2234TIP3   OH228260   1.705   6.844   6.326 -0.3091 -0.3975  0.3176
 2234TIP3    H128261   1.700   6.939   6.317  0.9132 -0.4337 -1.1355
 2234TIP3    H228262   1.634   6.822   6.387 -1.0975  1.3534  0.0973
 2235TIP3   OH228263   1.970   2.145   0.357  0.1140  0.3979 -0.0541
 2235TIP3    H128264   1.898   2.133   0.295  0.3288 -1.3104 -0.0314
 2235TIP3    H228265   1.951   2.083   0.428  2.0639 -0.7874 -0.5009
 2236TIP3   OH228266   5.823   0.452   7.168 -0.3754  0.6925 -0.0370
 2236TIP3    H128267   5.894   0.393   7.140 -0.6884  0.4668 -0.3681
 2236TIP3    H228268   5.791   0.413   7.249 -2.0522 -0.8928 -1.3629
 2237TIP3   OH228269   6.008   1.056   7.501  0.0152 -1.1879  0.2304
 2237TIP3    H128270   5.991   1.014   7.417 -0.0850 -0.9687  0.1418
 2237TIP3    H228271   5.928   1.042   7.552 -0.7031  0.3713 -0.4001
 2238TIP3   OH228272   0.608   5.971   1.254  0.4309 -0.1785 -0.7815
 2238TIP3    H128273   0.588   5.879   1.239  0.2016 -0.7517  2.3767
 2238TIP3    H228274   0.528   6.008   1.290  1.1587  0.7166 -0.0295
 2239TIP3   OH228275   4.473   1.759   8.378 -0.3406 -0.1619 -0.2528
 2239TIP3    H128276   4.486   1.671   8.342 -0.5279 -0.4739  0.4223
 2239TIP3    H228277   4.541   1.812   8.337 -0.3568 -0.5726 -0.8251
 2240TIP3   OH228278   5.634   2.338   0.430  0.0676 -0.0363  0.6019
 2240TIP3    H128279   5.659   2.357   0.521  0.1672 -1.5445  0.9230
 2240TIP3    H228280   5.590   2.253   0.435 -1.6762  0.7503 -0.5152
 2241TIP3   OH228281   1.503   1.415   6.983  0.1374 -0.1031  0.4239
 2241TIP3    H128282   1.524   1.495   7.031  1.8289  0.4205 -1.0617
 2241TIP3    H228283   1.438   1.370   7.037  1.5021  0.7085  2.8670
 2242TIP3   OH228284   5.497   4.550   7.948  0.5314 -0.7601  0.1001
 2242TIP3    H128285   5.446   4.617   7.901  0.1661  0.4408  2.1162
 2242TIP3    H228286   5.439   4.473   7.948  0.2372 -0.5594 -0.7407
 2243TIP3   OH228287   4.414   4.759   2.466 -0.1059 -0.2081  0.4114
 2243TIP3    H128288   4.502   4.790   2.444 -0.8953  1.5529 -0.4410
 2243TIP3    H228289   4.428   4.693   2.534  1.9868 -1.3446 -1.0193
 2244TIP3   OH228290   2.585   4.225   1.772  0.3376 -0.0294 -0.2124
 2244TIP3    H128291   2.577   4.135   1.741  0.2824 -0.4169  0.8668
 2244TIP3    H228292   2.641   4.219   1.850  0.3543  0.8705 -0.1420
 2245TIP3   OH228293   0.787   2.451   1.477  0.2436  0.7324  0.4331
 2245TIP3    H128294   0.696   2.429   1.459  0.6538  0.0916 -1.0515
 2245TIP3    H228295   0.832   2.366   1.481  1.0155  1.0883 -0.3495
 2246TIP3   OH228296   2.354   2.366   8.146 -0.6742 -0.1145 -0.1171
 2246TIP3    H128297   2.329   2.456   8.126 -1.1367  0.0409  1.0513
 2246TIP3    H228298   2.447   2.371   8.168 -1.0120  0.3596  1.3452
 2247TIP3   OH228299   1.543   1.625   0.091 -0.1176  0.0554 -0.1090
 2247TIP3    H128300   1.586   1.549   0.130 -0.4174  0.4311  0.9984
 2247TIP3    H228301   1.452   1.618   0.121 -0.7731 -0.5141 -2.0892
 2248TIP3   OH228302   3.371   2.598   8.172  0.1442  0.4480 -0.4421
 2248TIP3    H128303   3.428   2.553   8.110 -0.9539  0.1451 -1.2414
 2248TIP3    H228304   3.372   2.543   8.250  0.8151  0.3697 -0.4983
 2249TIP3   OH228305   4.570   4.905   1.896  0.3695  0.1938 -0.2417
 2249TIP3    H128306   4.654   4.942   1.868  0.2920  0.2122 -0.4522
 2249TIP3    H228307   4.572   4.909   1.991  0.8337 -0.3041 -0.2254
 2250TIP3   OH228308   2.423   2.277   1.230 -0.7856  0.6426  0.1483
 2250TIP3    H128309   2.511   2.312   1.214  0.1841 -1.5523  0.4271
 2250TIP3    H228310   2.410   2.212   1.161 -2.7961  1.8714 -0.7360
 2251TIP3   OH228311   0.773   6.409   1.592  0.1572 -0.2331  0.1320
 2251TIP3    H128312   0.694   6.424   1.541  0.0756  1.2113  0.6193
 2251TIP3    H228313   0.844   6.413   1.528  0.1279  2.3644  0.1482
 2252TIP3   OH228314   5.278   3.211   0.308 -0.3363  0.5556 -0.0137
 2252TIP3    H128315   5.230   3.176   0.383  1.0664 -0.4562  0.4504
 2252TIP3    H228316   5.222   3.281   0.274 -0.8661  1.2598  2.1659
 2253TIP3   OH228317   1.331   0.688   1.694  0.5220 -0.3397  0.4297
 2253TIP3    H128318   1.382   0.610   1.716 -0.9012 -1.8504 -1.2694
 2253TIP3    H228319   1.346   0.700   1.600 -1.3123 -0.1463  0.1274
 2254TIP3   OH228320   1.848   2.722   7.302  0.1689  0.0881  0.1543
 2254TIP3    H128321   1.859   2.708   7.208  1.4760  0.5273  0.2180
 2254TIP3    H228322   1.778   2.662   7.327  0.3413 -0.6099 -0.9493
 2255TIP3   OH228323   4.504   3.675   2.094  0.5671  0.0939  0.1270
 2255TIP3    H128324   4.549   3.734   2.155  0.4366  0.5530 -0.2181
 2255TIP3    H228325   4.412   3.699   2.101  0.2506 -1.3365  1.3769
 2256TIP3   OH228326   4.721   6.779   1.589  0.3740 -0.2502  0.6463
 2256TIP3    H128327   4.655   6.765   1.657  1.0003 -0.7628  1.1696
 2256TIP3    H228328   4.782   6.706   1.600  1.8534  1.0110  1.1647
 2257TIP3   OH228329   3.075   1.322   8.487  0.4336  0.3082  0.6132
 2257TIP3    H128330   3.085   1.406   8.532 -0.3541  0.5947  0.2599
 2257TIP3    H228331   2.997   1.283   8.526  1.1937 -0.5950  1.2866
 2258TIP3   OH228332   3.451   3.597   0.038  0.2093 -0.4957 -0.2662
 2258TIP3    H128333   3.439   3.513  -0.006  0.2455 -0.4005 -0.4631
 2258TIP3    H228334   3.393   3.594   0.114  0.0841 -0.6324 -0.3668
 2259TIP3   OH228335   1.506   0.945   8.660  0.8053  0.1389 -0.3687
 2259TIP3    H128336   1.536   1.029   8.627 -0.4106  0.7293 -0.0333
 2259TIP3    H228337   1.560   0.930   8.738 -1.1575  2.2757  1.5487
 2260TIP3   OH228338   0.718   0.859   6.735 -0.0376  0.5868 -0.1145
 2260TIP3    H128339   0.710   0.777   6.784  0.5599  1.1872  1.0358
 2260TIP3    H228340   0.734   0.832   6.645 -1.7319 -0.5557 -0.1167
 2261TIP3   OH228341   3.579   0.471   8.440 -0.4791 -0.2881 -0.6851
 2261TIP3    H128342   3.658   0.484   8.493 -1.2413 -0.7583  0.6118
 2261TIP3    H228343   3.596   0.390   8.392 -0.0561 -0.2313 -0.6344
 2262TIP3   OH228344   3.422   1.022   1.249 -0.0990  0.1635  0.0384
 2262TIP3    H128345   3.412   0.942   1.197  1.9746 -0.0120 -0.1942
 2262TIP3    H228346   3.407   0.994   1.339  0.6192 -0.5169 -0.0410
 2263TIP3   OH228347   3.350   2.856   8.306  0.0942 -1.0661 -0.6904
 2263TIP3    H128348   3.349   2.785   8.242 -4.4559 -1.7493 -0.2082
 2263TIP3    H228349   3.345   2.811   8.391 -0.6261 -0.1998 -0.2641
 2264TIP3   OH228350   3.781   0.663   6.383  0.3396  0.1899  0.0934
 2264TIP3    H128351   3.714   0.670   6.315  1.3992 -0.0313 -1.0103
 2264TIP3    H228352   3.841   0.735   6.365  1.0403 -0.3248  0.3394
 2265TIP3   OH228353   3.734   4.805   0.222  0.2318 -0.5056  0.7219
 2265TIP3    H128354   3.757   4.752   0.299  0.1200 -0.8195  0.5412
 2265TIP3    H228355   3.639   4.815   0.227 -0.2623 -3.2657 -1.0816
 2266TIP3   OH228356   0.090   6.611   6.987  0.1533  0.1802 -0.0795
 2266TIP3    H128357   0.014   6.584   6.936 -0.7599  0.1139  1.2419
 2266TIP3    H228358   0.072   6.578   7.075  0.2627  2.7055  0.9754
 2267TIP3   OH228359   5.571   1.808   7.205 -0.5115  0.5663 -0.6488
 2267TIP3    H128360   5.580   1.869   7.279  1.8240  0.4572 -0.7544
 2267TIP3    H228361   5.504   1.746   7.234 -1.5100  2.0056  0.2854
 2268TIP3   OH228362   5.732   0.036   6.635 -0.7036 -0.2347  0.5478
 2268TIP3    H128363   5.710   0.113   6.582 -0.4452  0.4496  1.4134
 2268TIP3    H228364   5.723   0.066   6.726  0.8544 -0.7752  0.9090
 2269TIP3   OH228365   2.991   0.189   1.972  0.3165 -0.1775  0.1576
 2269TIP3    H128366   2.896   0.199   1.975  0.2853 -0.1915 -0.6179
 2269TIP3    H228367   3.022   0.236   2.049 -0.2623  0.5269 -0.0222
 2270TIP3   OH228368   3.764   1.497   0.576  0.3509  0.0734  0.7509
 2270TIP3    H128369   3.854   1.529   0.581  0.5415  0.2152 -1.9181
 2270TIP3    H228370   3.721   1.531   0.654  1.5745  3.5444  0.0687
 2271TIP3   OH228371   2.231   1.149   0.044 -0.4608 -0.0109 -0.6527
 2271TIP3    H128372   2.310   1.119  -0.002 -0.2251 -1.3083  0.5322
 2271TIP3    H228373   2.263   1.219   0.102  0.5001 -2.3791  1.9351
 2272TIP3   OH228374   6.384   3.274   7.334 -0.3804 -0.6282  0.1816
 2272TIP3    H128375   6.442   3.350   7.332  0.2468 -1.1121 -0.0870
 2272TIP3    H228376   6.358   3.267   7.426 -0.4909 -0.0579  0.2000
 2273TIP3   OH228377   5.036   2.714   0.171 -0.0398 -0.8199 -0.0435
 2273TIP3    H128378   5.072   2.661   0.243 -0.6906  0.4234  1.2496
 2273TIP3    H228379   4.942   2.721   0.191 -0.4249 -1.2162 -1.5480
 2274TIP3   OH228380   6.279   4.405   0.241  0.6679 -0.6061 -0.4418
 2274TIP3    H128381   6.257   4.493   0.210  0.6166 -0.5841 -0.3440
 2274TIP3    H228382   6.202   4.352   0.222  0.1756 -0.3331  0.6855
 2275TIP3   OH228383   3.608   0.192   8.380 -0.5364  0.4847 -0.1678
 2275TIP3    H128384   3.629   0.142   8.459 -0.3070  2.1706  0.9063
 2275TIP3    H228385   3.675   0.167   8.317 -0.8002 -0.9985  0.1113
 2276TIP3   OH228386   6.025   1.637   1.005 -0.7719  0.2687  0.0003
 2276TIP3    H128387   6.010   1.727   0.973  0.2140  0.3537 -0.2506
 2276TIP3    H228388   6.029   1.646   1.100  1.0317  0.8025 -0.0762
 2277TIP3   OH228389   0.594   4.229   8.472  0.0612 -0.4444 -0.2799
 2277TIP3    H128390   0.512   4.268   8.443 -0.2813  0.2654  1.4885
 2277TIP3    H228391   0.570   4.142   8.504 -0.3214  0.2971  1.5919
 2278TIP3   OH228392   6.040   0.731   8.083  0.0668 -0.2814 -0.4851
 2278TIP3    H128393   5.970   0.683   8.038 -1.9641  0.3108  1.8116
 2278TIP3    H228394   6.056   0.808   8.027 -0.3964 -0.9353 -1.5466
 2279TIP3   OH228395   0.540   0.782   7.027 -0.5871 -0.2358 -0.8385
 2279TIP3    H128396   0.468   0.839   7.001 -1.6786 -0.3831  1.5739
 2279TIP3    H228397   0.555   0.726   6.951 -0.9204  1.8036 -2.4959
 2280TIP3   OH228398   5.259   3.571   1.216 -0.5121  0.2328 -0.9707
 2280TIP3    H128399   5.250   3.545   1.307  0.2745  1.3630 -0.5487
 2280TIP3    H228400   5.320   3.506   1.179 -1.7057 -0.8997 -1.0155
 2281TIP3   OH228401   6.317   4.775   8.630  0.0940 -0.4453  0.3065
 2281TIP3    H128402   6.385   4.804   8.691 -0.0575 -0.2686  0.3923
 2281TIP3    H228403   6.290   4.855   8.585 -0.0905 -0.5075  0.3067
 2282TIP3   OH228404   4.244   5.430   2.275 -0.5558 -0.3183  0.3558
 2282TIP3    H128405   4.148   5.437   2.272 -0.6211 -1.0548 -3.0961
 2282TIP3    H228406   4.272   5.511   2.318 -2.6631  1.5388 -1.5124
 2283TIP3   OH228407   3.881   5.749   7.759 -0.0381  0.2153 -0.1869
 2283TIP3    H128408   3.839   5.699   7.830  0.7547 -0.1240  0.0618
 2283TIP3    H228409   3.903   5.833   7.799 -1.1505  0.6816 -0.5350
 2284TIP3   OH228410   0.361   4.025   8.146  0.1333  0.5199  0.4063
 2284TIP3    H128411   0.293   4.009   8.081  0.3259  1.4583 -0.0448
 2284TIP3    H228412   0.442   3.997   8.103  0.1960  0.6519  0.4388
 2285TIP3   OH228413   4.656   5.382   7.599 -0.3049 -0.2362 -0.4432
 2285TIP3    H128414   4.712   5.452   7.568  0.4637 -0.3100  0.6989
 2285TIP3    H228415   4.700   5.301   7.573  0.2437 -0.2962  0.6158
 2286TIP3   OH228416   0.357   2.084   1.363 -0.2256  0.2041 -0.2124
 2286TIP3    H128417   0.263   2.102   1.360 -0.3499 -0.5436 -2.2752
 2286TIP3    H228418   0.364   2.001   1.410 -0.5371  0.4444  0.2728
 2287TIP3   OH228419   3.870   6.652   2.719 -0.5236 -0.0771 -0.3249
 2287TIP3    H128420   3.783   6.674   2.752  0.1786  2.2524  0.1723
 2287TIP3    H228421   3.926   6.724   2.749  1.6741 -1.6804 -0.3133
 2288TIP3   OH228422   2.612   6.483   1.021 -0.6406 -0.3110 -0.7004
 2288TIP3    H128423   2.615   6.471   1.116 -0.3783 -1.3670 -0.8277
 2288TIP3    H228424   2.584   6.398   0.988  1.6333 -0.7309 -1.7177
 2289TIP3   OH228425   6.029   3.100   8.078 -0.2072 -0.4205  0.2343
 2289TIP3    H128426   5.974   3.123   8.004 -2.1525 -0.2847  1.6547
 2289TIP3    H228427   6.022   3.004   8.084  1.9715 -0.7465 -1.2014
 2290TIP3   OH228428   4.317   5.778   8.393 -0.0469  0.2166  0.2531
 2290TIP3    H128429   4.389   5.793   8.332  1.0230 -1.6091  0.9439
 2290TIP3    H228430   4.281   5.864   8.411  0.3273  0.9174 -2.0486
 2291TIP3   OH228431   3.899   6.724   1.838 -0.6311  0.1544  0.5208
 2291TIP3    H128432   3.940   6.639   1.822 -0.4655  0.4431 -0.7400
 2291TIP3    H228433   3.916   6.743   1.930  1.3660 -0.1209  0.2521
 2292TIP3   OH228434   0.322   4.545   1.305  0.3752 -0.0138 -0.1252
 2292TIP3    H128435   0.234   4.519   1.277 -0.3572  0.4199  1.6502
 2292TIP3    H228436   0.348   4.612   1.241 -0.2215 -0.7446 -1.1555
 2293TIP3   OH228437   4.160   3.605   1.145 -0.0446 -0.1950 -0.1957
 2293TIP3    H128438   4.225   3.539   1.122  1.1888  1.3286 -1.2821
 2293TIP3    H228439   4.116   3.569   1.223 -1.5155 -3.6611 -2.3348
 2294TIP3   OH228440   3.986   3.834   2.140 -0.6793  0.8924  0.6056
 2294TIP3    H128441   3.913   3.871   2.090 -1.3343 -0.4413  0.5124
 2294TIP3    H228442   3.965   3.854   2.232 -0.5196  1.5890  0.4903
 2295TIP3   OH228443   1.089   1.889   8.125  0.1631  0.1934 -0.0597
 2295TIP3    H128444   1.057   1.979   8.120 -0.4346  0.0878  1.4554
 2295TIP3    H228445   1.015   1.836   8.098  0.6015  0.1454 -1.2218
 2296TIP3   OH228446   0.740   5.052   7.535 -1.0013  0.6472  0.9051
 2296TIP3    H128447   0.780   5.122   7.587  0.4335 -0.3902  1.2784
 2296TIP3    H228448   0.672   5.016   7.591  0.3212 -0.2500  1.9837
 2297TIP3   OH228449   1.497   3.207   6.034 -0.6271 -0.0934 -0.6735
 2297TIP3    H128450   1.552   3.268   6.083  1.0102 -0.3853 -2.0780
 2297TIP3    H228451   1.481   3.251   5.951 -0.3314 -1.1120 -1.2869
 2298TIP3   OH228452   3.522   2.693   8.598  0.4064 -0.3231 -0.2425
 2298TIP3    H128453   3.517   2.631   8.670  1.9590  0.1933  0.3517
 2298TIP3    H228454   3.466   2.766   8.624 -0.7093 -1.0397 -0.5424
 2299TIP3   OH228455   0.620   2.371   8.603 -0.0760  0.7791 -0.4813
 2299TIP3    H128456   0.627   2.456   8.560 -0.1117  0.4885 -1.0633
 2299TIP3    H228457   0.612   2.392   8.696  1.5619  1.3685 -0.4365
 2300TIP3   OH228458   1.654   5.229   7.233 -0.1548 -0.8181  0.4858
 2300TIP3    H128459   1.666   5.251   7.140  0.8992 -3.0006  0.0297
 2300TIP3    H228460   1.701   5.146   7.244 -2.4941 -2.0077  2.3577
 2301TIP3   OH228461   4.221   0.385   1.744 -0.0970 -0.9233  0.5309
 2301TIP3    H128462   4.278   0.364   1.670 -0.3784 -0.6316  0.2357
 2301TIP3    H228463   4.194   0.299   1.778 -1.3336 -1.0617 -0.7443
 2302TIP3   OH228464   5.925   0.310   6.740  0.4218 -0.3271 -0.6216
 2302TIP3    H128465   5.862   0.383   6.737  0.5055 -0.1585  0.9185
 2302TIP3    H228466   5.873   0.234   6.766  0.8226 -0.1683  0.7573
 2303TIP3   OH228467   2.769   5.074   0.178  0.0019 -0.1936 -0.1118
 2303TIP3    H128468   2.841   5.130   0.152  1.2042 -2.0552 -1.0174
 2303TIP3    H228469   2.771   5.075   0.274 -0.5656  1.9027 -0.0675
 2304TIP3   OH228470   0.256   1.176   0.157 -0.2621 -0.5475  0.3365
 2304TIP3    H128471   0.273   1.095   0.108  0.0672 -0.1040 -0.3027
 2304TIP3    H228472   0.169   1.203   0.127  0.4401  0.3672 -0.9415
 2305TIP3   OH228473   3.326   4.109   6.239  0.4260  0.3572  0.0565
 2305TIP3    H128474   3.313   4.117   6.334 -0.3010 -0.7552  0.0680
 2305TIP3    H228475   3.239   4.123   6.202  0.6839  0.6629 -0.4492
 2306TIP3   OH228476   0.616   5.753   7.601 -0.1422  0.0570 -0.4353
 2306TIP3    H128477   0.561   5.690   7.552 -1.2154  0.4780  0.1889
 2306TIP3    H228478   0.564   5.833   7.603  0.0969  0.1977  0.9704
 2307TIP3   OH228479   5.541   2.182   1.330  0.3893  0.2469  0.3203
 2307TIP3    H128480   5.481   2.227   1.270 -1.7684 -0.4353  1.8255
 2307TIP3    H228481   5.483   2.134   1.389  2.4911 -0.9739  1.4954
 2308TIP3   OH228482   6.542   3.728   6.526  0.3870 -0.0232  0.4554
 2308TIP3    H128483   6.605   3.783   6.571  0.3513  0.5038 -0.1296
 2308TIP3    H228484   6.595   3.670   6.471  0.3601  1.1150 -0.8357
 2309TIP3   OH228485   4.053   3.428   1.584  0.2889 -0.0283 -0.1801
 2309TIP3    H128486   4.013   3.354   1.630 -2.7002  0.0145 -2.4232
 2309TIP3    H228487   4.036   3.503   1.640  0.6502 -0.5809  0.6903
 2310TIP3   OH228488   1.908   1.076   1.452  0.4202  0.7352  0.0491
 2310TIP3    H128489   1.850   1.008   1.418  1.4642  0.1024 -0.5148
 2310TIP3    H228490   1.856   1.157   1.446 -0.0123  0.3756 -1.5337
 2311TIP3   OH228491   3.214   2.944   7.224 -0.2726  0.1806 -0.5286
 2311TIP3    H128492   3.267   2.963   7.147 -1.1725  0.8009 -1.0212
 2311TIP3    H228493   3.261   2.874   7.270  0.0993 -0.4286 -1.8116
 2312TIP3   OH228494   2.089   0.394   0.332 -0.0269 -0.0944  0.3474
 2312TIP3    H128495   2.055   0.481   0.309 -0.9686  0.3272  3.0232
 2312TIP3    H228496   2.044   0.335   0.272  1.3390  1.2652 -2.1803
 2313TIP3   OH228497   3.588   4.651   8.443  0.1270 -0.1983 -0.1947
 2313TIP3    H128498   3.597   4.691   8.529 -0.1066  2.2588 -1.2026
 2313TIP3    H228499   3.504   4.605   8.447  0.4000 -0.6228  1.0536
 2314TIP3   OH228500   2.459   4.764   0.860 -0.7452  0.5680 -0.0417
 2314TIP3    H128501   2.523   4.803   0.801  0.8802 -0.8540  0.6983
 2314TIP3    H228502   2.476   4.805   0.945 -0.0772 -0.5573  0.3912
 2315TIP3   OH228503   2.326   0.821   8.166 -0.1037  0.0142  0.4784
 2315TIP3    H128504   2.262   0.834   8.236  0.9156  1.6919  1.1563
 2315TIP3    H228505   2.408   0.802   8.212  0.3410 -0.0281 -0.3102
 2316TIP3   OH228506   5.072   4.746   0.119 -0.4147 -0.5341  0.6581
 2316TIP3    H128507   5.005   4.813   0.134  1.1704  1.0978  0.8434
 2316TIP3    H228508   5.128   4.751   0.197  0.9743 -0.5171 -0.3051
 2317TIP3   OH228509   4.931   1.071   7.425 -0.4586  0.2200 -0.3912
 2317TIP3    H128510   4.869   1.126   7.474  1.1740  1.9250 -0.1210
 2317TIP3    H228511   5.016   1.111   7.441  0.8226 -2.3003 -0.4126
 2318TIP3   OH228512   2.716   0.315   0.319 -0.0698 -0.3154 -0.1572
 2318TIP3    H128513   2.669   0.235   0.296 -0.5597  0.0111 -0.3133
 2318TIP3    H228514   2.707   0.322   0.414  1.1757 -1.1810  0.0581
 2319TIP3   OH228515   5.248   2.470   0.231  0.9701  0.0952 -0.0193
 2319TIP3    H128516   5.262   2.444   0.140 -0.0331 -0.3007 -0.0744
 2319TIP3    H228517   5.297   2.552   0.240 -0.2949  1.0499 -1.4078
 2320TIP3   OH228518   0.422   0.204   6.548  0.0611  0.2765 -0.8075
 2320TIP3    H128519   0.455   0.251   6.625  2.0092 -1.6366 -0.3787
 2320TIP3    H228520   0.450   0.258   6.474 -2.9087  2.8108 -0.3164
 2321TIP3   OH228521   2.634   4.723   7.843 -0.2491 -0.1471 -0.0272
 2321TIP3    H128522   2.543   4.702   7.859 -0.3696  0.7130  0.4733
 2321TIP3    H228523   2.661   4.775   7.919  0.2110  0.9082 -0.8750
 2322TIP3   OH228524   5.800   4.318   1.375  0.3368 -0.1821  0.0683
 2322TIP3    H128525   5.761   4.235   1.347  0.1705 -1.3585  3.3071
 2322TIP3    H228526   5.885   4.321   1.332 -0.5116 -0.9532 -1.7457
 2323TIP3   OH228527   1.933   3.204   6.721  0.1050 -1.4216  0.7893
 2323TIP3    H128528   1.935   3.108   6.728  1.7678 -1.3686  1.3212
 2323TIP3    H228529   1.931   3.220   6.627  1.6663 -1.9780  0.6436
 2324TIP3   OH228530   5.397   4.356   1.607 -0.1212 -0.2927  0.2950
 2324TIP3    H128531   5.345   4.400   1.540 -1.8791 -0.1489  1.7004
 2324TIP3    H228532   5.408   4.422   1.676  0.7261 -0.7879  0.6499
 2325TIP3   OH228533   1.456   1.247   1.725 -0.2927  0.4616  0.0094
 2325TIP3    H128534   1.404   1.298   1.787  0.0006  1.4173 -0.5063
 2325TIP3    H228535   1.544   1.285   1.731 -0.3384  0.8027 -1.2328
 2326TIP3   OH228536   4.087   6.126   2.251  0.4074  0.2863 -0.4009
 2326TIP3    H128537   4.057   6.039   2.278  1.1045 -0.2851 -1.3820
 2326TIP3    H228538   4.016   6.185   2.277  0.3937 -0.4171  1.2334
 2327TIP3   OH228539   4.892   3.754   7.812  0.2026 -0.5511 -0.2277
 2327TIP3    H128540   4.824   3.704   7.767 -1.0171  1.1043 -0.3120
 2327TIP3    H228541   4.871   3.845   7.793  2.9006  0.0161 -0.8752
 2328TIP3   OH228542   4.464   1.458   7.438  0.1125  0.0421  0.5245
 2328TIP3    H128543   4.491   1.527   7.500  0.6632 -0.1749  0.5331
 2328TIP3    H228544   4.434   1.386   7.494  0.1715  0.0203  0.5276
 2329TIP3   OH228545   4.761   4.538   7.282 -0.2022 -0.3674  0.4574
 2329TIP3    H128546   4.762   4.628   7.315 -1.5941 -0.2097  0.1347
 2329TIP3    H228547   4.687   4.497   7.327  0.3150 -1.3062  0.4742
 2330TIP3   OH228548   1.431   1.232   7.858 -0.4591  0.1813  0.5027
 2330TIP3    H128549   1.403   1.186   7.937  0.0880 -0.0716  0.5534
 2330TIP3    H228550   1.355   1.227   7.799 -0.6712 -0.1151  0.7981
 2331TIP3   OH228551   2.326   6.633   7.041 -0.3033  0.6430  0.3942
 2331TIP3    H128552   2.306   6.701   7.105 -1.6757 -0.1662  0.8724
 2331TIP3    H228553   2.336   6.680   6.958  1.8051  1.7529  1.1806
 2332TIP3   OH228554   3.157   4.265   8.220  0.7895  0.4540 -0.1245
 2332TIP3    H128555   3.251   4.265   8.201  0.8943  0.2076  0.3720
 2332TIP3    H228556   3.151   4.290   8.312  0.3862  0.1837 -0.0726
 2333TIP3   OH228557   0.093   4.087   1.397 -0.4529  0.2144  0.3117
 2333TIP3    H128558   0.002   4.070   1.421 -1.3976  2.4950 -1.2948
 2333TIP3    H228559   0.105   4.180   1.414  1.4245  0.0689 -0.0619
 2334TIP3   OH228560   5.816   1.820   7.405 -0.4004  0.1011  0.0465
 2334TIP3    H128561   5.867   1.764   7.347  1.4357  0.3119  1.3708
 2334TIP3    H228562   5.797   1.765   7.481  0.5491  0.9168  0.9094
 2335TIP3   OH228563   2.526   4.323   8.016 -0.4682 -0.1645  0.4338
 2335TIP3    H128564   2.487   4.345   7.931 -3.4887  0.3746  1.8377
 2335TIP3    H228565   2.537   4.228   8.013 -3.6886 -0.6285  0.5547
 2336TIP3   OH228566   2.618   3.481   8.450 -0.2586  0.3117  0.2017
 2336TIP3    H128567   2.573   3.544   8.506 -1.6091  0.1759 -0.6938
 2336TIP3    H228568   2.588   3.502   8.362  0.3358 -0.7131 -0.2540
 2337TIP3   OH228569   0.444   4.504   8.370  1.0387 -0.0111 -0.4400
 2337TIP3    H128570   0.476   4.595   8.371  1.5965 -0.1595 -2.0955
 2337TIP3    H228571   0.364   4.507   8.423  2.8301  0.7059  2.4628
 2338TIP3   OH228572   5.085   4.610   6.757  0.3742 -0.0197 -0.1833
 2338TIP3    H128573   5.021   4.541   6.776 -1.1123  1.3792  0.1154
 2338TIP3    H228574   5.064   4.637   6.668  1.4315 -0.4238 -0.5660
 2339TIP3   OH228575   0.405   0.734   1.630 -0.7639 -0.0272 -0.2184
 2339TIP3    H128576   0.442   0.777   1.553 -0.0107 -2.4932 -1.3296
 2339TIP3    H228577   0.310   0.741   1.618 -0.6561 -0.2833 -1.3104
 2340TIP3   OH228578   3.879   2.180   7.672 -0.1084  0.1479  0.2132
 2340TIP3    H128579   3.955   2.142   7.627 -0.3684  1.0897 -1.0694
 2340TIP3    H228580   3.885   2.273   7.654 -1.6220  0.2290  0.0142
 2341TIP3   OH228581   6.131   2.097   7.183  0.7199  0.3976  0.0158
 2341TIP3    H128582   6.124   2.007   7.216  0.4551  0.5563  0.3917
 2341TIP3    H228583   6.041   2.125   7.170  0.7390  1.0960  1.2417
 2342TIP3   OH228584   3.104   0.534   0.094  0.2546 -0.1938 -0.1840
 2342TIP3    H128585   3.099   0.624   0.063  0.6181 -0.6479 -1.6317
 2342TIP3    H228586   3.116   0.482   0.015  1.3135 -1.4122  0.7326
 2343TIP3   OH228587   6.804   0.673   1.157 -0.1710 -0.0978 -0.0922
 2343TIP3    H128588   6.839   0.602   1.211 -0.5662  0.1244  0.4659
 2343TIP3    H228589   6.854   0.668   1.076  2.6589  1.4859  1.3817
 2344TIP3   OH228590   5.826   5.876   8.304 -0.1983 -0.6252  0.3088
 2344TIP3    H128591   5.749   5.909   8.350 -0.2885 -1.4982  0.8168
 2344TIP3    H228592   5.878   5.954   8.284 -0.6583 -0.1355  0.9829
 2345TIP3   OH228593   5.603   1.352   0.075 -0.0759 -0.0251  0.0878
 2345TIP3    H128594   5.582   1.259   0.069 -1.3187  0.3033 -1.5020
 2345TIP3    H228595   5.698   1.356   0.072 -0.0279 -1.2274 -0.6380
 2346TIP3   OH228596   1.242   4.042   5.903  0.0101  0.1707  0.1361
 2346TIP3    H128597   1.326   3.997   5.895 -0.3078 -0.5579  0.7926
 2346TIP3    H228598   1.252   4.121   5.850  1.1340  0.1338  0.2723
 2347TIP3   OH228599   4.437   4.343   1.317 -0.0320  0.2047  0.4315
 2347TIP3    H128600   4.471   4.254   1.322 -0.8576 -0.0481  2.7187
 2347TIP3    H228601   4.406   4.362   1.406 -1.9666  1.9339 -0.5308
 2348TIP3   OH228602   0.433   4.209   1.610 -0.5577  0.0354  0.5587
 2348TIP3    H128603   0.476   4.124   1.617  4.0483  2.1050  1.2300
 2348TIP3    H228604   0.454   4.239   1.522  0.2476  1.4864  1.2049
 2349TIP3   OH228605   0.279   2.413   0.211  0.3988  0.0900 -0.5338
 2349TIP3    H128606   0.239   2.330   0.233  1.8397 -0.1322  1.6223
 2349TIP3    H228607   0.214   2.479   0.236  0.2478 -0.3342  0.2199
 2350TIP3   OH228608   1.892   5.862   7.650  0.8882 -0.1351 -0.6347
 2350TIP3    H128609   1.897   5.889   7.558 -0.6706  0.0482 -0.6953
 2350TIP3    H228610   1.867   5.770   7.647  0.5569 -0.0569 -0.4039
 2351TIP3   OH228611   0.031   6.451   7.215  0.2764  0.1153 -0.3862
 2351TIP3    H128612   0.025   6.355   7.215 -0.3799  0.1482 -0.5938
 2351TIP3    H228613   0.106   6.471   7.270 -0.5820 -0.4627  1.0541
 2352TIP3   OH228614   4.824   2.446   2.518  0.1038  0.0673 -0.3919
 2352TIP3    H128615   4.810   2.511   2.449 -0.9671  1.4449  1.0642
 2352TIP3    H228616   4.919   2.436   2.523  0.2050 -0.3337 -2.2734
 2353TIP3   OH228617   4.156   2.758   8.549 -0.1758 -0.3995  0.0291
 2353TIP3    H128618   4.078   2.760   8.494 -0.3149  0.1659  0.2424
 2353TIP3    H228619   4.176   2.665   8.559 -1.8094 -0.6326  1.3595
 2354TIP3   OH228620   1.772   0.036   2.619  0.7973 -0.0844 -0.4280
 2354TIP3    H128621   1.687   0.017   2.579  0.3952  1.1263 -0.1883
 2354TIP3    H228622   1.836   0.011   2.553  0.1820  0.6753 -1.3413
 2355TIP3   OH228623   0.176   5.301   8.242 -0.0591 -0.0734  0.1369
 2355TIP3    H128624   0.247   5.268   8.186  0.5633 -0.4078  1.1062
 2355TIP3    H228625   0.134   5.222   8.277 -2.8875 -0.0438 -2.7161
 2356TIP3   OH228626   3.843   5.417   1.299 -0.3976 -0.5799  0.5139
 2356TIP3    H128627   3.874   5.496   1.344  0.0288 -0.3431 -0.1757
 2356TIP3    H228628   3.870   5.345   1.355 -0.0818 -0.2759  0.7568
 2357TIP3   OH228629   1.092   3.222   0.749  1.2759 -0.5789  0.2392
 2357TIP3    H128630   1.157   3.249   0.814  0.8676 -1.4904  1.0483
 2357TIP3    H228631   1.074   3.130   0.769 -1.2631  0.0003  0.9244
 2358TIP3   OH228632   5.091   1.158   0.259  0.2164  0.6548  0.4255
 2358TIP3    H128633   5.013   1.120   0.219  1.1685  0.2705 -1.1499
 2358TIP3    H228634   5.104   1.107   0.339 -0.8710  0.4061  0.4524
 2359TIP3   OH228635   2.193   1.713   8.554 -0.4014  0.0522 -0.0025
 2359TIP3    H128636   2.115   1.768   8.562 -0.4241  0.1990 -1.0923
 2359TIP3    H228637   2.247   1.737   8.629 -1.2822  0.1336  0.6261
 2360TIP3   OH228638   1.183   6.623   1.456  0.2580 -0.0093 -0.2954
 2360TIP3    H128639   1.241   6.556   1.418  1.3470  0.3953  0.6096
 2360TIP3    H228640   1.220   6.640   1.543 -0.4759  1.2070 -0.2090
 2361TIP3   OH228641   5.113   2.658   8.266  0.1636 -0.5812 -0.0516
 2361TIP3    H128642   5.098   2.564   8.257 -0.9991 -0.4949  0.7122
 2361TIP3    H228643   5.123   2.672   8.361  0.7874  0.0086 -0.1924
 2362TIP3   OH228644   0.336   3.328   7.398  0.3711 -0.0375  0.6372
 2362TIP3    H128645   0.397   3.389   7.440  0.0327 -0.2784  1.5054
 2362TIP3    H228646   0.253   3.341   7.444 -0.5307  0.9982 -1.2104
 2363TIP3   OH228647   2.686   6.353   0.489  0.6525  0.5009  0.0427
 2363TIP3    H128648   2.724   6.338   0.576 -0.9836 -1.1993  0.5177
 2363TIP3    H228649   2.716   6.279   0.436 -2.3716 -1.2891  0.6214
 2364TIP3   OH228650   5.496   3.339   1.497  0.6033  0.3170 -0.4671
 2364TIP3    H128651   5.540   3.319   1.415  1.1527 -1.9021  0.3094
 2364TIP3    H228652   5.566   3.360   1.558  0.2182  1.6595 -0.4586
 2365TIP3   OH228653   3.792   2.250   7.234 -0.1552  0.3006 -0.6725
 2365TIP3    H128654   3.858   2.278   7.170  0.0804  3.2355  0.7086
 2365TIP3    H228655   3.785   2.155   7.220  0.9048  0.5709 -4.0106
 2366TIP3   OH228656   0.231   5.553   0.121  0.1539  0.1439  0.3689
 2366TIP3    H128657   0.174   5.486   0.082  0.9720  0.7487 -1.9954
 2366TIP3    H228658   0.186   5.578   0.202 -2.0784 -0.6029 -0.5565
 2367TIP3   OH228659   6.051   4.282   1.254 -0.5488  0.3734 -0.1771
 2367TIP3    H128660   6.095   4.359   1.218  0.2581 -0.2057 -0.4489
 2367TIP3    H228661   6.052   4.218   1.183 -0.7479 -0.0730  0.2126
 2368TIP3   OH228662   1.205   5.813   1.016  0.3538  0.0434  0.1002
 2368TIP3    H128663   1.187   5.904   0.997 -1.7661 -0.0790  1.2305
 2368TIP3    H228664   1.241   5.777   0.934 -0.3217  1.4876 -0.8570
 2369TIP3   OH228665   4.018   1.549   0.509  0.1094  0.1825 -0.2515
 2369TIP3    H128666   4.014   1.508   0.423  0.8065  0.0210 -0.2177
 2369TIP3    H228667   4.103   1.522   0.544 -0.3361 -0.0791  0.6572
 2370TIP3   OH228668   3.083   5.540   1.571 -0.2685  0.1428 -0.4948
 2370TIP3    H128669   3.028   5.583   1.636  0.6014 -0.7586  0.9012
 2370TIP3    H228670   3.123   5.466   1.618  0.9682 -0.1133 -1.8485
 2371TIP3   OH228671   6.163   3.832   0.737  0.0771  0.5297 -0.0648
 2371TIP3    H128672   6.197   3.787   0.660  0.4467  1.3553 -0.3856
 2371TIP3    H228673   6.072   3.803   0.743  0.7138 -1.5642  0.7008
 2372TIP3   OH228674   6.479   6.236   1.603  0.3204  0.5588  1.0454
 2372TIP3    H128675   6.452   6.328   1.594  1.2819  0.7745  0.0339
 2372TIP3    H228676   6.547   6.226   1.536 -3.2634 -2.2672 -2.6931
 2373TIP3   OH228677   2.140   3.463   7.111 -0.0861 -0.1200 -0.0167
 2373TIP3    H128678   2.145   3.368   7.095  0.2170 -0.0880 -0.1225
 2373TIP3    H228679   2.088   3.471   7.191  0.5731 -0.4229  0.4538
 2374TIP3   OH228680   5.091   5.078   0.026 -0.1153 -0.2390 -0.0629
 2374TIP3    H128681   5.164   5.094   0.086 -1.0829  1.5736  0.6910
 2374TIP3    H228682   5.015   5.069   0.083 -0.5146 -2.3315 -0.8205
 2375TIP3   OH228683   5.655   6.758   0.020 -0.0461 -0.3471  0.0208
 2375TIP3    H128684   5.685   6.803   0.099 -0.6856 -0.2669  0.2272
 2375TIP3    H228685   5.587   6.699   0.051 -0.0447 -0.5808 -0.4206
 2376TIP3   OH228686   2.749   0.066   1.510 -0.1469 -0.0407 -0.1174
 2376TIP3    H128687   2.720   0.051   1.600 -0.3686 -1.7785 -0.4427
 2376TIP3    H228688   2.822   0.127   1.519 -1.8157  1.9193  0.9749
 2377TIP3   OH228689   6.195   1.354   7.116  0.1521  0.3573  0.2639
 2377TIP3    H128690   6.100   1.338   7.117  0.0706 -0.1733 -3.0349
 2377TIP3    H228691   6.205   1.445   7.142 -1.3501  0.6250 -0.0127
 2378TIP3   OH228692   0.107   3.087   0.960 -0.4505 -0.6642  0.2562
 2378TIP3    H128693   0.043   3.016   0.957 -0.5303 -0.6039  0.5698
 2378TIP3    H228694   0.155   3.073   1.041 -1.5750  0.6035  1.1800
 2379TIP3   OH228695   0.680   0.068   7.412  0.5252 -0.3322  0.0983
 2379TIP3    H128696   0.767   0.045   7.380 -0.0451 -1.0475 -1.0006
 2379TIP3    H228697   0.620   0.030   7.348 -0.5887  0.6676  0.5143
 2380TIP3   OH228698   3.305   0.912   0.505  0.0502 -0.3517 -0.0767
 2380TIP3    H128699   3.211   0.916   0.526 -0.4156 -0.2502 -1.9744
 2380TIP3    H228700   3.348   0.960   0.576 -1.6170  2.2755 -0.7052
 2381TIP3   OH228701   5.423   2.759   0.275 -0.0171  0.5419 -0.1327
 2381TIP3    H128702   5.510   2.723   0.293  0.0126  0.1583 -1.0102
 2381TIP3    H228703   5.403   2.813   0.352  1.6066  1.8046 -0.5459
 2382TIP3   OH228704   3.170   2.201   1.040 -0.3274 -0.3205  0.1769
 2382TIP3    H128705   3.215   2.248   0.969  1.1246 -1.2022  0.4837
 2382TIP3    H228706   3.195   2.249   1.119 -1.0966  0.0271  0.2190
 2383TIP3   OH228707   5.606   6.484   8.657  0.2391 -0.0328  0.0742
 2383TIP3    H128708   5.645   6.570   8.641  0.2445 -0.0205  0.1558
 2383TIP3    H228709   5.554   6.467   8.578  0.1616  0.0877  0.0975
 2384TIP3   OH228710   0.868   2.272   0.613  0.0830 -0.4847 -0.4849
 2384TIP3    H128711   0.918   2.196   0.584  2.0730 -0.3661  2.3077
 2384TIP3    H228712   0.909   2.346   0.569 -0.5808 -0.7872 -1.6591
 2385TIP3   OH228713   3.793   2.836   1.635  0.4395 -0.0665  0.9334
 2385TIP3    H128714   3.830   2.823   1.548  0.2611  2.5474  0.3949
 2385TIP3    H228715   3.700   2.853   1.620  0.3140 -0.0601  1.6655
 2386TIP3   OH228716   6.155   4.739   8.046  0.0999  0.1023 -0.2997
 2386TIP3    H128717   6.100   4.705   7.975  0.8030  0.8598 -1.2344
 2386TIP3    H228718   6.112   4.709   8.126  0.0074 -1.9207 -1.0468
 2387TIP3   OH228719   5.470   6.316   7.899 -0.8443 -0.0290 -0.1076
 2387TIP3    H128720   5.460   6.281   7.810 -1.0009 -0.8500  0.2169
 2387TIP3    H228721   5.409   6.389   7.903 -0.9287 -0.0642 -0.6391
 2388TIP3   OH228722   3.337   3.810   8.611  0.0461  0.4241  0.2036
 2388TIP3    H128723   3.353   3.727   8.656  2.9627  0.3086 -0.8230
 2388TIP3    H228724   3.400   3.870   8.650 -1.6307  2.0514  0.5242
 2389TIP3   OH228725   4.222   4.810   7.522  0.2437  0.4664  0.3348
 2389TIP3    H128726   4.267   4.867   7.584  0.7295  0.5086 -0.0490
 2389TIP3    H228727   4.183   4.741   7.576  2.6267 -0.8441  0.5173
 2390TIP3   OH228728   5.402   4.067   1.643 -0.5162 -0.3737 -0.0908
 2390TIP3    H128729   5.461   4.038   1.574 -0.7176  0.2121 -0.5188
 2390TIP3    H228730   5.396   4.162   1.631  0.2358 -0.1069  1.3590
 2391TIP3   OH228731   5.463   4.649   7.091  0.0728 -0.3234  0.5033
 2391TIP3    H128732   5.368   4.648   7.103  0.0304 -1.1893  0.1405
 2391TIP3    H228733   5.498   4.628   7.178 -0.0229  1.0588  0.9001
 2392TIP3   OH228734   2.030   1.576   1.023  0.2317  0.3118 -0.1398
 2392TIP3    H128735   1.969   1.627   1.078 -0.9024  0.1257 -1.1761
 2392TIP3    H228736   1.993   1.488   1.022 -0.4351  0.5660 -2.0967
 2393TIP3   OH228737   1.765   2.665   6.191  0.0214  0.1519 -0.1711
 2393TIP3    H128738   1.837   2.619   6.232 -0.0004  0.1485 -0.1365
 2393TIP3    H228739   1.686   2.624   6.226  0.0018  0.2414 -0.1092
 2394TIP3   OH228740   6.341   6.373   7.126 -0.1147 -0.2654 -0.1448
 2394TIP3    H128741   6.332   6.357   7.032  2.0190 -3.0107 -0.0204
 2394TIP3    H228742   6.435   6.383   7.140 -0.5228  2.0949  1.5163
 2395TIP3   OH228743   2.385   1.361   1.890 -0.1728  0.8042  0.4158
 2395TIP3    H128744   2.313   1.424   1.889  0.5609  1.6734  0.5952
 2395TIP3    H228745   2.453   1.403   1.943 -0.1591 -0.7263  1.6999
 2396TIP3   OH228746   6.586   1.306   1.073  0.2770  0.0406  0.2423
 2396TIP3    H128747   6.570   1.393   1.035  0.9704  0.0360 -0.0816
 2396TIP3    H228748   6.499   1.273   1.095 -0.3974 -0.7624 -3.1067
 2397TIP3   OH228749   6.590   0.835   1.034 -0.1910  0.1546 -0.5026
 2397TIP3    H128750   6.608   0.741   1.035  1.0916  0.3782  0.1725
 2397TIP3    H228751   6.675   0.875   1.054 -0.9993  1.3964  0.6201
 2398TIP3   OH228752   0.493   1.021   0.117 -0.3707  0.2594 -0.2223
 2398TIP3    H128753   0.502   1.084   0.189  1.8195  0.6864 -0.7907
 2398TIP3    H228754   0.480   0.937   0.160  0.4958  0.5663  0.6836
 2399TIP3   OH228755   0.818   5.895   0.815 -0.5339  0.2646 -0.1388
 2399TIP3    H128756   0.881   5.855   0.755 -0.9053 -2.1287  0.9588
 2399TIP3    H228757   0.751   5.828   0.828 -0.7767  0.9063  2.4690
 2400TIP3   OH228758   6.522   2.665   2.223 -0.2193 -0.2873 -0.3045
 2400TIP3    H128759   6.438   2.625   2.244 -0.3776  0.0796 -0.2323
 2400TIP3    H228760   6.537   2.727   2.295  1.1193 -1.8554  0.8510
 2401TIP3   OH228761   2.360   4.848   8.702  0.1900 -0.2035 -0.0739
 2401TIP3    H128762   2.455   4.857   8.694  0.1044  0.5681 -0.2847
 2401TIP3    H228763   2.347   4.800   8.784  0.8117 -1.6783 -0.7989
 2402TIP3   OH228764   0.960   3.512   1.325 -0.2632  0.1527  0.0093
 2402TIP3    H128765   0.880   3.543   1.281  1.1192  1.6993 -1.5526
 2402TIP3    H228766   1.015   3.590   1.333  2.2211 -1.3124 -1.4762
 2403TIP3   OH228767   1.186   5.817   7.374 -0.0488 -0.0455  0.1531
 2403TIP3    H128768   1.271   5.854   7.347 -0.2084  1.5084  1.6329
 2403TIP3    H228769   1.170   5.747   7.310  1.4122  0.8908 -1.3455
 2404TIP3   OH228770   3.683   2.208   6.895 -0.8215 -0.0878 -0.4667
 2404TIP3    H128771   3.613   2.169   6.843 -1.2542 -1.4874  1.0661
 2404TIP3    H228772   3.637   2.262   6.960 -0.4061 -0.0810 -0.1747
 2405TIP3   OH228773   5.983   4.552   0.806  0.7706 -0.1265  0.1601
 2405TIP3    H128774   5.940   4.521   0.885 -0.6123  1.0763 -0.0805
 2405TIP3    H228775   5.923   4.531   0.735  0.3530  1.8525 -0.1437
 2406TIP3   OH228776   5.102   5.983   7.173 -0.3543  0.4335  0.1053
 2406TIP3    H128777   5.170   5.915   7.168  1.7188  2.4304 -3.8210
 2406TIP3    H228778   5.023   5.939   7.142 -0.1710 -1.1770  1.7533
 2407TIP3   OH228779   4.204   5.079   7.722  0.5723  0.7820  0.4208
 2407TIP3    H128780   4.299   5.080   7.735  0.3595 -1.1274  2.9881
 2407TIP3    H228781   4.168   5.053   7.807 -2.2395  0.9578 -0.5943
 2408TIP3   OH228782   4.177   3.185   8.529  0.0312  0.5092  0.2142
 2408TIP3    H128783   4.215   3.254   8.475  1.7000 -0.2728  0.3333
 2408TIP3    H228784   4.108   3.229   8.579 -0.0403  1.7171 -0.8893
 2409TIP3   OH228785   4.689   5.221   8.295 -0.3297 -0.0542  0.5719
 2409TIP3    H128786   4.731   5.201   8.211  0.6311 -1.9455  1.4303
 2409TIP3    H228787   4.757   5.206   8.360 -1.2255  0.8153  1.7516
 2410TIP3   OH228788   3.016   6.430   8.491 -0.3939  0.4674  0.1005
 2410TIP3    H128789   3.033   6.336   8.483  0.3190  0.6756 -1.2269
 2410TIP3    H228790   3.072   6.459   8.563 -0.8358 -0.1675  0.7099
 2411TIP3   OH228791   6.798   4.639   7.445  0.0142 -0.4735 -0.0346
 2411TIP3    H128792   6.882   4.633   7.490  0.6995 -0.2528 -1.2353
 2411TIP3    H228793   6.796   4.729   7.411 -0.3555 -0.7203 -0.6715
 2412TIP3   OH228794   4.017   1.462   1.093  0.1547 -0.2412  0.2475
 2412TIP3    H128795   3.961   1.540   1.091  1.3219  0.6320  0.4521
 2412TIP3    H228796   3.960   1.392   1.125 -1.1042  0.3605 -0.5709
 2413TIP3   OH228797   1.928   3.169   6.458  0.2791  0.4444 -0.2566
 2413TIP3    H128798   1.889   3.110   6.394 -3.4369  0.9947  1.2444
 2413TIP3    H228799   2.017   3.136   6.470 -0.9855 -3.7139 -0.8507
 2414TIP3   OH228800   6.538   1.214   0.630  0.0498  0.0012  0.6837
 2414TIP3    H128801   6.553   1.187   0.539  0.2157 -0.1503  0.7550
 2414TIP3    H228802   6.560   1.136   0.681 -0.5080 -0.0647  0.8256
 2415TIP3   OH228803   5.049   2.325   7.248 -0.2726 -0.1623  0.2365
 2415TIP3    H128804   5.059   2.395   7.313 -1.8829 -0.0412  0.3826
 2415TIP3    H228805   5.083   2.364   7.167 -1.5148  0.9578  0.2268
 2416TIP3   OH228806   1.114   4.880   7.886  0.1402 -0.3895 -0.2556
 2416TIP3    H128807   1.139   4.798   7.928 -1.0080 -0.6471 -0.0445
 2416TIP3    H228808   1.076   4.932   7.956 -1.2993 -0.6131 -0.8328
 2417TIP3   OH228809   2.694   3.990   1.632 -0.3667 -0.0112  0.2992
 2417TIP3    H128810   2.679   3.945   1.549 -0.3254  1.5229 -0.5695
 2417TIP3    H228811   2.788   3.981   1.648 -0.5877 -1.5062  0.9257
 2418TIP3   OH228812   5.466   1.579   1.329 -0.2510  0.2348  0.3171
 2418TIP3    H128813   5.562   1.584   1.329 -0.2531  0.4079  1.3845
 2418TIP3    H228814   5.441   1.600   1.419 -1.2859  0.0055  0.0896
 2419TIP3   OH228815   1.489   2.787   7.755  0.1185  0.1334 -0.3654
 2419TIP3    H128816   1.425   2.758   7.689  0.9863 -0.2080 -1.0775
 2419TIP3    H228817   1.573   2.760   7.719  0.5432 -1.0354  1.3783
 2420TIP3   OH228818   6.166   2.001   6.823  0.0721  0.3911 -0.4715
 2420TIP3    H128819   6.092   1.944   6.838 -0.6879  1.1799 -1.1004
 2420TIP3    H228820   6.184   1.993   6.729 -0.4145  1.5740 -0.6953
 2421TIP3   OH228821   0.616   2.429   6.903 -0.1713 -0.5044 -0.7218
 2421TIP3    H128822   0.661   2.510   6.923  0.5317 -0.6016 -1.8059
 2421TIP3    H228823   0.665   2.362   6.951 -1.0319 -0.2520  0.5451
 2422TIP3   OH228824   1.573   2.160   7.590  0.7169 -0.2891  0.0392
 2422TIP3    H128825   1.529   2.129   7.669  0.0183 -0.6013 -0.4613
 2422TIP3    H228826   1.526   2.240   7.565 -0.3300 -1.2291 -1.1294
 2423TIP3   OH228827   5.249   2.538   1.366  0.1020  0.2952 -0.1827
 2423TIP3    H128828   5.207   2.598   1.427  0.6002  2.0895 -1.5496
 2423TIP3    H228829   5.321   2.588   1.327  3.1462 -2.3746  1.4812
 2424TIP3   OH228830   4.361   4.439   0.214 -0.3366 -0.3689 -0.3699
 2424TIP3    H128831   4.437   4.470   0.164 -0.3484 -0.6565 -0.5670
 2424TIP3    H228832   4.306   4.517   0.224  0.4349  0.0771  0.6084
 2425TIP3   OH228833   4.542   2.845   8.161 -0.7068  0.8520 -0.2479
 2425TIP3    H128834   4.526   2.867   8.069 -0.3761 -1.2259 -0.8447
 2425TIP3    H228835   4.456   2.821   8.195 -0.3902 -1.4361 -0.9289
 2426TIP3   OH228836   5.949   4.718   1.908 -0.5778 -0.9271  0.2214
 2426TIP3    H128837   5.882   4.750   1.969  0.8196  0.5158  1.0944
 2426TIP3    H228838   5.988   4.643   1.952 -0.6337 -0.8582  0.3894
 2427TIP3   OH228839   6.444   2.920   0.497 -0.4109 -0.1548 -0.2305
 2427TIP3    H128840   6.451   2.940   0.403  1.9319 -0.0060 -0.0933
 2427TIP3    H228841   6.430   2.825   0.499  1.8229 -0.5486 -0.7623
 2428TIP3   OH228842   2.211   1.118   6.716 -0.0051 -0.0754 -0.3438
 2428TIP3    H128843   2.261   1.088   6.640  0.9019 -0.6477  0.4494
 2428TIP3    H228844   2.123   1.085   6.702  0.4291 -1.1625 -0.6007
 2429TIP3   OH228845   3.074   6.420   2.082 -0.0482  0.2490  0.0635
 2429TIP3    H128846   3.042   6.372   2.158  2.2328  0.1605  1.0573
 2429TIP3    H228847   3.070   6.512   2.109  0.3787  0.2455  0.1452
 2430TIP3   OH228848   4.216   2.654   1.609  0.1561  0.0521  0.0433
 2430TIP3    H128849   4.227   2.749   1.605 -0.9157  0.2579  1.2512
 2430TIP3    H228850   4.121   2.641   1.603  0.1191 -0.7901  1.7115
 2431TIP3   OH228851   3.393   1.515   8.062  0.1108 -0.2813 -0.4416
 2431TIP3    H128852   3.371   1.434   8.107  2.0555 -0.1002  0.9548
 2431TIP3    H228853   3.397   1.490   7.970 -0.5203 -1.4764 -0.1730
 2432TIP3   OH228854   5.716   0.952   6.815 -0.3158  0.4902  0.0311
 2432TIP3    H128855   5.748   0.913   6.733 -0.1584  0.4098  0.1291
 2432TIP3    H228856   5.625   0.923   6.822 -0.2841  0.3734 -0.0403
 2433TIP3   OH228857   0.838   3.018   1.956 -0.2384 -0.2468 -0.5632
 2433TIP3    H128858   0.785   3.087   1.994 -0.1312 -0.7693  0.5837
 2433TIP3    H228859   0.925   3.057   1.945 -0.8847  0.7470 -2.8530
 2434TIP3   OH228860   4.413   3.759   1.017 -0.2096 -0.4201 -0.1977
 2434TIP3    H128861   4.447   3.847   1.033 -1.8761  0.1985  0.1920
 2434TIP3    H228862   4.433   3.711   1.097  1.9785 -0.8768 -0.9426
 2435TIP3   OH228863   0.484   2.928   2.000 -0.4078 -0.3451 -0.9305
 2435TIP3    H128864   0.534   2.868   1.944  0.0462 -0.4614 -0.4132
 2435TIP3    H228865   0.468   2.878   2.080 -0.1267  0.1777 -0.5402
 2436TIP3   OH228866   4.361   3.174   1.563 -0.4138  0.3705  0.1178
 2436TIP3    H128867   4.395   3.262   1.577  0.4693  0.1803 -0.7305
 2436TIP3    H228868   4.381   3.154   1.471 -0.2126 -0.8833  0.4082
 2437TIP3   OH228869   3.566   6.485   0.017 -0.0754 -0.0039 -0.1463
 2437TIP3    H128870   3.605   6.542   0.082  0.4833 -0.7961  0.2281
 2437TIP3    H228871   3.629   6.414   0.005 -0.6159 -0.3933 -0.8136
 2438TIP3   OH228872   3.678   2.862   8.432 -0.5176 -0.1096 -0.2020
 2438TIP3    H128873   3.599   2.909   8.406 -1.3857 -2.1701 -1.5003
 2438TIP3    H228874   3.646   2.791   8.487  0.1469 -2.0896 -2.2318
 2439TIP3   OH228875   1.131   3.310   0.467  0.2518  0.3527 -0.2385
 2439TIP3    H128876   1.092   3.235   0.421  0.9676 -0.8705  1.0890
 2439TIP3    H228877   1.110   3.295   0.559  1.0938  1.3775  0.1337
 2440TIP3   OH228878   0.287   1.995   8.444 -0.1152  0.1939  0.0739
 2440TIP3    H128879   0.243   1.913   8.418 -0.7669  0.4925  0.2254
 2440TIP3    H228880   0.249   2.062   8.387  0.8893  0.2980 -0.5030
 2441TIP3   OH228881   3.600   2.543   0.877 -0.5640 -0.1592 -0.1176
 2441TIP3    H128882   3.591   2.634   0.906  0.6455 -0.0001 -0.2135
 2441TIP3    H228883   3.580   2.491   0.955  2.7308  0.2675  1.1556
 2442TIP3   OH228884   0.463   6.718   1.881  0.3826 -0.5481 -0.2417
 2442TIP3    H128885   0.442   6.630   1.911  2.1353 -1.2897 -1.0377
 2442TIP3    H228886   0.557   6.727   1.896  0.3671  0.9263 -0.8268
 2443TIP3   OH228887   3.281   3.357   7.011  0.3925 -0.2885 -0.1876
 2443TIP3    H128888   3.193   3.325   7.032  0.7430 -0.7148  0.6724
 2443TIP3    H228889   3.324   3.364   7.096  1.4067 -0.6948 -0.6636
 2444TIP3   OH228890   1.057   4.854   1.761  0.0262  0.2345  0.4253
 2444TIP3    H128891   0.976   4.803   1.767 -0.2674  0.3834 -1.6558
 2444TIP3    H228892   1.038   4.935   1.808 -1.6745  0.9766 -1.4051
 2445TIP3   OH228893   1.570   5.035   1.186 -0.0381  0.6890  0.1765
 2445TIP3    H128894   1.662   5.008   1.186 -0.3285 -0.3661 -1.0940
 2445TIP3    H228895   1.523   4.963   1.227 -0.2043  1.7720  2.0393
 2446TIP3   OH228896   4.587   4.550   8.063  0.2978 -0.2312 -0.1330
 2446TIP3    H128897   4.501   4.520   8.093  0.2018 -0.6102 -0.7765
 2446TIP3    H228898   4.614   4.614   8.129  0.4336 -1.5941  1.1936
 2447TIP3   OH228899   2.557   4.771   6.728  0.2442 -0.0085 -0.0554
 2447TIP3    H128900   2.526   4.739   6.813 -0.1460 -0.8642 -0.5035
 2447TIP3    H228901   2.590   4.693   6.684  0.2114  0.3803 -0.7847
 2448TIP3   OH228902   4.760   1.816   7.023  0.6100 -0.1779 -0.0617
 2448TIP3    H128903   4.728   1.830   7.112 -0.4307 -2.1010 -0.0598
 2448TIP3    H228904   4.690   1.850   6.967  1.1064  0.7121 -0.1499
 2449TIP3   OH228905   6.608   4.742   8.094 -0.2191 -0.1612  0.0513
 2449TIP3    H128906   6.655   4.702   8.167  0.2598 -1.8001 -1.0787
 2449TIP3    H228907   6.630   4.687   8.019 -2.1121  0.4050 -0.9855
 2450TIP3   OH228908   4.046   4.547   8.380  0.1599  0.6410 -0.3990
 2450TIP3    H128909   4.040   4.494   8.300 -2.0812  1.0495 -0.5734
 2450TIP3    H228910   4.016   4.634   8.354  0.4827  1.0796  0.6443
 2451TIP3   OH228911   4.275   0.975   6.863  0.1587  0.1049  0.0279
 2451TIP3    H128912   4.236   1.016   6.786 -1.8084 -1.5954  0.0320
 2451TIP3    H228913   4.247   1.030   6.936 -0.5698  0.0147 -0.1766
 2452TIP3   OH228914   5.377   3.342   8.060 -0.0278  0.1401 -0.3598
 2452TIP3    H128915   5.348   3.383   7.979 -2.9465  0.1174  0.5554
 2452TIP3    H228916   5.338   3.395   8.129 -0.7684 -1.9589  0.9293
 2453TIP3   OH228917   6.547   0.266   7.214  0.4064  0.2280 -0.0953
 2453TIP3    H128918   6.570   0.256   7.121  0.2743  0.2579 -0.1315
 2453TIP3    H228919   6.551   0.360   7.229  0.5840  0.2108 -0.0288
 2454TIP3   OH228920   6.490   4.655   6.632  0.2212 -0.0573  0.5096
 2454TIP3    H128921   6.445   4.598   6.694 -0.0018 -1.8961 -1.2369
 2454TIP3    H228922   6.442   4.644   6.550  1.3958  1.1326 -0.3772
 2455TIP3   OH228923   3.783   3.949   7.934  0.1399 -0.0308 -0.4499
 2455TIP3    H128924   3.726   3.951   8.010  1.0353  0.0999  0.2382
 2455TIP3    H228925   3.780   3.858   7.904  3.4694 -1.4494  2.7014
 2456TIP3   OH228926   0.989   2.827   7.296  0.2417  0.3440  0.2359
 2456TIP3    H128927   1.080   2.833   7.324  0.9660 -0.7440 -1.7090
 2456TIP3    H228928   0.939   2.834   7.377  2.0085  1.4169  1.3140
 2457TIP3   OH228929   0.487   2.282   6.703 -0.2123  0.3432  0.2485
 2457TIP3    H128930   0.400   2.318   6.684  0.4840  1.1849 -1.4969
 2457TIP3    H228931   0.534   2.355   6.745  0.0308  0.2603  0.1202
 2458TIP3   OH228932   4.925   4.760   7.308 -0.3342 -0.0177  0.2157
 2458TIP3    H128933   4.900   4.715   7.227 -0.0610  1.4663 -0.7323
 2458TIP3    H228934   4.985   4.829   7.280 -1.6204  1.6916  1.4496
 2459TIP3   OH228935   3.432   4.215   8.182  0.1101 -0.1131  0.3393
 2459TIP3    H128936   3.431   4.185   8.092  0.5307  1.5800 -0.2612
 2459TIP3    H228937   3.493   4.289   8.183  0.4284 -0.3432  2.0943
 2460TIP3   OH228938   3.801   4.248   8.324 -0.3929 -0.0454 -0.1974
 2460TIP3    H128939   3.710   4.252   8.293 -1.0664 -0.7489  1.5781
 2460TIP3    H228940   3.851   4.221   8.247 -1.5720  1.0090 -1.3877
 2461TIP3   OH228941   4.135   1.308   7.386  0.3707 -0.4310  0.0245
 2461TIP3    H128942   4.171   1.228   7.424  0.3344 -0.2754  0.3857
 2461TIP3    H228943   4.045   1.286   7.364  0.0168 -0.1604  1.1465
 2462TIP3   OH228944   3.999   3.442   7.425 -0.3335 -0.5577 -0.0066
 2462TIP3    H128945   4.040   3.471   7.344  0.9239 -0.4843  0.6283
 2462TIP3    H228946   3.915   3.486   7.427 -0.0909 -0.0391 -0.9462
 2463TIP3   OH228947   2.557   5.183   1.292 -0.7600  0.3326 -0.1619
 2463TIP3    H128948   2.512   5.238   1.356 -0.0828 -0.3706  0.9546
 2463TIP3    H228949   2.526   5.094   1.310  0.1090  0.0057 -0.2198
 2464TIP3   OH228950   6.385   6.149   2.276 -0.2764 -0.4697  0.0663
 2464TIP3    H128951   6.393   6.226   2.220  0.5643  0.5605  1.5234
 2464TIP3    H228952   6.293   6.149   2.303 -0.0346  0.7538  0.9936
 2465TIP3   OH228953   3.443   5.925   1.435 -0.9104 -0.0350 -0.0882
 2465TIP3    H128954   3.388   5.915   1.357 -1.9689  1.7602  0.3531
 2465TIP3    H228955   3.385   5.901   1.508  0.5081 -3.1742  0.1596
 2466TIP3   OH228956   1.237   2.749   7.029  0.4925  0.5216  0.6965
 2466TIP3    H128957   1.195   2.759   7.114  1.2417 -0.0549  1.1528
 2466TIP3    H228958   1.326   2.783   7.042  1.5654 -2.0847  0.9898
 2467TIP3   OH228959   2.488   3.408   8.064  0.9964 -0.2815 -0.0350
 2467TIP3    H128960   2.474   3.487   8.012  0.6209 -0.9860 -1.0544
 2467TIP3    H228961   2.420   3.410   8.131 -0.7078 -1.0201 -1.6598
 2468TIP3   OH228962   1.478   1.894   1.138  0.0698 -0.4148  0.0650
 2468TIP3    H128963   1.474   1.986   1.110  2.3095 -0.1572  0.4038
 2468TIP3    H228964   1.545   1.893   1.206 -0.5971 -2.1766  0.7500
 2469TIP3   OH228965   1.698   3.523   7.626  0.5021  0.1549  0.2831
 2469TIP3    H128966   1.620   3.470   7.609  1.2242 -1.4296  1.6597
 2469TIP3    H228967   1.693   3.594   7.562 -0.0356 -2.0321 -2.2768
 2470TIP3   OH228968   1.222   5.879   0.614 -0.3692 -0.0685  0.3330
 2470TIP3    H128969   1.304   5.848   0.575 -0.1044 -1.1302  1.6609
 2470TIP3    H228970   1.192   5.947   0.554 -0.1535 -1.8118 -1.8945
 2471TIP3   OH228971   1.512   2.447   8.348  0.1924  0.0867  0.3404
 2471TIP3    H128972   1.446   2.466   8.415 -0.5908  1.3352 -0.7351
 2471TIP3    H228973   1.543   2.533   8.319  2.2556 -0.4650  0.7410
 2472TIP3   OH228974   2.363   6.333   8.042  0.1491 -0.3974  0.4985
 2472TIP3    H128975   2.443   6.366   7.999  0.0453 -0.3321  0.3551
 2472TIP3    H228976   2.370   6.365   8.132  0.9224 -1.4806  0.8446
 2473TIP3   OH228977   2.385   4.969   1.354 -0.0131  0.5771  0.2686
 2473TIP3    H128978   2.300   5.002   1.326 -0.1751 -0.8091 -1.0097
 2473TIP3    H228979   2.366   4.914   1.430 -0.2852  0.2425 -0.0349
 2474TIP3   OH228980   5.643   6.209   7.125 -0.4169  0.5287  0.5205
 2474TIP3    H128981   5.738   6.218   7.135 -0.1647 -1.6532  0.5651
 2474TIP3    H228982   5.627   6.231   7.033  0.2599  0.0894  0.2911
 2475TIP3   OH228983   6.286   6.772   7.828  0.4707  0.3817 -0.1706
 2475TIP3    H128984   6.244   6.857   7.840 -0.0560  0.0368  0.5005
 2475TIP3    H228985   6.280   6.755   7.734  2.1999  1.8934 -0.6159
 2476TIP3   OH228986   0.549   5.753   7.125  0.2747 -0.5649 -0.2002
 2476TIP3    H128987   0.455   5.757   7.142  0.2171 -1.0665 -0.3767
 2476TIP3    H228988   0.583   5.837   7.155  0.0348 -1.0515  1.5102
 2477TIP3   OH228989   4.430   3.464   1.635 -0.3280  0.4318  0.0531
 2477TIP3    H128990   4.349   3.472   1.584  0.3036  0.9350 -0.8840
 2477TIP3    H228991   4.405   3.494   1.723 -1.3332 -0.0991 -0.0290
 2478TIP3   OH228992   0.424   2.617   0.574 -0.1874 -0.6939  0.3802
 2478TIP3    H128993   0.511   2.582   0.553 -0.7576 -0.8173 -2.0745
 2478TIP3    H228994   0.364   2.545   0.554 -1.0210  0.1239 -0.0888
 2479TIP3   OH228995   1.805   4.353   1.808  0.3157 -0.6039  0.2092
 2479TIP3    H128996   1.874   4.371   1.744  1.8548 -0.8594  1.7371
 2479TIP3    H228997   1.795   4.258   1.806  0.1291 -0.5820  0.1101
 2480TIP3   OH228998   0.078   2.232   7.661 -0.2191  0.1587 -0.1436
 2480TIP3    H128999   0.070   2.187   7.745 -0.9972  1.1861  0.3651
 2480TIP3    H229000   0.079   2.162   7.596 -0.9464 -0.6086  0.6388
 2481TIP3   OH229001   5.888   6.766   0.995  0.0960 -0.3853  0.0465
 2481TIP3    H129002   5.934   6.834   0.946 -0.5764  0.5796  0.7353
 2481TIP3    H229003   5.929   6.766   1.081 -1.0199  0.3456  0.6028
 2482TIP3   OH229004   4.130   0.171   8.216 -0.4119 -0.4864 -0.8453
 2482TIP3    H129005   4.132   0.083   8.181  3.6881 -0.7158 -0.4958
 2482TIP3    H229006   4.176   0.224   8.151  3.5299 -0.1285  1.8923
 2483TIP3   OH229007   6.000   1.688   1.260 -0.1579 -0.0575  0.4400
 2483TIP3    H129008   6.044   1.739   1.329  2.5176  0.1837 -1.2905
 2483TIP3    H229009   6.019   1.596   1.283 -2.1757 -0.2118  1.7648
 2484TIP3   OH229010   5.395   1.906   7.007 -0.3701 -0.1149  0.1736
 2484TIP3    H129011   5.315   1.856   7.016 -0.3133 -0.8486 -2.4208
 2484TIP3    H229012   5.458   1.863   7.065 -1.1448 -1.1584  0.2591
 2485TIP3   OH229013   4.328   4.521   8.211  0.2714 -0.2182  0.4008
 2485TIP3    H129014   4.259   4.455   8.222  0.6388 -0.5890  0.4993
 2485TIP3    H229015   4.288   4.602   8.243  0.0456 -0.5324  0.9366
 2486TIP3   OH229016   2.921   1.156   1.226 -0.7165  0.7516 -0.6791
 2486TIP3    H129017   2.917   1.074   1.178 -2.3282  0.0754  0.5147
 2486TIP3    H229018   2.961   1.133   1.310  0.6907  1.6161 -1.0849
 2487TIP3   OH229019   1.233   2.000   8.529  0.0331 -0.6470  0.4756
 2487TIP3    H129020   1.170   2.010   8.601  0.2427  0.5480  0.5165
 2487TIP3    H229021   1.205   2.065   8.465  0.3052 -1.1880 -0.2020
 2488TIP3   OH229022   4.867   4.429   6.793  0.3956  0.0297 -0.5484
 2488TIP3    H129023   4.823   4.400   6.873  1.6154 -1.3544 -0.3373
 2488TIP3    H229024   4.797   4.465   6.739 -0.6915 -0.4109  0.5155
 2489TIP3   OH229025   5.261   4.858   8.636 -1.0144 -0.0595 -0.5162
 2489TIP3    H129026   5.217   4.773   8.646 -0.5674 -0.3457 -0.9446
 2489TIP3    H229027   5.223   4.913   8.705  0.2951 -1.2537  1.2579
 2490TIP3   OH229028   4.887   6.432   7.994  0.1661 -0.6442 -0.1221
 2490TIP3    H129029   4.961   6.403   7.941 -1.2333 -0.6826 -2.1616
 2490TIP3    H229030   4.854   6.510   7.950 -1.3331 -0.9335  0.4354
 2491TIP3   OH229031   1.666   1.057   0.434  0.2183  0.4838  0.0055
 2491TIP3    H129032   1.596   1.095   0.488  0.4815 -0.9515  1.4173
 2491TIP3    H229033   1.628   1.052   0.346 -1.7412 -0.8736  0.8585
 2492TIP3   OH229034   3.249   0.309   0.762 -0.9760  0.4663  0.4259
 2492TIP3    H129035   3.286   0.359   0.835 -0.1084  2.1380 -1.0806
 2492TIP3    H229036   3.160   0.343   0.752 -0.8300  0.7993  0.2312
 2493TIP3   OH229037   5.126   2.767   8.549 -1.2246  0.4341  0.0314
 2493TIP3    H129038   5.124   2.862   8.538 -1.0466  0.6100  1.3273
 2493TIP3    H229039   5.174   2.753   8.631  0.7218 -0.8847 -1.2484
 2494TIP3   OH229040   6.492   6.751   0.479  0.5679 -0.1142  0.5311
 2494TIP3    H129041   6.580   6.766   0.447  0.0579  0.1145 -0.8334
 2494TIP3    H229042   6.435   6.798   0.418 -0.5369 -0.7272  1.0414
 2495TIP3   OH229043   4.987   4.739   6.517  0.1385  0.5253 -0.2183
 2495TIP3    H129044   4.911   4.682   6.504  0.4721  0.3119 -1.2534
 2495TIP3    H229045   4.949   4.825   6.536 -0.3850 -0.1477  2.1393
 2496TIP3   OH229046   0.646   2.637   8.524  0.5240  0.6125  0.0043
 2496TIP3    H129047   0.741   2.626   8.511  0.5137  1.8081 -1.2572
 2496TIP3    H229048   0.614   2.667   8.439 -1.3662 -1.9256 -0.3033
 2497TIP3   OH229049   3.832   5.520   0.938  0.1223  0.4588  0.1341
 2497TIP3    H129050   3.891   5.445   0.936 -2.4019 -1.7101  1.1687
 2497TIP3    H229051   3.791   5.521   0.852 -0.2316  0.2879  0.2968
 2498TIP3   OH229052   3.435   1.887   7.116  0.4988 -0.2244 -0.1527
 2498TIP3    H129053   3.518   1.935   7.116 -0.3184  1.2578  0.1417
 2498TIP3    H229054   3.432   1.844   7.030  2.0654 -1.2733  0.2618
 2499TIP3   OH229055   1.430   1.636   1.596  0.4012  0.0452 -0.2072
 2499TIP3    H129056   1.380   1.706   1.554  0.5254 -0.8489 -1.9220
 2499TIP3    H229057   1.364   1.586   1.644 -0.0441  0.0282 -0.8272
 2500TIP3   OH229058   5.901   3.340   7.391 -0.3003  0.0456 -0.4997
 2500TIP3    H129059   5.990   3.375   7.398 -0.6806  1.2297 -1.2325
 2500TIP3    H229060   5.846   3.409   7.428 -1.0463  0.1045 -1.6549
 2501TIP3   OH229061   4.888   3.057   0.861  0.1455  0.3156 -0.1514
 2501TIP3    H129062   4.833   2.982   0.837  0.9107  0.0180 -1.0244
 2501TIP3    H229063   4.842   3.097   0.935 -1.7671  0.6575 -1.4288
 2502TIP3   OH229064   1.312   0.169   7.849  0.0949  0.3754 -0.3179
 2502TIP3    H129065   1.292   0.241   7.789  0.3602  0.6120 -0.1267
 2502TIP3    H229066   1.321   0.092   7.792 -1.9173  0.1321 -0.3531
 2503TIP3   OH229067   5.586   1.518   1.640  0.0212 -0.0761  0.4355
 2503TIP3    H129068   5.632   1.440   1.670 -0.2757 -0.1563  0.6949
 2503TIP3    H229069   5.542   1.551   1.719 -0.3039  0.0358  0.2088
 2504TIP3   OH229070   6.689   3.078   0.487 -0.6586  0.5922  0.1077
 2504TIP3    H129071   6.617   3.029   0.527  0.3595 -0.4416  0.7347
 2504TIP3    H229072   6.760   3.073   0.551  0.7466 -0.3625 -1.4413
 2505TIP3   OH229073   3.183   4.091   2.153 -0.3750  0.9755 -0.1583
 2505TIP3    H129074   3.207   4.002   2.176 -0.3042 -0.1839 -4.0124
 2505TIP3    H229075   3.267   4.137   2.145 -0.0034  0.0436 -2.5033
 2506TIP3   OH229076   2.507   1.109   0.972  0.0276  0.0627 -0.1060
 2506TIP3    H129077   2.582   1.049   0.976 -0.4184 -0.4924  0.0713
 2506TIP3    H229078   2.498   1.129   0.879  1.1484  1.1085 -0.0024
 2507TIP3   OH229079   4.239   5.532   0.474  0.3284  0.0139 -0.1009
 2507TIP3    H129080   4.281   5.604   0.428 -1.1358  0.1167 -1.3691
 2507TIP3    H229081   4.157   5.519   0.427 -0.2254 -1.3437  1.1746
 2508TIP3   OH229082   2.437   6.046   7.282 -0.1939 -0.2907 -0.1094
 2508TIP3    H129083   2.397   6.114   7.228  0.8999 -0.4359 -1.1496
 2508TIP3    H229084   2.388   5.967   7.261 -0.1808 -0.2195 -0.4129
 2509TIP3   OH229085   0.173   0.949   0.625  0.6236 -0.1451  0.3397
 2509TIP3    H129086   0.161   1.023   0.683  1.3605 -0.5061  0.9714
 2509TIP3    H229087   0.138   0.978   0.541  0.9409  0.9313  0.5662
 2510TIP3   OH229088   4.837   3.994   7.727  0.0592  0.3768  0.6433
 2510TIP3    H129089   4.777   4.057   7.768  0.7308  0.5158  1.4477
 2510TIP3    H229090   4.839   4.019   7.635 -0.7806  0.6448  0.6893
 2511TIP3   OH229091   3.225   0.884   7.544 -0.1572  0.2357 -0.0763
 2511TIP3    H129092   3.294   0.859   7.605 -0.6973  0.4739  0.6374
 2511TIP3    H229093   3.272   0.923   7.470  0.4203  1.2014  0.7818
 2512TIP3   OH229094   5.767   3.609   7.211 -0.2018  0.3768 -0.0041
 2512TIP3    H129095   5.812   3.642   7.134  0.0728 -0.5631 -0.2564
 2512TIP3    H229096   5.686   3.570   7.177 -0.1328  0.0589  0.1850
 2513TIP3   OH229097   6.797   4.228   0.797 -0.3794 -0.1017  0.0413
 2513TIP3    H129098   6.843   4.284   0.735 -1.1147  0.0487 -0.3665
 2513TIP3    H229099   6.851   4.149   0.801  0.8896  0.7610  0.9321
 2514TIP3   OH229100   5.094   1.728   7.296 -0.2446 -0.0399  0.1973
 2514TIP3    H129101   5.093   1.668   7.371  2.8123  0.9133  1.1522
 2514TIP3    H229102   5.125   1.811   7.331 -1.8405  1.4236 -1.5908
 2515TIP3   OH229103   5.788   6.752   7.464 -0.2565  0.4476 -0.6531
 2515TIP3    H129104   5.875   6.769   7.501  0.0379 -2.1900  0.1227
 2515TIP3    H229105   5.799   6.762   7.370  0.6427  1.0826 -0.4918
 2516TIP3   OH229106   6.371   6.114   7.826  0.2910  0.1803  0.1674
 2516TIP3    H129107   6.327   6.042   7.872  0.7846  0.7495  1.5759
 2516TIP3    H229108   6.438   6.071   7.774  1.2159 -0.3636  1.7267
 2517TIP3   OH229109   0.079   6.020   1.234 -0.3250  0.1417  0.4969
 2517TIP3    H129110  -0.015   6.019   1.217 -0.1290  1.3336 -0.8898
 2517TIP3    H229111   0.090   6.090   1.299 -0.0500  3.2094 -2.5384
 2518TIP3   OH229112   3.227   0.442   8.139  0.2106 -1.1023  0.1326
 2518TIP3    H129113   3.161   0.494   8.093  0.7943 -1.6716 -1.3928
 2518TIP3    H229114   3.242   0.490   8.221  1.1237  1.4994 -1.4385
 2519TIP3   OH229115   1.776   1.218   6.799 -0.0963  0.6288  0.1988
 2519TIP3    H129116   1.753   1.269   6.721 -1.0772  0.2418  0.2260
 2519TIP3    H229117   1.744   1.130   6.780 -0.5571  0.5881  1.1431
 2520TIP3   OH229118   4.858   1.474   7.690 -0.3899  0.4066  0.0929
 2520TIP3    H129119   4.943   1.437   7.667 -0.6094  0.4538 -0.8429
 2520TIP3    H229120   4.873   1.568   7.694 -0.3334  0.3922  0.2353
 2521TIP3   OH229121   6.597   5.745   1.073 -0.1085  0.3089  0.0273
 2521TIP3    H129122   6.614   5.837   1.095  1.4417  0.2101 -0.6231
 2521TIP3    H229123   6.563   5.748   0.984 -1.9682  0.3595  0.6859
 2522TIP3   OH229124   5.790   0.427   8.497 -0.5041  0.0293  0.5922
 2522TIP3    H129125   5.847   0.405   8.424 -0.4537  3.2771 -0.5149
 2522TIP3    H229126   5.702   0.403   8.468 -0.2115 -0.9639  0.5061
 2523TIP3   OH229127   2.817   5.523   8.185 -0.2491  0.3432 -0.6556
 2523TIP3    H129128   2.809   5.467   8.263  1.4575 -0.0038 -0.6935
 2523TIP3    H229129   2.910   5.520   8.163 -0.7435  0.1737 -2.9305
 2524TIP3   OH229130   3.116   5.704   0.355 -0.0082  0.3590  0.1687
 2524TIP3    H129131   3.025   5.724   0.376 -0.1116  0.4008 -0.3112
 2524TIP3    H229132   3.128   5.738   0.266 -0.5650 -2.8189 -1.2512
 2525TIP3   OH229133   3.311   2.469   0.335 -0.2014  0.3764 -0.0522
 2525TIP3    H129134   3.245   2.480   0.403 -1.4448  2.2036 -1.4724
 2525TIP3    H229135   3.338   2.377   0.343 -2.1078 -0.1300  1.2653
 2526TIP3   OH229136   0.660   1.861   1.619  0.1548  0.5303 -0.1191
 2526TIP3    H129137   0.680   1.778   1.660 -1.3009 -0.0800 -0.5793
 2526TIP3    H229138   0.566   1.859   1.605  0.2932  1.6440 -1.4573
 2527TIP3   OH229139   5.172   5.090   6.846 -0.1694  0.0767  0.3138
 2527TIP3    H129140   5.112   5.018   6.865  0.9085 -0.8399  0.3461
 2527TIP3    H229141   5.222   5.101   6.927 -1.0263  1.5905  0.6748
 2528TIP3   OH229142   6.332   4.398   1.216  0.3028 -0.2215 -0.4502
 2528TIP3    H129143   6.400   4.456   1.185  0.0783  0.1802 -0.2043
 2528TIP3    H229144   6.334   4.324   1.156 -0.1273  0.5323 -1.4220
 2529TIP3   OH229145   6.837   1.451   0.816 -0.0402 -0.6123 -0.2076
 2529TIP3    H129146   6.836   1.529   0.761  0.2983 -0.6607 -0.2842
 2529TIP3    H229147   6.917   1.460   0.868 -0.4757 -0.4430  0.4544
 2530TIP3   OH229148   2.660   3.079   7.831  0.3521  0.3950  0.1442
 2530TIP3    H129149   2.706   3.155   7.865  0.3376  0.5283 -0.1305
 2530TIP3    H229150   2.579   3.074   7.881 -0.3595  1.4538 -0.8609
 2531TIP3   OH229151   4.824   3.390   2.449 -0.8706  0.4960 -0.5621
 2531TIP3    H129152   4.823   3.313   2.506 -1.3877  0.4213 -0.6627
 2531TIP3    H229153   4.847   3.356   2.363  1.6532  0.8470 -0.0989
 2532TIP3   OH229154   1.782   3.749   1.440 -0.2983 -0.1501  0.3469
 2532TIP3    H129155   1.860   3.705   1.472  1.0665  1.5395 -0.5099
 2532TIP3    H229156   1.723   3.678   1.414  1.8476 -1.5081 -1.0996
 2533TIP3   OH229157   0.510   0.245   7.776 -0.3067 -0.3328 -0.1097
 2533TIP3    H129158   0.573   0.305   7.736  1.7613 -0.4643  2.5962
 2533TIP3    H229159   0.537   0.158   7.747  1.4537 -0.4673  1.7003
 2534TIP3   OH229160   4.678   4.144   0.608 -0.7680 -0.3293 -0.2003
 2534TIP3    H129161   4.706   4.140   0.517  3.1151 -0.7158  0.8432
 2534TIP3    H229162   4.688   4.054   0.640 -0.7799  0.0646  0.9357
 2535TIP3   OH229163   1.908   0.490   7.899 -0.5056  0.1237 -0.3151
 2535TIP3    H129164   1.827   0.465   7.944 -1.2743 -0.4675 -1.9489
 2535TIP3    H229165   1.906   0.440   7.818  1.0656  0.8014 -0.7984
 2536TIP3   OH229166   3.116   1.129   8.148 -0.4719 -0.6942 -0.1279
 2536TIP3    H129167   3.160   1.203   8.191 -1.9572  0.0924  0.1021
 2536TIP3    H229168   3.125   1.148   8.054 -2.7540  1.0180 -0.0722
 2537TIP3   OH229169   1.390   2.424   0.903  0.0092 -0.6235  0.0440
 2537TIP3    H129170   1.481   2.451   0.891 -0.2530  0.7652  0.8462
 2537TIP3    H229171   1.348   2.446   0.820  0.3949 -1.2686 -0.3293
 2538TIP3   OH229172   0.056   1.061   8.110  0.2386 -0.2087  0.6209
 2538TIP3    H129173   0.148   1.088   8.107 -0.4128  2.1085 -1.0390
 2538TIP3    H229174   0.013   1.130   8.162 -0.6879 -0.8822  0.7632
 2539TIP3   OH229175   5.752   1.030   7.658 -0.5736 -0.3136  0.1021
 2539TIP3    H129176   5.659   1.053   7.659 -0.7150 -0.8264 -0.8187
 2539TIP3    H229177   5.761   0.964   7.727 -1.1253 -1.1331 -0.6047
 2540TIP3   OH229178   5.510   4.899   7.426  0.3586  0.1012  0.2870
 2540TIP3    H129179   5.576   4.939   7.483 -0.0968 -1.9711  2.4533
 2540TIP3    H229180   5.545   4.813   7.405 -0.8259 -0.3333 -0.0201
 2541TIP3   OH229181   5.746   4.923   8.185  0.4243  0.6062  0.4228
 2541TIP3    H129182   5.702   4.931   8.101  0.6577 -0.8003  0.1364
 2541TIP3    H229183   5.675   4.915   8.249  0.2179 -1.4595 -0.0127
 2542TIP3   OH229184   3.383   3.174   8.395  0.1520 -0.0260 -0.0237
 2542TIP3    H129185   3.370   3.080   8.380  2.2805 -0.4616  0.4976
 2542TIP3    H229186   3.452   3.199   8.333  1.8885  0.4170  1.9681
 2543TIP3   OH229187   6.733   1.068   1.077 -0.0204  0.8549 -0.4002
 2543TIP3    H129188   6.784   1.068   0.996  1.5780 -0.3209  0.5349
 2543TIP3    H229189   6.686   1.151   1.076  1.6543  1.8675 -1.5068
 2544TIP3   OH229190   1.770   6.477   0.315 -0.4589  0.3042  0.5368
 2544TIP3    H129191   1.771   6.388   0.350  0.0674  0.7862  1.8370
 2544TIP3    H229192   1.841   6.480   0.251  1.7484  0.6279  2.8483
 2545TIP3   OH229193   0.485   6.308   7.202  0.0406 -0.1807  0.4904
 2545TIP3    H129194   0.502   6.392   7.160  0.3440 -0.5892 -0.2208
 2545TIP3    H229195   0.529   6.314   7.287 -1.0834  0.8801  1.0328
 2546TIP3   OH229196   3.713   5.068   0.260 -0.0599 -0.1611  0.6834
 2546TIP3    H129197   3.773   5.061   0.334  0.6458 -0.3055  0.1065
 2546TIP3    H229198   3.729   4.989   0.208 -1.5171 -0.7465  1.0652
 2547TIP3   OH229199   6.676   2.248   8.331 -0.4760 -0.0813 -0.1356
 2547TIP3    H129200   6.720   2.170   8.297  1.7476  1.1104 -0.1830
 2547TIP3    H229201   6.641   2.292   8.254 -1.2229 -0.7204 -0.1677
 2548TIP3   OH229202   4.590   4.546   8.449 -0.3962  0.5346  0.1981
 2548TIP3    H129203   4.545   4.492   8.385 -1.0415 -0.9481  1.8111
 2548TIP3    H229204   4.635   4.613   8.398 -2.1245  0.3533 -1.6592
 2549TIP3   OH229205   0.293   0.568   0.011  0.0253  0.3512 -0.1841
 2549TIP3    H129206   0.222   0.551   0.074 -0.0493  0.4711 -0.2352
 2549TIP3    H229207   0.252   0.556  -0.075  0.0028  0.6633 -0.2188
 2550TIP3   OH229208   3.274   5.429   7.800 -0.0092  0.3404 -0.0912
 2550TIP3    H129209   3.350   5.395   7.753  0.5459  1.2859  0.1132
 2550TIP3    H229210   3.306   5.505   7.848 -0.8123  0.0360  0.9717
 2551TIP3   OH229211   2.146   2.189   7.175  0.4625 -0.0476  1.0218
 2551TIP3    H129212   2.218   2.201   7.113 -0.0995  0.2090  0.4035
 2551TIP3    H229213   2.149   2.267   7.231  1.2113 -0.4636  1.5833
 2552TIP3   OH229214   4.414   0.974   0.038  0.0184  0.5795  0.0437
 2552TIP3    H129215   4.414   0.928  -0.046  0.5159 -0.1181  0.4196
 2552TIP3    H229216   4.440   0.908   0.102  1.2534  1.5037  0.5353
 2553TIP3   OH229217   0.642   4.167   0.730 -0.6721 -0.0283  0.6678
 2553TIP3    H129218   0.727   4.130   0.705  0.1302  1.3957  1.2208
 2553TIP3    H229219   0.620   4.122   0.811 -0.3520 -0.2413  0.6400
 2554TIP3   OH229220   0.100   4.897   0.665 -0.0813 -0.3136  0.7613
 2554TIP3    H129221   0.165   4.960   0.632  0.6505 -1.4526 -0.0182
 2554TIP3    H229222   0.018   4.946   0.666  0.9419  1.5707  2.9557
 2555TIP3   OH229223   1.252   1.229   1.218 -0.2523  0.2965  0.2034
 2555TIP3    H129224   1.191   1.201   1.149  0.2794  1.0958 -0.6143
 2555TIP3    H229225   1.282   1.147   1.257  1.5642 -0.4135 -2.3912
 2556TIP3   OH229226   3.610   3.518   6.712  0.3184  0.4805  0.3979
 2556TIP3    H129227   3.630   3.451   6.647 -1.4572  0.1629  0.1300
 2556TIP3    H229228   3.693   3.533   6.757  1.1848 -0.5343 -0.7818
 2557TIP3   OH229229   5.140   1.516   0.888  0.0324 -0.7117  0.5400
 2557TIP3    H129230   5.167   1.545   0.975 -1.0053 -1.8494  1.2731
 2557TIP3    H229231   5.073   1.450   0.904  1.2288 -2.4267 -1.0824
 2558TIP3   OH229232   0.736   1.549   7.058 -0.1645  0.0418 -0.3225
 2558TIP3    H129233   0.733   1.482   6.990 -1.9281 -0.4964  0.2294
 2558TIP3    H229234   0.809   1.606   7.032  0.7851 -1.5369 -1.2978
 2559TIP3   OH229235   2.965   0.843   7.594  0.3920  0.0691  0.0271
 2559TIP3    H129236   3.054   0.856   7.562 -0.1581  1.4494 -1.0362
 2559TIP3    H229237   2.939   0.929   7.628 -0.5244 -0.3314  0.3784
 2560TIP3   OH229238   2.234   4.374   7.408  0.1785  0.4898  0.3710
 2560TIP3    H129239   2.145   4.364   7.374  0.5129  0.8538 -0.6442
 2560TIP3    H229240   2.226   4.351   7.501 -0.6797 -0.9639 -0.0174
 2561TIP3   OH229241   4.915   6.678   7.892 -0.8214 -0.1615  0.4165
 2561TIP3    H129242   4.998   6.656   7.936  0.5823 -1.0357 -2.4326
 2561TIP3    H229243   4.915   6.773   7.887  2.0670 -0.1408 -2.8683
 2562TIP3   OH229244   6.529   2.953   7.545 -0.1509  0.5436  0.0581
 2562TIP3    H129245   6.489   2.990   7.624  1.9723 -2.4350  2.7895
 2562TIP3    H229246   6.476   2.875   7.526  0.6154  0.0592 -0.1261
 2563TIP3   OH229247   6.059   3.506   2.396 -0.5866  0.2323 -0.2760
 2563TIP3    H129248   6.140   3.554   2.381  0.0015 -1.0072 -1.2378
 2563TIP3    H229249   6.075   3.419   2.361 -2.2021 -0.1750 -0.1217
 2564TIP3   OH229250   4.927   2.483   6.710  0.2769 -0.1598  0.1699
 2564TIP3    H129251   4.983   2.433   6.649  1.1781  0.2209  0.6682
 2564TIP3    H229252   4.920   2.426   6.787 -0.1769 -0.2818  0.0403
 2565TIP3   OH229253   5.472   1.442   8.108  0.0992 -0.4680 -0.3854
 2565TIP3    H129254   5.538   1.424   8.176 -2.1449 -0.6667  1.9099
 2565TIP3    H229255   5.511   1.509   8.053  1.0107  1.8888  2.8690
 2566TIP3   OH229256   4.323   2.659   8.305  0.2866  0.1951 -0.1961
 2566TIP3    H129257   4.307   2.718   8.231  1.3122  1.6285  0.6533
 2566TIP3    H229258   4.305   2.713   8.382  3.3169  0.1514  0.6667
 2567TIP3   OH229259   5.045   3.991   6.064  0.5682  0.2590  0.7355
 2567TIP3    H129260   5.021   4.082   6.082 -0.2919 -0.1155  1.6519
 2567TIP3    H229261   5.131   3.995   6.024 -0.4237  1.6249 -1.4315
 2568TIP3   OH229262   4.022   5.329   2.105 -0.7138  0.7991 -0.2121
 2568TIP3    H129263   4.054   5.240   2.123 -0.0644  0.8762 -0.9602
 2568TIP3    H229264   3.928   5.324   2.122 -0.6049  0.0891  0.2142
 2569TIP3   OH229265   3.544   3.039   1.846 -0.5323 -0.2063  0.0097
 2569TIP3    H129266   3.611   3.020   1.912 -1.5944 -0.4001  1.0680
 2569TIP3    H229267   3.473   3.081   1.896  0.2364  3.4670 -1.6017
 2570TIP3   OH229268   0.268   5.604   7.217 -0.3005  0.6929 -0.7738
 2570TIP3    H129269   0.209   5.533   7.195 -1.1260  1.3307 -0.6601
 2570TIP3    H229270   0.251   5.672   7.151  0.6402  0.7075 -1.0255
 2571TIP3   OH229271   4.474   0.699   7.111  0.8999 -0.2756  0.1676
 2571TIP3    H129272   4.394   0.687   7.162  0.9765  0.0132  0.3563
 2571TIP3    H229273   4.445   0.710   7.021  0.7003  0.3352  0.3073
 2572TIP3   OH229274   0.803   3.053   0.853  0.9038  0.5250 -0.5786
 2572TIP3    H129275   0.831   3.109   0.926  0.1305  1.8026 -1.2203
 2572TIP3    H229276   0.884   3.015   0.819  1.4824  1.4507 -0.2617
 2573TIP3   OH229277   2.957   3.961   6.397 -0.0636 -0.3443  0.0811
 2573TIP3    H129278   2.883   3.966   6.336  0.1209  0.3274 -0.1017
 2573TIP3    H229279   3.001   4.046   6.388 -0.5476  0.1391  1.8147
 2574TIP3   OH229280   0.722   6.179   7.740  0.2537  0.3658  0.3735
 2574TIP3    H129281   0.701   6.264   7.778 -1.8619  1.1399 -2.1953
 2574TIP3    H229282   0.703   6.116   7.809 -0.3657  1.8519  1.6112
 2575TIP3   OH229283   2.287   1.642   1.830  0.0590 -0.1358  0.4088
 2575TIP3    H129284   2.217   1.577   1.832  1.7260 -2.0881 -0.9657
 2575TIP3    H229285   2.243   1.725   1.850 -2.3374 -1.4869  1.1261
 2576TIP3   OH229286   0.786   4.107   8.146  0.0483  0.2814  0.1142
 2576TIP3    H129287   0.744   4.074   8.066  0.9226 -0.9655  0.1455
 2576TIP3    H229288   0.740   4.189   8.165 -1.0453 -0.0612 -0.9333
 2577TIP3   OH229289   3.036   1.382   0.649 -0.4167 -0.1070 -0.9224
 2577TIP3    H129290   2.982   1.347   0.719  1.1748 -1.4031 -0.2812
 2577TIP3    H229291   3.084   1.306   0.615 -0.3359  0.6801 -2.6810
 2578TIP3   OH229292   4.155   0.335   0.300  0.2006 -1.0558  0.2845
 2578TIP3    H129293   4.069   0.369   0.278  1.5808  2.1004 -0.8799
 2578TIP3    H229294   4.139   0.267   0.365 -3.0829  0.1191  0.8746
 2579TIP3   OH229295   3.141   4.664   6.633 -0.0651  0.3876  0.1177
 2579TIP3    H129296   3.212   4.697   6.687  0.5327 -1.0706  0.2574
 2579TIP3    H229297   3.065   4.663   6.692  0.3543 -0.2443  0.6737
 2580TIP3   OH229298   2.236   6.017   8.057 -0.3685 -0.0733  0.0843
 2580TIP3    H129299   2.167   5.960   8.090  0.8842 -0.1347  2.8872
 2580TIP3    H229300   2.294   5.958   8.008 -0.1989 -0.8206  1.1587
 2581TIP3   OH229301   6.284   1.283   0.477 -0.1800 -0.1435  0.1763
 2581TIP3    H129302   6.223   1.209   0.475  0.1463 -0.4084 -1.0031
 2581TIP3    H229303   6.260   1.332   0.555 -1.5507 -0.5483  0.0379
 2582TIP3   OH229304   2.793   1.738   7.448  0.4300 -0.2360 -0.4603
 2582TIP3    H129305   2.769   1.648   7.427  1.0882 -0.9261  1.5372
 2582TIP3    H229306   2.887   1.735   7.466  0.2908  0.6517  0.5197
 2583TIP3   OH229307   4.185   3.081   8.023  0.1022 -0.4876 -0.0899
 2583TIP3    H129308   4.232   3.137   7.960 -2.7357  3.2869  0.7809
 2583TIP3    H229309   4.179   3.135   8.102  0.6247 -3.7668  2.3859
 2584TIP3   OH229310   4.824   2.076   0.513  0.5328 -0.2612  0.2508
 2584TIP3    H129311   4.916   2.050   0.506  0.1455 -1.9194  0.9799
 2584TIP3    H229312   4.816   2.110   0.602  0.3933 -0.2298  0.2257
 2585TIP3   OH229313   1.664   3.408   0.663 -0.4409 -0.6661  0.5814
 2585TIP3    H129314   1.731   3.423   0.730 -0.8105 -1.0668  1.0441
 2585TIP3    H229315   1.684   3.472   0.594  0.9823 -1.3874  0.2935
 2586TIP3   OH229316   5.992   5.313   7.384  0.5183 -0.4310 -0.2345
 2586TIP3    H129317   5.989   5.361   7.467 -0.4086  0.2381 -0.6390
 2586TIP3    H229318   5.931   5.359   7.327  0.6508 -1.2724 -1.0900
 2587TIP3   OH229319   2.671   2.797   0.569  0.7326 -0.1036 -0.5756
 2587TIP3    H129320   2.724   2.868   0.606  1.2347  0.1224 -1.6958
 2587TIP3    H229321   2.648   2.827   0.481 -1.2425 -0.2316 -0.1455
 2588TIP3   OH229322   3.886   3.831   7.572 -0.2793  0.3917 -0.0960
 2588TIP3    H129323   3.797   3.809   7.542  0.9324 -2.5040 -2.0290
 2588TIP3    H229324   3.943   3.800   7.502  2.2846  3.6853  0.2873
 2589TIP3   OH229325   0.936   6.310   8.204  0.0945 -0.4882  0.0681
 2589TIP3    H129326   0.986   6.377   8.252 -0.5730 -0.2165  0.3971
 2589TIP3    H229327   0.940   6.233   8.261 -0.7977 -0.1305  0.6416
 2590TIP3   OH229328   1.749   4.865   7.895 -0.3732  0.3317  0.0518
 2590TIP3    H129329   1.716   4.778   7.872  0.2402 -0.1394  0.9204
 2590TIP3    H229330   1.800   4.892   7.818 -0.5582 -0.0791 -0.2162
 2591TIP3   OH229331   6.746   6.561   8.533  0.1348 -0.2417 -0.0729
 2591TIP3    H129332   6.833   6.598   8.540 -0.0778  0.5063 -1.1558
 2591TIP3    H229333   6.687   6.633   8.555 -0.2185 -0.6001  0.1658
 2592TIP3   OH229334   0.808   3.221   8.121 -0.3202 -0.4190  0.0956
 2592TIP3    H129335   0.716   3.200   8.139 -0.4558  1.0986  1.4389
 2592TIP3    H229336   0.844   3.142   8.082 -1.8237 -1.5684  0.9425
 2593TIP3   OH229337   2.646   0.047   0.255 -0.5247 -0.4137  0.1967
 2593TIP3    H129338   2.694   0.005   0.327  0.6950 -0.9236 -0.8839
 2593TIP3    H229339   2.619  -0.026   0.199 -1.9336 -0.0600  0.3938
 2594TIP3   OH229340   3.753   2.716   1.371  0.1591  0.5848  0.0765
 2594TIP3    H129341   3.794   2.731   1.285 -0.1733  1.2102  0.0222
 2594TIP3    H229342   3.671   2.672   1.351  0.0295  0.8306  0.0631
 2595TIP3   OH229343   0.782   5.105   0.270 -0.1401 -0.1076  0.9296
 2595TIP3    H129344   0.813   5.187   0.308  0.8352  0.1663 -0.3736
 2595TIP3    H229345   0.705   5.129   0.219  0.4923  0.1413  0.0567
 2596TIP3   OH229346   6.790   0.696   0.396  0.6563 -0.1245  0.3154
 2596TIP3    H129347   6.789   0.647   0.478  1.7359 -0.3269  0.2304
 2596TIP3    H229348   6.702   0.732   0.387  0.5946  0.1080  1.6847
 2597TIP3   OH229349   1.439   0.231   7.097  0.0910 -0.0602  0.3886
 2597TIP3    H129350   1.365   0.216   7.038 -0.4695 -2.1425  1.5193
 2597TIP3    H229351   1.491   0.150   7.092  2.2822  1.2997 -0.2875
 2598TIP3   OH229352   2.699   1.879   7.681 -0.0400 -0.2928  0.7494
 2598TIP3    H129353   2.629   1.934   7.647  0.0974 -0.2798  0.4822
 2598TIP3    H229354   2.742   1.844   7.602  1.5814  1.3470  0.8514
 2599TIP3   OH229355   3.203   1.713   0.864 -0.5708 -0.3384 -0.3309
 2599TIP3    H129356   3.169   1.689   0.778 -0.8804  0.6906 -0.5187
 2599TIP3    H229357   3.133   1.766   0.903  0.7850  1.9571 -0.7835
 2600TIP3   OH229358   1.755   6.508   1.103 -0.1111  0.1274 -0.1491
 2600TIP3    H129359   1.836   6.493   1.153 -1.3275  0.4003  2.0583
 2600TIP3    H229360   1.713   6.582   1.148 -2.8485 -1.6749  0.5145
 2601TIP3   OH229361   4.939   2.237   1.717  0.3811 -0.4157 -0.9359
 2601TIP3    H129362   4.885   2.208   1.643 -1.1907 -1.3476  0.4850
 2601TIP3    H229363   4.950   2.331   1.704 -1.5971 -0.1971 -1.3064
 2602TIP3   OH229364   6.179   3.569   0.133 -0.3969  0.2865 -0.0845
 2602TIP3    H129365   6.147   3.495   0.082 -0.3159 -0.0777  0.3914
 2602TIP3    H229366   6.267   3.586   0.099  0.1057 -0.6784  0.6803
 2603TIP3   OH229367   2.717   4.887   8.034  0.0092 -0.2710  0.3843
 2603TIP3    H129368   2.778   4.959   8.017  0.3601 -0.4695  0.7833
 2603TIP3    H229369   2.700   4.891   8.128 -0.4531 -0.3279  0.3028
 2604TIP3   OH229370   1.747   1.227   1.777  0.2402 -0.2139  0.1923
 2604TIP3    H129371   1.727   1.314   1.742  0.3730  0.5822  1.9344
 2604TIP3    H229372   1.813   1.244   1.845 -0.2265 -1.5870  1.0306
 2605TIP3   OH229373   5.666   3.628   0.347  0.3998  0.5061 -0.3429
 2605TIP3    H129374   5.689   3.638   0.440  0.8669 -1.3322 -0.2266
 2605TIP3    H229375   5.629   3.540   0.341  0.1420  0.6904 -1.8726
 2606TIP3   OH229376   6.667   3.652   1.980 -0.4432 -0.3922  0.3207
 2606TIP3    H129377   6.630   3.647   2.068  0.1775 -1.6849  0.5360
 2606TIP3    H229378   6.713   3.736   1.977 -0.6685 -0.2361  1.1449
 2607TIP3   OH229379   4.722   1.946   6.662 -0.2518  0.5526  0.5903
 2607TIP3    H129380   4.669   1.966   6.584 -1.9996 -0.5779  1.4268
 2607TIP3    H229381   4.811   1.935   6.629 -0.6585  1.6748 -1.0004
 2608TIP3   OH229382   3.791   0.588   8.609  0.4406  0.8008  0.1907
 2608TIP3    H129383   3.868   0.541   8.641 -0.4249 -0.8535 -0.0487
 2608TIP3    H229384   3.733   0.592   8.685  0.9075  2.4606  0.5036
 2609TIP3   OH229385   4.030   5.876   0.718 -0.2091 -0.0840 -0.1633
 2609TIP3    H129386   4.090   5.901   0.788 -0.3950 -0.9118  0.3003
 2609TIP3    H229387   4.044   5.782   0.707 -0.6274 -0.0782 -0.8179
 2610TIP3   OH229388   3.085   1.688   7.456 -0.2611  0.0918  1.2210
 2610TIP3    H129389   3.111   1.689   7.364  1.6564 -0.9183  1.7088
 2610TIP3    H229390   3.139   1.756   7.497 -0.2602 -0.2575  1.8070
 2611TIP3   OH229391   1.814   4.244   1.066 -0.1802  0.3761  0.1890
 2611TIP3    H129392   1.739   4.300   1.085  0.5001  1.6823 -0.7664
 2611TIP3    H229393   1.876   4.263   1.136  0.6373  2.0101 -0.8929
 2612TIP3   OH229394   0.659   3.026   5.952 -0.5378 -0.4171  0.5068
 2612TIP3    H129395   0.711   3.080   5.893 -1.1492 -1.0496 -0.6517
 2612TIP3    H229396   0.681   3.057   6.040  1.7691 -0.6494  0.0578
 2613TIP3   OH229397   3.227   6.629   7.564  0.2476  0.3329  0.8495
 2613TIP3    H129398   3.190   6.569   7.499 -1.1002  0.9795  0.9892
 2613TIP3    H229399   3.200   6.592   7.648 -0.4100  1.0019  0.9417
 2614TIP3   OH229400   0.060   5.176   0.582  1.0380 -0.6148  0.2466
 2614TIP3    H129401   0.006   5.237   0.632  1.5877 -0.4241  0.6145
 2614TIP3    H229402   0.064   5.214   0.494 -0.1744 -1.1036 -0.0446
 2615TIP3   OH229403   4.456   3.564   1.317 -0.0556  0.4259  0.1075
 2615TIP3    H129404   4.536   3.512   1.331  0.1641  0.2581 -1.6347
 2615TIP3    H229405   4.439   3.557   1.224 -2.9193 -0.7044  0.6229
 2616TIP3   OH229406   1.117   6.614   2.007  0.0247 -0.7938  0.2135
 2616TIP3    H129407   1.081   6.526   1.992 -0.6123 -0.5313  0.1809
 2616TIP3    H229408   1.148   6.612   2.098  1.2362 -1.4670 -0.1956
 2617TIP3   OH229409   3.772   0.324   1.539 -0.2304 -0.0607 -0.3585
 2617TIP3    H129410   3.850   0.271   1.524  0.9204  0.9951  1.4503
 2617TIP3    H229411   3.699   0.265   1.521  0.9642 -1.2104 -1.6882
 2618TIP3   OH229412   5.021   2.552   7.495 -0.1088  0.0719  0.6854
 2618TIP3    H129413   5.115   2.544   7.479 -0.3797 -0.2644 -0.8963
 2618TIP3    H229414   5.006   2.504   7.576  0.9381 -0.6754  0.4519
 2619TIP3   OH229415   0.911   4.591   0.942  0.4169  0.8768  0.0427
 2619TIP3    H129416   0.934   4.627   1.028  2.7721  0.2124 -0.2345
 2619TIP3    H229417   0.926   4.663   0.881  1.2077  0.6209 -0.0725
 2620TIP3   OH229418   0.391   1.761   7.945  0.4877  0.1105 -0.3565
 2620TIP3    H129419   0.351   1.763   7.858  2.1746 -0.7316 -1.2154
 2620TIP3    H229420   0.328   1.804   8.002 -0.3690  1.3027 -2.1238
 2621TIP3   OH229421   0.101   5.996   0.230  0.0781  0.7875 -0.3230
 2621TIP3    H129422   0.162   5.997   0.157  0.7583  2.0871  0.2272
 2621TIP3    H229423   0.016   6.014   0.190  0.7370  3.6574 -0.6118
 2622TIP3   OH229424   5.730   1.434   1.303  0.4647 -0.7452 -0.4949
 2622TIP3    H129425   5.798   1.439   1.370  0.7234  2.1357 -0.8536
 2622TIP3    H229426   5.778   1.431   1.220  0.1630 -0.2595 -0.6910
 2623TIP3   OH229427   3.656   5.800   0.520 -0.0835 -0.4196 -0.5044
 2623TIP3    H129428   3.598   5.823   0.447 -0.0626  1.6195  0.0639
 2623TIP3    H229429   3.715   5.874   0.528 -0.3062 -0.4219  1.7962
 2624TIP3   OH229430   3.639   1.147   6.411  0.4999 -0.0493  0.3933
 2624TIP3    H129431   3.577   1.195   6.356  0.2502 -0.6918  0.1042
 2624TIP3    H229432   3.586   1.082   6.457  1.1906 -1.9556 -1.3514
 2625TIP3   OH229433   6.248   1.089   6.704 -0.3906 -0.4285  0.0934
 2625TIP3    H129434   6.321   1.147   6.682 -2.3584  2.6015  1.0153
 2625TIP3    H229435   6.226   1.110   6.795 -2.5210 -1.0724 -0.2103
 2626TIP3   OH229436   5.713   3.546   1.299  0.7345 -0.1391 -0.0268
 2626TIP3    H129437   5.764   3.510   1.371 -0.2756 -0.1115  0.7377
 2626TIP3    H229438   5.645   3.598   1.342  0.1257 -0.1035 -1.0023
 2627TIP3   OH229439   4.099   5.158   0.482 -0.4720 -0.1057 -0.0502
 2627TIP3    H129440   4.059   5.234   0.525 -0.9082 -0.2210 -0.2382
 2627TIP3    H229441   4.030   5.091   0.483 -0.4192 -0.1756 -0.7443
 2628TIP3   OH229442   4.281   2.594   7.095 -0.2536 -0.8284  0.2658
 2628TIP3    H129443   4.246   2.599   7.184  0.9205  2.0918  0.7052
 2628TIP3    H229444   4.376   2.587   7.106 -0.1205 -0.8434 -0.7444
 2629TIP3   OH229445   6.186   4.276   0.845  0.1217 -0.2675 -0.0968
 2629TIP3    H129446   6.105   4.249   0.802  0.1195 -0.0361 -0.2372
 2629TIP3    H229447   6.185   4.372   0.841  0.3756 -0.2617 -0.0514
 2630TIP3   OH229448   4.605   1.520   7.674 -0.7197  0.3603 -0.2123
 2630TIP3    H129449   4.700   1.514   7.662 -0.8871  0.2994 -1.7379
 2630TIP3    H229450   4.583   1.446   7.731 -0.0372 -0.6417 -1.1981
 2631TIP3   OH229451   2.764   0.008   7.402 -0.1243  0.3138 -0.7332
 2631TIP3    H129452   2.771   0.103   7.391 -2.0022  0.7730  1.2159
 2631TIP3    H229453   2.842  -0.016   7.453  1.5750  0.3345 -3.1535
 2632TIP3   OH229454   5.586   6.701   6.466  0.0345  0.2949 -0.1638
 2632TIP3    H129455   5.652   6.644   6.427 -0.7300 -0.8548  0.1767
 2632TIP3    H229456   5.633   6.747   6.536  0.2893 -1.2016  0.7021
 2633TIP3   OH229457   5.018   4.852   6.229  0.2731 -0.4247  0.2291
 2633TIP3    H129458   5.012   4.921   6.295 -0.2449 -1.5201  1.3716
 2633TIP3    H229459   4.927   4.834   6.204  0.4793  0.3392 -1.2259
 2634TIP3   OH229460   6.603   5.510   0.178  0.8751  0.0473 -0.0712
 2634TIP3    H129461   6.525   5.510   0.123  0.1480  0.8396  0.9298
 2634TIP3    H229462   6.591   5.435   0.237 -0.4882  1.7115  1.8892
 2635TIP3   OH229463   4.828   6.350   7.563  0.2018 -0.1945  0.6711
 2635TIP3    H129464   4.819   6.286   7.493 -1.4115 -0.7393  1.3107
 2635TIP3    H229465   4.863   6.301   7.637  1.4985  0.2833  0.3975
 2636TIP3   OH229466   3.215   6.292   0.855  0.1172  0.1118 -0.4869
 2636TIP3    H129467   3.230   6.202   0.883 -0.8127 -0.5896 -2.1037
 2636TIP3    H229468   3.244   6.293   0.763 -2.2576  0.7380 -1.2941
 2637TIP3   OH229469   1.535   5.534   8.485 -0.0384  0.4353  0.2308
 2637TIP3    H129470   1.605   5.540   8.420  0.7550 -0.0119  1.0049
 2637TIP3    H229471   1.468   5.481   8.443  0.7612 -0.4403  0.0078
 2638TIP3   OH229472   5.993   3.753   8.004  0.0953  0.0360  0.0949
 2638TIP3    H129473   6.071   3.699   7.994  0.7017  0.8008  0.6222
 2638TIP3    H229474   6.025   3.835   8.043 -0.7526  0.8818 -0.9137
 2639TIP3   OH229475   3.023   5.807   6.939  0.6544  0.1835 -0.9066
 2639TIP3    H129476   3.026   5.740   6.871  1.9355  0.2032 -0.8951
 2639TIP3    H229477   3.045   5.888   6.893  0.3964  0.3901 -0.6740
 2640TIP3   OH229478   2.448   4.464   0.806 -0.1999  0.5390  0.0076
 2640TIP3    H129479   2.456   4.553   0.839 -0.4557  0.6931 -0.3432
 2640TIP3    H229480   2.354   4.445   0.810  0.0844 -0.9825  3.3972
 2641TIP3   OH229481   2.084   0.281   1.811  0.2137 -0.2217  0.1997
 2641TIP3    H129482   2.015   0.232   1.765  0.4780 -0.7667  0.3807
 2641TIP3    H229483   2.037   0.332   1.877 -0.0294 -0.4971  0.2397
 2642TIP3   OH229484   2.752   2.703   6.119  0.1099 -0.6440  0.2524
 2642TIP3    H129485   2.807   2.781   6.126  0.0372 -0.5325 -0.4236
 2642TIP3    H229486   2.664   2.734   6.140 -0.0307 -0.4034 -0.6789
 2643TIP3   OH229487   5.119   5.298   0.854  0.5657 -0.4566 -0.0837
 2643TIP3    H129488   5.202   5.291   0.808  0.5807  2.2955 -0.6241
 2643TIP3    H229489   5.060   5.339   0.791 -0.0248  1.4055  1.5921
 2644TIP3   OH229490   3.747   3.955   0.537  0.2999  0.2028 -0.4316
 2644TIP3    H129491   3.788   4.039   0.558  0.1827  0.0028  0.6540
 2644TIP3    H229492   3.703   3.970   0.454  0.3093  1.2100 -0.2654
 2645TIP3   OH229493   3.826   5.322   8.409 -0.0543  0.0647 -0.4779
 2645TIP3    H129494   3.832   5.233   8.444 -2.0940  0.4797  1.1576
 2645TIP3    H229495   3.865   5.377   8.477  0.7868  0.4618 -1.2791
 2646TIP3   OH229496   1.971   0.786   8.327  0.4629  0.4516 -0.0854
 2646TIP3    H129497   1.935   0.702   8.356  1.2274  0.3283  0.5338
 2646TIP3    H229498   1.916   0.811   8.253 -0.2745 -0.2006  0.2313
 2647TIP3   OH229499   5.354   5.151   1.468  0.4394 -0.3969 -0.4625
 2647TIP3    H129500   5.259   5.161   1.458  0.0929 -2.2793  0.4125
 2647TIP3    H229501   5.391   5.224   1.419 -1.4746  0.9158 -0.0807
 2648TIP3   OH229502   4.653   3.943   0.807  0.3813 -0.3210  0.1505
 2648TIP3    H129503   4.736   3.983   0.834  0.4604 -0.1640 -0.3172
 2648TIP3    H229504   4.596   3.953   0.884  0.3326  0.8949 -0.0236
 2649TIP3   OH229505   4.166   1.121   7.170 -0.0164  0.1270  0.2414
 2649TIP3    H129506   4.233   1.107   7.237 -0.1270 -0.3704  0.2482
 2649TIP3    H229507   4.209   1.176   7.104  1.2196 -2.1762 -0.9873
 2650TIP3   OH229508   2.248   0.178   0.436 -0.2962 -0.1488  0.4288
 2650TIP3    H129509   2.176   0.220   0.389 -0.7889  0.5989  1.7975
 2650TIP3    H229510   2.216   0.171   0.526  2.0502  2.0792  1.5692
 2651TIP3   OH229511   4.411   5.523   2.072 -0.1096 -0.0091 -0.2045
 2651TIP3    H129512   4.398   5.500   1.980  0.5968 -0.1056 -0.2818
 2651TIP3    H229513   4.337   5.482   2.117 -1.0943  0.9799 -0.8591
 2652TIP3   OH229514   6.622   0.288   0.866 -0.0534 -0.3442  0.0457
 2652TIP3    H129515   6.578   0.262   0.785  0.8630  0.1909 -0.6392
 2652TIP3    H229516   6.555   0.276   0.934 -0.8341 -0.8070 -0.7765
 2653TIP3   OH229517   2.721   6.460   8.407 -0.4895  0.1777 -0.1115
 2653TIP3    H129518   2.735   6.504   8.323 -0.9727  0.1112 -0.2337
 2653TIP3    H229519   2.803   6.470   8.454  0.3858 -1.2594 -1.2498
 2654TIP3   OH229520   5.578   6.262   6.134 -0.8806  0.8288  0.2614
 2654TIP3    H129521   5.499   6.216   6.106 -0.2451 -0.0907 -0.0773
 2654TIP3    H229522   5.648   6.197   6.126 -0.4867  0.7514  3.1437
 2655TIP3   OH229523   4.872   3.313   7.131 -0.2846 -0.2593 -0.1741
 2655TIP3    H129524   4.830   3.244   7.079 -1.1709  0.5627 -0.5811
 2655TIP3    H229525   4.849   3.291   7.221  2.1745 -2.3233  0.0931
 2656TIP3   OH229526   5.003   3.806   2.060 -0.4507 -0.2749  0.5063
 2656TIP3    H129527   4.999   3.730   2.118  0.6379  1.8790  3.6132
 2656TIP3    H229528   5.090   3.801   2.021  0.4830  0.4350  2.3824
 2657TIP3   OH229529   2.828   6.327   8.721  0.0693 -0.2047  0.5779
 2657TIP3    H129530   2.900   6.285   8.768  0.5569 -1.6654 -1.3808
 2657TIP3    H229531   2.827   6.286   8.635 -1.3502  1.7599 -0.4286
 2658TIP3   OH229532   0.638   2.530   1.218  0.2406 -0.3576 -0.1484
 2658TIP3    H129533   0.545   2.507   1.217 -0.0221  0.6705 -0.6137
 2658TIP3    H229534   0.655   2.565   1.131  1.3534 -1.5800 -0.4669
 2659TIP3   OH229535   4.005   3.984   7.758 -0.6033  0.3528 -0.2894
 2659TIP3    H129536   3.948   3.949   7.689  0.4335  0.3638 -1.1788
 2659TIP3    H229537   3.952   3.978   7.838 -1.6853 -0.0439 -1.0050
 2660TIP3   OH229538   6.302   0.877   0.995  0.1647 -0.5620 -0.0712
 2660TIP3    H129539   6.285   0.789   0.963  0.1151 -0.3946 -0.5112
 2660TIP3    H229540   6.343   0.922   0.921  0.3564 -0.2701  0.2087
 2661TIP3   OH229541   1.276   6.148   0.441 -0.4655  0.0391  0.2057
 2661TIP3    H129542   1.317   6.106   0.365 -1.8067  1.5307 -1.4110
 2661TIP3    H229543   1.182   6.134   0.428 -0.8802  2.4814  0.2111
 2662TIP3   OH229544   5.698   2.276   7.506  0.8138  0.7625  0.0866
 2662TIP3    H129545   5.681   2.223   7.428  3.1015  0.7138 -0.4794
 2662TIP3    H229546   5.725   2.362   7.471  2.6342  0.5056  0.7216
 2663TIP3   OH229547   5.849   2.102   7.266 -0.4801  0.3096  0.6548
 2663TIP3    H129548   5.770   2.143   7.229 -0.4574 -0.7839 -0.6814
 2663TIP3    H229549   5.819   2.016   7.297 -0.1300  0.5382  1.6668
 2664TIP3   OH229550   4.294   6.822   1.588 -0.0850  0.0086  0.0185
 2664TIP3    H129551   4.227   6.821   1.519 -1.3501 -0.9959  1.1830
 2664TIP3    H229552   4.303   6.730   1.613  1.7614  0.1216 -0.0795
 2665TIP3   OH229553   4.175   2.423   1.071 -0.0142 -0.3484 -0.0923
 2665TIP3    H129554   4.168   2.381   1.156 -1.3883 -0.3578 -0.1955
 2665TIP3    H229555   4.092   2.404   1.027  1.1405 -1.4638 -1.9566
 2666TIP3   OH229556   0.650   6.418   0.755  0.1302 -0.3700  0.0911
 2666TIP3    H129557   0.591   6.420   0.679  2.8194 -0.1202 -2.1402
 2666TIP3    H229558   0.610   6.354   0.814 -3.1450  0.8920 -0.5190
 2667TIP3   OH229559   0.266   3.789   0.458 -0.3796  0.4714  0.5603
 2667TIP3    H129560   0.339   3.820   0.511  0.3233 -0.5985  0.2448
 2667TIP3    H229561   0.307   3.751   0.381 -1.2471 -0.5200  0.5769
 2668TIP3   OH229562   2.711   0.181   7.802  0.1592  0.0428 -0.2004
 2668TIP3    H129563   2.720   0.212   7.712 -0.3123 -1.6665 -0.8836
 2668TIP3    H229564   2.684   0.257   7.852  1.1711  1.2058 -1.3553
 2669TIP3   OH229565   1.567   1.412   7.666 -0.9978  0.1052  0.4360
 2669TIP3    H129566   1.621   1.491   7.670 -0.0300 -0.5654  0.9161
 2669TIP3    H229567   1.551   1.390   7.758 -0.4689 -0.7774  0.3278
 2670TIP3   OH229568   5.439   0.063   8.129  0.1073  0.3829 -0.0461
 2670TIP3    H129569   5.484   0.088   8.210  1.1016  0.6870 -0.6747
 2670TIP3    H229570   5.494  -0.006   8.092 -0.4140  0.1503 -0.3982
 2671TIP3   OH229571   0.623   4.778   8.173 -0.1193  0.1234 -0.0012
 2671TIP3    H129572   0.592   4.790   8.262 -1.2071 -0.9228 -0.2038
 2671TIP3    H229573   0.639   4.866   8.140 -0.1578  0.5415  1.0709
 2672TIP3   OH229574   0.336   6.446   0.325 -0.1164  0.2634 -0.1121
 2672TIP3    H129575   0.352   6.495   0.245 -0.7377 -0.6980 -0.8436
 2672TIP3    H229576   0.334   6.355   0.298  0.8223 -0.1840  1.1935
 2673TIP3   OH229577   1.886   6.272   8.668  0.1079  0.2213 -0.0708
 2673TIP3    H129578   1.933   6.191   8.646 -0.7031 -0.5384  0.8957
 2673TIP3    H229579   1.946   6.317   8.728  0.4317  0.1925 -0.3676
 2674TIP3   OH229580   4.478   6.491   1.495 -0.0905  0.0470 -0.6821
 2674TIP3    H129581   4.537   6.511   1.568  0.2779 -1.4153 -0.5622
 2674TIP3    H229582   4.394   6.528   1.522  0.6121  1.6984 -0.6267
 2675TIP3   OH229583   0.613   1.793   7.516  0.0020 -0.4715 -0.2529
 2675TIP3    H129584   0.593   1.723   7.454 -0.9489 -1.2114  0.8462
 2675TIP3    H229585   0.701   1.822   7.492  0.5378 -2.2471 -0.5514
 2676TIP3   OH229586   6.680   4.602   5.823 -0.4607  0.6354  0.6104
 2676TIP3    H129587   6.712   4.611   5.912 -1.3174  0.4689  0.9457
 2676TIP3    H229588   6.746   4.550   5.778  0.8995  2.2728  0.6331
 2677TIP3   OH229589   2.579   0.589   8.578 -0.6363 -0.2879  0.1944
 2677TIP3    H129590   2.666   0.556   8.601  0.0520  1.2418 -0.0644
 2677TIP3    H229591   2.519   0.535   8.628  0.4922 -1.1024  0.7218
 2678TIP3   OH229592   6.075   1.903   0.169 -0.4273  0.5460 -0.3581
 2678TIP3    H129593   6.031   1.958   0.233 -2.2822 -1.7698  0.5374
 2678TIP3    H229594   6.136   1.961   0.124  2.2902  2.0480  4.5523
 2679TIP3   OH229595   3.807   3.301   1.745  0.0781 -0.0239 -0.4739
 2679TIP3    H129596   3.875   3.234   1.754 -0.2721 -0.3100  0.1001
 2679TIP3    H229597   3.804   3.344   1.830  1.3404  1.7671 -1.2704
 2680TIP3   OH229598   0.060   0.399   0.766  0.5095 -0.5473 -0.4382
 2680TIP3    H129599   0.064   0.459   0.840 -2.1776 -0.1885 -0.4808
 2680TIP3    H229600   0.041   0.313   0.805  0.7719 -0.6956 -0.6259
 2681TIP3   OH229601   5.383   0.756   5.984 -0.0665  0.3997  0.9903
 2681TIP3    H129602   5.359   0.694   5.916  1.0873 -0.4122  1.3000
 2681TIP3    H229603   5.306   0.759   6.042 -1.1715  1.3182 -0.4425
 2682TIP3   OH229604   2.061   3.761   6.505  0.2800  0.0550  0.8775
 2682TIP3    H129605   2.072   3.677   6.550  2.7150 -0.3764 -0.3974
 2682TIP3    H229606   2.056   3.826   6.576 -0.8349 -1.0445  1.8498
 2683TIP3   OH229607   3.679   0.601   7.299  0.3157 -0.6067  0.5091
 2683TIP3    H129608   3.658   0.687   7.335  0.8670  0.2533 -1.0976
 2683TIP3    H229609   3.762   0.577   7.340  0.1233 -0.3942  1.0205
 2684TIP3   OH229610   6.308   0.965   0.675 -0.1048  0.2488 -0.1719
 2684TIP3    H129611   6.401   0.943   0.683  0.2274  2.0083  1.5186
 2684TIP3    H229612   6.295   0.982   0.582  1.4952  0.9015 -0.2997
 2685TIP3   OH229613   3.189   5.704   1.376  0.1667  0.5031  0.0857
 2685TIP3    H129614   3.259   5.657   1.331  1.0248  0.7043  1.1418
 2685TIP3    H229615   3.167   5.648   1.450  0.1899  1.0837  0.5386
 2686TIP3   OH229616   0.104   1.538   7.850 -0.3617  0.6302 -0.3983
 2686TIP3    H129617   0.141   1.612   7.802  0.7685  1.7748  2.0521
 2686TIP3    H229618   0.155   1.462   7.819  0.4381  1.3412 -0.8858
 2687TIP3   OH229619   6.298   1.731   6.925 -0.5205  0.0719  0.0596
 2687TIP3    H129620   6.277   1.683   7.005  0.2227 -0.9494 -0.3330
 2687TIP3    H229621   6.238   1.806   6.925 -1.1373 -0.4012  1.1103
 2688TIP3   OH229622   2.148   2.650   6.611 -0.1035  0.0715  0.0335
 2688TIP3    H129623   2.209   2.718   6.585 -1.4908  1.4091  0.1628
 2688TIP3    H229624   2.201   2.570   6.613  1.6149  1.1640  0.1357
 2689TIP3   OH229625   4.457   0.639   1.669 -0.0058  0.6642 -0.1394
 2689TIP3    H129626   4.404   0.675   1.741 -0.6940  0.6800 -0.6466
 2689TIP3    H229627   4.534   0.602   1.712 -1.2249 -0.9062  0.8027
 2690TIP3   OH229628   0.386   0.548   1.248  0.0485 -0.2719 -0.1234
 2690TIP3    H129629   0.363   0.635   1.281  2.3819  0.4270 -0.1629
 2690TIP3    H229630   0.403   0.497   1.327 -0.4570 -0.4540 -0.1266
 2691TIP3   OH229631   6.078   6.704   0.194 -0.2809 -0.1814 -0.0608
 2691TIP3    H129632   6.117   6.623   0.227 -1.1329 -0.0067  1.5157
 2691TIP3    H229633   5.989   6.680   0.169 -0.6669  0.3200  0.7786
 2692TIP3   OH229634   4.990   1.893   1.406  0.4086 -0.5151  0.1208
 2692TIP3    H129635   4.936   1.926   1.334  1.7508  0.3204 -0.5418
 2692TIP3    H229636   4.927   1.866   1.472 -0.9312  3.6686  0.8851
 2693TIP3   OH229637   1.290   0.356   7.338  1.1291  0.3086  0.1103
 2693TIP3    H129638   1.375   0.351   7.382  1.6599 -1.2919 -1.0033
 2693TIP3    H229639   1.309   0.341   7.246 -0.3955 -0.6141 -0.1069
 2694TIP3   OH229640   1.374   4.144   1.070  0.2923  0.3828  0.1662
 2694TIP3    H129641   1.393   4.215   1.132 -1.2308  0.9296  0.0566
 2694TIP3    H229642   1.366   4.188   0.986 -1.8850  0.3141  0.2846
 2695TIP3   OH229643   6.649   5.652   0.794 -0.1752  0.3272 -0.0424
 2695TIP3    H129644   6.567   5.610   0.817 -0.4862  0.1317 -1.4390
 2695TIP3    H229645   6.636   5.683   0.704  0.8088  1.4689  0.1829
 2696TIP3   OH229646   0.090   4.605   8.484 -0.7109 -0.3916 -0.2689
 2696TIP3    H129647   0.143   4.580   8.560  0.4306  1.3695 -0.4181
 2696TIP3    H229648   0.081   4.525   8.433  2.3374 -0.7176 -0.4954
 2697TIP3   OH229649   0.080   5.657   0.891  0.1850 -0.0796  0.0658
 2697TIP3    H129650  -0.006   5.665   0.850 -0.3284 -0.5814  1.0061
 2697TIP3    H229651   0.092   5.740   0.937 -0.0314 -0.1978  0.3439
 2698TIP3   OH229652   0.944   4.213   7.850  0.0878 -0.4720  0.3773
 2698TIP3    H129653   0.868   4.167   7.813 -0.0670 -0.5414  0.7725
 2698TIP3    H229654   0.914   4.303   7.863  1.3945  0.6954 -3.5268
 2699TIP3   OH229655   4.226   6.209   1.416 -0.3767  0.4373 -0.2709
 2699TIP3    H129656   4.145   6.201   1.465 -0.6745  1.4251 -0.5798
 2699TIP3    H229657   4.291   6.237   1.480 -1.0734  3.1916 -0.6061
 2700TIP3   OH229658   3.854   2.463   7.625  0.2763  0.0448 -0.1695
 2700TIP3    H129659   3.815   2.488   7.541 -2.8522 -2.0131  0.5043
 2700TIP3    H229660   3.812   2.522   7.688  2.7614  1.7219  0.0562
 2701TIP3   OH229661   6.758   4.597   0.927 -0.0089  0.1863  0.4359
 2701TIP3    H129662   6.702   4.587   0.851 -0.5861  0.6357  0.7869
 2701TIP3    H229663   6.835   4.544   0.908  0.0020  0.5527 -0.5992
 2702TIP3   OH229664   0.212   1.909   8.100 -0.4340  0.1666  0.3253
 2702TIP3    H129665   0.188   1.870   8.184 -0.3989 -0.6318 -0.0214
 2702TIP3    H229666   0.244   1.996   8.122  0.3689 -0.3364  1.2320
 2703TIP3   OH229667   6.268   3.635   2.278  0.2161  0.2737 -0.1412
 2703TIP3    H129668   6.285   3.720   2.237  0.9491  0.1786 -0.0521
 2703TIP3    H229669   6.355   3.595   2.287  0.0393  0.1361  1.1636
 2704TIP3   OH229670   4.720   1.051   1.903 -0.0299  0.4336  0.0007
 2704TIP3    H129671   4.642   1.090   1.863 -0.9079 -0.7488  0.4937
 2704TIP3    H229672   4.687   0.976   1.952  1.6591 -1.5486 -1.6644
 2705TIP3   OH229673   6.409   3.173   8.189 -0.2875 -0.6334 -0.1298
 2705TIP3    H129674   6.381   3.084   8.169 -1.4661 -0.0836 -1.0467
 2705TIP3    H229675   6.475   3.192   8.123  0.6241 -1.1069  0.6085
 2706TIP3   OH229676   1.303   1.739   8.462  0.1356  0.0720 -0.0181
 2706TIP3    H129677   1.396   1.764   8.461 -0.0285  0.7021  0.3340
 2706TIP3    H229678   1.257   1.819   8.488 -0.5487 -0.1059 -0.6589
 2707TIP3   OH229679   4.700   3.840   0.339 -0.3424  0.0967  0.0385
 2707TIP3    H129680   4.607   3.820   0.346 -0.3047 -0.6082 -1.2318
 2707TIP3    H229681   4.703   3.934   0.318 -0.8770 -0.2671 -1.8532
 2708TIP3   OH229682   3.993   0.936   0.521 -0.0717  0.1333  0.2626
 2708TIP3    H129683   3.912   0.984   0.539  1.0287  2.1991 -0.0018
 2708TIP3    H229684   4.063   0.997   0.546  1.4141 -0.5901 -1.8449
 2709TIP3   OH229685   5.067   0.750   0.614  0.0372 -0.1875 -0.3642
 2709TIP3    H129686   5.014   0.745   0.694  0.1232 -0.3810 -0.3157
 2709TIP3    H229687   5.005   0.738   0.543  0.2220 -2.1465 -0.2529
 2710TIP3   OH229688   3.102   2.611   6.835 -0.0967 -0.4168  0.6144
 2710TIP3    H129689   3.097   2.578   6.746  0.8815 -0.4284  0.5574
 2710TIP3    H229690   3.023   2.664   6.845  0.3283  0.5077 -0.6362
 2711TIP3   OH229691   6.308   0.498   8.540  0.1432  0.3299  0.0022
 2711TIP3    H129692   6.365   0.469   8.611  0.8438 -0.5211 -0.8837
 2711TIP3    H229693   6.226   0.450   8.554  0.8347 -1.1193 -0.6707
 2712TIP3   OH229694   6.702   2.994   8.105  0.1056 -0.2473 -0.9223
 2712TIP3    H129695   6.707   2.952   8.191  2.2432 -0.8973 -1.2976
 2712TIP3    H229696   6.791   2.986   8.069 -0.6530  0.2664 -3.0758
 2713TIP3   OH229697   2.971   3.810   7.923  0.4366 -0.4762  0.1112
 2713TIP3    H129698   3.062   3.826   7.898  0.5848  0.2604  1.0344
 2713TIP3    H229699   2.940   3.745   7.861  1.1300  0.3734 -1.1809
 2714TIP3   OH229700   0.205   3.617   1.297 -0.1594  0.2507  0.4542
 2714TIP3    H129701   0.227   3.526   1.277 -2.2838 -0.5847  1.5933
 2714TIP3    H229702   0.277   3.648   1.352 -0.5888 -1.6042  2.1566
 2715TIP3   OH229703   4.284   0.616   0.857 -0.0282  0.0224  0.4660
 2715TIP3    H129704   4.237   0.684   0.807  0.5934 -0.5085 -0.8786
 2715TIP3    H229705   4.234   0.536   0.841  0.5313 -0.2740  0.1695
 2716TIP3   OH229706   3.939   6.232   6.607 -0.0155 -0.0100 -0.3079
 2716TIP3    H129707   3.913   6.145   6.577 -2.4963  0.4482  0.2784
 2716TIP3    H229708   3.945   6.223   6.703  0.4849  0.2927 -0.3086
 2717TIP3   OH229709   5.946   2.076   8.395 -0.2057  1.0455  0.1515
 2717TIP3    H129710   5.940   2.001   8.453  1.0684  1.1542  0.4530
 2717TIP3    H229711   5.890   2.143   8.435 -3.4941 -0.5327 -1.4834
 2718TIP3   OH229712   5.569   1.475   0.921 -0.6150  0.4205  0.4069
 2718TIP3    H129713   5.644   1.463   0.979  0.2875  1.4248 -0.4978
 2718TIP3    H229714   5.499   1.423   0.960  0.7551 -1.1620  0.8884
 2719TIP3   OH229715   6.517   0.971   8.077 -0.2077  0.2813  0.7935
 2719TIP3    H129716   6.524   0.882   8.111  0.0239 -0.0643 -0.1154
 2719TIP3    H229717   6.446   0.966   8.012  2.1513 -0.1623 -1.9354
 2720TIP3   OH229718   4.477   0.961   0.446 -0.3490  0.4855 -0.5727
 2720TIP3    H129719   4.435   0.876   0.460 -2.1613  1.6789  2.0119
 2720TIP3    H229720   4.490   0.966   0.351  0.9585 -3.1057 -0.7319
 2721TIP3   OH229721   0.661   5.208   1.290  0.0831 -0.7939  0.3350
 2721TIP3    H129722   0.703   5.133   1.248  2.8040  1.2393 -0.8932
 2721TIP3    H229723   0.655   5.275   1.221  0.1096  0.9797  1.9569
 2722TIP3   OH229724   4.357   5.783   2.025 -0.2411 -0.0492 -0.0761
 2722TIP3    H129725   4.382   5.701   2.067  0.3938 -0.7165 -1.6518
 2722TIP3    H229726   4.326   5.756   1.938 -0.3376  1.3509 -0.4972
 2723TIP3   OH229727   4.328   4.580   0.741  0.3957  0.2105  0.1747
 2723TIP3    H129728   4.386   4.636   0.690 -0.8778  0.7134 -0.7508
 2723TIP3    H229729   4.326   4.620   0.828  1.5417  0.0848  0.2749
 2724TIP3   OH229730   3.377   5.245   6.484  0.0347  0.3316 -0.1622
 2724TIP3    H129731   3.410   5.308   6.549 -0.0106 -0.3583  0.5389
 2724TIP3    H229732   3.456   5.210   6.442  0.0875  0.3654 -0.0907
 2725TIP3   OH229733   6.203   1.568   7.614  0.0407  0.1139  0.0835
 2725TIP3    H129734   6.129   1.597   7.668  0.4027 -0.0382  0.6672
 2725TIP3    H229735   6.221   1.478   7.643  0.8257  0.3505  0.3560
 2726TIP3   OH229736   4.640   6.473   0.448  0.1560  0.1635 -0.2775
 2726TIP3    H129737   4.650   6.379   0.434 -0.3954 -0.1367  1.1298
 2726TIP3    H229738   4.644   6.484   0.543  1.5704  1.7435 -0.4668
 2727TIP3   OH229739   3.362   1.071   7.384 -0.0942 -0.7131  0.7543
 2727TIP3    H129740   3.356   1.027   7.299  0.5498  1.7154 -0.6813
 2727TIP3    H229741   3.444   1.120   7.379 -1.4039  1.7555  1.5514
 2728TIP3   OH229742   3.995   0.464   1.145 -0.6214 -0.2553  0.5610
 2728TIP3    H129743   3.903   0.439   1.142 -1.0353  1.1473  0.9579
 2728TIP3    H229744   4.013   0.480   1.237 -0.2341  0.3414  0.3915
 2729TIP3   OH229745   4.315   6.770   2.000  0.5755  0.1853  0.1608
 2729TIP3    H129746   4.272   6.822   2.067  0.0404  0.0841 -0.0986
 2729TIP3    H229747   4.277   6.682   2.010 -0.3565  0.4328 -1.0005
 2730TIP3   OH229748   4.992   6.154   1.175 -0.6221  0.2326 -0.5660
 2730TIP3    H129749   4.953   6.104   1.103 -2.8943  0.1275  0.6588
 2730TIP3    H229750   5.056   6.093   1.214 -0.0500 -0.0421 -1.8536
 2731TIP3   OH229751   3.546   5.150   7.269  0.2101  0.2109  0.3839
 2731TIP3    H129752   3.628   5.109   7.297  1.3316  0.2615 -2.4314
 2731TIP3    H229753   3.500   5.080   7.222 -0.1560  0.8475 -0.2172
 2732TIP3   OH229754   1.714   5.466   8.265 -0.1214  0.1298 -0.0726
 2732TIP3    H129755   1.807   5.487   8.272  0.5325 -2.7699  2.1673
 2732TIP3    H229756   1.711   5.386   8.212 -1.2015 -0.3931  0.7301
 2733TIP3   OH229757   1.687   0.329   7.950  0.0859 -0.0360 -1.2199
 2733TIP3    H129758   1.615   0.283   7.993  1.1563  0.8663  1.7616
 2733TIP3    H229759   1.755   0.263   7.938  0.2158 -0.0691 -0.3761
 2734TIP3   OH229760   0.880   3.709   1.611  0.1074  0.6073 -0.1346
 2734TIP3    H129761   0.952   3.651   1.637  0.7513  1.3371 -0.2521
 2734TIP3    H229762   0.863   3.761   1.690 -0.5495  0.1875  0.0079
 2735TIP3   OH229763   5.229   6.311   7.440  0.1977  0.4303 -0.5869
 2735TIP3    H129764   5.241   6.225   7.481  0.2550  0.3547 -0.7637
 2735TIP3    H229765   5.193   6.292   7.354 -1.3700  0.6542 -0.0066
 2736TIP3   OH229766   3.902   0.890   6.334  0.1792  0.0540  0.1174
 2736TIP3    H129767   3.899   0.976   6.376  0.5311 -0.5288  1.3493
 2736TIP3    H229768   3.982   0.892   6.282  0.8066  0.0594  1.0694
 2737TIP3   OH229769   4.361   2.878   0.818  0.0356  0.3640  0.1429
 2737TIP3    H129770   4.416   2.939   0.769 -1.0552  1.7257  0.5115
 2737TIP3    H229771   4.313   2.935   0.880  0.4887 -1.1207  1.9527
 2738TIP3   OH229772   1.317   3.537   7.353  0.2520 -0.5865 -0.2193
 2738TIP3    H129773   1.233   3.493   7.337 -0.4121  0.6459 -0.2655
 2738TIP3    H229774   1.329   3.532   7.448  0.4171 -1.2735 -0.2746
 2739TIP3   OH229775   6.085   0.176   0.951 -0.1337 -0.3792 -0.2393
 2739TIP3    H129776   6.118   0.208   0.867  0.0034  2.7615  0.8783
 2739TIP3    H229777   5.990   0.181   0.942 -0.1185  0.1021 -0.2030
 2740TIP3   OH229778   3.778   1.614   1.112  0.2583  0.2707 -0.0130
 2740TIP3    H129779   3.690   1.579   1.122  0.4253 -0.0992  0.1836
 2740TIP3    H229780   3.772   1.703   1.147 -0.5259  1.0040 -1.8751
 2741TIP3   OH229781   5.748   5.594   6.555  0.1836  0.1243 -0.9463
 2741TIP3    H129782   5.683   5.584   6.485 -0.9128 -1.5224  0.2361
 2741TIP3    H229783   5.703   5.646   6.622  0.5415  0.0710 -0.6653
 2742TIP3   OH229784   6.528   0.223   6.620 -0.4770  0.4207 -0.1955
 2742TIP3    H129785   6.623   0.217   6.628 -0.5122 -0.1441 -0.1627
 2742TIP3    H229786   6.514   0.298   6.561 -0.0515  1.0862  0.5287
 2743TIP3   OH229787   1.009   4.383   8.232  0.5371 -0.0141 -0.4770
 2743TIP3    H129788   1.085   4.364   8.178  0.1170  0.8472 -1.3934
 2743TIP3    H229789   0.966   4.456   8.188 -1.0130 -0.7114 -0.1637
 2744TIP3   OH229790   0.728   1.616   1.959  0.0046 -0.2553  0.2771
 2744TIP3    H129791   0.770   1.542   1.916 -0.7860 -1.4173  1.4480
 2744TIP3    H229792   0.688   1.579   2.038 -1.3536  1.1983  0.3223
 2745TIP3   OH229793   4.025   6.466   1.803  0.4967 -0.4255 -0.3104
 2745TIP3    H129794   3.949   6.428   1.759  0.1755  0.7766 -0.8480
 2745TIP3    H229795   4.066   6.393   1.849 -0.7088 -1.1851 -0.4087
 2746TIP3   OH229796   5.040   3.980   2.330 -0.0432 -0.0960 -0.2684
 2746TIP3    H129797   5.050   3.930   2.411  1.3811 -2.1645 -1.6057
 2746TIP3    H229798   4.982   3.925   2.276 -1.0494  1.2940 -0.6446
 2747TIP3   OH229799   4.542   6.362   0.187 -0.0609  0.5106 -0.0916
 2747TIP3    H129800   4.538   6.277   0.145 -2.0092 -0.3481  1.6467
 2747TIP3    H229801   4.634   6.374   0.209  0.5518 -0.2098 -2.0801
 2748TIP3   OH229802   5.410   3.747   1.708 -0.9387  0.3189  0.0288
 2748TIP3    H129803   5.465   3.675   1.677 -0.7061  0.8301 -0.7584
 2748TIP3    H229804   5.380   3.718   1.794  1.9871  0.7936  1.3186
 2749TIP3   OH229805   4.631   6.468   8.544  0.2751 -0.0933  0.7859
 2749TIP3    H129806   4.642   6.514   8.461 -0.3946 -0.0641  0.7078
 2749TIP3    H229807   4.698   6.399   8.543 -2.3234 -2.8688 -1.6871
 2750TIP3   OH229808   4.989   2.897   7.897  0.5753 -0.7002  0.6346
 2750TIP3    H129809   4.945   2.838   7.837  0.5133 -0.3145  0.2978
 2750TIP3    H229810   4.948   2.881   7.982 -1.4163  0.8317  0.0417
 2751TIP3   OH229811   2.240   3.032   7.480 -0.0926 -0.2265 -0.0464
 2751TIP3    H129812   2.160   3.004   7.436 -0.9040 -0.2085  1.3681
 2751TIP3    H229813   2.309   3.018   7.415 -1.2880  0.2064 -1.4674
 2752TIP3   OH229814   1.666   0.073   7.049 -0.1276 -0.6201  0.2102
 2752TIP3    H129815   1.639  -0.006   7.002 -1.1491 -1.1465  1.6257
 2752TIP3    H229816   1.639   0.145   6.992 -1.4605 -1.2414  0.0167
 2753TIP3   OH229817   5.531   0.729   8.381 -0.1365 -0.9732  0.1814
 2753TIP3    H129818   5.595   0.796   8.406 -1.0114 -0.0094 -0.1408
 2753TIP3    H229819   5.575   0.679   8.313  0.2113 -0.2031 -0.1677
 2754TIP3   OH229820   3.701   4.298   2.614 -0.0778  0.0010 -0.8103
 2754TIP3    H129821   3.637   4.263   2.551  0.1091 -1.0167 -0.4611
 2754TIP3    H229822   3.727   4.382   2.578 -0.7676 -0.0905 -1.5501
 2755TIP3   OH229823   3.301   3.563   0.711  0.2772 -0.1757  0.0971
 2755TIP3    H129824   3.379   3.563   0.654 -0.7900  1.0248 -1.4416
 2755TIP3    H229825   3.252   3.485   0.684 -0.1022  0.2520 -0.4589
 2756TIP3   OH229826   0.373   5.163   1.611 -0.5624 -0.0073  0.3853
 2756TIP3    H129827   0.302   5.147   1.673 -2.7794  0.4715 -1.8798
 2756TIP3    H229828   0.365   5.093   1.546  1.1282  0.0072  0.0994
 2757TIP3   OH229829   4.139   2.735   2.519  0.1687  0.0077  0.6783
 2757TIP3    H129830   4.047   2.712   2.507  0.2418  0.1127 -0.1537
 2757TIP3    H229831   4.161   2.787   2.441  1.6692 -2.3241 -0.5562
 2758TIP3   OH229832   3.938   5.018   2.583 -0.0763  0.0465  0.0850
 2758TIP3    H129833   3.904   4.931   2.563 -1.0251 -0.0474  1.8810
 2758TIP3    H229834   4.032   5.004   2.598 -0.0300 -0.4678 -0.6130
 2759TIP3   OH229835   0.766   2.176   7.534 -0.1987  0.2982 -0.3618
 2759TIP3    H129836   0.820   2.255   7.530  0.6168 -0.2576 -0.4250
 2759TIP3    H229837   0.742   2.167   7.626  1.8375 -0.7748  0.1187
 2760TIP3   OH229838   4.444   3.580   2.518 -0.0852  0.0498  0.1194
 2760TIP3    H129839   4.424   3.673   2.529 -0.4805 -0.0962  0.6511
 2760TIP3    H229840   4.480   3.553   2.602  0.5679 -0.1438 -0.2217
 2761TIP3   OH229841   4.213   0.588   7.259 -0.1361 -0.5181 -0.4076
 2761TIP3    H129842   4.194   0.678   7.284  1.2753 -0.5253  0.8417
 2761TIP3    H229843   4.252   0.549   7.338  2.2097 -1.2874 -1.8605
 2762TIP3   OH229844   4.447   0.002   1.093 -0.1523  0.5785  0.0837
 2762TIP3    H129845   4.488  -0.013   1.178 -0.0191  0.3676 -0.0148
 2762TIP3    H229846   4.357   0.027   1.114 -0.3431 -0.2372  0.2675
 2763TIP3   OH229847   6.300   1.178   6.946 -0.2697 -0.0115 -0.4001
 2763TIP3    H129848   6.383   1.221   6.927 -0.8706  0.1822 -2.8850
 2763TIP3    H229849   6.244   1.247   6.983 -0.1302  0.5178 -1.1557
 2764TIP3   OH229850   0.899   1.807   6.483 -0.5458  0.2207 -0.2313
 2764TIP3    H129851   0.860   1.735   6.434 -0.1348 -0.4533  0.4174
 2764TIP3    H229852   0.850   1.884   6.455 -2.5446 -0.6220  0.7218
 2765TIP3   OH229853   1.625   0.603   7.312  0.2718  0.0982 -0.2662
 2765TIP3    H129854   1.617   0.693   7.343  2.7709 -0.1388  1.3970
 2765TIP3    H229855   1.579   0.551   7.378  0.9462  0.0016  0.1392
 2766TIP3   OH229856   1.731   4.736   0.295  0.1210  0.5687  0.5130
 2766TIP3    H129857   1.729   4.778   0.382  1.3502 -1.3915  1.5671
 2766TIP3    H229858   1.674   4.660   0.304  0.4694  0.1990 -0.3334
 2767TIP3   OH229859   1.331   0.800   8.415 -0.4059 -0.2509  0.1882
 2767TIP3    H129860   1.237   0.786   8.421 -0.1052 -1.9759  1.5797
 2767TIP3    H229861   1.367   0.762   8.496  1.5820 -0.5846 -0.7840
 2768TIP3   OH229862   4.011   4.233   1.607 -0.3690 -0.2220  0.4163
 2768TIP3    H129863   3.986   4.326   1.603  1.0144  0.1424 -0.0951
 2768TIP3    H229864   4.054   4.224   1.691  0.3415 -0.1750  0.0615
 2769TIP3   OH229865   3.812   0.197   7.916  0.1817 -0.9321 -0.0213
 2769TIP3    H129866   3.724   0.234   7.911 -0.2273 -1.6528  1.4229
 2769TIP3    H229867   3.825   0.176   8.009  1.7058 -1.2511 -0.2707
 2770TIP3   OH229868   1.326   0.531   1.127  0.1413  0.1914 -0.3284
 2770TIP3    H129869   1.408   0.528   1.175  1.1303  1.1390 -1.8761
 2770TIP3    H229870   1.292   0.442   1.132  0.1349  0.2584  2.1464
 2771TIP3   OH229871   5.557   3.429   6.419 -0.5658  0.3118  0.6496
 2771TIP3    H129872   5.609   3.436   6.338  0.8737  0.1920  1.5226
 2771TIP3    H229873   5.491   3.498   6.410 -0.0557  0.7055 -0.3702
 2772TIP3   OH229874   0.528   1.159   7.471 -0.6499  0.4033  0.2975
 2772TIP3    H129875   0.498   1.105   7.543 -0.3220  0.8678  0.7907
 2772TIP3    H229876   0.605   1.205   7.506 -1.1074  1.4219 -0.0128
 2773TIP3   OH229877   5.147   3.663   0.990 -0.4726 -0.3513  0.0440
 2773TIP3    H129878   5.192   3.634   1.069  0.3283  2.3654  0.6850
 2773TIP3    H229879   5.215   3.707   0.938 -0.8094 -2.5708 -2.5532
 2774TIP3   OH229880   2.662   1.473   7.699 -0.1004 -0.2902 -1.1540
 2774TIP3    H129881   2.712   1.540   7.745 -1.5747  1.8115 -2.4157
 2774TIP3    H229882   2.699   1.473   7.610 -0.5901 -0.6333 -1.3619
 2775TIP3   OH229883   4.362   4.798   2.756 -0.6485  0.2780  0.4491
 2775TIP3    H129884   4.393   4.886   2.780 -1.5950  0.7940 -0.1721
 2775TIP3    H229885   4.412   4.740   2.813  0.7790  1.1344  0.1365
 2776TIP3   OH229886   3.107   5.076   7.586 -0.2097 -0.6508 -0.0222
 2776TIP3    H129887   3.094   5.163   7.548  0.5350 -0.7410 -0.5102
 2776TIP3    H229888   3.041   5.021   7.543 -0.5758 -0.3612  0.1678
 2777TIP3   OH229889   2.615   3.262   0.119  0.3289 -0.1032  0.1136
 2777TIP3    H129890   2.536   3.293   0.076  0.6385  1.8282  0.8161
 2777TIP3    H229891   2.668   3.225   0.049 -0.0207  1.1555 -0.8571
 2778TIP3   OH229892   4.790   0.801   8.462  0.1889  0.2037  0.3070
 2778TIP3    H129893   4.842   0.728   8.497 -2.0777 -0.6080  2.2712
 2778TIP3    H229894   4.767   0.774   8.373 -0.1767 -1.2834  0.8236
 2779TIP3   OH229895   0.304   0.582   8.228 -0.3483 -0.4253 -0.4674
 2779TIP3    H129896   0.390   0.621   8.214 -0.2140 -0.1540  0.9424
 2779TIP3    H229897   0.298   0.512   8.163  1.4756 -1.2847  0.2272
 2780TIP3   OH229898   4.824   3.670   2.445  0.1830  0.2617 -0.1753
 2780TIP3    H129899   4.900   3.715   2.482  0.5941 -0.4986 -0.0581
 2780TIP3    H229900   4.809   3.596   2.504 -2.0317  1.6062  1.0618
 2781TIP3   OH229901   3.387   0.386   6.864  0.3607 -0.2927  0.4886
 2781TIP3    H129902   3.300   0.365   6.900  0.0153 -0.1373 -0.2413
 2781TIP3    H229903   3.438   0.307   6.879 -1.0337 -1.9759 -2.5946
 2782TIP3   OH229904   2.577   3.787   6.207  0.4255 -0.1377 -0.4854
 2782TIP3    H129905   2.496   3.836   6.216  0.2967 -0.0442 -1.9658
 2782TIP3    H229906   2.554   3.697   6.231  0.0779  0.0284 -0.1823
 2783TIP3   OH229907   1.848   6.266   0.684  0.4016 -0.0272  0.3080
 2783TIP3    H129908   1.825   6.258   0.776  1.1742  0.2292  0.5293
 2783TIP3    H229909   1.800   6.195   0.641  0.4546 -0.4796  0.9823
 2784TIP3   OH229910   4.854   2.767   8.566  0.5796 -0.0670  0.1252
 2784TIP3    H129911   4.948   2.769   8.584  0.3004  1.6096  1.6542
 2784TIP3    H229912   4.843   2.821   8.489  0.9212 -0.8581 -0.4967
 2785TIP3   OH229913   2.189   1.872   1.921 -0.8659  0.7785  0.0784
 2785TIP3    H129914   2.182   1.846   2.013 -0.7297  1.6377  0.3354
 2785TIP3    H229915   2.225   1.960   1.923 -0.3804  0.6151 -0.8225
 2786TIP3   OH229916   5.343   0.003   6.373 -0.1742 -0.1145  0.2438
 2786TIP3    H129917   5.331  -0.092   6.378 -0.7870 -0.1273 -1.0072
 2786TIP3    H229918   5.431   0.013   6.335 -0.0632 -0.1795  0.4829
 2787TIP3   OH229919   0.223   2.610   7.776 -0.4391 -0.2464  0.2039
 2787TIP3    H129920   0.280   2.675   7.734 -1.4397 -0.7027 -2.0177
 2787TIP3    H229921   0.161   2.662   7.828 -0.9792  0.6068 -1.2316
 2788TIP3   OH229922   0.980   6.111   1.736 -0.4958  0.4513  0.0758
 2788TIP3    H129923   1.055   6.115   1.796 -0.2353 -1.7114 -0.0184
 2788TIP3    H229924   1.012   6.149   1.654  0.1168  0.6177  0.3833
 2789TIP3   OH229925   4.948   0.909   6.828  0.2811  0.4680 -0.7013
 2789TIP3    H129926   4.977   0.843   6.765  0.4044  0.1147 -0.2761
 2789TIP3    H229927   4.864   0.876   6.860  0.8846 -0.0662  0.3640
 2790TIP3   OH229928   5.954   3.224   1.198  0.1382  0.2252 -0.4386
 2790TIP3    H129929   5.938   3.262   1.112 -0.5032 -0.6023 -0.6902
 2790TIP3    H229930   5.984   3.135   1.181 -1.6274 -0.5487  0.1915
 2791TIP3   OH229931   3.297   5.510   0.387 -0.7417  0.5177  0.1429
 2791TIP3    H129932   3.260   5.422   0.376 -0.2741  0.2744  0.4932
 2791TIP3    H229933   3.229   5.569   0.354 -0.5609 -0.0331 -1.2832
 2792TIP3   OH229934   3.817   5.647   0.269  0.4964  0.2984 -0.0047
 2792TIP3    H129935   3.810   5.729   0.318  0.9786  0.1084  0.3868
 2792TIP3    H229936   3.909   5.642   0.244  0.0469  0.9864 -1.9808
 2793TIP3   OH229937   0.359   3.453   8.523  0.2395 -0.3059 -0.1354
 2793TIP3    H129938   0.348   3.486   8.612 -0.7120 -0.7642 -0.0675
 2793TIP3    H229939   0.280   3.480   8.477  1.0381  0.5555 -1.0653
 2794TIP3   OH229940   3.975   4.513   1.584  0.0145 -0.0903 -0.1314
 2794TIP3    H129941   4.052   4.552   1.543  0.4710 -0.6470  0.1733
 2794TIP3    H229942   3.959   4.565   1.662  0.6423 -0.5316  0.2949
 2795TIP3   OH229943   4.717   4.467   1.390  0.4010 -0.0769  0.6826
 2795TIP3    H129944   4.721   4.558   1.359  0.9811 -0.1610  0.4912
 2795TIP3    H229945   4.708   4.474   1.485 -3.1493  0.2217  0.4632
 2796TIP3   OH229946   6.302   2.171   7.954  0.1594  0.3317  0.1860
 2796TIP3    H129947   6.230   2.114   7.927  0.4730 -1.7792  3.2467
 2796TIP3    H229948   6.381   2.118   7.940  0.8635  1.5123 -0.4384
 2797TIP3   OH229949   0.758   5.603   0.262 -0.2938  0.0798 -0.0898
 2797TIP3    H129950   0.802   5.555   0.191 -0.4893  0.0274 -0.1772
 2797TIP3    H229951   0.736   5.688   0.223  0.6123  0.4781  0.2578
 2798TIP3   OH229952   4.104   4.334   2.596  0.4940  0.9088 -0.1616
 2798TIP3    H129953   4.094   4.322   2.502 -1.9771 -0.3735  0.1745
 2798TIP3    H229954   4.053   4.413   2.616 -1.3738 -0.3980  0.4172
 2799TIP3   OH229955   2.369   3.023   7.137 -0.2295 -0.1935 -0.4349
 2799TIP3    H129956   2.402   3.090   7.078 -1.2440  1.2984  0.6209
 2799TIP3    H229957   2.423   3.032   7.216  0.3247 -1.3562 -0.6578
 2800TIP3   OH229958   1.594   1.680   6.790  0.0018 -0.1774  0.2384
 2800TIP3    H129959   1.566   1.767   6.762 -2.2489 -0.8872  0.0773
 2800TIP3    H229960   1.607   1.688   6.885 -1.5443  0.0455  0.4517
 2801TIP3   OH229961   5.141   4.239   8.368 -0.2537  0.2273 -0.5270
 2801TIP3    H129962   5.131   4.154   8.324 -0.4805 -1.2703  2.1835
 2801TIP3    H229963   5.058   4.284   8.350 -0.7872 -0.7881 -0.7172
 2802TIP3   OH229964   2.545   2.844   1.025 -0.3705 -0.3812  0.4812
 2802TIP3    H129965   2.576   2.761   0.990 -1.2250 -1.4340  2.0934
 2802TIP3    H229966   2.450   2.833   1.032 -0.5761  0.9871  0.1122
 2803TIP3   OH229967   2.332   6.708   0.487 -0.0185  0.3808  0.7091
 2803TIP3    H129968   2.351   6.631   0.540 -0.3476  0.8764  1.5779
 2803TIP3    H229969   2.337   6.678   0.397  4.0731  0.2247  0.8006
 2804TIP3   OH229970   1.822   3.365   7.930  0.2516 -0.8063  0.1059
 2804TIP3    H129971   1.886   3.418   7.978  2.3311 -2.4349 -0.7140
 2804TIP3    H229972   1.745   3.421   7.924  1.5172  1.2049  1.2887
 2805TIP3   OH229973   4.642   1.086   7.792  0.0160  0.9261 -0.5278
 2805TIP3    H129974   4.701   1.108   7.865 -0.2285 -2.8041  1.0063
 2805TIP3    H229975   4.558   1.123   7.818  0.4356  1.5691 -0.0382
 2806TIP3   OH229976   5.060   1.922   7.945 -0.7873 -0.1876  0.2685
 2806TIP3    H129977   5.066   1.953   8.035 -2.1743 -0.4166  0.4635
 2806TIP3    H229978   5.116   1.982   7.895 -0.5848  0.3858  1.1712
 2807TIP3   OH229979   4.600   5.060   7.191  0.0710 -0.4211  0.3498
 2807TIP3    H129980   4.650   5.086   7.113  0.2103  1.6769  1.0808
 2807TIP3    H229981   4.520   5.112   7.186 -1.7479 -3.0914 -0.3382
 2808TIP3   OH229982   2.818   5.859   1.336  0.5729  0.2782 -0.3809
 2808TIP3    H129983   2.842   5.768   1.320  0.3301 -0.0291  0.9008
 2808TIP3    H229984   2.828   5.871   1.430  0.6959  1.6117 -0.5357
 2809TIP3   OH229985   1.021   0.493   2.257 -0.1026 -0.3518  0.4982
 2809TIP3    H129986   1.090   0.434   2.289 -0.1488 -2.0320 -2.1721
 2809TIP3    H229987   0.944   0.470   2.309  0.6499 -0.4041  1.6240
 2810TIP3   OH229988   3.202   5.505   7.427 -0.5527  0.0472  0.4896
 2810TIP3    H129989   3.166   5.580   7.475  0.4694  0.9325 -0.0771
 2810TIP3    H229990   3.293   5.531   7.408 -0.0781 -1.4780  0.5679
 2811TIP3   OH229991   0.608   0.983   0.654 -0.5839  0.0104 -0.2385
 2811TIP3    H129992   0.555   0.925   0.707 -0.6048 -0.1360 -0.4190
 2811TIP3    H229993   0.553   1.060   0.640 -0.5527  0.0764  0.0063
 2812TIP3   OH229994   0.487   1.128   0.969  0.1316 -0.2874  0.3673
 2812TIP3    H129995   0.543   1.081   0.908  0.0066  0.4370 -0.3127
 2812TIP3    H229996   0.487   1.218   0.938 -2.0725 -0.4011 -0.1668
 2813TIP3   OH229997   5.654   5.830   0.483 -0.0875 -0.2323  0.2131
 2813TIP3    H129998   5.706   5.882   0.422  0.9497  0.7108  1.8416
 2813TIP3    H229999   5.637   5.889   0.557 -2.0296 -1.0610  0.5120
 2814TIP3   OH230000   4.141   4.760   1.741 -0.3826 -0.1695  0.2168
 2814TIP3    H130001   4.172   4.671   1.725 -0.0705 -0.0542  0.1773
 2814TIP3    H230002   4.124   4.762   1.835 -1.7413 -0.6962  0.0059
 2815TIP3   OH230003   6.182   0.390   7.641  0.2504 -0.4360 -0.1616
 2815TIP3    H130004   6.096   0.352   7.656  0.2129  0.2498  1.4807
 2815TIP3    H230005   6.214   0.344   7.563 -1.7871 -0.3309 -1.1369
 2816TIP3   OH230006   4.787   5.229   6.438 -0.2319  0.3703 -0.7355
 2816TIP3    H130007   4.748   5.149   6.473  0.4783  1.0313  1.7464
 2816TIP3    H230008   4.728   5.299   6.467  0.8922  1.0351  0.0105
 2817TIP3   OH230009   3.944   0.640   7.599  0.5886 -0.3445  0.1733
 2817TIP3    H130010   4.016   0.626   7.661 -0.2278 -0.4617  1.1173
 2817TIP3    H230011   3.956   0.572   7.532  0.7215 -1.0657  0.9143
 2818TIP3   OH230012   1.473   3.092   8.074 -0.5656 -0.0869 -0.4513
 2818TIP3    H130013   1.483   3.087   7.979  0.1399 -2.1244 -0.3309
 2818TIP3    H230014   1.552   3.137   8.104 -0.2268 -0.4550 -0.7735
 2819TIP3   OH230015   3.881   4.664   0.029  0.1000  0.1106  0.0112
 2819TIP3    H130016   3.938   4.735  -0.002 -0.7228  0.3813 -0.9768
 2819TIP3    H230017   3.806   4.710   0.067 -0.5507 -0.1967 -0.8493
 2820TIP3   OH230018   6.047   1.245   1.068 -0.2366  0.1987  0.0786
 2820TIP3    H130019   6.054   1.160   1.111 -1.1231  0.3826  0.6001
 2820TIP3    H230020   6.080   1.229   0.979  0.5068 -0.4518  0.4554
 2821TIP3   OH230021   1.984   5.540   8.321  0.4901 -0.1225 -0.5370
 2821TIP3    H130022   2.064   5.569   8.366  1.2020  0.0769 -1.8754
 2821TIP3    H230023   2.015   5.485   8.250 -0.4243  1.4814 -2.2544
 2822TIP3   OH230024   2.605   5.302   7.180  0.2923 -0.2319  0.7104
 2822TIP3    H130025   2.608   5.223   7.126  1.4911  0.7796 -0.8036
 2822TIP3    H230026   2.522   5.343   7.159  1.0081  0.4759 -0.9522
 2823TIP3   OH230027   3.100   0.328   8.639  0.0712 -0.5138  0.0010
 2823TIP3    H130028   3.108   0.240   8.601  2.1702 -0.3707  0.0012
 2823TIP3    H230029   3.182   0.372   8.616 -0.8108  1.3818  0.2326
 2824TIP3   OH230030   3.925   4.137   2.673  0.0724  0.2241 -0.1665
 2824TIP3    H130031   3.994   4.189   2.632  0.2607  0.6858  0.7075
 2824TIP3    H230032   3.850   4.197   2.677  0.4564  0.6406  1.3442
 2825TIP3   OH230033   5.204   3.275   8.704  0.2510  0.0564 -0.4065
 2825TIP3    H130034   5.183   3.207   8.640 -1.1531  0.5694 -0.5224
 2825TIP3    H230035   5.186   3.236   8.789 -2.2423  0.7669 -0.5296
 2826TIP3   OH230036   4.292   5.901   2.268 -0.2122  0.5203 -0.1405
 2826TIP3    H130037   4.336   5.984   2.287 -0.2894  0.2727  1.1762
 2826TIP3    H230038   4.323   5.877   2.181  0.3864  1.5584 -0.2289
 2827TIP3   OH230039   0.260   4.600   0.479  0.4119 -0.0402 -0.6909
 2827TIP3    H130040   0.270   4.665   0.549 -0.4401 -2.6216  2.0449
 2827TIP3    H230041   0.348   4.567   0.464  0.5505  0.2575 -0.5418
 2828TIP3   OH230042   4.693   4.534   7.811  0.5649  0.1604  0.5448
 2828TIP3    H130043   4.777   4.581   7.809  1.6173 -1.6550 -0.5293
 2828TIP3    H230044   4.663   4.545   7.901  1.8405  1.0617  0.8977
 2829TIP3   OH230045   3.160   2.846   7.605 -0.0549  0.6852 -0.4951
 2829TIP3    H130046   3.208   2.811   7.680  0.5693  2.7600  0.1229
 2829TIP3    H230047   3.227   2.863   7.539 -0.3280  0.9165 -0.7171
 2830TIP3   OH230048   2.694   5.111   0.817  0.7202 -0.3781 -0.2653
 2830TIP3    H130049   2.785   5.140   0.806  1.4153 -1.2258  2.3941
 2830TIP3    H230050   2.659   5.170   0.884 -1.2083  0.7952 -2.1615
 2831TIP3   OH230051   2.639   0.728   0.361  0.1683  0.1094  0.0863
 2831TIP3    H130052   2.683   0.663   0.306 -0.8457  0.2103 -0.8807
 2831TIP3    H230053   2.663   0.704   0.451  0.0298 -1.4363 -0.2641
 2832TIP3   OH230054   2.255   5.810   8.700 -0.5612  0.0954  0.3986
 2832TIP3    H130055   2.270   5.766   8.616 -1.2102  0.8569 -0.1293
 2832TIP3    H230056   2.342   5.815   8.740 -0.2106 -0.0917 -0.3236
 2833TIP3   OH230057   6.590   4.235   1.049 -0.5622 -0.3888  0.3991
 2833TIP3    H130058   6.609   4.272   0.963 -0.9125 -0.5519  0.2514
 2833TIP3    H230059   6.643   4.155   1.053 -0.0795 -0.0675  0.5790
 2834TIP3   OH230060   4.396   3.805   0.384  0.0620 -0.0676 -0.0562
 2834TIP3    H130061   4.374   3.894   0.409 -0.4450  0.1264 -1.1315
 2834TIP3    H230062   4.428   3.764   0.465  1.3092  1.3813  0.2364
 2835TIP3   OH230063   3.022   1.995   7.251  0.1212 -0.8239 -0.4051
 2835TIP3    H130064   3.044   2.001   7.158 -0.3795 -2.0694 -0.6171
 2835TIP3    H230065   3.054   1.909   7.278  1.0355 -0.1498  0.8125
 2836TIP3   OH230066   0.351   3.910   0.836 -0.0904  0.0321  0.5393
 2836TIP3    H130067   0.345   3.832   0.891 -0.0997  1.1088  2.1327
 2836TIP3    H230068   0.409   3.884   0.763  1.1176 -1.0170  1.8191
 2837TIP3   OH230069   2.445   0.269   7.601 -0.1607 -0.5499  0.4061
 2837TIP3    H130070   2.422   0.275   7.509  1.2059  0.1872  0.0723
 2837TIP3    H230071   2.519   0.329   7.611  0.1396 -1.1038  1.8451
 2838TIP3   OH230072   6.291   1.673   0.894  0.1390 -0.2898 -0.0745
 2838TIP3    H130073   6.252   1.720   0.820  2.1586 -1.8235 -2.2349
 2838TIP3    H230074   6.216   1.635   0.940 -1.3459  2.6134  0.1907
 2839TIP3   OH230075   4.259   4.851   1.372  0.3929  0.1983 -0.4949
 2839TIP3    H130076   4.323   4.787   1.341 -0.3156 -1.0883  0.6041
 2839TIP3    H230077   4.311   4.914   1.423  1.2131  1.0321 -2.2690
 2840TIP3   OH230078   5.608   5.340   0.517  0.2012  0.1744 -0.2063
 2840TIP3    H130079   5.582   5.432   0.519 -1.6434 -0.3048 -0.4532
 2840TIP3    H230080   5.631   5.323   0.426  0.1563  0.2932 -0.2395
 2841TIP3   OH230081   0.123   4.359   0.606 -0.3126  0.6330 -0.2793
 2841TIP3    H130082   0.113   4.454   0.605 -0.3152  0.6307 -0.7486
 2841TIP3    H230083   0.213   4.345   0.634 -0.5546  0.7479  0.5782
 2842TIP3   OH230084   2.046   2.479   6.053 -0.1921  0.1371 -0.0590
 2842TIP3    H130085   2.116   2.425   6.089  0.0891 -0.1267 -0.9765
 2842TIP3    H230086   1.966   2.430   6.071  0.0869 -0.7454 -1.1501
 2843TIP3   OH230087   3.050   4.696   0.617  0.3207  0.0605 -0.2825
 2843TIP3    H130088   2.993   4.638   0.667 -1.8489 -0.0889 -2.7112
 2843TIP3    H230089   3.114   4.638   0.577  1.7685  0.1275  1.7662
 2844TIP3   OH230090   1.427   4.884   1.391 -0.0621  0.3457  0.2135
 2844TIP3    H130091   1.374   4.962   1.406 -2.4542 -0.9753 -0.7168
 2844TIP3    H230092   1.376   4.813   1.430  1.0340 -1.0370 -0.7744
 2845TIP3   OH230093   5.286   1.845   6.421 -0.1847 -0.3706  0.2798
 2845TIP3    H130094   5.238   1.765   6.443 -0.7601 -0.0872  0.0870
 2845TIP3    H230095   5.378   1.821   6.431 -0.3595 -0.9513  0.5769
 2846TIP3   OH230096   3.846   0.715   0.828 -0.1372  0.0372 -0.9286
 2846TIP3    H130097   3.867   0.783   0.893 -0.7695 -0.4038 -0.2503
 2846TIP3    H230098   3.807   0.763   0.755 -1.4284  0.3220 -0.0761
 2847TIP3   OH230099   3.725   4.155   1.139  0.8052  0.0264 -0.2998
 2847TIP3    H130100   3.749   4.096   1.068  1.7345 -1.4539  1.1694
 2847TIP3    H230101   3.704   4.238   1.096  2.0664 -0.5934 -2.2195
 2848TIP3   OH230102   4.142   2.765   0.993  0.7834 -0.4765 -0.1989
 2848TIP3    H130103   4.190   2.694   1.036 -0.9515 -0.2424  2.3479
 2848TIP3    H230104   4.190   2.844   1.017 -0.4643 -0.2884  1.9629
 2849TIP3   OH230105   5.600   1.593   8.666  0.9421 -0.0010 -0.3496
 2849TIP3    H130106   5.652   1.657   8.715  0.0390  2.2192 -2.0979
 2849TIP3    H230107   5.585   1.522   8.728  0.6798  2.1810  2.2873
 2850TIP3   OH230108   4.386   1.311   7.666  0.2902  0.5559 -0.2650
 2850TIP3    H130109   4.443   1.237   7.647 -0.8672 -0.3788 -0.1906
 2850TIP3    H230110   4.304   1.272   7.696  0.0078  1.8848  0.8069
 2851TIP3   OH230111   1.104   5.039   7.308  0.7179 -0.0309  0.0054
 2851TIP3    H130112   1.106   5.123   7.262 -0.1417  0.6063  1.0986
 2851TIP3    H230113   1.181   4.992   7.274  1.4339  1.3372 -0.3524
 2852TIP3   OH230114   2.411   6.018   8.256 -0.2122  0.0584  0.5615
 2852TIP3    H130115   2.386   6.102   8.294 -0.2368  0.4367 -0.2767
 2852TIP3    H230116   2.381   6.022   8.165 -0.6989 -1.0727  0.6607
 2853TIP3   OH230117   0.065   5.302   8.665  0.3344 -0.1060  0.1245
 2853TIP3    H130118   0.150   5.301   8.622  0.0626 -2.1524 -0.4720
 2853TIP3    H230119   0.002   5.293   8.594 -0.3289  0.3651  0.6458
 2854TIP3   OH230120   3.543   6.533   1.769 -1.0220 -0.3532  0.9337
 2854TIP3    H130121   3.620   6.484   1.738 -0.1468  1.3134  0.3642
 2854TIP3    H230122   3.569   6.624   1.765 -3.1659  0.2977  0.3951
 2855TIP3   OH230123   5.468   6.071   7.370 -0.4400  0.5799 -0.1552
 2855TIP3    H130124   5.533   6.113   7.313  0.1245 -0.6275 -0.4431
 2855TIP3    H230125   5.517   6.002   7.415 -0.7716  1.7494  2.1441
 2856TIP3   OH230126   3.066   5.712   7.967  0.0432 -0.5527 -0.8140
 2856TIP3    H130127   3.014   5.654   7.912 -0.9547 -0.1511 -0.3072
 2856TIP3    H230128   3.142   5.733   7.912 -0.6925 -0.5345 -1.8726
 2857TIP3   OH230129   4.745   3.182   1.824 -0.5072 -0.2460 -0.2136
 2857TIP3    H130130   4.744   3.106   1.765  0.3165 -1.1338  0.8843
 2857TIP3    H230131   4.712   3.254   1.770  0.1351 -1.0451 -1.7331
 2858TIP3   OH230132   0.354   2.821   8.539 -0.2928 -0.2640 -0.4011
 2858TIP3    H130133   0.426   2.799   8.480  0.4532 -0.3869  0.5393
 2858TIP3    H230134   0.382   2.791   8.625 -1.2671  0.1149  0.0734
 2859TIP3   OH230135   5.055   5.478   1.566  0.2371  0.2441 -0.0569
 2859TIP3    H130136   4.983   5.518   1.519  1.1524  0.5286 -1.2616
 2859TIP3    H230137   5.132   5.530   1.541  0.8111  0.2287  1.5329
 2860TIP3   OH230138   5.959   0.813   0.925  0.1330 -0.1606 -0.6656
 2860TIP3    H130139   5.964   0.847   1.014  0.2113 -0.9898 -0.3376
 2860TIP3    H230140   5.889   0.863   0.883  1.1623  1.3501 -0.6514
 2861TIP3   OH230141   3.017   3.272   1.967  0.1342  0.8331 -0.0571
 2861TIP3    H130142   3.052   3.207   2.028  0.6260  1.3774  0.2540
 2861TIP3    H230143   3.062   3.255   1.884 -0.5934  0.0408 -0.2943
 2862TIP3   OH230144   2.878   3.749   1.323  0.5303  0.2956  0.5402
 2862TIP3    H130145   2.852   3.687   1.391  0.1035 -0.8628 -0.6516
 2862TIP3    H230146   2.973   3.753   1.330  0.5845 -0.7067  0.4428
 2863TIP3   OH230147   2.756   1.742   0.736 -0.0752  0.0639 -0.2707
 2863TIP3    H130148   2.712   1.764   0.818 -0.0642 -0.2321 -0.1830
 2863TIP3    H230149   2.695   1.682   0.693 -0.1782  0.3844 -0.5773
 2864TIP3   OH230150   2.975   4.037   8.544  0.4737 -0.0349  0.0720
 2864TIP3    H130151   2.975   3.944   8.520 -1.5066  0.0327 -0.4109
 2864TIP3    H230152   2.958   4.038   8.638 -1.1514 -0.1862 -0.1830
 2865TIP3   OH230153   5.908   2.821   7.445 -0.4659 -0.1932 -0.5406
 2865TIP3    H130154   5.907   2.779   7.530 -1.1288 -1.6105 -1.2118
 2865TIP3    H230155   5.959   2.901   7.458  0.9212 -1.2307  0.7716
 2866TIP3   OH230156   5.352   3.728   0.619  0.2828 -0.2516 -1.0391
 2866TIP3    H130157   5.389   3.763   0.700 -0.3203 -0.0644 -0.8455
 2866TIP3    H230158   5.395   3.779   0.550 -1.7251  2.0579 -0.7272
 2867TIP3   OH230159   5.570   3.866   7.528 -0.5022 -0.3834 -0.0342
 2867TIP3    H130160   5.498   3.803   7.523 -1.0317  0.0323  1.7651
 2867TIP3    H230161   5.580   3.898   7.438 -1.2692 -1.8519 -0.6780
 2868TIP3   OH230162   5.209   0.556   7.557  0.4863  0.2252  0.0258
 2868TIP3    H130163   5.256   0.557   7.473 -1.6034 -0.3620 -1.2455
 2868TIP3    H230164   5.234   0.638   7.600  1.9656  0.3193 -0.9619
 2869TIP3   OH230165   1.113   4.214   6.888  0.1199 -0.0614  0.1366
 2869TIP3    H130166   1.123   4.152   6.816 -1.2379 -0.7991  0.5430
 2869TIP3    H230167   1.081   4.294   6.847  1.7161  0.3491 -0.3698
 2870TIP3   OH230168   0.390   6.611   8.500  0.1322  0.2963  0.2450
 2870TIP3    H130169   0.424   6.633   8.413  2.8849 -1.2261  0.7996
 2870TIP3    H230170   0.350   6.525   8.489 -0.3283  0.4950  0.3319
 2871TIP3   OH230171   5.515   4.536   7.565  0.6115  0.2290  0.4510
 2871TIP3    H130172   5.529   4.570   7.653  1.7505  1.4438 -0.1628
 2871TIP3    H230173   5.542   4.444   7.570 -1.1630 -0.2582  1.8036
 2872TIP3   OH230174   1.094   0.698   0.719 -0.4290  0.3090 -0.2129
 2872TIP3    H130175   1.149   0.775   0.705  0.1473  0.0827  0.7034
 2872TIP3    H230176   1.018   0.731   0.766 -0.2475  0.3502  0.0564
 2873TIP3   OH230177   0.485   5.256   7.215 -0.1287  0.3540 -0.1241
 2873TIP3    H130178   0.534   5.338   7.207  0.2838 -0.0287 -2.0783
 2873TIP3    H230179   0.495   5.232   7.307  1.5193  1.4262  0.0355
 2874TIP3   OH230180   3.600   2.927   1.183 -0.5016  0.1233 -0.2397
 2874TIP3    H130181   3.680   2.875   1.175 -0.5364 -0.2199  1.2497
 2874TIP3    H230182   3.621   2.994   1.248 -0.5070  1.9484 -2.0271
 2875TIP3   OH230183   3.108   3.798   6.928  0.2524 -0.6045 -0.3571
 2875TIP3    H130184   3.082   3.854   7.001 -0.7607 -2.5988  0.8838
 2875TIP3    H230185   3.169   3.852   6.878 -0.6385  1.5753  0.7739
 2876TIP3   OH230186   1.357   4.097   8.693  0.4473  0.0352 -0.7913
 2876TIP3    H130187   1.310   4.042   8.630  1.9563 -1.0430 -1.0337
 2876TIP3    H230188   1.351   4.049   8.775 -0.2739  0.7209 -0.4330
 2877TIP3   OH230189   5.462   5.182   7.655  0.5296 -0.1812  0.7425
 2877TIP3    H130190   5.403   5.244   7.611  0.8387 -0.3738  0.0440
 2877TIP3    H230191   5.547   5.227   7.657  0.8288 -0.6871 -0.0338
 2878TIP3   OH230192   3.465   4.758   7.483  0.3282 -0.3022  0.2712
 2878TIP3    H130193   3.436   4.806   7.560  0.1274  0.5869 -0.3372
 2878TIP3    H230194   3.386   4.748   7.429  0.9134  1.2493 -0.9342
 2879TIP3   OH230195   1.745   3.913   0.567 -0.1047 -0.1408 -0.9633
 2879TIP3    H130196   1.662   3.867   0.579  0.7241 -1.4087  0.2075
 2879TIP3    H230197   1.797   3.889   0.643 -0.0938  3.9254  0.5742
 2880TIP3   OH230198   3.884   1.140   7.136  0.5519 -0.1361  0.6435
 2880TIP3    H130199   3.972   1.147   7.171  0.6536  0.2620  0.3084
 2880TIP3    H230200   3.886   1.061   7.081  0.4749 -0.5846  1.2840
 2881TIP3   OH230201   5.428   2.211   8.298  0.3936 -0.9965  0.4157
 2881TIP3    H130202   5.374   2.157   8.356  0.7474 -0.3667  1.3492
 2881TIP3    H230203   5.442   2.292   8.347  1.4985 -0.8245 -0.1638
 2882TIP3   OH230204   4.099   5.554   8.402  0.1811 -0.1091  0.9902
 2882TIP3    H130205   4.069   5.644   8.396  1.8395  0.3925 -0.6139
 2882TIP3    H230206   4.177   5.558   8.456  0.8598 -0.3934  0.0553
 2883TIP3   OH230207   4.657   6.255   0.990  0.9291 -0.0246  0.3629
 2883TIP3    H130208   4.572   6.299   0.986  1.7512  1.6525  0.2607
 2883TIP3    H230209   4.649   6.195   1.064 -1.1437 -1.7781 -1.1556
 2884TIP3   OH230210   5.774   6.631   8.428  0.3332  0.3160  0.2832
 2884TIP3    H130211   5.817   6.568   8.486 -1.0913  0.3602  1.4457
 2884TIP3    H230212   5.801   6.717   8.462  2.5154  0.4174 -1.4829
 2885TIP3   OH230213   0.592   0.854   8.393  0.9119 -0.1641  0.0144
 2885TIP3    H130214   0.506   0.874   8.429  0.7511  0.3072 -0.6096
 2885TIP3    H230215   0.643   0.823   8.468  0.6591  1.0330  0.7039
 2886TIP3   OH230216   4.672   4.354   1.686  0.2035 -0.3406  0.0826
 2886TIP3    H130217   4.642   4.312   1.766  0.5976 -0.3038  0.2489
 2886TIP3    H230218   4.680   4.447   1.709 -0.3394 -0.2209 -0.1893
 2887TIP3   OH230219   5.395   0.082   6.617  0.2109 -0.0398 -0.1451
 2887TIP3    H130220   5.400  -0.004   6.660 -1.2816 -0.1513 -0.1317
 2887TIP3    H230221   5.372   0.062   6.527 -0.3230  0.3436 -0.0996
 2888TIP3   OH230222   6.300   4.499   7.249 -0.4803 -0.3555  0.3324
 2888TIP3    H130223   6.317   4.406   7.235 -1.3289 -0.8103  2.0027
 2888TIP3    H230224   6.241   4.501   7.325 -0.5433  1.5442  0.2782
 2889TIP3   OH230225   4.733   3.896   6.278 -0.4371  0.3125  0.1483
 2889TIP3    H130226   4.829   3.902   6.278 -0.4073 -0.1088 -0.0539
 2889TIP3    H230227   4.706   3.951   6.205 -0.4025  1.0860  0.6966
 2890TIP3   OH230228   4.583   5.556   1.663 -0.4642  0.0472  0.5555
 2890TIP3    H130229   4.606   5.528   1.751 -0.1064 -0.6630  0.2419
 2890TIP3    H230230   4.585   5.652   1.667 -1.6890  0.0498  1.6374
 2891TIP3   OH230231   3.533   1.565   0.300  0.4122 -0.0077 -0.6923
 2891TIP3    H130232   3.481   1.585   0.377  2.4087 -0.3701  0.8354
 2891TIP3    H230233   3.596   1.638   0.294 -0.3148  0.5351 -2.5973
 2892TIP3   OH230234   1.835   1.319   8.046 -0.1399  0.0061 -0.1303
 2892TIP3    H130235   1.829   1.295   7.953  1.8973 -1.9185  0.1571
 2892TIP3    H230236   1.760   1.276   8.087 -1.4491  1.4198 -0.9190
 2893TIP3   OH230237   4.495   4.127   1.970  0.5680  0.3893  0.0920
 2893TIP3    H130238   4.429   4.127   2.040  0.0468 -0.2586 -0.3888
 2893TIP3    H230239   4.578   4.122   2.016  0.1824 -1.5414  0.6477
 2894TIP3   OH230240   5.497   2.644   1.616 -0.3164  0.0496  0.4636
 2894TIP3    H130241   5.496   2.583   1.542  3.2775  0.2831  0.0365
 2894TIP3    H230242   5.462   2.594   1.689 -2.7152 -0.6073 -1.0120
 2895TIP3   OH230243   5.467   6.349   8.306 -0.9788  0.4006  0.4680
 2895TIP3    H130244   5.556   6.324   8.332 -0.7951  0.2557 -0.2955
 2895TIP3    H230245   5.459   6.441   8.332 -0.9082  0.1821  1.3073
 2896TIP3   OH230246   6.179   2.895   6.673 -0.7085 -0.2427 -0.1049
 2896TIP3    H130247   6.084   2.899   6.657 -0.7997  1.2631  0.6681
 2896TIP3    H230248   6.186   2.866   6.764 -0.3826 -1.2509 -0.4387
 2897TIP3   OH230249   1.915   5.143   6.437  0.3176  0.0514  0.1575
 2897TIP3    H130250   1.867   5.067   6.403 -1.2710 -0.0999  2.4948
 2897TIP3    H230251   1.975   5.167   6.366 -1.3983 -1.3704 -1.9220
 2898TIP3   OH230252   5.769   4.157   7.479  0.2855  0.1013  0.2836
 2898TIP3    H130253   5.829   4.213   7.430  0.0944 -1.2101 -1.5674
 2898TIP3    H230254   5.716   4.114   7.412  0.4118 -2.2676  1.5815
 2899TIP3   OH230255   2.750   0.220   0.042  0.2755  0.6714  0.8981
 2899TIP3    H130256   2.712   0.190   0.125  0.7072  1.0853  1.2538
 2899TIP3    H230257   2.843   0.200   0.050  0.4173  1.2611  0.7660
 2900TIP3   OH230258   5.625   5.233   0.871  0.6625  0.1155 -0.0452
 2900TIP3    H130259   5.616   5.320   0.910  3.1850  0.2428  0.4464
 2900TIP3    H230260   5.668   5.250   0.787 -1.3328 -0.4739 -1.2424
 2901TIP3   OH230261   0.138   0.429   1.573 -0.1694  0.0930  0.9042
 2901TIP3    H130262   0.126   0.409   1.666  1.9596 -1.4890  0.9088
 2901TIP3    H230263   0.230   0.457   1.567 -0.0777 -0.5033 -0.8226
 2902TIP3   OH230264   2.192   2.634   0.778  0.3084  0.2642  0.0384
 2902TIP3    H130265   2.139   2.706   0.812 -0.2871 -0.1707  0.0497
 2902TIP3    H230266   2.225   2.666   0.694 -0.2702  0.4055 -0.1385
 2903TIP3   OH230267   5.105   3.284   7.462 -0.0660  0.0453 -0.6391
 2903TIP3    H130268   5.079   3.206   7.511 -0.4853  0.3274 -0.4092
 2903TIP3    H230269   5.060   3.275   7.378 -1.0056  0.5772 -0.2086
 2904TIP3   OH230270   2.573   1.244   0.339 -0.5030 -0.0051 -0.0789
 2904TIP3    H130271   2.655   1.271   0.380 -0.3504 -0.0643 -0.3403
 2904TIP3    H230272   2.539   1.175   0.395 -0.0813 -0.3793 -0.2840
 2905TIP3   OH230273   3.103   1.953   0.490 -0.0434  0.7415 -0.0320
 2905TIP3    H130274   3.057   1.986   0.412  1.5348 -0.5490 -1.5871
 2905TIP3    H230275   3.033   1.935   0.553 -1.4178  1.4409 -1.2819
 2906TIP3   OH230276   5.164   1.543   0.015 -0.1670  0.2502  0.1209
 2906TIP3    H130277   5.152   1.511  -0.075 -2.1832 -0.0089  0.4507
 2906TIP3    H230278   5.191   1.466   0.065  2.4156  0.6705 -0.4672
 2907TIP3   OH230279   0.185   0.781   6.808  0.6403  0.2226 -0.0982
 2907TIP3    H130280   0.167   0.755   6.898  0.0510 -1.0925 -0.5778
 2907TIP3    H230281   0.275   0.752   6.793  1.3329  1.8989  0.5527
 2908TIP3   OH230282   6.207   2.091   8.212 -0.3831  0.1576  0.4697
 2908TIP3    H130283   6.213   2.160   8.145  0.1282 -0.2581  0.0719
 2908TIP3    H230284   6.150   2.127   8.279  1.9030  2.0391  1.5563
 2909TIP3   OH230285   3.547   0.364   7.697 -0.4516 -0.7262  0.0998
 2909TIP3    H130286   3.485   0.429   7.666  0.2693  0.1588  0.4841
 2909TIP3    H230287   3.570   0.392   7.786 -1.6938 -2.6438  1.0941
 2910TIP3   OH230288   2.150   1.179   7.230  0.5548  0.2155 -0.3775
 2910TIP3    H130289   2.230   1.178   7.178  0.0479 -2.7196 -1.3168
 2910TIP3    H230290   2.080   1.191   7.165  0.0951 -0.2886  0.0160
 2911TIP3   OH230291   2.486   5.783   0.127 -0.0919 -0.0067 -0.3766
 2911TIP3    H130292   2.460   5.759   0.216  1.2916  0.7110  0.2508
 2911TIP3    H230293   2.581   5.771   0.125  0.5869  4.0489 -0.3753
 2912TIP3   OH230294   6.010   4.337   6.429 -0.0674 -0.0430 -0.0434
 2912TIP3    H130295   6.057   4.412   6.394  1.1684 -1.4707 -1.6241
 2912TIP3    H230296   5.976   4.292   6.351  0.0539 -1.6253  0.7759
 2913TIP3   OH230297   2.343   5.058   0.316  0.6525 -0.2669 -0.1159
 2913TIP3    H130298   2.318   5.010   0.395  0.7942 -0.2243 -0.0445
 2913TIP3    H230299   2.438   5.066   0.322  0.3975  2.6974  1.4340
 2914TIP3   OH230300   2.184   3.174   8.096  0.8109  0.3492 -0.2030
 2914TIP3    H130301   2.208   3.263   8.125 -0.9086  0.2321  1.8864
 2914TIP3    H230302   2.089   3.177   8.090  0.8555 -0.8933 -1.8993
 2915TIP3   OH230303   1.013   3.342   8.313 -0.2793  0.4861 -0.0629
 2915TIP3    H130304   0.954   3.407   8.351 -1.6330 -1.6239  1.6434
 2915TIP3    H230305   0.956   3.289   8.256  0.7616  0.6215 -1.2802
 2916TIP3   OH230306   5.936   1.437   0.463  0.0515 -0.3255  0.4606
 2916TIP3    H130307   5.944   1.344   0.445 -0.4136 -0.6476  1.8159
 2916TIP3    H230308   6.015   1.459   0.513  0.4359  0.1459 -0.3307
 2917TIP3   OH230309   1.785   1.380   1.391  0.6121  0.5057 -0.3200
 2917TIP3    H130310   1.742   1.426   1.463 -0.1584  0.7371 -0.9219
 2917TIP3    H230311   1.715   1.359   1.330  1.1870 -0.1290 -0.7750
 2918TIP3   OH230312   4.761   1.227   7.595 -0.5626 -0.1518 -0.3720
 2918TIP3    H130313   4.740   1.196   7.683 -3.3525 -2.0438 -1.5780
 2918TIP3    H230314   4.784   1.319   7.607  0.7044 -0.7111  2.4675
 2919TIP3   OH230315   2.046   6.737   1.006 -0.4559  0.2349 -0.8874
 2919TIP3    H130316   1.972   6.739   0.946 -0.4685  0.2157 -0.8723
 2919TIP3    H230317   2.105   6.805   0.973 -1.5492  1.9353  0.4842
 2920TIP3   OH230318   1.706   5.161   0.500  0.2927  0.7247  0.0157
 2920TIP3    H130319   1.750   5.139   0.418  0.2482  0.0444  0.1706
 2920TIP3    H230320   1.772   5.146   0.568  0.5060  1.8193  0.0655
 2921TIP3   OH230321   3.200   5.040   2.129 -0.6117 -0.0169 -0.1703
 2921TIP3    H130322   3.197   4.946   2.112  0.1619  0.0503 -0.7473
 2921TIP3    H230323   3.198   5.047   2.225 -2.3464 -0.5285 -0.1263
 2922TIP3   OH230324   2.471   2.695   0.134 -0.6030  0.2064 -0.0876
 2922TIP3    H130325   2.489   2.606   0.105 -0.8928 -0.0436  0.4788
 2922TIP3    H230326   2.393   2.721   0.086 -0.2561  0.3212 -0.5887
 2923TIP3   OH230327   1.048   4.222   1.198 -0.0734 -0.1497  0.0130
 2923TIP3    H130328   1.131   4.269   1.195 -0.7579  1.0460 -1.5000
 2923TIP3    H230329   0.981   4.291   1.198 -1.0821 -1.0894  0.6758
 2924TIP3   OH230330   5.622   4.366   7.239  0.2168 -0.2889  0.9391
 2924TIP3    H130331   5.657   4.302   7.177 -1.1710 -1.1893  1.0671
 2924TIP3    H230332   5.671   4.446   7.219  0.3764 -0.7689 -0.7640
 2925TIP3   OH230333   1.667   2.581   7.691  0.1598 -0.0052 -0.0688
 2925TIP3    H130334   1.706   2.514   7.747  2.8425  2.0333  0.7753
 2925TIP3    H230335   1.677   2.547   7.602 -0.3186 -1.4987  0.4201
 2926TIP3   OH230336   4.297   0.732   8.064 -0.6349  0.1283 -0.1242
 2926TIP3    H130337   4.219   0.683   8.089 -0.8789  0.2567 -0.6393
 2926TIP3    H230338   4.309   0.796   8.135 -0.8137 -0.0919  0.1085
 2927TIP3   OH230339   1.459   3.982   0.560 -0.3456 -0.6574  0.2605
 2927TIP3    H130340   1.458   4.042   0.486 -0.6690  0.1395  0.8941
 2927TIP3    H230341   1.421   3.901   0.526  1.9241 -1.2226 -1.1578
 2928TIP3   OH230342   0.781   4.090   6.984 -0.3398 -0.5761 -0.5715
 2928TIP3    H130343   0.840   4.166   6.984 -1.1725  0.0830 -1.1747
 2928TIP3    H230344   0.729   4.100   6.905 -1.5552 -0.9185  0.1618
 2929TIP3   OH230345   3.586   1.562   7.096  0.1844  0.2854  0.0453
 2929TIP3    H130346   3.508   1.599   7.054  0.7718 -0.3507 -1.6991
 2929TIP3    H230347   3.653   1.564   7.028  0.3919 -3.4579 -0.0516
 2930TIP3   OH230348   5.725   2.625   1.410 -0.2391 -0.4939 -0.0041
 2930TIP3    H130349   5.749   2.535   1.385 -0.2239 -0.8327  1.1755
 2930TIP3    H230350   5.637   2.637   1.375  0.6369 -0.0864 -2.2813
 2931TIP3   OH230351   4.573   3.948   7.181  0.4052  0.6317  0.5708
 2931TIP3    H130352   4.575   3.907   7.094 -1.3600 -0.3677  0.9543
 2931TIP3    H230353   4.625   4.028   7.171 -0.4250  0.9727 -1.6503
 2932TIP3   OH230354   1.934   1.504   7.668 -0.0222  0.4535 -0.0124
 2932TIP3    H130355   1.922   1.410   7.652  1.6666  0.4285 -1.4588
 2932TIP3    H230356   1.864   1.545   7.616  0.5877  0.0374 -1.2199
 2933TIP3   OH230357   5.293   0.544   7.262  0.1550  0.1725  0.3263
 2933TIP3    H130358   5.270   0.572   7.174  0.3443  0.1366  0.2642
 2933TIP3    H230359   5.242   0.465   7.277  1.2120 -0.6661 -0.3111
 2934TIP3   OH230360   6.851   6.230   8.472 -0.4067 -0.1695 -0.4115
 2934TIP3    H130361   6.784   6.275   8.524 -0.7980 -0.4324 -0.6843
 2934TIP3    H230362   6.857   6.142   8.510 -1.1657 -0.5817 -1.2092
 2935TIP3   OH230363   2.843   5.115   1.254 -0.0367  0.8617  0.0022
 2935TIP3    H130364   2.769   5.093   1.310  0.8505  1.0926  1.2909
 2935TIP3    H230365   2.919   5.112   1.311  1.2230 -1.0046 -1.6177
 2936TIP3   OH230366   6.710   4.108   1.571  0.4403  0.0273 -0.0435
 2936TIP3    H130367   6.763   4.185   1.591  1.7759 -1.3158  2.0173
 2936TIP3    H230368   6.665   4.089   1.653 -0.4615 -0.9564 -0.7465
 2937TIP3   OH230369   0.090   3.326   7.127 -0.1867 -0.5943 -0.4049
 2937TIP3    H130370   0.085   3.418   7.152  0.6629 -0.9693  1.3632
 2937TIP3    H230371   0.046   3.321   7.043  1.3427  1.7430 -1.4455
 2938TIP3   OH230372   0.691   2.889   1.063  0.5334  0.3976 -0.5617
 2938TIP3    H130373   0.660   2.809   1.021  2.0892 -1.0106  0.8344
 2938TIP3    H230374   0.754   2.926   1.002 -0.0294  0.4604 -1.1177
 2939TIP3   OH230375   4.060   0.621   6.186  0.3453  0.2283 -0.2629
 2939TIP3    H130376   4.139   0.654   6.228  0.5048  1.2892 -1.3318
 2939TIP3    H230377   4.057   0.528   6.209  1.3333  0.4118  0.6452
 2940TIP3   OH230378   5.159   1.559   6.862 -0.0334  0.0498 -0.5476
 2940TIP3    H130379   5.080   1.604   6.890 -0.9421 -0.9450 -1.4001
 2940TIP3    H230380   5.128   1.474   6.830  1.3016 -0.1153 -1.4971
 2941TIP3   OH230381   6.243   6.362   1.303 -0.0426 -0.3357  0.3174
 2941TIP3    H130382   6.267   6.451   1.279 -1.9248 -0.2938 -1.7121
 2941TIP3    H230383   6.322   6.311   1.289  0.1914  0.5038 -1.7752
 2942TIP3   OH230384   5.295   5.093   7.100 -0.1782  0.5285  0.5551
 2942TIP3    H130385   5.280   5.187   7.100  0.0060  0.5598  0.6913
 2942TIP3    H230386   5.388   5.084   7.121 -0.2530  0.3083  0.8015
 2943TIP3   OH230387   3.072   1.467   2.226  0.1772 -0.0089 -0.1309
 2943TIP3    H130388   3.039   1.544   2.180 -1.1122 -0.0589  0.6714
 2943TIP3    H230389   3.002   1.403   2.220  1.7073 -1.6625 -1.9182
 2944TIP3   OH230390   5.124   0.904   0.358  0.4036  0.3726 -0.1330
 2944TIP3    H130391   5.090   0.920   0.446  2.0127  0.3288  0.5495
 2944TIP3    H230392   5.048   0.907   0.301 -0.6112  0.9006  1.2012
 2945TIP3   OH230393   0.154   3.051   6.816  0.4987  0.1191 -0.6725
 2945TIP3    H130394   0.232   2.998   6.834 -0.5989 -1.2950  0.1031
 2945TIP3    H230395   0.187   3.126   6.766  1.8993 -2.0977 -3.3063
 2946TIP3   OH230396   1.581   3.957   7.035  0.3454 -0.5547  0.3610
 2946TIP3    H130397   1.544   3.893   7.095 -1.9125  0.4668  0.1546
 2946TIP3    H230398   1.611   4.029   7.092 -2.1730  0.6001  0.3532
 2947TIP3   OH230399   4.069   3.084   1.564 -0.0001 -0.4476  0.3131
 2947TIP3    H130400   4.158   3.105   1.591  0.2222 -1.7611  0.6872
 2947TIP3    H230401   4.024   3.062   1.646 -0.4021 -0.7171  0.0222
 2948TIP3   OH230402   4.146   4.373   0.678 -0.0998 -0.0714 -0.1927
 2948TIP3    H130403   4.193   4.293   0.655  0.3592 -0.0913  0.7639
 2948TIP3    H230404   4.212   4.442   0.674 -0.8600  0.6396 -2.8562
 2949TIP3   OH230405   2.276   4.031   2.202 -0.1970  0.4299  0.1031
 2949TIP3    H130406   2.210   3.965   2.224 -1.1223  0.5161 -2.1137
 2949TIP3    H230407   2.239   4.113   2.234 -1.0419  0.4253 -0.8070
 2950TIP3   OH230408   2.174   0.566   7.737  0.2661  0.6429  0.3751
 2950TIP3    H130409   2.137   0.560   7.649  1.5574 -0.8397 -0.1172
 2950TIP3    H230410   2.154   0.655   7.766 -0.1686  1.1675 -1.4128
 2951TIP3   OH230411   4.637   1.777   7.984  0.2095 -0.1045 -0.1887
 2951TIP3    H130412   4.721   1.780   8.030 -0.7418  2.9192  1.5937
 2951TIP3    H230413   4.657   1.813   7.897  0.9980 -0.7722 -0.3030
 2952TIP3   OH230414   1.456   5.617   7.303  0.0007 -0.1704  0.0993
 2952TIP3    H130415   1.363   5.593   7.301  0.3814 -1.8488  0.7403
 2952TIP3    H230416   1.474   5.634   7.396  0.6377 -1.2102  0.1781
 2953TIP3   OH230417   1.278   4.998   6.468  0.4537 -0.1318 -0.2606
 2953TIP3    H130418   1.196   4.949   6.468  0.2996  0.0886 -1.3622
 2953TIP3    H230419   1.332   4.955   6.401  0.8635  0.3168 -0.2314
 2954TIP3   OH230420   6.780   5.728   1.287 -0.0553 -0.3845  0.1958
 2954TIP3    H130421   6.726   5.752   1.362  0.7795 -1.6587  1.2459
 2954TIP3    H230422   6.719   5.725   1.213 -1.2293 -0.7756  1.1543
 2955TIP3   OH230423   2.006   2.947   7.328  0.1959 -0.1959  0.1635
 2955TIP3    H130424   1.923   2.900   7.323  1.1528 -2.5315  3.2320
 2955TIP3    H230425   2.064   2.901   7.267 -0.1242  0.0645 -0.3493
 2956TIP3   OH230426   0.508   4.039   0.150  0.1731  0.4308 -0.1882
 2956TIP3    H130427   0.504   3.946   0.125 -0.0590  0.4181 -0.0977
 2956TIP3    H230428   0.448   4.082   0.090  0.3254  0.5333 -0.2689
 2957TIP3   OH230429   4.567   6.806   1.350  0.5432  0.1966  0.0558
 2957TIP3    H130430   4.625   6.747   1.398 -0.5290 -0.4733  0.5659
 2957TIP3    H230431   4.574   6.890   1.396 -0.2011 -0.3421  1.1823
 2958TIP3   OH230432   0.037   0.464   6.939  0.2635  0.3626 -0.2246
 2958TIP3    H130433  -0.022   0.389   6.938  0.9059 -0.1630 -0.0055
 2958TIP3    H230434  -0.016   0.536   6.975  0.2933 -0.5929  1.9208
 2959TIP3   OH230435   5.058   4.433   8.111  0.5595  0.2534  0.1973
 2959TIP3    H130436   4.966   4.428   8.085  0.4298  3.3341 -0.3182
 2959TIP3    H230437   5.056   4.477   8.196  1.5363 -0.6384  0.6993
 2960TIP3   OH230438   3.999   4.957   7.446  0.2832  0.1494 -0.5004
 2960TIP3    H130439   4.080   4.906   7.457  0.9363  1.2690  0.0831
 2960TIP3    H230440   4.030   5.047   7.434 -0.9183  0.8407  1.2674
 2961TIP3   OH230441   6.037   5.569   8.708  0.5864 -0.1303 -0.0542
 2961TIP3    H130442   6.020   5.619   8.628  0.5801 -0.8324 -0.5031
 2961TIP3    H230443   6.131   5.551   8.704  0.6739  0.2328  0.3370
 2962TIP3   OH230444   5.503   0.596   0.704  0.1390 -0.0675  0.0563
 2962TIP3    H130445   5.485   0.519   0.651  0.2818 -0.7247  0.9387
 2962TIP3    H230446   5.598   0.609   0.696  0.2552 -0.5231  0.6034
 2963TIP3   OH230447   0.206   5.211   6.727 -0.1943  0.9552 -0.2840
 2963TIP3    H130448   0.247   5.127   6.709 -2.5955 -0.5983  0.9184
 2963TIP3    H230449   0.156   5.197   6.808 -1.0390  3.4048 -0.2790
 2964TIP3   OH230450   3.469   5.190   0.390 -0.0497  0.3356 -0.2450
 2964TIP3    H130451   3.388   5.176   0.340  0.7605 -0.1017 -1.4758
 2964TIP3    H230452   3.538   5.156   0.333  0.8191 -1.2264  1.6353
 2965TIP3   OH230453   2.730   4.104   1.994  0.2153  0.6409  0.4633
 2965TIP3    H130454   2.748   4.090   2.087 -0.4862 -2.4985  0.2335
 2965TIP3    H230455   2.635   4.110   1.988  0.2703  1.1336 -0.0334
 2966TIP3   OH230456   4.905   2.812   8.143  0.1707 -0.4074 -0.1253
 2966TIP3    H130457   4.976   2.754   8.168 -0.3845 -0.5815  1.1313
 2966TIP3    H230458   4.827   2.757   8.145 -0.0347 -0.1923 -1.3678
 2967TIP3   OH230459   2.311   1.255   6.949 -0.4660 -0.3120  0.0415
 2967TIP3    H130460   2.282   1.208   6.871 -0.0501  0.5153 -0.6302
 2967TIP3    H230461   2.367   1.325   6.916  0.9950 -0.8832  1.1890
 2968TIP3   OH230462   4.519   2.661   7.874 -0.1866 -0.0413  0.4076
 2968TIP3    H130463   4.433   2.697   7.855 -0.3473 -1.2140 -1.2255
 2968TIP3    H230464   4.503   2.591   7.937 -0.2415  0.6057  1.1315
 2969TIP3   OH230465   0.356   3.697   1.045  0.2786  0.1923 -0.5721
 2969TIP3    H130466   0.421   3.661   0.985  0.8266  2.2957 -1.3303
 2969TIP3    H230467   0.407   3.726   1.121  0.1599  1.1935 -0.8577
 2970TIP3   OH230468   4.574   2.046   1.893  0.8033  0.5011 -0.2211
 2970TIP3    H130469   4.521   2.126   1.887 -1.0379 -0.3579  2.5240
 2970TIP3    H230470   4.532   1.985   1.833  1.5861  1.2101 -1.5422
 2971TIP3   OH230471   2.998   3.832   0.550  0.5852 -0.4475  0.1924
 2971TIP3    H130472   2.980   3.741   0.576  0.0409 -0.8870 -1.5611
 2971TIP3    H230473   3.009   3.879   0.633 -2.5165 -1.4241  1.3146
 2972TIP3   OH230474   1.553   0.549   7.775 -0.3422  0.1840 -0.0406
 2972TIP3    H130475   1.603   0.623   7.809 -0.5061  0.6780 -0.8516
 2972TIP3    H230476   1.590   0.473   7.820 -0.6716  0.8229  1.3608
 2973TIP3   OH230477   4.366   0.862   6.541  0.1437  0.1605  0.1536
 2973TIP3    H130478   4.316   0.943   6.541  0.4781  0.3705 -0.1930
 2973TIP3    H230479   4.444   0.882   6.594 -0.1714 -0.1928  0.7725
 2974TIP3   OH230480   1.623   0.657   8.614  0.3245 -0.2319  0.4557
 2974TIP3    H130481   1.631   0.751   8.597 -0.1421 -0.1241  0.8117
 2974TIP3    H230482   1.682   0.641   8.688  1.4828 -0.4891 -0.4990
 2975TIP3   OH230483   2.860   6.667   6.888 -1.2138 -0.0066  0.3398
 2975TIP3    H130484   2.882   6.756   6.916  0.2572 -0.9946  2.6566
 2975TIP3    H230485   2.773   6.674   6.850 -1.4462  2.2864  1.1695
 2976TIP3   OH230486   0.060   0.823   0.055  0.0349  0.4903  0.2734
 2976TIP3    H130487  -0.018   0.858   0.100  0.5958  0.6351  1.1608
 2976TIP3    H230488   0.112   0.900   0.035 -0.4995  0.4938 -1.2481
 2977TIP3   OH230489   0.486   2.739   1.561  0.0531 -0.3879 -0.1364
 2977TIP3    H130490   0.462   2.680   1.633 -1.3795  0.8441  0.4470
 2977TIP3    H230491   0.444   2.822   1.583 -0.4905  0.0063 -2.4411
 2978TIP3   OH230492   1.938   4.090   1.679  0.1058 -0.0209 -0.0730
 2978TIP3    H130493   2.029   4.099   1.707  0.7613 -2.0653 -1.3340
 2978TIP3    H230494   1.888   4.092   1.760  1.3268  0.4436  0.7004
 2979TIP3   OH230495   5.269   6.602   6.420  1.1013  0.1360 -0.5033
 2979TIP3    H130496   5.258   6.537   6.350  0.6133 -0.5364  0.1821
 2979TIP3    H230497   5.300   6.551   6.495  0.2669  0.6116  0.1767
 2980TIP3   OH230498   2.917   6.146   0.946 -0.3810  0.4961 -0.0373
 2980TIP3    H130499   3.009   6.118   0.940 -0.4571  0.3962 -0.8462
 2980TIP3    H230500   2.870   6.067   0.973 -0.0980  0.8082  1.4092
 2981TIP3   OH230501   4.020   2.137   0.480 -0.3753 -0.1184  0.0877
 2981TIP3    H130502   4.012   2.233   0.477  0.4275 -0.0281  0.6131
 2981TIP3    H230503   4.053   2.114   0.393 -0.3836  0.1007  0.0251
 2982TIP3   OH230504   6.328   6.461   1.588  0.1871 -0.5842 -0.1617
 2982TIP3    H130505   6.296   6.432   1.503  1.6356 -0.0445 -0.9259
 2982TIP3    H230506   6.363   6.549   1.572 -1.6321  0.5135  1.4987
 2983TIP3   OH230507   2.141   0.918   7.627  0.2550 -0.3383  0.1953
 2983TIP3    H130508   2.072   0.858   7.600  2.1175 -1.7798 -1.7374
 2983TIP3    H230509   2.163   0.891   7.717  0.2893 -1.8545 -0.2382
 2984TIP3   OH230510   4.890   3.651   8.426 -0.5249 -0.1412  0.1147
 2984TIP3    H130511   4.967   3.639   8.370 -1.4301  2.5858 -1.8949
 2984TIP3    H230512   4.850   3.564   8.431 -0.2761 -0.5709 -3.3718
 2985TIP3   OH230513   4.854   5.913   1.455  0.1175  0.3953  0.3914
 2985TIP3    H130514   4.896   5.878   1.377 -1.4200 -0.5384 -0.0668
 2985TIP3    H230515   4.912   5.888   1.527  0.3119 -0.9171 -0.1979
 2986TIP3   OH230516   3.432   5.983   7.061 -0.0607  0.3486 -0.3348
 2986TIP3    H130517   3.355   6.040   7.059 -1.8318 -1.8959  0.0609
 2986TIP3    H230518   3.417   5.921   6.990  2.4693  1.0660 -1.6137
 2987TIP3   OH230519   3.603   1.106   7.196  0.5779 -0.0855  0.0373
 2987TIP3    H130520   3.684   1.145   7.162 -0.1357  0.5378 -0.9851
 2987TIP3    H230521   3.631   1.024   7.236  1.4408 -1.1045 -2.4479
 2988TIP3   OH230522   1.516   5.666   8.087  0.0478 -0.3899 -0.0508
 2988TIP3    H130523   1.589   5.699   8.138 -0.0426 -1.2616  0.6668
 2988TIP3    H230524   1.449   5.645   8.152 -1.9543  2.8772 -0.8206
 2989TIP3   OH230525   3.985   4.297   0.358  0.4415 -0.0824  0.0987
 2989TIP3    H130526   3.993   4.339   0.272 -0.9060  1.2872  0.5753
 2989TIP3    H230527   4.026   4.359   0.418  0.3693 -0.4915  0.5708
 2990TIP3   OH230528   3.856   1.615   0.847  0.4992 -0.1978  0.1913
 2990TIP3    H130529   3.832   1.610   0.939  0.0738 -3.0295  0.0153
 2990TIP3    H230530   3.950   1.631   0.847  0.4616  0.0443  1.1088
 2991TIP3   OH230531   5.609   5.284   6.599 -0.4332  0.0153 -0.2383
 2991TIP3    H130532   5.523   5.325   6.583 -0.4546 -0.3676 -1.1397
 2991TIP3    H230533   5.588   5.199   6.636 -0.4135  0.2582  0.3499
 2992TIP3   OH230534   0.258   5.803   1.351 -0.0723 -0.0105 -0.2556
 2992TIP3    H130535   0.267   5.736   1.418  1.7110 -1.8342 -2.1666
 2992TIP3    H230536   0.163   5.808   1.335 -0.2942 -1.6329  0.3619
 2993TIP3   OH230537   2.597   5.930   7.840 -0.0585 -0.7642  0.0675
 2993TIP3    H130538   2.671   5.871   7.844 -0.4184 -1.2695 -0.5830
 2993TIP3    H230539   2.522   5.877   7.865 -0.1664 -0.1696  1.0646
 2994TIP3   OH230540   3.300   3.044   6.972  0.3687  0.5539  0.0319
 2994TIP3    H130541   3.285   3.138   6.967 -1.1904  0.3719  0.8480
 2994TIP3    H230542   3.267   3.010   6.889 -0.7361  0.5486  0.4539
 2995TIP3   OH230543   0.511   3.011   1.373  0.1493  0.3931  0.4526
 2995TIP3    H130544   0.422   3.002   1.338 -0.0827 -1.0638  1.3345
 2995TIP3    H230545   0.504   2.979   1.463  1.1172  2.3045  1.2710
 2996TIP3   OH230546   3.129   3.994   8.224  0.2744  0.2111 -0.0495
 2996TIP3    H130547   3.132   4.089   8.212 -0.6816  0.1328 -1.0079
 2996TIP3    H230548   3.145   3.958   8.137  0.3946 -0.5037  0.2626
 2997TIP3   OH230549   4.123   5.500   1.899  0.5408 -0.3387  0.1755
 2997TIP3    H130550   4.119   5.411   1.935  2.5068 -0.9288 -0.9370
 2997TIP3    H230551   4.054   5.547   1.946  0.5133 -2.0163  1.9770
 2998TIP3   OH230552   2.059   1.196   6.989  1.0680  0.0119  0.0227
 2998TIP3    H130553   1.995   1.187   6.918 -1.9760  1.3404  2.3616
 2998TIP3    H230554   2.092   1.286   6.981  0.4600  0.2823  0.4058
 2999TIP3   OH230555   2.487   0.227   2.247 -0.3309  0.9377  0.2324
 2999TIP3    H130556   2.448   0.151   2.203  1.0453 -0.4333  1.2337
 2999TIP3    H230557   2.414   0.284   2.269 -1.5983 -0.8371  0.7986
 3000TIP3   OH230558   2.944   4.688   6.239  0.6734 -0.0843  0.0481
 3000TIP3    H130559   3.019   4.637   6.270 -0.4471 -2.0557 -0.3052
 3000TIP3    H230560   2.917   4.740   6.315  1.0237 -1.0659  0.8656
 3001TIP3   OH230561   4.599   4.734   0.716 -0.4397  0.1870 -0.4022
 3001TIP3    H130562   4.619   4.742   0.622 -3.7178 -0.6323 -1.3252
 3001TIP3    H230563   4.678   4.696   0.754  0.5090 -0.8492 -3.1067
 3002TIP3   OH230564   2.478   0.319   0.504 -0.2076 -0.1885 -0.2580
 3002TIP3    H130565   2.438   0.376   0.570  1.0486 -0.6356  0.9365
 3002TIP3    H230566   2.404   0.272   0.466 -1.0182  0.4846  0.4293
 3003TIP3   OH230567   0.461   3.298   0.791 -0.7700  0.0679  0.7671
 3003TIP3    H130568   0.424   3.364   0.733 -1.9523 -0.7931  0.4831
 3003TIP3    H230569   0.422   3.216   0.760  2.2855 -1.1239 -0.2883
 3004TIP3   OH230570   5.112   1.665   1.652  0.0635  0.2503 -0.1799
 3004TIP3    H130571   5.107   1.574   1.623 -1.4376  0.3514 -0.2958
 3004TIP3    H230572   5.151   1.660   1.739  0.2115 -0.4736 -0.2804
 3005TIP3   OH230573   4.631   4.385   7.472  0.0683  0.1607  0.5495
 3005TIP3    H130574   4.541   4.352   7.474 -0.1358  0.5049 -1.4118
 3005TIP3    H230575   4.678   4.328   7.534 -0.6986 -2.5898 -1.2206
 3006TIP3   OH230576   2.801   3.715   2.585 -0.6656  0.4503 -0.6991
 3006TIP3    H130577   2.842   3.675   2.508  0.3224  0.2453 -0.0814
 3006TIP3    H230578   2.715   3.673   2.590 -0.5950  0.2001 -1.4834
 3007TIP3   OH230579   5.824   3.086   5.712  0.6417 -0.5164  0.3508
 3007TIP3    H130580   5.909   3.093   5.669  2.3291  0.4139  3.4806
 3007TIP3    H230581   5.787   3.174   5.706  0.2825 -0.6968 -0.2107
 3008TIP3   OH230582   4.466   5.453   8.264 -0.0861 -0.4145  0.0592
 3008TIP3    H130583   4.538   5.514   8.280 -0.4751  0.3440 -0.9726
 3008TIP3    H230584   4.509   5.371   8.240  0.4442 -0.5200  1.2997
 3009TIP3   OH230585   1.042   0.426   7.404  0.0843 -0.1199 -0.2795
 3009TIP3    H130586   1.129   0.405   7.370  0.6184  0.3413  0.7453
 3009TIP3    H230587   0.981   0.392   7.338  1.0410 -0.2499 -1.1198
 3010TIP3   OH230588   1.403   0.041   8.413 -0.8022  0.1436 -0.5525
 3010TIP3    H130589   1.385   0.128   8.447  0.5754  0.5885 -0.9091
 3010TIP3    H230590   1.337  -0.015   8.454 -1.1915  1.2051  0.3153
 3011TIP3   OH230591   0.902   1.454   7.905  0.0770 -0.1758  0.1569
 3011TIP3    H130592   0.894   1.384   7.969  0.2868  1.7972  2.4778
 3011TIP3    H230593   0.824   1.508   7.917  0.8428  1.0612 -0.1596
 3012TIP3   OH230594   0.180   6.292   2.420  0.7418 -0.0191  0.1678
 3012TIP3    H130595   0.126   6.353   2.470  0.2335 -0.6186  0.3807
 3012TIP3    H230596   0.257   6.342   2.394  1.6921 -0.0121  2.6971
 3013TIP3   OH230597   0.250   5.762   7.863  0.0673  0.1652 -0.3804
 3013TIP3    H130598   0.203   5.689   7.904 -0.2032  0.9434  0.7348
 3013TIP3    H230599   0.245   5.743   7.769  0.4553 -1.5225 -0.1020
 3014TIP3   OH230600   0.710   0.104   1.130 -0.1410  0.2230 -0.2451
 3014TIP3    H130601   0.676   0.074   1.046  0.3475 -1.1986  0.0314
 3014TIP3    H230602   0.761   0.030   1.162 -1.2729  0.2971  1.8587
 3015TIP3   OH230603   1.216   4.260   7.749  0.2885  0.0641  0.4590
 3015TIP3    H130604   1.135   4.225   7.785  0.7123 -1.1868  0.2621
 3015TIP3    H230605   1.189   4.326   7.685 -0.5401  0.0609  0.7980
 3016TIP3   OH230606   1.013   5.813   0.388 -0.5272  0.5166  0.1890
 3016TIP3    H130607   1.023   5.802   0.482 -1.5121  2.9511  0.6576
 3016TIP3    H230608   0.919   5.828   0.375 -0.4067  0.2397 -1.1779
 3017TIP3   OH230609   2.527   2.730   8.278  0.0839 -0.6441 -0.6182
 3017TIP3    H130610   2.437   2.702   8.264 -0.0447 -0.2542 -0.5938
 3017TIP3    H230611   2.550   2.780   8.199 -0.4786  1.1388  0.2776
 3018TIP3   OH230612   2.052   2.374   7.412 -0.0579 -0.1725 -0.0577
 3018TIP3    H130613   2.060   2.469   7.418  1.6688 -0.1279 -1.7341
 3018TIP3    H230614   2.014   2.347   7.495  0.6728  1.8715  1.0063
 3019TIP3   OH230615   2.825   2.941   6.547 -0.5464  0.1901 -0.1625
 3019TIP3    H130616   2.767   2.921   6.473  0.1726  0.4489 -0.8112
 3019TIP3    H230617   2.899   2.988   6.507  1.4893 -2.5052  0.2127
 3020TIP3   OH230618   3.807   5.255   7.617 -0.0554  0.0440 -0.1826
 3020TIP3    H130619   3.807   5.191   7.688  0.3990 -0.3930 -0.5678
 3020TIP3    H230620   3.807   5.340   7.662 -1.7881 -0.1909  0.3378
 3021TIP3   OH230621   2.808   6.009   6.686 -0.1149  0.5668 -0.0994
 3021TIP3    H130622   2.759   6.088   6.705  0.9128  1.6549 -1.7617
 3021TIP3    H230623   2.888   6.017   6.739 -1.4366 -1.0431  2.3437
 3022TIP3   OH230624   3.054   2.303   0.237  0.2512 -0.7571 -0.4202
 3022TIP3    H130625   3.099   2.288   0.153  0.1894 -1.1842 -0.3801
 3022TIP3    H230626   3.121   2.288   0.303 -0.2806 -2.8422 -0.2976
 3023TIP3   OH230627   4.993   4.706   1.218  0.0380  0.4734  0.4823
 3023TIP3    H130628   4.981   4.613   1.201 -0.6927  1.1235 -3.2986
 3023TIP3    H230629   5.072   4.710   1.272  1.0121 -2.2390 -0.5700
 3024TIP3   OH230630   1.696   4.277   8.407  0.3566  0.3279  0.0980
 3024TIP3    H130631   1.785   4.246   8.421  0.4272  0.0690 -0.9013
 3024TIP3    H230632   1.657   4.276   8.495  0.9832 -0.6298  0.3858
 3025TIP3   OH230633   1.798   4.324   6.968  0.0728 -0.4042 -0.1054
 3025TIP3    H130634   1.881   4.308   7.013 -0.4153  1.3838  1.5777
 3025TIP3    H230635   1.821   4.381   6.895  0.2422  1.0866  1.0572
 3026TIP3   OH230636   5.666   1.201   0.830  0.2069  0.1534 -0.0339
 3026TIP3    H130637   5.613   1.265   0.784 -1.0916 -0.0397  1.1356
 3026TIP3    H230638   5.690   1.243   0.912  1.6793  0.1286 -0.4052
 3027TIP3   OH230639   6.644   0.201   1.242 -0.2298 -0.2747 -0.2363
 3027TIP3    H130640   6.667   0.291   1.263 -1.4804  0.0395 -0.1314
 3027TIP3    H230641   6.581   0.209   1.169 -0.0208 -1.0776 -0.5158
 3028TIP3   OH230642   0.156   5.555   6.446 -0.4766  0.1361  0.3250
 3028TIP3    H130643   0.248   5.554   6.471  0.0105 -0.2692 -1.3503
 3028TIP3    H230644   0.108   5.544   6.528  0.9787 -0.4245  1.1276
 3029TIP3   OH230645   1.425   5.565   1.257  0.3167 -0.4554  1.1147
 3029TIP3    H130646   1.428   5.574   1.162 -0.8493 -3.0318  0.7565
 3029TIP3    H230647   1.473   5.642   1.290 -2.8581  2.9205 -1.3410
 3030TIP3   OH230648   5.987   4.390   2.113 -0.3469 -0.3907 -0.1622
 3030TIP3    H130649   5.988   4.298   2.088  1.2698 -0.5144  0.2389
 3030TIP3    H230650   6.035   4.394   2.196  0.9148  0.9688 -0.8938
 3031TIP3   OH230651   4.890   0.428   0.592  0.3653  0.3991 -0.5600
 3031TIP3    H130652   4.877   0.398   0.682 -1.8264  2.5218 -0.0663
 3031TIP3    H230653   4.809   0.403   0.547 -1.0023  4.0501 -0.4518
 3032TIP3   OH230654   6.417   2.467   0.617 -0.3523  0.1805 -0.9290
 3032TIP3    H130655   6.416   2.505   0.705  2.3500 -2.3967  0.4085
 3032TIP3    H230656   6.364   2.387   0.624  0.0401 -0.1450 -1.5591
 3033TIP3   OH230657   6.413   1.490   8.390 -0.4447  0.2128 -0.1006
 3033TIP3    H130658   6.443   1.579   8.412 -0.5044  0.1988  0.0371
 3033TIP3    H230659   6.492   1.437   8.390 -0.6946 -0.2402  2.2437
 3034TIP3   OH230660   1.746   2.440   8.555  0.0832 -0.5594  0.1392
 3034TIP3    H130661   1.703   2.365   8.597 -1.4106 -0.1263 -0.5374
 3034TIP3    H230662   1.786   2.403   8.476 -0.1447 -0.7487  0.1106
 3035TIP3   OH230663   5.697   5.160   0.275 -0.6576 -0.3096  0.4664
 3035TIP3    H130664   5.680   5.082   0.328 -0.5703 -0.3601  0.4207
 3035TIP3    H230665   5.784   5.145   0.239 -0.9993 -0.6014 -0.2549
 3036TIP3   OH230666   3.889   2.977   8.577 -0.7306  0.0999 -0.2019
 3036TIP3    H130667   3.834   2.934   8.510  0.5721 -1.2084 -0.4827
 3036TIP3    H230668   3.923   3.055   8.533 -2.3009  0.9043 -0.0357
 3037TIP3   OH230669   4.724   5.757   0.618  0.2242  0.3884 -0.2549
 3037TIP3    H130670   4.703   5.679   0.670 -0.9948  0.8695  0.0033
 3037TIP3    H230671   4.639   5.788   0.586  0.9288 -0.0417 -2.7847
 3038TIP3   OH230672   4.390   1.926   1.487 -0.2705  0.1499 -0.2482
 3038TIP3    H130673   4.481   1.952   1.469  0.6486 -2.1351  0.6231
 3038TIP3    H230674   4.384   1.927   1.582  0.1713 -3.4070 -0.0520
 3039TIP3   OH230675   0.309   1.158   8.401  0.6996  0.0568  0.3550
 3039TIP3    H130676   0.371   1.198   8.339  2.0324 -0.7674  1.1058
 3039TIP3    H230677   0.281   1.077   8.358  1.1970 -0.2400  0.5823
 3040TIP3   OH230678   6.372   6.331   6.628 -0.5939  0.0007 -0.0207
 3040TIP3    H130679   6.331   6.329   6.714  0.5137 -0.4944  0.5199
 3040TIP3    H230680   6.300   6.343   6.566 -1.3791  0.6089  0.9867
 3041TIP3   OH230681   6.768   0.896   7.372  0.6218  0.0557 -0.0482
 3041TIP3    H130682   6.762   0.928   7.282 -0.5220 -0.5789 -0.2159
 3041TIP3    H230683   6.808   0.810   7.365 -1.0289 -0.7446 -0.1654
 3042TIP3   OH230684   2.182   2.111   8.649  0.2546  0.1069  0.3100
 3042TIP3    H130685   2.276   2.104   8.663  0.0258 -1.2687  1.3944
 3042TIP3    H230686   2.163   2.204   8.663  1.1973  0.0986  1.9119
 3043TIP3   OH230687   6.133   0.770   6.531  0.0400 -1.0044 -0.1116
 3043TIP3    H130688   6.169   0.810   6.610 -0.1885  0.1427 -0.5675
 3043TIP3    H230689   6.207   0.728   6.488  0.5654  0.0567 -0.2798
 3044TIP3   OH230690   0.766   3.044   6.457  0.1130  0.1468  0.1558
 3044TIP3    H130691   0.726   2.984   6.520  0.6519  0.5037  0.8591
 3044TIP3    H230692   0.846   3.073   6.501 -0.0716  1.2614 -0.2384
 3045TIP3   OH230693   0.919   5.495   0.025 -0.5792  0.3546  0.0105
 3045TIP3    H130694   0.996   5.444  -0.001  0.3368  0.9471  1.4196
 3045TIP3    H230695   0.924   5.575  -0.026  1.1055  1.4343  1.7290
 3046TIP3   OH230696   5.192   1.198   1.189  0.4706  0.1965 -0.2613
 3046TIP3    H130697   5.285   1.208   1.209  0.4301  0.8426 -0.3596
 3046TIP3    H230698   5.156   1.150   1.263  0.7907  0.3874  0.0224
 3047TIP3   OH230699   2.961   3.569   6.939  0.2374  0.5481 -0.0168
 3047TIP3    H130700   3.001   3.512   6.873  3.4784  0.4641  1.7899
 3047TIP3    H230701   3.014   3.649   6.937  0.9070  0.2898  2.8045
 3048TIP3   OH230702   0.015   3.203   8.559 -0.1873 -0.0291 -0.2218
 3048TIP3    H130703   0.072   3.275   8.534 -0.1206 -0.1726 -0.4791
 3048TIP3    H230704  -0.045   3.192   8.485  0.7268 -1.1910 -0.8294
 3049TIP3   OH230705   1.306   5.604   0.841 -0.0057 -0.6398  0.1166
 3049TIP3    H130706   1.296   5.528   0.784 -0.3351 -0.1746 -0.4654
 3049TIP3    H230707   1.264   5.578   0.923 -0.1171 -1.0812 -0.0763
 3050TIP3   OH230708   2.130   5.344   0.511 -0.0424  0.1259  0.4949
 3050TIP3    H130709   2.067   5.405   0.550 -0.9742 -0.4942  0.0266
 3050TIP3    H230710   2.136   5.372   0.419 -0.6868 -0.6321  0.2105
 3051TIP3   OH230711   0.212   2.393   0.832  0.2872  0.6276 -0.3248
 3051TIP3    H130712   0.196   2.383   0.738  1.7200 -0.8623 -0.4329
 3051TIP3    H230713   0.298   2.355   0.847 -0.6560 -0.8796  1.8881
 3052TIP3   OH230714   5.086   4.404   1.735  0.3641 -0.1179  0.5606
 3052TIP3    H130715   5.029   4.334   1.704  1.3245 -0.7136  0.0614
 3052TIP3    H230716   5.128   4.368   1.814  0.0254  0.3273  0.9482
 3053TIP3   OH230717   6.816   1.786   6.936  0.1115 -0.0716  0.0185
 3053TIP3    H130718   6.823   1.862   6.878 -1.8243  0.1180 -0.0236
 3053TIP3    H230719   6.867   1.810   7.013 -1.7875  2.0078  0.7123
 3054TIP3   OH230720   5.468   5.009   0.784  0.1117  0.5710 -0.1220
 3054TIP3    H130721   5.411   5.025   0.708 -1.5077  0.4018  0.9923
 3054TIP3    H230722   5.474   5.095   0.827 -2.6559 -0.0864  1.9089
 3055TIP3   OH230723   2.404   1.617   0.851  0.1179  0.2307 -0.3974
 3055TIP3    H130724   2.327   1.569   0.820 -0.1986  1.1826 -1.1571
 3055TIP3    H230725   2.369   1.701   0.881  0.2807 -0.8783  3.4445
 3056TIP3   OH230726   0.855   0.839   0.821  0.1354 -0.2619  0.6277
 3056TIP3    H130727   0.847   0.884   0.737 -2.8669 -0.6861  0.6051
 3056TIP3    H230728   0.881   0.908   0.883 -2.1545  1.0888  0.1725
 3057TIP3   OH230729   4.415   3.337   0.803  0.1432  0.0434  0.4804
 3057TIP3    H130730   4.373   3.268   0.751  1.0525 -1.0053  1.0866
 3057TIP3    H230731   4.351   3.408   0.806 -0.5652 -0.5249 -0.6962
 3058TIP3   OH230732   0.373   5.658   0.925 -0.2077 -0.2022 -0.0747
 3058TIP3    H130733   0.370   5.641   0.831  0.8272  2.6631 -0.7322
 3058TIP3    H230734   0.282   5.670   0.951 -0.5773 -1.8508 -0.4612
 3059TIP3   OH230735   6.507   3.773   1.396 -0.0911 -0.2291  0.3164
 3059TIP3    H130736   6.542   3.763   1.484  2.7296 -0.1746 -0.6789
 3059TIP3    H230737   6.517   3.867   1.377  0.8853 -0.4944 -0.5919
 3060TIP3   OH230738   4.911   2.203   0.743 -0.4123 -0.1016 -0.0739
 3060TIP3    H130739   4.883   2.162   0.825 -1.7449 -2.7799 -1.7642
 3060TIP3    H230740   4.970   2.140   0.703  0.4524  1.2945 -1.0879
 3061TIP3   OH230741   1.802   6.535   0.603  0.0913 -0.1077  0.0041
 3061TIP3    H130742   1.707   6.544   0.613  0.1609  1.6765 -0.5357
 3061TIP3    H230743   1.819   6.443   0.622 -1.6784 -0.3648  0.6195
 3062TIP3   OH230744   4.849   6.327   8.611  0.6515  0.4412  0.1518
 3062TIP3    H130745   4.927   6.351   8.562  0.1850 -0.3811 -1.0441
 3062TIP3    H230746   4.854   6.232   8.620 -0.2498  0.3640 -0.0253
 3063TIP3   OH230747   4.684   5.463   0.739 -0.0502 -0.0100 -0.1215
 3063TIP3    H130748   4.779   5.458   0.747 -0.0957  0.2828  0.6618
 3063TIP3    H230749   4.660   5.382   0.694  0.6480  0.3198 -1.1343
 3064TIP3   OH230750   3.557   5.181   1.800  0.0670  0.6497 -0.7594
 3064TIP3    H130751   3.647   5.213   1.806 -0.0569  1.0300 -0.8954
 3064TIP3    H230752   3.503   5.254   1.829 -0.2369  0.6591 -1.3299
 3065TIP3   OH230753   1.140   5.812   1.813  0.1709  0.1350  0.1026
 3065TIP3    H130754   1.166   5.759   1.887  1.7769  2.1855  1.1187
 3065TIP3    H230755   1.198   5.888   1.816 -2.4086  2.3126 -0.8255
 3066TIP3   OH230756   6.340   4.212   7.941 -0.5817 -0.5379  0.2297
 3066TIP3    H130757   6.436   4.205   7.944 -0.5670 -0.0472  2.2556
 3066TIP3    H230758   6.320   4.291   7.990 -2.0376 -0.3885 -0.5367
 3067TIP3   OH230759   4.326   3.994   7.412 -0.0280 -0.2632  0.5154
 3067TIP3    H130760   4.233   4.004   7.437 -0.3074  1.7557 -1.0818
 3067TIP3    H230761   4.349   4.078   7.373  2.2524 -1.0528  0.0354
 3068TIP3   OH230762   6.470   5.999   0.949 -0.6483  0.3033 -0.5360
 3068TIP3    H130763   6.412   5.952   0.888  0.7173 -2.2863  0.0074
 3068TIP3    H230764   6.414   6.020   1.024 -1.0381 -1.8037 -0.1801
 3069TIP3   OH230765   1.279   0.514   8.461 -0.3520  0.0064 -0.2136
 3069TIP3    H130766   1.183   0.511   8.464 -0.6071  2.2273 -2.3194
 3069TIP3    H230767   1.304   0.573   8.532 -0.4141 -1.3936  1.0078
 3070TIP3   OH230768   4.991   1.731   8.399 -0.2499  0.7423  0.1513
 3070TIP3    H130769   4.981   1.651   8.450 -0.9294  0.6624 -0.0857
 3070TIP3    H230770   4.946   1.711   8.316 -1.6124  1.8075  0.5929
 3071TIP3   OH230771   6.363   6.627   8.052  0.4010 -0.2852 -0.2448
 3071TIP3    H130772   6.300   6.555   8.049  0.2429 -0.1344 -0.8442
 3071TIP3    H230773   6.335   6.685   7.981  0.5144  0.3763  0.2385
 3072TIP3   OH230774   1.285   5.222   1.873  0.3132 -0.1950  0.1180
 3072TIP3    H130775   1.378   5.202   1.870  0.3971  0.1802  0.2454
 3072TIP3    H230776   1.276   5.286   1.944  0.2309  1.2602 -1.1634
 3073TIP3   OH230777   4.020   6.627   7.196  0.2170  0.1643 -0.0624
 3073TIP3    H130778   4.004   6.546   7.243 -1.3406  0.7785  0.5211
 3073TIP3    H230779   4.106   6.615   7.156 -1.0340 -2.8275 -2.2111
 3074TIP3   OH230780   2.476   1.087   7.271 -0.0078  0.2904  0.2385
 3074TIP3    H130781   2.448   1.044   7.353  1.3496 -1.2624 -0.0459
 3074TIP3    H230782   2.491   1.178   7.296  0.3530 -0.1368  1.7345
 3075TIP3   OH230783   0.053   0.631   7.387  0.1660  0.2512  0.6001
 3075TIP3    H130784   0.143   0.656   7.369  0.0744 -0.3272 -0.8050
 3075TIP3    H230785   0.056   0.536   7.400 -0.1974  0.2647  0.8135
 3076TIP3   OH230786   6.281   5.939   0.770  0.3255  0.0882  0.4533
 3076TIP3    H130787   6.293   5.933   0.675  1.0655  3.1776  0.2482
 3076TIP3    H230788   6.190   5.913   0.784 -1.2390  3.7042 -1.7628
 3077TIP3   OH230789   3.525   2.879   1.594  0.3439 -1.0997  0.2260
 3077TIP3    H130790   3.444   2.893   1.545  0.8041 -2.3360 -0.9853
 3077TIP3    H230791   3.521   2.941   1.666 -1.0087 -0.1313 -0.6254
 3078TIP3   OH230792   3.096   1.639   0.601  0.0025  0.1204  0.7733
 3078TIP3    H130793   3.088   1.545   0.614 -0.7000  0.0065 -0.3632
 3078TIP3    H230794   3.005   1.670   0.597  0.2159  0.9918  2.0208
 3079TIP3   OH230795   5.694   5.218   8.662  0.2946 -0.1795  0.1388
 3079TIP3    H130796   5.759   5.154   8.633  2.2079  1.1047  1.3599
 3079TIP3    H230797   5.644   5.172   8.730  2.4928 -0.1137  1.9549
 3080TIP3   OH230798   0.203   1.199   0.748 -0.7898 -0.1202  0.4228
 3080TIP3    H130799   0.189   1.288   0.717 -0.0597 -0.1201  0.0809
 3080TIP3    H230800   0.293   1.179   0.725 -1.1832 -1.2448 -0.2491
 3081TIP3   OH230801   2.810   4.457   0.501  0.2289 -0.3005  0.2250
 3081TIP3    H130802   2.718   4.472   0.525  0.3367  0.2941  0.2869
 3081TIP3    H230803   2.849   4.415   0.578  0.7902  2.3824  1.5135
 3082TIP3   OH230804   2.787   4.290   7.051 -0.4931 -0.2590  0.5604
 3082TIP3    H130805   2.840   4.211   7.067  0.6475  0.4751  0.5105
 3082TIP3    H230806   2.811   4.349   7.123 -0.6941  0.3579  0.1234
 3083TIP3   OH230807   5.847   5.278   1.097  0.1043  0.4794  0.5783
 3083TIP3    H130808   5.803   5.193   1.095  0.9188  0.0448  0.8427
 3083TIP3    H230809   5.938   5.259   1.077  0.0982  1.4315 -0.4473
 3084TIP3   OH230810   0.818   0.088   1.488  0.0737 -0.2381 -0.3126
 3084TIP3    H130811   0.860   0.010   1.523  0.8505 -0.0017 -0.6917
 3084TIP3    H230812   0.734   0.058   1.455 -0.3657 -0.6025  1.0708
 3085TIP3   OH230813   1.595   6.342   1.251 -0.2719 -0.2988 -0.3585
 3085TIP3    H130814   1.670   6.291   1.281 -0.5563 -0.5933 -0.1451
 3085TIP3    H230815   1.625   6.382   1.169 -0.1537 -1.0697 -0.7036
 3086TIP3   OH230816   0.135   0.148   0.599 -0.0016  0.2490 -0.1049
 3086TIP3    H130817   0.063   0.144   0.662  0.1370 -3.4159  0.0788
 3086TIP3    H230818   0.214   0.133   0.651  0.3596 -0.4615 -0.8260
 3087TIP3   OH230819   4.805   1.701   6.405  0.4165 -0.2751  0.1533
 3087TIP3    H130820   4.781   1.715   6.314  1.4116  0.3104 -0.0255
 3087TIP3    H230821   4.737   1.643   6.439  0.5914 -1.3318 -1.2335
 3088TIP3   OH230822   0.654   6.703   1.473 -0.1244 -0.2986  0.0188
 3088TIP3    H130823   0.738   6.662   1.494 -0.3548  0.0382  1.7864
 3088TIP3    H230824   0.608   6.638   1.420  1.0612 -0.6709 -0.5909
 3089TIP3   OH230825   5.944   0.652   7.483 -0.6265  0.5011 -0.2062
 3089TIP3    H130826   5.873   0.603   7.525 -0.6558 -1.0848 -1.9427
 3089TIP3    H230827   5.900   0.705   7.417 -0.2748  0.0355 -0.8231
 3090TIP3   OH230828   0.695   3.602   1.242  0.2540  0.1938  0.2544
 3090TIP3    H130829   0.683   3.687   1.286 -1.9843  0.7878 -1.3003
 3090TIP3    H230830   0.739   3.624   1.159 -1.3698  0.0715 -0.6842
 3091TIP3   OH230831   6.733   6.737   7.405  0.0684 -0.1090 -0.0717
 3091TIP3    H130832   6.683   6.676   7.459 -0.9739 -1.1578 -2.0791
 3091TIP3    H230833   6.776   6.681   7.340  1.4704  1.0712 -0.2058
 3092TIP3   OH230834   4.272   3.775   7.208  0.0534  0.3759  0.4998
 3092TIP3    H130835   4.311   3.857   7.240 -1.4711  1.1437  0.4806
 3092TIP3    H230836   4.240   3.797   7.120  1.0410 -0.7090 -0.1501
 3093TIP3   OH230837   0.559   0.469   7.070 -0.3774 -0.0460  0.1230
 3093TIP3    H130838   0.499   0.533   7.031 -1.8427 -1.9469 -0.9559
 3093TIP3    H230839   0.645   0.510   7.063 -1.4465  2.7767  1.6699
 3094TIP3   OH230840   0.440   6.405   0.589 -0.3530 -0.2165 -0.0242
 3094TIP3    H130841   0.400   6.387   0.505 -0.3552  0.4640 -0.1702
 3094TIP3    H230842   0.413   6.494   0.611 -0.2303 -0.3303  0.6250
 3095TIP3   OH230843   3.637   0.321   0.606 -0.0739  0.0201  0.4260
 3095TIP3    H130844   3.689   0.343   0.529  0.9599  0.2400  1.1621
 3095TIP3    H230845   3.611   0.406   0.642 -4.2217  0.0418 -1.9652
 3096TIP3   OH230846   2.231   1.906   1.023  0.4626 -0.7944 -0.2096
 3096TIP3    H130847   2.244   1.835   1.086 -0.1119 -0.5880  0.1417
 3096TIP3    H230848   2.166   1.872   0.962  0.2146 -0.5828 -0.0633
 3097TIP3   OH230849   1.491   3.772   8.114 -0.0896 -0.0030 -0.4013
 3097TIP3    H130850   1.479   3.679   8.094 -2.8759  0.5067 -1.7109
 3097TIP3    H230851   1.505   3.775   8.209 -3.3043 -1.6738  0.2887
 3098TIP3   OH230852   5.045   1.849   0.327 -0.1615 -0.2894  0.2973
 3098TIP3    H130853   5.117   1.800   0.367  0.2663  1.9241  2.4625
 3098TIP3    H230854   5.088   1.918   0.276 -0.7337  0.4236  0.7663
 3099TIP3   OH230855   6.220   5.934   1.878  0.2299 -0.1728  0.0834
 3099TIP3    H130856   6.142   5.911   1.928  0.5896 -0.9558  0.3051
 3099TIP3    H230857   6.190   5.999   1.814 -0.0114  1.7699  2.0642
 3100TIP3   OH230858   1.094   6.118   8.386  0.6393 -1.0704  0.1274
 3100TIP3    H130859   1.182   6.124   8.347  0.8530  0.3852  0.7716
 3100TIP3    H230860   1.097   6.176   8.462 -1.4784  0.6904 -1.0081
 3101TIP3   OH230861   2.588   1.123   6.704  0.5770  0.5635  0.2146
 3101TIP3    H130862   2.592   1.030   6.728 -1.0154  0.2358 -0.6481
 3101TIP3    H230863   2.664   1.137   6.648  1.5690  0.1347  1.3958
 3102TIP3   OH230864   6.804   5.070   1.057  0.4476  0.3417 -0.2484
 3102TIP3    H130865   6.718   5.099   1.089  0.7072  1.1122 -0.2440
 3102TIP3    H230866   6.789   4.979   1.029  0.1469 -0.2818  1.7800
 3103TIP3   OH230867   4.373   2.352   7.506 -0.5201  0.7219  0.3053
 3103TIP3    H130868   4.327   2.309   7.578  0.2453  0.5545  0.7048
 3103TIP3    H230869   4.466   2.341   7.527 -0.2118 -1.0626 -1.6931
 3104TIP3   OH230870   0.219   5.426   7.836  0.0819  0.0035  0.4195
 3104TIP3    H130871   0.244   5.437   7.927  0.9359  0.7286  0.1076
 3104TIP3    H230872   0.299   5.442   7.786 -0.8770  2.2387 -0.5950
 3105TIP3   OH230873   1.490   3.405   0.385 -0.0721  0.2925  0.2321
 3105TIP3    H130874   1.514   3.314   0.367  0.4565  0.5498 -0.4117
 3105TIP3    H230875   1.566   3.456   0.358 -1.3270  1.1471 -1.9163
 3106TIP3   OH230876   6.777   4.004   6.275  0.5341  0.0707  1.0511
 3106TIP3    H130877   6.824   3.923   6.256  1.2672  0.7879 -0.3567
 3106TIP3    H230878   6.693   3.995   6.230  1.0947  0.5603 -0.1293
 3107TIP3   OH230879   2.069   1.833   6.496  0.0392  0.2773  0.1735
 3107TIP3    H130880   1.980   1.799   6.483  0.4459 -0.5007 -0.6269
 3107TIP3    H230881   2.126   1.765   6.462  0.9753  0.5346  1.1918
 3108TIP3   OH230882   5.410   3.981   1.317  0.1507  0.1555 -0.7531
 3108TIP3    H130883   5.364   4.034   1.252  1.9909  1.8639 -0.7375
 3108TIP3    H230884   5.343   3.960   1.382 -0.6659  2.5624 -0.7094
 3109TIP3   OH230885   2.965   2.021   0.239 -0.1795 -0.7400  0.4604
 3109TIP3    H130886   2.970   1.942   0.185 -0.8911 -0.3610 -0.1863
 3109TIP3    H230887   3.011   2.088   0.188  0.8588 -0.8405  1.2324
 3110TIP3   OH230888   0.564   5.522   0.419 -0.0647  0.1930 -0.0255
 3110TIP3    H130889   0.633   5.537   0.355  0.1040  1.0134  0.3347
 3110TIP3    H230890   0.528   5.610   0.436 -1.4087 -0.2516 -0.4544
 3111TIP3   OH230891   3.955   1.328   8.048  0.1340 -0.2608 -0.4030
 3111TIP3    H130892   4.029   1.390   8.053  0.4063 -0.6841  1.2710
 3111TIP3    H230893   3.926   1.318   8.138 -1.2280 -1.0278 -0.9045
 3112TIP3   OH230894   5.370   1.338   6.389 -0.4306  0.0877 -0.2450
 3112TIP3    H130895   5.387   1.363   6.298 -1.6633 -0.1415 -0.5563
 3112TIP3    H230896   5.296   1.278   6.384  0.1872 -0.8129  0.8228
 3113TIP3   OH230897   6.776   1.428   8.559 -0.0121 -0.9503  0.5508
 3113TIP3    H130898   6.791   1.339   8.592 -0.1232 -1.3203 -0.3652
 3113TIP3    H230899   6.862   1.469   8.561  0.0500 -1.0897  0.9305
 3114TIP3   OH230900   5.501   3.103   7.982 -0.0570 -0.4169  0.5583
 3114TIP3    H130901   5.458   3.102   7.897  0.1303  1.8590  0.3756
 3114TIP3    H230902   5.461   3.177   8.029  0.8047 -0.7711  1.9208
 3115TIP3   OH230903   4.132   4.477   1.257  0.3535 -0.0345 -0.1618
 3115TIP3    H130904   4.201   4.432   1.305 -1.1697 -1.2440  1.0116
 3115TIP3    H230905   4.150   4.460   1.165  0.1162 -2.7098  0.2262
 3116TIP3   OH230906   4.013   5.270   6.442  0.4231 -0.1191  0.2226
 3116TIP3    H130907   4.071   5.231   6.376  0.7162 -0.0290  0.4221
 3116TIP3    H230908   4.032   5.222   6.522 -2.4489 -2.6752 -0.4320
 3117TIP3   OH230909   3.917   4.513   6.857  0.0979  1.0654 -0.3598
 3117TIP3    H130910   3.984   4.471   6.802 -1.3707 -1.2164 -0.5517
 3117TIP3    H230911   3.960   4.525   6.942  0.8191 -0.2181 -0.5130
 3118TIP3   OH230912   0.816   4.698   0.603  0.1680 -0.5723 -0.4397
 3118TIP3    H130913   0.820   4.676   0.510 -1.2074 -0.9940 -0.4235
 3118TIP3    H230914   0.802   4.614   0.647 -0.1535 -0.2592  0.0624
 3119TIP3   OH230915   4.703   6.794   7.327 -0.0899 -0.5024  0.2813
 3119TIP3    H130916   4.773   6.817   7.388  0.0425 -0.6743  0.1951
 3119TIP3    H230917   4.715   6.852   7.252 -0.2503 -0.2934  0.4138
 3120TIP3   OH230918   1.260   5.258   1.598  0.2349  1.0028  0.3279
 3120TIP3    H130919   1.254   5.263   1.693 -0.6387 -0.9014  0.4100
 3120TIP3    H230920   1.237   5.168   1.576  2.0229  0.9080 -1.5869
 3121TIP3   OH230921   6.026   1.165   0.436  0.2883 -0.5876 -0.0255
 3121TIP3    H130922   6.060   1.092   0.385 -0.0330  0.2002 -1.3981
 3121TIP3    H230923   5.936   1.141   0.457 -0.1814 -0.1246 -1.4319
 3122TIP3   OH230924   0.887   2.619   7.734 -0.6169  0.3280 -0.2469
 3122TIP3    H130925   0.864   2.566   7.658 -0.7545  0.6258 -0.4109
 3122TIP3    H230926   0.818   2.685   7.740 -2.0072 -1.1516  1.5624
 3123TIP3   OH230927   4.814   6.056   8.635 -0.0209  0.2020  0.1574
 3123TIP3    H130928   4.808   5.976   8.582 -2.0010 -0.5105  1.3526
 3123TIP3    H230929   4.805   6.026   8.725  0.2883  1.6910  0.7061
 3124TIP3   OH230930   1.077   0.439   1.417  0.0921  0.1295 -0.1120
 3124TIP3    H130931   1.096   0.371   1.353  0.9488  0.4482 -0.2124
 3124TIP3    H230932   1.014   0.398   1.478  0.4587 -0.6868 -0.2680
 3125TIP3   OH230933   1.867   3.472   6.437  0.2954  0.1259 -0.0915
 3125TIP3    H130934   1.919   3.474   6.517 -0.7354 -0.7668  0.6379
 3125TIP3    H230935   1.870   3.380   6.409 -1.9635 -0.2587  0.7401
 3126TIP3   OH230936   0.762   0.707   7.762 -0.5467  0.0815 -0.1844
 3126TIP3    H130937   0.823   0.696   7.689 -1.7195  1.4685 -1.4577
 3126TIP3    H230938   0.816   0.707   7.840  0.9912  0.5436 -1.2135
 3127TIP3   OH230939   1.442   6.810   0.420 -0.1961 -0.1704 -0.5975
 3127TIP3    H130940   1.526   6.793   0.378 -0.2807 -0.8226 -0.5188
 3127TIP3    H230941   1.429   6.904   0.411  1.4443  0.2724  1.0455
 3128TIP3   OH230942   3.108   2.718   0.704  0.2646  0.0101  0.2580
 3128TIP3    H130943   3.074   2.630   0.685 -0.0183  0.3802 -1.0777
 3128TIP3    H230944   3.179   2.730   0.641  0.4934  0.6354  0.6273
 3129TIP3   OH230945   2.888   3.809   1.898 -0.2075  0.6204  0.6761
 3129TIP3    H130946   2.974   3.766   1.907  0.5836  1.8528 -0.5802
 3129TIP3    H230947   2.833   3.743   1.857  0.3476  0.0667  0.7955
 3130TIP3   OH230948   2.577   3.579   7.739  0.2707  0.1674 -0.1682
 3130TIP3    H130949   2.531   3.569   7.822  0.0881  1.2116 -0.1353
 3130TIP3    H230950   2.582   3.673   7.725  0.6232  0.0134 -1.1651
 3131TIP3   OH230951   0.024   2.365   8.478  0.1889 -0.2843  0.0721
 3131TIP3    H130952   0.083   2.332   8.410 -1.1135 -1.8388 -0.3646
 3131TIP3    H230953  -0.062   2.332   8.454 -0.3283 -0.9372  2.4989
 3132TIP3   OH230954   1.953   1.841   1.765 -0.0518 -0.2954 -0.2062
 3132TIP3    H130955   2.025   1.840   1.828 -2.9236  0.1649  3.4120
 3132TIP3    H230956   1.964   1.924   1.717  1.8914 -0.3597  0.0468
 3133TIP3   OH230957   4.858   6.573   7.131 -0.4248  0.2337 -0.1025
 3133TIP3    H130958   4.803   6.495   7.139  1.2501 -0.8307  1.5690
 3133TIP3    H230959   4.862   6.609   7.220  0.9225  0.7539 -0.3549
 3134TIP3   OH230960   6.576   1.705   0.641  0.5207  0.1803 -0.6907
 3134TIP3    H130961   6.550   1.619   0.673 -1.1220  0.4567 -1.1932
 3134TIP3    H230962   6.665   1.717   0.675  0.1739 -1.0119  0.7681
 3135TIP3   OH230963   4.784   6.285   0.259 -0.1556 -0.0089 -0.0593
 3135TIP3    H130964   4.846   6.356   0.271 -0.3488  0.3817 -1.2001
 3135TIP3    H230965   4.833   6.206   0.280  0.5084  0.3516 -0.2196
 3136TIP3   OH230966   3.633   1.038   0.891  0.4930 -0.5838  0.6218
 3136TIP3    H130967   3.582   1.099   0.944  0.4925  0.2178 -0.2840
 3136TIP3    H230968   3.724   1.055   0.916  0.4226 -1.0105  1.1894
 3137TIP3   OH230969   3.979   2.913   7.492 -0.5587 -0.2563 -0.6240
 3137TIP3    H130970   3.976   2.868   7.407 -1.4388 -1.1993 -0.1167
 3137TIP3    H230971   3.932   2.995   7.478 -0.6166 -0.3641 -1.0735
 3138TIP3   OH230972   3.106   3.224   7.938  0.3675  0.2443 -0.0454
 3138TIP3    H130973   3.065   3.277   7.869 -0.4823  0.2046  0.4246
 3138TIP3    H230974   3.069   3.257   8.019  1.5259  0.4281  0.4237
 3139TIP3   OH230975   0.251   6.624   1.085  0.4186  0.2068 -0.4252
 3139TIP3    H130976   0.182   6.687   1.062  1.8363  1.2044 -2.1461
 3139TIP3    H230977   0.280   6.651   1.172 -3.0775 -1.8756  1.6378
 3140TIP3   OH230978   6.501   0.096   8.713 -0.7295  0.2677 -0.4986
 3140TIP3    H130979   6.559   0.044   8.658 -1.4575 -0.1269 -0.8938
 3140TIP3    H230980   6.418   0.098   8.666 -0.8596  1.3592 -0.2408
 3141TIP3   OH230981   4.085   3.272   0.277 -0.1671  0.3374  0.1646
 3141TIP3    H130982   4.112   3.232   0.360  0.0689  0.2666  0.0550
 3141TIP3    H230983   3.993   3.250   0.269  0.3333 -1.6401 -0.7101
 3142TIP3   OH230984   5.361   6.047   8.457  0.1336 -0.0296 -0.1645
 3142TIP3    H130985   5.335   6.133   8.425 -0.9622 -0.2541  0.0744
 3142TIP3    H230986   5.283   6.014   8.502  1.5220  0.1811  2.5712
 3143TIP3   OH230987   1.337   4.702   8.402 -0.0074  0.1456  0.5673
 3143TIP3    H130988   1.377   4.622   8.435  0.1602  0.1726  0.4323
 3143TIP3    H230989   1.400   4.771   8.424  1.1430 -0.1035 -1.6651
 3144TIP3   OH230990   0.392   2.069   1.020  0.0042  0.0494  0.9293
 3144TIP3    H130991   0.419   2.135   0.957  1.5955 -1.4922 -0.0855
 3144TIP3    H230992   0.296   2.077   1.024 -0.0331  0.9363 -0.8384
 3145TIP3   OH230993   6.182   4.657   0.123 -0.0212  0.3200 -0.3318
 3145TIP3    H130994   6.212   4.686   0.037  1.3099 -1.3121 -0.4624
 3145TIP3    H230995   6.154   4.737   0.167  1.8911  1.5588 -1.2614
 3146TIP3   OH230996   6.529   3.900   6.136 -0.0510  0.3611  0.2803
 3146TIP3    H130997   6.457   3.891   6.198 -1.9692  1.4205 -1.6606
 3146TIP3    H230998   6.530   3.817   6.088 -0.7154  0.7228 -0.3860
 3147TIP3   OH230999   1.930   4.324   7.740 -0.6223 -0.3897  0.3557
 3147TIP3    H131000   1.896   4.413   7.747 -0.3788 -0.2055 -0.5742
 3147TIP3    H231001   1.869   4.279   7.682  0.5407 -0.1002 -1.1976
 3148TIP3   OH231002   4.602   5.751   7.161 -0.1208 -0.4553  0.2317
 3148TIP3    H131003   4.694   5.750   7.134 -0.5216  0.4726 -1.3077
 3148TIP3    H231004   4.605   5.774   7.254  1.2060 -0.7073  0.2770
 3149TIP3   OH231005   4.267   0.203   1.310 -0.5749 -0.2059  0.0905
 3149TIP3    H131006   4.335   0.233   1.369 -0.0239  0.6509 -0.9486
 3149TIP3    H231007   4.305   0.212   1.222 -1.9002 -0.0154 -0.4928
 3150TIP3   OH231008   5.741   5.174   6.371  0.1019  0.3928  0.2449
 3150TIP3    H131009   5.715   5.090   6.407  3.0442 -0.6513  0.2554
 3150TIP3    H231010   5.730   5.236   6.444  2.0070 -0.8848  1.7297
 3151TIP3   OH231011   0.481   6.136   8.118 -0.5142 -0.2141 -0.3182
 3151TIP3    H131012   0.571   6.163   8.100 -0.4009 -0.6798 -0.4830
 3151TIP3    H231013   0.457   6.081   8.043 -0.2242 -1.7246  0.6452
 3152TIP3   OH231014   4.125   0.675   7.786  0.0650  0.0377 -0.9081
 3152TIP3    H131015   4.144   0.609   7.853  0.5436 -0.7154 -1.7603
 3152TIP3    H231016   4.210   0.714   7.767 -0.1137  0.4397 -0.8734
 3153TIP3   OH231017   3.718   4.599   1.506 -0.0926 -0.4485  0.3045
 3153TIP3    H131018   3.813   4.604   1.503 -0.1042 -0.4823 -0.2098
 3153TIP3    H231019   3.700   4.509   1.533  0.0183 -0.7086 -0.4616
 3154TIP3   OH231020   3.318   2.689   2.367  0.3460 -0.3768 -0.4423
 3154TIP3    H131021   3.366   2.657   2.291  0.1410 -1.3885 -0.1532
 3154TIP3    H231022   3.315   2.615   2.428 -1.2716 -0.2328 -0.2974
 3155TIP3   OH231023   0.887   1.877   7.548 -0.3505  0.4328 -0.0809
 3155TIP3    H131024   0.905   1.843   7.636  1.1301 -0.3635 -0.6585
 3155TIP3    H231025   0.856   1.966   7.562 -1.3474 -0.0964  1.3082
 3156TIP3   OH231026   6.631   4.613   0.661 -0.2499 -0.3257 -0.1291
 3156TIP3    H131027   6.553   4.660   0.691 -1.0921  0.5231 -3.2381
 3156TIP3    H231028   6.598   4.529   0.630  0.1763 -0.2631 -0.7711
 3157TIP3   OH231029   2.227   4.208   8.317  0.3051 -0.2487  0.1241
 3157TIP3    H131030   2.216   4.249   8.403 -0.3057 -0.6944  0.2705
 3157TIP3    H231031   2.146   4.229   8.271  0.2712 -0.7251 -0.0354
 3158TIP3   OH231032   5.128   3.381   1.862  0.7780  0.2550 -0.1974
 3158TIP3    H131033   5.061   3.425   1.809 -1.2230 -3.1470 -0.7875
 3158TIP3    H231034   5.198   3.360   1.800  1.4121  1.8726 -0.0598
 3159TIP3   OH231035   3.019   1.911   8.412  0.3359 -0.1703  0.3382
 3159TIP3    H131036   2.978   1.863   8.339  1.9163 -0.7590 -0.2184
 3159TIP3    H231037   3.082   1.849   8.449  0.1369  0.4080  1.7036
 3160TIP3   OH231038   2.704   6.094   1.193  0.6147  0.3830  0.3203
 3160TIP3    H131039   2.778   6.154   1.185  0.1130  1.0193  0.3847
 3160TIP3    H231040   2.742   6.015   1.232  1.4227  0.3794 -0.4416
 3161TIP3   OH231041   3.778   4.784   6.707 -0.1418 -0.2322  0.2755
 3161TIP3    H131042   3.718   4.767   6.780 -0.7904 -0.4609 -0.2979
 3161TIP3    H231043   3.739   4.858   6.661 -0.1570 -0.5793 -0.2801
 3162TIP3   OH231044   2.699   1.673   0.190  0.2907 -0.1218  0.1660
 3162TIP3    H131045   2.709   1.705   0.279  1.3332  0.0971 -0.0277
 3162TIP3    H231046   2.788   1.661   0.157 -0.0758 -0.3934 -0.7810
 3163TIP3   OH231047   0.567   6.197   0.924  0.4198  0.0081  0.7524
 3163TIP3    H131048   0.537   6.119   0.877  1.5314  0.9902 -1.7057
 3163TIP3    H231049   0.628   6.162   0.990 -0.3839 -1.3058  0.8497
 3164TIP3   OH231050   1.996   5.324   7.483  0.3415 -0.5697  0.1366
 3164TIP3    H131051   1.959   5.353   7.399  0.6003 -0.8462 -0.0753
 3164TIP3    H231052   1.951   5.377   7.549 -0.3611 -0.8413 -0.1255
 3165TIP3   OH231053   2.638   0.216   7.014  0.7933  0.1179 -0.6000
 3165TIP3    H131054   2.699   0.155   6.975  0.2959 -0.5087 -0.4206
 3165TIP3    H231055   2.574   0.161   7.059 -0.8803  0.6708 -2.1992
 3166TIP3   OH231056   2.565   1.377   7.260 -0.3323 -0.1345 -0.3139
 3166TIP3    H131057   2.526   1.410   7.179 -0.2455  0.4787 -0.1135
 3166TIP3    H231058   2.527   1.432   7.329  0.7345  0.3459 -0.0996
 3167TIP3   OH231059   0.175   1.758   8.338  0.3448 -0.1013 -0.4453
 3167TIP3    H131060   0.082   1.736   8.344  0.2947  0.4185  1.7230
 3167TIP3    H231061   0.220   1.674   8.334 -0.1779 -0.4035 -0.0374
 3168TIP3   OH231062   4.614   5.496   8.661  0.1853  0.0850 -0.6107
 3168TIP3    H131063   4.684   5.431   8.650 -0.5436 -0.8120 -0.0296
 3168TIP3    H231064   4.631   5.535   8.747  0.9874  1.1433 -1.2193
 3169TIP3   OH231065   4.473   2.564   1.572  0.1993  0.8296  0.2823
 3169TIP3    H131066   4.383   2.578   1.601  0.0233  0.3590 -0.0157
 3169TIP3    H231067   4.518   2.528   1.648 -0.3779 -0.8590 -0.1161
 3170TIP3   OH231068   2.174   1.540   0.756 -0.0856 -0.1168  0.3231
 3170TIP3    H131069   2.126   1.487   0.820  0.0141 -2.4398 -1.3982
 3170TIP3    H231070   2.109   1.559   0.689  0.3967  0.2546 -0.0376
 3171TIP3   OH231071   4.774   5.885   0.109 -0.8477  0.2183 -0.3878
 3171TIP3    H131072   4.690   5.869   0.153  0.3758 -0.2650  1.9549
 3171TIP3    H231073   4.819   5.801   0.113 -0.2940  0.4196 -1.8098
 3172TIP3   OH231074   6.151   4.895   0.271  0.4227  0.2595 -0.4974
 3172TIP3    H131075   6.243   4.908   0.296  0.4683  0.9973 -1.0138
 3172TIP3    H231076   6.102   4.953   0.329  0.1783 -0.8377  0.4314
 3173TIP3   OH231077   6.556   3.788   1.656 -0.5288  0.0364  0.0998
 3173TIP3    H131078   6.555   3.876   1.694  1.0394  0.5764 -1.0125
 3173TIP3    H231079   6.477   3.747   1.690 -0.9487  1.6408  1.1893
 3174TIP3   OH231080   1.217   4.456   1.233 -1.1302 -0.2929  0.1310
 3174TIP3    H131081   1.227   4.509   1.313  0.6536 -1.9622  1.0967
 3174TIP3    H231082   1.304   4.455   1.193 -1.5422 -1.0784 -0.7906
 3175TIP3   OH231083   5.767   0.769   7.311  0.0063 -0.1442 -0.6191
 3175TIP3    H131084   5.754   0.730   7.224  0.4649 -1.6129 -0.0621
 3175TIP3    H231085   5.684   0.752   7.357  0.4908 -1.2213 -0.1117
 3176TIP3   OH231086   4.251   5.113   8.562  0.5223  0.1339 -0.1206
 3176TIP3    H131087   4.195   5.164   8.504  0.8223 -1.7146 -2.1346
 3176TIP3    H231088   4.340   5.140   8.541  0.5679  0.9141  0.9702
 3177TIP3   OH231089   4.279   0.677   6.350  0.0905 -0.8333 -0.0522
 3177TIP3    H131090   4.357   0.626   6.373 -0.9649 -2.9973 -1.0277
 3177TIP3    H231091   4.281   0.751   6.411  2.8276 -0.8579  0.0301
 3178TIP3   OH231092   2.302   3.335   8.520 -0.0739  0.0550 -0.0827
 3178TIP3    H131093   2.239   3.377   8.578  0.4426 -0.7717  1.1211
 3178TIP3    H231094   2.283   3.371   8.433  0.3565  2.7709  0.8641
 3179TIP3   OH231095   5.500   5.164   2.202 -0.0484  0.0424  0.2405
 3179TIP3    H131096   5.539   5.086   2.241  0.8474  0.4509  0.1890
 3179TIP3    H231097   5.415   5.135   2.171 -0.1706 -0.6562  1.1785
 3180TIP3   OH231098   1.509   4.531   6.738 -0.2398 -0.1873 -0.1039
 3180TIP3    H131099   1.449   4.488   6.798 -0.9209  1.5912  0.5804
 3180TIP3    H231100   1.458   4.546   6.659 -0.8495  1.5509  0.5680
 3181TIP3   OH231101   1.817   4.138   7.580  0.0297  0.2027 -0.3892
 3181TIP3    H131102   1.859   4.086   7.649 -0.0546  1.6497  0.8115
 3181TIP3    H231103   1.732   4.096   7.567  0.1395 -0.2365  0.2319
 3182TIP3   OH231104   6.838   4.516   0.127  0.2129  0.9760  0.4942
 3182TIP3    H131105   6.878   4.602   0.143 -1.9743  1.7675  2.3451
 3182TIP3    H231106   6.833   4.476   0.214 -0.4150 -0.2679 -0.0974
 3183TIP3   OH231107   4.004   1.828   0.473 -0.4894 -0.7222  0.4893
 3183TIP3    H131108   3.929   1.820   0.532  0.0380 -0.5149  1.2083
 3183TIP3    H231109   4.049   1.744   0.479  0.1142 -0.3707  1.1736
 3184TIP3   OH231110   3.074   2.629   7.336  0.3699 -0.3793  0.1088
 3184TIP3    H131111   3.033   2.571   7.273  2.9917 -3.2753  0.7716
 3184TIP3    H231112   3.143   2.674   7.287  0.3552 -0.1919  0.2565
 3185TIP3   OH231113   3.602   5.460   7.219 -0.2623 -0.4563  0.3360
 3185TIP3    H131114   3.524   5.508   7.191 -0.0599 -0.7294 -0.7424
 3185TIP3    H231115   3.573   5.369   7.226 -0.2897 -0.4053  0.9678
 3186TIP3   OH231116   6.360   1.899   7.659 -0.1568  0.0502  0.8447
 3186TIP3    H131117   6.397   1.818   7.693 -2.4555 -1.8391 -0.8347
 3186TIP3    H231118   6.279   1.912   7.709 -0.9468  0.0225 -0.3628
 3187TIP3   OH231119   5.602   1.302   8.309  0.2674 -0.5287  0.4055
 3187TIP3    H131120   5.537   1.298   8.378  0.6875  0.5611  0.8828
 3187TIP3    H231121   5.682   1.266   8.348  0.7060  0.7746  0.7447
 3188TIP3   OH231122   4.140   6.814   2.627  0.1506 -0.1221  0.8550
 3188TIP3    H131123   4.137   6.881   2.558 -1.2205  1.2106  2.1503
 3188TIP3    H231124   4.107   6.735   2.584  1.1540  0.1739 -0.5273
 3189TIP3   OH231125   2.268   6.198   0.018  0.0528 -0.4989 -0.0052
 3189TIP3    H131126   2.335   6.169  -0.044  1.7382  1.5072  0.7534
 3189TIP3    H231127   2.188   6.155  -0.012  0.7277  0.4332 -3.6848
 3190TIP3   OH231128   1.250   1.553   8.660  0.1677 -0.1313  0.1541
 3190TIP3    H131129   1.279   1.594   8.578  0.7258 -0.2491  0.2932
 3190TIP3    H231130   1.244   1.625   8.722  1.4316 -0.2786  0.4779
 3191TIP3   OH231131   0.222   1.701   7.679  0.5012  0.1131 -0.5066
 3191TIP3    H131132   0.239   1.789   7.645  0.0304  0.2580 -0.3784
 3191TIP3    H231133   0.199   1.650   7.602  0.6069  0.1428 -0.5590
 3192TIP3   OH231134   3.221   1.646   2.338 -0.4857  0.1975  0.0256
 3192TIP3    H131135   3.161   1.572   2.328  0.2497 -0.2623 -1.2505
 3192TIP3    H231136   3.164   1.723   2.347 -1.3070 -0.0893 -2.1972
 3193TIP3   OH231137   0.012   0.425   1.304 -0.1480  0.2859 -0.2320
 3193TIP3    H131138   0.070   0.412   1.379 -0.3974 -0.9779 -0.2451
 3193TIP3    H231139   0.050   0.371   1.234 -1.2168 -0.4079 -0.2970
 3194TIP3   OH231140   0.286   4.791   8.279  0.1000 -0.0532 -0.4339
 3194TIP3    H131141   0.363   4.769   8.332 -0.1074 -0.0838 -0.1438
 3194TIP3    H231142   0.221   4.820   8.343  0.6251  2.2168 -0.8449
 3195TIP3   OH231143   3.313   5.871   8.254  0.1816 -0.5779  0.2475
 3195TIP3    H131144   3.366   5.798   8.222 -0.8244 -1.1796 -0.1262
 3195TIP3    H231145   3.223   5.839   8.249 -0.3551  0.9408 -0.6264
 3196TIP3   OH231146   6.231   4.150   8.627 -0.2727  0.6965  0.7902
 3196TIP3    H131147   6.182   4.179   8.550 -1.8426 -1.6268  0.7883
 3196TIP3    H231148   6.174   4.173   8.701 -1.0058 -1.1568  0.8598
 3197TIP3   OH231149   5.071   0.361   6.956  0.0010  0.7013 -0.5273
 3197TIP3    H131150   5.133   0.334   6.888  0.9435 -1.2604  0.9813
 3197TIP3    H231151   5.017   0.283   6.970  2.0849 -0.3360  3.2708
 3198TIP3   OH231152   5.967   2.358   1.658  0.2070 -0.1801  0.4311
 3198TIP3    H131153   5.938   2.295   1.724  0.9443 -1.4219 -0.3769
 3198TIP3    H231154   5.892   2.416   1.644  0.4750  0.9840  3.3043
 3199TIP3   OH231155   1.099   1.079   8.183 -0.4673  0.2761 -0.4508
 3199TIP3    H131156   1.062   0.991   8.171  0.4941 -0.1997  0.0185
 3199TIP3    H231157   1.193   1.068   8.172 -0.3722  1.3449 -0.8684
 3200TIP3   OH231158   5.442   5.434   2.247 -0.1480  1.0255  0.4215
 3200TIP3    H131159   5.351   5.433   2.217  0.3515  0.1333 -1.1848
 3200TIP3    H231160   5.461   5.343   2.268  0.0808  1.3663  1.7483
 3201TIP3   OH231161   4.459   4.425   6.941  0.7918  0.2351 -0.5511
 3201TIP3    H131162   4.434   4.339   6.975  0.4816 -0.1039 -1.5982
 3201TIP3    H231163   4.486   4.408   6.850  1.5994  1.1067 -0.4880
 3202TIP3   OH231164   1.773   5.652   1.283  0.6729 -0.6117 -0.2516
 3202TIP3    H131165   1.716   5.729   1.287 -0.2933 -1.3171 -0.1277
 3202TIP3    H231166   1.774   5.619   1.372  1.9173 -0.1733 -0.0852
 3203TIP3   OH231167   5.661   0.199   6.838  0.0385 -0.0862 -0.0272
 3203TIP3    H131168   5.671   0.293   6.826  1.2900 -0.2581 -0.4511
 3203TIP3    H231169   5.570   0.188   6.868  0.1206  1.3065  0.7969
 3204TIP3   OH231170   1.206   5.635   6.329  0.0040 -0.0644  0.1552
 3204TIP3    H131171   1.294   5.599   6.342  0.6344  0.9654 -1.0725
 3204TIP3    H231172   1.184   5.676   6.413  0.9286  0.1582  0.2953
 3205TIP3   OH231173   3.167   6.014   0.949  0.0137 -0.3300 -0.4122
 3205TIP3    H131174   3.224   5.958   0.897  0.0143 -0.4984 -0.2275
 3205TIP3    H231175   3.154   5.968   1.031 -1.4884 -0.9464 -0.9512
 3206TIP3   OH231176   2.446   0.059   6.308 -0.5660  0.0598 -0.3413
 3206TIP3    H131177   2.457  -0.024   6.353  0.6197  1.0200  1.2626
 3206TIP3    H231178   2.534   0.082   6.278 -0.6532  1.2532  0.2436
 3207TIP3   OH231179   1.162   5.829   8.187 -0.1446 -0.0234  0.0215
 3207TIP3    H131180   1.218   5.902   8.212  0.2167 -0.5290  0.7102
 3207TIP3    H231181   1.132   5.851   8.099  0.7538  0.4802 -0.1691
 3208TIP3   OH231182   4.208   1.077   6.604  0.1990 -0.2477 -0.5911
 3208TIP3    H131183   4.268   1.151   6.609  0.3854 -0.4486  0.2516
 3208TIP3    H231184   4.138   1.107   6.546 -0.0234  0.8056  0.1810
 3209TIP3   OH231185   6.178   5.754   6.541 -0.2553  0.0223  0.1619
 3209TIP3    H131186   6.217   5.669   6.561  0.4840 -0.0060 -1.2795
 3209TIP3    H231187   6.252   5.813   6.528 -0.7080  0.3875 -0.8972
 3210TIP3   OH231188   1.152   3.802   7.818 -0.3783  0.1299 -0.2256
 3210TIP3    H131189   1.223   3.796   7.754  0.3616 -0.6933  0.6388
 3210TIP3    H231190   1.176   3.875   7.874 -0.1573 -0.2081  0.1245
 3211TIP3   OH231191   2.171   5.619   7.081 -0.0023 -0.1121 -0.2221
 3211TIP3    H131192   2.126   5.545   7.039 -1.2257  0.1990  0.4761
 3211TIP3    H231193   2.111   5.693   7.070  0.4163  0.3671  0.5909
 3212TIP3   OH231194   0.627   2.141   1.650 -0.0018 -0.5960 -0.6263
 3212TIP3    H131195   0.646   2.047   1.645 -0.7981 -0.9772  2.0390
 3212TIP3    H231196   0.696   2.177   1.705 -2.0549 -0.5302  2.1492
 3213TIP3   OH231197   3.990   3.259   1.331 -0.5353  0.2861  0.1879
 3213TIP3    H131198   4.003   3.182   1.386  0.8985 -0.2346 -0.8265
 3213TIP3    H231199   4.067   3.313   1.347 -0.7022  0.6965 -0.3857
 3214TIP3   OH231200   5.375   3.017   8.422  0.0233 -0.5732  0.2825
 3214TIP3    H131201   5.452   3.005   8.477 -0.1357  0.2632  0.7093
 3214TIP3    H231202   5.389   2.958   8.348  0.5361 -1.2512  0.9051
 3215TIP3   OH231203   1.418   4.692   7.063  0.6677 -0.2864 -0.1190
 3215TIP3    H131204   1.479   4.632   7.108  0.0019  0.0334  1.2639
 3215TIP3    H231205   1.464   4.717   6.983  1.8921 -0.9247  0.3529
 3216TIP3   OH231206   5.227   4.669   7.260 -0.0739  0.5879 -0.4341
 3216TIP3    H131207   5.271   4.703   7.338 -0.2151  2.3717 -1.0978
 3216TIP3    H231208   5.184   4.745   7.221 -2.8661 -0.8798 -0.4321
 3217TIP3   OH231209   4.137   6.519   0.682  0.6077 -0.2612  0.2609
 3217TIP3    H131210   4.144   6.467   0.762  0.0411 -0.0534  0.4549
 3217TIP3    H231211   4.226   6.546   0.663  0.7886 -0.5672  0.6568
 3218TIP3   OH231212   3.150   5.035   6.583  0.1014 -0.3474 -0.1203
 3218TIP3    H131213   3.229   4.986   6.606  1.0202  1.2540  0.2545
 3218TIP3    H231214   3.182   5.113   6.538 -1.1545  0.9489  1.1096
 3219TIP3   OH231215   3.189   1.937   1.106 -0.4276 -0.2652 -0.6465
 3219TIP3    H131216   3.103   1.924   1.066 -0.7373 -1.1772  0.2552
 3219TIP3    H231217   3.205   2.031   1.099 -1.1569 -0.1930 -1.5037
 3220TIP3   OH231218   2.694   2.186   0.647  0.1221 -0.6506 -0.2161
 3220TIP3    H131219   2.629   2.124   0.679 -1.8495  0.1158 -2.4177
 3220TIP3    H231220   2.675   2.194   0.554  1.9539  1.3319 -0.4912
 3221TIP3   OH231221   3.614   6.662   2.800 -1.1490 -0.3108  0.7766
 3221TIP3    H131222   3.537   6.719   2.797  0.1418  1.5027  0.6527
 3221TIP3    H231223   3.586   6.587   2.853 -2.0969  1.7086  3.3313
 3222TIP3   OH231224   3.385   6.830   1.303  0.0451 -0.4630  0.5097
 3222TIP3    H131225   3.422   6.778   1.231  3.4462 -0.7211  2.2339
 3222TIP3    H231226   3.438   6.909   1.305 -1.5751  0.6394  1.2655
 3223TIP3   OH231227   2.122   2.011   7.644  0.1484 -0.6247 -0.1032
 3223TIP3    H131228   2.186   2.083   7.650 -2.0328  1.4113  0.1482
 3223TIP3    H231229   2.144   1.967   7.561  1.7639  0.0942 -0.0934
 3224TIP3   OH231230   5.004   3.828   2.562 -0.0887  0.2015 -0.3087
 3224TIP3    H131231   5.000   3.879   2.642  2.2346  1.1005 -0.6962
 3224TIP3    H231232   5.096   3.805   2.552 -0.9449 -4.0695 -0.2292
 3225TIP3   OH231233   0.873   6.065   7.153  0.0745  0.2069 -0.5604
 3225TIP3    H131234   0.880   6.030   7.064  0.4588  1.3117 -0.9778
 3225TIP3    H231235   0.858   6.158   7.141  0.7605  0.4783  0.5458
 3226TIP3   OH231236   4.823   4.707   7.047 -0.3229  0.0843  0.0166
 3226TIP3    H131237   4.794   4.691   6.958 -1.3049 -0.5067  0.4228
 3226TIP3    H231238   4.742   4.726   7.096 -0.0823 -1.6255  1.1824
 3227TIP3   OH231239   4.522   0.601   7.982  0.1711  0.9387  0.1555
 3227TIP3    H131240   4.443   0.638   8.021 -1.5654 -2.7738  0.5880
 3227TIP3    H231241   4.496   0.575   7.894  1.0830  0.1819  0.0923
 3228TIP3   OH231242   2.754   5.758   6.583 -0.0529 -0.1980 -0.2296
 3228TIP3    H131243   2.761   5.846   6.621  1.3652  0.2864 -1.4875
 3228TIP3    H231244   2.762   5.699   6.658  1.4017  0.7374  0.4053
 3229TIP3   OH231245   3.200   4.839   8.663  0.4650  0.2125  0.1497
 3229TIP3    H131246   3.291   4.807   8.659  0.6983  0.6401  1.4239
 3229TIP3    H231247   3.162   4.791   8.737 -0.0131  0.8350  0.3108
 3230TIP3   OH231248   0.501   5.738   1.215 -0.4246 -0.1328  0.4430
 3230TIP3    H131249   0.418   5.703   1.184 -1.2664 -0.3096  2.7443
 3230TIP3    H231250   0.550   5.661   1.246 -1.1369  0.3048  2.8861
 3231TIP3   OH231251   5.375   1.365   7.721 -0.0512  0.6489 -0.5718
 3231TIP3    H131252   5.416   1.440   7.764 -0.4558  0.1620  0.7416
 3231TIP3    H231253   5.368   1.390   7.629  2.4741  1.0488 -0.7266
 3232TIP3   OH231254   3.925   0.007   2.090 -0.0507 -0.0331  0.2444
 3232TIP3    H131255   4.006   0.016   2.140  0.1880 -1.2824  0.1173
 3232TIP3    H231256   3.859   0.054   2.141  0.3443 -0.6705  1.3733
 3233TIP3   OH231257   2.361   4.858   8.176  0.3543 -0.1680 -0.1021
 3233TIP3    H131258   2.384   4.778   8.222  0.4997 -0.8682 -1.3455
 3233TIP3    H231259   2.382   4.841   8.085  0.0725  1.1728 -0.4517
 3234TIP3   OH231260   6.811   2.467   1.514  0.1758 -0.3570  0.0031
 3234TIP3    H131261   6.816   2.374   1.535 -2.0758 -0.2522  1.2342
 3234TIP3    H231262   6.894   2.503   1.544  1.0106 -1.9063 -0.3378
 3235TIP3   OH231263   0.219   2.331   6.665  0.2816 -0.2774 -0.2507
 3235TIP3    H131264   0.240   2.316   6.573  1.4231 -1.4862  0.1743
 3235TIP3    H231265   0.147   2.395   6.663 -0.3598 -0.9810 -2.0069
 3236TIP3   OH231266   4.374   4.130   8.095  0.0751 -0.1942 -0.5529
 3236TIP3    H131267   4.393   4.118   8.188  2.3101  3.2814 -0.3572
 3236TIP3    H231268   4.440   4.077   8.050 -0.9267 -1.7785 -0.2483
 3237TIP3   OH231269   4.221   0.997   1.748  0.3440 -0.0381  0.6503
 3237TIP3    H131270   4.223   0.955   1.662 -2.1478 -0.5360  0.7630
 3237TIP3    H231271   4.271   1.078   1.737  0.0439 -0.0787 -1.2659
 3238TIP3   OH231272   6.128   1.967   7.823 -0.1028 -0.3058 -0.4454
 3238TIP3    H131273   6.066   1.994   7.756  0.0387  1.7792  0.1757
 3238TIP3    H231274   6.075   1.926   7.891 -0.6545  0.3299 -0.4848
 3239TIP3   OH231275   1.982   6.723   0.506 -0.3791 -0.1156  0.1238
 3239TIP3    H131276   2.063   6.673   0.521  0.4448  1.5973  1.7613
 3239TIP3    H231277   1.912   6.664   0.533  0.5737 -0.4246  2.1042
 3240TIP3   OH231278   6.483   5.137   0.079 -0.2609  0.1416 -0.1372
 3240TIP3    H131279   6.546   5.187   0.131  2.1687  0.3026 -2.9283
 3240TIP3    H231280   6.517   5.048   0.078 -1.8256 -0.5106  0.7374
 3241TIP3   OH231281   6.107   3.809   8.601 -0.0689 -0.0641 -0.3367
 3241TIP3    H131282   6.065   3.841   8.681  0.9916 -0.4460  0.3974
 3241TIP3    H231283   6.096   3.714   8.605  2.7985 -0.4530  1.0928
 3242TIP3   OH231284   0.377   0.778   0.198 -0.2039  0.4511  0.2132
 3242TIP3    H131285   0.325   0.760   0.120  0.1022 -2.0954  0.5197
 3242TIP3    H231286   0.333   0.730   0.268  1.6617 -0.5045  0.7973
 3243TIP3   OH231287   1.365   0.246   0.904 -0.0978 -0.3119 -0.0473
 3243TIP3    H131288   1.339   0.164   0.946  1.4660 -0.8404 -0.0400
 3243TIP3    H231289   1.442   0.275   0.952  0.0449  0.5722 -0.7675
 3244TIP3   OH231290   6.369   4.897   7.909  0.3257 -0.4869 -0.2385
 3244TIP3    H131291   6.443   4.901   7.970  0.9607 -1.3078 -0.9294
 3244TIP3    H231292   6.305   4.840   7.952  1.1168 -1.7490 -0.6548
 3245TIP3   OH231293   4.342   4.116   2.201  0.1964 -0.2761 -0.5098
 3245TIP3    H131294   4.380   4.124   2.288  0.1537  1.4136 -0.6124
 3245TIP3    H231295   4.249   4.136   2.214 -0.1550 -1.7052 -0.6898
 3246TIP3   OH231296   1.416   6.412   1.639  0.3758 -0.4236 -0.5156
 3246TIP3    H131297   1.361   6.336   1.624 -0.1046  0.3185 -2.9991
 3246TIP3    H231298   1.388   6.476   1.573  2.4393  0.9631 -0.1685
 3247TIP3   OH231299   1.431   2.501   2.204 -0.0042  0.0107 -0.0895
 3247TIP3    H131300   1.456   2.519   2.114 -0.4361  0.5418 -0.1093
 3247TIP3    H231301   1.340   2.531   2.210 -1.2739 -3.3324 -0.4673
 3248TIP3   OH231302   6.814   3.808   8.085  0.0758  0.1119 -0.4428
 3248TIP3    H131303   6.854   3.890   8.116  1.0749 -0.9394  1.2059
 3248TIP3    H231304   6.782   3.766   8.164 -1.0567 -0.7991 -1.3516
 3249TIP3   OH231305   2.690   5.807   0.390  0.4038 -0.5454 -0.5548
 3249TIP3    H131306   2.722   5.778   0.304  0.1003 -1.4696 -0.3734
 3249TIP3    H231307   2.728   5.745   0.452  0.9957  0.3938  0.0451
 3250TIP3   OH231308   0.858   2.765   0.697 -0.3715 -0.9806  0.7226
 3250TIP3    H131309   0.861   2.775   0.602 -0.8253  2.1136  0.9269
 3250TIP3    H231310   0.776   2.806   0.723  0.4671 -0.3641  2.5534
 3251TIP3   OH231311   6.654   5.285   8.170  0.4156  0.0435  0.2226
 3251TIP3    H131312   6.561   5.284   8.150  0.5450 -1.1172 -0.3945
 3251TIP3    H231313   6.696   5.314   8.089  0.5292  1.6791  0.8478
 3252TIP3   OH231314   4.565   3.555   0.245  0.3924 -0.1306 -0.8619
 3252TIP3    H131315   4.595   3.644   0.263  0.4419 -0.4379  0.6833
 3252TIP3    H231316   4.507   3.533   0.317  1.3568 -1.8058 -0.5287
 3253TIP3   OH231317   3.480   0.240   7.995  0.0446  0.0388  0.3929
 3253TIP3    H131318   3.418   0.290   8.047  0.8014  0.1300  1.2147
 3253TIP3    H231319   3.484   0.154   8.037  1.1972  0.3392  0.9437
 3254TIP3   OH231320   2.567   5.594   1.961  0.2101 -0.1041 -0.3729
 3254TIP3    H131321   2.537   5.507   1.985 -1.5198  0.4856 -0.2590
 3254TIP3    H231322   2.650   5.605   2.007 -0.6784 -0.8152  1.4766
 3255TIP3   OH231323   5.167   5.090   2.210  0.5146  0.6480  0.2517
 3255TIP3    H131324   5.152   5.174   2.252  0.0788  0.6239  0.1440
 3255TIP3    H231325   5.159   5.107   2.117  1.1797  0.6392  0.1904
 3256TIP3   OH231326   3.942   6.101   7.157  0.2116  0.3069 -0.1985
 3256TIP3    H131327   3.899   6.016   7.159 -1.0077  0.8468 -1.6398
 3256TIP3    H231328   3.886   6.157   7.212  0.0327  0.5948 -0.6722
 3257TIP3   OH231329   2.995   6.278   7.726  0.0968  0.2507 -0.3163
 3257TIP3    H131330   2.957   6.199   7.764  0.5412  0.3210  0.2938
 3257TIP3    H231331   3.030   6.250   7.642 -0.3794 -0.0378 -0.4239
 3258TIP3   OH231332   5.902   2.333   0.822  0.4933  0.4116 -0.2967
 3258TIP3    H131333   5.952   2.382   0.757 -0.1456  1.6459  0.1144
 3258TIP3    H231334   5.811   2.359   0.808  0.2593  0.1502  0.6212
 3259TIP3   OH231335   5.095   4.725   2.411  0.1428 -0.2112  0.1803
 3259TIP3    H131336   5.166   4.660   2.412  0.8312  0.5234  1.7129
 3259TIP3    H231337   5.015   4.672   2.399  0.6232 -1.4469  2.0258
 3260TIP3   OH231338   0.137   6.149   1.475 -0.3685 -0.0977  0.1739
 3260TIP3    H131339   0.178   6.205   1.541  1.1828 -0.7698 -0.1883
 3260TIP3    H231340   0.117   6.068   1.521 -0.7700  0.0104  0.1975
 3261TIP3   OH231341   1.760   2.149   0.875  0.0007 -0.2092  0.0728
 3261TIP3    H131342   1.681   2.101   0.848 -0.7420  1.2431 -0.4586
 3261TIP3    H231343   1.813   2.084   0.921 -0.4716 -1.7944 -1.5039
 3262TIP3   OH231344   1.368   5.807   2.188 -0.6123 -0.1330 -0.6640
 3262TIP3    H131345   1.455   5.787   2.154 -1.0807 -1.6098 -1.0567
 3262TIP3    H231346   1.365   5.764   2.274 -0.9002  0.0817 -0.5621
 3263TIP3   OH231347   2.307   1.865   0.033 -0.3556 -0.1504 -0.2097
 3263TIP3    H131348   2.374   1.933   0.035  0.2386 -0.7312  0.2103
 3263TIP3    H231349   2.236   1.899   0.087  0.0417  0.0244  0.2029
 3264TIP3   OH231350   5.352   3.154   6.103  0.3363 -0.1044  0.1295
 3264TIP3    H131351   5.440   3.122   6.124  0.3183 -0.7279 -0.6818
 3264TIP3    H231352   5.366   3.240   6.063  0.4188  0.7412  1.8851
 3265TIP3   OH231353   0.721   3.814   1.411  0.2449 -0.5186 -0.0679
 3265TIP3    H131354   0.777   3.778   1.480  0.9467 -0.2877 -0.5055
 3265TIP3    H231355   0.738   3.908   1.414 -1.1374 -0.2665  0.6777
 3266TIP3   OH231356   2.626   0.621   0.622  0.2888 -0.7132 -0.1866
 3266TIP3    H131357   2.535   0.592   0.635  0.2923  0.2272  2.2637
 3266TIP3    H231358   2.641   0.685   0.691  3.5891 -2.5852  1.0160
 3267TIP3   OH231359   2.358   5.883   7.503  0.3813  0.2893  0.4843
 3267TIP3    H131360   2.398   5.960   7.462 -1.7029  1.5982  0.7487
 3267TIP3    H231361   2.399   5.809   7.459  2.4240  1.5320  0.1804
 3268TIP3   OH231362   3.649   2.286   7.990  0.5213 -0.6067 -0.5004
 3268TIP3    H131363   3.606   2.372   7.984  3.0846  0.7433 -0.9668
 3268TIP3    H231364   3.617   2.248   8.071  2.3775  2.6810  2.0361
 3269TIP3   OH231365   0.697   5.576   1.597 -0.4204  0.5015 -0.1326
 3269TIP3    H131366   0.685   5.565   1.691  1.0897 -1.5195 -0.1184
 3269TIP3    H231367   0.650   5.657   1.576  0.7717  2.0591  2.6679
 3270TIP3   OH231368   4.295   6.568   6.823  0.0670  0.1209 -0.2900
 3270TIP3    H131369   4.305   6.474   6.834  0.1998  0.2967  1.2381
 3270TIP3    H231370   4.282   6.580   6.728 -2.7062 -1.6715 -0.2244
 3271TIP3   OH231371   0.920   3.495   6.537  0.1074  0.2740 -0.1020
 3271TIP3    H131372   0.976   3.571   6.554 -0.0591  0.2047  0.8477
 3271TIP3    H231373   0.982   3.423   6.522  0.4880 -0.5068  3.9433
 3272TIP3   OH231374   4.741   3.120   7.004  0.2108 -0.1794 -0.3136
 3272TIP3    H131375   4.652   3.153   6.999  0.9024  1.8909  0.0683
 3272TIP3    H231376   4.736   3.048   7.067 -0.9374  0.9504  0.9669
 3273TIP3   OH231377   1.868   3.558   0.205 -0.2959  0.0464  0.0327
 3273TIP3    H131378   1.857   3.602   0.120 -0.8333 -1.4339 -0.6908
 3273TIP3    H231379   1.956   3.521   0.201 -0.6191 -0.7032 -0.2093
 3274TIP3   OH231380   1.790   2.388   7.858 -0.3460 -0.5910  0.3351
 3274TIP3    H131381   1.825   2.335   7.786 -0.0602  0.2472 -0.1612
 3274TIP3    H231382   1.832   2.352   7.936 -0.1415 -1.0799  0.0051
 3275TIP3   OH231383   4.505   6.788   1.784  0.0169  0.3287 -0.8048
 3275TIP3    H131384   4.462   6.759   1.864 -0.4146 -3.1678 -2.1088
 3275TIP3    H231385   4.434   6.808   1.723  0.2732 -0.1822 -1.2848
 3276TIP3   OH231386   0.263   4.431   7.159 -0.0030 -0.3247 -0.4543
 3276TIP3    H131387   0.304   4.517   7.166 -0.4392 -0.1561  0.0521
 3276TIP3    H231388   0.335   4.372   7.136  0.2568  0.2098 -1.0234
 3277TIP3   OH231389   2.948   0.073   6.907  0.0886  0.2852 -0.1075
 3277TIP3    H131390   2.986   0.104   6.825 -0.3708  0.8011 -0.1365
 3277TIP3    H231391   2.979   0.136   6.972  0.9803 -0.4918  0.2377
 3278TIP3   OH231392   2.961   5.241   6.848  0.2489 -0.1673  0.2435
 3278TIP3    H131393   2.989   5.219   6.759  0.0896 -1.2261  0.4396
 3278TIP3    H231394   3.008   5.322   6.869 -0.5120  0.6864 -1.1826
 3279TIP3   OH231395   2.007   1.417   6.387  0.0576 -0.0560 -0.1614
 3279TIP3    H131396   1.977   1.334   6.424 -1.1729 -0.4660 -1.9668
 3279TIP3    H231397   2.006   1.404   6.292 -0.4987  2.1181 -0.5187
 3280TIP3   OH231398   1.734   0.444   6.942  0.0941  0.5832  0.1096
 3280TIP3    H131399   1.704   0.361   6.905  0.7036  0.1543  0.5559
 3280TIP3    H231400   1.781   0.487   6.870  1.0436 -0.1259  0.2816
 3281TIP3   OH231401   4.002   0.070   2.823  0.4203 -0.5154  0.1582
 3281TIP3    H131402   4.004   0.146   2.766  1.4323  0.6987  1.7082
 3281TIP3    H231403   4.084   0.023   2.805  0.6195 -0.2698  0.4049
 3282TIP3   OH231404   0.392   2.591   6.951  0.0743 -0.0553 -0.0089
 3282TIP3    H131405   0.461   2.527   6.932  0.2502 -0.5028  1.9094
 3282TIP3    H231406   0.415   2.626   7.037 -1.2970  0.8920  0.0072
 3283TIP3   OH231407   3.068   0.039   0.464 -0.5745  0.0385  0.2605
 3283TIP3    H131408   3.042  -0.020   0.393 -0.1617 -0.7920  0.7876
 3283TIP3    H231409   3.137   0.094   0.426 -1.3891  0.6350 -0.4221
 3284TIP3   OH231410   2.211   2.330   0.634  0.1263 -0.1093  0.3879
 3284TIP3    H131411   2.217   2.332   0.729 -0.4060  0.0872  0.4206
 3284TIP3    H231412   2.123   2.363   0.615  0.2640 -0.0602 -0.1741
 3285TIP3   OH231413   4.620   5.689   6.094 -0.1805 -0.1995 -0.3023
 3285TIP3    H131414   4.526   5.683   6.113 -0.3260  1.4321 -0.3505
 3285TIP3    H231415   4.663   5.676   6.178 -0.5403  0.6629  0.0285
 3286TIP3   OH231416   5.217   0.909   7.141  0.3193 -0.0517  0.2925
 3286TIP3    H131417   5.124   0.903   7.164  0.0225 -0.7507 -0.9458
 3286TIP3    H231418   5.237   0.823   7.103  0.6439  1.0667 -2.2678
 3287TIP3   OH231419   0.956   0.449   0.001 -0.2240  0.0155  0.1096
 3287TIP3    H131420   1.020   0.519   0.016  0.5824 -0.5606 -0.5281
 3287TIP3    H231421   0.872   0.494  -0.007  0.7200  1.5235 -4.7201
 3288TIP3   OH231422   2.357   2.930   0.270  0.6662 -0.0936 -0.7151
 3288TIP3    H131423   2.424   2.907   0.205 -1.4839 -1.4950 -2.5717
 3288TIP3    H231424   2.291   2.862   0.261 -1.1710  1.3798  0.8481
 3289TIP3   OH231425   6.082   2.981   0.950 -0.9078  0.2109  0.0065
 3289TIP3    H131426   6.149   2.947   1.010 -2.0652  0.3977  1.4517
 3289TIP3    H231427   6.102   3.074   0.942 -0.7987  0.2006  0.1548
 3290TIP3   OH231428   4.775   2.113   7.443  0.2627  0.5981  0.1173
 3290TIP3    H131429   4.859   2.090   7.403 -0.0352  1.5017 -1.1068
 3290TIP3    H231430   4.787   2.096   7.536  1.0280 -1.4780 -0.3081
 3291TIP3   OH231431   5.230   5.490   1.251 -0.5323 -0.0668  0.0943
 3291TIP3    H131432   5.269   5.551   1.314  0.0894  1.3369 -1.5587
 3291TIP3    H231433   5.292   5.419   1.244 -0.7638 -0.4161  1.2719
 3292TIP3   OH231434   4.353   3.428   6.627 -0.1245  0.1870 -0.1146
 3292TIP3    H131435   4.362   3.333   6.636  0.7894  0.3885  1.4930
 3292TIP3    H231436   4.295   3.453   6.699  0.4530  0.9567  0.0953
 3293TIP3   OH231437   3.351   3.453   6.766 -0.2161 -0.2346  0.0240
 3293TIP3    H131438   3.444   3.462   6.743 -0.1321 -2.4740 -0.7890
 3293TIP3    H231439   3.351   3.416   6.854 -0.3253 -0.7682 -0.1999
 3294TIP3   OH231440   3.316   1.899   1.359  0.4983 -0.3434 -0.6402
 3294TIP3    H131441   3.388   1.962   1.356  1.2180 -1.0774  0.6140
 3294TIP3    H231442   3.275   1.906   1.272  1.6844  0.5270 -1.1614
 3295TIP3   OH231443   0.269   2.383   7.488  0.3716  0.6515  0.6644
 3295TIP3    H131444   0.235   2.383   7.577  1.7021 -2.1239  1.2996
 3295TIP3    H231445   0.353   2.338   7.494 -0.2166 -1.1254 -2.2162
 3296TIP3   OH231446   4.558   2.542   7.151 -0.0624 -0.2130 -0.0999
 3296TIP3    H131447   4.600   2.559   7.067  0.2357  0.4633  0.1809
 3296TIP3    H231448   4.600   2.603   7.212  0.2292 -1.1863  0.6956
 3297TIP3   OH231449   5.562   3.476   7.108 -0.0788 -0.6642  0.0833
 3297TIP3    H131450   5.582   3.438   7.023  0.2398  1.9255 -1.0946
 3297TIP3    H231451   5.468   3.461   7.120  0.1918 -2.6105  0.1872
 3298TIP3   OH231452   6.625   4.793   7.612 -0.5834  0.8428  0.2402
 3298TIP3    H131453   6.617   4.875   7.662 -1.3713  0.3897  0.8732
 3298TIP3    H231454   6.689   4.813   7.544 -1.2511  2.1989 -0.0245
 3299TIP3   OH231455   2.525   6.039   1.901 -0.1761  0.0105 -0.0603
 3299TIP3    H131456   2.565   6.105   1.844 -0.0684 -0.2679 -0.3124
 3299TIP3    H231457   2.509   6.085   1.984 -1.4093  0.7490 -0.6830
 3300TIP3   OH231458   3.527   1.410   2.020 -0.0487 -0.8182 -0.3710
 3300TIP3    H131459   3.590   1.341   2.001  1.1285 -0.1943  1.0121
 3300TIP3    H231460   3.449   1.364   2.050 -0.1414 -1.5929 -1.7348
 3301TIP3   OH231461   3.641   4.635   0.683  0.1369  0.2706 -0.3911
 3301TIP3    H131462   3.611   4.556   0.638 -0.8548  1.1709 -1.3747
 3301TIP3    H231463   3.719   4.607   0.732  0.3836 -1.0912 -1.5032
 3302TIP3   OH231464   4.640   5.617   8.399  0.0129  0.1312 -0.1056
 3302TIP3    H131465   4.646   5.706   8.435 -0.2793  1.0123 -2.1306
 3302TIP3    H231466   4.619   5.562   8.475 -0.4951  1.8726  1.0705
 3303TIP3   OH231467   3.150   1.271   0.104  0.4186  0.4531 -0.1644
 3303TIP3    H131468   3.180   1.220   0.028 -1.0509  0.4075 -0.7402
 3303TIP3    H231469   3.067   1.230   0.129 -0.0734  1.6765  0.2480
 3304TIP3   OH231470   1.535   6.715   8.718 -0.0144 -0.3390 -0.3901
 3304TIP3    H131471   1.590   6.638   8.736  0.5321 -0.0397 -0.7708
 3304TIP3    H231472   1.448   6.678   8.702 -0.4980 -0.6981  2.3936
 3305TIP3   OH231473   0.295   5.485   6.745 -0.0847 -0.1565  0.1094
 3305TIP3    H131474   0.206   5.513   6.768 -0.9367  0.2526 -3.2313
 3305TIP3    H231475   0.289   5.390   6.736  0.1502 -0.2708  1.0772
 3306TIP3   OH231476   6.528   2.969   1.888 -0.2888 -0.1242 -0.0422
 3306TIP3    H131477   6.542   2.880   1.921  1.2422  0.3366  0.6347
 3306TIP3    H231478   6.550   2.964   1.795  0.7584 -0.2714  0.1965
 3307TIP3   OH231479   5.393   4.891   2.371 -0.0004 -0.1752 -0.0465
 3307TIP3    H131480   5.487   4.905   2.354 -0.2879  0.8726 -0.8798
 3307TIP3    H231481   5.359   4.852   2.291 -0.0582 -1.8035  0.7258
 3308TIP3   OH231482   1.945   5.047   0.623  0.5185 -0.5476  0.1385
 3308TIP3    H131483   1.877   4.995   0.579 -1.1412  0.4545  1.3884
 3308TIP3    H231484   2.002   5.076   0.552 -2.0635  1.0492 -1.4804
 3309TIP3   OH231485   6.320   3.133   1.436 -0.3791  0.3474 -0.0881
 3309TIP3    H131486   6.346   3.183   1.359  0.5632 -0.5072 -0.3543
 3309TIP3    H231487   6.240   3.088   1.410 -0.9475  1.3031 -0.0143
 3310TIP3   OH231488   3.808   1.126   0.246  0.0527 -0.3372 -0.1856
 3310TIP3    H131489   3.805   1.180   0.167 -0.5817 -0.0304  0.0438
 3310TIP3    H231490   3.739   1.161   0.302 -0.2957 -1.3103  0.0174
 3311TIP3   OH231491   5.265   6.229   0.929  0.2751  0.3988 -0.2058
 3311TIP3    H131492   5.248   6.225   0.835 -0.6122  0.8517 -0.0715
 3311TIP3    H231493   5.301   6.143   0.950 -1.3240 -0.4195 -0.6296
 3312TIP3   OH231494   1.643   0.085   0.118  0.2165 -0.3703 -0.3227
 3312TIP3    H131495   1.582   0.018   0.088 -1.2339  0.9156 -0.3533
 3312TIP3    H231496   1.681   0.049   0.198 -2.7011 -0.1221  1.3241
 3313TIP3   OH231497   0.037   3.020   0.652 -0.2598 -0.3483 -0.2095
 3313TIP3    H131498   0.040   2.925   0.658  1.0817 -0.2679  0.9480
 3313TIP3    H231499   0.053   3.050   0.741  0.8328  0.9701 -0.8146
 3314TIP3   OH231500   3.721   6.282   7.615  0.3403 -0.0557  0.1229
 3314TIP3    H131501   3.732   6.260   7.522 -1.6420 -1.7214  0.1917
 3314TIP3    H231502   3.670   6.363   7.614 -0.5922 -0.6182 -0.3140
 3315TIP3   OH231503   0.919   1.717   8.013  0.0737  0.5696 -0.2084
 3315TIP3    H131504   0.967   1.686   7.937  0.5613  1.2749 -0.2079
 3315TIP3    H231505   0.832   1.740   7.980 -1.2075 -3.1013  0.2514
 3316TIP3   OH231506   3.742   1.477   7.701 -0.6849 -1.0173  0.0865
 3316TIP3    H131507   3.732   1.396   7.751 -0.8367 -1.4468 -0.6281
 3316TIP3    H231508   3.775   1.449   7.616 -0.8267 -0.3371 -0.2001
 3317TIP3   OH231509   1.442   5.296   7.590 -0.6089  0.0989  0.9268
 3317TIP3    H131510   1.386   5.373   7.583 -2.1251 -1.0324 -0.0177
 3317TIP3    H231511   1.410   5.237   7.522  0.0974 -1.6284  2.0284
 3318TIP3   OH231512   2.947   2.558   7.963  0.4621 -0.3075 -0.2043
 3318TIP3    H131513   2.857   2.548   7.994  1.0764 -1.0430  1.4882
 3318TIP3    H231514   2.939   2.575   7.869 -1.4247 -0.3814 -0.0903
 3319TIP3   OH231515   5.324   2.720   1.892 -0.0557  0.5229  0.1680
 3319TIP3    H131516   5.321   2.758   1.980 -2.1146  2.3597 -0.5995
 3319TIP3    H231517   5.386   2.648   1.899  0.4595  1.1246  2.9139
 3320TIP3   OH231518   0.439   0.999   0.424 -0.6589  0.1301 -0.3611
 3320TIP3    H131519   0.353   0.958   0.411 -0.0395 -1.0461 -0.8375
 3320TIP3    H231520   0.498   0.926   0.441  0.5166  0.7906 -1.4892
 3321TIP3   OH231521   2.871   0.093   0.822  0.1252  0.0822 -0.3951
 3321TIP3    H131522   2.876   0.008   0.779  1.9703  1.0564 -2.2862
 3321TIP3    H231523   2.779   0.102   0.846 -0.2934 -2.0213 -1.0217
 3322TIP3   OH231524   1.407   0.763   1.036  0.3806  0.7843  0.6214
 3322TIP3    H131525   1.363   0.815   1.103 -0.1778  1.7250 -0.4292
 3322TIP3    H231526   1.370   0.676   1.044 -0.5526  1.1842  0.7638
 3323TIP3   OH231527   1.807   6.276   1.581  0.0928 -0.3045 -0.0484
 3323TIP3    H131528   1.755   6.217   1.635  1.4490 -2.4810 -0.9610
 3323TIP3    H231529   1.886   6.293   1.633 -0.0089  0.1932 -0.0542
 3324TIP3   OH231530   4.816   5.879   6.212  0.2178  0.4537 -0.1612
 3324TIP3    H131531   4.729   5.860   6.176 -0.1844 -0.1231  1.0765
 3324TIP3    H231532   4.877   5.842   6.148 -0.4992 -2.0141  0.4902
 3325TIP3   OH231533   0.825   2.995   0.194 -0.4391  1.2169  1.0438
 3325TIP3    H131534   0.830   3.075   0.141  1.5179  1.3325  1.3433
 3325TIP3    H231535   0.890   3.007   0.262  1.5840 -1.5565 -0.2278
 3326TIP3   OH231536   3.919   3.140   8.305 -0.9326 -0.0874  0.0357
 3326TIP3    H131537   3.915   3.046   8.287  1.2283 -0.2466  0.0961
 3326TIP3    H231538   3.962   3.177   8.228 -0.4816  0.6366  0.6226
 3327TIP3   OH231539   1.315   5.534   6.855  0.2863  0.0844  0.3643
 3327TIP3    H131540   1.347   5.615   6.816  0.5459  0.1918  0.7884
 3327TIP3    H231541   1.221   5.548   6.866  0.0576 -0.2800 -1.0066
 3328TIP3   OH231542   2.963   4.373   8.071 -0.5782  0.4310  0.1038
 3328TIP3    H131543   3.031   4.414   8.017 -0.5746  0.9215  0.4721
 3328TIP3    H231544   3.013   4.329   8.140 -0.5924 -0.0181 -0.1711
 3329TIP3   OH231545   4.238   4.063   1.545  0.3123 -0.3332  0.5693
 3329TIP3    H131546   4.293   4.125   1.593 -0.5079  0.2036  0.8372
 3329TIP3    H231547   4.150   4.102   1.547  0.3754  0.2058 -2.1579
 3330TIP3   OH231548   3.265   2.524   7.853 -0.1711 -0.5530 -0.4825
 3330TIP3    H131549   3.292   2.449   7.800  0.1805 -0.7170 -0.0711
 3330TIP3    H231550   3.314   2.598   7.817  1.5378 -1.0037  0.8312
 3331TIP3   OH231551   1.153   5.328   0.266  0.0546 -0.3941 -0.1604
 3331TIP3    H131552   1.173   5.421   0.266 -0.9175 -0.1723 -0.4003
 3331TIP3    H231553   1.179   5.298   0.353  0.5225  0.0589 -0.1363
 3332TIP3   OH231554   5.127   3.039   1.865  0.1026  0.0155 -0.8285
 3332TIP3    H131555   5.160   2.963   1.817  0.3485  0.1053 -0.8054
 3332TIP3    H231556   5.108   3.104   1.798  0.2817  0.0795 -0.8170
 3333TIP3   OH231557   1.787   4.505   0.566  0.2245 -0.1242  0.0009
 3333TIP3    H131558   1.852   4.561   0.608  1.1798 -0.5142 -0.9056
 3333TIP3    H231559   1.759   4.444   0.634 -1.7969  2.1886  1.3962
 3334TIP3   OH231560   0.099   5.867   6.462  0.4141 -0.2209 -0.2270
 3334TIP3    H131561   0.116   5.774   6.471  2.7365  0.3686  2.9920
 3334TIP3    H231562   0.183   5.905   6.438  0.1716  1.2867  1.1107
 3335TIP3   OH231563   4.257   6.439   7.784 -0.3513  0.2459  0.5952
 3335TIP3    H131564   4.190   6.475   7.842 -0.7276 -1.1629  1.0745
 3335TIP3    H231565   4.232   6.469   7.697 -0.2597  1.6887  1.0499
 3336TIP3   OH231566   4.198   2.645   0.703  0.1162  0.0451 -0.2417
 3336TIP3    H131567   4.239   2.726   0.734 -0.2699 -0.2299  1.0132
 3336TIP3    H231568   4.104   2.661   0.709  0.0357 -0.6210  0.3414
 3337TIP3   OH231569   2.441   2.395   0.140  0.1592  0.4071  0.4009
 3337TIP3    H131570   2.355   2.354   0.153  0.8011 -0.5750  1.8316
 3337TIP3    H231571   2.503   2.322   0.146  1.1295  1.1542 -0.2596
 3338TIP3   OH231572   0.460   3.845   7.752  0.2363 -0.0422 -0.0642
 3338TIP3    H131573   0.509   3.789   7.691 -0.9050 -0.4421 -0.6378
 3338TIP3    H231574   0.468   3.801   7.837  2.3710  0.8488  0.2571
 3339TIP3   OH231575   3.567   6.006   0.698  0.0963 -0.2075  0.1250
 3339TIP3    H131576   3.492   6.057   0.670  0.6914  0.3783 -0.4446
 3339TIP3    H231577   3.583   5.944   0.627 -0.6501 -1.2386  0.8348
 3340TIP3   OH231578   2.567   5.885   6.871  0.1845  0.0716  0.1748
 3340TIP3    H131579   2.510   5.837   6.811 -0.8842  1.0137  0.4105
 3340TIP3    H231580   2.651   5.839   6.866 -0.0808 -0.2909 -1.5092
 3341TIP3   OH231581   4.374   0.785   1.892 -0.3713 -0.0236 -0.0922
 3341TIP3    H131582   4.456   0.819   1.927 -0.6549 -0.2031  0.7840
 3341TIP3    H231583   4.324   0.862   1.867  0.3158  0.0674 -1.2557
 3342TIP3   OH231584   4.312   5.660   2.414 -0.4919 -0.1907 -0.0520
 3342TIP3    H131585   4.280   5.742   2.376  0.7870 -0.0946 -0.9958
 3342TIP3    H231586   4.374   5.687   2.481 -0.2671 -0.3663 -0.1843
 3343TIP3   OH231587   3.780   3.131   7.091  0.5994  0.2519 -0.4533
 3343TIP3    H131588   3.718   3.109   7.021  0.7413 -1.9058  0.0251
 3343TIP3    H231589   3.725   3.158   7.165  0.3527  0.5244 -0.7348
 3344TIP3   OH231590   5.761   5.280   7.883 -0.6068  0.0174 -0.2453
 3344TIP3    H131591   5.839   5.324   7.850 -0.2096 -0.6842 -0.2592
 3344TIP3    H231592   5.794   5.207   7.934 -1.2611 -1.2140 -1.5098
 3345TIP3   OH231593   2.240   0.538   7.307 -0.4405 -0.6523  0.2755
 3345TIP3    H131594   2.193   0.551   7.389 -1.4185  1.3513 -0.5254
 3345TIP3    H231595   2.330   0.566   7.326 -0.7175  0.0205  0.6163
 3346TIP3   OH231596   3.356   6.444   0.421 -0.4516  0.3212 -0.0173
 3346TIP3    H131597   3.316   6.507   0.481 -0.6629  0.8271 -0.6827
 3346TIP3    H231598   3.301   6.447   0.343  0.3348  0.3147 -0.5751
 3347TIP3   OH231599   2.873   4.917   6.618  0.0913  0.0556 -0.3151
 3347TIP3    H131600   2.839   4.839   6.573  0.5662 -1.2711  1.5079
 3347TIP3    H231601   2.960   4.930   6.581 -0.5064  0.5826 -1.6017
 3348TIP3   OH231602   0.109   5.236   7.657 -0.4928  0.0718 -0.4486
 3348TIP3    H131603   0.133   5.143   7.653 -2.6996 -0.6539  0.9333
 3348TIP3    H231604   0.170   5.275   7.719 -1.1870 -1.1150  1.0493
 3349TIP3   OH231605   4.767   2.418   0.701 -0.0829 -0.1276  0.0870
 3349TIP3    H131606   4.815   2.338   0.721  0.7867  1.1533  3.8564
 3349TIP3    H231607   4.682   2.388   0.669  0.4232 -2.5275  0.8214
 3350TIP3   OH231608   4.655   4.970   8.489 -0.0308 -0.5697  0.3778
 3350TIP3    H131609   4.738   5.016   8.504 -0.6175 -0.0716  2.4442
 3350TIP3    H231610   4.662   4.891   8.542 -0.5565 -0.9332 -0.0940
 3351TIP3   OH231611   1.396   0.060   0.708  0.1885  0.2888 -0.0069
 3351TIP3    H131612   1.384   0.121   0.781  1.5396 -0.0857  0.5764
 3351TIP3    H231613   1.355  -0.021   0.738 -1.0012  0.6993 -0.4976
 3352TIP3   OH231614   6.757   2.600   8.548 -0.4583 -0.5573 -0.6663
 3352TIP3    H131615   6.826   2.662   8.524  0.3548 -0.3519  1.9219
 3352TIP3    H231616   6.797   2.514   8.536  0.5401 -0.4328  1.4135
 3353TIP3   OH231617   2.169   0.750   1.287 -0.2028 -0.0369 -0.3600
 3353TIP3    H131618   2.080   0.727   1.258  0.0397  0.9850 -2.0674
 3353TIP3    H231619   2.164   0.843   1.309  0.8083  0.5193 -2.2623
 3354TIP3   OH231620   5.744   2.881   1.321 -0.0529  0.0068 -0.7524
 3354TIP3    H131621   5.762   2.805   1.377 -0.2210  1.6451  1.6551
 3354TIP3    H231622   5.829   2.921   1.307 -0.3937  1.5970  1.4047
 3355TIP3   OH231623   3.108   4.675   0.132 -0.0209 -0.1042  0.5738
 3355TIP3    H131624   3.042   4.717   0.187 -1.2248 -0.7330 -0.3563
 3355TIP3    H231625   3.174   4.644   0.194 -0.3047  1.0215  1.4703
 3356TIP3   OH231626   6.378   1.414   2.055 -0.0615 -0.1491 -0.2412
 3356TIP3    H131627   6.441   1.363   2.106  0.1377 -1.5638 -1.8328
 3356TIP3    H231628   6.294   1.396   2.097  0.3576  0.5349  0.9539
 3357TIP3   OH231629   0.021   3.367   0.698  0.4803  0.1168  0.1742
 3357TIP3    H131630  -0.051   3.415   0.657  0.6004 -0.7538 -1.1160
 3357TIP3    H231631  -0.019   3.326   0.774 -0.3698 -0.2357 -0.4382
 3358TIP3   OH231632   4.554   4.134   7.646  0.2765 -0.2576  0.3651
 3358TIP3    H131633   4.582   4.065   7.585  1.8966  2.1442 -1.8456
 3358TIP3    H231634   4.458   4.136   7.638  0.4242  0.2457 -2.6391
 3359TIP3   OH231635   5.049   2.021   0.065  0.0429  0.3166 -0.4273
 3359TIP3    H131636   5.101   2.097   0.090 -0.5069  0.4678  0.3008
 3359TIP3    H231637   5.110   1.948   0.067  0.6109  0.7631 -1.2911
 3360TIP3   OH231638   0.489   0.810   1.368  0.2101 -0.2665 -0.1241
 3360TIP3    H131639   0.539   0.842   1.293  0.4276  2.1110  0.9613
 3360TIP3    H231640   0.398   0.827   1.344  0.3435  1.9139  0.6691
 3361TIP3   OH231641   4.206   5.613   0.922  0.0229  0.7510  0.0153
 3361TIP3    H131642   4.132   5.588   0.867 -1.3136  0.7881  1.6863
 3361TIP3    H231643   4.283   5.600   0.867 -1.1944  0.5017 -1.7262
 3362TIP3   OH231644   0.771   4.433   7.051  0.1508  0.7093 -0.6607
 3362TIP3    H131645   0.809   4.430   7.139  2.2041 -1.6065 -1.4948
 3362TIP3    H231646   0.843   4.463   6.996 -0.8187  1.1787 -1.7121
 3363TIP3   OH231647   1.844   3.192   0.227  0.0073 -0.0920  0.3579
 3363TIP3    H131648   1.936   3.164   0.230 -0.5948 -2.3341 -0.2696
 3363TIP3    H231649   1.824   3.199   0.134 -0.8654 -1.1871  0.4398
 3364TIP3   OH231650   5.211   4.944   1.029 -0.0773 -0.1108  0.5511
 3364TIP3    H131651   5.219   4.854   1.060 -1.8116 -0.2289  0.7778
 3364TIP3    H231652   5.174   4.936   0.941  0.8217  0.3518  0.1233
 3365TIP3   OH231653   0.502   4.355   6.929  0.2375  0.1625 -0.0682
 3365TIP3    H131654   0.524   4.432   6.877 -0.0229 -0.2563 -0.8102
 3365TIP3    H231655   0.575   4.345   6.989  0.5317  0.6733 -0.3375
 3366TIP3   OH231656   6.628   4.076   7.959 -0.5581 -0.3458 -0.2157
 3366TIP3    H131657   6.719   4.083   7.989 -0.5519  1.0629 -0.5172
 3366TIP3    H231658   6.623   3.989   7.918  0.9340 -0.0572 -1.0851
 3367TIP3   OH231659   6.572   1.848   1.229 -0.1178  0.4501  0.3813
 3367TIP3    H131660   6.602   1.873   1.316  2.4781 -0.7455 -0.0530
 3367TIP3    H231661   6.642   1.878   1.171 -0.7618 -0.6791 -1.0318
 3368TIP3   OH231662   3.914   5.637   1.625  0.0366  0.7205  0.7681
 3368TIP3    H131663   3.919   5.725   1.663 -1.3270  1.4747 -0.6929
 3368TIP3    H231664   3.877   5.651   1.538 -0.3114 -1.3289  0.5526
 3369TIP3   OH231665   5.370   1.002   1.665  0.7891  0.4663 -0.0718
 3369TIP3    H131666   5.388   0.993   1.571  0.8590  2.0484 -0.2396
 3369TIP3    H231667   5.456   0.995   1.706  0.8211  0.3179 -0.1598
 3370TIP3   OH231668   4.472   5.945   1.386  0.4400 -0.1656  0.2114
 3370TIP3    H131669   4.386   5.910   1.408  0.7122 -0.3728  0.9713
 3370TIP3    H231670   4.469   5.958   1.291 -0.4974  0.0311  0.2634
 3371TIP3   OH231671   2.991   0.156   0.167  0.3284 -0.0089  0.8470
 3371TIP3    H131672   3.059   0.213   0.205  1.1091 -1.2528  1.3619
 3371TIP3    H231673   3.006   0.071   0.208  0.1469 -0.9788 -1.0220
 3372TIP3   OH231674   4.167   1.134   8.496 -0.2995  0.1918 -0.7100
 3372TIP3    H131675   4.146   1.116   8.588 -0.9179 -0.4383 -0.9687
 3372TIP3    H231676   4.096   1.093   8.447  0.1729  0.2949 -1.4891
 3373TIP3   OH231677   5.310   4.376   8.042 -0.4833 -0.0423  0.2082
 3373TIP3    H131678   5.217   4.395   8.040 -0.8577 -1.5628  1.3396
 3373TIP3    H231679   5.315   4.282   8.058  1.1765  0.4458  3.6813
 3374TIP3   OH231680   6.263   6.137   7.563  0.1478  0.1293  0.4057
 3374TIP3    H131681   6.238   6.145   7.656  0.5064 -0.1436  0.5244
 3374TIP3    H231682   6.297   6.048   7.555  0.8738  0.4225  0.1917
 3375TIP3   OH231683   6.452   3.010   0.240  0.2379  0.1996 -0.9070
 3375TIP3    H131684   6.372   2.968   0.208  1.1421 -0.5394 -2.2667
 3375TIP3    H231685   6.442   3.102   0.217 -0.3650  0.1792 -0.7512
 3376TIP3   OH231686   2.916   4.800   7.465  0.2702 -0.4945  0.1943
 3376TIP3    H131687   2.884   4.811   7.554  0.1528 -0.0333  0.1010
 3376TIP3    H231688   2.933   4.706   7.456  0.5327 -0.5029  0.7798
 3377TIP3   OH231689   1.489   2.792   1.564  0.1813 -0.1530  0.0488
 3377TIP3    H131690   1.448   2.807   1.649 -0.1737 -0.2343 -0.1012
 3377TIP3    H231691   1.560   2.855   1.559 -0.4629  0.5783 -0.0356
 3378TIP3   OH231692   6.148   2.799   6.916  0.1925  0.3206 -0.0848
 3378TIP3    H131693   6.118   2.852   6.989 -0.3215  0.2696 -0.2539
 3378TIP3    H231694   6.145   2.709   6.949 -0.8126  0.2214 -0.4170
 3379TIP3   OH231695   2.561   0.982   2.046  0.5926 -0.0859  0.0806
 3379TIP3    H131696   2.471   0.973   2.077  0.7212 -1.7757  0.0695
 3379TIP3    H231697   2.590   0.892   2.032  1.9177  0.4816 -0.9938
 3380TIP3   OH231698   0.906   4.404   7.283  0.3226  0.7675  0.2052
 3380TIP3    H131699   0.876   4.436   7.369 -0.8503 -0.3155  0.2315
 3380TIP3    H231700   0.974   4.340   7.305  1.6621  2.1112  0.2007
 3381TIP3   OH231701   6.826   3.529   1.423 -0.1090 -0.6500 -0.3672
 3381TIP3    H131702   6.922   3.524   1.418  0.2990  2.6078  1.2382
 3381TIP3    H231703   6.800   3.579   1.346 -0.5870 -1.7477 -0.9353
 3382TIP3   OH231704   1.323   6.410   1.338  0.1327 -0.4577  1.3236
 3382TIP3    H131705   1.299   6.324   1.303 -1.6880  1.4123 -2.6258
 3382TIP3    H231706   1.414   6.421   1.312 -0.4599 -0.1425 -0.8365
 3383TIP3   OH231707   5.707   4.260   0.728  0.3395 -0.1590  0.0413
 3383TIP3    H131708   5.686   4.210   0.807 -0.4077  0.8541  0.5163
 3383TIP3    H231709   5.686   4.201   0.656  0.1909 -0.7922  0.5936
 3384TIP3   OH231710   5.105   6.010   1.562 -0.9687 -0.0443  0.6141
 3384TIP3    H131711   5.031   6.050   1.608 -1.1647  0.3551 -0.0249
 3384TIP3    H231712   5.155   5.965   1.630 -1.7165 -0.1898  1.0775
 3385TIP3   OH231713   1.643   6.017   6.519 -0.2289  0.3972 -0.0425
 3385TIP3    H131714   1.679   5.978   6.440 -0.8056  1.2374 -0.7300
 3385TIP3    H231715   1.551   6.032   6.499  0.3211  3.9067 -0.5738
 3386TIP3   OH231716   1.457   2.722   6.514 -0.2517  0.4634  0.1681
 3386TIP3    H131717   1.384   2.670   6.547 -0.3945  0.7946  0.3812
 3386TIP3    H231718   1.431   2.813   6.531  2.0084  0.5660  4.1849
 3387TIP3   OH231719   2.638   6.467   7.279  0.5663 -0.2240 -0.2660
 3387TIP3    H131720   2.550   6.429   7.287 -0.4103  1.7269 -0.8682
 3387TIP3    H231721   2.693   6.412   7.334 -0.5723 -2.8079 -1.5057
 3388TIP3   OH231722   5.789   3.910   0.967 -0.1727  0.1418  0.4176
 3388TIP3    H131723   5.756   3.862   1.043  1.2648  1.7666  2.1752
 3388TIP3    H231724   5.730   3.985   0.959 -0.2878  0.0039 -0.0774
 3389TIP3   OH231725   0.911   3.404   7.912  0.8659  0.2437 -0.5546
 3389TIP3    H131726   0.942   3.484   7.954  1.8469  0.3707 -1.4633
 3389TIP3    H231727   0.884   3.347   7.984  0.0528  1.4161  0.1037
 3390TIP3   OH231728   1.235   2.990   6.574 -0.4497  0.2523  0.0672
 3390TIP3    H131729   1.171   2.920   6.579 -2.4207  1.8711 -0.9470
 3390TIP3    H231730   1.294   2.975   6.647 -0.4559 -2.7284 -0.4272
 3391TIP3   OH231731   6.541   4.807   8.410  0.1201 -0.3531 -0.2264
 3391TIP3    H131732   6.578   4.760   8.335 -0.7010 -0.0541 -0.8293
 3391TIP3    H231733   6.605   4.794   8.480 -0.4402 -3.0357 -0.1156
 3392TIP3   OH231734   4.469   3.652   7.353  0.0877  0.1343 -0.3625
 3392TIP3    H131735   4.378   3.662   7.326  0.2551  0.0809 -0.9644
 3392TIP3    H231736   4.489   3.733   7.401 -0.6211 -0.3605  0.8134
 3393TIP3   OH231737   3.429   1.859   8.407  0.0545 -0.1103 -0.6738
 3393TIP3    H131738   3.474   1.839   8.324  0.3007 -0.3481 -0.4857
 3393TIP3    H231739   3.388   1.944   8.392  1.0221  0.3725 -0.6689
 3394TIP3   OH231740   0.316   6.075   1.102 -0.4928 -0.3543  0.0664
 3394TIP3    H131741   0.369   6.059   1.180 -0.0516 -0.1241 -0.1769
 3394TIP3    H231742   0.226   6.065   1.131 -0.2822 -2.4039  0.1375
 3395TIP3   OH231743   0.618   6.852   7.721 -0.1149 -0.9522  0.0537
 3395TIP3    H131744   0.555   6.795   7.766 -0.5875 -1.6119 -1.3835
 3395TIP3    H231745   0.614   6.825   7.630 -0.7877  1.7513 -0.8301
 3396TIP3   OH231746   1.923   2.459   0.434 -0.8574  0.3097 -0.7979
 3396TIP3    H131747   1.964   2.454   0.347 -2.6749 -1.5492 -1.6135
 3396TIP3    H231748   1.942   2.374   0.474 -1.1201  0.6847  0.1380
 3397TIP3   OH231749   4.986   6.646   1.058  0.3448 -0.1450  0.4107
 3397TIP3    H131750   4.897   6.611   1.053  0.1389  0.5629 -1.6297
 3397TIP3    H231751   5.043   6.568   1.058 -0.2214 -0.5648  0.5653
 3398TIP3   OH231752   5.587   6.163   0.601 -0.0777  0.0665  0.5686
 3398TIP3    H131753   5.570   6.190   0.691  0.9448  1.2718  0.4290
 3398TIP3    H231754   5.502   6.167   0.557 -0.3112  0.9758  1.0999
 3399TIP3   OH231755   6.050   5.057   0.455 -0.1350 -0.4021 -0.0286
 3399TIP3    H131756   6.084   5.127   0.399  2.0524 -1.1594  0.2207
 3399TIP3    H231757   6.010   5.103   0.529  1.0776  0.6353  0.0354
 3400TIP3   OH231758   1.345   5.340   7.037 -0.2117 -0.0185  0.0398
 3400TIP3    H131759   1.439   5.318   7.040 -0.3997 -0.9511 -0.3633
 3400TIP3    H231760   1.339   5.415   6.979  0.5122  1.4494  1.7489
 3401TIP3   OH231761   5.639   4.975   0.524  0.1230 -0.1791 -0.6985
 3401TIP3    H131762   5.544   4.973   0.527  0.1300 -0.7365 -0.9111
 3401TIP3    H231763   5.667   4.926   0.601  0.2381 -1.6705 -1.6584
 3402TIP3   OH231764   2.792   3.299   1.223 -0.1761 -0.1763 -0.1558
 3402TIP3    H131765   2.887   3.299   1.238 -0.2287  0.4647  0.2274
 3402TIP3    H231766   2.780   3.248   1.143  0.5740  0.4594 -0.6949
 3403TIP3   OH231767   2.771   3.200   7.247  0.3310 -0.3357  0.4187
 3403TIP3    H131768   2.865   3.212   7.233  0.3320  0.2471  0.8447
 3403TIP3    H231769   2.761   3.109   7.272  0.7870 -0.3990  0.3704
 3404TIP3   OH231770   4.887   0.181   2.030  0.0803 -0.3211  0.3167
 3404TIP3    H131771   4.897   0.238   1.954  1.1489 -0.8796  0.0080
 3404TIP3    H231772   4.839   0.105   1.997 -0.6000  0.0168  0.5216
 3405TIP3   OH231773   0.023   5.508   6.777 -0.2101  0.8961 -0.1545
 3405TIP3    H131774   0.000   5.600   6.791  0.9203  1.2909 -0.7901
 3405TIP3    H231775  -0.044   5.477   6.716 -0.0887  1.5494 -0.6392
 3406TIP3   OH231776   2.474   3.483   1.518 -0.2080 -0.1551 -0.2509
 3406TIP3    H131777   2.528   3.506   1.443  0.0901  1.2739  0.3552
 3406TIP3    H231778   2.385   3.480   1.483 -0.1603  1.1929 -0.5674
 3407TIP3   OH231779   6.469   4.865   1.192  0.4052 -0.2848 -0.5601
 3407TIP3    H131780   6.428   4.851   1.106 -0.1763 -0.3224 -0.2860
 3407TIP3    H231781   6.471   4.777   1.232  1.1925 -0.3575 -0.7600
 3408TIP3   OH231782   1.716   0.930   6.812 -0.1540  0.0681 -0.4306
 3408TIP3    H131783   1.785   0.881   6.857  0.3790  0.8753 -0.3304
 3408TIP3    H231784   1.638   0.876   6.819  0.4774 -0.8726 -0.5474
 3409TIP3   OH231785   2.369   5.739   0.421 -0.3713 -0.3787 -0.4882
 3409TIP3    H131786   2.381   5.696   0.506  0.0679 -0.5989 -0.6588
 3409TIP3    H231787   2.304   5.807   0.438 -0.6313 -0.7236 -0.0811
 3410TIP3   OH231788   3.664   0.809   1.348 -0.9131 -0.1871 -0.4307
 3410TIP3    H131789   3.714   0.728   1.362 -0.9576  0.3282  4.4305
 3410TIP3    H231790   3.725   0.879   1.372 -2.9612  0.6002  3.1996
 3411TIP3   OH231791   6.043   4.153   1.516  0.6211 -0.5573  0.1317
 3411TIP3    H131792   6.106   4.083   1.501  0.9824 -0.5517  1.4775
 3411TIP3    H231793   6.051   4.210   1.439  1.2919 -1.2650 -0.3325
 3412TIP3   OH231794   0.270   3.061   7.730  0.2534 -0.5791  0.5390
 3412TIP3    H131795   0.350   3.106   7.701  0.4865 -2.3480 -1.8862
 3412TIP3    H231796   0.199   3.118   7.703  0.6423  0.5024  1.7395
 3413TIP3   OH231797   5.492   0.299   1.363 -0.3797  0.1583  0.3728
 3413TIP3    H131798   5.529   0.255   1.439 -0.0816  0.8940  0.6672
 3413TIP3    H231799   5.443   0.231   1.317  3.2345 -1.5614 -1.3689
 3414TIP3   OH231800   3.301   0.095   8.714 -0.3398 -0.3011 -0.3047
 3414TIP3    H131801   3.270   0.079   8.625  0.8396  1.3806 -1.0802
 3414TIP3    H231802   3.274   0.184   8.733 -2.5027 -1.3339  1.9419
 3415TIP3   OH231803   5.456   1.265   1.254 -0.3245  0.7531 -0.1273
 3415TIP3    H131804   5.515   1.213   1.199 -0.3441  0.0234  0.5272
 3415TIP3    H231805   5.505   1.345   1.273  0.5585  0.0722  0.5849
 3416TIP3   OH231806   0.606   3.701   7.920  0.2635 -0.0522 -0.3802
 3416TIP3    H131807   0.656   3.751   7.985  0.4812  0.9276 -1.2772
 3416TIP3    H231808   0.665   3.694   7.845  0.2515 -1.7044 -0.2851
 3417TIP3   OH231809   3.040   3.775   8.436 -0.5481  0.3081 -0.8571
 3417TIP3    H131810   3.052   3.696   8.489 -1.5970 -0.3523 -1.5729
 3417TIP3    H231811   3.020   3.742   8.348  1.9650  1.3781 -1.9257
 3418TIP3   OH231812   3.448   4.908   7.171 -0.0698  0.3829 -0.2869
 3418TIP3    H131813   3.379   4.859   7.216  0.6362 -0.9597 -0.5842
 3418TIP3    H231814   3.438   4.884   7.079  0.8014  0.1271 -0.3282
 3419TIP3   OH231815   5.144   1.840   7.047 -0.9166 -0.0504  0.2706
 3419TIP3    H131816   5.132   1.802   7.134  0.3706 -0.3331  0.3322
 3419TIP3    H231817   5.064   1.891   7.033 -1.3208 -0.3205  1.4466
 3420TIP3   OH231818   1.480   6.750   1.495  0.4126  0.0179  0.2236
 3420TIP3    H131819   1.409   6.758   1.432  0.6854  2.6784  0.1263
 3420TIP3    H231820   1.436   6.733   1.579 -0.2597  0.5960 -0.0078
 3421TIP3   OH231821   6.004   5.450   7.852 -0.1161 -0.1279 -0.0084
 3421TIP3    H131822   6.082   5.399   7.831  0.4816  0.7906 -0.1050
 3421TIP3    H231823   6.029   5.503   7.929 -1.8752 -2.5570  2.4306
 3422TIP3   OH231824   6.162   4.245   6.926 -0.0127  0.1964 -0.0668
 3422TIP3    H131825   6.201   4.158   6.933 -0.3593 -0.0098 -0.6316
 3422TIP3    H231826   6.102   4.239   6.851 -1.5784  0.3296  1.1237
 3423TIP3   OH231827   5.303   6.086   0.597  0.2091  0.3283 -0.0828
 3423TIP3    H131828   5.356   6.024   0.647 -0.3778 -0.3251 -0.2467
 3423TIP3    H231829   5.214   6.073   0.630  0.1754  1.5787  0.3542
 3424TIP3   OH231830   2.222   3.654   6.015  0.6292 -0.8128 -0.0473
 3424TIP3    H131831   2.148   3.594   6.005 -0.5419  0.5619  0.1512
 3424TIP3    H231832   2.246   3.647   6.108 -0.2055 -0.2006  0.2267
 3425TIP3   OH231833   5.899   4.392   1.021 -0.2968  0.4884 -0.2176
 3425TIP3    H131834   5.825   4.332   1.016  0.8257 -0.8923 -1.0628
 3425TIP3    H231835   5.974   4.336   1.041  0.8072  1.5912 -1.1167
 3426TIP3   OH231836   0.732   0.442   2.361 -0.1034  0.4468 -0.3189
 3426TIP3    H131837   0.640   0.464   2.370  0.0268  0.4572  1.3265
 3426TIP3    H231838   0.732   0.351   2.330 -0.6366  1.0266 -2.1120
 3427TIP3   OH231839   4.453   1.205   6.598  0.0525  0.2103  0.6534
 3427TIP3    H131840   4.516   1.138   6.624 -1.9349 -2.0760 -0.0302
 3427TIP3    H231841   4.474   1.224   6.507  0.9273  0.9028  0.9926
 3428TIP3   OH231842   2.294   1.820   0.357  0.2552 -0.0804 -0.4202
 3428TIP3    H131843   2.335   1.773   0.284 -0.4172  0.0783 -0.9153
 3428TIP3    H231844   2.201   1.823   0.334 -0.3756 -2.0145  1.5352
 3429TIP3   OH231845   0.959   3.862   0.181  0.8809  0.7402 -0.0036
 3429TIP3    H131846   0.876   3.898   0.214  0.1391 -1.3410  0.6265
 3429TIP3    H231847   0.951   3.868   0.086 -1.6514 -2.4808 -0.1880
 3430TIP3   OH231848   4.994   0.581   8.281 -0.3861  0.0725 -0.2600
 3430TIP3    H131849   4.909   0.546   8.254 -0.3345 -1.2220  1.1188
 3430TIP3    H231850   5.000   0.666   8.237 -1.3719 -0.8001 -2.2115
 3431TIP3   OH231851   1.464   1.320   0.390  0.7614  0.5707  0.4388
 3431TIP3    H131852   1.520   1.351   0.319 -0.1923  0.5294 -0.3515
 3431TIP3    H231853   1.431   1.236   0.359  0.2766  0.5910  0.8999
 3432TIP3   OH231854   5.992   4.319   7.347  0.1127  0.3642  0.6369
 3432TIP3    H131855   6.015   4.357   7.262 -0.8544  0.1729  0.2797
 3432TIP3    H231856   6.061   4.350   7.406  0.2276  1.3647  0.0105
 3433TIP3   OH231857   3.115   3.056   8.260  0.1026 -0.1285 -0.3611
 3433TIP3    H131858   3.193   3.001   8.267  0.5208  0.6359  2.1338
 3433TIP3    H231859   3.109   3.077   8.167  1.3343 -2.3457 -1.0120
 3434TIP3   OH231860   4.111   0.101   8.483 -0.1666  0.1119 -0.1044
 3434TIP3    H131861   4.195   0.141   8.459  0.9803 -1.7647  0.5470
 3434TIP3    H231862   4.071   0.078   8.399  0.7492 -0.4696 -0.3999
 3435TIP3   OH231863   2.302   0.593   6.596  1.1142  0.0830 -0.0142
 3435TIP3    H131864   2.234   0.654   6.624  1.7548  1.1373 -0.6665
 3435TIP3    H231865   2.385   0.637   6.617  1.5956 -0.0399 -1.4788
 3436TIP3   OH231866   4.952   1.770   1.063 -0.7793 -0.3414 -0.6041
 3436TIP3    H131867   4.946   1.698   1.126  1.0643 -1.0523 -1.1842
 3436TIP3    H231868   4.890   1.835   1.097 -1.0533 -1.3604  1.0261
 3437TIP3   OH231869   5.231   6.362   8.150  0.1705  0.5760 -0.1381
 3437TIP3    H131870   5.161   6.351   8.213 -0.1694  2.1823 -0.1964
 3437TIP3    H231871   5.312   6.351   8.201 -0.0314 -2.6312 -0.3191
 3438TIP3   OH231872   3.235   5.458   6.861  0.0803 -0.2108 -0.1961
 3438TIP3    H131873   3.283   5.432   6.783  1.2813 -0.4135  0.5762
 3438TIP3    H231874   3.269   5.400   6.930  0.1019  0.9250  0.7797
 3439TIP3   OH231875   6.293   5.567   7.149  0.1193 -0.1602  0.5958
 3439TIP3    H131876   6.248   5.648   7.124 -0.5764 -0.9601 -0.8718
 3439TIP3    H231877   6.255   5.544   7.235 -2.1759 -0.6662 -0.4592
 3440TIP3   OH231878   3.293   3.033   2.220  0.3727  0.6127 -0.1037
 3440TIP3    H131879   3.341   3.115   2.210 -0.5765  1.1660 -0.1946
 3440TIP3    H231880   3.227   3.051   2.287 -0.4013  0.1955 -0.7373
 3441TIP3   OH231881   1.000   3.752   7.081 -0.1808  0.4833  0.7607
 3441TIP3    H131882   0.938   3.717   7.017  0.6997 -0.4502  0.3921
 3441TIP3    H231883   1.081   3.704   7.065  0.3930  1.0570  1.8136
 3442TIP3   OH231884   5.526   0.405   7.349  0.2668  0.6474  0.6974
 3442TIP3    H131885   5.492   0.320   7.378  2.6201 -0.4311  0.5067
 3442TIP3    H231886   5.454   0.444   7.300 -1.1175 -0.9324  1.3867
 3443TIP3   OH231887   4.735   4.741   1.327  0.1672  0.1778 -0.2125
 3443TIP3    H131888   4.694   4.797   1.261  1.0117  2.1936  0.8780
 3443TIP3    H231889   4.826   4.733   1.299  0.4841  0.8817  0.5629
 3444TIP3   OH231890   6.502   4.236   8.278  0.0244  0.4444 -0.6672
 3444TIP3    H131891   6.460   4.209   8.360  1.8551  0.1567  0.2253
 3444TIP3    H231892   6.516   4.154   8.230  0.0093  0.4837 -0.7380
 3445TIP3   OH231893   4.736   2.192   8.218 -0.5511 -0.0584  0.2794
 3445TIP3    H131894   4.725   2.266   8.158  0.1158 -0.0029  0.2229
 3445TIP3    H231895   4.755   2.232   8.302  0.4377 -0.1614  0.1214
 3446TIP3   OH231896   3.425   3.845   1.441 -0.5571 -0.1520 -0.1405
 3446TIP3    H131897   3.451   3.850   1.349 -0.2334 -1.0241 -0.1125
 3446TIP3    H231898   3.406   3.935   1.467  0.0522  0.1869 -0.8606
 3447TIP3   OH231899   0.017   4.306   7.229 -0.3044 -0.6505  0.2619
 3447TIP3    H131900   0.089   4.357   7.191 -0.7711 -0.6363 -0.6174
 3447TIP3    H231901  -0.055   4.369   7.237 -0.5608 -0.9287  0.1360
 3448TIP3   OH231902   1.544   4.512   8.493  0.9465  0.0508 -0.2315
 3448TIP3    H131903   1.542   4.479   8.583 -4.9449 -0.6231 -0.2454
 3448TIP3    H231904   1.503   4.443   8.442  0.8881  1.8783 -2.8227
 3449TIP3   OH231905   6.824   6.391   1.303  0.6375  0.4230  0.0202
 3449TIP3    H131906   6.843   6.483   1.319  1.7475  0.0430  1.0075
 3449TIP3    H231907   6.904   6.356   1.263  0.1474 -0.0719 -0.5559
 3450TIP3   OH231908   0.723   2.296   8.030 -0.0493 -0.1365  0.0842
 3450TIP3    H131909   0.703   2.379   8.074 -2.6870  0.1785 -1.4511
 3450TIP3    H231910   0.713   2.230   8.099  0.1010  0.6499  0.8839
 3451TIP3   OH231911   1.532   2.284   6.052  0.0913 -0.1714 -0.6269
 3451TIP3    H131912   1.483   2.232   5.988 -2.4871  0.6160  0.5350
 3451TIP3    H231913   1.504   2.374   6.036  1.0830  0.3057  0.2172
 3452TIP3   OH231914   1.833   5.693   7.171 -0.3620  0.6357  0.0262
 3452TIP3    H131915   1.881   5.764   7.128  1.5886 -0.8654 -0.4175
 3452TIP3    H231916   1.745   5.697   7.133  0.3931  1.3477 -1.7833
 3453TIP3   OH231917   4.539   3.994   1.057  0.3487 -0.1544  0.4282
 3453TIP3    H131918   4.619   3.986   1.109  2.0405 -0.2879 -2.0315
 3453TIP3    H231919   4.471   4.017   1.121  2.4445  0.6138  2.5226
 3454TIP3   OH231920   6.570   1.651   6.931  0.1082  0.0071 -0.0074
 3454TIP3    H131921   6.490   1.699   6.950 -0.1101 -0.3343 -0.0572
 3454TIP3    H231922   6.638   1.718   6.925  0.0996  0.1771  1.5177
 3455TIP3   OH231923   6.815   2.337   8.085 -0.0131 -0.0206  0.0794
 3455TIP3    H131924   6.763   2.416   8.102  1.3206  1.1957 -1.1391
 3455TIP3    H231925   6.769   2.293   8.013 -0.3793  0.0369  0.2785
 3456TIP3   OH231926   1.598   4.758   6.852 -0.3958  0.0987  0.1500
 3456TIP3    H131927   1.685   4.774   6.817 -0.4865 -1.0123 -0.6275
 3456TIP3    H231928   1.570   4.676   6.812 -1.8039  0.4349  0.3758
 3457TIP3   OH231929   5.586   0.522   7.039 -0.0847  0.0194 -0.4562
 3457TIP3    H131930   5.651   0.482   7.097 -1.7328 -0.5931  1.0393
 3457TIP3    H231931   5.513   0.460   7.038 -0.5885  0.5963 -2.2535
 3458TIP3   OH231932   3.259   2.825   6.616 -0.0912 -0.4543 -0.1682
 3458TIP3    H131933   3.251   2.730   6.608  1.9573 -0.6347 -0.5841
 3458TIP3    H231934   3.252   2.857   6.526 -1.5370 -0.0951  0.0386
 3459TIP3   OH231935   1.092   6.806   1.128  0.2892 -0.5545  0.1397
 3459TIP3    H131936   1.107   6.825   1.036 -1.3515 -1.3161 -0.3204
 3459TIP3    H231937   1.160   6.743   1.151  0.6425 -0.4424 -0.5761
 3460TIP3   OH231938   3.978   3.572   1.379  0.1110  0.1870  0.3550
 3460TIP3    H131939   4.003   3.527   1.459 -0.1718  0.0917  0.3901
 3460TIP3    H231940   3.889   3.542   1.361  1.5867 -3.1499 -2.3501
 3461TIP3   OH231941   1.209   3.600   1.484 -0.2583  0.6993  0.0535
 3461TIP3    H131942   1.166   3.564   1.561  0.5576  3.1229  1.7352
 3461TIP3    H231943   1.193   3.694   1.488  4.7920  1.8163  0.6749
 3462TIP3   OH231944   3.842   2.748   7.126 -0.1855 -0.5314  0.3205
 3462TIP3    H131945   3.784   2.769   7.199 -0.4116  0.0691 -0.0318
 3462TIP3    H231946   3.793   2.774   7.048  0.6072  0.0882  0.0240
 3463TIP3   OH231947   0.753   0.947   0.424  0.2242 -0.6699 -0.3900
 3463TIP3    H131948   0.723   0.932   0.513 -0.3735 -0.4015 -0.5411
 3463TIP3    H231949   0.770   0.860   0.389  0.9752 -0.7528  0.1524
 3464TIP3   OH231950   0.393   2.855   6.781 -0.3200  0.5038  0.0529
 3464TIP3    H131951   0.466   2.880   6.724 -1.5010  1.7808 -0.9757
 3464TIP3    H231952   0.355   2.778   6.739  0.3517 -0.1067  0.5396
 3465TIP3   OH231953   5.678   5.961   7.771  0.3057 -0.2673  0.1957
 3465TIP3    H131954   5.769   5.934   7.783  0.0764 -0.9275  0.5164
 3465TIP3    H231955   5.648   5.985   7.859  0.7644  1.9873 -0.1878
 3466TIP3   OH231956   5.605   3.381   1.891  0.1056 -0.4485 -0.6581
 3466TIP3    H131957   5.563   3.370   1.977  0.0838 -0.3833 -0.6601
 3466TIP3    H231958   5.559   3.319   1.834 -0.7295  0.3846 -0.9224
 3467TIP3   OH231959   4.222   4.422   7.291  0.7562  0.2969 -0.1161
 3467TIP3    H131960   4.237   4.336   7.251  1.1970 -0.4067  1.4604
 3467TIP3    H231961   4.127   4.432   7.291  0.7274  0.0513 -0.7957
 3468TIP3   OH231962   2.222   2.228   0.318  0.2477 -0.6824  0.0454
 3468TIP3    H131963   2.263   2.242   0.403 -0.5412 -0.3991  0.3928
 3468TIP3    H231964   2.134   2.197   0.339 -0.6139  1.1725 -0.6214
 3469TIP3   OH231965   2.798   5.908   1.612  0.0762 -0.4481  0.4497
 3469TIP3    H131966   2.722   5.886   1.666 -1.4144  0.8866 -0.9869
 3469TIP3    H231967   2.839   5.982   1.658 -1.4463  0.9820 -0.4026
 3470TIP3   OH231968   6.710   2.319   7.342  0.4287 -0.4281  0.4627
 3470TIP3    H131969   6.725   2.390   7.279 -1.6099 -0.2629  0.1082
 3470TIP3    H231970   6.733   2.357   7.427  1.2041  0.0176  0.0648
 3471TIP3   OH231971   4.607   1.727   1.995 -0.0903  0.3019 -0.6870
 3471TIP3    H131972   4.518   1.749   2.022  0.5829  1.3963  0.8591
 3471TIP3    H231973   4.597   1.677   1.914 -2.0531  1.0987 -0.9841
 3472TIP3   OH231974   3.928   0.064   1.540 -0.1438 -0.5484 -0.3389
 3472TIP3    H131975   4.008   0.060   1.488 -1.5452 -1.5747 -2.6208
 3472TIP3    H231976   3.913  -0.026   1.568  0.0172 -0.1819  1.0069
 3473TIP3   OH231977   0.813   4.451   7.810 -0.1778  0.1210  0.5715
 3473TIP3    H131978   0.730   4.477   7.851 -1.5150  0.8676 -2.3640
 3473TIP3    H231979   0.861   4.533   7.800 -0.0983  0.0253  0.1680
 3474TIP3   OH231980   3.225   4.560   1.730  0.1088 -0.2146 -0.6981
 3474TIP3    H131981   3.282   4.491   1.764  0.3312  0.2144 -0.1939
 3474TIP3    H231982   3.195   4.608   1.807  1.1511  1.1925 -1.1184
 3475TIP3   OH231983   5.923   0.266   1.410  0.2500  0.3017  0.7205
 3475TIP3    H131984   5.997   0.253   1.351 -0.3930  1.9800 -0.5385
 3475TIP3    H231985   5.871   0.334   1.368 -1.8390 -0.5815  1.7446
 3476TIP3   OH231986   2.632   4.269   6.253  0.6061  0.5624 -0.4563
 3476TIP3    H131987   2.641   4.260   6.158 -0.3362 -0.6490 -0.4512
 3476TIP3    H231988   2.548   4.228   6.273  1.5650 -0.7362  1.1208
 3477TIP3   OH231989   3.952   2.769   0.773 -0.1560  0.6323 -0.1053
 3477TIP3    H131990   3.862   2.738   0.777  0.5743 -2.3360 -2.5554
 3477TIP3    H231991   3.979   2.777   0.864 -2.1256 -0.9138  0.6857
 3478TIP3   OH231992   6.295   3.815   6.650 -0.1403  0.4438 -0.4258
 3478TIP3    H131993   6.367   3.780   6.597 -0.0572  1.4389 -0.9952
 3478TIP3    H231994   6.337   3.847   6.730  0.5749  3.5602 -1.8698
 3479TIP3   OH231995   4.952   3.568   2.208  0.4892  0.2335  0.2212
 3479TIP3    H131996   5.000   3.488   2.229  1.9474  0.8272 -0.7335
 3479TIP3    H231997   4.909   3.592   2.291 -1.5108 -2.4596  0.1459
 3480TIP3   OH231998   1.744   3.630   7.288 -0.4829  0.6840 -0.2924
 3480TIP3    H131999   1.810   3.622   7.219 -0.0541  0.2172  0.1570
 3480TIP3    H232000   1.691   3.551   7.279  0.6090 -0.2302  0.9499
 3481TIP3   OH232001   4.936   0.092   7.449  0.5407  0.0908  1.1298
 3481TIP3    H132002   4.895   0.161   7.502 -0.4063  1.1261 -0.8518
 3481TIP3    H232003   4.949   0.020   7.510 -1.8824  0.6623  2.4500
 3482TIP3   OH232004   0.494   6.326   1.134 -0.1691  0.0326 -0.3089
 3482TIP3    H132005   0.575   6.300   1.176 -0.0300  0.7911 -0.0859
 3482TIP3    H232006   0.501   6.292   1.045 -0.4448 -1.5415  0.2325
 3483TIP3   OH232007   1.187   0.287   8.111  0.2521  0.5851 -0.2070
 3483TIP3    H132008   1.116   0.224   8.098 -0.1975  0.6717  1.6257
 3483TIP3    H232009   1.264   0.234   8.132  0.3325  0.5797 -0.5004
 3484TIP3   OH232010   1.438   4.917   8.678 -0.0130  0.2090 -0.1024
 3484TIP3    H132011   1.503   4.878   8.620  0.8732 -0.2659  1.1580
 3484TIP3    H232012   1.489   4.970   8.739 -1.1710  3.5366 -1.8031
 3485TIP3   OH232013   3.214   1.707   8.468  0.2658  0.3633 -0.5421
 3485TIP3    H132014   3.293   1.758   8.453  0.3335 -0.0900 -1.9146
 3485TIP3    H232015   3.196   1.665   8.384 -1.9448  1.1633 -0.5483
 3486TIP3   OH232016   1.111   3.283   1.317 -0.3950  0.6313  0.1116
 3486TIP3    H132017   1.043   3.344   1.346 -2.0814 -0.6359 -0.9917
 3486TIP3    H232018   1.184   3.339   1.291  0.0176  1.9532  3.6339
 3487TIP3   OH232019   0.108   0.353   7.508 -0.2791 -0.0209 -0.0136
 3487TIP3    H132020   0.035   0.298   7.479  0.5150 -1.2652  0.2247
 3487TIP3    H232021   0.182   0.292   7.515  0.2682  0.7769  1.7714
 3488TIP3   OH232022   0.905   3.508   8.617  0.5546 -0.2328  0.0843
 3488TIP3    H132023   0.827   3.461   8.588 -1.0635  2.0674  0.4530
 3488TIP3    H232024   0.934   3.558   8.541 -0.5870  1.7390  0.8528
 3489TIP3   OH232025   2.980   3.009   8.500 -0.8665 -0.6026 -0.0333
 3489TIP3    H132026   3.043   3.008   8.428  1.0170 -1.5376  1.5565
 3489TIP3    H232027   2.934   2.926   8.492 -2.8295  0.5311 -1.8551
 3490TIP3   OH232028   6.707   2.205   7.870 -0.5366  0.6816 -0.8753
 3490TIP3    H132029   6.729   2.154   7.792 -0.9227  0.7122 -1.0082
 3490TIP3    H232030   6.634   2.261   7.843 -0.8501  0.5013 -0.4176
 3491TIP3   OH232031   4.309   1.577   7.736  0.3727 -0.1758 -0.7072
 3491TIP3    H132032   4.355   1.570   7.819  1.1867  0.0459 -1.1215
 3491TIP3    H232033   4.316   1.490   7.696 -2.3153 -1.0808  0.5793
 3492TIP3   OH232034   5.054   3.828   7.274 -0.3168 -0.1591 -0.4774
 3492TIP3    H132035   5.113   3.766   7.318 -0.9735  0.8104  1.9544
 3492TIP3    H232036   5.097   3.913   7.286 -1.4244  0.3544 -0.0514
 3493TIP3   OH232037   4.491   5.463   1.416 -0.2555 -0.5832  0.4158
 3493TIP3    H132038   4.552   5.530   1.386  0.3352 -1.6329 -0.8462
 3493TIP3    H232039   4.499   5.464   1.511  1.0265 -0.0344  0.3216
 3494TIP3   OH232040   5.328   3.823   7.848  0.6922 -0.2469  0.0948
 3494TIP3    H132041   5.379   3.886   7.798 -1.9089  0.4474 -1.9441
 3494TIP3    H232042   5.256   3.800   7.790  0.6503 -3.9529  1.3770
 3495TIP3   OH232043   1.982   1.481   0.552  0.2623 -0.1130 -0.8632
 3495TIP3    H132044   1.921   1.468   0.624 -0.7916  0.0634 -1.6910
 3495TIP3    H232045   1.981   1.398   0.504  0.0495  0.1478 -1.3258
 3496TIP3   OH232046   2.279   2.819   1.095 -0.2036  0.6260 -0.6138
 3496TIP3    H132047   2.269   2.763   1.172  1.4413 -1.4751 -1.8407
 3496TIP3    H232048   2.214   2.888   1.108 -0.3241  0.0964  2.3996
 3497TIP3   OH232049   5.563   3.524   7.434  0.0230 -0.5373 -0.8778
 3497TIP3    H132050   5.580   3.525   7.339  0.1034  2.0648 -0.9250
 3497TIP3    H232051   5.649   3.537   7.474 -0.3414  1.7616 -0.6669
 3498TIP3   OH232052   4.108   0.316   7.581 -0.3129  0.0662 -0.5526
 3498TIP3    H132053   4.131   0.227   7.607  0.4757  0.0816 -1.1401
 3498TIP3    H232054   4.021   0.308   7.541 -0.5197 -0.3306 -0.0252
 3499TIP3   OH232055   6.805   0.383   0.286  0.0328  0.8531 -0.1143
 3499TIP3    H132056   6.749   0.442   0.336  0.1334  2.7875 -2.1085
 3499TIP3    H232057   6.826   0.432   0.206  2.0997 -0.9905 -0.8060
 3500TIP3   OH232058   3.620   3.394   7.043  0.0687  0.6344 -0.6736
 3500TIP3    H132059   3.549   3.356   6.992 -0.2221  0.7027 -0.3277
 3500TIP3    H232060   3.673   3.442   6.979 -1.5183  2.5799 -0.6166
 3501TIP3   OH232061   2.453   2.486   0.692  0.1019 -0.3820  0.0841
 3501TIP3    H132062   2.410   2.518   0.772  1.3493  0.9118  0.2919
 3501TIP3    H232063   2.384   2.444   0.643 -1.1373  0.5309  0.9666
 3502TIP3   OH232064   3.157   6.123   0.101 -0.1597  0.4355 -0.2106
 3502TIP3    H132065   3.207   6.042   0.107 -0.1962  0.3891 -0.5239
 3502TIP3    H232066   3.223   6.192   0.113 -0.1678  0.3541  0.2876
 3503TIP3   OH232067   3.898   0.554   1.978 -0.1778  0.3148 -0.1446
 3503TIP3    H132068   3.868   0.621   2.039 -1.5191 -0.5249  0.1681
 3503TIP3    H232069   3.972   0.594   1.933 -0.9697  2.0335 -0.0267
 3504TIP3   OH232070   3.086   1.791   7.986  0.4392  0.5747 -0.1946
 3504TIP3    H132071   3.035   1.872   7.992 -1.0203 -0.3347 -0.0231
 3504TIP3    H232072   3.063   1.755   7.900 -0.0236 -0.3577  0.3070
 3505TIP3   OH232073   1.003   6.643   0.586  0.3432 -1.0374 -0.1149
 3505TIP3    H132074   0.969   6.555   0.580 -1.5756 -0.2744 -1.1808
 3505TIP3    H232075   0.927   6.700   0.577  1.4493  0.7506  0.9921
 3506TIP3   OH232076   4.206   5.463   8.149 -0.4384 -0.5038  0.2258
 3506TIP3    H132077   4.153   5.484   8.226  1.7734  0.1126  1.6963
 3506TIP3    H232078   4.297   5.475   8.179  0.5318 -0.9321 -2.2956
 3507TIP3   OH232079   4.351   6.466   8.397 -0.0127 -0.7343  0.2515
 3507TIP3    H132080   4.329   6.395   8.337  0.5333 -0.8037  0.1222
 3507TIP3    H232081   4.268   6.492   8.436 -0.1685 -1.7251  0.6076
 3508TIP3   OH232082   3.926   5.814   8.369 -0.0651 -0.0222 -0.8136
 3508TIP3    H132083   3.831   5.812   8.361 -0.4297 -0.2821  2.1811
 3508TIP3    H232084   3.950   5.906   8.358 -1.0629  0.5061  0.9322
 3509TIP3   OH232085   0.546   3.493   8.151  0.3523  0.0799 -0.2297
 3509TIP3    H132086   0.543   3.472   8.058  1.1280 -0.3825 -0.1654
 3509TIP3    H232087   0.455   3.489   8.180  0.1010  0.2444 -0.9677
 3510TIP3   OH232088   6.568   5.401   7.837  0.2396 -0.6052 -0.2858
 3510TIP3    H132089   6.528   5.314   7.845  3.0996 -2.1747 -1.6472
 3510TIP3    H232090   6.644   5.399   7.894 -0.2826  1.5213  0.6031
 3511TIP3   OH232091   6.816   1.688   0.112  0.6408 -0.5572  0.5711
 3511TIP3    H132092   6.848   1.759   0.057 -1.1831  0.3350  0.5994
 3511TIP3    H232093   6.729   1.668   0.078  0.8811 -2.3962  0.9404
 3512TIP3   OH232094   6.541   5.945   8.249  0.3490  0.1407  0.2462
 3512TIP3    H132095   6.623   5.902   8.226 -0.4742 -0.3605 -2.0635
 3512TIP3    H232096   6.480   5.872   8.267 -0.9648  0.1425 -3.3725
 3513TIP3   OH232097   0.667   2.568   6.622 -0.2637 -0.2035  0.1455
 3513TIP3    H132098   0.722   2.573   6.700 -0.0890 -0.0011  0.0124
 3513TIP3    H232099   0.726   2.543   6.551  0.3513  2.8774 -0.6167
 3514TIP3   OH232100   3.251   0.165   0.302 -0.2660 -0.4110  0.6902
 3514TIP3    H132101   3.286   0.224   0.236 -0.5144 -0.6770  0.3198
 3514TIP3    H232102   3.283   0.200   0.385  0.0872 -0.1061  0.4256
 3515TIP3   OH232103   5.212   6.038   7.478 -0.0317 -0.9784  0.5611
 3515TIP3    H132104   5.238   5.989   7.556 -0.1612 -1.7068  0.1585
 3515TIP3    H232105   5.294   6.048   7.428  0.4870  1.2956  1.7250
 3516TIP3   OH232106   2.684   2.620   0.774  0.9107 -0.0921  0.3833
 3516TIP3    H132107   2.625   2.545   0.764 -0.4847  0.9571  0.4525
 3516TIP3    H232108   2.674   2.670   0.693  2.4802 -0.3812 -0.0308
 3517TIP3   OH232109   2.840   5.611   0.508  0.6050  0.0409 -0.5510
 3517TIP3    H132110   2.841   5.519   0.481  2.1728  0.0069 -0.4671
 3517TIP3    H232111   2.846   5.608   0.603 -0.3465  0.2348 -0.4736
 3518TIP3   OH232112   2.750   1.036   1.660 -0.3912 -0.0804 -0.0052
 3518TIP3    H132113   2.717   1.107   1.714 -0.2106 -0.0115  0.0167
 3518TIP3    H232114   2.727   0.956   1.708 -1.4705 -0.0895 -0.5163
 3519TIP3   OH232115   2.190   4.428   0.810 -0.6856  0.2406 -0.0353
 3519TIP3    H132116   2.174   4.398   0.720 -0.3905  0.3798 -0.1364
 3519TIP3    H232117   2.103   4.454   0.842 -0.9657 -0.8013  0.0932
 3520TIP3   OH232118   5.072   0.885   5.886 -0.4823  0.0393  0.0881
 3520TIP3    H132119   5.065   0.792   5.863 -0.0904  0.3785 -1.4892
 3520TIP3    H232120   5.098   0.885   5.978 -1.1671 -1.4028  0.3058
 3521TIP3   OH232121   2.075   1.574   6.731 -0.2531 -0.3611  0.2852
 3521TIP3    H132122   2.010   1.592   6.663 -0.0890  2.2137  0.7170
 3521TIP3    H232123   2.141   1.519   6.688 -1.2381 -0.5938 -0.9751
 3522TIP3   OH232124   4.674   6.798   8.575 -0.3377 -0.4192 -1.0920
 3522TIP3    H132125   4.769   6.793   8.590 -0.1429  0.8571 -1.6935
 3522TIP3    H232126   4.646   6.870   8.631 -0.7182  0.0620 -1.8859
 3523TIP3   OH232127   2.508   5.695   1.533 -0.3924  0.3297  0.2950
 3523TIP3    H132128   2.566   5.620   1.520  0.2055  0.9375 -0.6836
 3523TIP3    H232129   2.530   5.727   1.620  1.4898  1.1420 -0.4268
 3524TIP3   OH232130   6.637   3.490   0.641  0.4215 -0.1406  0.3491
 3524TIP3    H132131   6.596   3.414   0.682  0.9611 -0.7976 -0.3023
 3524TIP3    H232132   6.608   3.487   0.550  1.8624 -0.6071 -0.1184
 3525TIP3   OH232133   4.216   0.880   1.509  0.0480  0.0743  0.1165
 3525TIP3    H132134   4.203   0.826   1.431  0.6453 -0.8273  0.6318
 3525TIP3    H232135   4.223   0.970   1.475 -0.1040 -0.2605 -0.8222
 3526TIP3   OH232136   0.882   6.627   8.399  0.3985  0.1946 -0.0531
 3526TIP3    H132137   0.894   6.686   8.474  0.7263 -0.3625  0.3368
 3526TIP3    H232138   0.964   6.579   8.392  0.1035 -0.2831 -0.3120
 3527TIP3   OH232139   3.373   3.151   0.395 -0.0872 -0.0952  0.5177
 3527TIP3    H132140   3.320   3.085   0.349  0.0223 -0.9737  1.6087
 3527TIP3    H232141   3.313   3.224   0.410 -0.7902 -0.7824  1.0972
 3528TIP3   OH232142   4.916   1.574   7.082 -0.0364  0.3708 -0.5126
 3528TIP3    H132143   4.827   1.543   7.097  0.0915  0.8172  1.3992
 3528TIP3    H232144   4.912   1.669   7.097  0.7620  0.3820 -0.2840
 3529TIP3   OH232145   2.611   4.283   8.706 -0.8684  0.8488 -0.5944
 3529TIP3    H132146   2.655   4.228   8.640 -0.2264 -0.2708  0.7145
 3529TIP3    H232147   2.683   4.325   8.753 -1.2929  1.0030 -0.0810
 3530TIP3   OH232148   5.514   6.584   0.514  0.4309  0.6602  0.0552
 3530TIP3    H132149   5.579   6.651   0.536  2.1738 -0.8784 -0.1893
 3530TIP3    H232150   5.456   6.581   0.591  2.4166  0.0494  1.6238
 3531TIP3   OH232151   5.145   5.993   0.104 -0.0871  0.2651 -0.0211
 3531TIP3    H132152   5.201   5.935   0.156 -0.4917 -0.0827  0.0327
 3531TIP3    H232153   5.168   5.974   0.013  0.0304  0.2712  0.0073
 3532TIP3   OH232154   6.359   2.760   7.516  0.1163  0.1552  0.1628
 3532TIP3    H132155   6.355   2.665   7.519  2.5607 -0.0571 -1.0660
 3532TIP3    H232156   6.295   2.785   7.450 -0.8510 -0.5698  0.8003
 3533TIP3   OH232157   2.134   5.440   0.931 -0.3116  0.3862  0.0278
 3533TIP3    H132158   2.111   5.502   0.862 -0.2037  1.2634  0.7646
 3533TIP3    H232159   2.089   5.472   1.009 -1.3197 -1.1920  0.1519
 3534TIP3   OH232160   0.849   2.945   2.379  0.4216  0.3226 -0.0669
 3534TIP3    H132161   0.759   2.974   2.368  0.3670  0.5729  0.9504
 3534TIP3    H232162   0.902   3.012   2.337  0.1633  0.5088 -0.0952
 3535TIP3   OH232163   2.900   2.941   6.160  0.2075  0.6650  0.1871
 3535TIP3    H132164   2.979   2.994   6.170  1.1272 -0.6216  0.0298
 3535TIP3    H232165   2.835   3.000   6.122  1.8811  1.1175 -2.1860
 3536TIP3   OH232166   1.146   2.678   7.645 -0.5468  0.0915 -0.3348
 3536TIP3    H132167   1.167   2.747   7.582 -0.4945  0.0475 -0.3656
 3536TIP3    H232168   1.052   2.661   7.631 -0.3682 -0.4456 -0.9285
 3537TIP3   OH232169   5.503   6.600   0.937 -0.1831 -0.4434  0.1058
 3537TIP3    H132170   5.458   6.626   1.017 -0.6394 -0.2312 -0.2196
 3537TIP3    H232171   5.452   6.639   0.866 -0.5203 -1.6856 -0.3658
 3538TIP3   OH232172   2.824   0.715   7.240 -0.0578 -0.0199  0.5124
 3538TIP3    H132173   2.777   0.784   7.287  0.3910 -1.9614  4.1714
 3538TIP3    H232174   2.912   0.751   7.227 -0.0199  0.3828  1.7826
 3539TIP3   OH232175   4.616   2.180   0.905  0.0643  0.0071 -0.6523
 3539TIP3    H132176   4.546   2.188   0.969 -0.3807 -1.1705 -0.9567
 3539TIP3    H232177   4.590   2.237   0.833  0.0978  0.6130 -0.1857
 3540TIP3   OH232178   4.241   3.695   0.198 -0.4977  0.0344 -0.5349
 3540TIP3    H132179   4.305   3.666   0.133 -0.0579 -0.1565 -0.0266
 3540TIP3    H232180   4.294   3.734   0.268 -0.8861 -0.7857  0.2334
 3541TIP3   OH232181   0.395   6.677   0.628 -0.3065  0.5697 -0.6752
 3541TIP3    H132182   0.398   6.768   0.656  2.8127  0.2165  0.6308
 3541TIP3    H232183   0.436   6.677   0.541  0.7209  0.3273 -0.2061
 3542TIP3   OH232184   0.799   6.324   7.242 -0.8838  0.0697  0.2011
 3542TIP3    H132185   0.786   6.305   7.150  0.4231  4.2813 -1.1188
 3542TIP3    H232186   0.734   6.391   7.263  1.0897  1.8094  1.1848
 3543TIP3   OH232187   4.690   6.755   0.473 -0.5900 -0.0254 -0.0259
 3543TIP3    H132188   4.609   6.805   0.472 -0.0198  0.9748  0.7356
 3543TIP3    H232189   4.664   6.666   0.496 -1.4028  0.4365  0.8952
 3544TIP3   OH232190   0.355   3.444   6.944  0.2328 -0.1141  0.0157
 3544TIP3    H132191   0.425   3.380   6.960 -0.6714 -1.5898 -1.5680
 3544TIP3    H232192   0.337   3.482   7.030  0.5636 -2.2753  1.1070
 3545TIP3   OH232193   3.709   3.687   8.632  0.1077 -0.4606 -0.5326
 3545TIP3    H132194   3.733   3.661   8.721  2.0523  1.1111 -0.5217
 3545TIP3    H232195   3.682   3.605   8.590 -1.0877 -1.1846  1.5413
 3546TIP3   OH232196   5.708   1.674   7.641 -0.0776  0.1172  0.3767
 3546TIP3    H132197   5.741   1.599   7.592  1.6185  1.4440 -0.6351
 3546TIP3    H232198   5.698   1.642   7.731  0.2463 -1.4097 -0.1153
 3547TIP3   OH232199   5.963   6.306   7.188  0.0297  0.9495 -0.1598
 3547TIP3    H132200   5.899   6.327   7.257  0.1479 -0.4535  0.4060
 3547TIP3    H232201   6.029   6.252   7.232  1.0193  1.4386 -0.9981
 3548TIP3   OH232202   0.336   3.542   0.057  0.2836 -0.2422 -0.2307
 3548TIP3    H132203   0.270   3.476   0.075 -1.4490  1.9284  2.2089
 3548TIP3    H232204   0.405   3.525   0.121 -1.1916  1.4612  1.9642
 3549TIP3   OH232205   5.337   6.517   2.186 -0.2119 -0.8042  0.0041
 3549TIP3    H132206   5.278   6.545   2.116  0.0680 -0.6487 -0.1687
 3549TIP3    H232207   5.425   6.524   2.148 -0.0672 -0.8279  0.3323
 3550TIP3   OH232208   2.975   2.971   1.976  0.1328 -0.4896  0.5430
 3550TIP3    H132209   3.029   2.903   2.016  0.7749 -0.2846  0.0334
 3550TIP3    H232210   2.886   2.950   2.004  0.1698 -2.1877 -0.4679
 3551TIP3   OH232211   1.833   3.827   1.181  0.8825  0.0704  0.4642
 3551TIP3    H132212   1.806   3.818   1.272 -0.7355 -3.8544 -0.1645
 3551TIP3    H232213   1.762   3.877   1.140  1.6692  1.9462  1.2766
 3552TIP3   OH232214   3.104   1.557   8.658  0.4193 -0.7685 -0.1077
 3552TIP3    H132215   3.164   1.539   8.730  1.9648 -0.5908 -1.3016
 3552TIP3    H232216   3.145   1.628   8.609 -0.6894 -0.7426 -1.0617
 3553TIP3   OH232217   2.264   3.532   6.855  0.2829  0.7729 -0.0908
 3553TIP3    H132218   2.196   3.536   6.922 -0.7035 -0.3273 -0.9982
 3553TIP3    H232219   2.345   3.546   6.903 -0.1178 -2.5149  1.8124
 3554TIP3   OH232220   3.720   0.884   0.390 -0.1569 -0.0052 -0.2501
 3554TIP3    H132221   3.627   0.906   0.387 -0.2897 -0.6120 -1.8517
 3554TIP3    H232222   3.761   0.948   0.332  0.1867 -0.7025 -0.7962
 3555TIP3   OH232223   2.373   1.514   7.397  0.1341 -0.0196  0.3997
 3555TIP3    H132224   2.289   1.518   7.351  0.4172 -0.4180 -0.1726
 3555TIP3    H232225   2.409   1.602   7.388  2.0930 -0.9979 -3.9029
 3556TIP3   OH232226   6.280   1.377   8.594 -0.0432 -0.7572 -0.0854
 3556TIP3    H132227   6.268   1.458   8.645  1.8325 -0.2643 -0.3503
 3556TIP3    H232228   6.343   1.401   8.527  0.3707 -2.4037 -0.3145
 3557TIP3   OH232229   1.221   1.224   0.649  0.9266  0.2182  0.5847
 3557TIP3    H132230   1.277   1.172   0.592 -2.4380 -1.0299 -1.9582
 3557TIP3    H232231   1.210   1.308   0.603  0.7755  0.4700  1.0669
 3558TIP3   OH232232   5.108   6.601   8.307 -0.3554 -0.6520 -0.3156
 3558TIP3    H132233   5.160   6.652   8.244  0.8569  1.0133  1.8697
 3558TIP3    H232234   5.020   6.637   8.302  0.0483  0.3830 -0.1693
 3559TIP3   OH232235   1.562   6.734   8.243 -0.1078  0.1199  0.0014
 3559TIP3    H132236   1.509   6.794   8.295 -0.9649 -1.2687  0.7675
 3559TIP3    H232237   1.500   6.674   8.203  0.8386 -1.4929  0.8406
 3560TIP3   OH232238   4.742   0.142   2.271 -0.0737 -0.3307  0.4867
 3560TIP3    H132239   4.689   0.078   2.225  0.3233  0.8017 -1.7009
 3560TIP3    H232240   4.819   0.153   2.215 -0.7844  3.0226 -0.0505
 3561TIP3   OH232241   2.185   6.368   1.036 -0.3883 -0.0562 -0.2440
 3561TIP3    H132242   2.256   6.410   0.988 -0.2224 -0.8619 -0.7257
 3561TIP3    H232243   2.106   6.396   0.991 -0.2511 -0.5880 -0.8272
 3562TIP3   OH232244   0.939   2.540   1.270 -0.0087 -0.1298 -0.2764
 3562TIP3    H132245   1.004   2.475   1.298  0.6534  0.5124 -0.2940
 3562TIP3    H232246   0.858   2.513   1.314  0.5638 -0.2280  0.7503
 3563TIP3   OH232247   3.549   3.381   0.816  0.2627  0.2263 -0.2027
 3563TIP3    H132248   3.526   3.348   0.729  0.5964 -2.0287  0.4896
 3563TIP3    H232249   3.588   3.306   0.860 -0.6818  1.0465  2.1941
 3564TIP3   OH232250   1.320   5.320   6.643  0.4954 -0.7317 -0.0661
 3564TIP3    H132251   1.293   5.373   6.717 -1.1659 -1.7841  0.1192
 3564TIP3    H232252   1.407   5.353   6.620  0.2244  0.8872  1.1135
 3565TIP3   OH232253   5.792   6.136   0.929 -0.4523 -0.0205  0.0855
 3565TIP3    H132254   5.811   6.064   0.990  2.1289  0.9731  0.5747
 3565TIP3    H232255   5.700   6.159   0.947 -1.0418 -2.5108  0.5766
 3566TIP3   OH232256   5.903   1.073   6.219  0.9141 -0.1741  0.4353
 3566TIP3    H132257   5.973   1.070   6.284  0.9679 -0.7951  0.3524
 3566TIP3    H232258   5.825   1.097   6.270  1.3479  1.5440  0.3676
 3567TIP3   OH232259   3.547   0.292   7.442 -0.2229  0.2564 -0.3287
 3567TIP3    H132260   3.554   0.325   7.531 -1.4203 -0.7817  0.1811
 3567TIP3    H232261   3.467   0.239   7.442 -0.6807  0.8782 -2.2275
 3568TIP3   OH232262   1.942   3.815   0.066  1.0109  0.9016 -0.7276
 3568TIP3    H132263   2.036   3.801   0.077  0.9801  0.6132 -0.8204
 3568TIP3    H232264   1.911   3.838   0.153  0.5829 -2.4590  0.1596
 3569TIP3   OH232265   3.950   4.252   0.961 -0.3600 -0.4493  0.6405
 3569TIP3    H132266   3.912   4.240   1.048 -1.1691 -1.0099  0.2235
 3569TIP3    H232267   4.027   4.195   0.961  0.7452  0.9644  1.6143
 3570TIP3   OH232268   4.329   1.869   7.817 -0.2058 -0.7253 -0.4788
 3570TIP3    H132269   4.362   1.789   7.859  1.6239  0.7102  0.9928
 3570TIP3    H232270   4.364   1.940   7.870 -2.6279  1.0829 -1.1337
 3571TIP3   OH232271   3.892   6.624   1.512  0.0553 -0.5451  0.4512
 3571TIP3    H132272   3.975   6.593   1.475  0.5414 -0.0175  1.0788
 3571TIP3    H232273   3.853   6.547   1.553  1.6340 -0.2322  2.7096
 3572TIP3   OH232274   0.365   0.596   7.893 -0.7047  0.3966 -0.1457
 3572TIP3    H132275   0.436   0.535   7.913 -1.5637  0.1360  2.4903
 3572TIP3    H232276   0.335   0.570   7.806 -0.7990 -2.7741  0.7060
 3573TIP3   OH232277   4.181   1.672   7.393  0.3334  0.6792 -0.7493
 3573TIP3    H132278   4.161   1.720   7.312  1.6239  0.7672 -1.0348
 3573TIP3    H232279   4.221   1.591   7.363 -2.1298 -0.8100 -0.2816
 3574TIP3   OH232280   0.167   6.615   0.475 -0.7611 -0.1369  0.3467
 3574TIP3    H132281   0.213   6.666   0.542 -1.2548  0.2086  0.4307
 3574TIP3    H232282   0.235   6.559   0.437 -0.5586 -0.6816  1.4557
 3575TIP3   OH232283   6.806   4.563   1.597 -0.7623 -0.0103  0.7389
 3575TIP3    H132284   6.787   4.611   1.677  3.7283  1.0609  1.4304
 3575TIP3    H232285   6.763   4.614   1.528 -1.3090  1.4200  2.0728
 3576TIP3   OH232286   2.873   5.149   8.317  0.1377 -0.1492 -0.2236
 3576TIP3    H132287   2.883   5.070   8.370 -0.9959 -0.4831 -0.4802
 3576TIP3    H232288   2.938   5.210   8.352  1.3423 -1.3337 -0.3120
 3577TIP3   OH232289   4.999   4.274   6.055  0.1443 -0.5774  0.2712
 3577TIP3    H132290   4.948   4.295   6.133 -0.7216 -1.5114 -0.0177
 3577TIP3    H232291   5.056   4.350   6.041  0.2290 -0.3537  1.7328
 3578TIP3   OH232292   0.035   2.582   1.241 -0.5314  0.6330 -0.8319
 3578TIP3    H132293  -0.028   2.589   1.313 -0.0504 -1.5634 -0.1108
 3578TIP3    H232294   0.110   2.634   1.270 -0.3436 -0.2332  0.3034
 3579TIP3   OH232295   1.840   6.238   0.960 -0.3589 -0.2335 -0.2573
 3579TIP3    H132296   1.901   6.291   1.013  0.2592  0.3330 -1.4906
 3579TIP3    H232297   1.856   6.148   0.988 -0.7917  0.1289  1.2513
 3580TIP3   OH232298   3.438   1.789   2.462 -0.0154  0.0899 -0.6317
 3580TIP3    H132299   3.471   1.828   2.382 -2.6644  1.8166 -1.0126
 3580TIP3    H232300   3.377   1.721   2.433  0.4140 -0.5741 -0.0290
 3581TIP3   OH232301   2.764   0.128   0.524 -0.3738  0.6381  0.4014
 3581TIP3    H132302   2.855   0.100   0.515  0.3876  2.6805  1.1491
 3581TIP3    H232303   2.768   0.206   0.580 -2.5085  1.2214 -0.1510
 3582TIP3   OH232304   3.774   0.315   0.316 -0.0601 -0.3561 -0.0717
 3582TIP3    H132305   3.730   0.356   0.241  0.8338  2.1635  0.6707
 3582TIP3    H232306   3.867   0.316   0.292  0.0558 -1.2298  0.3271
 3583TIP3   OH232307   2.513   1.339   6.555  0.1894  0.4876 -0.1391
 3583TIP3    H132308   2.518   1.252   6.594 -0.8713  1.0743  1.4179
 3583TIP3    H232309   2.598   1.379   6.572 -0.6230  1.1798  2.8606
 3584TIP3   OH232310   5.713   4.057   1.282  0.1392 -0.3983 -0.2712
 3584TIP3    H132311   5.628   4.064   1.240 -0.0698 -3.2828 -0.5763
 3584TIP3    H232312   5.696   4.008   1.363  1.2575  0.6571  0.6386
 3585TIP3   OH232313   6.538   3.942   6.915  0.6305  0.1778  0.0817
 3585TIP3    H132314   6.583   3.916   6.834  0.3004 -0.9160  0.2375
 3585TIP3    H232315   6.601   3.922   6.984  0.2701 -0.5044  0.2246
 3586TIP3   OH232316   6.746   3.214   1.233 -0.3144 -1.1318 -0.0137
 3586TIP3    H132317   6.762   3.120   1.235 -0.0346 -1.0817  1.2044
 3586TIP3    H232318   6.833   3.253   1.247 -0.1112 -0.6259 -2.2908
 3587TIP3   OH232319   3.734   4.861   7.016 -0.3509 -0.3164 -0.3713
 3587TIP3    H132320   3.715   4.767   7.013  1.0991 -0.6361 -0.0356
 3587TIP3    H232321   3.775   4.874   7.102  3.3471 -0.1845 -1.9750
 3588TIP3   OH232322   4.017   5.303   0.241  0.0851 -0.0806  0.3030
 3588TIP3    H132323   4.048   5.213   0.236  1.4897  0.4317 -1.7149
 3588TIP3    H232324   4.065   5.348   0.171 -2.1528  1.7689 -0.1398
 3589TIP3   OH232325   2.488   5.584   0.893  0.3089 -0.2883 -0.4174
 3589TIP3    H132326   2.478   5.582   0.989 -0.3356  0.0485 -0.4707
 3589TIP3    H232327   2.553   5.516   0.875  0.3746 -0.4202  0.2525
 3590TIP3   OH232328   3.615   6.490   0.377 -0.5242  0.4211 -0.0401
 3590TIP3    H132329   3.524   6.493   0.406 -0.3477 -0.6621  0.6622
 3590TIP3    H232330   3.622   6.561   0.313 -1.6319  1.0701  0.5333
 3591TIP3   OH232331   5.949   2.112   0.447 -0.0772  0.7796  0.0721
 3591TIP3    H132332   5.951   2.070   0.533 -0.2622  0.1238 -0.2353
 3591TIP3    H232333   5.893   2.055   0.394  0.3335  0.9793 -0.5885
 3592TIP3   OH232334   6.076   4.254   8.063 -0.1784  0.0344 -0.5366
 3592TIP3    H132335   6.116   4.247   7.976  1.1202 -1.4221  0.1404
 3592TIP3    H232336   6.117   4.330   8.103 -0.3151  0.3290 -0.9516
 3593TIP3   OH232337   4.656   6.454   0.726  0.2992 -0.2127 -0.3804
 3593TIP3    H132338   4.733   6.399   0.708  1.9062  1.9472 -0.4659
 3593TIP3    H232339   4.675   6.494   0.810 -0.5811  0.6200 -0.5686
 3594TIP3   OH232340   3.653   1.967   1.935  0.1786  0.0285 -0.5542
 3594TIP3    H132341   3.575   2.024   1.930 -0.6637 -0.8934  0.9950
 3594TIP3    H232342   3.706   2.007   2.004  1.1523  0.6885 -1.6522
 3595TIP3   OH232343   1.180   4.467   0.937  0.0533  0.5636 -0.1458
 3595TIP3    H132344   1.221   4.514   1.010 -1.1315  0.7527  0.4229
 3595TIP3    H232345   1.092   4.504   0.931  0.0337  0.3458 -1.5021
 3596TIP3   OH232346   1.677   6.181   0.395 -0.1768  0.5135 -0.1405
 3596TIP3    H132347   1.671   6.093   0.432  0.6670  0.0545 -1.0722
 3596TIP3    H232348   1.769   6.193   0.375 -0.4644  1.1206 -1.1979
 3597TIP3   OH232349   2.875   6.684   0.627  0.5749 -0.7908  0.1451
 3597TIP3    H132350   2.966   6.710   0.615  0.6582 -1.5922 -1.1924
 3597TIP3    H232351   2.879   6.594   0.661  0.2892 -0.7352  0.3322
 3598TIP3   OH232352   4.118   2.445   6.523 -0.1346 -0.9246 -0.2308
 3598TIP3    H132353   4.194   2.401   6.485  0.2704 -0.6350  0.2406
 3598TIP3    H232354   4.148   2.534   6.540 -0.0900 -1.2361  1.4458
 3599TIP3   OH232355   0.328   0.081   1.287 -0.0529 -0.2856  0.0498
 3599TIP3    H132356   0.258   0.117   1.341 -1.0293 -2.2513  0.1923
 3599TIP3    H232357   0.318  -0.014   1.295 -0.5955 -0.7390 -3.9041
 3600TIP3   OH232358   4.443   4.550   7.709  0.5152  0.1156  0.0896
 3600TIP3    H132359   4.533   4.530   7.735  0.4091  0.2547  0.5669
 3600TIP3    H232360   4.443   4.538   7.614  0.0300 -3.9613  0.4143
 3601TIP3   OH232361   4.185   1.824   0.816  0.2848  0.0256 -0.0629
 3601TIP3    H132362   4.143   1.740   0.836  1.0461 -0.3070  0.1988
 3601TIP3    H232363   4.223   1.812   0.729 -0.0027  0.2641 -0.2243
 3602TIP3   OH232364   5.811   2.315   6.467  0.3096 -0.2753  0.4675
 3602TIP3    H132365   5.851   2.333   6.381  0.4624  0.1249  0.6187
 3602TIP3    H232366   5.840   2.226   6.488 -0.4789 -0.7230 -0.3053
 3603TIP3   OH232367   3.542   3.985   0.032 -0.1054 -0.1727  0.0606
 3603TIP3    H132368   3.602   3.970   0.106 -0.1014  0.7142  0.2535
 3603TIP3    H232369   3.503   4.070   0.051  0.3579  0.3593 -1.2664
 3604TIP3   OH232370   0.270   3.589   7.732 -0.3285  0.3167 -0.0480
 3604TIP3    H132371   0.281   3.656   7.800 -0.6772  2.1900 -1.7265
 3604TIP3    H232372   0.175   3.576   7.726 -0.2813 -0.0794  0.0287
 3605TIP3   OH232373   5.350   0.797   6.539  0.1660 -0.6928 -0.5832
 3605TIP3    H132374   5.295   0.728   6.501  1.1036 -2.1657  0.6374
 3605TIP3    H232375   5.438   0.776   6.510  0.4342  0.1233 -0.3693
 3606TIP3   OH232376   0.127   3.729   6.780 -0.5359 -0.1305 -0.6782
 3606TIP3    H132377   0.172   3.799   6.733 -0.8754  0.1706 -0.5613
 3606TIP3    H232378   0.083   3.678   6.711  1.1418 -1.2979 -0.9423
 3607TIP3   OH232379   6.748   1.412   7.711  0.2173 -0.3360 -0.0130
 3607TIP3    H132380   6.830   1.392   7.756 -1.6405 -0.8960  3.5095
 3607TIP3    H232381   6.716   1.492   7.754 -1.9608 -1.2134  0.1246
 3608TIP3   OH232382   4.592   3.551   2.754 -0.0823  0.0705  0.0270
 3608TIP3    H132383   4.645   3.630   2.766 -1.8246  1.0929  1.6388
 3608TIP3    H232384   4.652   3.478   2.771  1.3734  1.0542 -0.7139
 3609TIP3   OH232385   2.538   5.171   8.337 -0.1330  0.3922 -0.6263
 3609TIP3    H132386   2.616   5.171   8.281  0.2988  0.1939 -0.0279
 3609TIP3    H232387   2.571   5.154   8.425 -0.9865 -1.0535 -0.5529
 3610TIP3   OH232388   3.658   5.030   7.817  0.3303 -0.1873  0.0199
 3610TIP3    H132389   3.710   4.950   7.831 -1.6960 -1.7469 -0.8784
 3610TIP3    H232390   3.582   5.001   7.767  0.0508  2.5396 -1.3232
 3611TIP3   OH232391   0.623   6.212   7.479  0.1054 -0.5443 -0.5386
 3611TIP3    H132392   0.650   6.227   7.569  1.0610  0.2091 -0.9264
 3611TIP3    H232393   0.695   6.247   7.426 -0.5180 -0.7978 -1.5960
 3612TIP3   OH232394   2.343   1.384   0.612  0.0050 -0.1536  0.3314
 3612TIP3    H132395   2.295   1.444   0.668  0.3336 -1.4218  2.0638
 3612TIP3    H232396   2.276   1.335   0.565 -0.2972  0.4308  0.1537
 3613TIP3   OH232397   1.644   6.668   1.297  0.1280 -0.0162  0.1773
 3613TIP3    H132398   1.600   6.685   1.379  0.1984  1.8873 -0.1374
 3613TIP3    H232399   1.649   6.753   1.253 -0.1574 -1.0078 -1.9280
 3614TIP3   OH232400   0.095   3.506   8.400 -0.2401 -0.0340 -0.8758
 3614TIP3    H132401   0.054   3.581   8.442  0.6647  0.7650 -1.3854
 3614TIP3    H232402   0.029   3.475   8.338 -0.4750  0.5964 -0.9515
 3615TIP3   OH232403   1.751   3.400   2.035  0.7490  0.0464 -0.5874
 3615TIP3    H132404   1.712   3.313   2.039 -0.1471  0.3428 -1.9554
 3615TIP3    H232405   1.712   3.448   2.108  0.5231 -0.4330 -0.3932
 3616TIP3   OH232406   2.778   3.097   0.443  0.0591  0.4731 -0.2004
 3616TIP3    H132407   2.874   3.092   0.443 -0.0051 -1.9693 -0.1647
 3616TIP3    H232408   2.751   3.029   0.382 -1.6696  1.9987 -1.2262
 3617TIP3   OH232409   5.173   3.979   1.074 -0.1478 -0.1370  0.0703
 3617TIP3    H132410   5.090   4.026   1.063 -0.9245 -1.7996 -1.4302
 3617TIP3    H232411   5.154   3.911   1.138  0.2179 -0.1907  0.1255
 3618TIP3   OH232412   3.604   0.482   7.966 -0.5241 -0.4158  0.3624
 3618TIP3    H132413   3.560   0.553   8.013  0.7976  0.7107 -0.0460
 3618TIP3    H232414   3.567   0.402   8.003 -2.2369  0.4783  0.6497
 3619TIP3   OH232415   4.672   3.275   2.074 -0.1390  0.4779  0.3341
 3619TIP3    H132416   4.755   3.282   2.122  0.3038 -3.2326  0.3489
 3619TIP3    H232417   4.692   3.220   1.999 -2.5096 -0.0934  0.0485
 3620TIP3   OH232418   5.515   2.150   7.658  0.0745 -0.3805  0.3136
 3620TIP3    H132419   5.474   2.064   7.648  1.2241 -0.9584  0.4822
 3620TIP3    H232420   5.587   2.150   7.595  0.0149  0.5054  0.2339
 3621TIP3   OH232421   0.906   6.682   1.615  0.0988  0.0614 -0.5843
 3621TIP3    H132422   0.973   6.614   1.625  0.9862  0.9700 -0.0724
 3621TIP3    H232423   0.876   6.699   1.705  0.7705  1.1652 -0.5391
 3622TIP3   OH232424   5.335   1.087   8.717 -0.5984 -0.5923  0.3885
 3622TIP3    H132425   5.313   1.000   8.751  1.1729 -0.6937  1.3701
 3622TIP3    H232426   5.421   1.076   8.678 -1.2292  0.2832 -1.3660
 3623TIP3   OH232427   4.396   0.257   1.578  0.0791  0.3397 -0.3819
 3623TIP3    H132428   4.367   0.168   1.598 -2.5957  1.3336  0.5521
 3623TIP3    H232429   4.488   0.259   1.606  0.0073 -1.8886  0.2242
 3624TIP3   OH232430   1.386   2.074   6.806  0.0991 -0.0198 -0.1076
 3624TIP3    H132431   1.310   2.060   6.750 -1.6831 -2.5023  2.6561
 3624TIP3    H232432   1.457   2.026   6.763 -1.0575 -1.3924 -0.5485
 3625TIP3   OH232433   0.543   3.137   8.138  0.7120  0.0411  0.5082
 3625TIP3    H132434   0.447   3.137   8.127  0.8047 -0.6444 -0.4357
 3625TIP3    H232435   0.557   3.111   8.228  0.0166 -0.4939  0.4718
 3626TIP3   OH232436   0.116   3.156   7.353  0.4404 -0.4443  0.0417
 3626TIP3    H132437   0.030   3.126   7.382  0.0323 -0.2768 -0.9610
 3626TIP3    H232438   0.098   3.217   7.283  1.3663  0.1408  0.2946
 3627TIP3   OH232439   1.904   2.626   0.720 -0.1857  0.0658 -0.1358
 3627TIP3    H132440   1.892   2.567   0.645  2.2692  1.0445 -1.3989
 3627TIP3    H232441   1.997   2.650   0.717 -0.3514  1.3125  2.3776
 3628TIP3   OH232442   3.044   6.438   0.678 -0.4509  0.0200  0.1730
 3628TIP3    H132443   3.083   6.383   0.746  1.0827 -1.2289 -1.6273
 3628TIP3    H232444   2.999   6.377   0.620 -0.9362  0.9607 -0.4780
 3629TIP3   OH232445   3.997   6.424   7.884 -0.1175 -0.4888 -0.0004
 3629TIP3    H132446   3.992   6.346   7.939  0.8365  0.6308  1.7378
 3629TIP3    H232447   3.907   6.455   7.879 -0.1651 -0.3805  1.2842
 3630TIP3   OH232448   0.393   2.112   5.869  0.1704 -0.3262 -0.0150
 3630TIP3    H132449   0.389   2.157   5.784  0.6235 -0.9656 -0.3778
 3630TIP3    H232450   0.441   2.173   5.926  0.7160 -0.3167 -0.4822
 3631TIP3   OH232451   2.803   1.416   8.328  0.8564  0.3830  0.3172
 3631TIP3    H132452   2.711   1.436   8.308  0.8453 -0.3627 -0.4632
 3631TIP3    H232453   2.849   1.429   8.246  1.1126 -1.0909  0.1896
 3632TIP3   OH232454   6.195   5.067   1.365  0.1030 -0.0309 -0.1385
 3632TIP3    H132455   6.261   5.068   1.296  0.8616 -0.9784  0.5507
 3632TIP3    H232456   6.151   4.982   1.354 -0.4583  0.2433 -0.0714
 3633TIP3   OH232457   0.219   3.434   0.941 -0.3323  0.3888 -0.2564
 3633TIP3    H132458   0.212   3.469   0.852 -1.2967 -0.2100 -0.4367
 3633TIP3    H232459   0.193   3.342   0.932  0.9670 -0.0654  0.4100
 3634TIP3   OH232460   0.630   5.449   0.683  0.5363 -0.2822 -0.1019
 3634TIP3    H132461   0.633   5.472   0.590 -2.0706  0.9169  0.0175
 3634TIP3    H232462   0.663   5.526   0.728  2.4583 -1.1204  0.0002
 3635TIP3   OH232463   4.692   6.293   8.295 -0.4028  0.0771 -0.3621
 3635TIP3    H132464   4.755   6.235   8.252  1.1180  1.5396 -0.2450
 3635TIP3    H232465   4.677   6.364   8.232  0.6071  1.4040  0.8067
 3636TIP3   OH232466   4.214   0.172   7.093  0.2044  0.0096 -0.0543
 3636TIP3    H132467   4.143   0.117   7.126  0.5027 -0.0495  0.5053
 3636TIP3    H232468   4.177   0.261   7.092  0.3384  0.0891  0.9282
 3637TIP3   OH232469   5.554   3.079   6.266 -0.1075 -0.3219  0.3901
 3637TIP3    H132470   5.623   3.131   6.307 -0.4377 -0.0289  0.5744
 3637TIP3    H232471   5.568   2.990   6.298  0.1139 -0.2421  0.5144
 3638TIP3   OH232472   4.866   4.834   0.899 -0.2202  0.3209  0.2851
 3638TIP3    H132473   4.955   4.847   0.867 -0.3755 -0.0724 -0.3366
 3638TIP3    H232474   4.858   4.739   0.909 -0.5591  0.3577  0.3688
 3639TIP3   OH232475   6.441   3.288   1.931 -0.4418 -0.0572  0.3441
 3639TIP3    H132476   6.481   3.367   1.895 -1.2682  0.7141  1.0693
 3639TIP3    H232477   6.382   3.258   1.862 -0.1964  0.0125  0.1014
 3640TIP3   OH232478   3.230   2.313   0.002 -0.4105 -0.7326  0.3667
 3640TIP3    H132479   3.227   2.328  -0.093  2.6279 -0.7532  0.1689
 3640TIP3    H232480   3.256   2.222   0.010 -0.0936 -0.5666  1.2278
 3641TIP3   OH232481   0.412   0.452   1.517  0.4155  0.5599 -0.4246
 3641TIP3    H132482   0.467   0.386   1.559 -0.3088 -0.2046 -0.6425
 3641TIP3    H232483   0.439   0.535   1.556  0.6794  0.0229  0.5709
 3642TIP3   OH232484   1.813   3.086   0.560 -0.3701 -0.2958  0.2354
 3642TIP3    H132485   1.900   3.074   0.523 -0.5097 -2.3610  0.4388
 3642TIP3    H232486   1.829   3.130   0.644  0.3489  0.3884 -0.2438
 3643TIP3   OH232487   0.810   6.835   8.228  0.0332 -0.4804 -0.0795
 3643TIP3    H132488   0.832   6.749   8.262  0.0100 -0.1668  0.7663
 3643TIP3    H232489   0.737   6.820   8.167  0.1195 -1.0680 -0.0380
 3644TIP3   OH232490   3.945   4.050   8.491  0.1065  0.1032  0.8134
 3644TIP3    H132491   3.863   4.000   8.496 -0.3990  0.6880 -0.9072
 3644TIP3    H232492   3.917   4.140   8.473  1.1159  0.3129  0.2396
 3645TIP3   OH232493   2.964   0.909   1.077 -0.5052  0.0322 -0.3717
 3645TIP3    H132494   3.041   0.880   1.125 -1.1330  2.0212  2.1216
 3645TIP3    H232495   2.967   0.862   0.994  1.8749 -1.9943  0.7438
 3646TIP3   OH232496   2.278   4.657   1.132 -0.1034 -0.3604 -0.3221
 3646TIP3    H132497   2.362   4.699   1.114 -0.3069  1.8963  3.0191
 3646TIP3    H232498   2.301   4.567   1.155  1.6175  0.4048  1.2654
 3647TIP3   OH232499   1.462   3.217   1.324  0.7261 -0.0131  1.2981
 3647TIP3    H132500   1.553   3.233   1.348  1.3095 -1.0150 -0.1361
 3647TIP3    H232501   1.428   3.304   1.303  2.6094  0.0929 -2.2037
 3648TIP3   OH232502   3.686   5.585   8.620  0.1720 -0.2787 -0.0849
 3648TIP3    H132503   3.615   5.532   8.582  0.4725 -0.2751 -0.6601
 3648TIP3    H232504   3.703   5.544   8.704 -2.7394  1.6157  1.6139
 3649TIP3   OH232505   3.216   2.116   7.542  0.2098 -0.2323 -0.1436
 3649TIP3    H132506   3.241   2.200   7.504  1.8486  0.4017  2.1309
 3649TIP3    H232507   3.247   2.051   7.479  1.7533  0.7876 -0.4901
 3650TIP3   OH232508   0.991   6.636   7.157  0.1047 -0.2251  0.5491
 3650TIP3    H132509   1.051   6.617   7.084 -0.5001 -1.7541  0.4048
 3650TIP3    H232510   1.019   6.576   7.227  0.0328  0.5115  1.2230
 3651TIP3   OH232511   4.797   3.093   7.965 -0.0179 -0.6540 -0.1839
 3651TIP3    H132512   4.730   3.041   7.920  0.8744 -1.9627 -0.0736
 3651TIP3    H232513   4.866   3.106   7.900  0.2743 -0.5973  0.1326
 3652TIP3   OH232514   5.710   1.203   6.326 -0.7332  0.1765 -0.0650
 3652TIP3    H132515   5.679   1.231   6.412  1.8709  1.9588  0.3893
 3652TIP3    H232516   5.665   1.262   6.265  0.3041  1.5279  0.4334
 3653TIP3   OH232517   5.286   5.860   1.711 -0.2214 -0.1113 -0.8648
 3653TIP3    H132518   5.360   5.920   1.701 -0.3979  0.1401 -0.6575
 3653TIP3    H232519   5.326   5.779   1.742 -0.1822  0.4396  0.5644
 3654TIP3   OH232520   2.267   3.385   7.765  0.4613 -0.0607 -0.1124
 3654TIP3    H132521   2.317   3.431   7.831 -0.6946 -2.1864  2.4484
 3654TIP3    H232522   2.195   3.444   7.743  0.9262  0.7335  0.4787
 3655TIP3   OH232523   2.607   1.190   1.880 -0.0245 -0.1840  0.0699
 3655TIP3    H132524   2.610   1.115   1.940 -1.3617 -0.5821 -0.3415
 3655TIP3    H232525   2.521   1.229   1.895 -0.0545  0.1779 -1.0242
 3656TIP3   OH232526   1.861   0.167   1.123  0.2590  0.1801 -0.3560
 3656TIP3    H132527   1.935   0.167   1.062  1.2699  3.4995  0.6744
 3656TIP3    H232528   1.788   0.202   1.073  0.2616  0.0213 -0.4716
 3657TIP3   OH232529   3.699   3.441   8.512 -0.5250 -0.2108 -0.7235
 3657TIP3    H132530   3.656   3.430   8.427 -0.2155  1.2311 -1.0966
 3657TIP3    H232531   3.793   3.442   8.492 -0.4131 -0.6598 -0.2516
 3658TIP3   OH232532   2.764   6.282   7.410 -0.4728  0.4427 -0.5019
 3658TIP3    H132533   2.756   6.191   7.440 -2.0864  0.5616 -0.4496
 3658TIP3    H232534   2.789   6.331   7.488 -1.0742  0.2429 -0.1737
 3659TIP3   OH232535   0.443   1.750   6.556  0.1971 -0.7109  0.2697
 3659TIP3    H132536   0.477   1.736   6.468 -0.1827 -3.4238  0.4745
 3659TIP3    H232537   0.348   1.756   6.545 -0.0188 -2.7810  0.5848
 3660TIP3   OH232538   1.740   0.148   6.580 -0.3581  0.2005 -0.4778
 3660TIP3    H132539   1.788   0.142   6.497 -0.7032  1.4227 -0.7929
 3660TIP3    H232540   1.655   0.108   6.563 -1.7346  3.3453 -1.8026
 3661TIP3   OH232541   3.717   6.521   7.847 -0.2653  0.3440 -0.0603
 3661TIP3    H132542   3.707   6.426   7.842 -0.3091  0.2953  0.8724
 3661TIP3    H232543   3.632   6.555   7.818 -0.0644  0.1257 -0.9460
 3662TIP3   OH232544   2.427   0.935   8.653 -0.1027 -0.0709  0.1073
 3662TIP3    H132545   2.487   1.000   8.689  0.8267  0.6529 -2.5367
 3662TIP3    H232546   2.457   0.852   8.690  1.0588  0.5638  0.6341
 3663TIP3   OH232547   1.899   3.888   7.726 -0.1881 -0.4200 -0.0421
 3663TIP3    H132548   1.848   3.810   7.749  0.7817 -0.7852  0.9685
 3663TIP3    H232549   1.983   3.854   7.697 -0.5603  0.1641 -1.9375
 3664TIP3   OH232550   0.038   0.946   0.389  0.4613  0.0740  0.2010
 3664TIP3    H132551   0.027   0.851   0.389  1.6137 -0.0766  0.1539
 3664TIP3    H232552  -0.044   0.979   0.353 -1.5747 -0.6471  3.7179
 3665TIP3   OH232553   6.010   0.799   8.346  0.2442 -0.3449  0.0059
 3665TIP3    H132554   6.104   0.813   8.359  0.3228 -0.0013 -0.8894
 3665TIP3    H232555   6.002   0.762   8.259 -0.5421  0.9304 -0.4990
 3666TIP3   OH232556   4.497   0.228   7.766  0.0513 -0.9291  0.2169
 3666TIP3    H132557   4.590   0.209   7.783  1.0916  0.2070 -3.3474
 3666TIP3    H232558   4.465   0.151   7.720 -0.3635 -0.7034  0.1218
 3667TIP3   OH232559   5.764   4.678   7.966  0.3872 -0.3388  0.2256
 3667TIP3    H132560   5.743   4.645   8.054 -1.1762 -1.0926 -0.3737
 3667TIP3    H232561   5.679   4.682   7.922  0.7859  2.5402 -0.4535
 3668TIP3   OH232562   6.333   4.761   7.147 -0.2586  0.3167 -0.1884
 3668TIP3    H132563   6.340   4.666   7.155 -1.3136  0.2345 -0.0768
 3668TIP3    H232564   6.410   4.787   7.096  0.6657 -0.4519  0.7739
 3669TIP3   OH232565   1.155   1.446   8.392 -0.1158  0.6057 -0.6093
 3669TIP3    H132566   1.088   1.492   8.343 -2.4691 -0.3785  1.4458
 3669TIP3    H232567   1.200   1.515   8.442 -2.0775  0.9800  0.7268
 3670TIP3   OH232568   5.882   0.361   0.697 -0.5456  0.5718  0.8063
 3670TIP3    H132569   5.947   0.413   0.744 -1.2041  1.4942  0.7264
 3670TIP3    H232570   5.830   0.426   0.648  1.4399 -0.4343 -2.9869
 3671TIP3   OH232571   1.894   2.029   7.800 -0.5293  0.2142 -0.1144
 3671TIP3    H132572   1.981   2.040   7.761 -0.5361  2.7519  0.4228
 3671TIP3    H232573   1.908   1.967   7.872  0.8940  0.7685  0.1170
 3672TIP3   OH232574   4.109   6.507   1.373 -0.3849 -0.5562  0.2170
 3672TIP3    H132575   4.134   6.417   1.354 -1.1072 -0.5420 -0.8685
 3672TIP3    H232576   4.161   6.560   1.313 -3.4025 -0.5695 -2.7326
 3673TIP3   OH232577   2.818   1.312   7.937 -0.5047 -0.0590  0.2051
 3673TIP3    H132578   2.770   1.394   7.947 -1.6130 -0.6858  0.2149
 3673TIP3    H232579   2.909   1.338   7.930 -0.3707  0.9751  3.8772
 3674TIP3   OH232580   2.270   5.770   6.077  0.1069 -0.0078 -0.2303
 3674TIP3    H132581   2.185   5.753   6.118 -0.3462  0.3062 -1.0130
 3674TIP3    H232582   2.331   5.715   6.125 -0.6560 -0.7786 -0.1144
 3675TIP3   OH232583   4.629   2.912   7.848 -0.2922  0.0080 -0.1456
 3675TIP3    H132584   4.607   2.819   7.853  1.5554 -0.4286  0.7880
 3675TIP3    H232585   4.612   2.936   7.757 -1.5729 -1.0244 -0.1996
 3676TIP3   OH232586   4.033   1.384   1.986 -0.0501  0.0836  0.2130
 3676TIP3    H132587   4.071   1.329   2.055 -1.5188  0.9435  1.7655
 3676TIP3    H232588   3.939   1.377   1.999 -0.2992  2.1734 -0.1890
 3677TIP3   OH232589   6.295   5.400   8.390 -0.0090 -0.2456 -0.1645
 3677TIP3    H132590   6.306   5.490   8.358 -1.9849  0.8616  2.0099
 3677TIP3    H232591   6.373   5.384   8.443  1.0560 -0.4203 -1.6995
 3678TIP3   OH232592   5.902   0.763   0.347 -0.0908 -0.2243 -0.4833
 3678TIP3    H132593   5.821   0.790   0.389  0.4757 -0.1740  0.6391
 3678TIP3    H232594   5.925   0.836   0.290 -0.7151 -0.1442 -0.6379
 3679TIP3   OH232595   6.154   3.493   0.780 -0.0360 -0.1366 -0.0927
 3679TIP3    H132596   6.195   3.555   0.841  0.1761  0.1887 -0.5556
 3679TIP3    H232597   6.153   3.540   0.696 -3.1337  0.6630  0.2653
 3680TIP3   OH232598   3.039   0.227   8.316 -0.1794  0.4298  0.0794
 3680TIP3    H132599   3.028   0.319   8.340  0.6229  0.7617 -0.7795
 3680TIP3    H232600   3.009   0.222   8.225  2.0821  0.3921 -0.7211
 3681TIP3   OH232601   5.236   1.826   0.105 -0.4161  0.5020  0.2958
 3681TIP3    H132602   5.328   1.826   0.080 -0.4965  0.8299 -0.0022
 3681TIP3    H232603   5.207   1.737   0.087 -0.5703  0.8318 -1.1583
 3682TIP3   OH232604   3.858   4.247   0.694 -0.1001 -0.0077  0.5149
 3682TIP3    H132605   3.845   4.258   0.789  1.8309  1.8975  0.6274
 3682TIP3    H232606   3.953   4.251   0.682 -0.2959 -0.3811 -1.5164
 3683TIP3   OH232607   1.374   4.389   0.592 -0.6094  0.0716 -0.5660
 3683TIP3    H132608   1.312   4.360   0.526 -1.0732  0.7059 -0.4186
 3683TIP3    H232609   1.416   4.466   0.554 -1.0811  0.6105 -0.0321
 3684TIP3   OH232610   3.322   2.306   0.811  0.3489 -0.2273 -0.7336
 3684TIP3    H132611   3.248   2.329   0.755 -0.4010 -2.2054 -0.6044
 3684TIP3    H232612   3.380   2.382   0.804 -1.5556  1.3017 -1.0015
 3685TIP3   OH232613   2.812   3.555   1.559 -0.0254  0.6909  0.2197
 3685TIP3    H132614   2.763   3.586   1.636 -1.0489 -0.4114  0.0318
 3685TIP3    H232615   2.746   3.542   1.492  0.5962 -0.2793 -0.2280
 3686TIP3   OH232616   6.650   2.596   6.339 -0.3218 -0.1261  0.4251
 3686TIP3    H132617   6.730   2.543   6.346  0.7656  1.3090 -0.6241
 3686TIP3    H232618   6.673   2.681   6.377 -0.9641  0.6912 -0.9279
 3687TIP3   OH232619   1.620   1.199   8.589 -0.1612  0.1176 -0.0838
 3687TIP3    H132620   1.629   1.259   8.515  0.4429 -1.7304 -1.5549
 3687TIP3    H232621   1.696   1.218   8.644  1.6689 -1.2289 -2.0116
 3688TIP3   OH232622   5.352   1.658   7.249  0.6729  0.1410  0.1842
 3688TIP3    H132623   5.347   1.590   7.181  1.3713  0.4039 -0.1372
 3688TIP3    H232624   5.261   1.671   7.276  0.3514  0.2054 -0.8763
 3689TIP3   OH232625   6.666   2.765   1.693 -0.1688  0.3664 -0.5832
 3689TIP3    H132626   6.577   2.782   1.660 -0.2350 -0.9562 -1.1593
 3689TIP3    H232627   6.653   2.738   1.784 -0.3718  0.0972 -0.6892
 3690TIP3   OH232628   5.690   1.693   5.945  0.2521 -0.3782 -0.2738
 3690TIP3    H132629   5.627   1.765   5.944 -0.5111 -1.0258  0.0386
 3690TIP3    H232630   5.764   1.727   5.995  0.1799  0.4141 -0.6938
 3691TIP3   OH232631   5.423   1.500   0.319 -0.2571  0.3989 -0.0533
 3691TIP3    H132632   5.363   1.445   0.270 -0.5226 -0.0832  0.7821
 3691TIP3    H232633   5.510   1.467   0.297 -0.3099  0.8844 -1.0102
 3692TIP3   OH232634   4.034   5.886   0.416 -0.3227  0.2815 -0.0476
 3692TIP3    H132635   4.128   5.905   0.406 -0.1293 -0.9112 -0.6518
 3692TIP3    H232636   4.011   5.925   0.500  0.5535  1.1981 -0.2053
 3693TIP3   OH232637   2.469   3.084   0.553 -0.4608 -0.2794  0.0724
 3693TIP3    H132638   2.542   3.067   0.612 -0.7367  0.1116  0.5318
 3693TIP3    H232639   2.472   3.012   0.489  0.5030 -0.1073 -0.0940
 3694TIP3   OH232640   0.586   5.372   1.054  0.2521 -0.0306  0.3880
 3694TIP3    H132641   0.497   5.377   1.018  0.2100 -1.9259  0.0972
 3694TIP3    H232642   0.639   5.344   0.979  0.7934 -0.5063  0.9484
 3695TIP3   OH232643   2.593   1.373   8.608  0.4162  0.4300  0.4978
 3695TIP3    H132644   2.613   1.422   8.687  1.9892 -0.1966  0.5396
 3695TIP3    H232645   2.679   1.349   8.572 -0.2551  0.2820 -1.1343
 3696TIP3   OH232646   6.009   3.489   7.085  0.1590  0.7557 -0.1298
 3696TIP3    H132647   5.985   3.509   7.175 -0.8516 -1.2521  0.0837
 3696TIP3    H232648   6.052   3.404   7.089  1.3266  1.2407 -1.3998
 3697TIP3   OH232649   5.538   4.029   7.839  0.3487 -0.2788 -0.1546
 3697TIP3    H132650   5.515   4.104   7.785  0.6335 -0.9484 -1.2406
 3697TIP3    H232651   5.626   4.004   7.810  1.0419  0.1067  1.4989
 3698TIP3   OH232652   6.617   5.280   0.639  0.2355 -0.2094 -0.1546
 3698TIP3    H132653   6.547   5.345   0.636  0.0178 -0.3296  1.3327
 3698TIP3    H232654   6.625   5.258   0.732  0.9585 -1.5968 -0.5144
 3699TIP3   OH232655   6.250   3.921   0.203  0.5278 -0.0506 -0.1062
 3699TIP3    H132656   6.254   3.954   0.113 -0.2243 -0.2100 -0.2045
 3699TIP3    H232657   6.314   3.974   0.251  0.1420  0.7986 -0.5003
 3700TIP3   OH232658   5.419   6.699   0.249  0.4590 -0.1260 -0.2982
 3700TIP3    H132659   5.464   6.624   0.289  0.4076 -0.4548 -0.8567
 3700TIP3    H232660   5.394   6.754   0.324 -0.2647 -1.0832  0.1825
 3701TIP3   OH232661   4.940   0.069   8.448 -0.1764 -0.2248  0.0595
 3701TIP3    H132662   5.010   0.133   8.465 -0.8139  0.9185 -1.3607
 3701TIP3    H232663   4.865   0.122   8.423 -1.6343 -1.4259  1.6520
 3702TIP3   OH232664   0.012   0.812   7.987 -0.2466 -0.0617  0.6206
 3702TIP3    H132665   0.076   0.862   8.038  0.2154 -1.1685  1.1521
 3702TIP3    H232666  -0.043   0.879   7.946  0.3360  0.8813  1.3296
 3703TIP3   OH232667   6.457   2.897   6.145  1.2139  0.0570  0.5950
 3703TIP3    H132668   6.419   2.881   6.231  2.6595  1.5965  1.5860
 3703TIP3    H232669   6.413   2.976   6.113  1.6270  0.2608  0.5242
 3704TIP3   OH232670   4.513   4.892   8.044 -0.1277  0.1836 -0.3348
 3704TIP3    H132671   4.456   4.857   7.976 -1.1438 -2.3725  1.6565
 3704TIP3    H232672   4.602   4.882   8.010 -0.6469 -0.1425 -1.6323
 3705TIP3   OH232673   4.174   2.333   0.066 -0.3207  0.0277  0.2331
 3705TIP3    H132674   4.093   2.285   0.079 -0.2948 -0.2663 -0.6425
 3705TIP3    H232675   4.149   2.410   0.014 -0.4219  1.1618  1.8789
 3706TIP3   OH232676   5.710   0.493   7.544  0.3591  0.3460  0.2154
 3706TIP3    H132677   5.644   0.459   7.485  1.2498 -0.5375 -0.2894
 3706TIP3    H232678   5.765   0.418   7.565  1.5341  1.1710  0.1826
 3707TIP3   OH232679   0.635   2.761   5.913 -0.2808 -0.3624  0.1309
 3707TIP3    H132680   0.646   2.856   5.910 -1.9927 -0.1322  0.1398
 3707TIP3    H232681   0.581   2.740   5.837  0.5105 -1.4237 -0.1738
 3708TIP3   OH232682   2.547   6.182   0.997  0.0005 -0.1025 -0.3199
 3708TIP3    H132683   2.605   6.182   1.073  0.0590  0.6568 -0.3559
 3708TIP3    H232684   2.553   6.093   0.961  0.3883 -0.3054  0.2415
 3709TIP3   OH232685   6.455   3.634   8.632  0.0351 -0.0209 -0.5760
 3709TIP3    H132686   6.434   3.709   8.577 -1.1706  0.2245  0.1884
 3709TIP3    H232687   6.467   3.670   8.720  1.3537 -0.4876 -0.5451
 3710TIP3   OH232688   1.378   0.237   1.528 -0.5227  0.1807 -0.4567
 3710TIP3    H132689   1.374   0.182   1.450  0.8415 -1.0888  0.2924
 3710TIP3    H232690   1.333   0.186   1.595  0.1848  0.2556  0.0881
 3711TIP3   OH232691   0.143   0.754   1.604 -0.1411 -0.5235  0.1976
 3711TIP3    H132692   0.078   0.818   1.633 -0.0451 -0.1717 -0.3419
 3711TIP3    H232693   0.101   0.669   1.619 -0.5974 -0.3094  0.1640
 3712TIP3   OH232694   5.708   6.449   6.328 -0.1791 -0.3554 -0.0866
 3712TIP3    H132695   5.789   6.397   6.330  0.7029  0.8119 -2.0126
 3712TIP3    H232696   5.647   6.396   6.277 -0.3519 -0.8741  0.6535
 3713TIP3   OH232697   1.925   1.639   0.336  0.9880 -0.2621  0.4738
 3713TIP3    H132698   1.943   1.594   0.418 -2.9544 -2.3664  0.4362
 3713TIP3    H232699   1.885   1.722   0.362  1.6292  0.0021  0.6270
 3714TIP3   OH232700   4.023   6.301   6.977  0.0584  0.1406  0.3820
 3714TIP3    H132701   4.006   6.249   7.056 -0.5201 -1.2235 -0.6070
 3714TIP3    H232702   4.108   6.269   6.946 -0.5502 -0.6596 -0.5324
 3715TIP3   OH232703   5.252   1.827   8.387 -0.5700  0.4852 -0.3004
 3715TIP3    H132704   5.161   1.799   8.381 -0.5741  0.8491 -3.5746
 3715TIP3    H232705   5.301   1.745   8.402 -1.2880 -0.0169 -0.6336
 3716TIP3   OH232706   3.521   6.668   0.629 -0.4943  0.1400 -0.0125
 3716TIP3    H132707   3.451   6.622   0.676 -1.6786  0.8254 -1.0288
 3716TIP3    H232708   3.479   6.699   0.549  0.8330  1.1188 -0.3633
 3717TIP3   OH232709   1.326   4.577   6.517 -0.2413 -0.2467  0.4887
 3717TIP3    H132710   1.294   4.540   6.435  0.5042  1.3028 -0.5648
 3717TIP3    H232711   1.278   4.659   6.527  1.3523  0.7630  0.3017
 3718TIP3   OH232712   4.015   5.255   2.474  0.3374  0.2638 -0.1907
 3718TIP3    H132713   4.105   5.228   2.456  0.0982  0.7669 -2.3597
 3718TIP3    H232714   3.970   5.173   2.499  0.3089 -1.0299 -3.8444
 3719TIP3   OH232715   0.575   5.464   8.256  0.2121 -0.6538  0.3782
 3719TIP3    H132716   0.551   5.509   8.336 -0.4079 -2.0563  1.0103
 3719TIP3    H232717   0.665   5.436   8.270  0.8663  1.0087 -0.3250
 3720TIP3   OH232718   5.574   6.656   1.315  0.3410  0.0516  0.2408
 3720TIP3    H132719   5.504   6.615   1.264  1.2139 -0.8997 -0.2403
 3720TIP3    H232720   5.581   6.745   1.280 -0.6666  0.1826  0.3537
 3721TIP3   OH232721   2.855   1.231   8.633 -0.6274  0.4743  0.5371
 3721TIP3    H132722   2.852   1.231   8.729  0.6395 -1.0095  0.6263
 3721TIP3    H232723   2.847   1.139   8.609 -2.5024  0.9530 -0.8989
 3722TIP3   OH232724   0.316   2.937   1.623 -0.0953  0.0984  0.0512
 3722TIP3    H132725   0.346   2.988   1.698  1.9164 -1.3903  0.3367
 3722TIP3    H232726   0.239   2.890   1.655 -0.1022  0.5668  0.7450
 3723TIP3   OH232727   1.261   4.349   0.341 -0.1330 -0.2667 -0.1839
 3723TIP3    H132728   1.191   4.304   0.295  0.6532 -1.0107 -0.6747
 3723TIP3    H232729   1.300   4.407   0.276 -1.9206  2.1639  0.7293
 3724TIP3   OH232730   2.587   2.990   0.008 -0.8691 -0.3080  0.2578
 3724TIP3    H132731   2.506   3.040  -0.002 -1.0750 -0.6909  0.0008
 3724TIP3    H232732   2.613   2.967  -0.081 -0.7667 -0.6470  0.3725
 3725TIP3   OH232733   2.950   3.924   0.801  0.0820  0.3537  0.5736
 3725TIP3    H132734   3.029   3.891   0.845  1.0280 -0.8325 -1.7753
 3725TIP3    H232735   2.888   3.852   0.808  0.4362 -0.0733 -0.4148
 3726TIP3   OH232736   1.502   0.898   8.231 -0.7231  0.2959 -0.0643
 3726TIP3    H132737   1.441   0.871   8.300 -2.3630 -0.3632 -1.6750
 3726TIP3    H232738   1.493   0.831   8.164  2.3272 -0.1694 -0.1381
 3727TIP3   OH232739   1.921   0.644   1.236  0.1038  0.5834 -0.1322
 3727TIP3    H132740   1.877   0.605   1.311  0.2113 -0.0344 -0.3872
 3727TIP3    H232741   1.854   0.701   1.196 -0.1600  0.3965  0.0433
 3728TIP3   OH232742   1.614   3.370   6.227  0.6006  0.3041  0.0035
 3728TIP3    H132743   1.623   3.460   6.258 -1.3384  0.9233 -1.0998
 3728TIP3    H232744   1.548   3.331   6.285 -0.9187  0.6026 -1.4430
 3729TIP3   OH232745   5.944   1.370   7.186  0.1481  0.0604  0.3541
 3729TIP3    H132746   5.935   1.333   7.273 -1.3884  0.6179  0.4604
 3729TIP3    H232747   5.858   1.359   7.146  0.6606  0.3403 -0.8922
 3730TIP3   OH232748   3.784   0.268   6.789  0.3277 -0.3131  0.3998
 3730TIP3    H132749   3.709   0.290   6.734  1.4889  0.7274 -0.8125
 3730TIP3    H232750   3.858   0.262   6.729  1.6492  0.8478  1.8221
 3731TIP3   OH232751   3.523   1.688   0.690  0.0457 -0.0851 -0.5408
 3731TIP3    H132752   3.480   1.738   0.760 -1.5412 -0.2498 -1.3612
 3731TIP3    H232753   3.512   1.596   0.716  0.8730 -0.1017 -0.2214
 3732TIP3   OH232754   4.244   6.281   8.245 -0.4059  0.0283 -0.3423
 3732TIP3    H132755   4.280   6.201   8.207 -0.0999  0.4377 -0.9235
 3732TIP3    H232756   4.153   6.283   8.216 -0.8292 -0.8357  0.8521
 3733TIP3   OH232757   2.336   0.753   1.063 -0.7482 -0.0588  0.2256
 3733TIP3    H132758   2.424   0.738   1.096 -0.0314  1.8580 -0.7099
 3733TIP3    H232759   2.284   0.770   1.142  0.3181  1.5467  0.6263
 3734TIP3   OH232760   4.144   3.755   7.748  0.0468  0.4865 -0.0928
 3734TIP3    H132761   4.094   3.835   7.768 -2.3754 -0.2572 -2.5659
 3734TIP3    H232762   4.184   3.773   7.663 -0.7789 -0.9966 -0.8280
 3735TIP3   OH232763   0.462   1.762   8.598  0.3206  0.3838 -0.0137
 3735TIP3    H132764   0.469   1.802   8.684  1.0867  0.7129 -0.2197
 3735TIP3    H232765   0.432   1.832   8.541  0.2223  0.2771 -0.0938
 3736TIP3   OH232766   5.719   5.969   1.370 -0.6463  0.2580 -0.6658
 3736TIP3    H132767   5.798   6.001   1.414  0.0033  0.0261 -1.6267
 3736TIP3    H232768   5.648   6.021   1.406 -0.1163  0.1885  0.5207
 3737TIP3   OH232769   0.527   6.818   0.914  0.1984 -0.0161  0.2193
 3737TIP3    H132770   0.439   6.849   0.935  0.5347 -0.3128  2.2422
 3737TIP3    H232771   0.571   6.894   0.877 -0.6212  0.3817  0.0277
 3738TIP3   OH232772   5.418   1.883   0.308 -0.2295 -0.2504 -0.1694
 3738TIP3    H132773   5.429   1.906   0.216 -3.0999  1.0033 -0.2963
 3738TIP3    H232774   5.341   1.825   0.309 -1.1812  0.9499  1.5278
 3739TIP3   OH232775   2.293   4.022   1.113 -0.2864 -0.8617 -0.3471
 3739TIP3    H132776   2.314   4.096   1.056  1.6627 -0.2745  1.0145
 3739TIP3    H232777   2.233   3.968   1.062 -0.2951  0.7053 -2.0944
 3740TIP3   OH232778   1.674   1.077   7.866 -0.1119  0.2756 -0.1273
 3740TIP3    H132779   1.600   1.138   7.870 -0.8275 -0.6354  1.1438
 3740TIP3    H232780   1.634   0.991   7.860  0.8494 -0.2430  0.7178
 3741TIP3   OH232781   3.770   6.287   0.990  0.2545  0.7431 -0.0627
 3741TIP3    H132782   3.722   6.343   0.928  0.0268 -0.0909 -0.6644
 3741TIP3    H232783   3.702   6.252   1.048  0.3550  0.8380  0.1138
 3742TIP3   OH232784   4.207   0.933   1.217  0.0287  0.5372 -0.0065
 3742TIP3    H132785   4.180   0.957   1.128 -1.8920  2.7397  1.0523
 3742TIP3    H232786   4.207   0.837   1.217 -2.6925  0.4314 -1.6548
 3743TIP3   OH232787   5.148   4.104   7.768 -0.4237 -0.0103  0.3842
 3743TIP3    H132788   5.076   4.047   7.745 -0.4297 -1.1307  2.8757
 3743TIP3    H232789   5.160   4.160   7.691 -0.8445 -2.8732 -1.9146
 3744TIP3   OH232790   5.442   0.568   0.347 -0.3932  0.3482 -0.2640
 3744TIP3    H132791   5.483   0.651   0.323 -0.0259 -0.2733 -1.9601
 3744TIP3    H232792   5.507   0.522   0.399 -0.3840  0.8943  0.2040
 3745TIP3   OH232793   5.001   4.140   2.136  0.1731 -0.3786  0.3130
 3745TIP3    H132794   5.044   4.225   2.148 -1.8391  0.8213 -0.5025
 3745TIP3    H232795   5.012   4.095   2.220 -1.2534  1.9278  1.8509
 3746TIP3   OH232796   5.751   2.072   0.831 -0.0968 -0.1748 -0.3219
 3746TIP3    H132797   5.793   2.129   0.767 -1.5866  0.4796 -0.7536
 3746TIP3    H232798   5.714   2.131   0.896 -1.5109 -0.6361 -0.6821
 3747TIP3   OH232799   4.846   0.211   8.702 -0.3753 -0.2495 -0.2390
 3747TIP3    H132800   4.756   0.207   8.736 -0.2612  0.2222  0.1219
 3747TIP3    H232801   4.848   0.289   8.648  0.1786  0.5130  0.8361
 3748TIP3   OH232802   6.685   5.201   6.744  0.2485  0.0168 -0.0412
 3748TIP3    H132803   6.653   5.276   6.793 -0.1823 -0.0101 -0.2777
 3748TIP3    H232804   6.719   5.238   6.662  0.0093 -0.0448 -0.1708
 3749TIP3   OH232805   1.259   0.569   2.130 -0.1586 -0.1220  0.1461
 3749TIP3    H132806   1.236   0.653   2.090  1.2511 -0.1407 -0.7765
 3749TIP3    H232807   1.178   0.540   2.173 -1.6263  0.1845 -2.2087
 3750TIP3   OH232808   3.377   3.354   7.260  0.2699 -0.0768  0.2118
 3750TIP3    H132809   3.358   3.447   7.274 -0.1277 -0.2078  0.5982
 3750TIP3    H232810   3.418   3.327   7.342 -0.4478 -0.4477  0.4608
 3751TIP3   OH232811   0.534   6.188   1.622  0.1920 -0.0149 -0.2854
 3751TIP3    H132812   0.514   6.129   1.549 -1.3582  0.8651 -0.6288
 3751TIP3    H232813   0.526   6.276   1.585  0.5921  0.4399  0.6651
 3752TIP3   OH232814   0.649   2.509   1.887 -0.2857 -0.6883 -0.4087
 3752TIP3    H132815   0.684   2.423   1.861  0.5095 -0.4449 -0.1605
 3752TIP3    H232816   0.562   2.512   1.847  0.5387 -0.6974 -2.3020
 3753TIP3   OH232817   2.702   5.965   7.241  0.0590 -0.2105  0.2673
 3753TIP3    H132818   2.681   5.874   7.265 -1.9209  0.5379  1.6294
 3753TIP3    H232819   2.617   6.008   7.234  0.9692  1.6301 -0.0727
 3754TIP3   OH232820   1.386   2.401   7.625  0.1154 -0.2068  0.4778
 3754TIP3    H132821   1.351   2.459   7.693  2.1968  1.0040  0.6247
 3754TIP3    H232822   1.400   2.458   7.550  0.5241 -0.9024  0.0148
 3755TIP3   OH232823   2.350   0.561   0.637  0.0722 -0.4427 -0.1468
 3755TIP3    H132824   2.268   0.559   0.588  0.5999 -1.2545 -1.0198
 3755TIP3    H232825   2.322   0.556   0.729 -0.8187 -3.1947 -0.4699
 3756TIP3   OH232826   1.583   3.817   8.682 -0.7804  0.5670  0.5829
 3756TIP3    H132827   1.646   3.805   8.612 -0.9223  0.3933  0.4847
 3756TIP3    H232828   1.610   3.898   8.726 -0.4950  0.4948  0.5376
 3757TIP3   OH232829   2.254   0.403   2.342 -0.2657  0.3628 -0.0523
 3757TIP3    H132830   2.294   0.436   2.422  0.3495  0.1951 -0.2826
 3757TIP3    H232831   2.231   0.482   2.292  2.0538  0.4842 -1.0229
 3758TIP3   OH232832   3.644   2.211   6.437 -0.5012 -0.0462 -0.5059
 3758TIP3    H132833   3.556   2.245   6.421 -0.4882 -0.0258 -0.5348
 3758TIP3    H232834   3.631   2.121   6.467 -0.5668  0.1856  0.1754
 3759TIP3   OH232835   4.489   3.915   7.955  0.4650  0.1746  0.5208
 3759TIP3    H132836   4.462   3.839   8.007  1.0751 -1.2426 -1.1599
 3759TIP3    H232837   4.499   3.882   7.866  1.6919  2.0258 -0.0953
 3760TIP3   OH232838   2.155   5.178   1.011 -0.6921 -0.5875 -0.0218
 3760TIP3    H132839   2.159   5.271   0.989  0.3103 -0.8430 -1.0255
 3760TIP3    H232840   2.153   5.133   0.927  1.5720 -1.5504  0.3482
 3761TIP3   OH232841   0.885   4.629   8.203 -0.0140 -0.4060  0.3119
 3761TIP3    H132842   0.900   4.620   8.297 -1.2452 -0.9715  0.4786
 3761TIP3    H232843   0.801   4.675   8.196  0.6913  0.7950 -0.5274
 3762TIP3   OH232844   1.141   3.321   7.468 -0.1801 -0.1879 -0.3324
 3762TIP3    H132845   1.079   3.253   7.442 -1.2185  0.7834 -0.4575
 3762TIP3    H232846   1.227   3.280   7.458 -0.7647 -1.3311 -0.8292
 3763TIP3   OH232847   3.173   2.812   2.079 -0.0400 -0.4660  0.2458
 3763TIP3    H132848   3.201   2.886   2.132  0.5043 -0.9453  0.6440
 3763TIP3    H232849   3.215   2.736   2.120  2.5708 -0.5923 -2.3480
 3764TIP3   OH232850   5.219   0.855   1.356  0.3413 -0.5095  0.4600
 3764TIP3    H132851   5.211   0.841   1.262  0.4082 -0.4860  0.4511
 3764TIP3    H232852   5.128   0.859   1.387  0.3122 -0.0012  0.3201
 3765TIP3   OH232853   2.735   3.800   0.419 -0.7712 -0.4325  0.2892
 3765TIP3    H132854   2.805   3.805   0.484  1.5981 -0.1245 -2.0818
 3765TIP3    H232855   2.741   3.711   0.384 -0.4158  0.0881 -1.0515
 3766TIP3   OH232856   5.944   3.124   1.547  0.2916  0.2150  0.4136
 3766TIP3    H132857   5.961   3.074   1.467 -1.5394 -2.6568  1.6270
 3766TIP3    H232858   6.006   3.089   1.611 -0.8852 -0.4377  1.2354
 3767TIP3   OH232859   6.415   6.015   1.463  0.0272 -0.0784 -0.1077
 3767TIP3    H132860   6.332   5.976   1.492  0.2388 -0.8060 -0.4736
 3767TIP3    H232861   6.439   6.074   1.535  0.5658 -1.8961  1.2758
 3768TIP3   OH232862   3.981   5.900   2.368 -0.5148  0.1683  0.0301
 3768TIP3    H132863   3.907   5.960   2.379  0.3254  1.4118 -0.7951
 3768TIP3    H232864   3.975   5.841   2.444 -1.3286  1.3502  0.9303
 3769TIP3   OH232865   4.792   5.274   7.029 -0.7085  0.0619  0.1530
 3769TIP3    H132866   4.757   5.362   7.030  0.6352  0.6250  0.9209
 3769TIP3    H232867   4.866   5.278   6.968 -0.0213 -0.2591  0.9466
 3770TIP3   OH232868   2.015   3.482   7.684  0.0677  0.3513  0.9328
 3770TIP3    H132869   1.951   3.414   7.662  0.5984  0.0173  0.3746
 3770TIP3    H232870   1.962   3.560   7.703 -0.4858  0.2273 -0.0332
 3771TIP3   OH232871   5.419   0.104   0.091  0.0044 -0.1257 -0.5034
 3771TIP3    H132872   5.434   0.191   0.130  0.1007 -0.1956 -0.3849
 3771TIP3    H232873   5.429   0.043   0.164  1.4213 -0.3615 -0.8585
 3772TIP3   OH232874   1.579   6.252   7.150  0.1285 -0.3387  0.3351
 3772TIP3    H132875   1.540   6.312   7.213  0.5457 -1.0565  1.2886
 3772TIP3    H232876   1.618   6.309   7.083 -1.6953  0.4134 -0.1547
 3773TIP3   OH232877   3.872   0.668   0.454 -0.0608 -0.0494 -0.4347
 3773TIP3    H132878   3.820   0.748   0.447 -1.1988 -0.8138 -0.9445
 3773TIP3    H232879   3.937   0.676   0.384  0.3796  0.8013  0.0530
 3774TIP3   OH232880   2.654   2.038   0.899  0.0950 -0.1791  0.6341
 3774TIP3    H132881   2.736   2.072   0.936 -0.5185  1.0069  0.9482
 3774TIP3    H232882   2.644   1.952   0.940  0.2109  0.4661  2.0937
 3775TIP3   OH232883   0.651   4.633   6.741 -0.0683 -0.0350 -0.4282
 3775TIP3    H132884   0.573   4.672   6.702 -0.0448 -0.1806 -0.6211
 3775TIP3    H232885   0.665   4.683   6.821  0.2174  0.6373 -0.8912
 3776TIP3   OH232886   3.039   6.740   0.238 -0.0249 -0.7139  0.1480
 3776TIP3    H132887   2.984   6.671   0.201 -2.1235  1.8183 -1.8319
 3776TIP3    H232888   3.128   6.706   0.231 -0.9114 -2.9419 -1.3853
 3777TIP3   OH232889   1.630   1.480   1.661  0.2206  0.0671  0.5217
 3777TIP3    H132890   1.665   1.521   1.741  0.6066  3.2795 -1.1347
 3777TIP3    H232891   1.556   1.536   1.637  0.1004 -0.8426 -1.3604
 3778TIP3   OH232892   4.799   2.441   1.024  0.2203  0.6078  0.1772
 3778TIP3    H132893   4.741   2.364   1.024  0.5671  0.3122 -1.1742
 3778TIP3    H232894   4.806   2.465   0.931  1.3113  1.3626  0.4392
 3779TIP3   OH232895   0.293   0.917   2.423 -0.0989 -0.1823  0.1684
 3779TIP3    H132896   0.383   0.946   2.403 -0.5448  2.3010  1.3676
 3779TIP3    H232897   0.302   0.865   2.503  0.2256  0.6994  0.7273
 3780TIP3   OH232898   4.834   1.666   0.265 -0.1015 -0.3771 -0.4113
 3780TIP3    H132899   4.916   1.713   0.282 -0.2035  0.1271 -1.2931
 3780TIP3    H232900   4.767   1.719   0.309 -0.0508 -0.4084 -0.2948
 3781TIP3   OH232901   4.125   2.522   6.882  0.0270 -0.0949  0.1439
 3781TIP3    H132902   4.147   2.591   6.820 -2.1825  1.9098  1.4168
 3781TIP3    H232903   4.191   2.528   6.950 -0.7782  1.6345  0.8250
 3782TIP3   OH232904   3.654   4.063   7.321  0.1329  0.3312  0.2217
 3782TIP3    H132905   3.686   4.111   7.244 -0.9516 -1.3262 -1.3615
 3782TIP3    H232906   3.613   4.130   7.376 -0.8681  1.3327 -1.6438
 3783TIP3   OH232907   1.654   4.345   0.764  0.3745  0.8084  0.3220
 3783TIP3    H132908   1.628   4.274   0.823 -1.5170  2.9168  2.2410
 3783TIP3    H232909   1.578   4.403   0.762  1.3237  2.1066 -2.2926
 3784TIP3   OH232910   1.873   2.044   7.403 -0.1822 -0.5163  0.2591
 3784TIP3    H132911   1.873   2.136   7.428 -1.4329 -0.2732 -0.5479
 3784TIP3    H232912   1.879   2.045   7.307  0.7285 -1.3109  0.2904
 3785TIP3   OH232913   0.740   1.638   8.707  0.1602 -0.2246 -0.4824
 3785TIP3    H132914   0.810   1.673   8.652 -0.1412  0.0488 -0.6935
 3785TIP3    H232915   0.710   1.559   8.661 -1.2146  0.8890 -1.6013
 3786TIP3   OH232916   1.900   6.827   6.743  0.1201 -0.2378 -0.1185
 3786TIP3    H132917   1.835   6.879   6.696  0.4786 -0.7064 -1.1807
 3786TIP3    H232918   1.966   6.807   6.676  0.5616 -1.0780  0.5547
 3787TIP3   OH232919   2.066   0.248   7.372 -0.1198 -0.5517 -0.4147
 3787TIP3    H132920   2.031   0.305   7.303  1.1396  0.7902 -0.0068
 3787TIP3    H232921   2.076   0.162   7.330 -1.3238 -0.2873 -1.2765
 3788TIP3   OH232922   1.255   1.459   0.509  0.0573  0.1277  0.2146
 3788TIP3    H132923   1.332   1.406   0.487 -0.0243 -0.4901  1.3331
 3788TIP3    H232924   1.291   1.547   0.524  0.4187  0.0430 -0.1253
 3789TIP3   OH232925   4.348   5.023   1.752 -0.4378 -0.0109  0.4271
 3789TIP3    H132926   4.259   4.987   1.748  0.0211 -1.1792  0.1316
 3789TIP3    H232927   4.394   4.964   1.812  0.2656  0.2678  0.1708
 3790TIP3   OH232928   0.408   2.638   6.545  0.2235  0.4071 -0.2174
 3790TIP3    H132929   0.386   2.598   6.462 -0.3675 -1.7379  0.9086
 3790TIP3    H232930   0.499   2.613   6.561 -0.2057 -0.7107  0.5811
 3791TIP3   OH232931   6.475   6.711   8.519  0.0177 -0.0305  0.3525
 3791TIP3    H132932   6.434   6.757   8.446  0.0454  0.0641  0.3963
 3791TIP3    H232933   6.410   6.715   8.589 -0.0147 -0.1337  0.3277
 3792TIP3   OH232934   3.670   1.126   7.648  0.0307  0.2441  0.5937
 3792TIP3    H132935   3.702   1.036   7.641  0.1785  0.2662  0.9531
 3792TIP3    H232936   3.734   1.169   7.704 -0.7155  0.2547  1.4541
 3793TIP3   OH232937   0.912   4.850   7.404  0.7374 -0.8715 -0.2380
 3793TIP3    H132938   0.979   4.911   7.376  0.5410 -0.6541 -0.2348
 3793TIP3    H232939   0.851   4.902   7.455  0.5428 -1.0583 -0.2756
 3794TIP3   OH232940   0.072   2.732   0.131 -0.4730 -0.0326  0.1035
 3794TIP3    H132941   0.117   2.772   0.206  0.1719 -2.1554  0.9417
 3794TIP3    H232942   0.077   2.798   0.062 -0.8255  1.8876  1.8083
 3795TIP3   OH232943   2.439   6.511   0.303  0.3259 -0.1955 -0.3585
 3795TIP3    H132944   2.493   6.455   0.248  0.0897 -1.0067  0.2135
 3795TIP3    H232945   2.500   6.550   0.365  0.5601  0.5535 -1.0447
 3796TIP3   OH232946   1.880   0.760   7.449 -0.4785  0.0263  0.5200
 3796TIP3    H132947   1.942   0.824   7.415 -0.8819  1.0056  1.5545
 3796TIP3    H232948   1.796   0.784   7.410 -0.0790 -2.2061 -2.0970
 3797TIP3   OH232949   3.335   0.093   7.751  0.0891  0.2136  0.0271
 3797TIP3    H132950   3.275   0.113   7.680 -0.8227 -1.4813  0.2799
 3797TIP3    H232951   3.392   0.170   7.757 -0.2955  0.7003 -2.0142
 3798TIP3   OH232952   2.082   6.437   7.828  0.5727  0.1713 -0.4250
 3798TIP3    H132953   2.072   6.533   7.828 -1.8601  0.0117  0.5733
 3798TIP3    H232954   2.051   6.410   7.741  1.2392  0.2812 -0.6992
 3799TIP3   OH232955   5.756   6.504   1.064 -0.1660 -0.2234  0.6206
 3799TIP3    H132956   5.675   6.530   1.019 -0.1648  0.2372  0.8699
 3799TIP3    H232957   5.824   6.559   1.024 -0.1310  0.0412  1.0343
 3800TIP3   OH232958   0.611   3.407   0.992 -0.8897 -0.4284  0.1874
 3800TIP3    H132959   0.576   3.355   0.919 -3.7256  0.4188  0.8341
 3800TIP3    H232960   0.570   3.493   0.983  0.9414  0.6181  1.1887
 3801TIP3   OH232961   0.862   6.794   0.329  0.0700 -0.2621 -0.0210
 3801TIP3    H132962   0.957   6.806   0.328  0.0682 -0.1252 -1.3966
 3801TIP3    H232963   0.848   6.707   0.293 -0.3686  0.4314 -1.6212
 3802TIP3   OH232964   6.327   2.465   7.541 -0.4244  0.4108  0.3786
 3802TIP3    H132965   6.255   2.484   7.480  0.6465 -0.1157 -1.1004
 3802TIP3    H232966   6.351   2.374   7.522  0.9324  0.7252  0.4941
 3803TIP3   OH232967   0.691   3.732   0.098 -0.0145 -0.2877 -0.3344
 3803TIP3    H132968   0.660   3.718   0.008  1.1841 -0.9094 -0.6608
 3803TIP3    H232969   0.781   3.701   0.098 -0.0459 -0.4372  1.1333
 3804TIP3   OH232970   2.891   6.548   0.942  0.5955  0.4861  0.3386
 3804TIP3    H132971   2.797   6.544   0.964  0.5095  0.7831  0.0205
 3804TIP3    H232972   2.932   6.488   1.005  0.0458 -0.6159 -0.3223
 3805TIP3   OH232973   5.505   0.372   8.418  0.0486  0.1082 -0.9680
 3805TIP3    H132974   5.466   0.297   8.463  1.7833  0.2619  0.9504
 3805TIP3    H232975   5.439   0.400   8.356 -1.0998 -2.3083 -0.9364
 3806TIP3   OH232976   5.680   2.514   8.001 -0.1183  0.3084 -0.0707
 3806TIP3    H132977   5.704   2.603   7.973  1.0310 -0.0430 -0.2104
 3806TIP3    H232978   5.695   2.460   7.923 -0.1128 -0.1303  0.2382
 3807TIP3   OH232979   1.049   0.094   6.479  0.0170 -0.3528 -0.1929
 3807TIP3    H132980   1.064   0.163   6.544  0.7462  0.9143 -1.6476
 3807TIP3    H232981   0.964   0.058   6.502 -1.3508  2.3914 -0.5471
 3808TIP3   OH232982   2.830   1.206   6.582 -0.5990 -0.4110  0.0216
 3808TIP3    H132983   2.867   1.286   6.547 -1.8544  1.0501  1.8165
 3808TIP3    H232984   2.876   1.136   6.536  1.1614  1.3032 -0.9837
 3809TIP3   OH232985   5.567   0.041   8.378  0.5475 -0.3997  0.0993
 3809TIP3    H132986   5.655   0.051   8.417  0.0716  2.4218  0.6689
 3809TIP3    H232987   5.508   0.050   8.452 -0.2803 -1.4504 -0.4125
 3810TIP3   OH232988   6.719   2.998   6.050  0.6529  0.0246  0.1856
 3810TIP3    H132989   6.685   3.048   5.976  0.1696  1.2335  1.1924
 3810TIP3    H232990   6.648   2.940   6.074  0.4697  0.2898  0.2857
 3811TIP3   OH232991   1.874   3.921   0.333  0.2413 -0.3292  0.7696
 3811TIP3    H132992   1.966   3.902   0.354  0.1820  0.0276  1.3689
 3811TIP3    H232993   1.830   3.923   0.418  0.0605  1.4615  0.6707
 3812TIP3   OH232994   0.162   6.749   6.765  0.1286  0.0980 -0.1909
 3812TIP3    H132995   0.156   6.713   6.854  1.8366  1.0526  0.3431
 3812TIP3    H232996   0.077   6.727   6.726  0.0280 -2.0000  1.0185
 3813TIP3   OH232997   1.333   0.551   0.226 -0.5607 -0.8175 -0.4300
 3813TIP3    H132998   1.299   0.483   0.283 -0.8576 -0.2799  0.0519
 3813TIP3    H232999   1.271   0.624   0.236 -0.3667 -0.5489 -1.0905
 3814TIP3   OH233000   5.137   4.889   7.173 -0.0518 -0.4391 -0.3274
 3814TIP3    H133001   5.086   4.853   7.100 -0.5401 -0.8750  0.2200
 3814TIP3    H233002   5.187   4.961   7.134 -0.3930 -0.5943 -1.0680
 3815TIP3   OH233003   3.548   4.196   0.812 -0.5446 -0.0804 -0.0488
 3815TIP3    H133004   3.547   4.267   0.876 -0.4023  0.5165 -0.7024
 3815TIP3    H233005   3.606   4.130   0.851 -2.1779 -0.7010  1.4515
 3816TIP3   OH233006   5.297   4.968   7.683  0.1361 -0.5005 -0.5334
 3816TIP3    H133007   5.344   5.050   7.671 -1.3869  0.3729 -0.6864
 3816TIP3    H233008   5.253   4.952   7.600 -0.5800 -0.8221 -0.1035
 3817TIP3   OH233009   2.077   0.939   7.358 -0.5805  0.3472  0.6206
 3817TIP3    H133010   2.098   1.032   7.351 -0.5813  0.3444  0.5825
 3817TIP3    H233011   2.140   0.905   7.421 -1.4551  0.6503  1.6857
 3818TIP3   OH233012   5.132   2.963   7.633  0.5754  0.5861 -0.0369
 3818TIP3    H133013   5.064   3.031   7.635 -0.2226 -0.1486 -1.1019
 3818TIP3    H233014   5.094   2.891   7.683  0.6625  0.2536 -0.4521
 3819TIP3   OH233015   2.929   0.788   0.014  0.5201  0.0793  0.4032
 3819TIP3    H133016   2.844   0.831   0.010  0.4293  0.0003  1.2505
 3819TIP3    H233017   2.992   0.860   0.017  0.5152  0.1377 -0.6318
 3820TIP3   OH233018   0.481   1.227   0.678  0.1346  0.1157  0.2477
 3820TIP3    H133019   0.484   1.294   0.746  0.8656  1.1419 -0.7571
 3820TIP3    H233020   0.419   1.262   0.613  0.6125 -0.1165 -0.3410
 3821TIP3   OH233021   4.111   0.887   0.272 -0.8335 -0.5403 -0.3421
 3821TIP3    H133022   4.149   0.975   0.272 -1.4357 -0.2780  0.0061
 3821TIP3    H233023   4.065   0.881   0.355  0.8428 -1.9097  0.5503
 3822TIP3   OH233024   6.344   1.905   1.569 -0.0468 -0.0136 -0.3792
 3822TIP3    H133025   6.345   1.831   1.630  0.1070  1.4501  1.4890
 3822TIP3    H233026   6.275   1.883   1.506 -0.0559 -1.6886  0.1595
 3823TIP3   OH233027   0.878   1.276   6.628  0.2917 -0.1291 -0.1298
 3823TIP3    H133028   0.854   1.254   6.718  0.4334  1.0870  0.2223
 3823TIP3    H233029   0.914   1.195   6.592  2.9556  0.0683  1.8314
 3824TIP3   OH233030   0.617   4.101   1.319 -0.9696  0.1239 -0.1877
 3824TIP3    H133031   0.527   4.069   1.332 -0.8751 -0.0744 -0.0166
 3824TIP3    H233032   0.615   4.191   1.352 -0.8523 -0.2110  0.7743
 3825TIP3   OH233033   5.808   1.189   8.458 -0.5839  0.6859  0.4308
 3825TIP3    H133034   5.870   1.254   8.424 -0.6139  0.5517  0.1091
 3825TIP3    H233035   5.849   1.157   8.538  1.7582 -2.1949 -1.6624
 3826TIP3   OH233036   6.021   6.097   7.773 -0.1248 -0.2331  0.3614
 3826TIP3    H133037   5.994   6.130   7.858 -2.0517 -1.7647  0.4140
 3826TIP3    H233038   6.070   6.017   7.792 -0.4918 -0.5383  0.0356
 3827TIP3   OH233039   0.667   0.708   0.553 -0.2404  0.6302 -0.7964
 3827TIP3    H133040   0.584   0.715   0.601  0.1907  1.7355 -0.1582
 3827TIP3    H233041   0.644   0.728   0.462 -1.0289 -1.2488 -1.0579
 3828TIP3   OH233042   2.425   1.891   8.415  0.5574 -0.2260 -0.0939
 3828TIP3    H133043   2.372   1.819   8.382 -0.1249  1.2618 -2.5319
 3828TIP3    H233044   2.399   1.902   8.506 -0.6514 -1.8578 -0.2191
 3829TIP3   OH233045   3.356   4.330   1.965  0.1898 -0.1611 -0.1590
 3829TIP3    H133046   3.288   4.384   2.006  0.9910  0.4800  0.3476
 3829TIP3    H233047   3.382   4.269   2.033  0.9078  0.3382  0.0326
 3830TIP3   OH233048   2.682   2.560   1.077 -0.2238 -0.3006  0.3384
 3830TIP3    H133049   2.710   2.475   1.111 -0.9542 -0.7814 -0.2346
 3830TIP3    H233050   2.651   2.541   0.989 -2.1180  0.2308  0.8560
 3831TIP3   OH233051   5.545   2.008   6.658  0.1674 -0.2848  0.4726
 3831TIP3    H133052   5.451   2.008   6.675 -0.0396  0.1746 -0.6005
 3831TIP3    H233053   5.577   2.090   6.697  0.0371 -0.1940  0.3880
 3832TIP3   OH233054   3.143   1.047   1.672 -0.8731  0.6364  0.2925
 3832TIP3    H133055   3.104   0.984   1.733 -0.1930 -0.3567 -0.2685
 3832TIP3    H233056   3.085   1.044   1.595  0.6365 -1.4186 -0.8572
 3833TIP3   OH233057   1.728   3.599   0.440 -0.0186 -0.2348  0.1756
 3833TIP3    H133058   1.672   3.675   0.423 -0.0716 -0.4420 -0.6357
 3833TIP3    H233059   1.787   3.595   0.364 -0.2648 -1.2209  0.0170
 3834TIP3   OH233060   5.303   6.573   0.705  0.3974  0.0225 -0.0657
 3834TIP3    H133061   5.262   6.493   0.672  0.5814 -0.8643  1.7267
 3834TIP3    H233062   5.229   6.630   0.727  0.2491  0.0778 -0.6938
 3835TIP3   OH233063   2.075   2.649   7.450  0.4428  0.6172  0.2622
 3835TIP3    H133064   2.048   2.702   7.524 -0.3945  0.9217 -0.2552
 3835TIP3    H233065   2.010   2.666   7.382  1.1247  0.2536 -0.5093
 3836TIP3   OH233066   5.261   0.095   0.894  0.2494  0.4463 -0.6257
 3836TIP3    H133067   5.229   0.154   0.826 -0.1673 -1.7343 -2.4285
 3836TIP3    H233068   5.188   0.037   0.913  0.4745  0.7865  1.4843
 3837TIP3   OH233069   5.347   3.142   7.751  0.3263 -0.5536 -0.3344
 3837TIP3    H133070   5.270   3.088   7.734  0.0071 -0.2817  0.2129
 3837TIP3    H233071   5.325   3.228   7.715  1.7080 -1.3148 -3.2652
 3838TIP3   OH233072   4.185   0.032   0.767 -0.0061  0.0408  0.4210
 3838TIP3    H133073   4.125  -0.041   0.785 -0.2678  0.2789  0.5147
 3838TIP3    H233074   4.127   0.107   0.751  0.2698  0.2877  0.5898
 3839TIP3   OH233075   1.568   2.433   8.030  0.2770  0.4373 -0.6226
 3839TIP3    H133076   1.629   2.423   7.957 -1.1699  0.1674 -1.8414
 3839TIP3    H233077   1.544   2.526   8.028  2.1496  1.0256  1.1499
 3840TIP3   OH233078   5.910   1.830   7.962 -0.7021 -0.8811  0.1672
 3840TIP3    H133079   5.826   1.787   7.976 -1.3691  0.4095  0.3259
 3840TIP3    H233080   5.940   1.853   8.050  0.2066 -2.0131  0.1709
 3841TIP3   OH233081   2.052   4.665   7.729 -0.4709  0.3201 -0.3694
 3841TIP3    H133082   2.143   4.639   7.711 -0.7280 -0.5062 -0.5290
 3841TIP3    H233083   2.006   4.649   7.646 -0.5419  1.8211 -0.6429
 3842TIP3   OH233084   1.073   0.450   7.898 -0.2768 -0.1826  0.3738
 3842TIP3    H133085   1.031   0.482   7.978  0.4890  1.5641  0.1175
 3842TIP3    H233086   1.130   0.379   7.928  0.7705  1.0955  1.5758
 3843TIP3   OH233087   3.372   4.615   1.090 -0.6674 -0.3547  0.2514
 3843TIP3    H133088   3.315   4.614   1.013 -0.6455  1.4024  0.1622
 3843TIP3    H233089   3.445   4.672   1.064  0.3231 -1.2929  0.9149
 3844TIP3   OH233090   1.299   4.331   8.441 -0.6767 -0.2157  0.1396
 3844TIP3    H133091   1.280   4.238   8.451 -0.1650 -0.6107 -2.1864
 3844TIP3    H233092   1.243   4.360   8.369  0.1872  0.9555 -0.0895
 3845TIP3   OH233093   5.056   1.969   8.206  0.1682  0.2316  0.3537
 3845TIP3    H133094   5.099   2.051   8.228 -0.0578  0.1825  1.0015
 3845TIP3    H233095   5.033   1.930   8.290 -0.7966  0.0722  0.0330
 3846TIP3   OH233096   1.443   5.235   1.325 -0.1206  0.2744  0.0599
 3846TIP3    H133097   1.447   5.211   1.233  0.2696  1.1624 -0.1754
 3846TIP3    H233098   1.505   5.177   1.368  0.5623  0.6213 -0.4352
 3847TIP3   OH233099   0.529   6.600   7.551 -0.0762 -0.4134 -0.4707
 3847TIP3    H133100   0.462   6.651   7.505  0.2735 -0.8595 -1.5158
 3847TIP3    H233101   0.479   6.530   7.594 -0.4211  0.0727 -0.0653
 3848TIP3   OH233102   4.854   5.280   1.989 -0.4160 -0.4723 -0.3166
 3848TIP3    H133103   4.858   5.357   1.932 -3.1547 -0.4594 -0.6366
 3848TIP3    H233104   4.887   5.311   2.074 -0.2634  0.7002 -0.7843
 3849TIP3   OH233105   4.390   6.442   6.571 -0.0788 -0.7577  0.3646
 3849TIP3    H133106   4.364   6.352   6.591  1.8250 -1.7300 -1.1571
 3849TIP3    H233107   4.315   6.479   6.524 -1.2919 -1.1579  1.9092
 3850TIP3   OH233108   1.189   3.566   6.962  0.0057  0.8124 -0.5498
 3850TIP3    H133109   1.170   3.473   6.954 -0.3436  0.8669 -0.4065
 3850TIP3    H233110   1.278   3.576   6.930  0.4928  0.2428  0.5724
 3851TIP3   OH233111   6.190   5.577   1.528  0.0100 -0.4970 -0.2265
 3851TIP3    H133112   6.140   5.505   1.565  0.0066  0.1489  1.0719
 3851TIP3    H233113   6.229   5.621   1.604 -0.8900  1.5248 -0.8796
 3852TIP3   OH233114   6.728   1.174   1.824  0.3131 -0.7509  0.5455
 3852TIP3    H133115   6.661   1.125   1.873  0.9956 -4.0303 -1.5733
 3852TIP3    H233116   6.810   1.153   1.868  0.5641 -1.0899 -0.0889
 3853TIP3   OH233117   3.543   1.316   6.242 -0.1921 -0.2326 -0.5871
 3853TIP3    H133118   3.456   1.283   6.222 -0.7550 -0.0000  1.2834
 3853TIP3    H233119   3.553   1.393   6.186 -1.6287  0.3481 -0.0893
 3854TIP3   OH233120   0.299   1.708   0.219 -0.4271 -0.2963 -0.4516
 3854TIP3    H133121   0.318   1.623   0.181  0.6323  0.1000 -0.8484
 3854TIP3    H233122   0.250   1.755   0.152 -0.5717 -0.4137 -0.4277
 3855TIP3   OH233123   2.757   4.145   1.339 -0.1223 -0.1899  0.0425
 3855TIP3    H133124   2.788   4.157   1.429  0.9335 -1.5932 -0.0976
 3855TIP3    H233125   2.810   4.206   1.287  1.3473 -1.4359  0.0196
 3856TIP3   OH233126   4.427   3.340   1.889  0.3630 -0.0841 -0.0458
 3856TIP3    H133127   4.335   3.351   1.912  0.7558  0.9203  1.1705
 3856TIP3    H233128   4.436   3.246   1.871 -0.5263 -0.5232  1.5912
 3857TIP3   OH233129   1.784   5.957   0.528 -0.0665 -0.3015 -0.0635
 3857TIP3    H133130   1.827   5.933   0.446  1.5149  1.0092  0.3387
 3857TIP3    H233131   1.847   5.932   0.596 -1.0851 -0.7791  0.7358
 3858TIP3   OH233132   3.119   1.740   7.197 -0.1411  0.3584  0.0511
 3858TIP3    H133133   3.206   1.705   7.213 -0.1229  1.0996  1.8415
 3858TIP3    H233134   3.090   1.698   7.116  2.2815  0.8894 -1.1742
 3859TIP3   OH233135   3.416   1.289   7.133  0.5584 -0.4071  0.0708
 3859TIP3    H133136   3.464   1.345   7.071  0.2006 -1.5684 -1.3125
 3859TIP3    H233137   3.480   1.222   7.159  1.3870  1.2631  2.7110
 3860TIP3   OH233138   3.043   6.414   1.766  0.3780 -0.1760  0.2132
 3860TIP3    H133139   3.093   6.492   1.741 -0.7041  0.3135 -0.5044
 3860TIP3    H233140   3.052   6.409   1.861  0.7725  0.6130  0.2258
 3861TIP3   OH233141   4.946   0.424   0.214 -0.8551  0.7871 -0.2981
 3861TIP3    H133142   4.900   0.343   0.236 -0.2396  0.0323 -1.6678
 3861TIP3    H233143   4.980   0.456   0.297  0.1718 -1.1666  0.0960
 3862TIP3   OH233144   5.870   2.815   0.936  0.4304  0.1196  0.0102
 3862TIP3    H133145   5.927   2.892   0.937 -1.5954  1.7375  1.8671
 3862TIP3    H233146   5.886   2.773   1.021 -0.0667 -0.2754 -0.0888
 3863TIP3   OH233147   5.708   4.366   0.019 -0.1719  0.5963 -0.1622
 3863TIP3    H133148   5.651   4.404   0.086 -0.7384 -0.4497 -0.0273
 3863TIP3    H233149   5.654   4.301  -0.025  0.7304  0.0315 -0.4732
 3864TIP3   OH233150   5.089   1.654   6.454  0.1359 -0.2084  0.1079
 3864TIP3    H133151   5.080   1.566   6.418  1.1303 -0.0037 -0.6779
 3864TIP3    H233152   4.999   1.684   6.465 -0.2195 -1.3117  0.3911
 3865TIP3   OH233153   5.810   5.543   8.284  0.2043 -0.6217 -1.1197
 3865TIP3    H133154   5.887   5.567   8.336  0.2369 -0.5500 -1.1990
 3865TIP3    H233155   5.757   5.488   8.342 -0.3182  0.3928 -0.6031
 3866TIP3   OH233156   6.589   4.994   1.844  0.5159  0.0731  0.2928
 3866TIP3    H133157   6.675   4.963   1.817 -0.5688 -1.2255 -2.0277
 3866TIP3    H233158   6.599   5.017   1.936  3.8265  1.9675 -0.3862
 3867TIP3   OH233159   1.007   5.008   1.130  0.2062 -0.5452  0.7276
 3867TIP3    H133160   1.090   5.034   1.089 -0.2071  0.2309  0.3759
 3867TIP3    H233161   1.025   4.920   1.164  1.1495 -0.4264  0.5839
 3868TIP3   OH233162   6.760   3.708   7.388  0.3002  0.3811  0.5055
 3868TIP3    H133163   6.681   3.657   7.406  0.8353 -0.1342  1.4441
 3868TIP3    H233164   6.827   3.642   7.371  0.5122  0.8185 -0.4163
 3869TIP3   OH233165   1.768   4.797   1.899  0.1566  0.4043 -0.0349
 3869TIP3    H133166   1.698   4.762   1.952 -1.0091  2.3192 -0.2124
 3869TIP3    H233167   1.842   4.805   1.959 -0.5285  0.6626  0.7940
 3870TIP3   OH233168   1.771   0.417   1.720 -0.6953  0.1988 -0.0918
 3870TIP3    H133169   1.675   0.417   1.716 -0.7103  2.1974 -1.0614
 3870TIP3    H233170   1.796   0.330   1.689 -2.1833 -0.8201  1.3810
 3871TIP3   OH233171   2.181   2.846   7.159 -0.2365  0.6423  0.6204
 3871TIP3    H133172   2.246   2.800   7.213  0.3206  1.5326  0.7286
 3871TIP3    H233173   2.230   2.919   7.121 -0.7345  0.2949 -0.7373
 3872TIP3   OH233174   4.840   1.557   6.652  0.8391 -0.3431 -0.5618
 3872TIP3    H133175   4.861   1.602   6.570 -1.5542 -1.1811 -1.7194
 3872TIP3    H233176   4.749   1.583   6.671  0.7224 -1.6264  0.8332
 3873TIP3   OH233177   5.093   1.360   7.114 -0.5688  0.5627 -0.1578
 3873TIP3    H133178   5.038   1.435   7.090  0.3589  0.9023 -1.3668
 3873TIP3    H233179   5.083   1.299   7.041  1.9182  1.3853 -1.3316
 3874TIP3   OH233180   2.387   4.763   7.910  0.1529  0.6726  0.1188
 3874TIP3    H133181   2.323   4.697   7.938  1.9968 -1.0414  0.5063
 3874TIP3    H233182   2.366   4.779   7.818 -0.0258 -0.8762 -0.1387
 3875TIP3   OH233183   3.035   3.255   1.025 -0.2900  0.8016  0.5537
 3875TIP3    H133184   3.113   3.235   1.077 -0.5067 -0.4500  0.4145
 3875TIP3    H233185   3.069   3.280   0.939 -0.0639 -0.7092  0.1856
 3876TIP3   OH233186   6.111   2.976   8.481  0.1711  0.4492  0.0134
 3876TIP3    H133187   6.105   2.906   8.416  0.9514 -0.4721  0.8815
 3876TIP3    H233188   6.022   3.010   8.489 -0.4143 -1.0487  0.1950
 3877TIP3   OH233189   3.627   6.658   2.038  0.5405 -0.8463  0.4971
 3877TIP3    H133190   3.534   6.634   2.038  0.5857 -1.0995  1.8305
 3877TIP3    H233191   3.643   6.691   1.950  0.5514 -5.9522 -1.7939
 3878TIP3   OH233192   1.321   2.583   7.848 -0.0848  0.1146  0.0536
 3878TIP3    H133193   1.246   2.614   7.798 -0.6530 -1.1401  0.0810
 3878TIP3    H233194   1.383   2.655   7.846 -1.2033  1.0942 -0.1501
 3879TIP3   OH233195   5.763   2.086   0.061 -0.3009 -0.2276 -0.7217
 3879TIP3    H133196   5.842   2.135   0.038 -0.2499  0.2303  0.3889
 3879TIP3    H233197   5.737   2.044  -0.021  0.6348  0.2606 -1.2914
 3880TIP3   OH233198   4.096   0.139   0.482  0.1874 -0.0786  0.0862
 3880TIP3    H133199   4.028   0.146   0.550 -0.2857  0.0788 -0.3944
 3880TIP3    H233200   4.106   0.045   0.467 -0.9861 -0.0809 -0.8688
 3881TIP3   OH233201   3.745   6.384   8.111  0.4392  0.2856 -0.3126
 3881TIP3    H133202   3.781   6.470   8.091 -0.6087  0.4508 -1.5809
 3881TIP3    H233203   3.727   6.345   8.026 -1.1014 -0.3388  0.2711
 3882TIP3   OH233204   4.719   4.392   7.052 -0.2489 -0.5092 -0.3263
 3882TIP3    H133205   4.756   4.461   7.107 -1.6952  0.0302  0.0043
 3882TIP3    H233206   4.629   4.419   7.036 -0.7369 -2.1311 -0.5050
 3883TIP3   OH233207   6.503   3.902   2.473  0.1270  0.1400  0.0712
 3883TIP3    H133208   6.541   3.969   2.530  1.1444 -0.3027 -0.0542
 3883TIP3    H233209   6.412   3.928   2.462  0.1291  0.6876  1.2228
 3884TIP3   OH233210   3.670   2.431   8.681 -0.4818  0.0868  0.2582
 3884TIP3    H133211   3.619   2.429   8.761 -0.4871  1.3894  0.3106
 3884TIP3    H233212   3.751   2.476   8.704  0.1904 -0.8848 -0.1143
 3885TIP3   OH233213   5.500   2.725   6.653  0.3602 -0.2544  0.3398
 3885TIP3    H133214   5.412   2.740   6.618 -0.1326 -1.9668  0.7427
 3885TIP3    H233215   5.493   2.743   6.746 -0.5536 -3.7239  1.0673
 3886TIP3   OH233216   2.925   6.016   7.756  0.5756  0.1393 -0.6720
 3886TIP3    H133217   3.018   5.998   7.767  1.0522  3.4568  2.8618
 3886TIP3    H233218   2.881   5.940   7.794  1.9912 -0.1547  0.4663
 3887TIP3   OH233219   2.668   5.118   2.383  0.0938  0.0098  0.1495
 3887TIP3    H133220   2.606   5.065   2.434 -1.4090  1.2110 -0.3628
 3887TIP3    H233221   2.754   5.081   2.405 -0.7006 -1.1059  1.6106
 3888TIP3   OH233222   6.498   0.390   0.010 -0.1294 -0.6911 -0.7712
 3888TIP3    H133223   6.568   0.408  -0.053  4.0706 -0.1840  3.4365
 3888TIP3    H233224   6.482   0.296   0.002  1.5273 -0.9514 -1.5654
 3889TIP3   OH233225   2.362   0.478   0.289 -0.0421 -0.0537 -0.2667
 3889TIP3    H133226   2.284   0.426   0.309 -0.7419  1.1682  0.2973
 3889TIP3    H233227   2.432   0.439   0.342 -0.6993 -0.0604  0.6164
 3890TIP3   OH233228   4.924   5.360   0.650  0.4145  0.7567 -0.0755
 3890TIP3    H133229   4.945   5.268   0.634  0.5170  0.9287 -0.9816
 3890TIP3    H233230   4.895   5.393   0.565 -1.6164  1.0454  0.6673
 3891TIP3   OH233231   5.910   1.732   6.373 -0.3422 -0.1880  0.9531
 3891TIP3    H133232   5.842   1.668   6.353 -0.0727 -0.1420 -0.1719
 3891TIP3    H233233   5.863   1.809   6.405 -1.2022  1.1258 -2.9448
 3892TIP3   OH233234   2.699   4.059   0.597  0.5912 -0.3505 -0.1293
 3892TIP3    H133235   2.752   4.053   0.677  1.7516  0.5659 -0.8022
 3892TIP3    H233236   2.679   3.968   0.575  0.9415 -0.6540  0.7530
 3893TIP3   OH233237   3.140   6.827   8.121  0.6858 -0.0885 -0.5669
 3893TIP3    H133238   3.212   6.880   8.153  0.6288  0.0079 -0.5995
 3893TIP3    H233239   3.098   6.793   8.200  1.6680 -1.3612 -0.5502
 3894TIP3   OH233240   0.166   3.205   2.029 -0.2085 -0.5822 -0.1619
 3894TIP3    H133241   0.115   3.207   1.948 -2.0079  1.5487  0.8960
 3894TIP3    H233242   0.116   3.147   2.087  0.6766 -1.5307 -0.3433
 3895TIP3   OH233243   3.355   1.650   6.897  0.0419 -0.4183  0.2567
 3895TIP3    H133244   3.378   1.657   6.805  2.5846 -3.9238  0.4436
 3895TIP3    H233245   3.282   1.587   6.898 -0.7013  0.4187  0.6422
 3896TIP3   OH233246   0.723   0.424   0.236  0.0866  0.2838 -0.2589
 3896TIP3    H133247   0.662   0.396   0.167 -0.1009  0.9243 -0.3623
 3896TIP3    H233248   0.781   0.349   0.249  1.8243  1.0455 -2.9807
 3897TIP3   OH233249   6.546   1.529   7.257  0.1583 -0.2779 -0.2982
 3897TIP3    H133250   6.525   1.487   7.340 -1.1485 -0.2843 -0.6052
 3897TIP3    H233251   6.639   1.551   7.263  0.0405 -0.1148  1.2238
 3898TIP3   OH233252   3.270   5.996   8.480 -0.0706 -0.7397  0.2719
 3898TIP3    H133253   3.311   5.996   8.393 -0.5777  1.6273 -0.0503
 3898TIP3    H233254   3.343   5.988   8.541  0.9579  2.5606 -0.3075
 3899TIP3   OH233255   4.496   3.703   0.629  0.0148 -1.1255 -0.0960
 3899TIP3    H133256   4.496   3.787   0.674 -0.2485 -0.7252 -0.8304
 3899TIP3    H233257   4.540   3.643   0.689  0.3385 -0.4308  0.3631
 3900TIP3   OH233258   3.284   2.042   0.064  0.6747  0.0880 -0.6254
 3900TIP3    H133259   3.375   2.044   0.094  0.2681  1.0332  0.6542
 3900TIP3    H233260   3.248   1.960   0.099  0.9506 -0.1425 -0.8827
 3901TIP3   OH233261   6.843   5.280   6.532  0.3078 -0.6372 -0.2073
 3901TIP3    H133262   6.865   5.311   6.444  0.0126  2.5420  0.6898
 3901TIP3    H233263   6.924   5.291   6.581 -0.2933  0.6572  0.5715
 3902TIP3   OH233264   3.537   2.126   0.905 -0.0651 -0.0455 -0.3991
 3902TIP3    H133265   3.583   2.133   0.822  2.0129  0.4778  0.7462
 3902TIP3    H233266   3.489   2.209   0.913  1.3593  0.7768 -0.1622
 3903TIP3   OH233267   4.492   0.168   7.159  0.3257  0.1008 -0.1826
 3903TIP3    H133268   4.412   0.191   7.112 -0.0775 -1.8605 -0.5283
 3903TIP3    H233269   4.462   0.130   7.241  0.9538  0.8028  0.3828
 3904TIP3   OH233270   1.790   2.390   6.091  0.5580 -0.0873  0.2404
 3904TIP3    H133271   1.781   2.384   6.186 -0.4840 -1.6646  0.0888
 3904TIP3    H233272   1.715   2.341   6.057 -0.4415  2.3704 -1.4403
 3905TIP3   OH233273   6.250   4.004   7.379  0.3807 -0.1689 -0.3739
 3905TIP3    H133274   6.161   3.976   7.399 -0.2955  2.1985  0.2418
 3905TIP3    H233275   6.306   3.939   7.422 -1.0808 -0.1338  1.7163
 3906TIP3   OH233276   5.160   4.252   1.337 -0.2679  0.4549 -0.1854
 3906TIP3    H133277   5.122   4.307   1.268 -0.1727  1.3885  0.4867
 3906TIP3    H233278   5.097   4.181   1.349 -0.7463  0.8121 -0.5697
 3907TIP3   OH233279   6.542   0.554   7.958 -0.6124 -0.2319  0.5461
 3907TIP3    H133280   6.637   0.559   7.947 -0.6324 -2.4114 -1.2138
 3907TIP3    H233281   6.529   0.502   8.037 -0.3225 -0.9762  0.1087
 3908TIP3   OH233282   5.235   2.843   6.956 -0.1276 -0.7707 -0.6790
 3908TIP3    H133283   5.140   2.852   6.960 -0.0502 -0.5015  1.5395
 3908TIP3    H233284   5.263   2.908   6.892 -1.5207 -2.0742 -2.7612
 3909TIP3   OH233285   1.088   2.919   7.908 -0.3107 -0.1220  0.0626
 3909TIP3    H133286   1.159   2.941   7.848  1.4831 -1.2892  1.6398
 3909TIP3    H233287   1.014   2.900   7.851  0.5699  1.2377 -1.6417
 3910TIP3   OH233288   6.506   1.363   6.957 -0.3188 -0.4654  0.3730
 3910TIP3    H133289   6.576   1.328   6.902 -1.1478 -0.7493 -0.5203
 3910TIP3    H233290   6.542   1.444   6.993 -0.0762  0.2296 -1.3387
 3911TIP3   OH233291   2.062   0.246   0.910  0.0080 -0.0418 -0.3038
 3911TIP3    H133292   2.155   0.271   0.911 -0.1948  0.7308  0.1336
 3911TIP3    H233293   2.017   0.320   0.952 -0.7773 -0.5290 -0.2729
 3912TIP3   OH233294   6.532   1.494   7.552 -0.4424 -0.2105 -0.0858
 3912TIP3    H133295   6.606   1.450   7.594  1.3493  1.2056 -1.5848
 3912TIP3    H233296   6.522   1.576   7.599 -0.7758 -0.2009 -0.1696
 3913TIP3   OH233297   2.820   3.248   6.295 -0.6345 -0.4064  0.4210
 3913TIP3    H133298   2.869   3.327   6.271 -1.3215  0.7468  2.5488
 3913TIP3    H233299   2.879   3.201   6.355  0.1667 -2.0760 -1.5814
 3914TIP3   OH233300   1.635   5.430   1.075  0.0432  0.2592 -0.2584
 3914TIP3    H133301   1.668   5.425   1.165 -0.5147 -0.9678 -0.1122
 3914TIP3    H233302   1.713   5.429   1.020  0.3669  0.6176  0.1894
 3915TIP3   OH233303   1.170   3.992   7.098  0.0974 -0.2875 -0.4422
 3915TIP3    H133304   1.187   4.032   7.013 -2.3281  2.5948  0.2515
 3915TIP3    H233305   1.093   3.936   7.083 -0.5360  0.4789 -0.1380
 3916TIP3   OH233306   2.732   5.179   6.689  0.2179  0.0351  0.3603
 3916TIP3    H133307   2.765   5.101   6.644 -1.0775 -0.3862  0.1022
 3916TIP3    H233308   2.784   5.185   6.769  1.9614  0.2905 -0.7444
 3917TIP3   OH233309   6.548   3.585   8.076  0.5104  0.2965  0.7611
 3917TIP3    H133310   6.512   3.625   7.997  0.3243 -1.1051  0.1084
 3917TIP3    H233311   6.595   3.656   8.120  0.5145  1.1279 -0.5403
 3918TIP3   OH233312   6.093   6.199   1.072  0.2952  0.0575  0.3832
 3918TIP3    H133313   6.152   6.259   1.119 -1.1593  0.4619  1.7814
 3918TIP3    H233314   6.106   6.114   1.113  2.2233 -0.6429 -1.4811
 3919TIP3   OH233315   5.924   4.033   6.464 -0.0326  0.1533  0.3657
 3919TIP3    H133316   5.903   4.115   6.510 -0.5379 -0.4396  1.2339
 3919TIP3    H233317   5.911   4.053   6.372  0.3007  1.1823  0.5297
 3920TIP3   OH233318   2.668   4.129   7.624  1.0509 -0.6633 -0.0581
 3920TIP3    H133319   2.668   4.225   7.626 -0.3726 -0.6475  0.7215
 3920TIP3    H233320   2.673   4.107   7.531 -0.7217  0.2302 -0.4228
 3921TIP3   OH233321   3.483   6.816   6.354 -0.2726 -0.0173 -0.1966
 3921TIP3    H133322   3.499   6.905   6.383  0.6707 -0.0389 -0.6318
 3921TIP3    H233323   3.554   6.764   6.393 -0.7509 -0.5610 -0.0307
 3922TIP3   OH233324   4.954   4.619   1.881 -0.4376  0.2476  0.2935
 3922TIP3    H133325   4.955   4.580   1.969 -2.6000 -1.0040 -0.1445
 3922TIP3    H233326   4.980   4.547   1.823  0.2609  0.8632 -0.1807
 3923TIP3   OH233327   0.771   4.636   0.338  0.5672 -0.3741  0.4381
 3923TIP3    H133328   0.783   4.541   0.331 -1.3986 -0.6396  0.0045
 3923TIP3    H233329   0.768   4.667   0.248 -3.4315 -0.6588  0.3022
 3924TIP3   OH233330   4.147   0.887   6.189 -0.4049 -0.4962 -0.6712
 3924TIP3    H133331   4.209   0.951   6.226 -0.7930 -1.4288  1.7554
 3924TIP3    H233332   4.175   0.803   6.225 -2.3545 -1.1076 -0.4879
 3925TIP3   OH233333   2.163   1.299   1.018 -0.4062 -0.6341  0.2156
 3925TIP3    H133334   2.154   1.252   0.935 -0.3049 -1.7193  0.8029
 3925TIP3    H233335   2.080   1.284   1.063  0.2393 -1.6950  1.1102
 3926TIP3   OH233336   2.344   0.249   8.171 -0.1365 -0.0137  0.4745
 3926TIP3    H133337   2.330   0.338   8.137 -0.4075 -0.7864 -1.6179
 3926TIP3    H233338   2.256   0.212   8.179  0.0117 -0.3388  0.6306
 3927TIP3   OH233339   0.704   5.277   8.013  0.1900 -0.2922  0.1350
 3927TIP3    H133340   0.681   5.325   7.933  0.1150  0.2053  0.4449
 3927TIP3    H233341   0.786   5.317   8.042 -1.2154  1.6279  1.9023
 3928TIP3   OH233342   6.808   1.751   1.048  0.0733 -0.2995  0.0008
 3928TIP3    H133343   6.734   1.721   0.995  1.6068 -2.1044 -1.2466
 3928TIP3    H233344   6.850   1.819   0.994 -0.5893  0.6661  0.6721
 3929TIP3   OH233345   6.759   1.745   8.266  0.7665 -0.0541 -0.2209
 3929TIP3    H133346   6.680   1.727   8.318  0.9278  0.2793  0.1460
 3929TIP3    H233347   6.746   1.695   8.186  0.8089 -1.1011  0.4022
 3930TIP3   OH233348   0.086   0.716   6.558  0.3901 -0.4919  1.1878
 3930TIP3    H133349   0.050   0.629   6.575  0.6219 -0.8102  0.0948
 3930TIP3    H233350   0.123   0.743   6.642 -1.7228 -0.4450  2.1628
 3931TIP3   OH233351   3.243   6.681   1.522 -0.0318 -0.1160  0.3823
 3931TIP3    H133352   3.163   6.659   1.474 -0.4279  0.0750  0.9499
 3931TIP3    H233353   3.307   6.702   1.454 -1.3342  2.8622 -0.0609
 3932TIP3   OH233354   3.823   4.677   0.440 -0.6401 -0.5025 -0.2871
 3932TIP3    H133355   3.849   4.661   0.531  0.0358 -0.7156 -0.5124
 3932TIP3    H233356   3.904   4.666   0.390 -0.9548 -0.1202 -0.8844
 3933TIP3   OH233357   1.491   5.981   0.026  0.3276 -0.3294  0.1136
 3933TIP3    H133358   1.538   6.043  -0.030  1.6606 -0.6042  0.9016
 3933TIP3    H233359   1.524   5.895  -0.001 -1.0467 -0.6751 -0.5393
 3934TIP3   OH233360   0.010   3.537   7.718 -0.0061  0.2165  0.4519
 3934TIP3    H133361  -0.070   3.527   7.769 -1.8825 -0.4868 -2.4176
 3934TIP3    H233362  -0.001   3.620   7.672  1.5019  0.6923  0.9005
 3935TIP3   OH233363   6.796   0.962   7.111 -0.1109 -0.2302 -0.3009
 3935TIP3    H133364   6.832   1.051   7.115  1.1731 -0.7135 -0.7360
 3935TIP3    H233365   6.873   0.905   7.113 -0.8811 -1.3163 -0.9472
 3936TIP3   OH233366   3.351   1.622   7.297 -0.3078 -0.0046 -0.4912
 3936TIP3    H133367   3.408   1.574   7.236  0.2537 -0.4393  0.3456
 3936TIP3    H233368   3.315   1.554   7.354  1.2346  0.5998  1.3260
 3937TIP3   OH233369   5.945   5.779   1.040 -0.0122 -0.4974 -0.1940
 3937TIP3    H133370   5.944   5.693   1.082 -1.6578 -0.3776  0.0702
 3937TIP3    H233371   5.860   5.818   1.062 -0.6723 -0.1209 -2.9720
 3938TIP3   OH233372   5.930   5.166   7.678  0.3295 -0.8361  0.1253
 3938TIP3    H133373   6.001   5.210   7.724  0.6889 -1.3650  0.0775
 3938TIP3    H233374   5.931   5.077   7.712 -1.1382 -0.5406  1.0958
 3939TIP3   OH233375   1.109   1.426   6.373  0.2284  0.6646 -0.1196
 3939TIP3    H133376   1.097   1.334   6.346  1.3703  0.6823 -0.7606
 3939TIP3    H233377   1.109   1.423   6.468  0.3383 -0.0194 -0.1303
 3940TIP3   OH233378   4.809   0.601   1.258 -0.2998 -0.7304  0.2901
 3940TIP3    H133379   4.855   0.521   1.287 -0.3866 -0.8031  0.2276
 3940TIP3    H233380   4.733   0.607   1.316  1.1014  0.7654  2.0942
 3941TIP3   OH233381   3.658   5.947   7.994  0.1863  0.2976 -0.0577
 3941TIP3    H133382   3.733   5.982   8.041 -1.0333 -0.7263  2.9487
 3941TIP3    H233383   3.674   5.852   7.991 -0.2025  0.2491 -0.9349
 3942TIP3   OH233384   4.882   5.123   1.701 -0.8615  0.0144  0.1294
 3942TIP3    H133385   4.829   5.202   1.693 -0.7911  0.1909  1.2157
 3942TIP3    H233386   4.858   5.087   1.787  1.1071  0.3754  0.8910
 3943TIP3   OH233387   0.859   6.785   6.566  0.5951  0.2096 -0.1685
 3943TIP3    H133388   0.867   6.766   6.660  2.2366 -0.7983 -0.4624
 3943TIP3    H233389   0.847   6.699   6.526  1.7183  0.4306 -1.0185
 3944TIP3   OH233390   1.580   3.592   1.342 -0.0136 -0.3771  0.3951
 3944TIP3    H133391   1.517   3.660   1.319 -2.4210 -1.5675  2.9344
 3944TIP3    H233392   1.557   3.518   1.287 -0.6351 -0.6893  1.0599
 3945TIP3   OH233393   0.546   0.012   1.655  0.1385  0.4060  0.6153
 3945TIP3    H133394   0.595  -0.034   1.587  0.7055  0.1555  1.1759
 3945TIP3    H233395   0.538  -0.051   1.726 -0.8194  0.5232  0.6229
 3946TIP3   OH233396   5.312   2.536   7.496  0.1939  0.2188 -0.4886
 3946TIP3    H133397   5.383   2.533   7.432 -0.9217 -0.2407 -1.7441
 3946TIP3    H233398   5.350   2.498   7.575  1.6790  1.0404 -0.7653
 3947TIP3   OH233399   1.691   4.978   0.113 -0.0298 -0.0667  0.0677
 3947TIP3    H133400   1.735   5.033   0.178 -1.0131  0.6011  0.1915
 3947TIP3    H233401   1.715   4.889   0.137  1.3354  0.2829  0.0532
 3948TIP3   OH233402   1.293   3.498   0.203 -0.5969 -0.3034  0.1311
 3948TIP3    H133403   1.379   3.538   0.192 -0.6690  0.1952  1.2968
 3948TIP3    H233404   1.301   3.444   0.282 -1.2092 -0.6783 -0.0501
 3949TIP3   OH233405   0.149   0.548   8.482  0.2898  0.2369  0.0975
 3949TIP3    H133406   0.079   0.612   8.493  0.2876  0.1827  0.4163
 3949TIP3    H233407   0.138   0.515   8.393  0.2489  0.6285 -0.0457
 3950TIP3   OH233408   1.218   5.650   2.023  0.4791 -0.5126  0.2907
 3950TIP3    H133409   1.262   5.710   2.084  1.1126 -1.6042  0.9258
 3950TIP3    H233410   1.275   5.574   2.019 -0.3038 -1.0695 -0.5329
 3951TIP3   OH233411   0.226   1.793   2.302 -0.2365 -0.4142 -0.5055
 3951TIP3    H133412   0.141   1.749   2.310 -0.6499  0.6552  2.0963
 3951TIP3    H233413   0.203   1.885   2.290  0.6034 -0.3714 -1.9344
 3952TIP3   OH233414   3.392   4.633   2.315 -0.2133 -0.2884  0.0522
 3952TIP3    H133415   3.432   4.548   2.296  0.0265 -0.1741  0.0414
 3952TIP3    H233416   3.412   4.649   2.407 -1.4224 -0.8643  0.4334
 3953TIP3   OH233417   3.382   0.347   0.117 -0.3205 -0.3854 -0.1411
 3953TIP3    H133418   3.381   0.420   0.179 -0.1077  0.5822 -1.2475
 3953TIP3    H233419   3.341   0.382   0.038  0.2906 -1.2876 -0.8808
 3954TIP3   OH233420   2.545   0.423   0.887  0.1702 -0.8141 -0.0816
 3954TIP3    H133421   2.594   0.479   0.947 -1.6375  1.5863 -0.6991
 3954TIP3    H233422   2.460   0.412   0.929 -0.0654 -1.7358 -0.7698
 3955TIP3   OH233423   5.824   4.415   8.259  0.5266 -0.0326 -0.2137
 3955TIP3    H133424   5.830   4.391   8.167  0.2261  0.2565 -0.3125
 3955TIP3    H233425   5.874   4.497   8.266  0.4581  0.0040 -0.1423
 3956TIP3   OH233426   3.217   2.411   7.441 -0.2975 -0.0830 -0.0171
 3956TIP3    H133427   3.305   2.428   7.473 -1.1812  1.7114  1.6529
 3956TIP3    H233428   3.174   2.496   7.442 -1.9957 -0.8739 -1.0243
 3957TIP3   OH233429   3.391   2.297   6.371 -0.0663 -0.3855 -0.3555
 3957TIP3    H133430   3.306   2.323   6.336 -0.5332 -2.1541 -0.6502
 3957TIP3    H233431   3.378   2.295   6.466  0.0378  0.5720 -0.3104
 3958TIP3   OH233432   5.530   0.803   7.026  0.4015 -0.1983 -0.9940
 3958TIP3    H133433   5.496   0.808   6.937  0.8086 -2.2139 -1.3282
 3958TIP3    H233434   5.547   0.709   7.039  0.1339  0.0144  1.2823
 3959TIP3   OH233435   4.339   0.945   0.712 -0.7215 -0.0363 -0.4316
 3959TIP3    H133436   4.337   0.874   0.648 -0.3623  0.5344 -1.1018
 3959TIP3    H233437   4.294   1.018   0.668 -0.2119  0.4527 -0.1555
 3960TIP3   OH233438   5.668   3.500   8.540 -0.0852 -0.1701  0.4816
 3960TIP3    H133439   5.657   3.487   8.634 -0.1605 -0.5331  0.4244
 3960TIP3    H233440   5.581   3.486   8.502  0.0076 -0.3326  0.3253
 3961TIP3   OH233441   0.221   0.625   0.356  0.0169  0.0002  0.1901
 3961TIP3    H133442   0.127   0.607   0.358 -0.1948  0.9235 -0.6789
 3961TIP3    H233443   0.253   0.590   0.438 -1.2960  0.7634  1.0751
 3962TIP3   OH233444   3.954   1.267   6.845 -0.1470  0.4727 -0.1297
 3962TIP3    H133445   3.889   1.209   6.884 -0.6486  2.6574  2.6184
 3962TIP3    H233446   4.037   1.240   6.886 -0.4067  1.6841  1.2782
 3963TIP3   OH233447   6.756   2.906   7.651 -0.4902 -0.0179  0.0824
 3963TIP3    H133448   6.793   2.990   7.623  0.4286 -1.0786 -2.1297
 3963TIP3    H233449   6.666   2.908   7.618 -0.7607  0.4465  0.8321
 3964TIP3   OH233450   5.970   0.361   0.139  0.2575  0.3805 -0.2623
 3964TIP3    H133451   5.954   0.266   0.137 -0.0427  0.4395 -1.3501
 3964TIP3    H233452   5.918   0.392   0.213 -0.8381 -0.1007 -0.8129
 3965TIP3   OH233453   5.483   3.408   6.036  0.2058  0.0425  0.3633
 3965TIP3    H133454   5.418   3.475   6.057  0.9150  0.0421  2.8790
 3965TIP3    H233455   5.558   3.428   6.092  0.9947 -2.0084  0.1415
 3966TIP3   OH233456   5.906   1.229   5.994  0.0971  0.1646 -0.1987
 3966TIP3    H133457   5.916   1.156   6.054  0.4599 -0.0862 -0.5554
 3966TIP3    H233458   5.831   1.206   5.940 -0.3799  0.5035  0.3114
 3967TIP3   OH233459   3.827   1.238   8.352  0.7314 -0.8108  0.2855
 3967TIP3    H133460   3.858   1.148   8.359  0.2010 -0.8600  3.0246
 3967TIP3    H233461   3.738   1.236   8.387 -0.5538  0.2589 -2.6451
 3968TIP3   OH233462   0.924   3.431   0.709 -0.0702 -0.2343 -0.0724
 3968TIP3    H133463   0.985   3.360   0.726  2.9048  1.8651 -1.0164
 3968TIP3    H233464   0.848   3.389   0.669  1.4944 -2.8687 -0.5028
 3969TIP3   OH233465   1.011   0.066   8.055  0.3252 -0.1408 -0.0312
 3969TIP3    H133466   0.951   0.067   8.130 -0.2007 -1.9405 -0.3613
 3969TIP3    H233467   0.955   0.083   7.979  0.3226 -1.1477 -0.2726
 3970TIP3   OH233468   4.397   4.954   0.022 -0.0439 -0.8825  0.0933
 3970TIP3    H133469   4.428   4.877  -0.025 -1.6713 -1.3097 -0.3651
 3970TIP3    H233470   4.326   4.989  -0.033  0.1019  0.4444  0.7107
 3971TIP3   OH233471   3.040   0.463   1.554  0.0012  0.2089 -0.2300
 3971TIP3    H133472   3.021   0.371   1.534  2.2341 -0.3511 -0.0172
 3971TIP3    H233473   3.037   0.468   1.649 -0.8244  0.5455 -0.2658
 3972TIP3   OH233474   1.682   0.736   7.943  0.2517 -0.8663  0.5682
 3972TIP3    H133475   1.736   0.723   8.020 -0.5052 -0.1643  1.2369
 3972TIP3    H233476   1.594   0.710   7.970  0.3735 -2.9491 -0.7910
 3973TIP3   OH233477   5.308   4.875   1.438 -0.8240  0.5107  0.3937
 3973TIP3    H133478   5.377   4.853   1.500 -1.0779 -0.3930  0.3586
 3973TIP3    H233479   5.288   4.967   1.456 -0.0744  0.5902  0.8442
 3974TIP3   OH233480   0.873   1.133   0.924 -0.0294 -0.4782 -0.3153
 3974TIP3    H133481   0.842   1.166   1.008  1.4897  0.7078 -0.1693
 3974TIP3    H233482   0.820   1.178   0.859 -0.0441 -0.0795 -0.0314
 3975TIP3   OH233483   2.382   4.709   7.273 -1.1871 -0.0223 -0.4451
 3975TIP3    H133484   2.445   4.694   7.344  0.3343  1.0688 -1.5119
 3975TIP3    H233485   2.314   4.762   7.313 -0.5584  0.2315  0.3151
 3976TIP3   OH233486   5.425   0.151   7.444 -0.1088  0.2804 -0.3032
 3976TIP3    H133487   5.380   0.090   7.385  0.8486  0.6561 -1.4468
 3976TIP3    H233488   5.356   0.184   7.501 -0.8461 -0.9987 -0.4242
 3977TIP3   OH233489   4.762   6.664   7.661 -0.0521  0.5344 -0.2854
 3977TIP3    H133490   4.754   6.570   7.674 -0.7966  0.4075 -1.5976
 3977TIP3    H233491   4.825   6.692   7.728  1.1510 -1.0863 -0.6854
 3978TIP3   OH233492   1.216   2.429   0.659  0.3677  0.2794  0.0324
 3978TIP3    H133493   1.239   2.342   0.627  1.4715  1.2688 -2.0629
 3978TIP3    H233494   1.231   2.487   0.585 -0.7403  2.2283  1.2327
 3979TIP3   OH233495   6.020   4.630   1.126 -0.4842 -0.3911  0.2910
 3979TIP3    H133496   6.001   4.709   1.075 -1.4121 -0.7675  0.0233
 3979TIP3    H233497   5.966   4.562   1.085 -1.3928 -0.6651  1.8694
 3980TIP3   OH233498   1.876   6.741   0.775  0.0447  0.4335  0.2414
 3980TIP3    H133499   1.860   6.654   0.738  4.0594  0.1712 -1.3361
 3980TIP3    H233500   1.836   6.801   0.713 -0.6248 -0.2240  0.0252
 3981TIP3   OH233501   5.253   1.795   2.058 -0.7131 -0.6858  0.6335
 3981TIP3    H133502   5.320   1.834   2.115 -1.8134 -0.4013  1.7770
 3981TIP3    H233503   5.215   1.870   2.013 -1.2845 -0.6666  1.1327
 3982TIP3   OH233504   0.002   5.955   0.606 -0.5284  0.3353 -0.4468
 3982TIP3    H133505  -0.034   5.885   0.659 -0.3203  0.3895 -0.2325
 3982TIP3    H233506  -0.033   6.035   0.645  1.8888  0.5786  1.4440
 3983TIP3   OH233507   1.471   4.841   0.967  0.5460  0.2805  0.1781
 3983TIP3    H133508   1.428   4.819   0.884  0.3179  1.6497 -0.0920
 3983TIP3    H233509   1.539   4.903   0.943  0.6343  0.5088  0.9855
 3984TIP3   OH233510   1.041   3.937   0.904  0.1597  0.2519 -0.5133
 3984TIP3    H133511   1.050   3.849   0.868 -0.7231  0.2330 -0.7259
 3984TIP3    H233512   1.081   3.995   0.839  3.6453 -0.1921  1.0438
 3985TIP3   OH233513   5.621   0.426   0.947 -0.1448 -0.2508  0.5027
 3985TIP3    H133514   5.619   0.521   0.940  1.2889 -0.1923  0.5797
 3985TIP3    H233515   5.713   0.404   0.957 -0.4003 -1.6875  0.0579
 3986TIP3   OH233516   4.926   3.078   8.235  0.0004  0.3976  0.1904
 3986TIP3    H133517   4.875   3.052   8.158 -0.2618 -3.1899  1.4207
 3986TIP3    H233518   5.017   3.061   8.210 -0.1149 -1.1527  0.7461
 3987TIP3   OH233519   3.659   5.868   1.591  0.6015  0.0391 -0.3013
 3987TIP3    H133520   3.566   5.887   1.599  0.6118 -0.2607  0.5664
 3987TIP3    H233521   3.694   5.939   1.536 -0.1591  0.0579 -0.7677
 3988TIP3   OH233522   4.222   2.245   8.001  0.4750  0.1931  0.2747
 3988TIP3    H133523   4.252   2.212   8.086 -0.2797 -0.6401  0.2295
 3988TIP3    H233524   4.295   2.299   7.970  0.7246  0.5943  1.4898
 3989TIP3   OH233525   0.694   2.174   0.247 -0.1556 -0.8810  0.4044
 3989TIP3    H133526   0.753   2.109   0.285  0.2180  0.3345  1.9773
 3989TIP3    H233527   0.751   2.239   0.208 -0.3026  0.8946  2.9107
 3990TIP3   OH233528   3.629   2.967   0.075 -0.1261 -0.2389  0.5230
 3990TIP3    H133529   3.664   2.889   0.118 -0.6853 -0.4223  0.6506
 3990TIP3    H233530   3.700   2.996   0.017 -0.4470 -1.7339 -0.6884
 3991TIP3   OH233531   5.043   2.911   1.550  0.0946  0.0112  0.0241
 3991TIP3    H133532   5.047   2.838   1.612 -2.3543 -0.8019 -0.6487
 3991TIP3    H233533   5.127   2.909   1.504 -0.1175 -2.8384 -0.4100
 3992TIP3   OH233534   2.824   0.946   8.550 -0.8581  0.3570  0.2855
 3992TIP3    H133535   2.886   0.947   8.476 -3.0786  2.6643 -1.6966
 3992TIP3    H233536   2.739   0.932   8.509 -1.9813 -0.2646  2.6983
 3993TIP3   OH233537   5.513   5.083   0.108 -0.5083  0.5298 -0.3769
 3993TIP3    H133538   5.427   5.094   0.148 -0.4074 -1.4995  0.5093
 3993TIP3    H233539   5.574   5.125   0.168 -0.5690 -0.7783  0.6231
 3994TIP3   OH233540   3.867   3.245   0.710  0.1069 -0.4327  0.3379
 3994TIP3    H133541   3.825   3.253   0.625 -0.0818 -0.3273  0.4415
 3994TIP3    H233542   3.812   3.184   0.759  2.0905 -3.4462 -0.8125
 3995TIP3   OH233543   3.607   3.214   7.289  0.4516 -0.3951  0.1726
 3995TIP3    H133544   3.566   3.273   7.226  0.7710  1.2443  1.4420
 3995TIP3    H233545   3.535   3.163   7.325 -0.2557  1.0656  0.9322
 3996TIP3   OH233546   6.483   5.366   7.510  0.0285  0.0186 -0.0794
 3996TIP3    H133547   6.529   5.344   7.429 -2.3942 -2.2856 -0.9625
 3996TIP3    H233548   6.534   5.325   7.579  0.1697 -1.1588 -0.8589
 3997TIP3   OH233549   4.242   6.118   0.767 -0.9988 -0.1999  0.3796
 3997TIP3    H133550   4.329   6.150   0.744 -1.2965 -0.4678 -1.2620
 3997TIP3    H233551   4.258   6.034   0.810 -0.4630 -0.5196 -0.4287
 3998TIP3   OH233552   0.701   6.471   0.319  0.2173  0.4898  0.2205
 3998TIP3    H133553   0.738   6.476   0.231  0.6884  1.9177  0.4765
 3998TIP3    H233554   0.765   6.420   0.369  0.1245 -0.0134 -0.1584
 3999TIP3   OH233555   3.133   5.934   1.214  0.6321 -0.2275  0.0392
 3999TIP3    H133556   3.133   5.854   1.267  0.5010 -0.1539  0.1508
 3999TIP3    H233557   3.104   6.002   1.275  0.8709 -0.0725 -0.0221
 4000TIP3   OH233558   5.501   6.355   6.897 -0.6002  0.4116 -0.2734
 4000TIP3    H133559   5.429   6.293   6.890 -1.9882  2.0843 -2.4329
 4000TIP3    H233560   5.484   6.404   6.977 -0.2245 -1.0322  0.7292
 4001TIP3   OH233561   4.302   3.039   1.019 -0.2493  0.0882 -0.8200
 4001TIP3    H133562   4.322   3.055   1.112 -0.1057  0.2904 -0.8846
 4001TIP3    H233563   4.259   3.120   0.990  1.0156  0.6211 -1.3069
 4002TIP3   OH233564   3.845   0.176   1.854  0.0045  0.1092 -0.2207
 4002TIP3    H133565   3.864   0.107   1.917  0.1060  0.5541  0.2400
 4002TIP3    H233566   3.871   0.140   1.769  0.3816 -0.2839  0.0664
 4003TIP3   OH233567   5.709   1.098   8.132 -0.1614 -0.1880 -0.2073
 4003TIP3    H133568   5.661   1.166   8.179 -0.6378 -0.0783 -0.8367
 4003TIP3    H233569   5.778   1.145   8.085 -2.4258  0.3946 -3.2623
 4004TIP3   OH233570   0.438   3.584   7.467 -0.0867 -1.2917  0.0815
 4004TIP3    H133571   0.506   3.641   7.431  0.4341 -2.3246 -0.6232
 4004TIP3    H233572   0.416   3.623   7.552 -0.6884  0.6774 -0.9315
 4005TIP3   OH233573   6.674   4.265   7.589  0.2699 -0.0290 -0.7418
 4005TIP3    H133574   6.687   4.331   7.521 -1.9849  0.2451 -0.9800
 4005TIP3    H233575   6.658   4.184   7.540  1.5033 -0.4745 -0.4595
 4006TIP3   OH233576   4.428   4.484   2.553  0.1439  0.0559  0.7880
 4006TIP3    H133577   4.519   4.506   2.575 -0.0813 -0.2283  2.0925
 4006TIP3    H233578   4.389   4.460   2.637 -1.0906 -0.0082  0.2050
 4007TIP3   OH233579   0.746   6.682   6.996  0.3103 -0.3247  0.1953
 4007TIP3    H133580   0.805   6.695   6.922  0.0033 -1.2637 -0.2331
 4007TIP3    H233581   0.804   6.658   7.068  0.4776 -1.1800 -0.2061
 4008TIP3   OH233582   4.893   5.600   0.041  0.8023 -0.2013 -0.5459
 4008TIP3    H133583   4.862   5.534   0.103  0.6669  0.5804  0.2348
 4008TIP3    H233584   4.986   5.609   0.060  0.6725  0.3577 -0.1382
 4009TIP3   OH233585   5.961   2.902   2.534  0.3736 -0.5576  0.7098
 4009TIP3    H133586   5.898   2.940   2.597  0.9083  0.7816  0.4711
 4009TIP3    H233587   5.912   2.897   2.452  0.0493 -1.1790  0.9302
 4010TIP3   OH233588   1.958   4.484   0.942 -0.0603 -0.4509  0.2353
 4010TIP3    H133589   1.909   4.406   0.970 -0.0032 -0.3432  0.6279
 4010TIP3    H233590   1.955   4.543   1.017 -0.7877  0.2577 -0.3276
 4011TIP3   OH233591   3.182   1.154   7.170  0.3633  0.5681 -0.2805
 4011TIP3    H133592   3.272   1.187   7.172  0.2981  0.7373 -0.1367
 4011TIP3    H233593   3.149   1.169   7.258  0.2086  0.4629 -0.3204
 4012TIP3   OH233594   0.668   1.750   7.902  0.5206 -0.2634 -0.3477
 4012TIP3    H133595   0.621   1.681   7.856 -0.8699  0.8244 -0.6238
 4012TIP3    H233596   0.602   1.791   7.958  1.9254 -0.9140  1.9433
 4013TIP3   OH233597   5.742   1.733   1.509 -0.2075 -0.1999  0.1293
 4013TIP3    H133598   5.723   1.647   1.547 -0.0327 -2.0452 -3.6012
 4013TIP3    H233599   5.838   1.740   1.513 -0.1217 -0.7779 -0.6579
 4014TIP3   OH233600   4.059   0.601   8.118  0.1499 -0.1494  0.4687
 4014TIP3    H133601   3.988   0.583   8.056 -0.4521  1.4802  0.6250
 4014TIP3    H233602   4.020   0.585   8.204 -0.1097  0.8851  0.5618
 4015TIP3   OH233603   5.917   3.171   6.758  0.0661 -0.1684 -0.2577
 4015TIP3    H133604   5.888   3.258   6.729  0.8506  0.9353  2.0095
 4015TIP3    H233605   5.975   3.140   6.688  0.4419  1.5295 -0.7478
 4016TIP3   OH233606   3.250   4.490   7.301 -0.2807  0.6678 -0.7393
 4016TIP3    H133607   3.164   4.452   7.283  0.2235 -0.4010 -0.9545
 4016TIP3    H233608   3.233   4.556   7.368 -1.3638  0.9418 -1.2547
 4017TIP3   OH233609   0.148   5.291   0.348 -0.2420 -0.0297  0.1323
 4017TIP3    H133610   0.133   5.385   0.344 -0.8953 -0.1146  0.5320
 4017TIP3    H233611   0.243   5.282   0.363  0.1068  0.5202 -1.5321
 4018TIP3   OH233612   2.348   4.344   6.424 -0.0244 -0.1662 -0.0578
 4018TIP3    H133613   2.336   4.438   6.436  1.3691 -0.0962  1.0133
 4018TIP3    H233614   2.302   4.304   6.497  1.5246 -0.1637  0.9499
 4019TIP3   OH233615   0.610   4.058   7.941 -0.3964 -0.0888 -0.1505
 4019TIP3    H133616   0.519   4.087   7.954  0.2317  0.8350  2.8944
 4019TIP3    H233617   0.630   4.085   7.851 -2.5525  1.3262 -0.2911
 4020TIP3   OH233618   1.841   4.068   0.871  0.2062  0.4656  0.6316
 4020TIP3    H133619   1.839   4.147   0.926 -0.6056  0.4776  0.5987
 4020TIP3    H233620   1.749   4.052   0.849  0.5784  1.0007 -1.5079
 4021TIP3   OH233621   6.268   2.723   0.904 -0.0810  0.1552 -0.0630
 4021TIP3    H133622   6.196   2.741   0.844  1.0486  1.5886 -1.0691
 4021TIP3    H233623   6.268   2.628   0.913  0.3965 -0.2936 -3.3580
 4022TIP3   OH233624   5.671   1.842   8.368 -0.5357 -0.1573  0.2907
 4022TIP3    H133625   5.728   1.767   8.350  0.1146  0.2632  0.5763
 4022TIP3    H233626   5.626   1.858   8.284  1.9463  1.3421 -0.8526
 4023TIP3   OH233627   1.349   3.095   1.825  0.5983 -0.0019 -0.4762
 4023TIP3    H133628   1.409   3.027   1.855  1.3904  0.9712  0.1647
 4023TIP3    H233629   1.329   3.071   1.734  0.8056 -1.1197 -0.2390
 4024TIP3   OH233630   3.595   4.338   1.483  0.3729 -0.2980  0.0060
 4024TIP3    H133631   3.505   4.341   1.448 -0.3614 -1.1770  1.6945
 4024TIP3    H233632   3.651   4.340   1.405 -1.0003  2.4085 -1.0627
 4025TIP3   OH233633   5.793   2.840   0.397 -0.0654  0.9668 -0.3084
 4025TIP3    H133634   5.849   2.814   0.324  0.0016  2.3379 -0.7834
 4025TIP3    H233635   5.837   2.806   0.475  0.3589  0.2968 -0.8300
 4026TIP3   OH233636   5.620   4.464   6.798 -0.0313  0.0474  0.0942
 4026TIP3    H133637   5.617   4.537   6.859 -0.1730 -1.3273  1.8316
 4026TIP3    H233638   5.534   4.423   6.805 -0.1847  0.0806 -1.3514
 4027TIP3   OH233639   4.355   4.159   6.991  0.2097 -0.1655  0.7651
 4027TIP3    H133640   4.266   4.124   6.985  0.0620  0.3300 -0.0810
 4027TIP3    H233641   4.402   4.119   6.918  0.7433 -0.5736  1.3221
 4028TIP3   OH233642   3.941   2.619   1.552  0.2936 -0.1718 -0.1448
 4028TIP3    H133643   3.888   2.661   1.484  0.3619 -0.6884 -0.5177
 4028TIP3    H233644   3.913   2.528   1.551  0.6654 -0.2899  0.1696
 4029TIP3   OH233645   4.202   3.044   7.388  0.1968  0.5690 -0.3066
 4029TIP3    H133646   4.151   2.965   7.404  2.0957 -0.6221  0.1726
 4029TIP3    H233647   4.138   3.109   7.358 -1.5106 -0.9241 -0.0191
 4030TIP3   OH233648   4.484   1.025   7.566  0.0078 -0.1542  0.0461
 4030TIP3    H133649   4.551   1.023   7.634 -0.4759  1.0856  0.5848
 4030TIP3    H233650   4.437   0.942   7.576  1.2977 -0.9524 -0.2092
 4031TIP3   OH233651   3.821   0.810   7.107 -0.7037  0.6378  0.7629
 4031TIP3    H133652   3.758   0.746   7.140 -0.7037  0.7947  1.0738
 4031TIP3    H233653   3.873   0.834   7.184  1.2175 -1.1179  0.1358
 4032TIP3   OH233654   2.372   3.194   0.030  0.3282 -0.1071 -0.0475
 4032TIP3    H133655   2.305   3.178   0.096  1.6946  0.3618  1.5161
 4032TIP3    H233656   2.334   3.261  -0.027 -0.1793  0.8400  1.3529
 4033TIP3   OH233657   2.425   0.110   6.609  0.2523  0.5014  0.3329
 4033TIP3    H133658   2.450   0.041   6.547 -1.3052  0.2838 -0.0871
 4033TIP3    H233659   2.450   0.191   6.565 -1.2751  0.3797 -0.8611
 4034TIP3   OH233660   5.851   1.426   1.051 -0.0907  0.1280  0.1539
 4034TIP3    H133661   5.915   1.356   1.041 -1.4456 -0.9240 -2.5211
 4034TIP3    H233662   5.896   1.505   1.022  0.4294 -0.3510 -0.3696
 4035TIP3   OH233663   1.229   0.665   7.380 -0.3415 -0.0653  0.3968
 4035TIP3    H133664   1.154   0.712   7.346 -0.1026 -0.1279 -0.2320
 4035TIP3    H233665   1.229   0.581   7.333  0.4891  0.1955 -0.1001
 4036TIP3   OH233666   4.837   3.123   0.074  0.6533  0.1427  0.3484
 4036TIP3    H133667   4.837   3.105  -0.020  1.9715 -5.1207  1.0353
 4036TIP3    H233668   4.930   3.130   0.097  0.5455 -1.4265  1.5023
 4037TIP3   OH233669   2.443   3.245   7.005 -0.0744  0.0648 -0.2642
 4037TIP3    H133670   2.406   3.329   6.980 -0.1906 -0.0979 -0.6575
 4037TIP3    H233671   2.527   3.241   6.959  0.1592  0.1792  0.1505
 4038TIP3   OH233672   3.755   4.424   1.275  0.3782  0.0340 -0.3301
 4038TIP3    H133673   3.827   4.362   1.283  0.6472  0.6082  3.4430
 4038TIP3    H233674   3.793   4.509   1.297 -1.2651  0.3676  1.6049
 4039TIP3   OH233675   1.342   4.463   2.094 -0.3010  0.1244  0.3086
 4039TIP3    H133676   1.283   4.501   2.158  1.0946  0.6378  1.3462
 4039TIP3    H233677   1.423   4.446   2.143 -0.3150 -2.7275 -0.4708
 4040TIP3   OH233678   1.346   0.659   8.694 -0.2292 -0.3443 -0.1386
 4040TIP3    H133679   1.440   0.673   8.691 -0.2314 -0.4404 -0.8189
 4040TIP3    H233680   1.331   0.614   8.777  0.3071 -0.2257  0.0261
 4041TIP3   OH233681   4.160   3.260   0.965 -0.6121 -0.0402 -0.1176
 4041TIP3    H133682   4.181   3.348   0.934 -1.7002  0.2839  0.0313
 4041TIP3    H233683   4.079   3.271   1.015 -0.0793 -0.9153  0.9863
 4042TIP3   OH233684   4.916   1.250   1.805 -0.0214 -0.1047  1.0876
 4042TIP3    H133685   4.887   1.341   1.809 -1.9407 -0.5657 -0.5610
 4042TIP3    H233686   4.838   1.199   1.830  0.0992 -1.3323 -0.8033
 4043TIP3   OH233687   3.308   3.078   7.805 -0.1504 -0.2707  0.4266
 4043TIP3    H133688   3.353   3.042   7.880 -1.3957 -0.1845  1.2489
 4043TIP3    H233689   3.235   3.128   7.842 -1.5986 -1.3300 -0.8660
 4044TIP3   OH233690   4.294   1.611   6.970  0.1903  0.4510  0.0252
 4044TIP3    H133691   4.385   1.587   6.984  0.4640  1.5381  0.2260
 4044TIP3    H233692   4.248   1.574   7.046  0.5298  0.2537  0.1363
 4045TIP3   OH233693   4.564   5.856   0.905  0.3087  0.2918 -0.0232
 4045TIP3    H133694   4.657   5.859   0.928  0.6547 -0.2648 -1.2235
 4045TIP3    H233695   4.553   5.769   0.866 -0.2355  1.1019 -1.7658
 4046TIP3   OH233696   3.600   2.852   6.626 -0.0399  0.2275 -0.6392
 4046TIP3    H133697   3.543   2.825   6.698  1.1601  0.2826  0.3707
 4046TIP3    H233698   3.592   2.948   6.625  2.1281  0.5430  1.4242
 4047TIP3   OH233699   0.933   4.731   1.531  0.1613 -0.0322  0.2203
 4047TIP3    H133700   0.884   4.751   1.612  1.4350  1.7940  0.6126
 4047TIP3    H233701   1.006   4.677   1.560 -1.0522 -1.9892 -0.2279
 4048TIP3   OH233702   0.141   3.271   7.969  0.3575 -0.3729 -0.0486
 4048TIP3    H133703   0.105   3.208   8.030 -2.6633  2.5448  1.5293
 4048TIP3    H233704   0.120   3.236   7.882 -1.6119 -1.3447  0.7740
 4049TIP3   OH233705   0.861   6.621   7.922  0.1082 -0.5874  0.2288
 4049TIP3    H133706   0.823   6.556   7.862 -1.0291  0.8589 -0.6884
 4049TIP3    H233707   0.786   6.663   7.963  0.5050  2.6960 -2.0008
 4050TIP3   OH233708   5.631   3.842   8.483 -0.0806 -0.7921 -0.0243
 4050TIP3    H133709   5.693   3.866   8.414 -1.7076  0.5027 -1.1415
 4050TIP3    H233710   5.651   3.900   8.556 -1.9589  2.0002 -1.5683
 4051TIP3   OH233711   6.546   6.141   8.508 -0.0253  0.1618  0.0622
 4051TIP3    H133712   6.599   6.069   8.473  0.0860 -0.6227  1.7044
 4051TIP3    H233713   6.555   6.211   8.444  0.5947 -0.9797 -1.1528
 4052TIP3   OH233714   6.088   5.337   1.335  0.2902 -0.5077 -0.3299
 4052TIP3    H133715   6.077   5.338   1.430  2.6884 -0.9296  0.0121
 4052TIP3    H233716   6.078   5.244   1.311 -1.0611 -0.3064 -0.6335
 4053TIP3   OH233717   0.826   4.399   1.612  0.6988  0.0960  0.1004
 4053TIP3    H133718   0.854   4.401   1.703  0.2767  0.2859  0.2316
 4053TIP3    H233719   0.790   4.487   1.596  3.5731  1.1570 -1.1765
 4054TIP3   OH233720   1.203   0.974   8.629 -0.1723 -0.4988  0.2151
 4054TIP3    H133721   1.249   1.039   8.577  0.2454 -0.3594  0.7484
 4054TIP3    H233722   1.264   0.901   8.636 -0.8111 -1.1453 -0.7603
 4055TIP3   OH233723   2.136   6.164   1.240 -0.1248  0.4079 -0.3433
 4055TIP3    H133724   2.152   6.245   1.190  0.5352  0.4604 -0.0562
 4055TIP3    H233725   2.221   6.119   1.241 -0.9167 -1.2754 -2.1758
 4056TIP3   OH233726   0.167   0.078   8.308  0.3878 -0.5462 -0.3881
 4056TIP3    H133727   0.091   0.034   8.347 -0.0041 -0.6459 -1.2418
 4056TIP3    H233728   0.131   0.155   8.265  0.9210 -0.0126  0.1161
 4057TIP3   OH233729   4.055   4.059   7.416 -0.0207  0.3632  0.1885
 4057TIP3    H133730   3.993   4.031   7.484  0.7114 -0.8639  0.3741
 4057TIP3    H233731   4.002   4.064   7.336 -0.4864 -0.0824  0.4665
 4058TIP3   OH233732   0.671   1.960   1.354 -0.5387  0.2791 -0.3450
 4058TIP3    H133733   0.592   2.002   1.322 -1.0546 -0.1009  0.3986
 4058TIP3    H233734   0.654   1.943   1.446  0.4432  0.2598 -0.1540
 4059TIP3   OH233735   3.541   1.572   7.543 -0.3711  0.1558  0.7859
 4059TIP3    H133736   3.586   1.554   7.626 -0.6263  0.1466  0.9246
 4059TIP3    H233737   3.525   1.485   7.506 -0.9085  0.1190  1.0819
 4060TIP3   OH233738   3.350   3.164   0.812 -0.1531  0.1494 -0.2871
 4060TIP3    H133739   3.303   3.083   0.832 -0.4003  0.1446 -0.8608
 4060TIP3    H233740   3.395   3.187   0.893 -0.3803 -0.3643 -0.0145
 4061TIP3   OH233741   1.275   3.116   6.348  0.1143  0.1685  0.4656
 4061TIP3    H133742   1.260   3.074   6.432  0.3345 -1.1543 -0.1307
 4061TIP3    H233743   1.328   3.053   6.299 -1.1325  0.3334 -1.1528
 4062TIP3   OH233744   1.299   2.069   7.261 -0.2711 -0.3794  0.0636
 4062TIP3    H133745   1.314   1.977   7.280 -1.0684 -0.8393 -1.3729
 4062TIP3    H233746   1.276   2.108   7.346 -1.4946 -1.8349  0.4374
 4063TIP3   OH233747   2.340   1.639   8.304 -0.5048 -0.4397  0.0144
 4063TIP3    H133748   2.278   1.619   8.234 -1.5480  0.6989  0.5799
 4063TIP3    H233749   2.297   1.609   8.384  0.4261 -1.1946  0.2537
 4064TIP3   OH233750   2.354   0.215   7.320  0.0855 -0.5651  0.1811
 4064TIP3    H133751   2.400   0.269   7.255  1.5946 -1.6245  0.3044
 4064TIP3    H233752   2.269   0.257   7.330  0.0501  0.0108 -1.9939
 4065TIP3   OH233753   4.702   1.124   7.268  0.2223 -0.3271 -0.2861
 4065TIP3    H133754   4.704   1.220   7.269  0.3928 -0.3250  0.7992
 4065TIP3    H233755   4.789   1.098   7.299  0.0280 -0.8229 -0.1541
 4066TIP3   OH233756   6.369   0.485   8.260  0.3330 -0.5490  0.0726
 4066TIP3    H133757   6.360   0.508   8.353 -2.8373 -2.0707  0.2656
 4066TIP3    H233758   6.396   0.393   8.261  0.6245 -0.4725 -0.5287
 4067TIP3   OH233759   2.453   6.690   6.503 -0.1667  0.0710 -0.2712
 4067TIP3    H133760   2.516   6.629   6.465 -2.1452 -1.4592 -1.3398
 4067TIP3    H233761   2.420   6.646   6.581  0.3979  1.0519  0.5321
 4068TIP3   OH233762   5.767   5.506   0.927  0.3426 -0.2956 -0.1814
 4068TIP3    H133763   5.789   5.419   0.959  0.2804 -0.5215 -0.7409
 4068TIP3    H233764   5.834   5.525   0.861 -1.1107 -0.9998 -1.9395
 4069TIP3   OH233765   4.644   2.332   7.584 -0.0411 -0.7305  0.0921
 4069TIP3    H133766   4.704   2.277   7.534  0.2697 -0.4213  0.1242
 4069TIP3    H233767   4.660   2.308   7.675  0.3968 -0.2906  0.1360
 4070TIP3   OH233768   0.649   3.991   0.377 -0.6254 -0.0023  0.1776
 4070TIP3    H133769   0.626   4.037   0.297  0.2608  2.0989  1.0725
 4070TIP3    H233770   0.578   3.927   0.389 -1.7126  0.8670 -1.2980
 4071TIP3   OH233771   5.219   2.720   6.537 -0.5321  0.5257  0.4298
 4071TIP3    H133772   5.175   2.707   6.621 -0.8066  0.0423  0.2165
 4071TIP3    H233773   5.230   2.631   6.502  2.7001  0.3920  1.5080
 4072TIP3   OH233774   2.102   6.498   0.741  0.2013  0.2374  0.7461
 4072TIP3    H133775   2.013   6.464   0.726  0.6764 -0.8675  0.2904
 4072TIP3    H233776   2.140   6.505   0.653  1.1456 -0.9823  1.0261
 4073TIP3   OH233777   6.769   0.692   8.202  0.1446  0.3125 -0.2066
 4073TIP3    H133778   6.798   0.760   8.141 -0.6715  0.8074 -0.0595
 4073TIP3    H233779   6.673   0.696   8.199  0.0669  0.8934  1.6950
 4074TIP3   OH233780   6.508   5.079   8.354  0.3949  0.0495 -0.1122
 4074TIP3    H133781   6.524   4.985   8.359 -0.2714 -0.1682 -1.5717
 4074TIP3    H233782   6.544   5.106   8.269  0.3917  1.0717  0.1887
 4075TIP3   OH233783   2.251   1.382   7.801 -0.0881 -0.0233 -0.2482
 4075TIP3    H133784   2.205   1.459   7.834 -0.7093 -0.2955 -0.4428
 4075TIP3    H233785   2.222   1.374   7.710  0.2145 -0.3029 -0.3230
 4076TIP3   OH233786   5.680   3.210   1.297  0.3057  0.4137 -0.3062
 4076TIP3    H133787   5.653   3.166   1.217 -0.5174  2.3329 -1.1392
 4076TIP3    H233788   5.766   3.245   1.277  0.0184  1.0572 -0.4251
 4077TIP3   OH233789   0.058   2.803   6.130 -0.6560 -0.1984  0.5463
 4077TIP3    H133790  -0.002   2.841   6.065  1.0626  2.4865  0.3523
 4077TIP3    H233791   0.017   2.823   6.214 -0.3389  1.1948  0.3989
 4078TIP3   OH233792   3.486   4.447   6.747  0.0521 -0.5795  0.3427
 4078TIP3    H133793   3.418   4.419   6.686  0.7379  0.5108 -0.9763
 4078TIP3    H233794   3.438   4.471   6.827 -1.0969 -0.0679 -0.4726
 4079TIP3   OH233795   5.434   6.248   2.148  0.1626 -0.0270 -0.2359
 4079TIP3    H133796   5.435   6.183   2.218  1.7854  0.3122  0.0915
 4079TIP3    H233797   5.361   6.306   2.170 -0.4491 -0.9414  0.2009
 4080TIP3   OH233798   6.531   4.519   7.517 -0.5455 -0.1232  0.8667
 4080TIP3    H133799   6.464   4.584   7.540 -1.0731  0.0153 -0.9393
 4080TIP3    H233800   6.613   4.568   7.514 -0.9995  0.5795 -0.8822
 4081TIP3   OH233801   4.171   3.668   7.998  0.5538  0.4396  0.1615
 4081TIP3    H133802   4.124   3.585   7.993  3.1546 -1.0855 -1.2884
 4081TIP3    H233803   4.150   3.713   7.917  0.2592  0.5680  0.3064
 4082TIP3   OH233804   4.382   1.286   8.189 -0.0808  0.0851 -0.1845
 4082TIP3    H133805   4.430   1.211   8.153 -0.6480  0.0494 -0.8842
 4082TIP3    H233806   4.387   1.275   8.284  1.7034  0.3365 -0.2179
 4083TIP3   OH233807   1.364   0.895   7.851  0.7600 -0.5805 -0.0080
 4083TIP3    H133808   1.414   0.921   7.774  0.9967  0.2357  0.4018
 4083TIP3    H233809   1.312   0.820   7.823 -1.5305  1.5522 -1.8869
 4084TIP3   OH233810   4.219   2.743   0.135 -0.3244  0.5139 -0.3995
 4084TIP3    H133811   4.278   2.693   0.077 -0.4187  0.6083 -0.5788
 4084TIP3    H233812   4.222   2.832   0.100  0.5698  0.8472  0.4804
 4085TIP3   OH233813   0.956   1.926   6.713 -0.2988 -0.4382  0.2751
 4085TIP3    H133814   0.941   1.872   6.636 -1.0700  0.3623 -0.1569
 4085TIP3    H233815   0.874   1.974   6.725 -0.0329 -0.2228  1.3296
 4086TIP3   OH233816   2.849   5.749   7.521  0.4578 -0.3962 -0.0250
 4086TIP3    H133817   2.833   5.655   7.536  0.0566 -0.4965 -0.9698
 4086TIP3    H233818   2.941   5.762   7.542  0.6280 -1.0993 -0.3137
 4087TIP3   OH233819   2.159   6.469   0.473  0.2999  0.3767 -0.1683
 4087TIP3    H133820   2.188   6.500   0.387  0.7681  0.1496 -0.0921
 4087TIP3    H233821   2.155   6.374   0.464  0.0293  0.3759 -0.0376
 4088TIP3   OH233822   3.333   4.127   1.510  0.0678 -0.9387 -0.0520
 4088TIP3    H133823   3.284   4.116   1.429  1.7537  0.2518 -1.3080
 4088TIP3    H233824   3.267   4.121   1.579 -1.5087 -1.3726 -1.5317
 4089TIP3   OH233825   5.985   0.329   2.024  0.0954 -0.3962  0.0380
 4089TIP3    H133826   6.039   0.251   2.034  0.0753 -0.4685 -0.3820
 4089TIP3    H233827   5.972   0.337   1.929 -4.0328 -2.7297  0.1776
 4090TIP3   OH233828   0.433   1.391   6.462  0.2842  0.0845  0.1972
 4090TIP3    H133829   0.357   1.430   6.505 -0.0367  0.3295 -0.5692
 4090TIP3    H233830   0.445   1.443   6.382 -1.9599 -3.0561 -2.4563
 4091TIP3   OH233831   5.900   6.753   7.203  0.0277 -0.3786 -0.3031
 4091TIP3    H133832   5.980   6.703   7.220  1.0652  1.2409 -0.2716
 4091TIP3    H233833   5.832   6.686   7.196  1.1270 -1.7151  1.0503
 4092TIP3   OH233834   3.358   5.683   7.871 -0.2202 -0.3646 -0.6023
 4092TIP3    H133835   3.367   5.778   7.872 -0.5813 -0.3050 -1.5094
 4092TIP3    H233836   3.431   5.653   7.816  0.0728 -0.6415 -0.0699
 4093TIP3   OH233837   1.008   0.788   7.321  0.1602 -0.2926 -0.4591
 4093TIP3    H133838   0.997   0.875   7.357  0.0405 -0.4247 -0.1770
 4093TIP3    H233839   0.986   0.797   7.228  0.1714 -0.0210 -0.4353
 4094TIP3   OH233840   5.425   3.700   6.817  0.6141  0.0553 -0.6174
 4094TIP3    H133841   5.517   3.683   6.839  0.5250  0.0660 -0.2381
 4094TIP3    H233842   5.429   3.750   6.735  0.9507  0.2313 -0.4929
 4095TIP3   OH233843   0.827   2.182   2.103 -0.2065 -0.2099 -0.1875
 4095TIP3    H133844   0.911   2.228   2.097 -0.1915  0.1063  1.9059
 4095TIP3    H233845   0.832   2.115   2.034  1.8367 -0.3019 -0.0108
 4096TIP3   OH233846   2.476   4.415   7.769  0.0470  0.2012 -0.6118
 4096TIP3    H133847   2.420   4.360   7.714  3.0279 -1.5746 -2.1832
 4096TIP3    H233848   2.464   4.504   7.735 -2.5266  0.0890 -0.1468
 4097TIP3   OH233849   2.193   0.944   8.376 -0.0370  0.4810 -0.1815
 4097TIP3    H133850   2.178   1.019   8.433  0.8417  0.5027  0.0367
 4097TIP3    H233851   2.108   0.899   8.372 -0.0934  0.4235  1.2228
 4098TIP3   OH233852   6.182   0.346   6.006  0.2206  0.1784 -0.0365
 4098TIP3    H133853   6.108   0.290   6.027  0.4933 -0.7442 -1.4170
 4098TIP3    H233854   6.260   0.295   6.028  0.4804  0.9779  1.0052
 4099TIP3   OH233855   4.199   3.506   0.846 -0.3238  0.6639 -0.5991
 4099TIP3    H133856   4.230   3.596   0.848  0.5019  0.3891 -0.3624
 4099TIP3    H233857   4.104   3.513   0.834 -0.3348  1.5671 -0.0702
 4100TIP3   OH233858   0.508   3.830   0.614 -0.1777  0.9657  0.0934
 4100TIP3    H133859   0.518   3.745   0.572 -0.0845  0.0020  1.9692
 4100TIP3    H233860   0.597   3.865   0.618 -0.3002  1.5031 -1.3013
 4101TIP3   OH233861   5.143   6.552   1.987 -0.6471  0.5706 -0.4581
 4101TIP3    H133862   5.202   6.513   1.922  0.2185  0.0834  0.5803
 4101TIP3    H233863   5.085   6.609   1.936  1.2051  1.6825 -1.4712
 4102TIP3   OH233864   3.383   6.811   7.971 -0.2289  0.2152  0.2005
 4102TIP3    H133865   3.359   6.875   7.904 -1.4660  0.3084  0.7004
 4102TIP3    H233866   3.300   6.788   8.014  0.7089  1.5780  2.9843
 4103TIP3   OH233867   6.101   0.992   1.171  0.4823 -0.3327 -0.1881
 4103TIP3    H133868   6.160   0.952   1.108  1.2662 -1.0024  0.9339
 4103TIP3    H233869   6.152   0.998   1.252 -1.0903 -1.3018  0.9374
 4104TIP3   OH233870   0.713   2.499   6.035 -0.8673 -0.2862 -0.0768
 4104TIP3    H133871   0.700   2.592   6.018  0.5068  0.1617  1.0668
 4104TIP3    H233872   0.804   2.483   6.011 -0.5155 -0.8646  1.5406
 4105TIP3   OH233873   5.797   2.172   6.808  0.1039 -0.5788 -0.4902
 4105TIP3    H133874   5.851   2.098   6.837  0.2947  0.0941  0.9858
 4105TIP3    H233875   5.839   2.202   6.728  1.0401 -1.0185 -0.1847
 4106TIP3   OH233876   0.850   1.228   0.106 -0.6065  0.5045 -0.1480
 4106TIP3    H133877   0.902   1.149   0.096 -0.9893  0.2819 -0.4298
 4106TIP3    H233878   0.896   1.294   0.055  0.8468  1.0391  1.7325
 4107TIP3   OH233879   1.558   3.526   8.025 -0.1094 -0.1295 -0.7313
 4107TIP3    H133880   1.596   3.457   8.079 -0.3798 -1.0125 -1.6274
 4107TIP3    H233881   1.481   3.485   7.985 -2.0210  1.5512  0.9569
 4108TIP3   OH233882   2.895   1.947   0.657 -0.2188  0.4199 -0.8011
 4108TIP3    H133883   2.833   2.019   0.644 -0.1397  0.6517  0.0880
 4108TIP3    H233884   2.840   1.869   0.654 -0.8907  0.6976  1.7600
 4109TIP3   OH233885   4.004   2.425   0.430  0.3705  0.0001  0.0749
 4109TIP3    H133886   4.096   2.402   0.425  0.4163  0.3207 -0.8284
 4109TIP3    H233887   3.999   2.514   0.396  0.0508  0.9758  2.5202
 4110TIP3   OH233888   3.481   5.665   8.137 -0.3011 -0.5313  0.4725
 4110TIP3    H133889   3.489   5.587   8.191  1.4138  0.2937  1.4622
 4110TIP3    H233890   3.498   5.634   8.048  1.1284 -1.1736  0.9442
 4111TIP3   OH233891   0.191   5.554   8.087 -0.8699 -0.2843  0.5280
 4111TIP3    H133892   0.215   5.627   8.144 -0.3610 -0.1755  0.1826
 4111TIP3    H233893   0.181   5.479   8.146  1.8261 -0.7223  0.5810
 4112TIP3   OH233894   5.940   6.659   7.923  0.4760 -0.1777 -0.1955
 4112TIP3    H133895   5.897   6.723   7.867  0.0106 -1.7388 -1.7075
 4112TIP3    H233896   5.889   6.660   8.004  1.0660  2.0124  0.1871
 4113TIP3   OH233897   0.762   3.308   7.142 -1.0840 -0.0851  0.2669
 4113TIP3    H133898   0.797   3.356   7.068 -1.0358 -0.3764  0.1002
 4113TIP3    H233899   0.781   3.364   7.218 -0.7242 -0.0021  0.1157
 4114TIP3   OH233900   1.986   0.105   6.976 -0.1147  0.2097  0.3428
 4114TIP3    H133901   1.976   0.055   6.895 -2.3834  0.8195  0.2051
 4114TIP3    H233902   1.910   0.082   7.029  0.7152  0.7349  1.8287
 4115TIP3   OH233903   6.036   3.550   1.142 -0.2104 -0.1297  0.1130
 4115TIP3    H133904   6.031   3.644   1.159  0.7680 -0.0577  0.1012
 4115TIP3    H233905   5.948   3.525   1.114  0.1375  1.3219 -2.5551
 4116TIP3   OH233906   1.628   3.147   7.239  0.2467 -0.3134 -0.4473
 4116TIP3    H133907   1.709   3.190   7.267 -0.6163  1.3328 -0.3651
 4116TIP3    H233908   1.632   3.060   7.278  2.3729 -0.5946 -1.1588
 4117TIP3   OH233909   2.338   0.592   8.391 -0.4418  0.3808 -0.0835
 4117TIP3    H133910   2.404   0.644   8.437  0.3791 -0.3491 -0.4174
 4117TIP3    H233911   2.284   0.555   8.461  0.1017  0.1902  0.2412
 4118TIP3   OH233912   3.018   5.133   1.031  0.5620  0.0152 -0.0744
 4118TIP3    H133913   3.049   5.043   1.035  0.2140 -0.1158 -0.2246
 4118TIP3    H233914   2.945   5.136   1.094  0.7571  0.2667  0.1405
 4119TIP3   OH233915   6.160   2.969   0.645  0.1309 -0.0820  0.0514
 4119TIP3    H133916   6.208   3.050   0.661  0.3172 -0.2063  0.1338
 4119TIP3    H233917   6.070   2.988   0.671  0.7195 -0.7650  2.8511
 4120TIP3   OH233918   4.348   2.852   2.633  0.3463 -0.2019  0.0951
 4120TIP3    H133919   4.345   2.940   2.595  0.7767 -0.2793 -0.1266
 4120TIP3    H233920   4.274   2.807   2.594 -0.2064  0.2287  0.6305
 4121TIP3   OH233921   4.010   3.601   0.059 -0.1082  0.3689  0.0449
 4121TIP3    H133922   3.940   3.646   0.106  0.4362  0.9116  0.3535
 4121TIP3    H233923   4.088   3.615   0.113  0.8895  2.3826 -1.7688
 4122TIP3   OH233924   2.715   0.972   7.988 -0.7403  0.0003  0.1036
 4122TIP3    H133925   2.651   1.042   8.004 -0.2749 -0.0741  2.8838
 4122TIP3    H233926   2.766   0.968   8.069  3.7327  0.9266 -2.3205
 4123TIP3   OH233927   4.835   2.208   0.049 -0.5248 -0.0062 -0.5090
 4123TIP3    H133928   4.890   2.274   0.007 -0.5836  0.9659  0.8537
 4123TIP3    H233929   4.892   2.132   0.060  0.1440  0.5062 -0.3511
 4124TIP3   OH233930   4.400   1.316   0.977  0.5826  0.0289 -0.2417
 4124TIP3    H133931   4.489   1.295   0.948  1.0119  0.5038  0.6748
 4124TIP3    H233932   4.401   1.411   0.990 -0.4435  0.2183 -1.4510
 4125TIP3   OH233933   1.427   2.527   7.309  0.1818 -0.3449 -0.5755
 4125TIP3    H133934   1.389   2.602   7.356  1.1692  0.3257 -0.7987
 4125TIP3    H233935   1.351   2.480   7.274 -0.4691  0.6705 -0.5998
 4126TIP3   OH233936   3.298   2.826   1.106 -0.4421 -0.0240  0.5349
 4126TIP3    H133937   3.267   2.882   1.178 -0.8014  0.0916  0.2892
 4126TIP3    H233938   3.302   2.738   1.144  0.1640  0.1684  0.9364
 4127TIP3   OH233939   2.137   3.491   0.258  0.1622  0.8853  0.3506
 4127TIP3    H133940   2.224   3.528   0.247  0.1429  0.7761 -0.2164
 4127TIP3    H233941   2.138   3.452   0.345  0.2995  1.9011  0.8174
 4128TIP3   OH233942   3.364   1.843   7.955  0.1542 -0.3194 -0.7781
 4128TIP3    H133943   3.283   1.806   7.992  0.4852 -0.2325  0.0558
 4128TIP3    H233944   3.391   1.780   7.888  0.0637 -0.9842 -0.2005
 4129TIP3   OH233945   1.148   3.436   7.740 -0.1338 -0.2598 -0.0761
 4129TIP3    H133946   1.107   3.417   7.656 -0.4839  1.5528 -0.3642
 4129TIP3    H233947   1.077   3.432   7.803 -0.2547  0.2626 -0.1729
 4130TIP3   OH233948   4.349   3.527   0.010 -0.0361  0.2071  0.2841
 4130TIP3    H133949   4.339   3.443   0.055 -0.4752  0.1982  0.1818
 4130TIP3    H233950   4.280   3.526  -0.056  2.2947 -1.0055 -2.3313
 4131TIP3   OH233951   0.120   6.749   8.571 -0.4872 -0.1815  0.4130
 4131TIP3    H133952   0.143   6.799   8.649 -0.0822 -0.9682  0.8129
 4131TIP3    H233953   0.204   6.718   8.536 -0.6961 -0.1898 -0.0994
 4132TIP3   OH233954   2.602   3.853   8.684 -0.2546 -0.8324  0.1713
 4132TIP3    H133955   2.587   3.873   8.776 -1.2067  1.9169 -0.4971
 4132TIP3    H233956   2.697   3.861   8.673 -0.4586  3.4734  0.1033
 4133TIP3   OH233957   0.177   6.337   1.104 -0.3692 -0.4026  0.5177
 4133TIP3    H133958   0.248   6.277   1.127 -1.0169 -1.3634  0.0693
 4133TIP3    H233959   0.219   6.423   1.100  0.8525 -0.9952 -0.0974
 4134TIP3   OH233960   0.913   1.189   5.949  0.0090 -0.0555 -0.1413
 4134TIP3    H133961   0.891   1.111   5.998  0.7361  0.0216  0.3301
 4134TIP3    H233962   0.997   1.168   5.907 -0.8108 -0.2968 -1.7502
 4135TIP3   OH233963   0.799   5.545   1.107 -0.4365 -0.0017 -0.3544
 4135TIP3    H133964   0.836   5.545   1.196 -1.8923  2.3863  0.3574
 4135TIP3    H233965   0.707   5.525   1.120 -0.6623  0.3859 -1.3126
 4136TIP3   OH233966   0.765   5.934   0.394  0.4364  0.6337 -0.2118
 4136TIP3    H133967   0.699   5.982   0.344 -0.4705  0.9735  1.2496
 4136TIP3    H233968   0.714   5.879   0.454  1.4693 -1.1930 -0.9318
 4137TIP3   OH233969   5.335   3.734   5.976 -0.1539  0.3953  0.2686
 4137TIP3    H133970   5.284   3.666   6.019 -1.0339  0.4028 -0.7125
 4137TIP3    H233971   5.374   3.784   6.048 -0.2074 -0.6002  1.0109
 4138TIP3   OH233972   4.105   0.798   6.639 -0.4416 -0.0716 -0.7280
 4138TIP3    H133973   4.065   0.883   6.621  1.5902  0.9003 -0.9025
 4138TIP3    H233974   4.199   0.816   6.644 -0.0440 -2.1151  0.3876
 4139TIP3   OH233975   1.692   6.099   8.094 -0.4854 -0.6916  0.0883
 4139TIP3    H133976   1.662   6.038   8.161  1.3961 -0.5730  1.1303
 4139TIP3    H233977   1.676   6.055   8.011 -0.5059 -1.9839  0.7549
 4140TIP3   OH233978   2.480   5.492   1.206  0.2847  0.0015  0.2687
 4140TIP3    H133979   2.465   5.398   1.216  0.5623  0.0421  1.0888
 4140TIP3    H233980   2.566   5.507   1.243  1.7124  0.0850 -2.7680
 4141TIP3   OH233981   0.476   3.039   0.061 -0.0245 -0.5452 -0.5326
 4141TIP3    H133982   0.425   3.083  -0.007  0.4943 -2.5559 -2.3552
 4141TIP3    H233983   0.411   2.989   0.111 -0.2485 -0.2315 -0.5128
 4142TIP3   OH233984   1.676   3.295   8.164  0.1324  0.0565 -0.4089
 4142TIP3    H133985   1.660   3.297   8.258  0.0478 -2.2720 -0.3163
 4142TIP3    H233986   1.771   3.294   8.156  0.1408 -0.4665 -0.2971
 4143TIP3   OH233987   0.386   4.468   6.587  0.5708  0.4477 -0.0133
 4143TIP3    H133988   0.457   4.465   6.522  0.2936 -0.5677 -0.2866
 4143TIP3    H233989   0.353   4.558   6.582  1.5897  0.8364 -0.1452
 4144TIP3   OH233990   6.076   0.870   7.101 -0.1741 -0.0272 -0.2201
 4144TIP3    H133991   6.012   0.799   7.105 -1.0467  0.7502 -0.0680
 4144TIP3    H233992   6.026   0.946   7.070  1.2449 -0.0455 -2.8277
 4145TIP3   OH233993   6.024   5.232   0.203  0.1836  0.2807  0.3287
 4145TIP3    H133994   5.990   5.321   0.202 -1.7046 -0.3972 -0.4242
 4145TIP3    H233995   6.091   5.231   0.134  1.3323  1.4823  1.3931
 4146TIP3   OH233996   5.180   6.568   6.853 -0.0786  0.2979 -0.1522
 4146TIP3    H133997   5.115   6.572   6.783 -1.4000  0.2688  1.0204
 4146TIP3    H233998   5.264   6.577   6.809 -0.9100  1.0272 -1.6507
 4147TIP3   OH233999   4.578   3.593   7.781 -0.0509 -0.0777 -0.3755
 4147TIP3    H134000   4.554   3.534   7.852 -0.4568 -0.2073 -0.6198
 4147TIP3    H234001   4.511   3.661   7.781  1.1832  1.2290  0.8439
 4148TIP3   OH234002   3.304   5.610   2.543 -0.0278  0.4700 -0.4675
 4148TIP3    H134003   3.316   5.521   2.574  0.6237  0.7069 -0.0308
 4148TIP3    H234004   3.369   5.662   2.590 -1.3912  1.4494  0.4431
 4149TIP3   OH234005   3.322   1.698   0.448 -0.2525  0.1056  0.5299
 4149TIP3    H134006   3.361   1.747   0.521 -0.5713 -1.0357  1.5022
 4149TIP3    H234007   3.237   1.669   0.482 -1.8745  2.1735 -1.3886
 4150TIP3   OH234008   5.034   4.473   0.123  0.8452  0.3723 -0.7998
 4150TIP3    H134009   5.028   4.474   0.027  0.7977  0.2750 -0.7979
 4150TIP3    H234010   5.036   4.566   0.148  0.2479  0.4011 -0.8545
 4151TIP3   OH234011   5.327   1.898   7.593  0.5422 -0.6177 -0.3499
 4151TIP3    H134012   5.242   1.936   7.614  0.6728  1.3845 -2.9831
 4151TIP3    H234013   5.319   1.806   7.618 -0.6263  0.4529  4.1058
 4152TIP3   OH234014   5.710   4.869   0.778 -0.5245 -0.4392  0.3037
 4152TIP3    H134015   5.629   4.917   0.796  0.8000  2.2266 -0.3533
 4152TIP3    H234016   5.729   4.823   0.859 -2.4797 -0.8177  0.5939
 4153TIP3   OH234017   0.551   5.082   8.430 -0.3280  0.1003 -0.2850
 4153TIP3    H134018   0.606   5.074   8.353  1.4256  2.3790  0.6291
 4153TIP3    H234019   0.595   5.030   8.497  1.5142  2.7949  0.7654
 4154TIP3   OH234020   6.260   6.504   0.274  0.7011 -0.4432  0.3147
 4154TIP3    H134021   6.338   6.548   0.240  0.8573 -0.5725  0.5041
 4154TIP3    H234022   6.252   6.426   0.219 -0.7760  0.8324 -1.4244
 4155TIP3   OH234023   6.291   0.142   1.589  0.0922  0.0932  0.5569
 4155TIP3    H134024   6.195   0.144   1.585  0.1042 -0.0727  0.0712
 4155TIP3    H234025   6.318   0.184   1.508  0.4238 -0.7373  0.2299
 4156TIP3   OH234026   0.187   1.684   6.770 -0.3756 -0.2002  1.1099
 4156TIP3    H134027   0.177   1.760   6.826  0.9146  0.7301  0.1445
 4156TIP3    H234028   0.175   1.718   6.681 -0.8565 -1.3375  0.7214
 4157TIP3   OH234029   3.802   0.382   6.364  0.3540  0.1804 -0.4197
 4157TIP3    H134030   3.772   0.472   6.347 -1.8564 -0.8257 -2.4862
 4157TIP3    H234031   3.867   0.365   6.297 -0.5804 -0.3212 -1.2237
 4158TIP3   OH234032   6.061   5.633   0.568 -0.2538 -0.1912  0.0614
 4158TIP3    H134033   6.047   5.699   0.500  1.7015 -0.7019 -0.8924
 4158TIP3    H234034   6.066   5.684   0.649  0.0919  0.7223 -0.5137
 4159TIP3   OH234035   3.551   3.798   1.730  0.2613 -1.0499  0.0382
 4159TIP3    H134036   3.589   3.860   1.669 -1.6708 -2.2218 -2.5614
 4159TIP3    H234037   3.506   3.734   1.674 -3.5990 -0.9594  2.6479
 4160TIP3   OH234038   2.677   2.178   7.111 -0.9404  0.3030 -0.0464
 4160TIP3    H134039   2.730   2.214   7.181 -0.3073  1.8006 -1.2346
 4160TIP3    H234040   2.712   2.090   7.095  0.5091  0.8803 -0.1171
 4161TIP3   OH234041   1.228   5.478   7.620 -0.6573  0.6170 -0.3894
 4161TIP3    H134042   1.215   5.511   7.531  2.4508  0.0620 -1.1503
 4161TIP3    H234043   1.226   5.556   7.676  0.5293  1.3760 -1.3734
 4162TIP3   OH234044   1.529   0.440   7.515  0.0925  0.2806  0.0631
 4162TIP3    H134045   1.524   0.355   7.558  0.1950 -0.4902 -1.3834
 4162TIP3    H234046   1.530   0.504   7.587 -0.9447 -0.8749  1.1536
 4163TIP3   OH234047   1.563   5.203   1.872  0.5139 -0.2037 -0.3649
 4163TIP3    H134048   1.640   5.260   1.867 -0.1589  0.7359 -0.0705
 4163TIP3    H234049   1.580   5.136   1.805  0.3794  1.5149 -2.2401
 4164TIP3   OH234050   2.453   6.446   1.446  0.3494 -0.4507  0.0230
 4164TIP3    H134051   2.361   6.474   1.447  0.2784 -0.6353 -0.6412
 4164TIP3    H234052   2.451   6.358   1.483  0.4446  0.0513  1.2431
 4165TIP3   OH234053   2.582   0.687   1.268 -0.2431 -0.5841 -0.3616
 4165TIP3    H134054   2.639   0.755   1.232 -1.1791  0.5254  0.1772
 4165TIP3    H234055   2.623   0.662   1.351 -0.1593 -0.2953 -0.3152
 4166TIP3   OH234056   2.858   3.981   8.311 -0.5443 -0.0131 -0.0214
 4166TIP3    H134057   2.947   3.960   8.281  0.8148  0.7915  3.0196
 4166TIP3    H234058   2.871   4.022   8.396 -3.9657 -2.1263  1.7465
 4167TIP3   OH234059   1.502   2.830   7.097  0.0032 -0.2737 -0.7601
 4167TIP3    H134060   1.533   2.889   7.165  0.9577 -2.0254  0.4120
 4167TIP3    H234061   1.559   2.753   7.104 -0.4480 -0.8802 -2.9737
 4168TIP3   OH234062   5.238   1.174   6.713  0.3339  0.1856 -0.0005
 4168TIP3    H134063   5.224   1.136   6.627  0.2244  2.2618 -0.9502
 4168TIP3    H234064   5.157   1.221   6.732  1.0604  1.3248  0.3671
 4169TIP3   OH234065   5.124   2.586   7.078 -0.2431 -0.0821 -0.4591
 4169TIP3    H134066   5.082   2.619   7.158  3.2145  1.4722  0.9050
 4169TIP3    H234067   5.145   2.665   7.028  1.7437 -0.6815 -0.6423
 4170TIP3   OH234068   0.157   0.314   1.081 -0.0834  0.2143  0.1750
 4170TIP3    H134069   0.087   0.250   1.065 -0.4267  0.4500  0.7059
 4170TIP3    H234070   0.237   0.262   1.080 -0.4050 -0.3317  1.1938
 4171TIP3   OH234071   2.320   6.787   0.824  0.2214 -0.2932  0.6979
 4171TIP3    H134072   2.390   6.818   0.767  0.1052 -2.7133 -0.9070
 4171TIP3    H234073   2.239   6.815   0.781  0.1556 -1.3896  0.0567
 4172TIP3   OH234074   3.144   2.630   1.338 -0.3764  0.3546 -0.5357
 4172TIP3    H134075   3.065   2.632   1.285 -0.4240  1.7394 -0.4534
 4172TIP3    H234076   3.125   2.689   1.411  0.0699 -0.7212  0.4777
 4173TIP3   OH234077   5.906   2.505   6.797 -0.4966 -0.2462  0.0507
 4173TIP3    H134078   5.853   2.524   6.720 -0.2956  0.9650  0.2008
 4173TIP3    H234079   5.850   2.527   6.871  0.1440  0.9349  0.2122
 4174TIP3   OH234080   2.167   4.574   7.124 -0.1785  0.1174  0.1401
 4174TIP3    H134081   2.254   4.599   7.155 -0.2149 -0.1827  0.4830
 4174TIP3    H234082   2.145   4.495   7.174  0.6928 -1.7199 -2.2191
 4175TIP3   OH234083   0.987   4.930   0.182 -1.0462  0.2472 -0.0818
 4175TIP3    H134084   0.937   4.849   0.192 -0.8325  0.2156  0.8367
 4175TIP3    H234085   0.925   5.000   0.205 -0.8228  0.2372  0.5922
 4176TIP3   OH234086   1.996   5.970   0.730  0.6217  0.4009  0.0259
 4176TIP3    H134087   1.955   5.985   0.815  1.7799  0.9247  0.5086
 4176TIP3    H234088   2.084   6.006   0.739  0.8440  0.2419 -1.3208
 4177TIP3   OH234089   0.737   1.958   0.011  0.2161 -0.4290  0.2910
 4177TIP3    H134090   0.704   1.869  -0.002 -2.5145  0.5961 -0.5847
 4177TIP3    H234091   0.768   1.959   0.101 -3.5004 -1.2807  1.7713
 4178TIP3   OH234092   5.453   6.156   8.124  0.2060  0.2606 -0.5687
 4178TIP3    H134093   5.445   6.204   8.042 -0.0041 -0.2715 -0.8649
 4178TIP3    H234094   5.488   6.220   8.186  0.3386  0.6743 -1.0639
 4179TIP3   OH234095   3.343   1.404   1.235 -0.0102  0.4295 -0.1982
 4179TIP3    H134096   3.319   1.363   1.318 -0.7818  2.8950  0.9014
 4179TIP3    H234097   3.264   1.450   1.207  0.9195  1.6198 -1.0190
 4180TIP3   OH234098   0.544   1.217   8.228 -0.3339  0.5928  0.3173
 4180TIP3    H134099   0.619   1.211   8.287  0.3783  1.4029 -0.4771
 4180TIP3    H234100   0.579   1.258   8.149 -1.2466 -0.5861 -0.7208
 4181TIP3   OH234101   2.194   5.598   7.567  0.4447  0.5580  0.3115
 4181TIP3    H134102   2.252   5.663   7.528 -0.9391  0.5365 -1.9143
 4181TIP3    H234103   2.110   5.611   7.523 -0.7358 -0.6698  2.0738
 4182TIP3   OH234104   2.924   6.150   1.743 -0.7193  0.4213  0.3067
 4182TIP3    H134105   2.973   6.095   1.804  1.1531  0.7996 -0.7449
 4182TIP3    H234106   2.964   6.237   1.752 -1.3735  0.8125 -0.4315
 4183TIP3   OH234107   0.877   6.412   1.008  0.1964  0.2733  0.0348
 4183TIP3    H134108   0.950   6.439   0.953 -0.3096 -0.1573 -0.8611
 4183TIP3    H234109   0.803   6.465   0.979 -0.2299 -0.3946 -0.1349
 4184TIP3   OH234110   1.668   5.387   0.674  0.3258 -0.4217  0.0424
 4184TIP3    H134111   1.687   5.363   0.583  0.8716 -1.5546  0.4312
 4184TIP3    H234112   1.603   5.322   0.702 -0.3735  0.3562  0.2577
 4185TIP3   OH234113   5.559   3.821   1.141 -0.1164 -0.0824 -0.4165
 4185TIP3    H134114   5.605   3.764   1.203  0.0001 -0.3670 -0.7646
 4185TIP3    H234115   5.507   3.879   1.197  0.2339 -0.1257 -0.0400
 4186TIP3   OH234116   1.901   2.106   7.129  0.0031 -0.4865 -0.0957
 4186TIP3    H134117   1.990   2.139   7.143 -0.6356  0.9447  0.6916
 4186TIP3    H234118   1.912   2.040   7.060  1.4231  0.9519 -1.3552
 4187TIP3   OH234119   5.727   1.982   0.321 -0.0717  0.0232  0.3472
 4187TIP3    H134120   5.662   2.038   0.362  0.0638 -0.5417  1.3751
 4187TIP3    H234121   5.722   2.003   0.228 -0.5814  1.1472  0.6081
 4188TIP3   OH234122   5.271   0.465   8.311 -0.5833  0.3898  0.0631
 4188TIP3    H134123   5.198   0.523   8.333  1.5775  3.1704  0.6123
 4188TIP3    H234124   5.309   0.504   8.232  1.1856 -0.0379  0.6580
 4189TIP3   OH234125   2.309   3.753   8.315 -0.3245 -0.7807 -0.5039
 4189TIP3    H134126   2.283   3.743   8.406  1.2663 -0.7431 -0.0083
 4189TIP3    H234127   2.282   3.672   8.273 -4.4703  0.6123 -0.9587
 4190TIP3   OH234128   3.515   4.804   7.973  0.2802 -0.0495  0.1678
 4190TIP3    H134129   3.527   4.843   8.060  0.3643 -0.4827  0.3550
 4190TIP3    H234130   3.604   4.782   7.945  0.5029  2.1360 -1.0064
 4191TIP3   OH234131   6.792   5.244   2.119  0.0903  0.1012 -0.4428
 4191TIP3    H134132   6.763   5.276   2.034 -1.5046  1.1814  0.4594
 4191TIP3    H234133   6.728   5.176   2.142  0.3472  0.0112  0.0233
 4192TIP3   OH234134   1.125   5.132   8.178  0.5901 -0.1323  0.2185
 4192TIP3    H134135   1.128   5.038   8.192  1.9920  0.1313  2.0298
 4192TIP3    H234136   1.078   5.167   8.253  0.1928  0.6484 -0.3683
 4193TIP3   OH234137   0.281   5.648   1.611  0.0606  0.0417 -0.1282
 4193TIP3    H134138   0.191   5.648   1.642 -0.2658  0.4383 -1.0457
 4193TIP3    H234139   0.327   5.589   1.671 -1.0308 -1.0238 -0.3093
 4194TIP3   OH234140   6.385   6.611   1.352  0.3166  0.1169  0.3249
 4194TIP3    H134141   6.421   6.660   1.278 -0.0177  2.3394  1.5623
 4194TIP3    H234142   6.383   6.673   1.424  0.0843 -1.8178  2.0866
 4195TIP3   OH234143   0.656   3.424   7.779  0.7385  0.2316  0.0386
 4195TIP3    H134144   0.586   3.395   7.837  0.9297  2.7335  1.6581
 4195TIP3    H234145   0.737   3.395   7.821  0.7846 -1.0436 -0.8757
 4196TIP3   OH234146   1.440   1.679   0.595  0.0664  0.2489 -0.5862
 4196TIP3    H134147   1.535   1.678   0.592  0.0286 -0.0903 -2.5209
 4196TIP3    H234148   1.419   1.700   0.686  1.9740  0.2447 -0.1188
 4197TIP3   OH234149   4.645   0.006   6.896 -0.2216 -0.1035  0.0641
 4197TIP3    H134150   4.560   0.004   6.939  0.2907 -0.4920  1.0837
 4197TIP3    H234151   4.635   0.070   6.826 -1.7551 -1.1203 -0.7023
 4198TIP3   OH234152   5.505   2.581   8.215 -0.5007  0.3145  0.4951
 4198TIP3    H134153   5.492   2.672   8.187  1.4015  1.3039  2.4398
 4198TIP3    H234154   5.549   2.539   8.141 -1.6731  0.8599 -0.5481
 4199TIP3   OH234155   6.131   4.562   1.662  0.0949  0.2592  0.4439
 4199TIP3    H134156   6.130   4.539   1.569 -0.9960  0.6386  0.3491
 4199TIP3    H234157   6.160   4.482   1.706  0.7631  0.1200 -0.2195
 4200TIP3   OH234158   2.354   2.074   0.657  0.0836 -0.6453  0.4825
 4200TIP3    H134159   2.330   2.160   0.691 -1.2821 -1.1161  0.7822
 4200TIP3    H234160   2.284   2.016   0.687  1.3223 -2.0059  0.8547
 4201TIP3   OH234161   2.864   1.549   1.010 -0.0063 -0.4503 -0.1639
 4201TIP3    H134162   2.820   1.557   0.925 -1.0025  0.3388  0.4018
 4201TIP3    H234163   2.825   1.472   1.050  2.1642 -2.2962 -1.3426
 4202TIP3   OH234164   5.794   1.775   7.038  0.3895 -0.0496 -0.0899
 4202TIP3    H134165   5.858   1.739   7.099 -0.8276  0.3714  1.5063
 4202TIP3    H234166   5.713   1.780   7.089 -0.4526  1.1679 -1.4813
 4203TIP3   OH234167   3.111   0.444   7.442  0.2667 -0.0901 -0.5259
 4203TIP3    H134168   3.163   0.508   7.393  2.8603 -0.2930  1.7490
 4203TIP3    H234169   3.069   0.495   7.511 -0.5904 -0.3446 -0.8362
 4204TIP3   OH234170   6.402   4.664   1.443 -0.6414  0.2079 -0.4312
 4204TIP3    H134171   6.312   4.631   1.432 -0.5410 -0.4836  0.7378
 4204TIP3    H234172   6.457   4.587   1.431 -0.2292  0.5276 -0.5972
 4205TIP3   OH234173   6.275   4.943   6.906  0.3241 -0.2972  0.1263
 4205TIP3    H134174   6.249   4.931   6.997  3.1118 -0.5175  0.9925
 4205TIP3    H234175   6.358   4.894   6.898 -0.2596 -1.0053 -2.7708
 4206TIP3   OH234176   1.664   6.480   8.668 -0.4673  0.1871 -0.1996
 4206TIP3    H134177   1.681   6.522   8.584  1.1839  3.5936  1.5984
 4206TIP3    H234178   1.735   6.416   8.678  0.3572  1.0053 -0.6875
 4207TIP3   OH234179   4.966   3.981   0.058  0.3299  0.0959 -0.1939
 4207TIP3    H134180   5.060   3.998   0.049  0.6208  0.0779  2.2113
 4207TIP3    H234181   4.958   3.886   0.052  0.7199 -0.0472  1.1224
 4208TIP3   OH234182   3.826   1.914   7.469 -0.4834 -0.4394  0.3749
 4208TIP3    H134183   3.761   1.870   7.414 -0.1352 -0.9187  0.3371
 4208TIP3    H234184   3.807   1.883   7.557 -0.3523 -0.5200  0.3743
 4209TIP3   OH234185   6.195   6.807   0.621  0.1462 -0.5130 -0.9818
 4209TIP3    H134186   6.278   6.759   0.624 -0.3456 -1.4408  2.3893
 4209TIP3    H234187   6.219   6.897   0.642  0.5528 -0.1570 -2.8128
 4210TIP3   OH234188   6.066   3.257   8.296  0.7622  0.4055 -0.2178
 4210TIP3    H134189   6.054   3.199   8.221 -0.1383 -1.3767  1.2301
 4210TIP3    H234190   5.976   3.277   8.325  1.0654 -0.5950  1.5576
 4211TIP3   OH234191   1.247   5.590   0.314  0.3049 -0.1041 -0.6453
 4211TIP3    H134192   1.272   5.581   0.222  1.5387  1.0571 -0.4661
 4211TIP3    H234193   1.210   5.678   0.320  2.1306  0.6441  0.3187
 4212TIP3   OH234194   0.446   6.467   8.061  0.1441  0.0801 -0.2475
 4212TIP3    H134195   0.460   6.471   8.155  0.9224 -3.3608 -0.0846
 4212TIP3    H234196   0.366   6.415   8.051  0.0310  0.4571 -1.5149
 4213TIP3   OH234197   1.601   0.217   6.809 -0.5430  0.0888  0.3579
 4213TIP3    H134198   1.661   0.219   6.735  0.3551  1.8294  1.0782
 4213TIP3    H234199   1.517   0.246   6.773 -0.3046  0.1831 -0.1285
 4214TIP3   OH234200   2.890   0.572   1.194 -0.5337  0.3006  0.4809
 4214TIP3    H134201   2.928   0.596   1.109 -1.1569  0.3322  0.2069
 4214TIP3    H234202   2.815   0.517   1.172 -1.6218  1.5465  0.9336
 4215TIP3   OH234203   2.069   0.428   0.602  0.2511  0.0018  0.2925
 4215TIP3    H134204   2.069   0.418   0.507  2.7106 -0.2717  0.2551
 4215TIP3    H234205   2.023   0.351   0.635  0.6473 -0.6540 -0.6475
 4216TIP3   OH234206   3.059   1.237   7.434 -0.2651  0.4180  0.0711
 4216TIP3    H134207   3.011   1.222   7.515  1.3944 -1.3222  0.8092
 4216TIP3    H234208   2.994   1.221   7.365 -0.8565 -1.6274  1.0240
 4217TIP3   OH234209   4.933   4.520   8.567  0.1290  0.0601 -0.2904
 4217TIP3    H134210   4.912   4.447   8.508 -0.4059  1.1549 -1.4819
 4217TIP3    H234211   5.008   4.563   8.527  0.8819 -0.2103  0.7764
 4218TIP3   OH234212   0.455   0.923   6.557  0.1784 -0.0313 -0.4427
 4218TIP3    H134213   0.442   0.840   6.601  1.0272  0.7970  1.4787
 4218TIP3    H234214   0.394   0.921   6.483  1.9856 -3.3658 -2.0314
 4219TIP3   OH234215   6.515   4.820   6.937 -0.6270 -0.0233 -0.4611
 4219TIP3    H134216   6.590   4.876   6.957 -0.4843  0.0984 -1.2988
 4219TIP3    H234217   6.554   4.736   6.912 -0.6614  0.4751 -2.3680
 4220TIP3   OH234218   4.827   5.612   1.497 -0.1347  0.4873 -0.1143
 4220TIP3    H134219   4.783   5.641   1.417 -1.6227 -0.6041  0.2640
 4220TIP3    H234220   4.755   5.597   1.559  0.9305  0.4913  1.1489
 4221TIP3   OH234221   0.582   4.883   0.343 -0.1846 -0.2423  0.1045
 4221TIP3    H134222   0.647   4.814   0.330  0.6278  0.4396  0.4078
 4221TIP3    H234223   0.595   4.911   0.434 -0.2675  0.5295 -0.1117
 4222TIP3   OH234224   4.615   0.217   6.703 -0.5404 -0.6085 -0.6443
 4222TIP3    H134225   4.649   0.290   6.756 -1.7024 -0.8749  0.5257
 4222TIP3    H234226   4.639   0.240   6.613  0.9315  0.1826 -0.0955
 4223TIP3   OH234227   1.626   2.414   0.326 -0.6284  0.1946 -0.2057
 4223TIP3    H134228   1.689   2.447   0.262  0.2972 -0.0755  0.5461
 4223TIP3    H234229   1.637   2.472   0.402  0.9314 -1.6559  1.0905
 4224TIP3   OH234230   0.138   6.698   8.117 -0.0602 -0.5579  0.0122
 4224TIP3    H134231   0.106   6.728   8.032 -0.3860  0.6004  0.5149
 4224TIP3    H234232   0.111   6.767   8.178  1.0454 -0.8807  0.8967
 4225TIP3   OH234233   3.957   6.769   1.195 -0.1200 -0.0592  0.8484
 4225TIP3    H134234   3.924   6.721   1.119 -1.0671 -0.6893  1.6483
 4225TIP3    H234235   3.887   6.765   1.259 -0.1923  2.2844  1.0248
 4226TIP3   OH234236   2.431   2.447   7.879 -0.1983 -0.1791 -0.2875
 4226TIP3    H134237   2.437   2.353   7.895 -0.1674  0.3010  3.2166
 4226TIP3    H234238   2.338   2.464   7.871 -0.2837 -0.3598  0.2945
 4227TIP3   OH234239   5.262   0.708   7.809 -0.3266  0.2960  0.1520
 4227TIP3    H134240   5.326   0.765   7.765  0.9558  0.8514  2.5516
 4227TIP3    H234241   5.181   0.759   7.809  0.1551  1.0803  0.1103
 4228TIP3   OH234242   5.899   3.871   0.413  0.4520  0.1740  0.0068
 4228TIP3    H134243   5.864   3.853   0.500  0.4909 -0.4798 -0.1078
 4228TIP3    H234244   5.959   3.798   0.396 -1.2678 -0.9563 -1.5097
 4229TIP3   OH234245   4.235   4.142   7.674 -0.3520  0.7733  0.3785
 4229TIP3    H134246   4.230   4.233   7.703 -1.2244  0.6600  0.6383
 4229TIP3    H234247   4.151   4.104   7.701  0.1640 -0.2145  0.6418
 4230TIP3   OH234248   2.589   2.464   8.303 -0.5598  0.0266 -0.1158
 4230TIP3    H134249   2.577   2.558   8.286 -1.0558 -0.2380 -1.3237
 4230TIP3    H234250   2.613   2.460   8.396 -1.5154  1.2817  0.2222
 4231TIP3   OH234251   2.104   4.895   1.083 -0.0558 -0.0022  0.1456
 4231TIP3    H134252   2.164   4.823   1.063 -0.7559 -0.9044  1.1319
 4231TIP3    H234253   2.159   4.973   1.084  1.1502 -0.8313  1.2033
 4232TIP3   OH234254   6.690   6.460   7.533  0.1040 -0.8615  0.6564
 4232TIP3    H134255   6.678   6.497   7.620  0.0093 -1.2868  0.8291
 4232TIP3    H234256   6.622   6.393   7.526 -0.3363 -0.3664 -0.0118
 4233TIP3   OH234257   4.529   1.205   7.045  0.1375  0.6835 -0.3058
 4233TIP3    H134258   4.574   1.148   7.107  0.3451 -0.1884 -1.2333
 4233TIP3    H234259   4.599   1.256   7.005 -0.1433  2.4845  1.3373
 4234TIP3   OH234260   5.200   3.541   6.157  0.4066 -0.2893  0.0599
 4234TIP3    H134261   5.105   3.553   6.156  0.4004 -0.3059  0.3546
 4234TIP3    H234262   5.224   3.551   6.249  1.1859  3.5991 -0.3866
 4235TIP3   OH234263   3.528   5.352   7.718 -0.4642  0.9565 -0.0694
 4235TIP3    H134264   3.570   5.275   7.756 -2.1511  0.9090  1.9263
 4235TIP3    H234265   3.543   5.345   7.624 -2.2560 -2.9648 -0.2701
 4236TIP3   OH234266   2.882   3.573   0.192 -0.0891  0.2165  0.4843
 4236TIP3    H134267   2.848   3.484   0.203  0.0006  0.1165  0.0068
 4236TIP3    H234268   2.970   3.560   0.156  0.2396  0.4825  1.1843
 4237TIP3   OH234269   5.889   5.286   0.510  0.0925 -0.8623  0.1318
 4237TIP3    H134270   5.931   5.320   0.431 -0.1055  0.4559  0.5606
 4237TIP3    H234271   5.796   5.280   0.488 -0.0690  0.1901  0.4638
 4238TIP3   OH234272   2.310   4.651   0.189 -0.3679  0.0377  0.0162
 4238TIP3    H134273   2.375   4.589   0.155  0.1728  0.0974  0.8926
 4238TIP3    H234274   2.238   4.596   0.219 -0.1042 -0.1438  0.3340
 4239TIP3   OH234275   1.030   1.462   5.940 -0.1742  0.2532  0.3394
 4239TIP3    H134276   1.025   1.490   5.849  3.0707 -0.2209 -0.1101
 4239TIP3    H234277   1.008   1.369   5.938 -0.4327  0.3181  0.1069
 4240TIP3   OH234278   1.479   5.386   7.884 -0.2788 -0.4004  0.5683
 4240TIP3    H134279   1.452   5.330   7.811  2.6839  0.3633 -1.2593
 4240TIP3    H234280   1.435   5.470   7.867  0.6767 -0.1133 -0.5932
 4241TIP3   OH234281   6.815   5.211   0.175  0.3148 -0.4283  0.4922
 4241TIP3    H134282   6.887   5.230   0.235  0.0616  0.1585  0.6129
 4241TIP3    H234283   6.836   5.260   0.095  0.8682 -1.5413 -0.0718
 4242TIP3   OH234284   0.624   4.616   1.506  0.0384  0.1563  0.2260
 4242TIP3    H134285   0.604   4.708   1.518  0.6865  0.3736 -0.2971
 4242TIP3    H234286   0.608   4.576   1.592 -2.1980  0.3621 -0.0420
 4243TIP3   OH234287   5.952   4.133   0.352 -0.3261 -0.1048  0.6113
 4243TIP3    H134288   5.933   4.041   0.367 -0.3717 -0.0719  0.7558
 4243TIP3    H234289   5.992   4.163   0.434 -1.1137  0.2206  0.8806
 4244TIP3   OH234290   5.829   0.630   7.931  0.1717  0.5013 -0.1722
 4244TIP3    H134291   5.804   0.721   7.915 -0.4031  0.3275 -0.2786
 4244TIP3    H234292   5.755   0.579   7.900  1.1679 -0.0970 -1.6720
 4245TIP3   OH234293   1.756   1.967   8.217 -0.1766  0.5372  0.0879
 4245TIP3    H134294   1.692   1.899   8.193 -0.8748  1.3459 -0.3882
 4245TIP3    H234295   1.832   1.918   8.247 -1.3438 -0.4777  1.5781
 4246TIP3   OH234296   4.888   3.522   2.913  0.1812  0.5525  0.3510
 4246TIP3    H134297   4.853   3.437   2.890  0.7261  1.0760 -2.9450
 4246TIP3    H234298   4.980   3.505   2.934 -0.4546 -0.0140  3.0253
 4247TIP3   OH234299   3.852   2.770   1.141 -0.1678 -0.3311 -0.6276
 4247TIP3    H134300   3.861   2.861   1.113 -0.3670 -0.1868 -0.2200
 4247TIP3    H234301   3.937   2.731   1.121  0.3813  0.2801  0.4409
 4248TIP3   OH234302   6.844   1.817   7.372 -0.1656  0.3361 -0.4638
 4248TIP3    H134303   6.895   1.873   7.313  0.3626  0.3090 -0.0346
 4248TIP3    H234304   6.836   1.734   7.324  2.0460 -0.4010  0.3287
 4249TIP3   OH234305   0.123   5.367   7.243 -0.2387  0.2160  0.2733
 4249TIP3    H134306   0.057   5.343   7.308  1.2786  0.8762  2.1493
 4249TIP3    H234307   0.187   5.296   7.247 -0.4481 -0.0761 -1.0274
 4250TIP3   OH234308   6.311   6.747   8.300  0.2374  0.1633 -0.1537
 4250TIP3    H134309   6.241   6.688   8.330 -1.1796  1.4073 -0.8994
 4250TIP3    H234310   6.324   6.722   8.208  1.0717 -0.3073  0.0773
 4251TIP3   OH234311   3.710   4.857   1.669  0.6943  0.9841 -0.2655
 4251TIP3    H134312   3.703   4.803   1.591  1.7180  1.1601 -0.4915
 4251TIP3    H234313   3.790   4.908   1.657  1.0537  0.7841  1.0315
 4252TIP3   OH234314   0.562   4.525   1.049  0.0611 -0.1691  0.4102
 4252TIP3    H134315   0.644   4.490   1.015  0.2095  0.6236 -0.0717
 4252TIP3    H234316   0.496   4.459   1.026  0.1512  0.3134 -1.4532
 4253TIP3   OH234317   0.141   4.648   5.957  1.1329  0.0456  0.2128
 4253TIP3    H134318   0.107   4.605   5.878  3.9054 -1.8258 -0.0921
 4253TIP3    H234319   0.076   4.629   6.024  0.5093 -1.5754 -0.7841
 4254TIP3   OH234320   3.249   5.290   1.173  0.0719  0.1464 -0.2734
 4254TIP3    H134321   3.323   5.245   1.214 -0.6233 -0.8599 -0.0914
 4254TIP3    H234322   3.178   5.226   1.175 -1.2993  1.6215  1.0158
 4255TIP3   OH234323   5.016   2.446   0.585  0.3875 -0.1771  0.0399
 4255TIP3    H134324   5.073   2.447   0.661  1.2030  0.2838 -0.5682
 4255TIP3    H234325   4.927   2.441   0.622  0.6707  1.6013  1.0630
 4256TIP3   OH234326   6.144   5.121   8.126 -0.0937 -0.0594 -0.6779
 4256TIP3    H134327   6.052   5.138   8.109 -0.3985 -1.7197 -0.9030
 4256TIP3    H234328   6.148   5.026   8.141  0.9650  0.4553  3.2677
 4257TIP3   OH234329   5.310   3.612   7.592 -0.4247 -0.4250  0.1174
 4257TIP3    H134330   5.392   3.573   7.560 -1.1029 -0.5835 -1.5392
 4257TIP3    H234331   5.262   3.635   7.512 -0.0845  3.8498  0.9085
 4258TIP3   OH234332   2.946   3.662   8.177  0.2765  0.1189  0.1826
 4258TIP3    H134333   2.972   3.690   8.089  0.9025  1.1493  0.6694
 4258TIP3    H234334   2.972   3.570   8.181  0.2068  0.0518 -0.7237
 4259TIP3   OH234335   1.089   3.054   0.344 -0.0976 -0.0305 -0.2095
 4259TIP3    H134336   1.165   3.027   0.396 -1.5814 -1.4205  1.3715
 4259TIP3    H234337   1.126   3.087   0.262  2.2768  0.7485  1.0762
 4260TIP3   OH234338   1.983   2.778   7.678 -0.0537  0.4312 -0.1115
 4260TIP3    H134339   2.030   2.859   7.696  0.9528 -0.2898  0.5968
 4260TIP3    H234340   1.927   2.766   7.755  1.4964 -0.7116  0.8902
 4261TIP3   OH234341   4.850   0.080   0.935  0.0546 -0.2559  0.6042
 4261TIP3    H134342   4.861   0.066   1.029 -1.1686 -0.3692  0.7577
 4261TIP3    H234343   4.783   0.016   0.909 -0.5695  0.6371 -0.0733
 4262TIP3   OH234344   5.681   0.494   0.024 -0.1866  0.3221  0.2474
 4262TIP3    H134345   5.602   0.540  -0.004  0.2335 -0.2863 -2.1315
 4262TIP3    H234346   5.719   0.460  -0.057  0.9859 -1.8592  1.6223
 4263TIP3   OH234347   6.706   3.435   8.260 -0.3129  0.1470  0.1615
 4263TIP3    H134348   6.677   3.396   8.343  0.0363 -1.0478 -0.2663
 4263TIP3    H234349   6.631   3.485   8.230 -0.7655 -0.1690  0.7364
 4264TIP3   OH234350   6.648   1.666   8.603  0.0086  0.0545 -0.2432
 4264TIP3    H134351   6.581   1.694   8.542 -0.7209  0.6353  0.7890
 4264TIP3    H234352   6.676   1.580   8.572 -1.1657 -0.1591 -0.7184
 4265TIP3   OH234353   0.289   4.538   8.668 -0.2625 -0.0677 -0.0513
 4265TIP3    H134354   0.277   4.603   8.737  0.9140  0.4606 -0.3250
 4265TIP3    H234355   0.382   4.544   8.645 -0.7178  0.0536 -1.9810
 4266TIP3   OH234356   1.859   4.500   1.444  0.1395 -0.5783  0.4365
 4266TIP3    H134357   1.769   4.531   1.446 -0.2740 -1.7250  2.4579
 4266TIP3    H234358   1.852   4.405   1.458  1.6574 -0.6774  0.7362
 4267TIP3   OH234359   3.088   5.490   8.159 -0.6953  0.1110 -0.0275
 4267TIP3    H134360   3.121   5.566   8.111  1.2958  0.0454  1.1382
 4267TIP3    H234361   3.152   5.421   8.142 -2.5076 -1.4067 -1.1499
 4268TIP3   OH234362   0.413   1.086   7.235  1.0775 -0.2217  0.3073
 4268TIP3    H134363   0.440   1.003   7.275  2.9614 -0.1263 -0.6606
 4268TIP3    H234364   0.418   1.150   7.306 -1.0457 -0.9943  1.2334
 4269TIP3   OH234365   2.489   2.622   7.157  0.0121  0.0052  0.3695
 4269TIP3    H134366   2.462   2.531   7.169  0.9149 -0.2381  0.6481
 4269TIP3    H234367   2.444   2.669   7.227 -0.7751 -0.1503 -0.0173
 4270TIP3   OH234368   4.497   5.196   8.493 -0.5687  0.1791 -0.0999
 4270TIP3    H134369   4.548   5.122   8.458  1.3606  0.0715  2.6735
 4270TIP3    H234370   4.540   5.274   8.457 -0.7995  0.0447 -0.6934
 4271TIP3   OH234371   6.188   1.442   0.693 -0.9684  0.2379  0.0156
 4271TIP3    H134372   6.112   1.499   0.703 -0.6764  0.4209  1.4216
 4271TIP3    H234373   6.249   1.470   0.762 -1.2775 -2.4654  1.5433
 4272TIP3   OH234374   3.757   1.488   6.889  0.1131 -0.2496 -0.3378
 4272TIP3    H134375   3.839   1.452   6.857 -0.8485 -1.3421 -1.7349
 4272TIP3    H234376   3.694   1.416   6.878 -1.0574  0.5828  0.6087
 4273TIP3   OH234377   3.734   6.697   0.957  0.3026 -0.4662 -0.4244
 4273TIP3    H134378   3.686   6.654   0.887 -0.4864  1.6795 -1.2707
 4273TIP3    H234379   3.690   6.669   1.037 -2.2693  1.1688 -1.1472
 4274TIP3   OH234380   0.962   3.970   1.242 -0.3068  0.9047 -0.3403
 4274TIP3    H134381   0.875   3.963   1.203  0.3527  0.5397 -1.8107
 4274TIP3    H234382   0.989   4.060   1.226 -1.0429  1.5050  1.5688
 4275TIP3   OH234383   3.255   4.765   2.110 -0.1118  0.3020  0.8252
 4275TIP3    H134384   3.220   4.707   2.043 -0.3316  1.1103  0.2327
 4275TIP3    H234385   3.309   4.708   2.165  0.2855 -0.3216 -0.1861
 4276TIP3   OH234386   6.544   0.035   8.005 -0.1473  0.3300 -0.1747
 4276TIP3    H134387   6.601  -0.035   7.974  0.3299  1.3299 -1.6883
 4276TIP3    H234388   6.461   0.021   7.960 -0.3136  0.2867  0.1402
 4277TIP3   OH234389   2.577   0.424   8.356 -0.3308  0.2930 -0.2322
 4277TIP3    H134390   2.488   0.436   8.322  0.5851  1.8168 -2.3616
 4277TIP3    H234391   2.573   0.456   8.446 -1.8053  0.9437 -0.5029
 4278TIP3   OH234392   6.159   5.920   8.308  0.3647 -0.0471  0.1987
 4278TIP3    H134393   6.196   5.961   8.386 -2.5059 -0.7588  2.0629
 4278TIP3    H234394   6.221   5.850   8.286  1.0925 -0.0180  2.0106
 4279TIP3   OH234395   6.644   6.410   0.368  0.0903  0.3663  0.0276
 4279TIP3    H134396   6.619   6.420   0.460 -0.4255  0.7113 -0.1436
 4279TIP3    H234397   6.598   6.481   0.323 -0.0467 -0.0896 -0.5637
 4280TIP3   OH234398   4.846   2.041   6.903  0.0186 -0.3216 -0.2936
 4280TIP3    H134399   4.819   1.962   6.950  1.1468 -0.9034 -0.5821
 4280TIP3    H234400   4.823   2.024   6.812  0.3296 -0.3584 -0.3677
 4281TIP3   OH234401   5.575   2.883   8.587 -0.3344  0.3329  0.0888
 4281TIP3    H134402   5.649   2.909   8.532  0.7691 -0.6328  1.0595
 4281TIP3    H234403   5.613   2.826   8.654 -2.3212 -2.3233 -0.8445
 4282TIP3   OH234404   0.492   5.097   0.153  0.3481  0.0232  0.0957
 4282TIP3    H134405   0.446   5.167   0.199  2.7153  0.9704  1.1817
 4282TIP3    H234406   0.500   5.027   0.217 -0.6658 -0.6677 -0.5048
 4283TIP3   OH234407   5.309   0.783   0.712 -0.4634  0.3900 -0.1170
 4283TIP3    H134408   5.369   0.711   0.690 -0.9024  0.6368 -2.3788
 4283TIP3    H234409   5.231   0.766   0.660 -0.8840  2.0991 -0.1094
 4284TIP3   OH234410   4.391   1.597   0.695  0.4582 -0.0627  0.2687
 4284TIP3    H134411   4.449   1.665   0.661  1.3815 -0.7426  0.4419
 4284TIP3    H234412   4.387   1.614   0.789  1.4334 -0.7689  0.4566
 4285TIP3   OH234413   3.995   6.160   7.704 -0.1994  0.2562 -0.1806
 4285TIP3    H134414   4.011   6.152   7.799 -1.1643  0.3831 -0.0012
 4285TIP3    H234415   3.974   6.252   7.691  1.8587  0.6870 -0.8488
 4286TIP3   OH234416   0.264   5.834   7.048 -0.1863  0.0525  0.0941
 4286TIP3    H134417   0.335   5.894   7.027 -0.7756  0.6521 -0.2334
 4286TIP3    H234418   0.203   5.842   6.975  0.6181 -2.4059 -0.9389
 4287TIP3   OH234419   4.723   2.448   6.526 -0.5159  0.0686 -0.0379
 4287TIP3    H134420   4.710   2.519   6.464  1.1466 -1.9769 -2.9312
 4287TIP3    H234421   4.795   2.478   6.582 -1.2924  1.4729  0.2667
 4288TIP3   OH234422   3.695   3.420   0.282 -0.2951  0.0986  0.0426
 4288TIP3    H134423   3.673   3.504   0.240  0.0156 -0.1432 -0.6090
 4288TIP3    H234424   3.697   3.357   0.210 -0.4426 -0.4592  0.5187
 4289TIP3   OH234425   3.439   6.517   7.894  0.2774  0.2761 -0.1198
 4289TIP3    H134426   3.344   6.503   7.893 -0.0900  2.4433  0.3970
 4289TIP3    H234427   3.457   6.555   7.979  1.8837 -1.4282  0.3725
 4290TIP3   OH234428   0.868   0.529   0.618 -0.0509  0.1527 -0.1287
 4290TIP3    H134429   0.815   0.602   0.585  2.2418  0.6819 -3.1773
 4290TIP3    H234430   0.954   0.568   0.634  0.8951 -1.6373 -0.6299
 4291TIP3   OH234431   3.589   0.189   7.088 -0.1188 -0.0915 -0.2720
 4291TIP3    H134432   3.633   0.206   7.005  0.0828 -1.7752 -0.5595
 4291TIP3    H234433   3.648   0.223   7.155  0.9763 -1.0409 -0.7180
 4292TIP3   OH234434   1.929   0.372   2.038  0.2933 -0.0147 -0.3527
 4292TIP3    H134435   1.942   0.464   2.060 -0.7164 -0.4680  2.5091
 4292TIP3    H234436   2.007   0.328   2.073  0.4143 -0.3812 -1.0472
 4293TIP3   OH234437   5.879   3.835   0.716 -0.5561  0.0679  0.2622
 4293TIP3    H134438   5.810   3.779   0.682 -1.8038  1.6607  0.0285
 4293TIP3    H234439   5.835   3.892   0.779  0.4868  1.2730 -0.0634
 4294TIP3   OH234440   2.035   6.657   8.305 -0.1284  0.7469  0.0737
 4294TIP3    H134441   1.981   6.640   8.228 -0.2145  0.4140  0.2068
 4294TIP3    H234442   2.121   6.678   8.270 -0.3286  1.2300 -0.1387
 4295TIP3   OH234443   0.798   5.274   6.605 -0.0292  0.1305  0.5703
 4295TIP3    H134444   0.711   5.300   6.636 -0.3172  1.1627 -1.0108
 4295TIP3    H234445   0.783   5.241   6.517  0.9477 -1.4834  0.9725
 4296TIP3   OH234446   0.183   6.397   1.577 -0.0937  0.1006  0.1901
 4296TIP3    H134447   0.234   6.475   1.599 -1.2955  0.8001  0.6133
 4296TIP3    H234448   0.104   6.405   1.630 -0.3257 -1.3216  0.0956
 4297TIP3   OH234449   3.797   0.586   1.395 -0.9843  0.6193 -0.1588
 4297TIP3    H134450   3.876   0.621   1.437 -1.6254  2.5171 -0.4698
 4297TIP3    H234451   3.787   0.499   1.434  0.4028  0.9376  1.0238
 4298TIP3   OH234452   2.973   2.677   1.115 -0.2075  0.1100 -0.5712
 4298TIP3    H134453   2.992   2.697   1.023 -2.3890  2.3324 -0.6562
 4298TIP3    H234454   2.877   2.677   1.120 -0.1770 -1.8417  1.3902
 4299TIP3   OH234455   1.820   4.893   7.581 -0.1620  0.2219 -0.0146
 4299TIP3    H134456   1.743   4.950   7.573 -1.0032 -1.0142 -1.4347
 4299TIP3    H234457   1.891   4.951   7.607 -0.3369  2.5368 -3.9778
 4300TIP3   OH234458   3.628   3.118   0.465 -0.5068 -0.5317 -0.2703
 4300TIP3    H134459   3.535   3.123   0.442 -1.0640  0.3467  1.9019
 4300TIP3    H234460   3.632   3.054   0.536  0.4253  0.0290  0.2073
 4301TIP3   OH234461   1.180   2.037   1.252 -0.3269  0.2793 -0.2348
 4301TIP3    H134462   1.084   2.033   1.247 -0.3030  0.4932 -0.9806
 4301TIP3    H234463   1.198   2.123   1.291 -0.4417  0.0882  0.2493
 4302TIP3   OH234464   3.804   4.180   7.125  0.4534  0.0534  0.0836
 4302TIP3    H134465   3.797   4.276   7.128  1.8621  0.1799 -0.1848
 4302TIP3    H234466   3.845   4.162   7.041  2.9265 -0.5807  1.3443
 4303TIP3   OH234467   0.585   5.909   6.494 -0.4636 -0.5453  0.6710
 4303TIP3    H134468   0.533   5.872   6.566 -0.2189  0.2170  1.2494
 4303TIP3    H234469   0.625   5.988   6.531 -0.2888 -0.1698 -0.2915
 4304TIP3   OH234470   0.005   1.717   1.352  0.6229 -0.1692 -0.4635
 4304TIP3    H134471   0.016   1.768   1.272  0.3790 -1.8045 -1.6043
 4304TIP3    H234472  -0.089   1.697   1.354  0.3810  0.9524  0.9715
 4305TIP3   OH234473   3.054   3.607   1.050  0.1568  0.1127 -0.1588
 4305TIP3    H134474   3.145   3.580   1.064  0.2337 -0.4077 -1.4736
 4305TIP3    H234475   3.012   3.593   1.134  1.5578  1.5703  0.8438
 4306TIP3   OH234476   6.581   4.541   6.960 -0.1144 -0.4836  0.3443
 4306TIP3    H134477   6.602   4.521   7.051  1.3523  0.1206  0.1686
 4306TIP3    H234478   6.486   4.529   6.954 -0.7575  2.1766  2.6990
 4307TIP3   OH234479   3.567   0.611   6.154 -0.7321  0.0253  0.0985
 4307TIP3    H134480   3.521   0.688   6.119 -1.7810 -0.3980  0.4831
 4307TIP3    H234481   3.508   0.538   6.136  0.1306 -0.6534 -0.0141
 4308TIP3   OH234482   3.527   2.155   8.197  0.4673 -0.1105 -0.3117
 4308TIP3    H134483   3.434   2.156   8.222  0.6479  2.5325  0.6072
 4308TIP3    H234484   3.568   2.095   8.259 -0.3663  0.0793  0.4442
 4309TIP3   OH234485   0.320   4.353   0.207 -0.3311  0.0538 -0.5875
 4309TIP3    H134486   0.339   4.291   0.136 -0.5929  1.0933 -1.5993
 4309TIP3    H234487   0.281   4.429   0.163  0.5201  1.1938  0.5412
 4310TIP3   OH234488   5.841   3.766   2.342  0.2133 -0.2366  0.2168
 4310TIP3    H134489   5.912   3.819   2.305 -0.2508  0.1587 -0.1230
 4310TIP3    H234490   5.774   3.829   2.367  0.4577 -0.5000  1.6550
 4311TIP3   OH234491   1.294   3.441   7.986  0.5337 -0.1913  0.1708
 4311TIP3    H134492   1.249   3.363   8.020 -0.6781  0.6653  0.6038
 4311TIP3    H234493   1.251   3.459   7.902 -0.0534  0.6905  0.6349
 4312TIP3   OH234494   6.523   5.686   7.311 -0.1559  0.3032 -0.4028
 4312TIP3    H134495   6.519   5.657   7.402  1.4004 -3.3077 -1.2870
 4312TIP3    H234496   6.445   5.648   7.270  1.7089 -2.7390 -1.5003
 4313TIP3   OH234497   2.193   5.940   7.717 -0.6939  0.0268 -0.0637
 4313TIP3    H134498   2.105   5.908   7.694 -0.3272  0.1019 -1.6749
 4313TIP3    H234499   2.241   5.938   7.635 -0.0209  2.7190  0.1897
 4314TIP3   OH234500   3.471   0.679   1.217 -0.0072  0.0852  0.5063
 4314TIP3    H134501   3.458   0.725   1.134  0.4884 -0.4523  0.1230
 4314TIP3    H234502   3.548   0.722   1.256 -2.1583  2.6571  2.3485
 4315TIP3   OH234503   0.667   1.198   0.330  0.0813 -0.3593  0.0955
 4315TIP3    H134504   0.688   1.110   0.362 -0.3297 -0.8630 -0.9328
 4315TIP3    H234505   0.694   1.197   0.238  0.5572  0.7754  0.2096
 4316TIP3   OH234506   4.160   5.082   2.156  0.6805  0.1645  0.3236
 4316TIP3    H134507   4.176   5.094   2.250 -1.3912  0.2072  0.7210
 4316TIP3    H234508   4.246   5.058   2.120  1.2220 -1.4775  2.4952
 4317TIP3   OH234509   4.293   5.186   2.378 -0.0795 -0.3319 -0.5784
 4317TIP3    H134510   4.286   5.265   2.326  0.6185 -0.7273 -1.2962
 4317TIP3    H234511   4.386   5.179   2.399 -0.2047 -0.7010 -0.1134
 4318TIP3   OH234512   0.210   4.225   7.422 -0.1625  0.0481 -0.0352
 4318TIP3    H134513   0.140   4.260   7.366  0.1560 -0.0563 -0.5046
 4318TIP3    H234514   0.245   4.151   7.373  1.4675  1.1585 -0.6295
 4319TIP3   OH234515   1.021   0.689   1.038 -0.0394 -0.0744 -0.0911
 4319TIP3    H134516   0.943   0.650   0.998  0.3401 -0.2691 -0.6628
 4319TIP3    H234517   1.082   0.615   1.049 -0.0818  0.0041  0.7196
 4320TIP3   OH234518   5.676   4.422   5.782 -0.2494  0.3526 -0.4680
 4320TIP3    H134519   5.663   4.332   5.810 -1.8028 -0.0479 -2.2592
 4320TIP3    H234520   5.587   4.457   5.772  0.3037  1.6924 -0.9296
 4321TIP3   OH234521   5.972   4.915   7.818  0.7415 -0.0788 -1.0834
 4321TIP3    H134522   5.962   4.913   7.913 -1.5379 -1.2207 -1.2518
 4321TIP3    H234523   6.011   4.831   7.796  0.3311 -0.2400 -1.2101
 4322TIP3   OH234524   3.744   2.447   0.275  0.0008  0.7628  0.1339
 4322TIP3    H134525   3.816   2.404   0.321  1.0753 -1.2534 -3.1228
 4322TIP3    H234526   3.781   2.473   0.191 -2.3981  2.1881 -0.5776
 4323TIP3   OH234527   4.895   1.711   6.108 -1.2515 -0.4500 -0.1394
 4323TIP3    H134528   4.871   1.803   6.124 -2.2392 -0.7187 -0.0152
 4323TIP3    H234529   4.816   1.673   6.070 -0.5244 -1.0138 -1.1237
 4324TIP3   OH234530   3.052   6.045   6.810  0.2638 -0.4736  0.0190
 4324TIP3    H134531   3.092   6.107   6.871 -1.1458  0.4833  0.0175
 4324TIP3    H234532   3.091   6.066   6.725 -0.6973  0.9323 -0.1168
 4325TIP3   OH234533   4.843   5.252   1.302 -0.0249 -0.1733 -0.1437
 4325TIP3    H134534   4.906   5.211   1.361  0.9489 -0.0304 -1.0563
 4325TIP3    H234535   4.765   5.267   1.356  0.8204 -0.0812  1.0712
 4326TIP3   OH234536   3.587   6.755   7.137  0.6698  0.3150 -0.6764
 4326TIP3    H134537   3.554   6.843   7.118  1.0488  0.4282 -0.8210
 4326TIP3    H234538   3.583   6.709   7.054 -0.5878 -0.1659 -0.3712
 4327TIP3   OH234539   2.836   5.064   0.447 -0.5916  0.0362 -0.6482
 4327TIP3    H134540   2.832   5.073   0.543 -2.3575 -0.1132 -0.6724
 4327TIP3    H234541   2.874   4.977   0.433 -0.6983 -0.1083 -0.0702
 4328TIP3   OH234542   6.002   2.275   1.077 -0.3393 -0.3068  0.2373
 4328TIP3    H134543   5.939   2.297   1.008  1.4477 -0.6647 -1.5787
 4328TIP3    H234544   5.996   2.179   1.086 -0.8507 -0.2249  0.9124
 4329TIP3   OH234545   6.731   4.582   8.267  0.2609 -0.2427 -0.4560
 4329TIP3    H134546   6.813   4.615   8.304  0.9654  0.1604 -2.2626
 4329TIP3    H234547   6.733   4.488   8.287 -0.0534  0.1408  1.6218
 4330TIP3   OH234548   1.061   1.756   7.742  0.0397  0.5045 -0.3776
 4330TIP3    H134549   1.071   1.847   7.768 -0.1230  0.5197 -0.3661
 4330TIP3    H234550   1.150   1.724   7.733  0.1331  1.1056 -1.9037
 4331TIP3   OH234551   5.906   0.042   0.648  0.0245 -0.4066  0.3933
 4331TIP3    H134552   5.923   0.136   0.650  0.0945 -0.2668 -2.5720
 4331TIP3    H234553   5.992   0.003   0.630 -0.5662 -0.6847 -2.0876
 4332TIP3   OH234554   2.449   0.092   7.832 -0.2262 -0.1778 -0.0355
 4332TIP3    H134555   2.418   0.143   7.757  1.9800 -1.2377 -1.8046
 4332TIP3    H234556   2.544   0.101   7.829 -0.0688  0.0433  2.9388
 4333TIP3   OH234557   6.176   1.762   2.195  0.8776  0.3930  0.2168
 4333TIP3    H134558   6.126   1.839   2.221  0.3257  0.1119 -0.0032
 4333TIP3    H234559   6.264   1.777   2.231  0.6571  0.9212  0.5403
 4334TIP3   OH234560   6.643   6.667   0.884  0.1805  0.0954  0.1352
 4334TIP3    H134561   6.672   6.585   0.925 -0.5296  0.3136  1.1269
 4334TIP3    H234562   6.700   6.678   0.808  1.8460 -0.1094  1.3110
 4335TIP3   OH234563   4.694   3.279   6.660  0.1702  1.0069  0.0996
 4335TIP3    H134564   4.658   3.201   6.618 -0.7981  1.2430  0.4417
 4335TIP3    H234565   4.756   3.246   6.725 -0.8279  0.4629  0.8070
 4336TIP3   OH234566   0.550   5.193   0.592 -0.0796 -0.3363 -0.6803
 4336TIP3    H134567   0.585   5.255   0.657 -0.0299 -1.1224  0.0700
 4336TIP3    H234568   0.595   5.111   0.612 -2.6113 -1.5311  0.6350
 4337TIP3   OH234569   3.372   2.783   7.780 -0.1247  0.2523 -0.3192
 4337TIP3    H134570   3.421   2.809   7.858  0.3685  2.1010 -1.1992
 4337TIP3    H234571   3.438   2.765   7.714 -0.4740 -2.7816  0.0305
 4338TIP3   OH234572   4.895   6.346   0.655  0.3853  0.5344  0.5004
 4338TIP3    H134573   4.978   6.386   0.627  0.5065 -0.1203 -0.1033
 4338TIP3    H234574   4.920   6.286   0.725  0.4704  0.0812  0.0830
 4339TIP3   OH234575   0.534   1.197   6.705 -0.4034 -0.4602  0.2673
 4339TIP3    H134576   0.515   1.118   6.653  1.1469 -1.8457  1.6581
 4339TIP3    H234577   0.514   1.171   6.795 -0.9395  1.1369  0.6299
 4340TIP3   OH234578   6.647   6.133   0.333 -1.0508 -0.3511 -0.0020
 4340TIP3    H134579   6.564   6.107   0.372 -1.1233 -1.0928 -0.6380
 4340TIP3    H234580   6.658   6.225   0.359 -1.2477 -0.7281  1.4866
 4341TIP3   OH234581   3.309   6.704   0.156  0.1479  0.5944  0.2257
 4341TIP3    H134582   3.299   6.784   0.104  0.6603  0.0100 -0.8124
 4341TIP3    H234583   3.371   6.728   0.225  0.8191  0.9220 -0.4717
 4342TIP3   OH234584   5.199   4.155   0.154 -0.0224 -0.2649 -0.0565
 4342TIP3    H134585   5.220   4.135   0.245  1.3102 -1.0600 -0.5070
 4342TIP3    H234586   5.262   4.104   0.103 -1.7868 -1.1293 -1.4888
 4343TIP3   OH234587   0.979   4.025   8.335 -0.4549 -0.1632  0.2706
 4343TIP3    H134588   0.925   3.958   8.378 -1.0783  1.3400  1.9627
 4343TIP3    H234589   0.918   4.071   8.277  0.5995 -2.8860 -3.3683
 4344TIP3   OH234590   2.099   2.877   0.835  0.1412  0.4448 -0.1816
 4344TIP3    H134591   2.174   2.918   0.792  2.1366 -1.2509  1.4710
 4344TIP3    H234592   2.101   2.911   0.924 -1.3583  0.6916 -0.2213
 4345TIP3   OH234593   1.201   1.446   7.209 -0.0574 -0.1042  0.0087
 4345TIP3    H134594   1.175   1.442   7.302  0.4214 -0.6393  0.1225
 4345TIP3    H234595   1.118   1.438   7.162 -0.5690  2.1842  0.3711
 4346TIP3   OH234596   6.001   6.268   0.208  0.0005  0.0459 -0.2611
 4346TIP3    H134597   5.974   6.346   0.255  0.2020 -1.0137  1.7235
 4346TIP3    H234598   5.919   6.231   0.174 -0.2815  0.2413  0.2079
 4347TIP3   OH234599   2.443   5.942   0.886 -0.1471 -0.5190  0.4807
 4347TIP3    H134600   2.455   5.937   0.792 -1.8317 -0.1988  0.2233
 4347TIP3    H234601   2.360   5.897   0.903 -1.0380  1.3759  1.5092
 4348TIP3   OH234602   5.359   6.232   1.256 -0.1275 -0.2218 -0.0245
 4348TIP3    H134603   5.286   6.281   1.294  0.9871  3.9360 -2.5478
 4348TIP3    H234604   5.433   6.252   1.312 -0.2842 -2.1510  0.9516
 4349TIP3   OH234605   0.364   1.539   2.338 -0.2023 -0.1538 -0.0906
 4349TIP3    H134606   0.295   1.495   2.288 -0.4268 -1.1387  1.0375
 4349TIP3    H234607   0.332   1.629   2.349 -2.3073 -1.0547  2.0604
 4350TIP3   OH234608   4.516   6.474   8.092  0.0016 -0.1606 -0.4425
 4350TIP3    H134609   4.514   6.518   8.007 -0.2066 -0.5964 -0.6718
 4350TIP3    H234610   4.488   6.384   8.072  0.5198 -0.4237 -0.0076
 4351TIP3   OH234611   6.187   1.777   0.389  0.2210  0.0982 -0.5400
 4351TIP3    H134612   6.153   1.798   0.302  0.6373  0.5988 -0.5842
 4351TIP3    H234613   6.264   1.833   0.399  1.8792 -1.9546 -1.0098
 4352TIP3   OH234614   5.237   0.585   8.657  0.1409  0.0360 -0.1349
 4352TIP3    H134615   5.249   0.504   8.706  1.0471 -0.9702 -1.9228
 4352TIP3    H234616   5.159   0.625   8.696 -0.4739 -1.7977  0.6329
 4353TIP3   OH234617   1.675   4.529   7.096 -0.8136  0.0093  0.2820
 4353TIP3    H134618   1.692   4.439   7.069 -2.6229 -0.3469  0.2472
 4353TIP3    H234619   1.762   4.569   7.102 -0.0449 -1.4488 -0.6701
 4354TIP3   OH234620   5.108   1.480   8.495  0.8205  0.1051 -0.3153
 4354TIP3    H134621   5.050   1.406   8.475  1.4144 -0.4293 -0.1221
 4354TIP3    H234622   5.168   1.483   8.420  1.3843 -0.2066  0.1173
 4355TIP3   OH234623   3.569   0.322   1.777 -0.3711 -0.0131 -0.4681
 4355TIP3    H134624   3.512   0.280   1.841 -1.4511 -0.0155 -1.3953
 4355TIP3    H234625   3.554   0.272   1.696 -0.0222  0.7977 -1.0424
 4356TIP3   OH234626   2.504   1.157   8.008  0.2565  0.0111  0.0273
 4356TIP3    H134627   2.416   1.139   8.039  0.5810  0.6956  1.3966
 4356TIP3    H234628   2.539   1.222   8.069  1.9609 -0.7612 -0.0653
 4357TIP3   OH234629   5.231   0.654   7.015  0.6941 -0.0394  0.1183
 4357TIP3    H134630   5.285   0.650   6.936 -0.7191  1.5068 -1.0299
 4357TIP3    H234631   5.145   0.622   6.986 -0.1096  1.4500  0.7253
 4358TIP3   OH234632   4.440   1.334   8.452 -0.1324  0.5072  0.3732
 4358TIP3    H134633   4.475   1.411   8.497 -0.1729  0.4366  0.5256
 4358TIP3    H234634   4.366   1.306   8.506 -0.1000  0.3440  0.3330
 4359TIP3   OH234635   3.084   3.464   6.720  0.8711 -0.1220 -0.3718
 4359TIP3    H134636   3.176   3.486   6.733  1.3828 -0.3364 -3.0800
 4359TIP3    H234637   3.086   3.373   6.689 -0.5273 -1.1234  2.2085
 4360TIP3   OH234638   4.956   4.489   2.150  0.5237  0.2737  0.2694
 4360TIP3    H134639   4.908   4.546   2.210  1.0005 -0.7582  1.6733
 4360TIP3    H234640   5.041   4.474   2.193  1.6274  0.9690 -1.5171
 4361TIP3   OH234641   4.250   6.760   7.942 -0.2656  0.1427  0.4564
 4361TIP3    H134642   4.239   6.740   7.849  0.5154 -0.1047  0.4152
 4361TIP3    H234643   4.330   6.813   7.947 -0.7725  0.8957  0.8927
 4362TIP3   OH234644   1.786   2.977   8.343  0.1410 -0.2730  0.1571
 4362TIP3    H134645   1.862   2.941   8.297 -0.1967 -0.0530 -0.6061
 4362TIP3    H234646   1.713   2.923   8.314 -0.3015  0.7194 -0.6695
 4363TIP3   OH234647   1.820   3.524   8.317 -0.0891  0.0367 -0.5019
 4363TIP3    H134648   1.840   3.435   8.345 -1.5743  0.0986  0.8973
 4363TIP3    H234649   1.858   3.531   8.229  2.1971 -1.1417  0.3101
 4364TIP3   OH234650   3.024   0.873   0.797 -0.6162  0.2891 -0.1429
 4364TIP3    H134651   3.027   0.888   0.702 -0.2562 -0.2464 -0.2278
 4364TIP3    H234652   3.035   0.778   0.805 -2.2689  0.1072  0.3655
 4365TIP3   OH234653   3.726   0.514   1.147  0.2137  0.0884 -0.2567
 4365TIP3    H134654   3.745   0.552   1.233 -1.5904  1.0152 -0.2292
 4365TIP3    H234655   3.636   0.540   1.129 -0.1742 -1.9163 -1.4750
 4366TIP3   OH234656   4.070   6.724   8.149  0.2364  0.6815  0.0094
 4366TIP3    H134657   4.122   6.742   8.070 -2.2509  2.1306 -1.4332
 4366TIP3    H234658   3.984   6.700   8.116 -0.3970 -0.5432  2.3204
 4367TIP3   OH234659   4.843   1.873   1.802 -0.3034  0.1676  0.5213
 4367TIP3    H134660   4.835   1.778   1.787  0.1823  0.2693 -0.5026
 4367TIP3    H234661   4.936   1.891   1.787 -0.7932  1.1662 -1.7174
 4368TIP3   OH234662   4.730   1.394   7.316  0.8110 -0.6308 -0.5103
 4368TIP3    H134663   4.678   1.430   7.244  0.9843  0.2712 -0.1867
 4368TIP3    H234664   4.666   1.374   7.384  0.9699  1.8596  0.4770
 4369TIP3   OH234665   3.685   5.220   0.615  0.2279 -0.2749 -0.0378
 4369TIP3    H134666   3.639   5.136   0.617 -1.7271  0.7200  1.4161
 4369TIP3    H234667   3.653   5.263   0.536  1.5010 -1.0004 -0.9727
 4370TIP3   OH234668   6.016   0.331   7.884 -0.5282  0.0180 -0.6502
 4370TIP3    H134669   6.082   0.378   7.934  0.3686 -0.7099 -1.1120
 4370TIP3    H234670   5.933   0.365   7.916 -0.1135 -1.6208  2.5835
 4371TIP3   OH234671   2.496   2.002   0.431  0.3301  0.1682 -0.1833
 4371TIP3    H134672   2.468   2.017   0.521  0.6530 -1.6019  0.2429
 4371TIP3    H234673   2.422   1.958   0.390  0.0671  1.2325 -0.8944
 4372TIP3   OH234674   5.970   3.091   7.503  0.2803 -0.3647  0.0721
 4372TIP3    H134675   6.009   3.115   7.587 -1.5018 -0.9077  1.1211
 4372TIP3    H234676   5.930   3.172   7.471  1.1060 -0.1169 -0.3682
 4373TIP3   OH234677   1.590   5.851   0.907  0.7121  0.2374 -0.5895
 4373TIP3    H134678   1.680   5.820   0.916  0.6124  0.0405 -0.2566
 4373TIP3    H234679   1.544   5.779   0.863  0.8805  0.6338 -1.4328
 4374TIP3   OH234680   5.378   0.164   8.558 -0.4212 -0.1674  0.3488
 4374TIP3    H134681   5.298   0.217   8.556 -0.6928 -0.5884 -1.1663
 4374TIP3    H234682   5.390   0.142   8.650 -2.2692 -0.4073  0.5661
 4375TIP3   OH234683   6.095   0.788   0.694 -0.1839  0.3253 -0.4984
 4375TIP3    H134684   6.169   0.843   0.667  1.1457 -1.0040  0.2755
 4375TIP3    H234685   6.070   0.823   0.779  1.2085 -0.7101  0.3827
 4376TIP3   OH234686   5.018   6.061   0.676 -0.8664  0.7904 -0.0049
 4376TIP3    H134687   5.023   5.967   0.662  1.5818  1.0683 -1.6395
 4376TIP3    H234688   4.953   6.072   0.746 -0.0502 -2.2136  1.3823
 4377TIP3   OH234689   5.715   1.508   0.647  0.1777  0.5017  0.0819
 4377TIP3    H134690   5.734   1.512   0.554 -1.2127  0.2383 -0.2336
 4377TIP3    H234691   5.800   1.490   0.688  0.9413  1.3626 -1.0509
 4378TIP3   OH234692   1.101   4.566   0.685 -0.0135 -0.1702 -0.3845
 4378TIP3    H134693   1.072   4.655   0.708 -1.5351 -1.0187  1.2107
 4378TIP3    H234694   1.153   4.538   0.760 -1.0502 -1.2522 -0.0409
 4379TIP3   OH234695   3.187   0.791   1.184  0.1764  0.6499  0.2622
 4379TIP3    H134696   3.184   0.705   1.144 -0.5190  0.9568 -0.3701
 4379TIP3    H234697   3.166   0.776   1.276  1.0190  0.0391  0.3721
 4380TIP3   OH234698   5.085   2.398   1.147  0.6931  0.3355  0.8691
 4380TIP3    H134699   5.049   2.437   1.227 -1.0815  2.3488 -0.7826
 4380TIP3    H234700   5.017   2.414   1.081  2.3292 -0.7556 -1.1746
 4381TIP3   OH234701   4.390   3.836   2.491 -0.2083 -0.4974  0.4134
 4381TIP3    H134702   4.299   3.865   2.480 -0.0833  0.4399  1.6637
 4381TIP3    H234703   4.428   3.899   2.553  2.0120  0.6115 -1.9184
 4382TIP3   OH234704   3.053   5.589   8.432  0.7106 -0.0378  0.3138
 4382TIP3    H134705   3.037   5.495   8.442 -0.4050  0.1155  0.0736
 4382TIP3    H234706   3.067   5.601   8.338  1.4400 -0.0413  0.4172
 4383TIP3   OH234707   4.372   4.172   0.586 -0.0737 -0.3687  0.1892
 4383TIP3    H134708   4.355   4.173   0.492 -0.0849  0.7582  0.1894
 4383TIP3    H234709   4.467   4.187   0.594 -0.0602 -0.5361  0.3522
 4384TIP3   OH234710   1.048   3.006   1.239  0.1540  0.1648 -1.3286
 4384TIP3    H134711   1.028   3.035   1.149  0.7856 -0.9696 -1.8600
 4384TIP3    H234712   1.143   3.004   1.243  0.1537 -2.1664 -1.4663
 4385TIP3   OH234713   4.322   3.174   7.753  0.2901 -0.3037 -0.3414
 4385TIP3    H134714   4.299   3.238   7.685  0.4328  1.2198  0.9864
 4385TIP3    H234715   4.332   3.091   7.705 -0.6490  0.4928 -2.0097
 4386TIP3   OH234716   1.617   3.181   2.101  0.2194 -0.0448 -0.6469
 4386TIP3    H134717   1.566   3.143   2.172 -0.1625  1.4718 -0.0716
 4386TIP3    H234718   1.599   3.125   2.025 -0.4122 -0.9077  0.1222
 4387TIP3   OH234719   1.219   2.391   7.234 -0.0101 -0.0066 -0.2706
 4387TIP3    H134720   1.154   2.393   7.304  0.5439 -0.6726  0.2735
 4387TIP3    H234721   1.210   2.304   7.196  0.0929  0.1460 -0.6452
 4388TIP3   OH234722   5.398   4.727   0.772  0.3126 -0.5535 -0.1915
 4388TIP3    H134723   5.428   4.817   0.760  0.0285 -0.6092 -1.4675
 4388TIP3    H234724   5.414   4.708   0.864  2.5520  0.0188 -0.4133
 4389TIP3   OH234725   5.632   6.442   0.332 -0.5645 -0.3482  0.4184
 4389TIP3    H134726   5.700   6.404   0.388 -0.0039  1.2378  0.8899
 4389TIP3    H234727   5.576   6.491   0.392 -1.1478 -0.2854 -0.1678
 4390TIP3   OH234728   1.911   5.446   7.766  0.2207 -0.2666 -0.6476
 4390TIP3    H134729   1.907   5.360   7.808  2.1637 -0.5325 -0.9119
 4390TIP3    H234730   1.994   5.483   7.795 -1.9956  3.0781  2.2828
 4391TIP3   OH234731   2.690   1.934   1.568  0.5525  0.7728  0.0492
 4391TIP3    H134732   2.655   1.846   1.579  2.2712  0.1971  1.4553
 4391TIP3    H234733   2.781   1.928   1.597  0.8939  2.9005 -0.3368
 4392TIP3   OH234734   3.066   4.745   2.352  0.6904  0.2596  0.1312
 4392TIP3    H134735   3.155   4.781   2.357  1.1967 -1.0768  2.4414
 4392TIP3    H234736   3.079   4.654   2.324  0.3063 -0.5059  2.2518
 4393TIP3   OH234737   6.796   6.357   0.019 -0.2989  0.3871 -0.0421
 4393TIP3    H134738   6.825   6.339   0.108 -1.0774  0.2743  0.1975
 4393TIP3    H234739   6.707   6.392   0.029  0.0156  1.4522 -0.6955
 4394TIP3   OH234740   3.474   3.579   1.434  0.1991  0.3632 -0.1856
 4394TIP3    H134741   3.531   3.548   1.505 -2.2511 -0.5842  1.5081
 4394TIP3    H234742   3.437   3.661   1.466  0.3924  0.8381 -1.1464
 4395TIP3   OH234743   5.351   2.320   1.169 -0.4928 -0.8217 -0.2749
 4395TIP3    H134744   5.355   2.328   1.073  1.6837  0.6999 -0.1513
 4395TIP3    H234745   5.278   2.375   1.195 -0.8245 -0.8946 -1.0109
 4396TIP3   OH234746   3.603   1.627   6.694  0.0785 -0.0011 -0.0102
 4396TIP3    H134747   3.614   1.719   6.719  1.4065  0.2493 -1.3907
 4396TIP3    H234748   3.652   1.579   6.761  0.2130  0.3583  0.1570
 4397TIP3   OH234749   5.923   3.710   7.745 -0.3270  0.2527 -0.4532
 4397TIP3    H134750   5.910   3.717   7.839  0.2428  0.7754 -0.4066
 4397TIP3    H234751   5.984   3.781   7.723  2.7389 -2.1744 -0.5694
 4398TIP3   OH234752   5.221   4.561   8.507  0.0972 -0.0289  0.6134
 4398TIP3    H134753   5.271   4.504   8.449 -0.0865  1.5157 -1.1462
 4398TIP3    H234754   5.249   4.536   8.595  2.6148 -0.4423 -0.2264
 4399TIP3   OH234755   5.270   1.521   1.138  0.1264 -0.1121 -0.0008
 4399TIP3    H134756   5.236   1.443   1.182  0.9855 -1.1136 -1.0213
 4399TIP3    H234757   5.346   1.547   1.190  0.3238 -0.4732 -0.0984
 4400TIP3   OH234758   5.551   5.819   7.459 -0.0069  0.2392  0.5293
 4400TIP3    H134759   5.597   5.814   7.375 -0.0796  1.6128  0.3855
 4400TIP3    H234760   5.531   5.728   7.481  0.8031 -0.2038 -0.5007
 4401TIP3   OH234761   3.848   2.376   6.346  0.5579 -0.2789  0.3626
 4401TIP3    H134762   3.785   2.317   6.389 -0.7419  1.4405  0.9178
 4401TIP3    H234763   3.917   2.318   6.315 -1.8229 -2.4875 -1.3093
 4402TIP3   OH234764   1.744   4.515   6.490  0.3909  0.1910 -0.0479
 4402TIP3    H134765   1.800   4.479   6.421  1.8468  0.3269  0.9977
 4402TIP3    H234766   1.772   4.470   6.569 -2.1088 -0.8766  0.3219
 4403TIP3   OH234767   4.641   0.355   8.043  0.0318  0.2821  0.2971
 4403TIP3    H134768   4.557   0.330   8.081  0.0856  0.8819  0.8148
 4403TIP3    H234769   4.620   0.427   7.984 -0.0369 -0.5780 -0.7670
 4404TIP3   OH234770   5.984   4.982   7.416 -0.2069  0.4776 -0.1568
 4404TIP3    H134771   5.990   5.054   7.479  0.4964  0.1061  0.2141
 4404TIP3    H234772   6.062   4.991   7.362 -1.0471  1.0853 -1.3125
 4405TIP3   OH234773   5.444   0.874   1.124  0.2435 -0.1072 -0.3147
 4405TIP3    H134774   5.458   0.784   1.151 -1.3324  0.0969  1.4860
 4405TIP3    H234775   5.353   0.876   1.093  0.5671  0.6582 -1.2551
 4406TIP3   OH234776   2.803   4.668   6.491 -0.0774  0.0225  0.3674
 4406TIP3    H134777   2.734   4.607   6.465 -0.2255  0.6609 -0.8137
 4406TIP3    H234778   2.869   4.613   6.533 -0.6122 -0.8221  0.1263
 4407TIP3   OH234779   3.897   3.634   8.081 -0.4448 -0.1952 -0.2191
 4407TIP3    H134780   3.922   3.549   8.118  3.1055  0.1573 -1.4425
 4407TIP3    H234781   3.919   3.697   8.150  1.2077  0.0281 -0.9058
 4408TIP3   OH234782   3.984   3.512   7.725 -0.4131  0.3810 -0.2382
 4408TIP3    H134783   3.962   3.475   7.640  0.5357 -0.6015 -0.0696
 4408TIP3    H234784   4.041   3.586   7.706 -0.4801  0.3739 -0.4656
 4409TIP3   OH234785   5.493   5.494   6.158  0.2101  0.4092  0.2031
 4409TIP3    H134786   5.433   5.449   6.099  1.3819 -2.4359  1.0054
 4409TIP3    H234787   5.576   5.445   6.150  1.9307  3.0840  0.4349
 4410TIP3   OH234788   0.362   2.768   0.807 -0.5222 -0.0902 -0.0500
 4410TIP3    H134789   0.403   2.714   0.739 -1.2323  0.6448 -1.0765
 4410TIP3    H234790   0.380   2.720   0.888  1.4795 -0.3257 -0.5592
 4411TIP3   OH234791   3.337   0.472   8.583 -0.1780 -0.0274  0.4967
 4411TIP3    H134792   3.293   0.498   8.502  0.5444  2.0415  0.7206
 4411TIP3    H234793   3.430   0.477   8.562  0.0121  0.3164  1.3843
 4412TIP3   OH234794   4.586   4.219   0.059  0.1049 -0.1695 -0.7387
 4412TIP3    H134795   4.506   4.227   0.008 -0.0272 -0.0521 -0.5157
 4412TIP3    H234796   4.648   4.176   0.001  0.1627  0.5690 -1.2329
 4413TIP3   OH234797   3.564   3.979   6.236  0.7894  0.1936  0.4832
 4413TIP3    H134798   3.535   3.906   6.181  1.0514  0.5708 -0.1664
 4413TIP3    H234799   3.484   4.030   6.253  0.4068 -0.8158  1.8342
 4414TIP3   OH234800   4.470   5.695   0.395  0.2184 -0.4175 -0.2143
 4414TIP3    H134801   4.517   5.763   0.347 -0.3597 -0.7050 -1.2197
 4414TIP3    H234802   4.461   5.730   0.484 -0.5946  1.1005 -0.8478
 4415TIP3   OH234803   6.405   5.455   0.631  0.7224  0.2385  0.4358
 4415TIP3    H134804   6.345   5.491   0.697  2.1073  1.7033  0.9503
 4415TIP3    H234805   6.360   5.470   0.548  0.5333  1.6788  0.7754
 4416TIP3   OH234806   4.800   3.272   2.866 -1.1768 -0.0247  0.1360
 4416TIP3    H134807   4.829   3.223   2.789  1.1847 -0.3143  1.1225
 4416TIP3    H234808   4.706   3.256   2.871 -1.4034 -0.0854 -2.5886
 4417TIP3   OH234809   0.904   5.773   7.075  0.0283  0.4939 -0.0966
 4417TIP3    H134810   0.878   5.739   7.160  2.0811 -1.4870 -0.1680
 4417TIP3    H234811   0.943   5.859   7.095 -0.0572  0.3207  0.8816
 4418TIP3   OH234812   2.660   2.534   8.005 -0.2187  0.0039 -0.1982
 4418TIP3    H134813   2.581   2.496   7.967  0.4540 -2.1952  0.4449
 4418TIP3    H234814   2.691   2.468   8.067  1.3274  1.4413  0.6562
 4419TIP3   OH234815   3.530   2.209   7.401 -0.3950 -0.1678  0.2167
 4419TIP3    H134816   3.527   2.231   7.308  0.4268 -0.0089  0.2221
 4419TIP3    H234817   3.620   2.228   7.428 -0.2016 -1.6497  0.6970
 4420TIP3   OH234818   5.060   3.821   0.672  0.5104  0.0311 -0.1940
 4420TIP3    H134819   5.045   3.903   0.625  0.7366 -0.0753 -0.4486
 4420TIP3    H234820   5.154   3.804   0.663  0.9112  0.9460  1.8052
 4421TIP3   OH234821   1.142   2.125   6.627  0.2276 -0.5072 -0.1492
 4421TIP3    H134822   1.084   2.052   6.649 -0.2508  0.5417  2.5113
 4421TIP3    H234823   1.084   2.201   6.620  1.1694  0.8224  3.8549
 4422TIP3   OH234824   6.143   0.949   7.944 -0.4663 -0.1313  0.0582
 4422TIP3    H134825   6.205   0.880   7.917  0.1898 -0.6256  2.6160
 4422TIP3    H234826   6.143   1.010   7.870 -1.2842 -2.9179 -2.4879
 4423TIP3   OH234827   2.399   1.290   1.161 -0.0395 -0.6279  0.1182
 4423TIP3    H134828   2.316   1.288   1.114  0.3027 -0.5112 -0.4998
 4423TIP3    H234829   2.453   1.226   1.116  0.6220  0.1926 -0.2740
 4424TIP3   OH234830   3.289   6.372   7.209 -0.5253 -0.1397 -0.4308
 4424TIP3    H134831   3.378   6.385   7.239  0.1727 -0.0647 -2.3767
 4424TIP3    H234832   3.236   6.375   7.288  1.3035 -1.3565  0.9106
 4425TIP3   OH234833   4.600   6.811   8.246  0.0032  0.0819  0.1350
 4425TIP3    H134834   4.660   6.812   8.320  0.6544  1.6907 -0.3638
 4425TIP3    H234835   4.531   6.749   8.272  2.2592 -2.5327  0.3518
 4426TIP3   OH234836   2.749   4.648   1.381 -0.4580  0.2741 -0.4931
 4426TIP3    H134837   2.840   4.629   1.358  0.6569  3.8513  0.3351
 4426TIP3    H234838   2.698   4.602   1.314  2.0585  0.1024 -2.4449
 4427TIP3   OH234839   2.901   2.706   8.489  0.0314 -0.0726 -0.0943
 4427TIP3    H134840   2.963   2.667   8.551  0.5642 -0.1193 -0.6492
 4427TIP3    H234841   2.815   2.687   8.527  0.3538  0.1566  0.7802
 4428TIP3   OH234842   3.746   4.508   0.926 -0.0016  0.0387  0.0871
 4428TIP3    H134843   3.696   4.457   0.990 -0.8252  0.9743  0.2056
 4428TIP3    H234844   3.783   4.581   0.976  2.5106 -1.2255  0.2578
 4429TIP3   OH234845   3.416   0.672   1.474  0.2553  0.0700 -0.4136
 4429TIP3    H134846   3.458   0.663   1.389 -0.5031  0.7532 -0.8782
 4429TIP3    H234847   3.369   0.590   1.487  1.4118 -0.5552 -0.0483
 4430TIP3   OH234848   4.605   6.473   1.726  0.1276  0.5478 -0.0879
 4430TIP3    H134849   4.537   6.470   1.793  2.0598  0.1628  1.9844
 4430TIP3    H234850   4.663   6.400   1.747  2.1211  1.8693 -0.6780
 4431TIP3   OH234851   0.190   0.084   6.560  0.2419  0.3888  0.4985
 4431TIP3    H134852   0.200   0.008   6.617 -0.3118  0.2289  0.3971
 4431TIP3    H234853   0.278   0.105   6.531  0.2759 -1.2852 -0.8325
 4432TIP3   OH234854   3.222   1.222   0.545 -0.2149  0.5429 -0.0542
 4432TIP3    H134855   3.260   1.147   0.591  1.9066  1.9932  0.6826
 4432TIP3    H234856   3.269   1.224   0.461 -0.9574  0.5026 -0.4795
 4433TIP3   OH234857   4.605   0.952   0.789  0.2204  0.3127  0.6669
 4433TIP3    H134858   4.525   0.925   0.745  0.4249 -0.0793  0.5231
 4433TIP3    H234859   4.607   0.899   0.869 -0.1329  0.9975  1.1353
 4434TIP3   OH234860   1.424   3.619   6.517  0.1738  0.2336  0.1485
 4434TIP3    H134861   1.492   3.610   6.451  1.2335 -0.3496  1.2759
 4434TIP3    H234862   1.361   3.551   6.497  1.2590 -0.9478  0.5963
 4435TIP3   OH234863   3.855   5.430   7.795 -0.3486  0.2018 -0.1564
 4435TIP3    H134864   3.775   5.477   7.819 -0.3187  0.4778 -0.5777
 4435TIP3    H234865   3.924   5.496   7.803 -0.0361 -0.2371  0.9684
 4436TIP3   OH234866   3.188   1.115   7.847  0.4996 -0.2363  0.6988
 4436TIP3    H134867   3.108   1.112   7.794  1.1542 -2.1629 -0.2703
 4436TIP3    H234868   3.258   1.135   7.785  0.8979  0.6149  1.3977
 4437TIP3   OH234869   2.773   2.547   1.480 -0.2164  0.0703  1.1481
 4437TIP3    H134870   2.793   2.541   1.573  0.2853 -0.2236  1.0255
 4437TIP3    H234871   2.825   2.478   1.439 -0.0913  0.4757  0.5949
 4438TIP3   OH234872   1.932   6.230   0.348 -0.3141  0.3974 -0.3697
 4438TIP3    H134873   1.987   6.202   0.421 -1.2872 -0.9248 -0.1044
 4438TIP3    H234874   1.993   6.244   0.276  0.6378  1.5188  0.6223
 4439TIP3   OH234875   6.840   0.424   8.288 -0.1943  0.3627  0.0018
 4439TIP3    H134876   6.829   0.510   8.248 -2.0775  0.2892  0.2591
 4439TIP3    H234877   6.768   0.371   8.253  0.5847 -0.9434  0.2896
 4440TIP3   OH234878   1.441   2.414   1.829  0.0733  0.0041  0.2195
 4440TIP3    H134879   1.397   2.481   1.881  0.2127  0.6329 -0.4546
 4440TIP3    H234880   1.476   2.353   1.893 -0.5721  0.2510  0.8240
 4441TIP3   OH234881   4.696   5.413   6.104 -0.3439 -0.0592 -0.7873
 4441TIP3    H134882   4.729   5.424   6.193 -1.1325 -1.0921 -0.3483
 4441TIP3    H234883   4.707   5.499   6.064  0.0678  0.4113  0.2892
 4442TIP3   OH234884   2.004   0.696   8.010 -0.4567 -0.0152 -0.3085
 4442TIP3    H134885   1.961   0.669   8.091 -3.0487  1.6232 -1.0154
 4442TIP3    H234886   1.992   0.622   7.951 -1.0342 -0.1563 -0.0244
 4443TIP3   OH234887   5.103   6.482   0.523 -0.1018  0.2738 -0.4510
 4443TIP3    H134888   5.151   6.425   0.463  1.9517  0.8396  0.5470
 4443TIP3    H234889   5.106   6.569   0.482 -0.8677  0.2047 -0.6779
 4444TIP3   OH234890   1.974   3.492   8.091 -0.0493 -0.8341  0.2178
 4444TIP3    H134891   1.993   3.584   8.075  2.2544 -1.7611 -3.5032
 4444TIP3    H234892   2.046   3.461   8.145 -0.5759 -0.6281  1.0671
 4445TIP3   OH234893   0.572   1.371   1.474 -0.3883 -0.2228 -0.4940
 4445TIP3    H134894   0.590   1.462   1.454 -1.0413 -0.5784 -3.0280
 4445TIP3    H234895   0.644   1.345   1.532  1.9170  0.9494 -2.6252
 4446TIP3   OH234896   3.222   5.051   7.078  0.1899  0.1924  0.3586
 4446TIP3    H134897   3.196   4.990   7.010 -1.2337 -0.7276  1.6666
 4446TIP3    H234898   3.301   5.013   7.117  0.7862  0.5297 -0.4887
 4447TIP3   OH234899   0.579   2.533   7.726  0.6339 -0.7491 -0.0305
 4447TIP3    H134900   0.577   2.484   7.644  2.9092 -0.6782 -0.2057
 4447TIP3    H234901   0.511   2.493   7.780 -1.7470 -0.0060 -2.3144
 4448TIP3   OH234902   5.107   1.521   5.818 -0.1857 -0.1877 -0.1386
 4448TIP3    H134903   5.194   1.554   5.796  1.0874 -0.3512  3.7586
 4448TIP3    H234904   5.114   1.426   5.809 -0.1137 -0.1702 -0.2657
 4449TIP3   OH234905   0.553   3.977   8.578 -0.2672  0.2311  0.3858
 4449TIP3    H134906   0.463   3.950   8.594 -0.6866  0.9660 -0.6686
 4449TIP3    H234907   0.606   3.899   8.600 -1.1861 -0.3877  0.4447
 4450TIP3   OH234908   1.558   4.059   0.806  0.0592  0.4072 -0.4269
 4450TIP3    H134909   1.497   4.048   0.733 -0.8818  1.0559  0.2482
 4450TIP3    H234910   1.503   4.058   0.884  1.1779 -1.9082  0.4433
 4451TIP3   OH234911   2.906   1.166   0.216 -0.1560  0.5648  0.5551
 4451TIP3    H134912   2.859   1.221   0.278 -0.8951 -0.6231  1.0826
 4451TIP3    H234913   2.860   1.082   0.218  1.8676 -0.6181  1.0016
 4452TIP3   OH234914   1.118   5.417   1.348  0.1531  0.2339  0.0913
 4452TIP3    H134915   1.048   5.478   1.372  0.4093  0.0271  1.4347
 4452TIP3    H234916   1.084   5.331   1.372  0.5851  0.0560  0.0670
 4453TIP3   OH234917   5.686   6.317   8.039  0.6345  0.0130  0.4400
 4453TIP3    H134918   5.699   6.223   8.048  0.3377 -0.1996 -1.1492
 4453TIP3    H234919   5.598   6.326   8.004  0.4482  0.9235  1.1089
 4454TIP3   OH234920   6.537   3.498   1.790  0.5503 -0.0549 -0.1897
 4454TIP3    H134921   6.501   3.561   1.727  0.0423  0.1029  0.2517
 4454TIP3    H234922   6.587   3.551   1.852 -2.6617  0.4577  2.2335
 4455TIP3   OH234923   1.512   2.944   0.163 -0.7567  0.1532 -0.6825
 4455TIP3    H134924   1.554   3.007   0.221 -2.2439  0.4614  0.1145
 4455TIP3    H234925   1.431   2.919   0.208 -0.4707 -1.9342 -1.2255
 4456TIP3   OH234926   6.058   5.798   0.798  0.3116  0.4826 -0.5992
 4456TIP3    H134927   6.005   5.875   0.777  0.7047  0.7343 -0.6803
 4456TIP3    H234928   6.029   5.772   0.886 -0.2059  0.3910 -0.7928
 4457TIP3   OH234929   2.249   4.496   6.854 -0.1093  0.1843  0.1949
 4457TIP3    H134930   2.181   4.477   6.919  1.0804 -2.8918  0.7471
 4457TIP3    H234931   2.331   4.477   6.900  0.8693 -0.2637 -1.6508
 4458TIP3   OH234932   4.083   2.287   6.242 -0.8685  0.6914 -0.1535
 4458TIP3    H134933   4.085   2.298   6.147 -1.2441  0.8810 -0.1398
 4458TIP3    H234934   4.172   2.308   6.270  0.2052 -2.4437 -0.7873
 4459TIP3   OH234935   1.875   0.545   8.460 -0.2222 -0.1883 -0.3401
 4459TIP3    H134936   1.780   0.534   8.451 -0.1170 -1.7806  0.1560
 4459TIP3    H234937   1.913   0.488   8.393  0.4098  1.5453 -1.5198
 4460TIP3   OH234938   2.369   3.625   7.939  0.8059 -0.2582  0.1556
 4460TIP3    H134939   2.360   3.710   7.895  2.2036 -0.9791 -1.6981
 4460TIP3    H234940   2.312   3.631   8.016 -0.3226  1.7866 -0.7518
 4461TIP3   OH234941   5.184   3.868   8.520 -0.1353 -0.2769 -0.6187
 4461TIP3    H134942   5.153   3.793   8.469  0.6957 -0.0296 -1.5189
 4461TIP3    H234943   5.162   3.944   8.466  0.8996 -0.0172 -0.6922
 4462TIP3   OH234944   1.428   0.822   0.597  0.3897 -0.4386 -0.3615
 4462TIP3    H134945   1.488   0.896   0.603 -0.8395  0.5260  0.4035
 4462TIP3    H234946   1.344   0.861   0.572  0.2706 -1.8729 -2.4894
 4463TIP3   OH234947   6.357   3.389   8.672  0.0601 -0.1465 -0.0908
 4463TIP3    H134948   6.364   3.318   8.608  0.0095  0.4784 -0.8112
 4463TIP3    H234949   6.391   3.466   8.626 -0.4727  0.4275  0.4554
 4464TIP3   OH234950   5.590   2.848   6.048 -0.0075 -0.0817 -0.6781
 4464TIP3    H134951   5.595   2.839   6.143 -2.2030  0.9620 -0.4219
 4464TIP3    H234952   5.560   2.762   6.018 -0.5714 -0.0250 -0.2935
 4465TIP3   OH234953   5.482   3.329   0.046 -0.2961 -0.4285 -0.0700
 4465TIP3    H134954   5.481   3.423   0.066  0.1016 -0.9364  2.8249
 4465TIP3    H234955   5.394   3.310   0.016 -0.8304  0.6501  0.7135
 4466TIP3   OH234956   3.374   4.904   1.448 -0.6360 -0.5631 -0.7184
 4466TIP3    H134957   3.404   4.816   1.425 -0.6002 -0.1088 -2.5729
 4466TIP3    H234958   3.396   4.913   1.540 -2.4042 -3.2157  0.1069
 4467TIP3   OH234959   2.524   2.194   7.896 -0.8605 -0.1000  0.1833
 4467TIP3    H134960   2.476   2.121   7.935 -0.5792  0.1032  0.9073
 4467TIP3    H234961   2.558   2.158   7.813 -0.3636 -0.9304  0.7263
 4468TIP3   OH234962   0.356   4.442   7.468  0.2918 -0.2250 -0.1236
 4468TIP3    H134963   0.325   4.352   7.460  1.2013 -0.4848 -0.8407
 4468TIP3    H234964   0.447   4.439   7.437  0.5286  0.8191  0.4248
 4469TIP3   OH234965   6.634   0.634   7.606  0.4908 -0.5921 -0.3038
 4469TIP3    H134966   6.579   0.676   7.540 -0.1541 -1.5995 -0.4255
 4469TIP3    H234967   6.711   0.690   7.612  0.0781  0.0857 -1.1465
 4470TIP3   OH234968   3.898   2.181   7.948  0.2984 -0.0591  0.1536
 4470TIP3    H134969   3.814   2.219   7.970  0.8757  0.3282  1.8020
 4470TIP3    H234970   3.900   2.180   7.852 -1.0987  0.9629  0.0943
 4471TIP3   OH234971   1.081   6.464   1.724 -0.2275 -0.1465  0.6445
 4471TIP3    H134972   1.107   6.390   1.669 -0.9179 -0.2790  0.4902
 4471TIP3    H234973   1.081   6.429   1.813  1.5410  0.2426  0.8282
 4472TIP3   OH234974   0.230   5.114   7.259 -0.1791  0.3897 -0.1025
 4472TIP3    H134975   0.308   5.126   7.314  0.4758 -0.6002 -0.7669
 4472TIP3    H234976   0.165   5.075   7.317 -0.1666  1.1540  0.4418
 4473TIP3   OH234977   6.051   3.668   2.031 -0.2767 -0.6781 -0.2260
 4473TIP3    H134978   6.086   3.706   2.112  0.0618 -0.7222 -0.3481
 4473TIP3    H234979   6.073   3.732   1.963 -0.0805 -0.8884 -0.3656
 4474TIP3   OH234980   0.105   5.552   0.362 -0.2577  0.0684 -0.3466
 4474TIP3    H134981   0.039   5.529   0.428  1.7301 -1.6154  1.2173
 4474TIP3    H234982   0.134   5.639   0.388 -1.6440  0.7265 -0.9097
 4475TIP3   OH234983   1.680   5.721   0.220 -0.0831 -0.2099 -0.0351
 4475TIP3    H134984   1.621   5.733   0.294  0.0549 -0.1315  0.0644
 4475TIP3    H234985   1.709   5.630   0.226  0.3794 -0.0409  0.3485
 4476TIP3   OH234986   4.234   6.612   0.979  0.0352  0.5293 -1.0343
 4476TIP3    H134987   4.153   6.574   0.945 -0.2089  0.9719 -0.9554
 4476TIP3    H234988   4.207   6.697   1.014  0.1854 -0.1277  0.7504
 4477TIP3   OH234989   1.101   0.971   1.110  0.5139 -0.0532  0.2181
 4477TIP3    H134990   1.058   0.893   1.076 -1.1356  0.8154  0.1770
 4477TIP3    H234991   1.119   1.025   1.033  2.0147 -0.5252  0.2022
 4478TIP3   OH234992   0.335   3.197   8.584 -0.2051 -0.0148 -0.0981
 4478TIP3    H134993   0.348   3.280   8.538 -0.8249 -0.7946 -1.7407
 4478TIP3    H234994   0.267   3.216   8.648 -1.2112  0.4600 -1.2749
 4479TIP3   OH234995   6.246   0.414   7.159 -0.0597 -0.0999 -0.8857
 4479TIP3    H134996   6.199   0.426   7.242  2.1562 -2.5161  0.8644
 4479TIP3    H234997   6.203   0.339   7.118  0.7590 -0.8508 -0.3969
 4480TIP3   OH234998   4.973   1.125   7.015 -0.5078 -0.6571  0.4818
 4480TIP3    H134999   4.971   1.061   7.087  0.3057  0.1721  1.2695
 4480TIP3    H235000   5.002   1.074   6.939  0.5516 -1.1549  1.1909
 4481TIP3   OH235001   3.586   5.917   0.973  0.2100  0.2529 -0.2176
 4481TIP3    H135002   3.570   5.969   0.894  0.0191  1.3866  0.5486
 4481TIP3    H235003   3.667   5.870   0.954 -0.4588 -0.4453 -1.5599
 4482TIP3   OH235004   2.553   0.722   7.972 -1.2382  0.1145  0.0738
 4482TIP3    H135005   2.503   0.654   8.018  0.4506 -1.5606 -0.4408
 4482TIP3    H235006   2.561   0.793   8.035 -1.5390 -0.8920  1.2748
 4483TIP3   OH235007   5.362   3.961   0.044 -0.5004 -0.4150  0.0693
 4483TIP3    H135008   5.339   3.910   0.121 -3.3929 -0.3277 -0.6374
 4483TIP3    H235009   5.333   3.907  -0.030 -1.9366  1.3956 -0.7504
 4484TIP3   OH235010   4.312   5.685   7.837 -0.4208 -0.2124 -0.1996
 4484TIP3    H135011   4.275   5.741   7.769 -0.4619  0.6023  0.4716
 4484TIP3    H235012   4.395   5.654   7.799 -0.2248  0.5879 -0.4684
 4485TIP3   OH235013   0.660   4.929   0.634  0.6242  0.6554 -0.0025
 4485TIP3    H135014   0.612   4.899   0.711 -0.9214 -1.6910 -1.7470
 4485TIP3    H235015   0.726   4.861   0.619  2.3571  2.1682  0.4195
 4486TIP3   OH235016   0.299   2.399   8.634 -0.3513  0.0676  0.6274
 4486TIP3    H135017   0.316   2.400   8.728 -0.4917 -0.6668  0.6642
 4486TIP3    H235018   0.224   2.458   8.623  0.3858  1.0646  0.8184
 4487TIP3   OH235019   4.071   3.751   7.374  0.2510 -0.0941 -0.4991
 4487TIP3    H135020   4.040   3.808   7.303 -0.3873 -2.2593 -2.0743
 4487TIP3    H235021   4.163   3.736   7.355  0.8947  1.7355  0.9205
 4488TIP3   OH235022   0.216   4.718   0.131  0.2863  0.2559 -0.5735
 4488TIP3    H135023   0.161   4.796   0.129 -0.0880  0.0087 -0.2374
 4488TIP3    H235024   0.257   4.719   0.218 -0.7534 -0.5976 -0.0356
 4489TIP3   OH235025   6.430   4.070   0.359  0.1022  0.5771 -0.1326
 4489TIP3    H135026   6.374   4.108   0.427 -1.0204 -1.1809 -0.0067
 4489TIP3    H235027   6.515   4.061   0.401 -0.4270  0.0639  0.8941
 4490TIP3   OH235028   3.797   0.423   0.873  0.5389  0.4481  0.0142
 4490TIP3    H135029   3.769   0.450   0.960 -2.3533 -0.1157 -0.6136
 4490TIP3    H235030   3.829   0.503   0.831  0.9385  0.9365  1.2279
 4491TIP3   OH235031   2.791   1.341   6.894 -0.0524  0.0814 -0.2307
 4491TIP3    H135032   2.747   1.358   6.811  0.4716  2.3348 -0.1200
 4491TIP3    H235033   2.885   1.350   6.873  0.0941  0.4160  0.5346
 4492TIP3   OH235034   3.630   2.790   8.142 -0.0914 -0.0277 -0.1765
 4492TIP3    H135035   3.640   2.817   8.233  0.0237  0.5769 -0.3651
 4492TIP3    H235036   3.713   2.815   8.100  2.0127 -4.7148  0.5684
 4493TIP3   OH235037   3.408   6.424   6.341  0.1055  0.4895  0.1706
 4493TIP3    H135038   3.316   6.448   6.335  0.4845  2.3439  0.8991
 4493TIP3    H235039   3.419   6.390   6.430  0.0023 -0.3472 -0.1333
 4494TIP3   OH235040   3.426   6.392   1.104  0.5055  0.5749  0.5092
 4494TIP3    H135041   3.459   6.303   1.112  0.7070  0.6521  0.5227
 4494TIP3    H235042   3.337   6.387   1.139  0.4419  0.3363  0.3235
 4495TIP3   OH235043   0.598   3.670   6.666  0.7479  0.1713 -0.1254
 4495TIP3    H135044   0.540   3.745   6.679  0.2070 -0.5363  2.1543
 4495TIP3    H235045   0.686   3.705   6.684  0.6685  0.5459 -0.4424
 4496TIP3   OH235046   2.679   2.154   5.944 -0.4600  0.3064 -0.1229
 4496TIP3    H135047   2.603   2.183   5.894 -0.2429 -0.9442 -1.2098
 4496TIP3    H235048   2.739   2.229   5.941 -0.5289  0.3302 -1.5687
 4497TIP3   OH235049   2.460   4.975   2.459 -0.3654  0.4478 -0.3275
 4497TIP3    H135050   2.398   4.921   2.508 -0.3171  0.5194 -0.1870
 4497TIP3    H235051   2.406   5.018   2.392 -1.3815  3.7767  2.3273
 4498TIP3   OH235052   6.006   1.839   8.219  0.0319  0.7229  0.4711
 4498TIP3    H135053   5.994   1.919   8.271 -0.9940  0.1507  1.1466
 4498TIP3    H235054   6.005   1.768   8.284 -0.5001  0.0514 -0.2531
 4499TIP3   OH235055   6.148   0.489   8.081 -0.3654 -0.1652  0.3919
 4499TIP3    H135056   6.224   0.494   8.139  0.1741 -0.4624 -0.2817
 4499TIP3    H235057   6.109   0.576   8.086  0.8959  0.4824 -0.4200
 4500TIP3   OH235058   3.329   5.815   0.874 -0.5215 -0.1422  0.1690
 4500TIP3    H135059   3.362   5.732   0.838 -0.3211 -0.1734  0.4304
 4500TIP3    H235060   3.400   5.848   0.928 -1.1753 -0.5755  1.3219
 4501TIP3   OH235061   5.037   2.391   8.212 -0.3483  0.8771 -0.0518
 4501TIP3    H135062   5.127   2.370   8.187 -0.7481 -2.1132  0.6943
 4501TIP3    H235063   5.022   2.342   8.292 -3.3498 -0.7460 -1.4378
 4502TIP3   OH235064   6.543   2.384   7.752 -0.1730  0.1405 -0.5224
 4502TIP3    H135065   6.491   2.339   7.686 -0.7335  1.5928 -1.1061
 4502TIP3    H235066   6.612   2.428   7.703  1.9449 -2.0601  0.2643
 4503TIP3   OH235067   2.161   0.191   6.714 -0.6943  0.0237 -0.9528
 4503TIP3    H135068   2.149   0.226   6.803 -0.2910  2.2047 -1.7008
 4503TIP3    H235069   2.254   0.169   6.709 -0.5968  0.4474 -1.0159
 4504TIP3   OH235070   4.092   5.133   0.894  0.0934 -0.7142  0.2106
 4504TIP3    H135071   4.003   5.165   0.905  0.6871  1.5274 -1.0405
 4504TIP3    H235072   4.121   5.167   0.810  1.7249 -2.4690 -0.0241
 4505TIP3   OH235073   3.871   0.773   6.797  0.0362  0.0781  0.1280
 4505TIP3    H135074   3.959   0.744   6.771  0.4907  0.0060  1.6454
 4505TIP3    H235075   3.862   0.743   6.887 -1.0026  1.3082  0.4638
 4506TIP3   OH235076   5.085   6.751   7.568 -0.3727  0.5154  0.1722
 4506TIP3    H135077   5.134   6.832   7.554  1.2564 -0.7255 -1.9588
 4506TIP3    H235078   5.143   6.697   7.621  0.5356 -0.8394 -2.0733
 4507TIP3   OH235079   4.583   0.133   0.059  0.5360  0.1619  0.6481
 4507TIP3    H135080   4.563   0.197   0.127  0.7125 -0.2345  1.0848
 4507TIP3    H235081   4.596   0.051   0.107  1.3246  0.0147  0.2047
 4508TIP3   OH235082   2.839   6.198   7.124  0.5934 -0.2348  0.4819
 4508TIP3    H135083   2.878   6.113   7.148  0.6234 -0.1313  0.7975
 4508TIP3    H235084   2.824   6.242   7.207 -0.9924 -0.6129  0.4202
 4509TIP3   OH235085   3.494   4.348   7.212 -0.4966 -0.1352  0.4279
 4509TIP3    H135086   3.439   4.387   7.280  0.2153  0.8626  0.4516
 4509TIP3    H235087   3.432   4.307   7.152 -1.1108 -1.9357  2.1810
 4510TIP3   OH235088   2.090   2.153   6.567 -0.1237 -0.4587 -0.1187
 4510TIP3    H135089   2.135   2.089   6.512  0.6200  0.3373 -0.4498
 4510TIP3    H235090   1.999   2.151   6.535  0.4471  0.5581 -1.9560
 4511TIP3   OH235091   1.099   4.540   1.664 -0.0640  0.2330 -0.3844
 4511TIP3    H135092   1.147   4.493   1.732 -0.0875 -2.2825 -1.9420
 4511TIP3    H235093   1.008   4.513   1.677 -0.5442  2.1048  0.3537
 4512TIP3   OH235094   2.011   2.730   1.149 -0.4613  0.3733  0.0687
 4512TIP3    H135095   1.969   2.805   1.107 -0.0690  1.0466  0.8559
 4512TIP3    H235096   2.042   2.763   1.233 -1.1386 -0.9106  0.8692
 4513TIP3   OH235097   2.717   4.901   7.294 -0.2315 -0.1962 -0.3218
 4513TIP3    H135098   2.723   4.816   7.250 -0.0292 -0.7619  0.7513
 4513TIP3    H235099   2.780   4.895   7.366 -1.2856  0.2796  0.6764
 4514TIP3   OH235100   1.227   5.477   7.315 -0.0522  0.5502  0.4918
 4514TIP3    H135101   1.277   5.396   7.315  0.9935  1.1856  0.2529
 4514TIP3    H235102   1.145   5.454   7.271  1.1483  0.1587 -1.6714
 4515TIP3   OH235103   1.359   1.894   8.034 -0.1466  0.2726  0.3063
 4515TIP3    H135104   1.366   1.970   8.091 -1.2823  0.9071 -0.3545
 4515TIP3    H235105   1.271   1.859   8.052 -0.6828  0.7107 -1.2900
 4516TIP3   OH235106   2.094   2.417   1.123 -0.0191  0.1310 -0.3473
 4516TIP3    H135107   2.152   2.469   1.179 -0.2158  0.6099 -0.5837
 4516TIP3    H235108   2.013   2.468   1.119 -1.8758 -2.1543  2.9382
 4517TIP3   OH235109   3.538   5.833   0.107 -0.3257 -0.2442 -0.2740
 4517TIP3    H135110   3.581   5.871   0.184 -0.8243  1.0130 -0.5805
 4517TIP3    H235111   3.569   5.743   0.104  2.1822  0.5325 -0.3749
 4518TIP3   OH235112   3.992   0.960   7.774  0.5115 -0.1567  0.3594
 4518TIP3    H135113   3.911   0.913   7.755 -0.5261  1.9636 -0.7671
 4518TIP3    H235114   4.055   0.891   7.796 -1.6009 -1.8723  1.4629
 4519TIP3   OH235115   4.215   2.848   7.009 -0.1001 -0.0698  0.6131
 4519TIP3    H135116   4.202   2.824   6.917 -1.1046 -1.2560  1.0249
 4519TIP3    H235117   4.249   2.768   7.050  0.3692  0.4560  1.2687
 4520TIP3   OH235118   4.604   5.937   0.323 -0.4468  0.1772  0.2571
 4520TIP3    H135119   4.636   5.994   0.393 -1.3315 -0.3532  1.1120
 4520TIP3    H235120   4.574   5.998   0.255  1.0517  0.6916  0.0183
 4521TIP3   OH235121   6.184   2.260   1.501 -0.0297 -0.0486 -0.1439
 4521TIP3    H135122   6.208   2.170   1.479  0.9629 -0.4141  2.1497
 4521TIP3    H235123   6.091   2.256   1.524  0.1464 -0.6214  0.5001
 4522TIP3   OH235124   5.248   3.870   6.293  0.0605  0.2362 -0.0858
 4522TIP3    H135125   5.231   3.877   6.387 -0.5641  1.2813 -0.2600
 4522TIP3    H235126   5.251   3.961   6.263  1.8246 -0.0159 -0.8126
 4523TIP3   OH235127   5.236   3.491   0.661  0.0554 -0.4629  0.3651
 4523TIP3    H135128   5.160   3.517   0.608  0.8859 -3.0312 -2.3843
 4523TIP3    H235129   5.301   3.560   0.643  0.4156 -1.3774 -2.4291
 4524TIP3   OH235130   2.459   4.660   8.379  0.8255  0.5122 -0.6551
 4524TIP3    H135131   2.497   4.580   8.342 -1.6400 -0.2996 -1.7031
 4524TIP3    H235132   2.501   4.670   8.464  2.0932 -1.1960 -1.0251
 4525TIP3   OH235133   0.867   2.919   7.728 -0.0531 -0.0761  0.1510
 4525TIP3    H135134   0.829   2.910   7.641  0.5838 -1.1860 -0.0336
 4525TIP3    H235135   0.894   3.011   7.733 -0.8102  0.1925 -0.5140
 4526TIP3   OH235136   2.364   6.686   7.873  0.1034  0.4647 -0.1804
 4526TIP3    H135137   2.327   6.645   7.795  0.5262  0.2430 -0.2659
 4526TIP3    H235138   2.382   6.776   7.847 -1.2736  0.8529  0.1487
 4527TIP3   OH235139   1.378   3.541   7.614 -0.1156  0.1628  0.6608
 4527TIP3    H135140   1.409   3.631   7.627  0.0082  0.2564 -0.1906
 4527TIP3    H235141   1.296   3.537   7.663 -1.2489  1.4305 -0.9868
 4528TIP3   OH235142   2.717   4.440   8.408  0.0978 -0.0841 -0.1070
 4528TIP3    H135143   2.627   4.416   8.385 -0.1626 -0.9594  1.6399
 4528TIP3    H235144   2.750   4.365   8.457  1.4575  0.6266  0.1175
 4529TIP3   OH235145   6.687   2.923   6.985  0.0922 -0.6710 -0.4497
 4529TIP3    H135146   6.747   2.850   6.965 -1.6852 -1.8197 -1.9766
 4529TIP3    H235147   6.656   2.905   7.073  1.8980 -0.0610  0.3708
 4530TIP3   OH235148   2.743   5.747   0.099 -0.2794 -0.0245 -0.1854
 4530TIP3    H135149   2.779   5.671   0.052 -0.0626  0.6605 -1.1723
 4530TIP3    H235150   2.761   5.821   0.041 -1.9462  0.5607 -0.0080
 4531TIP3   OH235151   6.759   6.431   0.962  0.1099  0.3711  0.1949
 4531TIP3    H135152   6.765   6.372   1.037 -1.0603 -1.6143 -1.1975
 4531TIP3    H235153   6.819   6.394   0.897 -0.2202  1.0539 -0.5200
 4532TIP3   OH235154   2.262   1.819   7.484  0.5569  0.0244 -0.2293
 4532TIP3    H135155   2.330   1.839   7.419 -0.4418  2.3074 -0.6441
 4532TIP3    H235156   2.214   1.746   7.445  1.9227 -0.7535 -0.5415
 4533TIP3   OH235157   4.584   1.801   0.663 -0.2402  0.5026 -0.1836
 4533TIP3    H135158   4.666   1.759   0.689  0.1236  1.3110 -0.0040
 4533TIP3    H235159   4.564   1.861   0.735 -1.1511  0.0919 -0.0837
 4534TIP3   OH235160   6.400   4.805   0.579  0.2306  0.2947 -0.6473
 4534TIP3    H135161   6.403   4.713   0.554 -0.7222  0.0801 -0.0278
 4534TIP3    H235162   6.320   4.813   0.632  1.1519  1.1226  0.6862
 4535TIP3   OH235163   1.207   3.708   5.926  0.2559  0.2489 -0.0364
 4535TIP3    H135164   1.149   3.633   5.922 -1.0297  1.1283  1.2319
 4535TIP3    H235165   1.154   3.782   5.896  1.2641  0.7995 -0.5475
 4536TIP3   OH235166   2.374   3.486   1.132 -0.1332 -0.0218 -0.0554
 4536TIP3    H135167   2.298   3.508   1.078  0.4027 -0.2089 -0.9008
 4536TIP3    H235168   2.437   3.447   1.071  0.9411  0.7935  0.4890
 4537TIP3   OH235169   1.294   3.232   0.951  0.3545 -0.1445  0.3732
 4537TIP3    H135170   1.383   3.262   0.933 -0.6048  1.8526 -1.5727
 4537TIP3    H235171   1.258   3.298   1.011 -0.2956  0.0311 -0.1821
 4538TIP3   OH235172   6.511   1.128   0.340  0.3227  0.2059 -0.1147
 4538TIP3    H135173   6.456   1.201   0.311 -0.7611 -0.9603 -1.1605
 4538TIP3    H235174   6.595   1.142   0.297 -0.3034  0.1511 -1.4284
 4539TIP3   OH235175   5.642   3.061   6.629  0.3797  0.0122 -0.7119
 4539TIP3    H135176   5.565   3.115   6.608  0.5346  0.5054 -0.0464
 4539TIP3    H235177   5.650   3.067   6.724 -1.0211 -3.1588 -0.2820
 4540TIP3   OH235178   0.995   3.267   1.665 -0.2191 -0.3704  0.4548
 4540TIP3    H135179   1.053   3.249   1.739 -0.8739  0.6149  1.2297
 4540TIP3    H235180   1.016   3.357   1.639  1.8977 -1.4889 -2.3423
 4541TIP3   OH235181   1.490   5.139   0.673  0.0718 -0.2937  0.0974
 4541TIP3    H135182   1.542   5.116   0.750  0.4809 -0.5382 -0.2446
 4541TIP3    H235183   1.545   5.114   0.599 -0.0426  0.5429 -0.2811
 4542TIP3   OH235184   3.937   5.401   0.501  0.0012 -0.2873  0.2947
 4542TIP3    H135185   3.952   5.368   0.413  1.4447  0.7352  0.1229
 4542TIP3    H235186   3.844   5.425   0.503 -0.6722 -2.6514 -0.1101
 4543TIP3   OH235187   3.173   2.289   1.317 -0.1286 -0.4507  0.3232
 4543TIP3    H135188   3.168   2.216   1.379  0.2633  0.3012  1.2600
 4543TIP3    H235189   3.093   2.339   1.332 -0.3282 -0.5988 -0.2177
 4544TIP3   OH235190   1.218   0.239   1.178 -0.2557  0.0806 -0.2298
 4544TIP3    H135191   1.176   0.158   1.207  1.9258 -0.3598  2.0719
 4544TIP3    H235192   1.290   0.211   1.122  0.3904  0.4171  0.4155
 4545TIP3   OH235193   2.482   4.013   8.032  0.7428 -0.0306 -0.5490
 4545TIP3    H135194   2.546   3.942   8.028 -1.3118 -1.9939 -0.5780
 4545TIP3    H235195   2.453   4.014   8.123  0.0284  0.0657 -0.7682
 4546TIP3   OH235196   2.326   3.007   1.922 -0.3231 -0.2568  0.2236
 4546TIP3    H135197   2.363   3.092   1.945 -0.4288 -0.9162  3.3636
 4546TIP3    H235198   2.234   3.012   1.949 -0.4823 -1.1544 -0.1064
 4547TIP3   OH235199   6.457   0.533   7.324  0.5291  0.2892 -0.4236
 4547TIP3    H135200   6.369   0.496   7.319  0.6009  0.0879 -0.2118
 4547TIP3    H235201   6.453   0.593   7.398  0.8487 -0.4819  0.2300
 4548TIP3   OH235202   2.421   0.943   1.504 -0.6723  0.2846  0.0962
 4548TIP3    H135203   2.497   0.994   1.475  1.4332 -1.6259  1.9131
 4548TIP3    H235204   2.393   0.895   1.426  0.8410  0.0188 -0.3149
 4549TIP3   OH235205   4.984   3.835   0.308 -0.0274  0.1728 -0.1724
 4549TIP3    H135206   4.983   3.922   0.268 -1.0131  1.2891  2.0939
 4549TIP3    H235207   4.893   3.806   0.304  0.2176 -0.5674 -0.4905
 4550TIP3   OH235208   2.600   5.565   7.747 -0.0460  0.9969  0.8695
 4550TIP3    H135209   2.570   5.490   7.696 -0.5447  0.7739  1.4819
 4550TIP3    H235210   2.538   5.635   7.725 -0.9641  0.5785  2.0199
 4551TIP3   OH235211   4.495   0.494   7.726  0.4691  0.5659  0.3642
 4551TIP3    H135212   4.484   0.400   7.738 -0.1104  0.4749 -0.6982
 4551TIP3    H235213   4.571   0.502   7.669 -1.0634  0.5390 -1.8381
 4552TIP3   OH235214   6.653   2.474   1.770 -0.1345  0.2311  0.5745
 4552TIP3    H135215   6.589   2.450   1.703  1.3629 -0.7671 -0.5681
 4552TIP3    H235216   6.704   2.545   1.730  0.3929  0.0315  0.8775
 4553TIP3   OH235217   2.049   5.755   0.108  0.6293  0.1949  0.0735
 4553TIP3    H135218   2.119   5.773   0.045  0.0837  0.0340 -0.5861
 4553TIP3    H235219   1.976   5.722   0.055  0.0384  0.3877  0.7488
 4554TIP3   OH235220   0.232   3.797   7.066 -0.0850 -0.1885 -0.0400
 4554TIP3    H135221   0.190   3.754   6.991  0.8169  1.0646 -1.3206
 4554TIP3    H235222   0.326   3.779   7.054  0.1930  1.0880  0.0466
 4555TIP3   OH235223   2.794   2.040   6.292 -0.1612  0.1326 -0.0019
 4555TIP3    H135224   2.813   2.045   6.385 -0.5669 -0.7623  0.1381
 4555TIP3    H235225   2.848   2.109   6.252 -0.0120  0.5407  0.8886
 4556TIP3   OH235226   1.955   4.028   7.172  0.2268 -0.2717 -0.2567
 4556TIP3    H135227   1.937   3.988   7.086 -2.3866 -1.5514  0.7633
 4556TIP3    H235228   2.004   3.961   7.220 -0.4030 -0.5336  0.0280
 4557TIP3   OH235229   3.882   6.363   0.250 -0.0910 -0.3549  0.7766
 4557TIP3    H135230   3.919   6.342   0.336 -0.4002 -0.8223  0.7985
 4557TIP3    H235231   3.818   6.432   0.268 -0.4115 -0.7011  0.9739
 4558TIP3   OH235232   2.189   6.281   0.259  0.2910  0.7819 -0.1777
 4558TIP3    H135233   2.231   6.263   0.175  0.1677 -0.1790 -0.0441
 4558TIP3    H235234   2.262   6.288   0.321  0.4381  2.3223 -0.4888
 4559TIP3   OH235235   2.054   0.513   1.629  0.2071  0.0168  0.3073
 4559TIP3    H135236   1.958   0.510   1.631  0.1005 -0.3343  4.9639
 4559TIP3    H235237   2.080   0.423   1.615 -0.0749  0.1477 -1.2267
 4560TIP3   OH235238   5.489   4.092   0.303  0.2309  0.4383 -0.0297
 4560TIP3    H135239   5.545   4.048   0.238 -0.9430 -0.4706 -0.4624
 4560TIP3    H235240   5.505   4.185   0.289  3.8752  0.2645  1.8544
 4561TIP3   OH235241   6.277   3.751   6.182 -0.2073  0.3546 -0.0451
 4561TIP3    H135242   6.206   3.815   6.177  0.0020  0.5679 -0.2914
 4561TIP3    H235243   6.272   3.704   6.098  0.4537  0.9129 -0.4016
 4562TIP3   OH235244   6.059   2.712   0.277 -0.2721 -0.3260  0.3793
 4562TIP3    H135245   6.094   2.739   0.192 -2.1633 -0.8703 -0.6369
 4562TIP3    H235246   6.075   2.617   0.280 -0.2233 -0.3094  0.6322
 4563TIP3   OH235247   1.292   5.151   0.467 -0.3397  0.3778  0.2470
 4563TIP3    H135248   1.342   5.111   0.395  0.4145  0.6080  0.6251
 4563TIP3    H235249   1.359   5.172   0.533 -1.3506 -3.5828  2.8828
 4564TIP3   OH235250   1.958   3.799   1.735  0.1326  0.2652 -0.0674
 4564TIP3    H135251   1.952   3.885   1.692 -0.6944  0.4504  0.3879
 4564TIP3    H235252   1.890   3.802   1.803  1.0060 -0.2499  0.8526
 4565TIP3   OH235253   6.503   2.531   7.033  0.4862  0.4322 -0.0323
 4565TIP3    H135254   6.479   2.622   7.014 -0.0891  0.1491 -0.6812
 4565TIP3    H235255   6.593   2.536   7.065  0.2516  1.2973  0.5181
 4566TIP3   OH235256   1.496   5.686   7.569  0.1602 -0.0339  0.3354
 4566TIP3    H135257   1.479   5.648   7.656  1.5164 -1.4931 -0.0044
 4566TIP3    H235258   1.591   5.682   7.560 -0.0210 -0.7375 -1.5790
 4567TIP3   OH235259   0.016   4.086   7.727  0.7196 -0.2749 -0.2403
 4567TIP3    H135260  -0.056   4.117   7.672  0.5321 -0.0572  0.1222
 4567TIP3    H235261   0.095   4.122   7.687  0.5069  0.6713  0.1706
 4568TIP3   OH235262   1.634   2.769   8.273 -0.3861 -0.3570 -0.3309
 4568TIP3    H135263   1.543   2.767   8.304 -0.2507 -0.5889  0.0599
 4568TIP3    H235264   1.627   2.777   8.178 -0.8109  0.4272 -0.2439
 4569TIP3   OH235265   1.970   4.065   1.303 -0.4199  0.4801 -0.2764
 4569TIP3    H135266   2.035   4.074   1.232 -0.6044  1.9289 -0.2966
 4569TIP3    H235267   1.977   3.974   1.330 -0.6087 -0.2310 -2.4217
 4570TIP3   OH235268   1.192   0.406   0.746  0.4001 -0.3881 -0.1001
 4570TIP3    H135269   1.253   0.349   0.794 -2.2941 -2.1581  1.5154
 4570TIP3    H235270   1.215   0.494   0.774  3.5383 -0.7173 -1.2601
 4571TIP3   OH235271   0.523   3.775   7.012  0.5270  0.1711  0.2390
 4571TIP3    H135272   0.532   3.682   6.991  1.3124  0.3302 -0.1556
 4571TIP3    H235273   0.530   3.820   6.928  0.4282  0.6057  0.4576
 4572TIP3   OH235274   1.428   4.342   6.290  0.6405  0.0103  0.1159
 4572TIP3    H135275   1.428   4.325   6.384  1.7225 -0.6145  0.0183
 4572TIP3    H235276   1.354   4.402   6.276 -0.4711 -1.0847  1.1282
 4573TIP3   OH235277   0.601   4.938   1.525 -0.1056 -0.2402  0.7954
 4573TIP3    H135278   0.521   4.964   1.479  0.2436  1.8139  1.2742
 4573TIP3    H235279   0.669   4.939   1.458 -0.3980 -1.7239  0.4451
 4574TIP3   OH235280   5.676   6.618   6.841  0.4821  0.0532 -0.2166
 4574TIP3    H135281   5.662   6.525   6.859  1.3068 -0.0940 -0.2987
 4574TIP3    H235282   5.715   6.653   6.921  0.2395  0.3124 -0.2107
 4575TIP3   OH235283   6.526   3.125   8.594  0.4342  0.0756  0.1619
 4575TIP3    H135284   6.580   3.094   8.667 -0.1791  1.9189  1.4617
 4575TIP3    H235285   6.586   3.178   8.541  0.7981 -1.0032 -0.5530
 4576TIP3   OH235286   1.970   5.193   8.322 -0.1801  0.6840 -0.6865
 4576TIP3    H135287   2.027   5.221   8.251 -0.2417 -0.5923 -1.2716
 4576TIP3    H235288   2.029   5.179   8.396  0.2035 -0.0992 -1.1302
 4577TIP3   OH235289   1.147   4.046   0.389 -0.4621 -0.1501 -0.1224
 4577TIP3    H135290   1.168   4.096   0.310  1.3174 -0.8472 -0.1215
 4577TIP3    H235291   1.124   3.959   0.357 -1.7545  0.1085  0.0190
 4578TIP3   OH235292   4.394   6.431   8.682  0.3387 -0.5144  0.6760
 4578TIP3    H135293   4.444   6.440   8.763 -0.2396 -0.6204  1.0489
 4578TIP3    H235294   4.454   6.459   8.614  1.2297 -1.5320  1.0234
 4579TIP3   OH235295   2.101   6.762   2.221  0.0210  0.3766  0.3181
 4579TIP3    H135296   2.088   6.684   2.167 -0.8351  0.5342  0.2808
 4579TIP3    H235297   2.044   6.749   2.296 -0.7745  1.3457 -0.1030
 4580TIP3   OH235298   3.827   1.408   6.255  0.2763  0.4105 -0.1824
 4580TIP3    H135299   3.807   1.473   6.323  0.2514 -0.6582  0.8790
 4580TIP3    H235300   3.766   1.336   6.273  1.0232 -0.3630 -0.6562
 4581TIP3   OH235301   2.662   4.403   2.034  0.3004 -0.1488  0.0776
 4581TIP3    H135302   2.733   4.466   2.024 -0.1032  0.4136  0.6592
 4581TIP3    H235303   2.656   4.389   2.129 -0.4230 -0.1037  0.0436
 4582TIP3   OH235304   4.960   3.511   1.456 -0.1265  0.5742 -0.0085
 4582TIP3    H135305   5.048   3.544   1.476  0.3153 -1.5859  1.9836
 4582TIP3    H235306   4.904   3.588   1.466  1.3119  1.6479  0.2938
 4583TIP3   OH235307   3.267   5.349   2.247  0.3673  0.0244 -0.6939
 4583TIP3    H135308   3.359   5.360   2.221  0.6432  0.2942  0.3509
 4583TIP3    H235309   3.269   5.276   2.310 -0.3154 -0.7740 -1.5707
 4584TIP3   OH235310   4.963   5.633   8.497  0.5740 -0.3804  0.3214
 4584TIP3    H135311   4.917   5.612   8.578  1.1662 -3.4735 -0.0394
 4584TIP3    H235312   5.050   5.662   8.526  0.5957 -0.9203  0.8118
 4585TIP3   OH235313   0.296   5.098   8.542  0.1734 -0.7055  0.3116
 4585TIP3    H135314   0.372   5.128   8.493 -1.1587  1.0067 -0.8195
 4585TIP3    H235315   0.333   5.061   8.623  2.1457  0.7708  0.1617
 4586TIP3   OH235316   3.050   5.097   1.426 -0.1793 -0.4476 -0.0941
 4586TIP3    H135317   3.108   5.161   1.468 -2.1219  1.6372 -0.3792
 4586TIP3    H235318   3.020   5.041   1.497 -0.7422  0.8689  0.7455
 4587TIP3   OH235319   3.103   1.883   7.647  0.1811  0.6092 -0.0953
 4587TIP3    H135320   3.038   1.932   7.695  1.7028  1.4342  1.2236
 4587TIP3    H235321   3.162   1.949   7.611  0.0646 -0.0866 -1.6661
 4588TIP3   OH235322   3.044   5.801   8.220 -0.5074  0.2295 -0.0018
 4588TIP3    H135323   3.040   5.792   8.125 -1.4188  1.3423 -0.0873
 4588TIP3    H235324   2.954   5.788   8.249  0.2754 -4.2943  1.1981
 4589TIP3   OH235325   3.508   2.012   1.161  0.2722  0.1963  0.0327
 4589TIP3    H135326   3.542   2.072   1.227  2.8022 -1.3815  0.3081
 4589TIP3    H235327   3.504   2.064   1.080  3.1434  0.6511  0.0727
 4590TIP3   OH235328   3.340   6.201   0.596 -0.1429  0.2663  0.2016
 4590TIP3    H135329   3.321   6.260   0.523 -0.3295  0.2577  0.2438
 4590TIP3    H235330   3.319   6.114   0.564 -1.4450  0.3820  0.6767
 4591TIP3   OH235331   4.874   2.112   1.028 -0.1119  1.2348 -0.6863
 4591TIP3    H135332   4.813   2.149   1.092 -0.6541 -2.2002  1.0184
 4591TIP3    H235333   4.959   2.117   1.071 -0.2649  0.1870 -0.2213
 4592TIP3   OH235334   5.202   0.136   7.928  0.0278  0.4081 -0.1328
 4592TIP3    H135335   5.249   0.209   7.886 -0.3996  0.3571 -0.7133
 4592TIP3    H235336   5.184   0.168   8.016 -2.7485  2.2629 -1.2165
 4593TIP3   OH235337   0.408   0.091   2.285 -0.4973  0.5766 -0.1022
 4593TIP3    H135338   0.502   0.083   2.272 -0.1747  1.1256  1.6056
 4593TIP3    H235339   0.399   0.140   2.367 -2.2707  0.6770 -0.3129
 4594TIP3   OH235340   4.260   2.164   7.693  0.0693  0.2067 -0.0190
 4594TIP3    H135341   4.278   2.072   7.671  1.7405  0.4045  0.3630
 4594TIP3    H235342   4.260   2.165   7.789 -0.0653  0.5866 -0.0242
 4595TIP3   OH235343   4.869   6.281   1.372 -0.1355  0.3037  0.1262
 4595TIP3    H135344   4.777   6.293   1.346 -0.3453  0.0416  0.7382
 4595TIP3    H235345   4.903   6.219   1.307 -0.5450 -0.0215  0.2117
 4596TIP3   OH235346   4.999   0.669   0.059 -0.3049 -0.3086  0.2562
 4596TIP3    H135347   4.915   0.713   0.046 -0.4936 -0.4582  0.9335
 4596TIP3    H235348   4.976   0.584   0.096  0.1621 -0.1432  0.9563
 4597TIP3   OH235349   5.871   2.024   1.085  0.1322 -0.0477  0.4795
 4597TIP3    H135350   5.832   1.963   1.148 -0.6863  0.3536  0.3768
 4597TIP3    H235351   5.797   2.075   1.052  0.7362  0.6481  0.1721
 4598TIP3   OH235352   1.270   5.524   0.043  0.2190  0.2090  0.2161
 4598TIP3    H135353   1.242   5.444  -0.000 -1.3742  0.3720  0.8787
 4598TIP3    H235354   1.274   5.589  -0.027 -0.3287 -0.0073 -0.0202
 4599TIP3   OH235355   3.429   4.910   0.465 -0.2619 -0.4547  0.2776
 4599TIP3    H135356   3.428   4.817   0.485  1.4477 -0.3483  0.9899
 4599TIP3    H235357   3.448   4.952   0.549  0.0436  0.4689 -0.2432
 4600TIP3   OH235358   1.479   6.589   0.622 -0.0632 -0.7059  0.9536
 4600TIP3    H135359   1.470   6.509   0.570 -0.1870 -0.6405  0.8728
 4600TIP3    H235360   1.433   6.655   0.571  1.1643 -0.2808  0.3697
 4601TIP3   OH235361   6.851   3.034   1.663 -0.2297  0.0947 -0.2871
 4601TIP3    H135362   6.867   2.940   1.675 -0.0219  0.1846  0.1536
 4601TIP3    H235363   6.757   3.041   1.650 -0.4347 -0.0422  1.0240
 4602TIP3   OH235364   0.093   3.244   7.660 -0.8618 -0.4670 -0.3373
 4602TIP3    H135365   0.042   3.325   7.662 -0.3473 -0.1331 -0.3047
 4602TIP3    H235366   0.104   3.224   7.567 -0.5008 -0.1738 -0.3622
 4603TIP3   OH235367   5.264   5.366   1.910  0.3517 -0.6148  0.0791
 4603TIP3    H135368   5.266   5.384   2.004  1.2702 -0.4630  0.0429
 4603TIP3    H235369   5.294   5.447   1.870 -1.6671 -0.0813 -0.4627
 4604TIP3   OH235370   3.089   3.525   6.415  0.2913 -0.5117 -0.5293
 4604TIP3    H135371   3.168   3.578   6.403  1.5349 -1.8550  1.1942
 4604TIP3    H235372   3.077   3.521   6.510 -0.8769 -1.7501 -0.6966
 4605TIP3   OH235373   4.095   1.369   8.328 -0.2454  0.0670  0.3552
 4605TIP3    H135374   4.147   1.290   8.320 -0.1272  0.2528 -0.9717
 4605TIP3    H235375   4.009   1.339   8.357 -0.1162 -0.5131  0.1478
 4606TIP3   OH235376   3.963   5.232   1.448 -0.3120  0.0298 -0.0483
 4606TIP3    H135377   4.050   5.195   1.433 -0.4984 -0.2635 -0.4162
 4606TIP3    H235378   3.960   5.248   1.543  0.7343  1.5361 -0.2236
 4607TIP3   OH235379   5.962   5.531   0.246  0.7144  0.0289  0.0100
 4607TIP3    H135380   6.004   5.545   0.161 -0.2247  0.0855 -0.4628
 4607TIP3    H235381   5.949   5.619   0.281  0.3851  0.0476 -0.1544
 4608TIP3   OH235382   3.001   0.567   8.049  0.3507  0.1074 -0.0062
 4608TIP3    H135383   2.926   0.536   8.098 -0.1870 -0.6797 -1.2887
 4608TIP3    H235384   2.983   0.660   8.035  0.0771  0.1331  0.4878
 4609TIP3   OH235385   4.486   0.530   2.488  0.7157 -0.3808  0.2762
 4609TIP3    H135386   4.546   0.458   2.505  1.9021  0.2020 -1.2786
 4609TIP3    H235387   4.415   0.517   2.551  0.3969 -3.4393 -0.5673
 4610TIP3   OH235388   5.205   6.837   1.164  0.9101 -0.0135 -0.0393
 4610TIP3    H135389   5.113   6.821   1.141  0.9419 -0.0974 -0.1106
 4610TIP3    H235390   5.215   6.932   1.160  0.8828 -0.0192 -0.2538
 4611TIP3   OH235391   6.225   4.333   1.812  0.2844  0.6819  0.3528
 4611TIP3    H135392   6.276   4.321   1.892 -0.4180 -1.9501  0.4998
 4611TIP3    H235393   6.275   4.287   1.745 -0.3217  0.8138 -0.1991
 4612TIP3   OH235394   5.357   4.762   1.893 -0.4410  0.5081 -0.2467
 4612TIP3    H135395   5.357   4.668   1.908  2.3972  0.4142 -0.2962
 4612TIP3    H235396   5.336   4.800   1.979  0.0432 -0.1630  0.1787
 4613TIP3   OH235397   6.834   3.464   1.823 -0.0253  0.9273 -0.4149
 4613TIP3    H135398   6.806   3.544   1.867 -2.1600  0.6675 -1.1617
 4613TIP3    H235399   6.808   3.393   1.883 -2.2551  0.6159 -1.6441
 4614TIP3   OH235400   1.916   4.704   7.092 -0.4876 -0.4246  0.3045
 4614TIP3    H135401   1.900   4.721   7.000 -0.8242  2.7677  0.8441
 4614TIP3    H235402   2.004   4.665   7.094  0.2136  0.9541 -1.2718
 4615TIP3   OH235403   5.515   2.586   6.047  0.1418 -0.7658  0.3403
 4615TIP3    H135404   5.573   2.587   6.123  0.7784  0.1030 -0.1287
 4615TIP3    H235405   5.506   2.494   6.024  0.9132 -0.9473  0.7497
 4616TIP3   OH235406   1.942   4.344   6.388 -0.7045  0.0825 -0.2159
 4616TIP3    H135407   1.918   4.253   6.406  0.8833 -0.1841  0.7647
 4616TIP3    H235408   1.996   4.369   6.463 -2.5781  2.4518  0.4494
 4617TIP3   OH235409   2.985   6.686   8.287  0.3778  0.1525 -0.1482
 4617TIP3    H135410   2.962   6.599   8.253  1.4077 -0.2594  0.1637
 4617TIP3    H235411   2.902   6.723   8.316 -0.2190 -0.3323 -1.1789
 4618TIP3   OH235412   0.408   6.761   7.864 -0.1276 -0.1226  0.0920
 4618TIP3    H135413   0.346   6.834   7.861  0.7372  0.6105 -0.2996
 4618TIP3    H235414   0.354   6.685   7.885 -1.1170  0.5479  0.0437
 4619TIP3   OH235415   1.800   1.115   7.516  0.7893 -0.3273  0.3699
 4619TIP3    H135416   1.814   1.021   7.526  3.4328 -0.2356 -1.3416
 4619TIP3    H235417   1.877   1.155   7.556  0.7503  0.9662 -0.7521
 4620TIP3   OH235418   4.558   5.811   7.448 -0.0418  0.3152 -0.3529
 4620TIP3    H135419   4.477   5.863   7.449  0.6908  1.9416 -4.6954
 4620TIP3    H235420   4.628   5.876   7.457  0.8209 -0.4261 -1.4641
 4621TIP3   OH235421   0.469   5.601   8.476 -0.9972  0.4656 -0.6102
 4621TIP3    H135422   0.407   5.665   8.511  1.4640  2.6609  0.0644
 4621TIP3    H235423   0.551   5.619   8.522  0.5901 -1.2407 -2.5441
 4622TIP3   OH235424   1.853   2.033   1.998 -0.8412 -0.1955 -0.2292
 4622TIP3    H135425   1.897   1.951   1.977  1.0591  0.5318  0.6487
 4622TIP3    H235426   1.836   2.073   1.913 -0.1283 -0.6837 -0.6174
 4623TIP3   OH235427   0.298   3.982   7.286  0.0193  0.5852 -0.2756
 4623TIP3    H135428   0.279   3.912   7.223 -1.6952  0.5644  0.2187
 4623TIP3    H235429   0.393   3.978   7.297  0.0177 -1.4977 -0.4600
 4624TIP3   OH235430   5.163   2.252   6.798 -0.1933 -0.3765 -0.3432
 4624TIP3    H135431   5.116   2.291   6.724  0.8388  1.5371 -0.0492
 4624TIP3    H235432   5.194   2.167   6.765  0.4400  0.5197 -2.2089
 4625TIP3   OH235433   1.100   0.015   7.548 -0.3103  0.4318 -0.4773
 4625TIP3    H135434   1.143  -0.062   7.511  1.4449  0.8960  0.4847
 4625TIP3    H235435   1.018  -0.018   7.584 -0.1778 -0.7372 -1.2112
 4626TIP3   OH235436   5.357   5.463   6.798 -0.2553  0.3769  0.3732
 4626TIP3    H135437   5.282   5.453   6.739  1.3181 -0.0621 -1.6377
 4626TIP3    H235438   5.377   5.556   6.796 -0.8803  0.5503  1.1689
 4627TIP3   OH235439   0.896   0.954   7.955 -0.1689  0.4765  0.3738
 4627TIP3    H135440   0.864   0.866   7.975  1.8518  0.1471  2.7274
 4627TIP3    H235441   0.969   0.940   7.894 -1.6258  0.8584 -1.5671
 4628TIP3   OH235442   1.654   3.777   7.519 -0.7066 -0.4985 -0.0447
 4628TIP3    H135443   1.671   3.768   7.425 -0.7501 -0.5733 -0.0457
 4628TIP3    H235444   1.696   3.859   7.544 -1.3899 -0.0652 -0.2908
 4629TIP3   OH235445   0.982   4.211   0.905  0.5164 -0.2418 -0.4512
 4629TIP3    H135446   1.067   4.237   0.940 -0.0366  0.7652  0.1851
 4629TIP3    H235447   0.959   4.133   0.955  1.0512 -0.4995 -0.6027
 4630TIP3   OH235448   3.385   1.430   7.798 -0.0030 -0.1346 -0.3227
 4630TIP3    H135449   3.438   1.350   7.801 -1.3189 -1.0645 -1.0452
 4630TIP3    H235450   3.343   1.427   7.712 -2.0239  0.0266  0.6168
 4631TIP3   OH235451   0.594   2.293   2.108  0.5013  0.0926  0.0511
 4631TIP3    H135452   0.678   2.248   2.099  0.9928  0.9465  0.3083
 4631TIP3    H235453   0.616   2.380   2.140 -0.6646 -0.5616  2.9660
 4632TIP3   OH235454   0.819   3.828   0.605  0.0258 -0.0157  0.2680
 4632TIP3    H135455   0.822   3.922   0.624 -0.5329 -0.3628  2.3187
 4632TIP3    H235456   0.794   3.823   0.513 -3.2205  1.8665  0.8924
 4633TIP3   OH235457   5.159   3.305   8.302 -0.0154  0.1065  0.6295
 4633TIP3    H135458   5.088   3.333   8.244  0.8392  0.9842 -0.0308
 4633TIP3    H235459   5.204   3.237   8.253 -0.1660 -0.1788  0.8862
 4634TIP3   OH235460   3.774   1.784   0.634 -0.2748  0.0136 -0.0430
 4634TIP3    H135461   3.679   1.774   0.623 -0.2220 -0.2822 -0.2426
 4634TIP3    H235462   3.793   1.741   0.718 -0.5169  1.3167  0.7135
 4635TIP3   OH235463   6.447   0.298   1.068  0.0603 -0.0549 -0.1592
 4635TIP3    H135464   6.382   0.229   1.056  0.7217 -0.6344 -0.4957
 4635TIP3    H235465   6.398   0.380   1.059 -0.8220 -0.4678  0.7157
 4636TIP3   OH235466   0.437   1.837   5.858 -0.0662  0.2342 -0.0632
 4636TIP3    H135467   0.424   1.928   5.884  2.0318  0.7783 -0.7499
 4636TIP3    H235468   0.522   1.813   5.895  1.4502 -0.0363 -3.3579
 4637TIP3   OH235469   4.840   1.638   8.708  0.0104  0.1604 -0.8186
 4637TIP3    H135470   4.933   1.638   8.733  0.6141  0.0247 -2.8240
 4637TIP3    H235471   4.797   1.691   8.775  1.2796 -0.8931  0.9286
 4638TIP3   OH235472   4.985   4.958   1.496  0.4448 -0.4006 -0.7843
 4638TIP3    H135473   5.017   4.878   1.537  0.2291 -0.2500 -0.3130
 4638TIP3    H235474   4.988   5.024   1.566  1.6733  0.2902 -1.4519
 4639TIP3   OH235475   6.696   3.339   0.089  0.0880 -0.6076  0.6775
 4639TIP3    H135476   6.727   3.249   0.104 -1.8159 -1.5004 -0.3828
 4639TIP3    H235477   6.600   3.332   0.092 -0.2094  0.7983 -2.4631
 4640TIP3   OH235478   2.976   4.447   0.748  0.2509  0.0937 -0.7544
 4640TIP3    H135479   2.896   4.460   0.799  0.7989  3.3566 -0.5290
 4640TIP3    H235480   2.984   4.352   0.740 -1.0049 -0.5525  3.3861
 4641TIP3   OH235481   3.143   1.227   0.993 -0.0316 -0.1990 -0.0585
 4641TIP3    H135482   3.209   1.175   1.037 -1.0876 -0.7171  0.9647
 4641TIP3    H235483   3.191   1.303   0.959  1.3756 -1.3931 -0.8668
 4642TIP3   OH235484   3.748   1.548   1.928  0.4694  0.1461 -0.0215
 4642TIP3    H135485   3.693   1.482   1.970  1.5025 -0.4771  0.4083
 4642TIP3    H235486   3.724   1.630   1.970 -1.1167  0.1378 -0.8342
 4643TIP3   OH235487   5.267   2.153   7.483  0.6389 -0.0408  0.1189
 4643TIP3    H135488   5.348   2.136   7.530  0.4468 -1.2649  0.0538
 4643TIP3    H235489   5.290   2.145   7.391  0.0168 -2.8235  0.1208
 4644TIP3   OH235490   6.575   0.949   0.749 -0.0839  0.6743 -0.6627
 4644TIP3    H135491   6.655   0.921   0.706 -0.3196 -0.1352 -0.5970
 4644TIP3    H235492   6.589   0.929   0.842 -1.3033 -1.8887 -0.9448
 4645TIP3   OH235493   5.750   2.687   8.398 -0.2227 -0.8025  0.3701
 4645TIP3    H135494   5.684   2.661   8.463  0.2718  0.2450  1.3343
 4645TIP3    H235495   5.790   2.604   8.371 -0.4086 -1.2773  1.4569
 4646TIP3   OH235496   0.104   6.420   7.520 -0.1419  0.6459 -0.1290
 4646TIP3    H135497   0.021   6.461   7.542  0.6305  1.4623  1.4090
 4646TIP3    H235498   0.080   6.333   7.488 -1.5040 -0.1701  2.7823
 4647TIP3   OH235499   4.556   0.814   1.484 -0.0912  0.3309  0.2272
 4647TIP3    H135500   4.550   0.770   1.399  2.7455  0.7796 -0.3193
 4647TIP3    H235501   4.504   0.760   1.543 -0.4774 -1.1407 -1.3741
 4648TIP3   OH235502   0.379   6.056   1.364 -0.1466 -0.4647  0.3865
 4648TIP3    H135503   0.306   6.112   1.393  1.2137  2.1206 -0.8149
 4648TIP3    H235504   0.341   5.969   1.358 -2.9396  0.6232  0.5940
 4649TIP3   OH235505   5.493   5.582   7.175 -0.1713 -0.2255  0.2972
 4649TIP3    H135506   5.465   5.503   7.221 -0.2341  0.4242  1.4027
 4649TIP3    H235507   5.581   5.562   7.144 -0.4551 -0.9741 -0.0454
 4650TIP3   OH235508   1.308   5.744   7.074 -0.3208  0.1344  0.2523
 4650TIP3    H135509   1.390   5.711   7.109 -0.8498 -0.3906  1.0377
 4650TIP3    H235510   1.272   5.671   7.023 -2.2224 -1.1842  3.2197
 4651TIP3   OH235511   5.359   4.753   8.252  0.2903  0.2354  0.6720
 4651TIP3    H135512   5.449   4.773   8.278  0.2749 -0.3647  1.2105
 4651TIP3    H235513   5.359   4.659   8.236  1.5963  0.8844 -6.5024
 4652TIP3   OH235514   3.791   5.917   7.384  0.5422 -0.0854 -0.1452
 4652TIP3    H135515   3.729   5.970   7.333  0.3190 -1.6794 -1.6032
 4652TIP3    H235516   3.760   5.925   7.474 -0.2533  1.2046 -0.4981
 4653TIP3   OH235517   4.418   5.673   6.869 -0.2141 -0.1900 -0.3735
 4653TIP3    H135518   4.385   5.702   6.954  0.8373  0.8201 -0.2822
 4653TIP3    H235519   4.354   5.707   6.805 -0.8997 -0.7832 -0.0185
 4654TIP3   OH235520   3.405   2.543   0.089 -0.8708  0.4785  0.1113
 4654TIP3    H135521   3.399   2.532   0.184 -1.1022  0.0218  0.0468
 4654TIP3    H235522   3.358   2.468   0.053  0.8942 -0.4427 -0.3858
 4655TIP3   OH235523   2.173   5.144   0.732  0.6385 -0.0294 -0.3394
 4655TIP3    H135524   2.085   5.109   0.719  1.1645 -0.9048 -1.7962
 4655TIP3    H235525   2.183   5.210   0.663  1.3011 -0.2974 -0.5059
 4656TIP3   OH235526   3.342   1.726   1.555 -0.1013 -0.0045  0.1944
 4656TIP3    H135527   3.277   1.761   1.617 -2.1269  0.6615 -2.1305
 4656TIP3    H235528   3.325   1.774   1.474  0.3445 -2.9425 -1.7635
 4657TIP3   OH235529   5.156   1.459   7.928 -0.1057 -0.6379  0.3417
 4657TIP3    H135530   5.182   1.379   7.882  0.7315 -0.3062  0.2373
 4657TIP3    H235531   5.229   1.519   7.916  0.1672 -0.5693  2.1783
 4658TIP3   OH235532   4.297   3.010   8.314 -0.1535 -0.9640 -0.1849
 4658TIP3    H135533   4.330   3.059   8.389 -0.0495  0.5011 -1.1537
 4658TIP3    H235534   4.202   3.019   8.318 -0.1014  0.0256 -0.7937
 4659TIP3   OH235535   6.093   4.238   8.394 -0.3867 -0.0140 -0.1319
 4659TIP3    H135536   6.105   4.330   8.369  1.2684 -0.4584 -1.0859
 4659TIP3    H235537   6.108   4.189   8.314  0.6538 -1.2298  0.7697
 4660TIP3   OH235538   1.830   0.277   8.585 -0.0388  0.2856 -0.1996
 4660TIP3    H135539   1.896   0.283   8.516 -0.6672  0.9638 -0.7604
 4660TIP3    H235540   1.771   0.206   8.557 -1.1521  1.5399 -1.1478
 4661TIP3   OH235541   6.675   2.279   0.368  0.3020 -0.1051  0.0274
 4661TIP3    H135542   6.682   2.224   0.445 -1.3635  0.4403  0.6133
 4661TIP3    H235543   6.595   2.330   0.382  1.6290  2.3129 -0.5706
 4662TIP3   OH235544   6.580   2.933   7.237 -0.8051 -0.3746  0.5212
 4662TIP3    H135545   6.606   2.910   7.327 -0.5686 -0.3037  0.4727
 4662TIP3    H235546   6.500   2.983   7.247  0.2359  1.2878  0.8343
 4663TIP3   OH235547   1.385   1.757   0.879 -0.0009 -0.3382  0.0106
 4663TIP3    H135548   1.467   1.776   0.926 -0.0892  2.1772 -0.6844
 4663TIP3    H235549   1.319   1.810   0.924 -0.9612 -1.1790 -0.3609
 4664TIP3   OH235550   3.734   3.273   0.055 -0.2932  0.1564 -0.0891
 4664TIP3    H135551   3.680   3.325  -0.004  1.1174  0.3676 -1.2668
 4664TIP3    H235552   3.823   3.284   0.021  0.4931 -0.2092  1.7413
 4665TIP3   OH235553   5.941   2.522   8.638 -0.5014 -0.2327 -0.2133
 4665TIP3    H135554   5.986   2.498   8.719 -2.5200  0.0752  1.0756
 4665TIP3    H235555   6.007   2.512   8.570  1.1834 -0.8048  1.4207
 4666TIP3   OH235556   3.910   2.693   8.467 -0.1385 -0.4222 -0.2151
 4666TIP3    H135557   3.920   2.640   8.388  0.6995 -0.0732 -0.3563
 4666TIP3    H235558   3.843   2.758   8.443 -0.4378 -0.7862 -0.3789
 4667TIP3   OH235559   0.752   6.116   0.619 -0.4330 -0.2122 -0.1380
 4667TIP3    H135560   0.659   6.102   0.636 -0.7442 -0.3438 -1.8020
 4667TIP3    H235561   0.790   6.029   0.620 -0.4084 -0.1990  0.0982
 4668TIP3   OH235562   0.212   5.668   6.190  0.2326 -0.2456 -0.2940
 4668TIP3    H135563   0.189   5.607   6.260  1.1597 -0.4729 -0.1741
 4668TIP3    H235564   0.131   5.716   6.173 -0.8830 -2.3222 -1.2242
 4669TIP3   OH235565   1.406   4.161   6.540 -0.2357 -0.1727 -0.3410
 4669TIP3    H135566   1.312   4.180   6.536 -0.5120 -1.2681  0.6209
 4669TIP3    H235567   1.418   4.112   6.621  0.9281 -1.3802 -1.1982
 4670TIP3   OH235568   4.509   5.617   7.641 -0.0431  0.3274 -0.4328
 4670TIP3    H135569   4.499   5.677   7.567 -0.0388  0.6609 -0.1659
 4670TIP3    H235570   4.560   5.543   7.606  0.8132  0.9427 -0.5185
 4671TIP3   OH235571   3.988   3.825   1.118 -0.6975 -0.4275  0.2298
 4671TIP3    H135572   4.067   3.771   1.129 -0.3104  0.3735  1.6133
 4671TIP3    H235573   3.973   3.826   1.024 -0.5872 -2.7412  0.1322
 4672TIP3   OH235574   3.578   0.054   8.712  0.5250 -0.0902 -0.2594
 4672TIP3    H135575   3.575  -0.033   8.672 -1.4293 -0.3133  0.2739
 4672TIP3    H235576   3.488   0.087   8.706  0.8204  1.1247  1.1912
 4673TIP3   OH235577   4.241   0.123   1.834 -0.3412 -0.2946  0.4115
 4673TIP3    H135578   4.190   0.062   1.780 -0.3313  0.7760 -0.8709
 4673TIP3    H235579   4.284   0.067   1.899 -2.8549 -1.2634  1.3302
 4674TIP3   OH235580   1.417   3.460   0.829  0.7215  0.5173  0.0495
 4674TIP3    H135581   1.503   3.419   0.817  0.6954  0.1098  1.2038
 4674TIP3    H235582   1.383   3.468   0.739  1.4141 -0.5066 -0.3316
 4675TIP3   OH235583   6.371   6.113   1.224  0.2753  0.0629  0.0403
 4675TIP3    H135584   6.379   6.075   1.312  0.3490  0.2485  0.1139
 4675TIP3    H235585   6.281   6.097   1.199  0.0861  0.5523  0.3992
 4676TIP3   OH235586   2.612   2.488   0.455  0.0324 -0.0312 -0.0421
 4676TIP3    H135587   2.570   2.531   0.529 -0.9100  1.3164 -1.3182
 4676TIP3    H235588   2.542   2.472   0.392  1.0757  0.5719 -1.4308
 4677TIP3   OH235589   2.901   2.426   7.215  0.4447  0.3603 -0.2422
 4677TIP3    H135590   2.935   2.397   7.130 -0.0800  0.0843 -0.3614
 4677TIP3    H235591   2.885   2.346   7.263 -1.0038  0.4191 -0.5687
 4678TIP3   OH235592   1.082   0.226   0.113 -0.7470  0.2305  0.3679
 4678TIP3    H135593   1.080   0.321   0.106  0.2521  0.1755 -1.1252
 4678TIP3    H235594   0.991   0.201   0.130 -1.4121  1.3282 -1.3441
 4679TIP3   OH235595   1.652   4.246   6.599  0.2906 -0.4758 -0.0505
 4679TIP3    H135596   1.571   4.247   6.547  0.4244  0.5343 -0.2613
 4679TIP3    H235597   1.714   4.196   6.546 -0.6464 -2.7959  0.8757
 4680TIP3   OH235598   6.313   0.540   1.124 -0.5784  0.0264  0.4207
 4680TIP3    H135599   6.389   0.597   1.139 -0.3416 -0.3231  0.5613
 4680TIP3    H235600   6.243   0.600   1.101 -0.2482  0.3523  0.2520
 4681TIP3   OH235601   5.094   2.430   2.607  0.1769 -0.3098 -0.5494
 4681TIP3    H135602   5.185   2.459   2.609  0.0527  0.0758 -0.5895
 4681TIP3    H235603   5.092   2.363   2.538  0.6808 -1.1676  0.2384
 4682TIP3   OH235604   1.319   4.265   7.352 -0.1402 -0.0380 -0.0933
 4682TIP3    H135605   1.291   4.279   7.262  1.9401 -1.1666 -0.9665
 4682TIP3    H235606   1.342   4.352   7.384  0.3022  0.2110 -1.0664
 4683TIP3   OH235607   2.531   5.308   8.594  0.2977 -0.0349  0.0753
 4683TIP3    H135608   2.550   5.342   8.682  0.7325  1.7313 -0.6514
 4683TIP3    H235609   2.435   5.302   8.591  0.1865  1.3376  0.1939
 4684TIP3   OH235610   1.177   6.259   8.031 -0.1175 -0.0594 -0.0349
 4684TIP3    H135611   1.217   6.227   8.112 -0.2575 -0.0931  0.0215
 4684TIP3    H235612   1.108   6.318   8.061  0.4736  0.6998 -0.1444
 4685TIP3   OH235613   0.030   5.737   2.307  0.6096 -0.2565 -0.1905
 4685TIP3    H135614  -0.011   5.811   2.351 -0.7700 -0.4750 -1.0222
 4685TIP3    H235615  -0.043   5.678   2.286  1.4566 -1.0666 -1.0081
 4686TIP3   OH235616   4.786   4.101   8.621 -0.1749  0.2862 -0.1963
 4686TIP3    H135617   4.855   4.050   8.663 -0.4052 -0.4571 -0.6940
 4686TIP3    H235618   4.832   4.174   8.579  0.1647  0.4637  0.4737
 4687TIP3   OH235619   5.844   2.719   7.165 -0.1084  0.0116  0.5030
 4687TIP3    H135620   5.810   2.792   7.114 -0.2260 -1.0578 -0.9948
 4687TIP3    H235621   5.854   2.754   7.254 -3.0815  0.9574  0.5483
 4688TIP3   OH235622   3.553   3.134   6.923  0.0359  0.5621  0.3166
 4688TIP3    H135623   3.552   3.118   6.829  1.0912  0.3829  0.3316
 4688TIP3    H235624   3.471   3.095   6.954  0.7691 -1.5186 -0.1995
 4689TIP3   OH235625   5.109   4.869   0.764 -0.0726  0.6981  0.1312
 4689TIP3    H135626   5.123   4.787   0.717 -1.3389  0.4552  0.1421
 4689TIP3    H235627   5.124   4.937   0.698  1.9028  0.5339  0.3488
 4690TIP3   OH235628   3.808   6.647   8.072 -0.7566 -0.2333  0.1251
 4690TIP3    H135629   3.760   6.673   7.993  1.6138  1.3210 -0.9104
 4690TIP3    H235630   3.767   6.697   8.142 -0.9551  0.7459 -0.6587
 4691TIP3   OH235631   5.220   2.924   6.187 -0.2432 -0.0958 -0.4620
 4691TIP3    H135632   5.216   3.010   6.145 -2.3184  0.2001  0.2450
 4691TIP3    H235633   5.314   2.904   6.193  0.2950  2.2289 -0.4103
 4692TIP3   OH235634   4.052   4.829   0.686  0.3229  0.0279 -0.0807
 4692TIP3    H135635   4.025   4.737   0.691 -1.2963  0.4435 -0.6611
 4692TIP3    H235636   4.138   4.826   0.643  1.5689 -1.3751  2.3049
 4693TIP3   OH235637   2.722   1.083   2.215  0.7845  0.1157 -0.6793
 4693TIP3    H135638   2.773   1.002   2.201 -1.1898 -1.5115  0.8781
 4693TIP3    H235639   2.653   1.079   2.148  0.1162 -0.0263  0.0004
 4694TIP3   OH235640   6.735   6.637   1.400  0.1645  0.3865  0.1935
 4694TIP3    H135641   6.719   6.599   1.487  0.1162 -0.7379 -0.2925
 4694TIP3    H235642   6.696   6.724   1.405 -0.9670 -0.1371  0.9093
 4695TIP3   OH235643   0.314   3.170   6.251 -0.5316 -0.6367  0.0301
 4695TIP3    H135644   0.342   3.239   6.311 -0.5130 -1.5660  1.1160
 4695TIP3    H235645   0.219   3.180   6.246 -0.2691  1.8374 -2.8215
 4696TIP3   OH235646   4.307   4.207   2.754 -0.0217 -0.6788  0.3837
 4696TIP3    H135647   4.368   4.280   2.765 -0.3278 -0.0912 -1.3808
 4696TIP3    H235648   4.223   4.249   2.731 -0.2994 -1.5523 -0.2710
 4697TIP3   OH235649   1.801   6.161   7.673 -0.4776 -0.0788  0.3310
 4697TIP3    H135650   1.843   6.075   7.667 -0.4181 -0.1272  1.3605
 4697TIP3    H235651   1.866   6.222   7.638  2.4467  0.4874  5.7905
 4698TIP3   OH235652   4.879   3.423   7.885  0.2748 -0.5378  0.2373
 4698TIP3    H135653   4.837   3.499   7.924 -0.7040 -0.0667 -1.6396
 4698TIP3    H235654   4.949   3.459   7.830  0.2612 -1.0330 -0.1135
 4699TIP3   OH235655   5.152   0.850   1.089  0.2604  0.2588  0.0343
 4699TIP3    H135656   5.113   0.773   1.049  0.1082  0.7710 -0.8170
 4699TIP3    H235657   5.122   0.923   1.035  0.3652  0.9205  0.8509
 4700TIP3   OH235658   4.677   4.524   6.627 -0.3335 -0.5938  0.2320
 4700TIP3    H135659   4.698   4.525   6.534 -0.8652 -0.4465  0.1072
 4700TIP3    H235660   4.616   4.451   6.637 -1.3351  0.2166  0.2152
 4701TIP3   OH235661   5.936   1.850   6.824 -0.6074  0.3095 -0.0237
 4701TIP3    H135662   5.892   1.825   6.905 -0.9135  0.6216 -0.0955
 4701TIP3    H235663   5.904   1.788   6.759 -1.4487  0.9428 -0.2250
 4702TIP3   OH235664   0.133   0.579   0.954  0.1470  0.2559 -0.3153
 4702TIP3    H135665   0.158   0.515   1.021  0.0875 -0.5491 -1.0424
 4702TIP3    H235666   0.195   0.651   0.965  0.3624 -0.0205  0.3702
 4703TIP3   OH235667   0.338   6.164   7.379 -0.1451 -0.4759 -0.6023
 4703TIP3    H135668   0.245   6.182   7.366 -0.2914 -1.4651 -0.9991
 4703TIP3    H235669   0.383   6.219   7.314 -0.3612  0.8247  0.3059
 4704TIP3   OH235670   2.734   5.275   1.889 -0.1245 -0.2627  0.3465
 4704TIP3    H135671   2.817   5.256   1.846 -0.9393 -2.4174 -0.4319
 4704TIP3    H235672   2.758   5.305   1.977  1.4813  0.2264 -0.2388
 4705TIP3   OH235673   4.491   6.152   7.322  0.0333  0.2684  0.2702
 4705TIP3    H135674   4.500   6.182   7.412 -0.5339 -0.9175  0.7434
 4705TIP3    H235675   4.553   6.080   7.314  0.4762  0.7204 -0.4619
 4706TIP3   OH235676   5.559   1.913   1.642 -0.2207 -0.0982  0.0632
 4706TIP3    H135677   5.618   1.856   1.590  0.4085  0.0094  0.6447
 4706TIP3    H235678   5.567   1.879   1.731  1.4787  1.9093  0.7544
 4707TIP3   OH235679   1.798   5.051   8.155 -0.0366 -0.1591 -0.0984
 4707TIP3    H135680   1.717   5.101   8.161 -0.4628 -0.5573 -1.8876
 4707TIP3    H235681   1.863   5.104   8.201 -0.9887  0.8999  0.0572
 4708TIP3   OH235682   2.724   5.193   7.402  0.0936  0.3577  0.7570
 4708TIP3    H135683   2.671   5.216   7.325  0.9647 -1.7652 -0.5740
 4708TIP3    H235684   2.803   5.154   7.365  1.4605  1.1339  2.7445
 4709TIP3   OH235685   3.306   5.789   1.646  0.1625 -0.1323 -0.5720
 4709TIP3    H135686   3.328   5.697   1.628 -0.4304 -0.3502 -0.2064
 4709TIP3    H235687   3.289   5.792   1.740 -1.5100 -0.0213 -0.8396
 4710TIP3   OH235688   4.144   6.296   0.107 -0.3695 -0.5996  0.1580
 4710TIP3    H135689   4.170   6.377   0.063  0.4995 -1.3121 -0.6891
 4710TIP3    H235690   4.063   6.318   0.153 -0.7046  0.4703 -0.9024
 4711TIP3   OH235691   0.237   5.439   8.465 -0.5870 -0.1855  0.4278
 4711TIP3    H135692   0.330   5.442   8.443 -0.5243 -0.8326  0.5695
 4711TIP3    H235693   0.197   5.390   8.393 -0.7602 -0.2038  0.5363
 4712TIP3   OH235694   0.722   3.478   7.402  0.2716 -0.7695  0.1464
 4712TIP3    H135695   0.696   3.563   7.369 -0.5468 -1.2704 -0.5275
 4712TIP3    H235696   0.810   3.492   7.438  0.0817  0.3781  0.1922
 4713TIP3   OH235697   2.398   2.108   0.979  0.0408 -0.6229 -0.2535
 4713TIP3    H135698   2.471   2.070   0.928  0.0474 -2.3869  0.9861
 4713TIP3    H235699   2.337   2.035   0.990 -0.5811  0.0892  1.1368
 4714TIP3   OH235700   2.138   4.188   0.144  0.2924  0.4299 -0.4751
 4714TIP3    H135701   2.062   4.245   0.135  0.3337  0.2535 -2.3507
 4714TIP3    H235702   2.183   4.194   0.059  1.6051 -0.5522  0.1112
 4715TIP3   OH235703   1.530   2.776   1.284 -0.1413 -0.3074 -0.3297
 4715TIP3    H135704   1.460   2.719   1.253 -0.2409 -0.6568  0.5017
 4715TIP3    H235705   1.508   2.793   1.376  1.3102 -1.1232  0.2062
 4716TIP3   OH235706   6.747   5.194   7.494 -0.9290  0.0122 -0.4617
 4716TIP3    H135707   6.770   5.109   7.456 -0.5474  0.4921 -1.3449
 4716TIP3    H235708   6.821   5.216   7.550 -1.6093 -0.8178  0.8005
 4717TIP3   OH235709   3.517   5.762   7.356 -0.1570  0.0694 -0.0865
 4717TIP3    H135710   3.580   5.696   7.386 -1.2154 -1.0325 -0.1942
 4717TIP3    H235711   3.548   5.785   7.268  1.0522  0.8284  0.5145
 4718TIP3   OH235712   6.765   1.639   8.009  0.6155  0.8670  0.1798
 4718TIP3    H135713   6.716   1.679   7.937 -0.8621 -0.8727  0.1199
 4718TIP3    H235714   6.834   1.588   7.966 -0.4322 -0.3884 -0.0728
 4719TIP3   OH235715   6.747   4.779   8.591  0.3537  0.3572 -0.5503
 4719TIP3    H135716   6.792   4.855   8.554  0.4086  1.0751  0.9251
 4719TIP3    H235717   6.812   4.709   8.588  1.1742  1.0556  0.4134
 4720TIP3   OH235718   3.195   5.223   1.929 -0.4142 -0.3183  0.1681
 4720TIP3    H135719   3.212   5.201   2.021 -0.6371 -0.0643  0.2722
 4720TIP3    H235720   3.264   5.286   1.906 -0.0589 -0.7642  0.0113
 4721TIP3   OH235721   1.480   0.450   2.378  0.1409 -0.2478  0.1079
 4721TIP3    H135722   1.465   0.539   2.410  1.6154 -0.1884  0.7126
 4721TIP3    H235723   1.395   0.407   2.388 -0.9641  1.4142 -1.3963
 4722TIP3   OH235724   4.690   4.964   6.468 -0.5984  0.0209 -0.0935
 4722TIP3    H135725   4.641   5.005   6.396  0.0371  0.9902  0.0030
 4722TIP3    H235726   4.731   4.887   6.427 -0.0484  0.6928 -0.8510
 4723TIP3   OH235727   5.389   2.262   0.860 -0.5846  0.3738 -0.0590
 4723TIP3    H135728   5.362   2.204   0.789 -1.2844  0.3536  0.2153
 4723TIP3    H235729   5.423   2.203   0.928 -1.3151  0.2661  0.2288
 4724TIP3   OH235730   4.167   5.412   6.843 -0.3649 -0.5701 -0.2212
 4724TIP3    H135731   4.232   5.346   6.865  0.2524  0.4656  1.2175
 4724TIP3    H235732   4.087   5.383   6.888  0.1049  0.0076  1.0423
 4725TIP3   OH235733   6.757   6.337   7.907  0.1850  0.1107  0.0266
 4725TIP3    H135734   6.778   6.250   7.941  1.5818 -0.1653 -1.3960
 4725TIP3    H235735   6.663   6.347   7.922 -0.4442 -2.4781 -1.4846
 4726TIP3   OH235736   3.019   4.866   1.043  0.5617  0.2239 -0.3036
 4726TIP3    H135737   3.018   4.841   1.136 -0.1805  2.3385  0.3141
 4726TIP3    H235738   3.016   4.783   0.996 -0.4531 -0.8805  1.5786
 4727TIP3   OH235739   6.807   6.069   7.974 -0.5093  0.0677 -0.1457
 4727TIP3    H135740   6.771   6.003   8.033  1.4468 -1.8469 -0.9658
 4727TIP3    H235741   6.854   6.019   7.908 -0.4828  2.2400 -1.9041
 4728TIP3   OH235742   6.471   3.116   7.752  0.5003  0.7269  0.0089
 4728TIP3    H135743   6.446   3.201   7.715  0.8219  0.8023 -0.0401
 4728TIP3    H235744   6.538   3.138   7.817  1.9234  0.3670 -1.2688
 4729TIP3   OH235745   4.660   4.182   7.905  0.2404 -0.2771  0.0671
 4729TIP3    H135746   4.636   4.246   7.838  0.7653  1.1880  1.2169
 4729TIP3    H235747   4.607   4.105   7.884  0.1784  0.2253 -1.8365
 4730TIP3   OH235748   2.806   5.521   6.424 -0.2516  0.3649  0.0963
 4730TIP3    H135749   2.897   5.508   6.451  0.0017  0.3566 -0.7326
 4730TIP3    H235750   2.773   5.590   6.481 -0.3914 -1.1118  1.8637
 4731TIP3   OH235751   5.214   4.066   1.941 -0.2729  0.4265  0.3312
 4731TIP3    H135752   5.131   4.023   1.963 -0.0674 -1.1693 -1.7638
 4731TIP3    H235753   5.190   4.157   1.926 -1.6096  0.0450  0.0133
 4732TIP3   OH235754   2.540   5.831   8.424  0.5283  0.1765  0.2013
 4732TIP3    H135755   2.477   5.887   8.378  0.2199  0.9956  1.5604
 4732TIP3    H235756   2.493   5.800   8.501  1.4215 -0.1384  0.6391
 4733TIP3   OH235757   4.162   5.974   1.829 -0.4359 -0.0505 -0.5303
 4733TIP3    H135758   4.095   5.929   1.779 -1.1757 -1.1414  1.3370
 4733TIP3    H235759   4.114   6.021   1.898  0.6508 -0.2500  0.3969
 4734TIP3   OH235760   3.919   3.815   8.289 -0.4647  0.0158  0.2879
 4734TIP3    H135761   3.919   3.756   8.364 -1.9996  2.3396  2.2353
 4734TIP3    H235762   3.940   3.901   8.325 -0.3607  1.0716 -2.1094
 4735TIP3   OH235763   2.269   0.349   1.528  0.2684 -0.1042  0.3327
 4735TIP3    H135764   2.316   0.266   1.517 -0.2179 -0.3168 -0.1808
 4735TIP3    H235765   2.300   0.405   1.457 -0.1969 -0.2195  0.0363
 4736TIP3   OH235766   0.418   5.412   7.657  0.4787  1.0290 -0.4670
 4736TIP3    H135767   0.414   5.468   7.579 -0.1379  2.3414  0.4715
 4736TIP3    H235768   0.489   5.449   7.709  0.7130  0.3255 -0.2804
 4737TIP3   OH235769   2.677   3.914   0.910  0.4495  0.2031  0.4556
 4737TIP3    H135770   2.617   3.973   0.956  0.8947 -0.0132  1.3268
 4737TIP3    H235771   2.764   3.945   0.934  0.7238  0.8932 -1.2833
 4738TIP3   OH235772   3.380   4.662   0.704  0.4177  0.0849 -0.1368
 4738TIP3    H135773   3.347   4.728   0.765  0.1743  0.2743 -0.4701
 4738TIP3    H235774   3.475   4.662   0.718  0.5367  1.1722 -0.7746
 4739TIP3   OH235775   1.921   0.344   8.284 -0.0143  0.1207  0.5025
 4739TIP3    H135776   1.996   0.287   8.267 -1.5145 -1.1327 -2.5248
 4739TIP3    H235777   1.846   0.285   8.288 -1.6976  1.6946 -3.0927
 4740TIP3   OH235778   1.023   1.423   0.019  0.2099 -0.6137 -0.0392
 4740TIP3    H135779   1.077   1.424   0.098 -0.4931  3.4717  0.5895
 4740TIP3    H235780   1.085   1.441  -0.052  0.2727 -0.2400  0.1101
 4741TIP3   OH235781   0.114   6.172   0.476  0.1932 -0.2972  0.0763
 4741TIP3    H135782   0.082   6.231   0.408 -2.2450  0.5939  1.8488
 4741TIP3    H235783   0.047   6.104   0.483  0.2415 -0.2176  1.7279
 4742TIP3   OH235784   3.280   6.560   1.778 -0.0322  0.1393 -0.0323
 4742TIP3    H135785   3.375   6.551   1.786  0.0153 -1.3344 -1.6681
 4742TIP3    H235786   3.268   6.621   1.705 -0.3211 -0.5035 -0.5280
 4743TIP3   OH235787   6.217   1.219   7.750 -0.0045  0.1114  0.0618
 4743TIP3    H135788   6.126   1.239   7.728 -0.0850 -0.2910  0.0234
 4743TIP3    H235789   6.229   1.256   7.838 -0.0553  0.6040 -0.1341
 4744TIP3   OH235790   6.438   2.233   7.425 -0.1302 -0.0487 -0.0575
 4744TIP3    H135791   6.527   2.268   7.416 -0.1481  0.5878  1.9364
 4744TIP3    H235792   6.450   2.146   7.461 -0.2995 -0.2940 -0.5779
 4745TIP3   OH235793   5.179   2.020   1.934 -0.4798  0.2033  0.1947
 4745TIP3    H135794   5.160   2.033   1.841  2.1155 -1.5492 -0.6914
 4745TIP3    H235795   5.254   2.077   1.951  2.2199 -2.9142 -0.2101
 4746TIP3   OH235796   5.357   0.559   8.066 -0.1051 -0.8465 -0.0926
 4746TIP3    H135797   5.324   0.577   7.977 -1.5163 -0.2504  0.5251
 4746TIP3    H235798   5.432   0.502   8.052 -0.2052 -0.6431 -1.6888
 4747TIP3   OH235799   0.917   2.824   8.673  0.4862 -0.7616  0.3537
 4747TIP3    H135800   0.864   2.872   8.609 -0.4655 -2.1483  0.0785
 4747TIP3    H235801   0.930   2.886   8.745 -1.2651 -0.2971  0.2926
 4748TIP3   OH235802   3.298   4.881   1.195  0.0945  0.2557  0.6679
 4748TIP3    H135803   3.326   4.915   1.280  0.0213 -0.2632  0.9019
 4748TIP3    H235804   3.345   4.798   1.185 -1.9306 -1.0571  1.4421
 4749TIP3   OH235805   6.680   3.314   1.620  0.3040  0.4833 -0.7782
 4749TIP3    H135806   6.742   3.356   1.560 -0.7975  2.3257 -0.7107
 4749TIP3    H235807   6.679   3.370   1.697  1.0101 -1.3569  0.6362
 4750TIP3   OH235808   0.502   2.986   7.355  0.0712 -0.3460 -0.6766
 4750TIP3    H135809   0.571   3.036   7.312 -0.5390  0.9921 -0.1594
 4750TIP3    H235810   0.506   3.014   7.447 -1.5157  0.1944 -0.7502
 4751TIP3   OH235811   1.774   2.901   0.827  0.2655  0.6435  0.3800
 4751TIP3    H135812   1.809   2.825   0.781 -1.0146  1.0785 -1.4259
 4751TIP3    H235813   1.834   2.972   0.805  0.1174  0.6704  0.0565
 4752TIP3   OH235814   0.375   6.395   7.618 -0.1243  0.5260 -0.6219
 4752TIP3    H135815   0.286   6.410   7.586 -0.2021 -0.0270 -0.6720
 4752TIP3    H235816   0.404   6.315   7.574  0.1130  0.2803 -0.0402
 4753TIP3   OH235817   5.028   6.006   6.757 -0.2666 -0.2639 -0.4916
 4753TIP3    H135818   4.991   5.963   6.834  0.1231  0.4776  0.1140
 4753TIP3    H235819   5.085   5.939   6.718  2.1583  0.3554  1.7361
 4754TIP3   OH235820   4.491   6.110   0.098 -0.4380  0.0533  0.3125
 4754TIP3    H135821   4.401   6.077   0.098 -0.0904 -0.9406 -0.1191
 4754TIP3    H235822   4.516   6.114   0.006 -0.2725  1.0060  0.3896
 4755TIP3   OH235823   3.740   3.829   1.242  0.2499  0.3707 -0.0991
 4755TIP3    H135824   3.830   3.833   1.210  0.0820  0.9864 -0.5055
 4755TIP3    H235825   3.744   3.871   1.328  0.5771 -0.7107  0.4364
 4756TIP3   OH235826   2.377   3.873   7.774 -0.1707 -0.8158  0.0665
 4756TIP3    H135827   2.382   3.957   7.821 -2.0635 -0.4143 -0.3659
 4756TIP3    H235828   2.386   3.897   7.682 -2.1292 -0.8653 -0.1753
 4757TIP3   OH235829   5.555   4.123   1.896  0.4190  0.3393  0.0416
 4757TIP3    H135830   5.596   4.168   1.822 -1.3120  1.5652 -0.2210
 4757TIP3    H235831   5.525   4.194   1.953  3.6892 -0.4776  3.2038
 4758TIP3   OH235832   5.660   0.340   1.810  0.0733 -0.1744 -0.5307
 4758TIP3    H135833   5.755   0.335   1.798  0.4212  0.3660  1.6666
 4758TIP3    H235834   5.647   0.414   1.869 -1.5857 -1.1789  0.4400
 4759TIP3   OH235835   5.778   6.371   1.713 -0.2534  0.0903 -0.1461
 4759TIP3    H135836   5.788   6.427   1.637 -0.2262  0.1610 -0.0901
 4759TIP3    H235837   5.686   6.380   1.739 -0.0589  0.7251  0.3446
 4760TIP3   OH235838   3.079   5.349   0.559 -0.4136 -0.0493  0.6727
 4760TIP3    H135839   3.094   5.428   0.611  0.7359  0.2084 -0.0177
 4760TIP3    H235840   3.045   5.285   0.621  1.1950  0.1580  1.8199
 4761TIP3   OH235841   2.430   5.647   7.395 -0.6705  0.1094  0.2315
 4761TIP3    H135842   2.405   5.565   7.352 -1.0199 -0.2380  1.0931
 4761TIP3    H235843   2.507   5.677   7.345 -1.0769 -0.2686 -0.6492
 4762TIP3   OH235844   2.744   6.778   6.529  0.0763 -0.0944  0.1095
 4762TIP3    H135845   2.695   6.700   6.502  0.8921 -1.0271  1.2368
 4762TIP3    H235846   2.814   6.787   6.465 -0.6603  0.3756 -0.6508
 4763TIP3   OH235847   2.868   0.301   7.344  0.3593  0.3570  0.1694
 4763TIP3    H135848   2.909   0.265   7.265  1.4626 -1.9371  1.7069
 4763TIP3    H235849   2.941   0.337   7.395 -0.0933  0.0642  1.0314
 4764TIP3   OH235850   5.370   1.531   7.013  0.2773 -0.0874  0.3803
 4764TIP3    H135851   5.446   1.549   6.958  0.0529 -0.0930  0.0653
 4764TIP3    H235852   5.295   1.541   6.954 -0.0379  0.9874  0.9464
 4765TIP3   OH235853   1.461   6.145   0.226  0.1307  1.1445  0.0932
 4765TIP3    H135854   1.534   6.170   0.282 -0.1842 -0.0886  1.1051
 4765TIP3    H235855   1.496   6.076   0.169 -0.0096  1.1734 -0.0287
 4766TIP3   OH235856   1.811   5.750   8.694  0.6380  0.1011  0.3128
 4766TIP3    H135857   1.746   5.778   8.630  0.1221 -1.1965  0.2380
 4766TIP3    H235858   1.766   5.754   8.778  0.6769 -0.1301  0.3457
 4767TIP3   OH235859   2.915   6.605   6.267  0.4417 -0.4086 -0.2239
 4767TIP3    H135860   2.983   6.538   6.268 -0.4926 -1.4283  1.4955
 4767TIP3    H235861   2.961   6.686   6.286  1.2165 -1.0542  0.7611
 4768TIP3   OH235862   3.301   2.190   0.343  0.2778 -0.6719  0.3299
 4768TIP3    H135863   3.374   2.148   0.298 -0.4115 -1.6223  0.0494
 4768TIP3    H235864   3.245   2.117   0.371 -0.3818  0.0106  0.8582
 4769TIP3   OH235865   2.756   6.696   7.966 -0.1927 -0.0989 -0.3335
 4769TIP3    H135866   2.682   6.642   7.939 -1.5609  0.5334  1.8679
 4769TIP3    H235867   2.800   6.645   8.034 -0.1524  0.5923  0.1711
 4770TIP3   OH235868   0.545   3.268   6.946 -0.0434  0.4485 -0.2164
 4770TIP3    H135869   0.496   3.212   7.006  1.0053 -2.1929 -1.6644
 4770TIP3    H235870   0.633   3.274   6.984 -0.0031  0.6579 -0.3387
 4771TIP3   OH235871   5.633   3.371   6.867 -0.0290  0.0912  0.4461
 4771TIP3    H135872   5.661   3.280   6.870 -0.5925 -0.0765  0.7867
 4771TIP3    H235873   5.698   3.415   6.812  2.0506  0.1284  2.7407
 4772TIP3   OH235874   5.271   2.045   6.623  0.3773  0.1737 -0.3520
 4772TIP3    H135875   5.283   2.116   6.561 -0.0085 -0.6198 -1.3613
 4772TIP3    H235876   5.234   1.974   6.571  1.0103 -0.8637  0.5706
 4773TIP3   OH235877   5.670   6.726   7.761 -0.4326 -0.1150 -0.2974
 4773TIP3    H135878   5.697   6.642   7.724  0.8931 -0.0890  0.5558
 4773TIP3    H235879   5.696   6.790   7.696 -0.5741 -0.2808 -0.5196
 4774TIP3   OH235880   0.044   1.418   0.143  0.1113 -0.3627  0.1196
 4774TIP3    H135881   0.029   1.512   0.137 -2.0489 -0.5891  0.9781
 4774TIP3    H235882   0.112   1.400   0.079  0.3997  1.7405 -0.2223
 4775TIP3   OH235883   5.301   2.059   8.507  0.1311 -0.5478 -0.0008
 4775TIP3    H135884   5.294   1.980   8.454 -1.3887 -0.8715  0.6201
 4775TIP3    H235885   5.392   2.060   8.537  0.1956 -2.0173 -0.0722
 4776TIP3   OH235886   1.555   4.846   8.452  0.2228  0.0591  0.1079
 4776TIP3    H135887   1.634   4.791   8.453 -0.1260 -0.4646 -0.3866
 4776TIP3    H235888   1.571   4.909   8.382 -0.2896 -0.8035 -0.8057
 4777TIP3   OH235889   0.250   6.664   1.348 -0.1424  0.4544  0.0392
 4777TIP3    H135890   0.159   6.638   1.358 -0.6918  1.1214 -2.6139
 4777TIP3    H235891   0.294   6.627   1.425 -2.2687 -1.5738  0.3750
 4778TIP3   OH235892   5.221   1.037   6.494  0.4108 -0.1820 -0.1065
 4778TIP3    H135893   5.202   1.027   6.401 -0.8245  0.3519  0.0779
 4778TIP3    H235894   5.291   0.974   6.511 -0.6076 -1.6028 -1.0109
 4779TIP3   OH235895   3.215   0.870   8.429  0.0353 -0.1883 -0.4014
 4779TIP3    H135896   3.222   0.945   8.488 -0.7520 -0.9350  0.6897
 4779TIP3    H235897   3.148   0.896   8.365  0.0581  0.1900 -0.2746
 4780TIP3   OH235898   2.020   4.920   7.988  0.0816  0.3279  0.0429
 4780TIP3    H135899   2.043   4.868   7.912  2.2327 -1.9735  2.0827
 4780TIP3    H235900   2.080   4.994   7.986  1.2012 -0.5390  0.2370
 4781TIP3   OH235901   1.907   3.546   0.823 -0.1259  0.1744 -0.1320
 4781TIP3    H135902   1.871   3.608   0.886 -0.4043 -1.1739  1.0794
 4781TIP3    H235903   1.900   3.591   0.739 -0.3142  1.7714  0.7041
 4782TIP3   OH235904   5.291   2.799   8.026  0.3732  0.1158  0.0016
 4782TIP3    H135905   5.325   2.771   7.941  0.9001  0.9674 -0.0863
 4782TIP3    H235906   5.197   2.788   8.020  0.5475 -1.5949 -0.0243
 4783TIP3   OH235907   2.853   5.621   2.027 -0.2881 -0.2705  0.0150
 4783TIP3    H135908   2.876   5.563   2.099  1.0674  1.6064  1.1899
 4783TIP3    H235909   2.916   5.693   2.033 -1.5005  1.0233 -1.7195
 4784TIP3   OH235910   5.454   1.616   1.885 -0.4766 -0.0714  0.5303
 4784TIP3    H135911   5.514   1.690   1.895 -1.1799  0.2834  2.6131
 4784TIP3    H235912   5.383   1.634   1.947 -0.6607 -2.4671  1.1215
 4785TIP3   OH235913   6.259   5.022   8.498 -0.6245 -0.5011 -0.1153
 4785TIP3    H135914   6.326   5.063   8.444 -0.9013  0.5128  0.2806
 4785TIP3    H235915   6.197   4.986   8.435 -0.6357  0.1469 -0.4917
 4786TIP3   OH235916   6.592   4.879   0.082 -0.5081  0.3005  0.3844
 4786TIP3    H135917   6.641   4.834   0.013  0.4933  0.1468  1.1636
 4786TIP3    H235918   6.562   4.809   0.140 -1.2247  0.4402  0.1953
 4787TIP3   OH235919   4.511   4.316   6.697  0.2971  0.8416  0.1451
 4787TIP3    H135920   4.507   4.226   6.729 -1.2462  0.3245 -1.2825
 4787TIP3    H235921   4.431   4.325   6.645  0.4436  3.0404  0.2296
 4788TIP3   OH235922   4.058   0.337   7.846 -0.2082  0.1494 -0.0518
 4788TIP3    H135923   3.972   0.309   7.875  0.5245 -1.3223  0.8116
 4788TIP3    H235924   4.055   0.328   7.751 -1.2646  0.9142 -0.0993
 4789TIP3   OH235925   5.990   3.260   0.897  0.0583 -0.5769  0.5338
 4789TIP3    H135926   5.991   3.350   0.928  0.7096 -0.2042 -0.5337
 4789TIP3    H235927   5.909   3.252   0.846 -2.1070 -1.7678  3.8064
 4790TIP3   OH235928   6.390   4.237   7.591 -0.0943 -0.0275 -0.1933
 4790TIP3    H135929   6.438   4.155   7.579  0.5724  0.6536 -3.0916
 4790TIP3    H235930   6.456   4.300   7.619 -0.2245 -0.0780  0.2258
 4791TIP3   OH235931   0.355   1.703   0.822 -0.1399  0.1363  0.7440
 4791TIP3    H135932   0.362   1.638   0.892  0.4670 -1.8914 -1.0863
 4791TIP3    H235933   0.439   1.749   0.822 -0.5504  0.9211  2.0136
 4792TIP3   OH235934   5.084   6.317   1.706 -0.8377 -0.7594 -0.4071
 4792TIP3    H135935   5.030   6.306   1.784  0.8007 -1.4322  0.6900
 4792TIP3    H235936   5.170   6.342   1.740 -0.8434  2.1105 -2.1779
 4793TIP3   OH235937   0.132   6.494   7.823  0.2102 -0.1996 -0.9180
 4793TIP3    H135938   0.155   6.435   7.752  0.4897 -0.4589 -0.6119
 4793TIP3    H235939   0.067   6.446   7.874 -2.3265  1.1167 -2.6734
 4794TIP3   OH235940   5.422   0.528   1.471  0.9234 -0.1505  1.0424
 4794TIP3    H135941   5.490   0.551   1.534  3.4242  0.8623 -1.8036
 4794TIP3    H235942   5.453   0.447   1.430  1.4359  1.1781 -1.4447
 4795TIP3   OH235943   0.986   5.095   6.540  0.5793 -0.1477  0.0755
 4795TIP3    H135944   0.913   5.147   6.573  1.0464  0.9064 -0.5265
 4795TIP3    H235945   0.944   5.021   6.496 -0.1064  0.0275  0.4190
 4796TIP3   OH235946   2.723   4.538   8.148 -0.1940 -0.0648 -0.7561
 4796TIP3    H135947   2.722   4.519   8.242  1.1294 -1.0229 -0.8974
 4796TIP3    H235948   2.727   4.633   8.142  2.1197 -0.0463  0.2477
 4797TIP3   OH235949   4.690   1.036   8.366  0.1677  0.3844  0.0394
 4797TIP3    H135950   4.661   1.090   8.440 -0.3745  1.4114 -0.9036
 4797TIP3    H235951   4.743   0.967   8.407  0.2332  1.1683  1.3520
 4798TIP3   OH235952   6.557   1.667   0.975 -0.4732 -0.2983  0.0397
 4798TIP3    H135953   6.515   1.740   1.020  0.4666  0.4321 -0.2479
 4798TIP3    H235954   6.485   1.617   0.937 -1.2024 -0.1815  1.2134
 4799TIP3   OH235955   4.033   4.674   7.142  0.9142 -0.5365  0.3693
 4799TIP3    H135956   4.090   4.708   7.073  0.7058 -0.4764  0.2263
 4799TIP3    H235957   3.975   4.748   7.163  0.5076 -0.7788  0.1110
 4800TIP3   OH235958   1.520   2.708   8.030 -0.2381  0.1047 -0.0744
 4800TIP3    H135959   1.431   2.731   8.058  0.2218  0.9840  0.7357
 4800TIP3    H235960   1.531   2.752   7.946 -0.0272  1.3697  0.5833
 4801TIP3   OH235961   4.226   3.774   0.833 -0.3643 -0.1191 -0.0565
 4801TIP3    H135962   4.219   3.865   0.806 -1.2098 -0.0863  0.2419
 4801TIP3    H235963   4.292   3.774   0.902 -0.5419  0.3117  0.1149
 4802TIP3   OH235964   0.245   2.942   1.206 -0.2467 -0.2739 -0.0026
 4802TIP3    H135965   0.289   2.864   1.239  0.2469  0.0215  0.0390
 4802TIP3    H235966   0.154   2.932   1.235 -0.4440 -1.3665 -0.9346
 4803TIP3   OH235967   4.864   6.107   6.380 -0.4665  0.1591 -0.8800
 4803TIP3    H135968   4.845   6.027   6.332  0.8428 -1.3927  1.0352
 4803TIP3    H235969   4.959   6.119   6.371 -0.5365  1.0687 -0.5305
 4804TIP3   OH235970   4.398   2.225   1.091  0.2730 -0.1143  0.3940
 4804TIP3    H135971   4.349   2.149   1.058  0.2978 -0.8014  1.8733
 4804TIP3    H235972   4.331   2.294   1.100  0.0102 -0.3500  0.2668
 4805TIP3   OH235973   6.814   0.964   1.627 -0.1786  0.7420  1.1892
 4805TIP3    H135974   6.773   1.018   1.694 -0.6875  0.2624  1.2744
 4805TIP3    H235975   6.741   0.921   1.582  0.1998  0.3030  0.9784
 4806TIP3   OH235976   3.345   4.421   1.372 -0.0275  0.0929  0.4928
 4806TIP3    H135977   3.258   4.433   1.409 -0.7565 -0.0130 -1.1094
 4806TIP3    H235978   3.342   4.336   1.330 -0.3417  1.4635 -2.5429
 4807TIP3   OH235979   0.958   3.304   1.019  0.4748  0.3176 -0.3466
 4807TIP3    H135980   0.943   3.398   1.004 -0.1614  0.7335  2.3794
 4807TIP3    H235981   1.010   3.301   1.099 -0.1487 -1.6741  0.0348
 4808TIP3   OH235982   3.242   1.344   8.291  0.5741 -0.5837  0.3408
 4808TIP3    H135983   3.190   1.327   8.370  0.3561 -1.6504 -0.0115
 4808TIP3    H235984   3.329   1.367   8.324  0.5403 -1.2060  0.9031
 4809TIP3   OH235985   2.679   3.667   7.280 -0.2884 -0.3101  0.5063
 4809TIP3    H135986   2.619   3.707   7.217  0.6033 -2.4624 -1.9062
 4809TIP3    H235987   2.748   3.732   7.293 -1.3151  0.7940  0.5387
 4810TIP3   OH235988   2.059   5.813   8.124  0.4202 -0.4354  0.2184
 4810TIP3    H135989   1.966   5.794   8.132  0.4860 -0.3183  1.5329
 4810TIP3    H235990   2.103   5.736   8.160  0.7839  0.1079  0.9770
 4811TIP3   OH235991   1.658   4.024   0.142 -0.1078  0.4544 -0.8523
 4811TIP3    H135992   1.605   4.074   0.203  0.6860  1.1341 -0.6935
 4811TIP3    H235993   1.727   3.986   0.196  0.3060  0.6462 -1.2377
 4812TIP3   OH235994   3.721   0.192   1.054 -0.1522  0.7565 -0.1401
 4812TIP3    H135995   3.732   0.245   0.975  1.5513  1.1102  0.2884
 4812TIP3    H235996   3.722   0.101   1.022  2.8699  0.7762 -0.4101
 4813TIP3   OH235997   6.211   2.799   7.283 -0.1754 -0.1594 -0.4648
 4813TIP3    H135998   6.136   2.859   7.276  0.9482  1.2977 -0.4319
 4813TIP3    H235999   6.223   2.765   7.194  0.4000  1.2106 -0.9264
 4814TIP3   OH236000   1.009   1.459   7.653 -0.6450 -0.0591  0.0227
 4814TIP3    H136001   1.009   1.497   7.740 -1.1939 -0.2878  0.1314
 4814TIP3    H236002   1.007   1.365   7.668 -1.5232 -0.0890 -0.2235
 4815TIP3   OH236003   3.591   1.428   1.729  0.3276  0.0691 -0.7127
 4815TIP3    H136004   3.504   1.394   1.752  0.5702 -1.8369 -2.3782
 4815TIP3    H236005   3.647   1.403   1.802 -0.0465 -0.8803 -0.7330
 4816TIP3   OH236006   3.531   2.127   1.402 -0.3554  0.6218  0.0333
 4816TIP3    H136007   3.447   2.157   1.437 -1.0393 -0.3478 -0.7302
 4816TIP3    H236008   3.590   2.130   1.477 -1.3054  0.3992  0.8252
 4817TIP3   OH236009   5.065   3.500   0.130  0.3495  0.3699  0.4323
 4817TIP3    H136010   4.992   3.550   0.092  1.1327  0.8027 -0.5565
 4817TIP3    H236011   5.085   3.434   0.064  1.8165  1.2107 -0.0075
 4818TIP3   OH236012   1.739   0.793   7.097 -0.2845 -0.2388  0.8286
 4818TIP3    H136013   1.817   0.794   7.041 -0.3796  1.2158  0.6818
 4818TIP3    H236014   1.741   0.878   7.142 -0.3753 -1.2440  2.8436
 4819TIP3   OH236015   1.756   1.045   7.219 -0.0317 -0.1240  0.2100
 4819TIP3    H136016   1.750   1.089   7.304 -1.5558 -0.1713  0.1512
 4819TIP3    H236017   1.804   1.106   7.163 -0.4582  0.6272  0.6545
 4820TIP3   OH236018   1.637   3.631   6.360 -0.2924  0.3331 -0.5604
 4820TIP3    H136019   1.716   3.580   6.382 -0.0695  1.2624  0.8563
 4820TIP3    H236020   1.658   3.720   6.386 -2.6948  0.2192  2.2849
 4821TIP3   OH236021   1.959   4.652   7.463 -0.3463 -0.0150 -0.0727
 4821TIP3    H136022   1.911   4.586   7.413 -0.8793  0.6976 -0.5182
 4821TIP3    H236023   1.897   4.725   7.473  0.6884  1.0273 -0.8744
 4822TIP3   OH236024   0.922   2.311   6.637  0.7778 -0.5911 -0.1517
 4822TIP3    H136025   0.944   2.404   6.643 -1.8331  0.0066  1.6880
 4822TIP3    H236026   0.900   2.298   6.545  1.6340  0.4755 -0.5311
 4823TIP3   OH236027   3.843   2.262   1.949 -0.2229  0.4745  0.6607
 4823TIP3    H136028   3.849   2.261   1.854 -0.8946 -3.2623  0.4978
 4823TIP3    H236029   3.770   2.321   1.968 -0.5022  0.7730 -1.1711
 4824TIP3   OH236030   2.102   3.791   0.423 -0.3948  0.0053  0.2849
 4824TIP3    H136031   2.157   3.844   0.480 -1.4437  1.8584 -0.3384
 4824TIP3    H236032   2.164   3.741   0.370  0.6268  0.3556  1.1163
 4825TIP3   OH236033   3.996   5.892   8.009  0.2434  0.1409  0.5663
 4825TIP3    H136034   3.935   5.819   8.006  0.0436  0.2408 -3.6992
 4825TIP3    H236035   4.049   5.876   8.087 -2.3813 -2.2824  2.0240
 4826TIP3   OH236036   1.710   6.742   0.357  0.4830  0.3372  0.4278
 4826TIP3    H136037   1.804   6.757   0.349  0.3225  0.4961 -1.6596
 4826TIP3    H236038   1.700   6.647   0.351  0.5402  0.2678  1.2972
 4827TIP3   OH236039   3.908   2.345   6.654 -0.0033 -0.6128 -0.2000
 4827TIP3    H136040   3.969   2.319   6.723  1.1212  0.2583 -0.8397
 4827TIP3    H236041   3.963   2.370   6.581 -1.0802  1.0340 -0.5149
 4828TIP3   OH236042   5.763   3.973   7.703  0.4565 -0.4031  0.1570
 4828TIP3    H136043   5.701   3.910   7.666 -2.0485  2.6581 -1.3737
 4828TIP3    H236044   5.765   4.045   7.640  3.8257  0.7393  1.3480
 4829TIP3   OH236045   6.357   1.263   1.223  0.1757 -0.0535 -0.0927
 4829TIP3    H136046   6.287   1.241   1.284 -0.1280  0.6891 -0.1587
 4829TIP3    H236047   6.408   1.183   1.214  0.4079 -0.0842  1.3714
 4830TIP3   OH236048   2.558   1.670   8.582  0.1787 -0.7016  0.3339
 4830TIP3    H136049   2.650   1.648   8.596 -0.2116 -2.1919  0.6926
 4830TIP3    H236050   2.516   1.587   8.558 -1.4707 -0.4714  2.1731
 4831TIP3   OH236051   1.861   2.273   8.383 -0.1579  0.4198  1.0547
 4831TIP3    H136052   1.793   2.212   8.410  0.2324 -0.9334 -0.8101
 4831TIP3    H236053   1.938   2.219   8.368  0.8028  1.6702  1.3170
 4832TIP3   OH236054   6.425   2.258   8.560  0.2332 -0.2074 -0.0891
 4832TIP3    H136055   6.392   2.341   8.593 -1.7794 -0.8731 -0.2841
 4832TIP3    H236056   6.517   2.274   8.541  1.2067  0.6923  4.2853
 4833TIP3   OH236057   0.063   5.915   1.580  0.0702 -0.8918  0.2091
 4833TIP3    H136058   0.065   5.832   1.626 -0.1425 -0.0593  1.7885
 4833TIP3    H236059  -0.022   5.917   1.537 -1.5083 -0.0262  3.1093
 4834TIP3   OH236060   6.093   6.001   8.060  0.1791 -0.0112 -0.1842
 4834TIP3    H136061   6.084   5.950   8.140 -1.0976  0.5222  0.0383
 4834TIP3    H236062   6.152   5.950   8.005 -0.4000 -1.3110  0.3711
 4835TIP3   OH236063   3.696   2.784   6.894 -0.2658  0.1366  0.1634
 4835TIP3    H136064   3.611   2.828   6.894  0.8298  2.5797 -2.4528
 4835TIP3    H236065   3.693   2.725   6.819 -0.1257 -0.9285  0.9672
 4836TIP3   OH236066   3.499   1.009   0.190  0.2992 -0.4524 -0.8311
 4836TIP3    H136067   3.449   0.930   0.209  0.0991 -0.4942 -1.5097
 4836TIP3    H236068   3.560   0.983   0.120  0.1165  0.0326 -1.1760
 4837TIP3   OH236069   4.352   0.253   6.745  0.1285  0.2394 -0.9136
 4837TIP3    H136070   4.445   0.227   6.740  1.3210  3.0169  2.7079
 4837TIP3    H236071   4.316   0.197   6.814  0.2590  1.7245  0.4234
 4838TIP3   OH236072   2.414   2.608   0.955  0.2339  0.2551 -0.7770
 4838TIP3    H136073   2.387   2.645   1.039 -0.6385  1.6107 -1.6119
 4838TIP3    H236074   2.337   2.618   0.898 -0.0625 -2.8587 -1.1155
 4839TIP3   OH236075   4.137   2.941   1.340  0.3499 -0.3277 -0.5525
 4839TIP3    H136076   4.114   2.963   1.430  0.9355  0.8960 -0.6903
 4839TIP3    H236077   4.151   2.846   1.342  0.3259 -0.3223  0.6348
 4840TIP3   OH236078   6.484   4.262   0.155 -0.4107 -0.0892 -0.1555
 4840TIP3    H136079   6.465   4.191   0.216 -0.5036  1.1401  1.3283
 4840TIP3    H236080   6.431   4.335   0.187  0.7809  1.0711 -0.7214
 4841TIP3   OH236081   2.372   5.268   7.946  0.3435  0.5742 -0.1260
 4841TIP3    H136082   2.467   5.265   7.949  0.3681 -0.5951 -1.2632
 4841TIP3    H236083   2.344   5.232   8.030  0.8607  2.9162  1.1402
 4842TIP3   OH236084   0.954   1.750   1.044 -0.4754  0.6503 -0.0011
 4842TIP3    H136085   0.916   1.812   1.106 -1.5968 -1.3749  1.4583
 4842TIP3    H236086   0.878   1.707   1.003  0.1528 -1.4866  0.9056
 4843TIP3   OH236087   6.401   0.973   8.724 -0.1648  0.2468  0.2252
 4843TIP3    H136088   6.445   0.896   8.688  0.9682  0.7283  0.5281
 4843TIP3    H236089   6.308   0.958   8.707 -0.1069 -1.8405  1.5335
 4844TIP3   OH236090   5.870   3.604   0.157  0.1334  0.3285 -0.1674
 4844TIP3    H136091   5.797   3.634   0.212 -0.0520  2.1409 -1.3234
 4844TIP3    H236092   5.914   3.537   0.210 -0.6987  1.1938  1.7157
 4845TIP3   OH236093   2.735   1.606   1.354  0.7734  0.1967  0.0640
 4845TIP3    H136094   2.648   1.608   1.314  0.5733 -0.4281  0.4572
 4845TIP3    H236095   2.781   1.680   1.314  0.6894 -0.5822 -1.5780
 4846TIP3   OH236096   3.690   2.010   7.122 -0.4249  0.2550  0.3278
 4846TIP3    H136097   3.753   1.943   7.096  0.1270  0.6161  0.7227
 4846TIP3    H236098   3.684   2.068   7.046 -0.0871  0.3604  0.3792
 4847TIP3   OH236099   2.369   0.056   0.212  0.2389  0.4179 -0.2454
 4847TIP3    H136100   2.459   0.060   0.245 -0.1996  0.9535  0.9211
 4847TIP3    H236101   2.315   0.087   0.284 -0.9815 -0.7756 -0.5975
 4848TIP3   OH236102   1.624   5.439   8.721 -0.2861 -0.3738  0.6072
 4848TIP3    H136103   1.576   5.478   8.648 -0.3255  1.9565  1.7833
 4848TIP3    H236104   1.711   5.480   8.717 -0.3433 -0.0825  1.9421
 4849TIP3   OH236105   0.951   2.605   8.519 -0.2289 -0.0527  0.2134
 4849TIP3    H136106   0.982   2.648   8.439 -0.9558  0.1109  0.0120
 4849TIP3    H236107   0.943   2.676   8.583 -1.1053  0.0705 -0.0207
 4850TIP3   OH236108   5.240   4.690   0.565 -0.4504 -0.2979  0.3651
 4850TIP3    H136109   5.204   4.603   0.579  2.4273 -1.4487  1.4254
 4850TIP3    H236110   5.313   4.696   0.627 -0.4681  2.8617  0.2544
 4851TIP3   OH236111   2.665   4.715   8.573 -0.1559  0.6251 -0.0662
 4851TIP3    H136112   2.693   4.748   8.658 -1.3188 -2.4355  1.6799
 4851TIP3    H236113   2.746   4.694   8.528  0.5339 -0.5849  1.6145
 4852TIP3   OH236114   2.064   0.092   8.192 -0.3669 -0.5703  0.2495
 4852TIP3    H136115   2.132   0.031   8.162  1.7718  1.3756  0.8477
 4852TIP3    H236116   2.066   0.085   8.288  0.4419  0.8980  0.3700
 4853TIP3   OH236117   6.744   5.740   0.176 -0.2039 -0.4670 -0.5589
 4853TIP3    H136118   6.754   5.744   0.271 -0.9623  2.0456 -0.5011
 4853TIP3    H236119   6.698   5.657   0.160  0.5379 -1.2681  1.1669
 4854TIP3   OH236120   3.540   4.488   7.586  0.0229  0.4104 -1.2875
 4854TIP3    H136121   3.622   4.496   7.634 -0.7631 -1.1294  0.4628
 4854TIP3    H236122   3.526   4.574   7.547  0.8368  1.7092  1.1004
 4855TIP3   OH236123   2.020   6.682   7.115 -0.5116 -0.2907 -0.3971
 4855TIP3    H136124   2.084   6.746   7.084  0.3056 -0.6525  0.4851
 4855TIP3    H236125   2.009   6.621   7.042 -0.7352  0.4193 -0.9701
 4856TIP3   OH236126   4.356   6.199   2.302  0.1292 -0.3413  0.3807
 4856TIP3    H136127   4.364   6.255   2.224 -1.7696  0.2725  0.5698
 4856TIP3    H236128   4.266   6.165   2.298  0.0866 -0.5382  2.1532
 4857TIP3   OH236129   3.279   2.078   8.331 -0.1237 -0.5007 -0.9596
 4857TIP3    H136130   3.243   2.111   8.413  2.1505  0.2843 -0.1976
 4857TIP3    H236131   3.213   2.101   8.265 -2.9160 -2.7815  0.7763
 4858TIP3   OH236132   1.308   0.857   7.545 -0.1916 -0.7896  0.6690
 4858TIP3    H136133   1.280   0.782   7.493 -3.8168 -0.1601  1.4394
 4858TIP3    H236134   1.313   0.929   7.483  0.9956 -1.1292  0.3358
 4859TIP3   OH236135   1.178   1.362   0.235 -0.1079 -0.5371  0.1757
 4859TIP3    H136136   1.261   1.352   0.190  0.7235  1.2589  1.1883
 4859TIP3    H236137   1.202   1.383   0.326 -1.5848  1.2570  0.2196
 4860TIP3   OH236138   4.498   2.998   8.593  0.5189 -0.3561  0.1681
 4860TIP3    H136139   4.404   2.999   8.613  0.3986 -1.5068 -0.2229
 4860TIP3    H236140   4.526   2.910   8.618  1.6505  0.1990  0.9227
 4861TIP3   OH236141   5.788   2.514   7.759 -0.1127  0.2712  0.1684
 4861TIP3    H136142   5.815   2.505   7.668  0.1804  0.6948  0.2106
 4861TIP3    H236143   5.853   2.463   7.808  0.0992  0.5642  0.1939
 4862TIP3   OH236144   3.059   4.752   7.117  0.1306  0.2266  0.0504
 4862TIP3    H136145   3.020   4.683   7.171  1.0405 -0.7607 -0.5096
 4862TIP3    H236146   3.027   4.734   7.029  1.1470 -0.0845 -0.2656
 4863TIP3   OH236147   3.430   2.782   6.835  0.1207 -0.1103 -0.4739
 4863TIP3    H136148   3.353   2.809   6.786  0.6311  0.9727 -0.7145
 4863TIP3    H236149   3.396   2.743   6.915 -0.7024 -1.0157 -1.2459
 4864TIP3   OH236150   2.858   4.213   0.977 -0.6717 -0.1564 -0.3323
 4864TIP3    H136151   2.764   4.224   0.960 -1.0712 -1.4034  0.8658
 4864TIP3    H236152   2.863   4.131   1.027  0.7209  1.4612  2.4126
 4865TIP3   OH236153   5.930   1.237   7.743  0.1274 -0.5069 -0.0178
 4865TIP3    H136154   5.887   1.297   7.804 -1.1082 -0.4410 -0.9112
 4865TIP3    H236155   5.861   1.175   7.718  0.6172 -0.5580 -1.2992
 4866TIP3   OH236156   5.424   4.346   0.116  0.7355  0.0336 -0.1186
 4866TIP3    H136157   5.430   4.441   0.131  1.2147 -0.1449  0.8599
 4866TIP3    H236158   5.330   4.328   0.117  0.6217  0.5612 -0.7369
 4867TIP3   OH236159   3.120   2.071   1.470  0.2539 -0.3104  0.3818
 4867TIP3    H136160   3.042   2.034   1.513  0.5458 -1.0938  0.2453
 4867TIP3    H236161   3.162   1.996   1.427  1.5145 -0.0457  1.1059
 4868TIP3   OH236162   2.034   0.534   7.499  0.2421 -0.8231  0.4042
 4868TIP3    H136163   1.980   0.464   7.537  1.1104 -0.9801  1.3875
 4868TIP3    H236164   1.977   0.610   7.497  0.0520 -0.9053  1.7157
 4869TIP3   OH236165   6.322   0.192   7.800 -0.8366  0.2813  0.3750
 4869TIP3    H136166   6.403   0.171   7.754 -0.9689  0.0477  0.2462
 4869TIP3    H236167   6.277   0.254   7.742 -0.8346  0.2674  0.3583
 4870TIP3   OH236168   5.662   2.222   1.026  0.5790  0.0011 -0.5925
 4870TIP3    H136169   5.675   2.257   1.114 -0.1830 -0.6654 -0.1959
 4870TIP3    H236170   5.583   2.168   1.034  1.5041 -1.5086 -1.2452
 4871TIP3   OH236171   6.423   6.760   1.569  0.1681 -0.1002 -0.4447
 4871TIP3    H136172   6.481   6.765   1.645 -1.3529 -0.5484  0.8042
 4871TIP3    H236173   6.378   6.845   1.568 -0.7425 -0.5703 -0.0551
 4872TIP3   OH236174   3.427   0.519   0.323 -0.0942  1.3471  0.2701
 4872TIP3    H136175   3.379   0.599   0.348  0.4355  1.4004  1.1554
 4872TIP3    H236176   3.446   0.476   0.406 -2.0304 -0.7209 -0.2669
 4873TIP3   OH236177   3.988   2.080   7.072 -0.1910  0.2589  0.6421
 4873TIP3    H136178   3.960   2.054   6.984 -0.5945 -0.5920  1.0156
 4873TIP3    H236179   4.028   2.167   7.059  1.4294 -0.6107 -0.6787
 4874TIP3   OH236180   5.659   0.108   7.607  0.3270 -0.5258  0.2828
 4874TIP3    H136181   5.571   0.120   7.571 -0.1763 -2.5690  0.7230
 4874TIP3    H236182   5.711   0.075   7.533  0.7041  0.4897  0.0748
 4875TIP3   OH236183   1.832   6.461   7.303  0.2495  1.0407 -0.0200
 4875TIP3    H136184   1.752   6.447   7.353  1.0215 -0.4810  0.8784
 4875TIP3    H236185   1.867   6.543   7.336  1.9169 -0.9191  3.8165
 4876TIP3   OH236186   1.301   2.933   0.972 -0.0511 -0.0606 -0.9636
 4876TIP3    H136187   1.377   2.895   0.927  0.3405 -2.0122  1.1320
 4876TIP3    H236188   1.305   3.026   0.953  2.7878 -0.1286 -1.0964
 4877TIP3   OH236189   5.511   1.700   6.377  0.1990  0.1042 -0.5886
 4877TIP3    H136190   5.563   1.623   6.355 -1.4942 -0.9034 -1.2703
 4877TIP3    H236191   5.546   1.769   6.321  2.0802  0.0235  0.3959
 4878TIP3   OH236192   6.607   1.482   8.177 -0.2549  0.4712 -0.0946
 4878TIP3    H136193   6.546   1.420   8.139  0.1651  0.3131 -0.5175
 4878TIP3    H236194   6.643   1.530   8.102  0.3886  0.3291  0.1168
 4879TIP3   OH236195   4.317   3.149   1.276 -0.1837  0.6953 -0.1004
 4879TIP3    H136196   4.249   3.084   1.292  0.8313 -0.0211  1.6292
 4879TIP3    H236197   4.272   3.234   1.285 -0.7223  0.2551  1.9702
 4880TIP3   OH236198   2.453   2.339   7.123 -0.2243 -0.3363 -0.4595
 4880TIP3    H136199   2.523   2.285   7.159 -0.4775  0.5104  1.4356
 4880TIP3    H236200   2.423   2.292   7.046  3.1979 -0.1648 -2.0962
 4881TIP3   OH236201   0.002   3.970   5.725  0.8225  0.2077  0.4841
 4881TIP3    H136202  -0.090   3.980   5.702  0.9123 -0.0572  0.0080
 4881TIP3    H236203   0.001   3.953   5.820  0.3928  0.3304  0.5036
 4882TIP3   OH236204   0.729   0.299   8.149  0.0894  0.5496 -0.6982
 4882TIP3    H136205   0.704   0.348   8.071  0.4911 -0.7823 -1.7043
 4882TIP3    H236206   0.687   0.214   8.138 -0.3301  0.5281  0.8432
 4883TIP3   OH236207   3.087   3.782   0.287 -0.0500  0.1707 -0.0495
 4883TIP3    H136208   3.018   3.838   0.252  0.1582  0.0379 -0.6803
 4883TIP3    H236209   3.067   3.775   0.381 -0.9678  0.0203 -0.2493
 4884TIP3   OH236210   6.582   1.845   7.316  0.0734  0.5116 -0.0717
 4884TIP3    H136211   6.673   1.841   7.346 -0.1168 -0.6771  0.3881
 4884TIP3    H236212   6.546   1.759   7.336 -1.5197  1.3568  0.9116
 4885TIP3   OH236213   0.062   2.679   7.567  0.4701  0.2838  0.4969
 4885TIP3    H136214   0.149   2.681   7.608  1.1647  1.7018 -0.9096
 4885TIP3    H236215   0.013   2.749   7.611  1.0640  1.4958 -0.7046
 4886TIP3   OH236216   6.176   1.165   0.843  0.6362  0.0194 -0.1383
 4886TIP3    H136217   6.172   1.233   0.776 -0.5374 -1.6430 -1.8639
 4886TIP3    H236218   6.218   1.091   0.800 -1.8205 -1.7345  0.2706
 4887TIP3   OH236219   0.738   5.929   7.974  0.3785  0.1442 -0.3467
 4887TIP3    H136220   0.644   5.917   7.964  0.3324  0.0794  0.1323
 4887TIP3    H236221   0.750   5.952   8.066  0.9094 -0.7103 -0.1823
 4888TIP3   OH236222   6.719   5.872   7.352 -0.4652 -0.4582 -0.4023
 4888TIP3    H136223   6.669   5.953   7.341 -1.3336 -0.6671  1.4262
 4888TIP3    H236224   6.652   5.803   7.354  0.0459 -0.9542  0.2557
 4889TIP3   OH236225   1.379   5.783   6.735  0.5889 -0.0249 -0.7684
 4889TIP3    H136226   1.408   5.861   6.782  1.3005 -1.0192  0.5003
 4889TIP3    H236227   1.457   5.753   6.687  0.6249 -0.5522 -0.3900
 4890TIP3   OH236228   1.310   3.108   1.543 -0.2094  0.1516 -0.1923
 4890TIP3    H136229   1.389   3.147   1.505 -0.5494  1.5129  0.4580
 4890TIP3    H236230   1.237   3.155   1.501 -0.6871 -0.9163 -0.6015
 4891TIP3   OH236231   1.595   2.903   7.369  1.2596  0.0175  0.0745
 4891TIP3    H136232   1.643   2.903   7.452  0.5864 -0.0327  0.4760
 4891TIP3    H236233   1.507   2.873   7.393  0.7944  0.8969 -0.4930
 4892TIP3   OH236234   6.129   6.609   0.793 -0.3922 -0.1725  0.1816
 4892TIP3    H136235   6.206   6.557   0.771  0.4672  0.6181  1.1834
 4892TIP3    H236236   6.150   6.698   0.763 -0.8448  0.0828  0.5916
 4893TIP3   OH236237   2.233   5.981   0.369 -0.0700 -0.1523 -0.2448
 4893TIP3    H136238   2.248   6.065   0.411 -2.7605  0.6365 -0.6939
 4893TIP3    H236239   2.232   5.999   0.275  0.3623 -0.8834 -0.4033
 4894TIP3   OH236240   6.571   2.767   8.698 -0.1074 -0.2441 -0.5750
 4894TIP3    H136241   6.628   2.837   8.729 -0.3888 -0.7862  1.3030
 4894TIP3    H236242   6.628   2.692   8.687 -0.1712 -0.3071 -0.4703
 4895TIP3   OH236243   3.152   4.719   8.361  0.4728  0.1027 -0.2242
 4895TIP3    H136244   3.196   4.717   8.276 -0.8084 -2.1471 -0.9217
 4895TIP3    H236245   3.212   4.674   8.420  0.2995 -0.5736 -0.5505
 4896TIP3   OH236246   6.261   0.405   0.510  0.2547 -0.1842  0.3481
 4896TIP3    H136247   6.310   0.487   0.515  0.8724 -0.2676 -2.4510
 4896TIP3    H236248   6.170   0.432   0.494  0.0825 -0.0582  1.4848
 4897TIP3   OH236249   3.900   2.607   0.007 -0.4984  0.6320  0.2626
 4897TIP3    H136250   3.901   2.647  -0.080  0.4532 -1.7450 -0.9277
 4897TIP3    H236251   3.935   2.674   0.065  1.1314  1.5145 -1.6183
 4898TIP3   OH236252   4.016   1.395   6.624  0.7775 -0.0501 -0.3433
 4898TIP3    H136253   4.043   1.477   6.666  0.0653  0.5068 -0.9355
 4898TIP3    H236254   4.003   1.334   6.696 -1.8774  1.2987  0.4603
 4899TIP3   OH236255   6.785   6.090   6.500 -0.9212  0.4659 -0.1049
 4899TIP3    H136256   6.839   6.021   6.462  0.2227  1.3849 -0.2126
 4899TIP3    H236257   6.709   6.044   6.535  0.0872 -0.9154  0.3661
 4900TIP3   OH236258   2.705   6.756   8.352 -0.0037 -0.9781  0.2110
 4900TIP3    H136259   2.626   6.789   8.310 -0.0919 -1.6104 -0.1271
 4900TIP3    H236260   2.711   6.805   8.434  0.5945  0.8244 -0.8583
 4901TIP3   OH236261   4.500   4.901   2.196  0.1925  0.7131  0.3641
 4901TIP3    H136262   4.517   4.975   2.255  1.2924  1.4034 -0.7835
 4901TIP3    H236263   4.532   4.825   2.244  1.2646  1.2870  0.6045
 4902TIP3   OH236264   6.078   4.821   7.117  0.1855  0.4283 -0.4512
 4902TIP3    H136265   6.158   4.770   7.132  0.0406 -0.1003 -1.3931
 4902TIP3    H236266   6.018   4.791   7.185  0.5706  0.3659 -0.1336
 4903TIP3   OH236267   1.645   6.840   7.979 -0.2042 -0.0668 -0.0453
 4903TIP3    H136268   1.651   6.795   8.063  0.7296  0.2866  0.0932
 4903TIP3    H236269   1.734   6.871   7.962 -0.5930  0.7757 -0.6598
 4904TIP3   OH236270   1.527   4.733   1.990  0.4111 -0.3140 -0.2561
 4904TIP3    H136271   1.463   4.751   1.921 -0.8854 -1.6055  0.5379
 4904TIP3    H236272   1.498   4.650   2.027  2.1305 -0.5371  0.6596
 4905TIP3   OH236273   5.366   4.311   7.339 -0.0716  0.1932  0.1371
 4905TIP3    H136274   5.457   4.337   7.327  0.6875 -2.2427  0.0073
 4905TIP3    H236275   5.323   4.330   7.256  0.2696  1.4261  0.2262
 4906TIP3   OH236276   2.903   2.176   0.981 -0.0914 -0.1160 -0.1044
 4906TIP3    H136277   2.993   2.171   1.012  0.7101  0.9177 -2.1038
 4906TIP3    H236278   2.903   2.247   0.916 -2.0472 -0.9293 -1.0942
 4907TIP3   OH236279   1.898   5.197   1.147  0.1112  0.4811  0.7471
 4907TIP3    H136280   1.894   5.288   1.117 -1.0272  0.1458 -0.1926
 4907TIP3    H236281   1.952   5.152   1.081 -0.9900  0.0896  0.0778
 4908TIP3   OH236282   5.392   1.362   7.445  0.2629  0.5226  0.2311
 4908TIP3    H136283   5.440   1.445   7.444 -0.3957  0.9091  0.2012
 4908TIP3    H236284   5.360   1.352   7.355 -2.0331  1.6601  0.8415
 4909TIP3   OH236285   2.895   3.389   7.839 -0.0630  0.0467  0.4808
 4909TIP3    H136286   2.819   3.378   7.897  0.0341  1.1379  0.8254
 4909TIP3    H236287   2.888   3.478   7.807 -0.5671 -0.7791 -1.8757
 4910TIP3   OH236288   3.724   0.611   6.646  0.2564  0.5907  0.4935
 4910TIP3    H136289   3.789   0.650   6.704  1.4839  0.3407 -0.6852
 4910TIP3    H236290   3.740   0.650   6.560 -0.7037  0.0203  0.0255
 4911TIP3   OH236291   1.683   0.770   1.522  0.6962  0.2634 -0.2060
 4911TIP3    H136292   1.702   0.826   1.447  0.3096 -1.1839 -1.4199
 4911TIP3    H236293   1.674   0.832   1.595 -1.2262  1.9612 -1.7512
 4912TIP3   OH236294   4.780   5.602   7.498 -0.1407  0.2510  0.7733
 4912TIP3    H136295   4.794   5.677   7.440  0.1808 -1.6543 -1.8002
 4912TIP3    H236296   4.840   5.616   7.571  1.5914  1.3936 -0.7772
 4913TIP3   OH236297   5.034   3.487   7.656 -0.1176  0.2345 -0.0878
 4913TIP3    H136298   4.968   3.526   7.599 -1.6937 -1.3950  0.5171
 4913TIP3    H236299   5.064   3.410   7.608 -0.9501 -0.7613  0.9449
 4914TIP3   OH236300   4.425   4.203   7.266 -0.4491  0.2021  0.1788
 4914TIP3    H136301   4.409   4.169   7.178 -1.2338  0.9768 -0.0008
 4914TIP3    H236302   4.517   4.232   7.264 -0.2823 -0.3404 -0.1893
 4915TIP3   OH236303   5.104   5.281   0.371  0.2321 -0.0418 -0.2181
 4915TIP3    H136304   5.158   5.356   0.395  0.1694 -0.0405 -0.0768
 4915TIP3    H236305   5.027   5.319   0.329  0.4000 -0.0495 -0.5366
 4916TIP3   OH236306   2.024   1.168   0.760  0.0294  0.4282 -0.3230
 4916TIP3    H136307   2.076   1.093   0.731 -0.9896 -0.4495  0.0242
 4916TIP3    H236308   1.951   1.172   0.698 -0.4182  0.5524  0.2015
 4917TIP3   OH236309   4.193   3.338   7.583 -0.3772 -0.9008  0.0660
 4917TIP3    H136310   4.139   3.398   7.531 -0.6249  0.1364  1.4789
 4917TIP3    H236311   4.139   3.260   7.595  0.2555 -1.8368 -2.4960
 4918TIP3   OH236312   6.678   3.161   8.372  0.5062  0.0151 -0.0438
 4918TIP3    H136313   6.594   3.167   8.326  0.6565  0.3002 -0.2823
 4918TIP3    H236314   6.697   3.067   8.374  0.1198 -0.0636  0.1278
 4919TIP3   OH236315   4.271   1.453   0.503  0.0668 -0.0640 -0.0297
 4919TIP3    H136316   4.329   1.466   0.429 -0.5633 -1.7964 -0.8995
 4919TIP3    H236317   4.313   1.498   0.576  0.8573  1.4098 -1.3472
 4920TIP3   OH236318   2.298   5.677   1.337 -0.3654  0.8083  0.0808
 4920TIP3    H136319   2.358   5.700   1.409  0.6845  1.7708 -1.0676
 4920TIP3    H236320   2.352   5.627   1.276 -1.0529  0.6350 -0.3940
 4921TIP3   OH236321   1.603   3.719   0.728 -0.7186  0.7914  0.3055
 4921TIP3    H136322   1.580   3.640   0.679 -0.5081  0.5456  0.6006
 4921TIP3    H236323   1.652   3.687   0.803 -0.5053  1.2148  0.3495
 4922TIP3   OH236324   2.694   5.219   7.821 -0.6924  0.2740 -0.1381
 4922TIP3    H136325   2.730   5.308   7.817 -0.9734  0.3844 -0.2557
 4922TIP3    H236326   2.735   5.180   7.898  0.8946 -0.1520 -1.1675
 4923TIP3   OH236327   2.989   1.007   1.951 -0.0354  0.0361  0.0545
 4923TIP3    H136328   2.949   1.078   2.001 -0.2130  0.5219 -0.7572
 4923TIP3    H236329   2.916   0.950   1.927 -0.3812  1.1713 -1.8313
 4924TIP3   OH236330   0.086   0.751   7.719 -0.6126  0.4753  0.9658
 4924TIP3    H136331   0.167   0.700   7.709 -0.7353  0.2892  0.9027
 4924TIP3    H236332   0.045   0.714   7.798 -0.3312  0.9923  1.3601
 4925TIP3   OH236333   2.369   0.135   1.200  0.2507  0.4866 -0.4312
 4925TIP3    H136334   2.407   0.048   1.209  0.8966  0.7860 -0.2423
 4925TIP3    H236335   2.440   0.195   1.222  0.1762  1.0925 -1.7559
 4926TIP3   OH236336   6.452   2.591   6.147  0.0392 -0.1547 -0.3260
 4926TIP3    H136337   6.470   2.680   6.119  0.1833  0.5262  1.7769
 4926TIP3    H236338   6.528   2.566   6.201 -0.2318 -1.3557 -0.4567
 4927TIP3   OH236339   5.676   0.864   0.476 -0.4487  0.0229 -0.1256
 4927TIP3    H136340   5.714   0.947   0.503 -0.9032 -0.4793  2.2846
 4927TIP3    H236341   5.597   0.889   0.428  0.7848  0.9696 -1.7908
 4928TIP3   OH236342   0.525   5.837   1.926 -0.2592  0.0967 -0.0870
 4928TIP3    H136343   0.525   5.813   2.019 -3.6516 -1.6459 -0.3742
 4928TIP3    H236344   0.552   5.757   1.881 -1.0442  0.1643 -0.6901
 4929TIP3   OH236345   1.284   2.367   8.052 -0.4585 -0.1191  0.3262
 4929TIP3    H136346   1.239   2.413   7.981  0.0567  0.7018  0.5278
 4929TIP3    H236347   1.372   2.404   8.052  0.0026 -1.1857  0.4207
 4930TIP3   OH236348   6.155   4.851   1.751  0.8863 -0.1241  0.1849
 4930TIP3    H136349   6.146   4.775   1.694 -2.0091  2.1054 -2.7444
 4930TIP3    H236350   6.085   4.841   1.815 -1.9533  1.5058 -2.3831
 4931TIP3   OH236351   6.292   4.146   1.062  0.3765 -0.0028 -0.5365
 4931TIP3    H136352   6.263   4.175   0.976  0.5509  0.8060 -0.3341
 4931TIP3    H236353   6.380   4.112   1.048  1.2718  2.0851 -0.3568
 4932TIP3   OH236354   0.229   5.163   7.981  0.0207 -0.0545  0.6337
 4932TIP3    H136355   0.274   5.081   7.961  2.0790  1.4537 -1.3066
 4932TIP3    H236356   0.299   5.224   8.005 -0.9296  2.2705 -2.0145
 4933TIP3   OH236357   0.712   2.780   1.384  0.1216 -0.2852  0.3092
 4933TIP3    H136358   0.648   2.773   1.456 -0.3134 -0.3332 -0.0762
 4933TIP3    H236359   0.707   2.694   1.340 -1.0020  0.3630 -0.9188
 4934TIP3   OH236360   5.139   6.338   1.456  0.2858  0.2190 -0.4909
 4934TIP3    H136361   5.129   6.324   1.550  2.4326 -1.2699 -0.4046
 4934TIP3    H236362   5.051   6.329   1.420 -0.2021 -2.1404  1.0666
 4935TIP3   OH236363   4.103   0.024   7.575  0.6227 -0.6328  0.3120
 4935TIP3    H136364   4.171  -0.017   7.521  1.2981 -0.6312  1.1377
 4935TIP3    H236365   4.087  -0.040   7.645  1.8238  0.5404  1.7323
 4936TIP3   OH236366   4.515   6.768   7.683 -0.5350 -0.0418  0.3392
 4936TIP3    H136367   4.518   6.768   7.779  0.5076  0.4894  0.3247
 4936TIP3    H236368   4.583   6.706   7.656  0.0797  0.7690 -0.0446
 4937TIP3   OH236369   4.579   6.340   1.282  0.0679  0.1481  0.2913
 4937TIP3    H136370   4.524   6.372   1.210 -1.4008 -2.2635  0.2539
 4937TIP3    H236371   4.549   6.388   1.359  0.8754  1.9129 -0.4205
 4938TIP3   OH236372   6.108   3.238   6.951 -0.4326 -0.5653  0.4914
 4938TIP3    H136373   6.158   3.301   6.901  0.1020 -2.3668 -1.3739
 4938TIP3    H236374   6.026   3.227   6.902  0.3664 -2.8330 -0.4367
 4939TIP3   OH236375   6.679   3.966   0.116 -0.1158 -0.5588 -0.6620
 4939TIP3    H136376   6.732   3.952   0.195  0.4356  0.3078 -0.8614
 4939TIP3    H236377   6.681   4.061   0.103 -0.2357 -0.6921 -1.6939
 4940TIP3   OH236378   2.979   4.323   0.300  0.1229  0.2021  0.5723
 4940TIP3    H136379   2.996   4.239   0.343 -1.1244 -0.2151  0.3036
 4940TIP3    H236380   2.943   4.379   0.369  0.6866  0.4338  0.6851
 4941TIP3   OH236381   1.766   2.722   8.545  0.2808 -0.0299 -0.1535
 4941TIP3    H136382   1.736   2.772   8.470  2.1125  0.7198 -0.4496
 4941TIP3    H236383   1.741   2.632   8.526  0.2999  0.2211 -1.4393
 4942TIP3   OH236384   5.535   0.196   1.623 -0.6042  0.4488 -0.0724
 4942TIP3    H136385   5.577   0.258   1.682  0.1101 -0.2651  0.1848
 4942TIP3    H236386   5.603   0.131   1.604 -1.3973 -0.3675 -0.1793
 4943TIP3   OH236387   0.234   2.124   0.278  0.3728  0.5177 -0.1386
 4943TIP3    H136388   0.222   2.125   0.372  0.0475  0.0078 -0.1698
 4943TIP3    H236389   0.269   2.037   0.259 -1.7814 -0.2889 -0.7413
 4944TIP3   OH236390   2.284   2.651   8.120  0.1736 -0.1979  0.7473
 4944TIP3    H136391   2.194   2.631   8.147  0.1186  1.1382  1.6481
 4944TIP3    H236392   2.275   2.707   8.043  0.1720  1.0320  1.6118
 4945TIP3   OH236393   1.812   0.680   0.407  0.0879  0.0579 -0.1417
 4945TIP3    H136394   1.740   0.638   0.358 -0.0943  0.3437 -0.1202
 4945TIP3    H236395   1.886   0.680   0.346 -0.1461  0.4341 -0.4315
 4946TIP3   OH236396   5.064   1.295   6.077 -0.1038 -0.3165 -0.2905
 4946TIP3    H136397   5.008   1.250   6.141 -0.3251 -0.2295 -0.4229
 4946TIP3    H236398   5.066   1.237   6.001  0.7448 -0.7655  0.0608
 4947TIP3   OH236399   4.084   2.429   2.313 -0.1035 -0.0289  0.3564
 4947TIP3    H136400   4.034   2.467   2.385 -0.1061 -1.7219  1.3182
 4947TIP3    H236401   4.174   2.426   2.346  0.3677  1.4751 -0.7172
 4948TIP3   OH236402   1.215   4.074   8.424 -0.1158  0.2033 -0.4824
 4948TIP3    H136403   1.130   4.049   8.387 -0.8781  1.3135  0.4517
 4948TIP3    H236404   1.275   4.006   8.394 -1.5267 -1.1519 -0.3387
 4949TIP3   OH236405   3.904   2.391   0.971  0.8480 -0.1883 -0.6148
 4949TIP3    H136406   3.932   2.424   0.886  0.6255 -2.1314 -1.4934
 4949TIP3    H236407   3.816   2.427   0.982  0.9627  0.2567 -1.0974
 4950TIP3   OH236408   2.928   4.816   0.387  0.2221  0.7510  0.5099
 4950TIP3    H136409   2.855   4.789   0.330  0.3042  1.6182 -0.0160
 4950TIP3    H236410   2.920   4.759   0.464 -1.3285  1.1709  0.6970
 4951TIP3   OH236411   3.926   1.016   1.251 -0.2381 -0.1618  0.0102
 4951TIP3    H136412   3.926   0.997   1.345 -0.1064  2.2186  0.5600
 4951TIP3    H236413   4.019   1.030   1.229 -0.2972 -0.3870 -0.3974
 4952TIP3   OH236414   3.433   0.163   1.067  0.2468  0.0985  0.5249
 4952TIP3    H136415   3.427   0.078   1.023  0.0108  0.5468 -0.3336
 4952TIP3    H236416   3.501   0.150   1.133 -1.0478 -1.2830  1.6610
 4953TIP3   OH236417   2.724   1.874   8.675 -0.0615 -0.4442  0.1063
 4953TIP3    H136418   2.664   1.812   8.633  1.1803 -1.3365 -0.3909
 4953TIP3    H236419   2.724   1.847   8.767 -1.0716  0.1100  0.2817
 4954TIP3   OH236420   4.377   6.678   8.212  0.4793 -0.3030 -0.0199
 4954TIP3    H136421   4.395   6.585   8.223  0.4470 -0.5164 -1.5082
 4954TIP3    H236422   4.282   6.683   8.204  0.4033 -0.0191  0.9879
 4955TIP3   OH236423   6.159   3.913   1.003  0.2975 -0.4562  0.7145
 4955TIP3    H136424   6.138   3.876   0.917  1.5504  0.6765 -0.1288
 4955TIP3    H236425   6.237   3.967   0.987  0.4850 -0.1226  2.5472
 4956TIP3   OH236426   4.120   6.251   6.267 -1.0240 -0.1900 -0.2705
 4956TIP3    H136427   4.173   6.217   6.195 -0.2896 -0.1033  0.2159
 4956TIP3    H236428   4.081   6.331   6.231  0.2738  0.4997 -0.2319
 4957TIP3   OH236429   4.339   5.585   8.591 -0.1090  0.1701  0.5631
 4957TIP3    H136430   4.429   5.553   8.604  0.3873  1.3543  0.1113
 4957TIP3    H236431   4.345   5.647   8.520 -1.1110  1.0701  1.2296
 4958TIP3   OH236432   1.339   6.038   1.341  0.0812  0.1294 -0.4433
 4958TIP3    H136433   1.318   5.948   1.367 -1.0107  0.3178 -0.6060
 4958TIP3    H236434   1.392   6.029   1.262 -0.9832 -0.3778 -1.1280
 4959TIP3   OH236435   4.905   2.510   1.901 -0.2612  0.4914  0.0101
 4959TIP3    H136436   4.843   2.461   1.956  0.9347  0.5473  1.4726
 4959TIP3    H236437   4.989   2.466   1.914 -0.0498  0.0885 -2.3599
 4960TIP3   OH236438   6.597   2.872   1.404 -0.3177 -0.4383  0.5147
 4960TIP3    H136439   6.598   2.777   1.409 -1.2949 -0.4896 -0.0585
 4960TIP3    H236440   6.589   2.901   1.495  3.5739 -0.7617  1.1592
 4961TIP3   OH236441   6.462   1.015   1.197  0.0095  0.4526 -0.3545
 4961TIP3    H136442   6.553   0.989   1.212 -0.2905  0.5208  1.7671
 4961TIP3    H236443   6.434   0.961   1.123  1.3490 -0.5477 -0.1693
 4962TIP3   OH236444   4.908   3.369   1.169  0.3689 -0.2481  0.3160
 4962TIP3    H136445   4.919   3.439   1.234  1.6972  1.3477 -1.4917
 4962TIP3    H236446   4.970   3.301   1.196  1.7254  0.8798  0.1956
 4963TIP3   OH236447   1.554   5.637   0.715 -0.2141 -0.0889  0.4160
 4963TIP3    H136448   1.473   5.607   0.756 -0.1434  0.2196  0.7894
 4963TIP3    H236449   1.607   5.558   0.706  0.4059  0.0551  2.3709
 4964TIP3   OH236450   5.521   3.231   2.325 -0.5414 -0.2689  0.5493
 4964TIP3    H136451   5.495   3.153   2.276 -0.6467 -0.8722  1.5385
 4964TIP3    H236452   5.613   3.245   2.301 -1.2882  1.0912 -1.9381
 4965TIP3   OH236453   2.750   0.726   7.784 -0.0692  0.1132 -0.0169
 4965TIP3    H136454   2.751   0.818   7.759 -2.2598 -0.0575 -1.0152
 4965TIP3    H236455   2.706   0.726   7.870 -0.5356 -0.0205 -0.2504
 4966TIP3   OH236456   4.753   5.251   0.153  0.1626 -0.0097  0.3132
 4966TIP3    H136457   4.771   5.314   0.223  0.3885  0.1104  0.1481
 4966TIP3    H236458   4.750   5.304   0.074 -0.4950 -0.0859  0.2798
 4967TIP3   OH236459   4.442   6.008   1.114 -0.5078  0.1462  0.0430
 4967TIP3    H136460   4.491   5.955   1.051 -1.3839 -0.0537 -0.4917
 4967TIP3    H236461   4.351   6.005   1.083 -0.7423  1.1438  0.5709
 4968TIP3   OH236462   6.752   5.363   7.011  0.4752  0.2594  0.0841
 4968TIP3    H136463   6.786   5.429   6.951  0.7831  0.7490  0.7846
 4968TIP3    H236464   6.780   5.392   7.098  0.5020 -0.7215  0.4228
 4969TIP3   OH236465   0.234   6.534   1.817 -0.3096 -0.5094 -0.0262
 4969TIP3    H136466   0.175   6.606   1.841 -1.9090 -1.7880  0.0893
 4969TIP3    H236467   0.217   6.467   1.882  0.4117 -1.3678 -0.7000
 4970TIP3   OH236468   6.692   0.589   7.070 -0.0268 -0.2854 -0.5148
 4970TIP3    H136469   6.616   0.531   7.078 -0.6659  0.7209  1.3153
 4970TIP3    H236470   6.663   0.672   7.107  1.8671  0.2335 -0.0910
 4971TIP3   OH236471   1.203   0.382   0.443  0.3544  0.0666 -0.2552
 4971TIP3    H136472   1.130   0.428   0.403  1.7626  1.0577 -1.8505
 4971TIP3    H236473   1.191   0.395   0.537 -0.3998  1.9876 -0.5757
 4972TIP3   OH236474   1.984   4.651   0.737  0.9515  0.2015 -0.4589
 4972TIP3    H136475   1.972   4.594   0.813  2.1991  0.1987 -0.2431
 4972TIP3    H236476   2.036   4.725   0.769  0.3076  0.9001 -0.9926
 4973TIP3   OH236477   1.880   2.839   1.732 -0.0627  0.1857  0.0116
 4973TIP3    H136478   1.969   2.823   1.763  0.2966 -0.0462 -1.0928
 4973TIP3    H236479   1.836   2.754   1.742  0.2194 -0.0409 -0.6436
 4974TIP3   OH236480   3.939   3.656   1.705  0.1511 -0.0433  0.2990
 4974TIP3    H136481   3.940   3.669   1.800 -1.8254  1.7187  0.1541
 4974TIP3    H236482   3.968   3.740   1.669  0.2761 -0.4921 -0.6935
 4975TIP3   OH236483   3.923   4.550   0.698 -0.2311  0.1884  0.7740
 4975TIP3    H136484   4.000   4.493   0.690 -0.5437 -0.0701 -0.6767
 4975TIP3    H236485   3.882   4.524   0.780  0.2306 -0.9430  0.6635
 4976TIP3   OH236486   6.126   6.125   1.712 -0.3654 -0.0390 -1.0731
 4976TIP3    H136487   6.136   6.191   1.781 -0.9383  0.2633 -1.2767
 4976TIP3    H236488   6.088   6.173   1.639 -2.0136 -0.8710 -0.7937
 4977TIP3   OH236489   6.241   5.240   0.004  0.2682  0.2150 -0.6548
 4977TIP3    H136490   6.327   5.220   0.039  0.7546  0.7864 -1.4958
 4977TIP3    H236491   6.246   5.214  -0.088 -0.3363  0.5853 -0.8003
 4978TIP3   OH236492   2.464   5.547   8.269 -0.8542 -0.1744 -0.1292
 4978TIP3    H136493   2.534   5.564   8.332  0.3492 -0.2516 -1.4038
 4978TIP3    H236494   2.492   5.470   8.221 -2.1017 -0.5506 -0.3062
 4979TIP3   OH236495   4.349   4.371   7.518  0.3712 -0.1755 -0.1290
 4979TIP3    H136496   4.306   4.409   7.441  2.4317  1.7045 -0.4419
 4979TIP3    H236497   4.305   4.287   7.530 -0.2674 -0.4072 -3.1448
 4980TIP3   OH236498   5.989   3.100   6.432  0.0218  0.0899  0.2332
 4980TIP3    H136499   6.058   3.100   6.367  0.6004 -2.3399  0.7623
 4980TIP3    H236500   5.914   3.141   6.388  1.1028  0.7060 -1.0916
 4981TIP3   OH236501   0.213   5.039   1.162 -0.2492 -0.2243  0.2059
 4981TIP3    H136502   0.236   5.131   1.150  1.8282 -0.8785 -1.2928
 4981TIP3    H236503   0.130   5.029   1.115 -2.5899  1.5869  3.4829
 4982TIP3   OH236504   5.873   3.045   0.731  0.1077 -0.6558  0.8121
 4982TIP3    H136505   5.924   3.069   0.808 -0.0108 -2.0808  1.3711
 4982TIP3    H236506   5.817   3.121   0.714  1.6272  0.5073  0.8309
 4983TIP3   OH236507   3.154   6.471   0.006 -0.5544 -0.0694 -0.0873
 4983TIP3    H136508   3.217   6.531   0.046 -0.2104  0.3350 -1.1940
 4983TIP3    H236509   3.114   6.425   0.080  1.1769 -0.4857  0.6412
 4984TIP3   OH236510   3.843   3.706   0.473  0.4273  1.2934 -0.1945
 4984TIP3    H136511   3.930   3.692   0.511 -0.2886  0.5401  1.2450
 4984TIP3    H236512   3.810   3.785   0.517 -0.0224  0.9758  0.0517
 4985TIP3   OH236513   2.660   4.615   1.780  0.1145  0.3700 -0.1800
 4985TIP3    H136514   2.745   4.582   1.752 -0.4999 -0.2948 -1.3076
 4985TIP3    H236515   2.637   4.681   1.715  0.5496  1.8855  1.1124
 4986TIP3   OH236516   4.233   5.418   0.041  0.1224  0.1307 -0.1257
 4986TIP3    H136517   4.304   5.353   0.040  1.0936  1.0642  1.7960
 4986TIP3    H236518   4.261   5.484  -0.023  1.6392  1.0542  1.3989
 4987TIP3   OH236519   1.846   2.917   0.236  0.1628 -0.1705  0.3102
 4987TIP3    H136520   1.805   2.865   0.305 -0.4960 -0.9620 -0.6463
 4987TIP3    H236521   1.797   2.999   0.235 -1.0243 -0.8543 -0.3841
 4988TIP3   OH236522   3.497   0.582   8.202  0.2494 -0.4303 -0.3820
 4988TIP3    H136523   3.415   0.630   8.212  1.2196  1.7300 -1.9716
 4988TIP3    H236524   3.527   0.567   8.292 -1.1313  0.0733  0.1875
 4989TIP3   OH236525   5.370   6.517   7.083  0.2696 -0.1274 -0.0942
 4989TIP3    H136526   5.295   6.524   7.025 -0.0455  0.3806  0.3670
 4989TIP3    H236527   5.335   6.534   7.170  0.4799 -2.1527  0.4457
 4990TIP3   OH236528   2.787   4.319   1.560 -0.1246  0.6559 -0.2613
 4990TIP3    H136529   2.854   4.264   1.601  0.8328  2.3079  0.4691
 4990TIP3    H236530   2.723   4.333   1.629  0.3780  1.6311  0.0246
 4991TIP3   OH236531   2.520   6.149   8.611  0.2089 -0.8247  0.1547
 4991TIP3    H136532   2.575   6.088   8.560  0.9933  0.2641 -0.3343
 4991TIP3    H236533   2.556   6.235   8.592 -1.3390 -0.1257  0.2743
 4992TIP3   OH236534   1.886   2.193   8.082 -0.8170 -0.0566 -0.0778
 4992TIP3    H136535   1.897   2.250   8.158 -1.6365  0.1746 -0.1317
 4992TIP3    H236536   1.810   2.139   8.102 -0.9801 -0.0593 -0.6939
 4993TIP3   OH236537   3.113   3.022   6.756  0.6703  0.3523  0.0513
 4993TIP3    H136538   3.107   3.103   6.704  0.2897  0.2764 -0.0294
 4993TIP3    H236539   3.161   2.961   6.701  1.2291  0.6213  0.2364
 4994TIP3   OH236540   0.822   3.235   0.043  0.2123  0.7822 -0.1359
 4994TIP3    H136541   0.900   3.243  -0.011 -0.1973 -0.3813 -0.9393
 4994TIP3    H236542   0.750   3.262  -0.013 -0.2706 -0.8703 -0.3739
 4995TIP3   OH236543   5.905   0.452   0.970 -0.1262  0.6408 -0.1230
 4995TIP3    H136544   5.928   0.376   1.024  0.5048  0.0025 -1.2669
 4995TIP3    H236545   5.983   0.469   0.918 -0.3751  1.8857 -0.1138
 4996TIP3   OH236546   2.643   3.887   1.361  0.2392 -0.5072  0.8901
 4996TIP3    H136547   2.671   3.977   1.343  0.1994 -0.7932 -0.7052
 4996TIP3    H236548   2.712   3.833   1.323  0.0916 -1.1628  1.5396
 4997TIP3   OH236549   2.572   5.002   8.698 -0.3284 -0.2056  0.6640
 4997TIP3    H136550   2.648   5.050   8.667 -0.7077 -0.4876 -0.7645
 4997TIP3    H236551   2.562   5.029   8.789  1.3253  0.0164  0.8119
 4998TIP3   OH236552   3.885   3.900   2.561 -0.0278  0.4292 -0.4534
 4998TIP3    H136553   3.901   3.979   2.613 -0.2671  1.3545 -1.7428
 4998TIP3    H236554   3.796   3.873   2.584  0.3076  0.1107  0.5139
 4999TIP3   OH236555   2.306   1.520   7.111  0.5436 -0.2357 -0.4089
 4999TIP3    H136556   2.378   1.551   7.057 -0.1203 -0.7175 -1.6096
 4999TIP3    H236557   2.278   1.438   7.070  0.1802 -0.7636  0.8253
 5000TIP3   OH236558   4.712   5.983   7.292  0.1940 -0.5937  0.2317
 5000TIP3    H136559   4.743   5.969   7.202 -0.0005 -3.5772  0.5368
 5000TIP3    H236560   4.784   6.030   7.335  1.1751 -0.9578 -0.9384
 5001TIP3   OH236561   0.388   0.403   8.478 -0.0371  0.5958  0.1870
 5001TIP3    H136562   0.339   0.474   8.436  0.4689  1.6186  1.2474
 5001TIP3    H236563   0.324   0.357   8.532 -0.6334 -0.5629 -1.4349
 5002TIP3   OH236564   0.013   0.184   8.074  1.1264 -0.0752  0.0900
 5002TIP3    H136565   0.041   0.123   8.006 -3.7883 -2.8918  0.1463
 5002TIP3    H236566  -0.030   0.255   8.026  1.5239  0.2636  0.2219
 5003TIP3   OH236567   1.837   4.088   8.110  0.0741  0.4725  0.3394
 5003TIP3    H136568   1.807   4.108   8.022 -0.7481  1.4996  0.8294
 5003TIP3    H236569   1.918   4.039   8.097 -1.0912 -1.1994 -0.9986
 5004TIP3   OH236570   5.814   1.364   6.923  0.0473  0.2904 -0.4710
 5004TIP3    H136571   5.767   1.302   6.979  0.6151 -1.0648 -1.4374
 5004TIP3    H236572   5.755   1.440   6.916 -0.4212  0.1081  1.1840
 5005TIP3   OH236573   2.415   3.976   6.608  0.3383  0.2919  0.6685
 5005TIP3    H136574   2.369   4.030   6.672 -2.2214 -1.0575  0.0700
 5005TIP3    H236575   2.380   3.888   6.620  1.3281 -0.4055 -1.1715
 5006TIP3   OH236576   3.228   2.397   8.465  0.7153  0.2671 -0.1391
 5006TIP3    H136577   3.170   2.466   8.432  0.2947  0.3213  0.6914
 5006TIP3    H236578   3.312   2.414   8.422  0.2966  0.5885 -0.8401
 5007TIP3   OH236579   2.325   4.144   0.338  0.2590 -0.7876 -0.1688
 5007TIP3    H136580   2.238   4.147   0.297 -0.1784  1.2392  0.7807
 5007TIP3    H236581   2.378   4.205   0.286  0.6620 -0.8162  0.2036
 5008TIP3   OH236582   5.381   3.013   0.729 -0.4416  0.0699  0.0238
 5008TIP3    H136583   5.446   2.984   0.792  1.0948  0.7424 -1.1858
 5008TIP3    H236584   5.307   3.042   0.782  0.4620 -0.1540  1.4674
 5009TIP3   OH236585   2.841   2.195   7.326 -0.0915  0.3335  0.1745
 5009TIP3    H136586   2.899   2.119   7.336  1.2662  1.2696 -0.3193
 5009TIP3    H236587   2.800   2.205   7.412  1.0509  0.0816  0.7703
 5010TIP3   OH236588   2.968   5.182   0.753 -0.6516 -0.2639  0.1156
 5010TIP3    H136589   2.967   5.197   0.847 -0.8483 -1.6322  0.3596
 5010TIP3    H236590   3.033   5.113   0.740  1.7231  2.0345 -1.1558
 5011TIP3   OH236591   4.725   5.751   7.817 -0.6565  0.1394 -0.1867
 5011TIP3    H136592   4.668   5.715   7.749 -2.9621  1.9034  0.6595
 5011TIP3    H236593   4.727   5.684   7.885 -3.8046  0.8685  0.8008
 5012TIP3   OH236594   0.369   6.093   0.351 -0.2533  0.1372 -0.0056
 5012TIP3    H136595   0.297   6.066   0.293 -1.5248  1.9801  0.6600
 5012TIP3    H236596   0.330   6.096   0.438  0.7881  0.6162  0.4573
 5013TIP3   OH236597   5.263   2.812   0.078  0.3453 -0.2014 -0.0776
 5013TIP3    H136598   5.176   2.786   0.107  0.3388  1.1446  1.2391
 5013TIP3    H236599   5.323   2.765   0.135  0.4050  0.4138  0.3821
 5014TIP3   OH236600   5.368   2.868   0.526 -0.1032 -0.1119  0.6942
 5014TIP3    H136601   5.276   2.849   0.504 -0.2113 -0.1649  1.1866
 5014TIP3    H236602   5.363   2.924   0.603  0.1639  2.7220 -1.1954
 5015TIP3   OH236603   4.869   6.002   1.769  0.1068 -0.2969 -0.3172
 5015TIP3    H136604   4.899   5.913   1.749  2.8856  0.3655  0.4904
 5015TIP3    H236605   4.848   6.000   1.862  1.2574  0.1310 -0.0357
 5016TIP3   OH236606   5.636   4.646   8.640  0.1716  0.6425 -0.0885
 5016TIP3    H136607   5.626   4.571   8.582 -0.1418  0.4212  0.2430
 5016TIP3    H236608   5.729   4.648   8.661 -0.0938 -0.8472  1.4578
 5017TIP3   OH236609   5.005   3.188   1.647 -0.4604  0.1302  0.2206
 5017TIP3    H136610   4.927   3.203   1.700  0.7313  1.1663  1.7746
 5017TIP3    H236611   4.980   3.214   1.559 -1.7373  0.8576  0.7734
 5018TIP3   OH236612   4.641   2.007   8.570  0.4175 -0.0168  0.1933
 5018TIP3    H136613   4.550   2.005   8.600  0.5352 -0.4118  0.5330
 5018TIP3    H236614   4.692   1.999   8.650  0.7516  0.0357 -0.0157
 5019TIP3   OH236615   0.445   5.343   1.378  0.0119  0.2215  0.0656
 5019TIP3    H136616   0.444   5.304   1.466  0.8199 -1.1042 -0.4755
 5019TIP3    H236617   0.505   5.287   1.328  1.5443  2.4122 -0.6839
 5020TIP3   OH236618   1.852   3.206   7.385  0.3911 -0.3167  0.1254
 5020TIP3    H136619   1.839   3.199   7.480 -0.0080  1.5102  0.2603
 5020TIP3    H236620   1.924   3.146   7.366  0.9066 -0.2571  1.6905
 5021TIP3   OH236621   1.043   6.484   7.692  0.3190 -0.3377  0.2523
 5021TIP3    H136622   1.007   6.527   7.769  1.0264  0.5605  0.0996
 5021TIP3    H236623   0.967   6.453   7.644 -0.4160  2.6870 -0.7543
 5022TIP3   OH236624   2.722   2.276   7.560  0.0289  0.4076 -0.4270
 5022TIP3    H136625   2.816   2.290   7.573  0.0470  0.0375 -0.1460
 5022TIP3    H236626   2.680   2.344   7.614  0.1193 -0.5368  0.8932
 5023TIP3   OH236627   5.257   0.035   7.237  0.5647 -0.2209 -0.4175
 5023TIP3    H136628   5.311  -0.033   7.278  0.4528 -0.5815 -0.8564
 5023TIP3    H236629   5.192  -0.014   7.187 -0.0870  0.2091 -0.0091
 5024TIP3   OH236630   2.774   0.502   8.181  0.6168 -0.1336  0.1442
 5024TIP3    H136631   2.745   0.592   8.195 -0.0154 -0.0862 -1.2711
 5024TIP3    H236632   2.704   0.448   8.217  0.2787 -0.0345 -0.3495
 5025TIP3   OH236633   4.286   5.964   0.400 -0.5655  0.5830 -0.8454
 5025TIP3    H136634   4.363   5.939   0.451 -1.2037 -0.6500 -0.4426
 5025TIP3    H236635   4.292   6.060   0.393  0.6466  0.5699 -0.2727
 5026TIP3   OH236636   2.720   3.267   8.039 -0.1549 -0.4603  0.0811
 5026TIP3    H136637   2.722   3.208   8.114 -0.3108 -0.3792  0.1487
 5026TIP3    H236638   2.640   3.318   8.050 -0.1500 -0.4099 -0.1104
 5027TIP3   OH236639   4.435   2.272   1.863 -0.2198 -0.6305  0.0438
 5027TIP3    H136640   4.449   2.330   1.938  0.3377  0.6633 -1.0230
 5027TIP3    H236641   4.354   2.226   1.882 -0.4057  0.1342  1.1490
 5028TIP3   OH236642   5.194   6.280   8.607 -0.3046  0.2857  0.1442
 5028TIP3    H136643   5.171   6.309   8.695 -1.4875  0.8712 -0.3494
 5028TIP3    H236644   5.238   6.355   8.567  1.3713 -0.3770  0.6111
 5029TIP3   OH236645   1.816   6.258   6.497 -0.6270 -0.8160 -0.2176
 5029TIP3    H136646   1.820   6.239   6.403 -0.8285  1.1103 -0.6644
 5029TIP3    H236647   1.728   6.231   6.523 -1.5686  1.0879 -1.2277
 5030TIP3   OH236648   5.825   5.093   7.243  0.6291 -0.1582  0.4191
 5030TIP3    H136649   5.880   5.025   7.281  2.1571 -0.5112 -2.1950
 5030TIP3    H236650   5.873   5.174   7.258 -0.5352  0.2575  2.3138
 5031TIP3   OH236651   3.249   0.548   1.084  0.0515 -0.1681  0.0216
 5031TIP3    H136652   3.265   0.457   1.109 -1.4328 -0.1415  1.1704
 5031TIP3    H236653   3.328   0.594   1.112  1.3258 -1.2233 -1.5808
 5032TIP3   OH236654   0.360   1.909   7.545  0.2505 -0.2736 -0.5538
 5032TIP3    H136655   0.408   1.827   7.554 -0.3046 -0.5971 -0.4909
 5032TIP3    H236656   0.408   1.958   7.478  0.6493 -0.5988 -0.5092
 5033TIP3   OH236657   5.605   6.014   8.591  0.3094 -0.0933  0.9701
 5033TIP3    H136658   5.530   6.057   8.551  1.3958 -1.0267 -2.3459
 5033TIP3    H236659   5.572   5.929   8.619  0.0698 -0.4785 -0.4179
 5034TIP3   OH236660   6.530   6.150   1.886  0.0914 -0.2615  0.1186
 5034TIP3    H136661   6.468   6.188   1.823  0.3090 -0.0298  0.0440
 5034TIP3    H236662   6.616   6.179   1.856  0.0587  1.9017  1.9153
 5035TIP3   OH236663   1.284   5.347   0.700  0.6423  0.0518  0.3234
 5035TIP3    H136664   1.332   5.375   0.622 -0.2860  0.0550 -0.2648
 5035TIP3    H236665   1.322   5.261   0.722  0.2682 -0.3978 -0.7210
 5036TIP3   OH236666   4.934   1.287   8.419  0.1429  0.1485  0.1910
 5036TIP3    H136667   4.974   1.201   8.435 -1.3332 -0.6198 -0.1084
 5036TIP3    H236668   4.889   1.308   8.501 -0.3465  0.1578 -0.0779
 5037TIP3   OH236669   6.073   3.933   6.151  0.2031  0.6067 -0.1845
 5037TIP3    H136670   6.074   4.028   6.160 -0.8933  0.4885  1.9592
 5037TIP3    H236671   5.994   3.914   6.101 -0.4636  0.7693  0.7901
 5038TIP3   OH236672   2.167   0.238   7.712  0.8268  0.2219  0.4496
 5038TIP3    H136673   2.161   0.314   7.770 -0.2179  0.8798 -0.4839
 5038TIP3    H236674   2.259   0.232   7.690  1.4335 -0.6054  2.8751
 5039TIP3   OH236675   2.828   6.199   1.470 -0.4210  0.2018  0.0606
 5039TIP3    H136676   2.842   6.184   1.563  2.5252 -0.5642 -0.4045
 5039TIP3    H236677   2.770   6.128   1.442  1.2695 -1.5293  0.7561
 5040TIP3   OH236678   3.641   6.209   0.341  0.3637  0.4987 -0.6500
 5040TIP3    H136679   3.732   6.203   0.311  0.0914 -0.2626 -1.3348
 5040TIP3    H236680   3.630   6.302   0.363  1.4837  0.4880  0.0251
 5041TIP3   OH236681   4.864   1.312   8.670 -0.3443  0.0949 -0.3188
 5041TIP3    H136682   4.856   1.324   8.765  0.1325 -2.1774  0.0859
 5041TIP3    H236683   4.939   1.253   8.660  0.5602  1.4782 -2.2352
 5042TIP3   OH236684   5.982   1.528   5.945  0.1850  1.1096  0.2551
 5042TIP3    H136685   6.021   1.448   5.981  0.3410  1.0957  0.0587
 5042TIP3    H236686   5.907   1.498   5.895  0.3150  1.0739  0.0806
 5043TIP3   OH236687   4.463   3.259   8.482 -0.2810  0.3023 -0.2416
 5043TIP3    H136688   4.484   3.241   8.574 -2.6491 -1.5057  0.0489
 5043TIP3    H236689   4.410   3.338   8.485  0.3337  0.7208 -0.1717
 5044TIP3   OH236690   0.973   0.637   7.583 -0.5746  0.3623 -0.5074
 5044TIP3    H136691   1.014   0.553   7.565 -0.9551  0.3050 -1.1424
 5044TIP3    H236692   0.965   0.679   7.497 -1.0719  0.7213 -0.2899
 5045TIP3   OH236693   2.172   4.032   6.327 -0.1590  0.0437  0.1855
 5045TIP3    H136694   2.171   4.029   6.422 -1.3537 -0.8990  0.1696
 5045TIP3    H236695   2.091   3.987   6.300  1.3036 -1.9307 -1.3019
 5046TIP3   OH236696   4.860   2.438   7.994 -0.3357 -0.4689  0.4602
 5046TIP3    H136697   4.915   2.428   8.072  0.5590  3.6608  0.5941
 5046TIP3    H236698   4.797   2.506   8.018 -1.7063 -0.9173 -1.6185
 5047TIP3   OH236699   3.065   0.574   7.680 -0.6432 -0.2962 -0.6621
 5047TIP3    H136700   3.028   0.658   7.706  1.2075 -0.2196  2.2095
 5047TIP3    H236701   3.023   0.510   7.739  0.7240 -0.7777 -0.1699
 5048TIP3   OH236702   3.543   2.806   0.919 -0.1942  0.1636  0.6240
 5048TIP3    H136703   3.547   2.890   0.873 -0.7904 -0.6133 -0.8898
 5048TIP3    H236704   3.521   2.830   1.009 -1.2343  1.6011  0.0318
 5049TIP3   OH236705   4.930   6.048   0.283  0.0387 -0.1511 -0.5367
 5049TIP3    H136706   5.016   6.049   0.241 -0.1742  0.9160 -0.9843
 5049TIP3    H236707   4.878   5.988   0.230  0.3556 -0.3820 -0.5862
 5050TIP3   OH236708   6.070   3.357   1.448  0.5068 -0.3762  0.4272
 5050TIP3    H136709   6.158   3.385   1.424  0.5655 -1.2305 -0.3721
 5050TIP3    H236710   6.036   3.314   1.370 -0.2820 -0.8609  1.0243
 5051TIP3   OH236711   6.167   3.011   7.818 -0.3844  0.0787  0.6707
 5051TIP3    H136712   6.134   3.089   7.773  1.8175  0.9195  0.4071
 5051TIP3    H236713   6.215   3.045   7.893  0.2941 -1.0591  0.7687
 5052TIP3   OH236714   4.141   1.558   0.879 -0.1617  0.8403  0.1441
 5052TIP3    H136715   4.098   1.535   0.961  0.3663  3.7560  1.3694
 5052TIP3    H236716   4.167   1.474   0.840 -1.8607 -0.6951  2.1209
 5053TIP3   OH236717   1.652   4.663   7.558 -0.0130  0.1352 -0.1347
 5053TIP3    H136718   1.695   4.748   7.565  0.6475 -0.0874 -1.3019
 5053TIP3    H236719   1.589   4.673   7.487 -1.5857  0.3029  1.2186
 5054TIP3   OH236720   5.519   3.283   0.743  0.5323  0.2498 -0.4391
 5054TIP3    H136721   5.606   3.290   0.704  0.2178  3.2259 -0.8493
 5054TIP3    H236722   5.477   3.212   0.694  1.7922  0.6870 -2.2718
 5055TIP3   OH236723   5.208   0.264   1.155  0.6884 -1.1643  0.8200
 5055TIP3    H136724   5.242   0.352   1.136 -1.1709 -0.7943 -1.2266
 5055TIP3    H236725   5.158   0.275   1.236 -0.9802  0.1518 -0.3091
 5056TIP3   OH236726   5.493   2.102   0.476 -0.1923 -0.1724 -0.1408
 5056TIP3    H136727   5.416   2.131   0.526  0.5770  1.9587 -0.0959
 5056TIP3    H236728   5.462   2.026   0.427 -2.8278  1.5193 -1.3318
 5057TIP3   OH236729   4.110   3.324   1.900 -0.0944 -0.1363  0.2516
 5057TIP3    H136730   4.039   3.377   1.936 -1.3869 -1.2091 -0.6055
 5057TIP3    H236731   4.093   3.235   1.932  0.9761 -0.3782  0.1913
 5058TIP3   OH236732   5.215   0.219   1.988  0.3409  0.0706  0.7089
 5058TIP3    H136733   5.308   0.197   1.997  0.7770  0.5819 -1.8106
 5058TIP3    H236734   5.194   0.266   2.069  1.6530 -1.8997  2.3207
 5059TIP3   OH236735   1.387   3.723   6.790  0.1683  0.6219 -0.3251
 5059TIP3    H136736   1.352   3.812   6.793 -0.2799  0.4324  1.4072
 5059TIP3    H236737   1.423   3.714   6.702 -0.9878  2.0442 -0.9880
 5060TIP3   OH236738   1.107   4.920   0.414  0.5764 -0.0551  0.2123
 5060TIP3    H136739   1.068   4.927   0.327  0.0067 -1.3298  0.3541
 5060TIP3    H236740   1.053   4.977   0.469 -0.3199 -0.8277  0.1436
 5061TIP3   OH236741   4.861   4.971   0.131 -0.6144  0.0595  0.1205
 5061TIP3    H136742   4.797   4.930   0.072 -1.0396  0.0441  0.5868
 5061TIP3    H236743   4.818   5.051   0.162 -0.8201 -0.4457  1.2050
 5062TIP3   OH236744   1.322   4.910   7.238  0.0220 -1.0552  0.2109
 5062TIP3    H136745   1.347   4.841   7.177  0.5768 -1.6392  1.0760
 5062TIP3    H236746   1.355   4.880   7.323  1.4203  0.8796  0.4141
 5063TIP3   OH236747   4.226   4.486   1.795  0.2646  0.3483 -0.2552
 5063TIP3    H136748   4.313   4.517   1.820  0.7511 -1.8394  1.0347
 5063TIP3    H236749   4.176   4.486   1.876 -1.0567  1.7997 -1.0282
 5064TIP3   OH236750   1.599   3.858   6.601 -0.0563 -0.5027 -0.3046
 5064TIP3    H136751   1.654   3.899   6.534  0.9192 -0.4106  0.5233
 5064TIP3    H236752   1.647   3.779   6.627 -1.4597 -1.7041 -1.2109
 5065TIP3   OH236753   1.984   1.820   8.343  0.0067 -0.0127  0.3714
 5065TIP3    H136754   2.004   1.756   8.275  2.1629 -0.3881  1.2831
 5065TIP3    H236755   1.965   1.767   8.421  1.0770  0.4229  0.9426
 5066TIP3   OH236756   6.083   0.351   8.585 -0.3470 -0.5461 -0.4520
 5066TIP3    H136757   6.021   0.414   8.548 -0.1559 -0.4198 -0.5564
 5066TIP3    H236758   6.063   0.350   8.679  0.8365  1.0257 -0.1466
 5067TIP3   OH236759   4.634   4.187   1.445  0.0928  0.3246 -0.0551
 5067TIP3    H136760   4.632   4.218   1.536  2.8713 -1.0767  0.6070
 5067TIP3    H236761   4.678   4.256   1.397 -0.5241  0.6534 -0.1540
 5068TIP3   OH236762   2.546   6.683   0.089 -0.7595  0.2807  0.7985
 5068TIP3    H136763   2.525   6.602   0.134  1.0273 -0.3421  0.6017
 5068TIP3    H236764   2.501   6.676   0.005  0.9058 -1.4473 -0.0168
 5069TIP3   OH236765   5.357   3.520   0.192 -0.0974 -0.5676  0.0401
 5069TIP3    H136766   5.401   3.602   0.174  2.0306 -1.9737 -1.7227
 5069TIP3    H236767   5.265   3.537   0.173  0.1755  1.5661  0.4579
 5070TIP3   OH236768   5.472   1.319   6.683  0.2710  0.5287  0.5288
 5070TIP3    H136769   5.454   1.390   6.620  0.5430 -0.1059 -0.2758
 5070TIP3    H236770   5.392   1.267   6.684  0.8030 -0.3440 -0.4762
 5071TIP3   OH236771   1.104   5.928   0.134  0.4925  0.2942  0.7046
 5071TIP3    H136772   1.082   5.902   0.224 -0.0540  1.1507  0.8293
 5071TIP3    H236773   1.130   6.020   0.141  1.6617  0.0291  0.1579
 5072TIP3   OH236774   2.901   6.704   1.809 -0.1441  0.0396 -0.3672
 5072TIP3    H136775   2.831   6.710   1.874  0.5450  1.8927  0.2558
 5072TIP3    H236776   2.857   6.712   1.724 -0.9217 -1.2248 -0.1096
 5073TIP3   OH236777   0.504   3.913   6.751  0.3914 -0.1364  0.2008
 5073TIP3    H136778   0.571   3.979   6.734 -0.8300  0.9772 -0.4167
 5073TIP3    H236779   0.421   3.959   6.743 -0.5011 -1.6994 -0.0693
 5074TIP3   OH236780   1.800   1.715   7.987 -0.1190  1.0955 -0.6632
 5074TIP3    H136781   1.863   1.784   8.005  2.0931 -0.9125 -0.3070
 5074TIP3    H236782   1.843   1.658   7.923 -0.2014 -1.9696  1.7449
 5075TIP3   OH236783   2.750   0.380   1.703 -0.3954 -0.3404 -0.6538
 5075TIP3    H136784   2.703   0.420   1.777  0.6742  0.9461 -0.6431
 5075TIP3    H236785   2.834   0.354   1.740  0.1376  0.2985 -1.4015
 5076TIP3   OH236786   1.677   1.753   0.983 -0.1574  0.1425 -0.4313
 5076TIP3    H136787   1.638   1.679   1.030  1.3424  0.7251  1.8702
 5076TIP3    H236788   1.656   1.829   1.036 -0.3703  1.2005 -1.9696
 5077TIP3   OH236789   5.495   3.845   6.601  0.4954 -0.1713 -0.0345
 5077TIP3    H136790   5.589   3.828   6.589  0.4856 -0.1141 -0.1939
 5077TIP3    H236791   5.453   3.803   6.526  0.5129  0.9524 -0.6908
 5078TIP3   OH236792   2.703   4.391   7.517 -0.1478 -0.2105 -0.0982
 5078TIP3    H136793   2.627   4.357   7.471 -0.0675  1.1346 -1.2831
 5078TIP3    H236794   2.758   4.428   7.448 -0.5846  2.9798  1.0902
 5079TIP3   OH236795   5.674   1.346   0.361  0.5884 -0.1940 -0.0700
 5079TIP3    H136796   5.748   1.404   0.379  0.9499 -0.8521  0.6221
 5079TIP3    H236797   5.705   1.288   0.291 -0.1803  1.1711 -1.6165
 5080TIP3   OH236798   3.311   2.124   8.011 -0.2871  0.0542  0.4657
 5080TIP3    H136799   3.306   2.033   7.982 -0.9292  0.2430 -0.0541
 5080TIP3    H236800   3.401   2.135   8.040  0.5353 -0.0603 -1.8662
 5081TIP3   OH236801   2.310   6.181   6.761  0.0563 -0.0191  0.4387
 5081TIP3    H136802   2.255   6.103   6.771 -0.1111 -0.1768 -1.3566
 5081TIP3    H236803   2.249   6.250   6.736  0.4526  0.2058  0.0705
 5082TIP3   OH236804   4.456   0.742   0.206 -0.0083  0.1436  0.6034
 5082TIP3    H136805   4.396   0.667   0.208  0.4021 -0.2207 -0.2781
 5082TIP3    H236806   4.515   0.728   0.280  0.2362 -0.5520  0.2862
 5083TIP3   OH236807   0.343   2.567   1.012 -0.1429 -0.3100 -0.0501
 5083TIP3    H136808   0.357   2.488   1.063 -1.4263 -1.1461 -0.9497
 5083TIP3    H236809   0.275   2.544   0.949  0.7036  0.9836 -1.4993
 5084TIP3   OH236810   4.773   4.761   6.290  0.0283  0.0719  0.4198
 5084TIP3    H136811   4.679   4.742   6.279 -0.1080  0.5760  0.6856
 5084TIP3    H236812   4.809   4.679   6.324 -0.5634  0.2723  1.5936
 5085TIP3   OH236813   2.823   5.995   8.675  0.0057  0.5811 -0.3834
 5085TIP3    H136814   2.897   5.947   8.637  1.1023  1.0109  1.1458
 5085TIP3    H236815   2.816   6.074   8.620  2.4178  1.8545  0.9417
 5086TIP3   OH236816   1.049   0.081   0.859 -0.5361  0.0686 -0.4114
 5086TIP3    H136817   0.978   0.127   0.813  0.5901 -0.0105 -2.3051
 5086TIP3    H236818   1.055  -0.003   0.816  0.3833 -0.1278  0.0901
 5087TIP3   OH236819   3.087   3.298   1.427  0.3243 -0.1290 -0.0332
 5087TIP3    H136820   3.006   3.304   1.478 -0.9388  1.6069 -2.0902
 5087TIP3    H236821   3.156   3.320   1.490 -0.8835 -0.6007  1.5267
 5088TIP3   OH236822   5.367   5.602   1.792 -0.0532  0.1796  0.2971
 5088TIP3    H136823   5.402   5.550   1.720  2.4403  2.1873 -0.0815
 5088TIP3    H236824   5.428   5.586   1.864 -1.6327 -0.5903  1.5218
 5089TIP3   OH236825   3.029   1.664   6.912  0.3781 -0.2867 -0.1713
 5089TIP3    H136826   2.939   1.666   6.878  0.0728  0.9607  0.6231
 5089TIP3    H236827   3.055   1.572   6.907 -1.9437 -1.1933  2.0477
 5090TIP3   OH236828   4.051   6.172   7.990  0.1501 -0.1611  0.6193
 5090TIP3    H136829   4.142   6.159   8.017  0.6343 -0.3350 -1.0144
 5090TIP3    H236830   4.009   6.088   8.007  0.7900 -0.7123 -0.4292
 5091TIP3   OH236831   2.463   5.962   1.442 -0.4129  0.4050 -0.6270
 5091TIP3    H136832   2.489   5.879   1.483 -0.2287  0.4197 -0.7123
 5091TIP3    H236833   2.482   5.949   1.349 -0.9188  0.3336 -0.7275
 5092TIP3   OH236834   1.394   1.823   7.357  0.0454 -0.0845 -0.2246
 5092TIP3    H136835   1.489   1.830   7.372 -0.2729  0.7880  1.7549
 5092TIP3    H236836   1.363   1.770   7.431 -1.3015  1.7125  0.5545
 5093TIP3   OH236837   4.744   1.952   0.858 -0.1006  0.9493 -0.1609
 5093TIP3    H136838   4.684   2.027   0.863 -0.0119  0.9849  0.4979
 5093TIP3    H236839   4.810   1.970   0.925  0.8479  1.0828 -1.1135
 5094TIP3   OH236840   3.824   0.287   7.585  0.2965 -0.0943  0.1119
 5094TIP3    H136841   3.741   0.319   7.550 -0.8940  0.0326  2.8293
 5094TIP3    H236842   3.800   0.214   7.642  1.7958  0.9974  2.2920
 5095TIP3   OH236843   2.829   0.455   7.817 -0.5624 -0.2827  0.2424
 5095TIP3    H136844   2.787   0.446   7.903 -0.9707  0.3207  0.1172
 5095TIP3    H236845   2.796   0.539   7.784 -0.3189 -0.4610 -0.4549
 5096TIP3   OH236846   0.575   0.572   8.692 -0.3428 -0.0125 -0.2650
 5096TIP3    H136847   0.482   0.571   8.712 -0.5550  0.7900 -1.1959
 5096TIP3    H236848   0.602   0.480   8.700 -0.8808 -0.0659  1.4207
 5097TIP3   OH236849   5.702   2.489   0.131  0.1585  0.2606 -0.2227
 5097TIP3    H136850   5.695   2.585   0.125 -1.4927  0.1110 -1.6453
 5097TIP3    H236851   5.782   2.469   0.083  0.4700  0.9285 -0.0010
 5098TIP3   OH236852   5.763   1.104   0.536 -0.9335 -0.4478  0.2442
 5098TIP3    H136853   5.686   1.155   0.511  0.2770  1.5304  0.2868
 5098TIP3    H236854   5.751   1.086   0.629 -1.5749 -0.5837  0.1366
 5099TIP3   OH236855   4.851   4.929   2.265  0.5117 -0.2442  0.2190
 5099TIP3    H136856   4.835   4.996   2.331  2.5874 -1.6276  2.2865
 5099TIP3    H236857   4.829   4.847   2.309  2.3016 -1.2450 -0.6422
 5100TIP3   OH236858   1.518   5.721   8.707 -0.3762 -0.1846  0.3225
 5100TIP3    H136859   1.514   5.654   8.638  1.0837 -1.7170  1.6099
 5100TIP3    H236860   1.539   5.671   8.786  1.6623  1.8785  1.1823
 5101TIP3   OH236861   2.714   2.969   1.893 -0.0521 -0.1603 -0.3127
 5101TIP3    H136862   2.756   2.895   1.850  1.9245  0.0531  1.1373
 5101TIP3    H236863   2.756   3.046   1.856  0.4106  0.0814  0.6693
 5102TIP3   OH236864   0.093   3.970   0.780 -0.0104  0.8223 -0.0752
 5102TIP3    H136865   0.183   3.977   0.813 -0.1212  1.3814  0.1202
 5102TIP3    H236866   0.102   3.944   0.689  0.3724  1.4881 -0.2310
 5103TIP3   OH236867   2.089   6.554   2.017  0.4275 -0.0625 -0.0983
 5103TIP3    H136868   2.159   6.498   1.984  0.4860 -1.0959  1.6612
 5103TIP3    H236869   2.053   6.506   2.092  0.1668  2.0414  1.1976
 5104TIP3   OH236870   2.671   2.810   8.063 -0.1222 -0.0441 -0.7769
 5104TIP3    H136871   2.758   2.837   8.093  0.4664 -0.6011 -1.9615
 5104TIP3    H236872   2.674   2.715   8.062 -0.7251 -0.0670 -0.9113
 5105TIP3   OH236873   4.491   2.037   7.962 -0.1659 -0.3430 -0.7280
 5105TIP3    H136874   4.573   1.995   7.987  1.4283  1.0208 -3.2401
 5105TIP3    H236875   4.450   2.061   8.046  0.8014 -3.0834  0.6540
 5106TIP3   OH236876   6.011   1.535   6.865  0.0587 -0.0179 -0.3728
 5106TIP3    H136877   5.984   1.624   6.886  2.4086  0.2394  2.0466
 5106TIP3    H236878   5.946   1.479   6.907 -1.4069  0.4906 -1.8692
 5107TIP3   OH236879   1.983   1.810   0.845 -0.2732 -0.1904  0.4535
 5107TIP3    H136880   1.901   1.819   0.893 -1.4808  0.8891 -1.6399
 5107TIP3    H236881   2.007   1.718   0.855 -1.0954 -0.2593  2.0656
 5108TIP3   OH236882   0.845   2.482   7.491 -0.2220  0.0591 -0.5484
 5108TIP3    H136883   0.932   2.442   7.482  0.1430  0.3685  1.2806
 5108TIP3    H236884   0.820   2.505   7.402  1.4937 -0.2152 -1.1334
 5109TIP3   OH236885   2.696   5.654   7.295  0.1926  0.1913 -0.0281
 5109TIP3    H136886   2.746   5.646   7.213  0.3103  0.8994 -0.0295
 5109TIP3    H236887   2.751   5.611   7.360  1.2142  1.6613  0.1288
 5110TIP3   OH236888   5.593   4.803   8.386  0.0923  0.1607 -0.6187
 5110TIP3    H136889   5.614   4.710   8.399 -2.8682 -0.6229 -0.8447
 5110TIP3    H236890   5.578   4.836   8.475 -0.8599 -0.1350 -0.6591
 5111TIP3   OH236891   3.281   6.211   6.990  0.3328 -0.3306 -0.3991
 5111TIP3    H136892   3.339   6.261   6.932 -0.6561 -0.0507 -1.1671
 5111TIP3    H236893   3.278   6.262   7.070  1.5901 -0.6370 -0.1321
 5112TIP3   OH236894   4.868   5.826   6.614 -0.1334 -0.2732 -0.3292
 5112TIP3    H136895   4.947   5.860   6.571  0.3800  0.5861  1.1856
 5112TIP3    H236896   4.891   5.737   6.639  0.2236 -0.1504 -0.2154
 5113TIP3   OH236897   0.745   6.779   0.608  0.2370 -0.5565  0.3981
 5113TIP3    H136898   0.677   6.735   0.659  1.4887 -1.3294  1.4490
 5113TIP3    H236899   0.728   6.753   0.518 -2.8843  1.9455  0.0631
 5114TIP3   OH236900   3.518   1.330   7.392  0.1828 -0.2632 -0.2966
 5114TIP3    H136901   3.448   1.351   7.330 -0.0969  0.1785  0.1574
 5114TIP3    H236902   3.599   1.343   7.343 -0.0402 -1.8959 -1.1921
 5115TIP3   OH236903   0.737   3.203   1.173  0.1056  0.3742  0.7719
 5115TIP3    H136904   0.821   3.232   1.137  0.6527 -2.3906 -0.4859
 5115TIP3    H236905   0.671   3.246   1.119  0.8443 -0.1903 -0.6566
 5116TIP3   OH236906   3.041   2.819   1.528  0.1901  0.2900  0.4607
 5116TIP3    H136907   3.078   2.874   1.598 -3.7068  2.4417  1.1483
 5116TIP3    H236908   2.994   2.881   1.472 -0.1561 -1.8685 -1.7910
 5117TIP3   OH236909   3.030   1.742   1.375 -0.5402  0.5156  0.5071
 5117TIP3    H136910   3.006   1.692   1.453  0.1885  0.1250  0.4905
 5117TIP3    H236911   3.093   1.686   1.329  0.7560  1.6695  0.7877
 5118TIP3   OH236912   5.879   0.007   6.907  0.3664 -0.4057  0.3354
 5118TIP3    H136913   5.897  -0.002   7.000  0.0907  1.6412  0.6214
 5118TIP3    H236914   5.964   0.028   6.868  0.5733 -1.7242  0.0188
 5119TIP3   OH236915   0.613   6.508   8.292 -0.2529 -0.0580  0.1095
 5119TIP3    H136916   0.600   6.516   8.197 -0.5228 -0.3996  0.1158
 5119TIP3    H236917   0.669   6.582   8.315  0.8084 -0.6325 -0.5085
 5120TIP3   OH236918   0.731   4.731   7.233  0.0222  0.1266 -0.6859
 5120TIP3    H136919   0.772   4.653   7.198  0.4432  0.2937 -0.5689
 5120TIP3    H236920   0.793   4.764   7.298 -0.9634 -0.4574  0.5819
 5121TIP3   OH236921   6.184   1.996   1.991 -0.3199  0.0006 -0.2083
 5121TIP3    H136922   6.094   2.027   2.001  0.4381  1.9837  1.0819
 5121TIP3    H236923   6.231   2.036   2.064  1.7190 -0.6075 -1.1226
 5122TIP3   OH236924   5.792   3.957   2.655  0.4165  0.3502 -0.1194
 5122TIP3    H136925   5.879   3.953   2.615  0.3233 -0.4282 -0.2580
 5122TIP3    H236926   5.788   4.044   2.695  1.0595  0.5879 -0.5594
 5123TIP3   OH236927   3.188   0.688   6.221  0.1605 -0.1392 -0.0905
 5123TIP3    H136928   3.221   0.603   6.192  1.3637  1.4368 -4.0795
 5123TIP3    H236929   3.261   0.748   6.207 -1.8261  2.1680 -1.2619
 5124TIP3   OH236930   6.252   5.030   2.008 -0.2611  0.2408  0.1230
 5124TIP3    H136931   6.265   5.121   2.032  0.2862 -0.2176  1.7079
 5124TIP3    H236932   6.216   4.989   2.088 -2.3707 -0.5421 -1.1241
 5125TIP3   OH236933   5.492   4.223   6.819  0.1600 -0.0121 -0.2749
 5125TIP3    H136934   5.513   4.253   6.908 -1.1133  0.7804 -0.2216
 5125TIP3    H236935   5.444   4.141   6.831 -0.2166  0.2148 -0.2129
 5126TIP3   OH236936   6.505   0.786   7.156 -0.2438  0.1653 -0.3915
 5126TIP3    H136937   6.499   0.732   7.234 -2.2219 -0.2581 -0.7834
 5126TIP3    H236938   6.459   0.868   7.178 -1.1010 -0.0794 -1.1601
 5127TIP3   OH236939   6.427   6.619   7.358  0.0807  0.8480  0.1409
 5127TIP3    H136940   6.383   6.584   7.436 -0.5875  1.6878  0.1494
 5127TIP3    H236941   6.466   6.542   7.317  1.2983  0.5128  1.8222
 5128TIP3   OH236942   0.814   3.560   0.401  0.0408  0.1398 -0.1446
 5128TIP3    H136943   0.819   3.550   0.306  2.0673 -2.2221  0.1071
 5128TIP3    H236944   0.901   3.590   0.427  0.2037 -1.2437  1.0910
 5129TIP3   OH236945   6.195   0.104   7.200  0.0683  0.1281  0.1870
 5129TIP3    H136946   6.228   0.167   7.264  1.9970 -1.3091  0.7002
 5129TIP3    H236947   6.267   0.043   7.188 -0.5206 -0.1017 -2.8123
 5130TIP3   OH236948   5.801   6.688   0.519 -0.7585  0.0861  0.3723
 5130TIP3    H136949   5.811   6.768   0.570 -0.2604 -0.0539  0.5037
 5130TIP3    H236950   5.840   6.619   0.575  0.4177  0.0404 -0.4691
 5131TIP3   OH236951   4.996   1.924   6.660  0.0064  0.3185  0.3785
 5131TIP3    H136952   4.992   1.841   6.707 -0.0152 -0.0378 -0.2344
 5131TIP3    H236953   5.077   1.965   6.691  0.1770 -0.0750  0.4594
 5132TIP3   OH236954   2.481   6.557   7.633  0.2242 -0.6837 -0.5453
 5132TIP3    H136955   2.558   6.613   7.632  0.3269 -0.8148 -1.8821
 5132TIP3    H236956   2.477   6.520   7.545  0.1959 -2.8150  0.2761
 5133TIP3   OH236957   1.197   5.773   1.328  0.3613  0.1181  0.2622
 5133TIP3    H136958   1.240   5.688   1.321 -0.6016 -0.4187  0.6214
 5133TIP3    H236959   1.179   5.798   1.237 -0.5719 -0.7282  0.1878
 5134TIP3   OH236960   2.642   1.442   0.876  0.3735 -0.2955 -0.0567
 5134TIP3    H136961   2.562   1.495   0.878 -0.1049 -0.9953 -0.4874
 5134TIP3    H236962   2.640   1.392   0.957 -0.7403 -1.9067 -1.0192
 5135TIP3   OH236963   4.160   4.294   8.149  0.3658 -0.1621 -0.7155
 5135TIP3    H136964   4.242   4.244   8.151  1.7339  1.9703 -0.7253
 5135TIP3    H236965   4.094   4.231   8.119  1.7141 -2.2934  0.5662
 5136TIP3   OH236966   2.584   1.141   0.074  0.0688  0.0219 -0.1611
 5136TIP3    H136967   2.549   1.192   0.147  0.8069  0.8140 -0.3487
 5136TIP3    H236968   2.581   1.200  -0.001 -0.5273 -0.7308 -0.7441
 5137TIP3   OH236969   5.371   2.072   1.516 -0.3221  0.1941  0.4335
 5137TIP3    H136970   5.410   2.041   1.598 -1.3494 -0.4741  0.7002
 5137TIP3    H236971   5.337   1.993   1.474  2.0386  0.2189 -1.7182
 5138TIP3   OH236972   6.389   2.916   8.451 -0.4643  0.7529 -0.4396
 5138TIP3    H136973   6.425   2.982   8.511  0.4342  0.6208 -0.8281
 5138TIP3    H236974   6.298   2.944   8.437 -0.2461  1.6109 -0.1910
 5139TIP3   OH236975   1.832   3.033   1.233 -0.2046  0.5056 -0.1157
 5139TIP3    H136976   1.766   3.058   1.298 -0.3454 -1.8519  0.7485
 5139TIP3    H236977   1.784   2.976   1.172  0.1617  1.9120 -1.7715
 5140TIP3   OH236978   4.786   2.209   6.419  0.7161 -0.4532 -0.3823
 5140TIP3    H136979   4.785   2.295   6.461  0.6693 -0.4835 -0.3211
 5140TIP3    H236980   4.705   2.206   6.368  0.8426 -0.3606 -0.5893
 5141TIP3   OH236981   6.509   2.986   1.170  0.5163 -0.0743  0.3842
 5141TIP3    H136982   6.553   2.954   1.249  0.5355  0.8770  0.7725
 5141TIP3    H236983   6.491   3.078   1.189  0.5261  0.1621 -0.7305
 5142TIP3   OH236984   5.925   3.575   8.612 -0.2045  0.7499 -0.1395
 5142TIP3    H136985   5.922   3.570   8.707  2.8930 -0.3054  0.0301
 5142TIP3    H236986   5.836   3.558   8.584 -1.2663  1.3808  2.5568
 5143TIP3   OH236987   6.224   0.223   0.715  0.1906  0.2051  0.1568
 5143TIP3    H136988   6.310   0.181   0.720 -1.4250 -3.5613 -0.1167
 5143TIP3    H236989   6.229   0.277   0.636  2.5440  0.8012  0.6440
 5144TIP3   OH236990   5.782   6.044   8.066  0.1278 -0.1150  0.0305
 5144TIP3    H136991   5.852   5.983   8.042 -0.1600 -0.4052 -0.0782
 5144TIP3    H236992   5.726   5.993   8.125  1.2182  0.7883  1.9517
 5145TIP3   OH236993   5.929   6.006   0.699 -0.3137  0.0563  0.3345
 5145TIP3    H136994   5.905   6.067   0.769 -0.1126 -0.2870  0.7062
 5145TIP3    H236995   5.892   6.045   0.619 -1.1246  0.1134  0.7266
 5146TIP3   OH236996   0.546   5.998   7.276  0.5233 -0.0640 -0.0314
 5146TIP3    H136997   0.596   6.071   7.312  0.7570 -0.4827  0.5017
 5146TIP3    H236998   0.459   6.007   7.315 -0.2356  1.3600 -1.8631
 5147TIP3   OH236999   2.015   5.863   7.006  0.1169 -0.1121 -0.2104
 5147TIP3    H137000   1.952   5.932   6.987 -2.0799 -2.3460 -1.5720
 5147TIP3    H237001   2.034   5.824   6.921  0.9649 -1.4725  0.5700
 5148TIP3   OH237002   3.694   0.301   8.688  0.2745 -0.1510 -0.0083
 5148TIP3    H137003   3.629   0.350   8.737 -0.4792 -1.3036  0.1596
 5148TIP3    H237004   3.673   0.209   8.704  1.5590 -0.5429 -0.4546
 5149TIP3   OH237005   1.397   3.805   7.670  0.3754  0.9047 -0.3125
 5149TIP3    H137006   1.414   3.869   7.739  1.0376  1.1765 -0.7179
 5149TIP3    H237007   1.473   3.812   7.613  0.3126 -0.0455 -0.5149
 5150TIP3   OH237008   0.252   2.148   0.551  0.0228 -0.0910 -0.1819
 5150TIP3    H137009   0.308   2.071   0.562  1.9379  1.4212  1.2659
 5150TIP3    H237010   0.186   2.140   0.621  0.2151 -0.4002 -0.0350
 5151TIP3   OH237011   0.521   5.642   8.039 -0.5654 -0.0844  0.1900
 5151TIP3    H137012   0.565   5.597   8.112 -0.6799 -0.0945  0.2539
 5151TIP3    H237013   0.499   5.728   8.075  0.1561  0.2265 -0.1101
 5152TIP3   OH237014   3.364   2.960   1.339  0.2500 -0.0240 -0.6288
 5152TIP3    H137015   3.431   3.028   1.340  1.7016 -1.3837 -1.4363
 5152TIP3    H237016   3.411   2.879   1.318 -0.8921 -1.9096  3.1859
 5153TIP3   OH237017   3.020   5.446   2.178  0.1516 -0.2398 -0.1654
 5153TIP3    H137018   2.975   5.477   2.257 -0.5057 -1.5593  0.0108
 5153TIP3    H237019   3.112   5.440   2.205 -0.0157 -0.3540  0.4056
 5154TIP3   OH237020   0.644   5.515   1.337  0.3398 -0.3866 -0.6759
 5154TIP3    H137021   0.680   5.523   1.425 -0.2918  2.9950 -0.5993
 5154TIP3    H237022   0.562   5.467   1.348 -0.0975  0.6296  0.7330
 5155TIP3   OH237023   5.536   5.306   8.021 -0.3383 -0.1092 -0.5376
 5155TIP3    H137024   5.487   5.226   8.003  1.0131 -1.2841  0.7151
 5155TIP3    H237025   5.608   5.304   7.958 -0.4865  0.2809 -0.7175
 5156TIP3   OH237026   3.097   4.394   1.464 -0.0375  0.0767  0.1089
 5156TIP3    H137027   3.023   4.360   1.413 -1.1830  0.9760  1.1205
 5156TIP3    H237028   3.114   4.326   1.529  1.4884 -1.1177 -1.4628
 5157TIP3   OH237029   4.344   1.413   6.733 -0.1089  0.1615 -0.5241
 5157TIP3    H137030   4.367   1.337   6.679  0.0066  0.6260 -1.1308
 5157TIP3    H237031   4.424   1.466   6.735 -0.1223  0.1708  0.0747
 5158TIP3   OH237032   4.876   3.116   7.342  0.2181 -0.1069 -0.2681
 5158TIP3    H137033   4.899   3.035   7.388 -0.7665  0.5395  1.4458
 5158TIP3    H237034   4.797   3.093   7.292 -0.3113 -0.1012  0.5568
 5159TIP3   OH237035   5.164   5.478   8.302 -0.6899  0.5389 -0.1296
 5159TIP3    H137036   5.200   5.561   8.332 -0.5620  0.8251 -1.0225
 5159TIP3    H237037   5.075   5.500   8.274 -0.3314  0.5903 -1.2755
 5160TIP3   OH237038   0.260   4.116   0.998  0.2526 -0.5398 -0.2318
 5160TIP3    H137039   0.273   4.210   0.994 -2.3183 -0.1259 -1.1663
 5160TIP3    H237040   0.312   4.081   0.925  1.5648  0.0746  0.3908
 5161TIP3   OH237041   6.055   3.781   6.518 -0.3630  0.3339 -0.1585
 5161TIP3    H137042   6.133   3.751   6.565 -0.1038 -0.4470 -1.0496
 5161TIP3    H237043   6.075   3.871   6.492  0.1573  0.2073 -0.2063
 5162TIP3   OH237044   0.830   5.759   7.763 -0.0956 -0.4710 -0.3694
 5162TIP3    H137045   0.779   5.748   7.683 -1.3889  0.3261  0.3143
 5162TIP3    H237046   0.769   5.797   7.826  0.6923 -1.7599  1.2402
 5163TIP3   OH237047   2.588   0.330   8.015  0.1730 -0.6156  0.3310
 5163TIP3    H137048   2.499   0.299   8.029  0.1483 -1.3948 -1.2544
 5163TIP3    H237049   2.644   0.262   8.053  0.1148  0.1476  1.8337
 5164TIP3   OH237050   0.533   1.346   8.617  0.3730  0.1897 -0.1818
 5164TIP3    H137051   0.553   1.254   8.630  1.5262  0.3651 -0.5886
 5164TIP3    H237052   0.614   1.384   8.583 -0.2372  1.2491 -0.5231
 5165TIP3   OH237053   5.821   1.023   7.301 -0.1750  0.4694  0.3360
 5165TIP3    H137054   5.843   0.930   7.293  1.0995  0.7602  0.2672
 5165TIP3    H237055   5.811   1.054   7.211  1.1534  0.7867  0.2868
 5166TIP3   OH237056   3.577   5.690   7.704 -1.0289 -0.8396 -0.1147
 5166TIP3    H137057   3.619   5.638   7.636  0.0496 -0.0813 -0.0651
 5166TIP3    H237058   3.571   5.778   7.667 -0.0433 -0.3216  0.8854
 5167TIP3   OH237059   6.534   1.271   2.403 -0.1552  0.2784  0.2580
 5167TIP3    H137060   6.593   1.339   2.373 -1.8696  1.7830  0.1100
 5167TIP3    H237061   6.494   1.237   2.323  0.3338 -0.5801  0.3681
 5168TIP3   OH237062   5.368   3.798   7.334  0.4894  0.2269 -0.1102
 5168TIP3    H137063   5.344   3.889   7.352 -0.1217  0.1498 -0.5149
 5168TIP3    H237064   5.418   3.802   7.252 -1.5815 -0.0448 -1.4598
 5169TIP3   OH237065   6.291   6.415   0.534  0.6010  0.9507  0.0742
 5169TIP3    H137066   6.248   6.452   0.457  0.0037  0.7982  0.3335
 5169TIP3    H237067   6.347   6.485   0.566  0.0464  1.3755  0.1207
 5170TIP3   OH237068   0.327   2.429   8.364 -0.5676  0.2948 -0.0117
 5170TIP3    H137069   0.266   2.363   8.331  2.1652 -2.0552 -0.7863
 5170TIP3    H237070   0.328   2.416   8.459 -0.6323 -0.2375 -0.0801
 5171TIP3   OH237071   3.637   1.354   1.352  0.2303 -0.7439 -0.2160
 5171TIP3    H137072   3.550   1.313   1.350  0.1551 -0.6029 -2.1874
 5171TIP3    H237073   3.622   1.442   1.387 -0.0541 -1.4085  1.4143
 5172TIP3   OH237074   2.092   5.024   0.200  0.0930  0.5210 -0.8190
 5172TIP3    H137075   2.101   4.951   0.138  2.4757 -0.1295  0.1544
 5172TIP3    H237076   2.182   5.044   0.226 -0.7634  0.2694  2.9545
 5173TIP3   OH237077   3.004   0.742   1.416  0.6291 -0.0793  0.1676
 5173TIP3    H137078   2.967   0.658   1.389  0.0157  0.5199 -0.9185
 5173TIP3    H237079   2.994   0.743   1.512 -1.6181 -0.2153 -0.0106
 5174TIP3   OH237080   2.977   4.120   6.662  0.2025 -0.2364 -0.2944
 5174TIP3    H137081   2.938   4.036   6.638  1.1198 -0.2069 -2.0124
 5174TIP3    H237082   3.070   4.111   6.642  0.9301  0.1578  2.4722
 5175TIP3   OH237083   4.000   2.693   0.311 -0.1645 -0.3445 -0.1586
 5175TIP3    H137084   4.078   2.720   0.263 -0.0703  1.6004  0.9550
 5175TIP3    H237085   3.927   2.732   0.261 -0.3365 -1.0882 -0.5002
 5176TIP3   OH237086   2.479   3.408   0.812 -0.2141  0.3179  0.2564
 5176TIP3    H137087   2.542   3.478   0.828 -1.2906  1.4819 -0.4426
 5176TIP3    H237088   2.447   3.424   0.723 -1.6358 -0.1024  0.6610
 5177TIP3   OH237089   6.448   2.807   7.798  0.2556  0.0971 -0.2584
 5177TIP3    H137090   6.416   2.721   7.773 -1.1297  0.0083  1.6430
 5177TIP3    H237091   6.384   2.868   7.762 -0.8248  0.0675  1.5312
 5178TIP3   OH237092   3.831   3.171   0.305 -0.4644 -1.5489 -0.2055
 5178TIP3    H137093   3.782   3.167   0.223 -2.1455 -0.0194  0.6657
 5178TIP3    H237094   3.769   3.142   0.372 -0.3517  0.7606  0.9764
 5179TIP3   OH237095   1.071   5.186   6.283  0.1167  0.3070  0.3721
 5179TIP3    H137096   0.986   5.150   6.307  0.6144 -1.6387 -0.6186
 5179TIP3    H237097   1.050   5.267   6.236 -1.1556  0.0390  0.4426
 5180TIP3   OH237098   3.230   4.821   7.344  0.5678  0.5248  0.4961
 5180TIP3    H137099   3.164   4.752   7.341  0.5181  0.5869  0.1197
 5180TIP3    H237100   3.181   4.900   7.370  0.0397  1.0699 -1.8784
 5181TIP3   OH237101   6.447   2.780   6.937 -0.0619 -0.1789  0.4946
 5181TIP3    H137102   6.506   2.852   6.959  0.5440 -0.6490  0.4413
 5181TIP3    H237103   6.364   2.804   6.977 -0.4566  1.5387 -1.2829
 5182TIP3   OH237104   2.633   2.987   6.350  0.2740  0.2151 -0.1031
 5182TIP3    H137105   2.672   3.047   6.286 -0.4342  1.5650  0.6888
 5182TIP3    H237106   2.547   3.025   6.369 -0.1876 -1.0588  0.4466
 5183TIP3   OH237107   3.724   5.353   0.087  0.0044  0.6634  0.1930
 5183TIP3    H137108   3.787   5.377   0.155 -0.3584  2.5201 -0.0558
 5183TIP3    H237109   3.681   5.275   0.120  0.8587  0.6790  1.4086
 5184TIP3   OH237110   4.947   0.933   7.207  0.2742 -0.0118 -0.5371
 5184TIP3    H137111   4.862   0.893   7.224 -0.2755  1.1658 -0.3740
 5184TIP3    H237112   4.962   0.990   7.282  1.9990 -1.4343  0.2501
 5185TIP3   OH237113   4.382   2.004   8.694  0.2444 -0.4423 -0.1162
 5185TIP3    H137114   4.297   1.999   8.650  0.4072 -2.4767 -0.2890
 5185TIP3    H237115   4.361   2.029   8.784 -0.4641 -0.1718 -0.3508
 5186TIP3   OH237116   6.200   3.966   8.385 -0.1786  0.1474  1.1435
 5186TIP3    H137117   6.291   3.979   8.413  0.4302 -2.0018  0.3499
 5186TIP3    H237118   6.158   3.924   8.460 -0.3015  0.3764  1.2041
 5187TIP3   OH237119   6.321   3.862   2.109  0.2121  0.6893  0.0807
 5187TIP3    H137120   6.314   3.957   2.095  1.3857  1.2358  2.6113
 5187TIP3    H237121   6.412   3.849   2.138  0.3788 -1.3956 -1.1472
 5188TIP3   OH237122   2.176   0.319   6.965 -0.1421  0.2259  0.1033
 5188TIP3    H137123   2.103   0.268   6.999 -0.6109 -0.1591 -1.3902
 5188TIP3    H237124   2.145   0.410   6.968 -0.5035  0.1103 -0.0976
 5189TIP3   OH237125   0.249   5.919   6.753  0.7826 -0.0367 -0.2702
 5189TIP3    H137126   0.271   5.869   6.675 -0.8589 -1.1497 -0.0764
 5189TIP3    H237127   0.332   5.928   6.800  1.4629 -0.9437 -1.2583
 5190TIP3   OH237128   0.767   1.030   7.219  0.4045  0.2310 -0.7177
 5190TIP3    H137129   0.753   1.034   7.124  0.4113  1.4139 -0.6765
 5190TIP3    H237130   0.718   0.952   7.247  1.3369 -0.8097 -1.8364
 5191TIP3   OH237131   4.924   6.163   7.791 -0.0420 -0.3641  0.4756
 5191TIP3    H137132   4.947   6.073   7.814  0.9753  0.6842  4.1407
 5191TIP3    H237133   5.003   6.214   7.806 -0.7282  1.2785 -1.0469
 5192TIP3   OH237134   3.998   1.444   0.259  0.1057 -0.5134  0.5646
 5192TIP3    H137135   3.934   1.510   0.234 -1.3734 -1.5146  1.5964
 5192TIP3    H237136   4.018   1.399   0.177 -1.0815 -0.6679  0.3444
 5193TIP3   OH237137   6.244   5.868   7.861  0.4007  0.1764  0.0027
 5193TIP3    H137138   6.262   5.857   7.767 -1.8807 -0.6591 -0.3963
 5193TIP3    H237139   6.252   5.780   7.897 -1.7239 -0.0897 -0.0430
 5194TIP3   OH237140   5.469   3.385   1.138  0.1832  0.3019 -0.2051
 5194TIP3    H137141   5.551   3.344   1.167 -0.7522 -2.1609 -0.8558
 5194TIP3    H237142   5.400   3.332   1.178 -1.1051  0.5585 -1.9705
 5195TIP3   OH237143   2.846   1.352   0.422  0.0084  0.1522 -0.0616
 5195TIP3    H137144   2.930   1.361   0.466  1.3082 -0.6078 -2.1984
 5195TIP3    H237145   2.816   1.442   0.407  0.9586  0.4509 -0.1815
 5196TIP3   OH237146   4.773   3.314   7.488  0.1563 -0.2795  0.3203
 5196TIP3    H137147   4.736   3.288   7.572 -1.5831 -1.1505 -0.6681
 5196TIP3    H237148   4.803   3.232   7.449 -1.1787 -0.2273 -0.8756
 5197TIP3   OH237149   5.548   3.503   0.905 -0.6347  0.0698  0.2604
 5197TIP3    H137150   5.549   3.434   0.839  0.0741  0.7794 -0.4840
 5197TIP3    H237151   5.493   3.468   0.975  1.2808 -2.1160  0.8207
 5198TIP3   OH237152   1.145   4.514   7.726  0.0331  0.2856  0.4560
 5198TIP3    H137153   1.236   4.541   7.738  0.0419  0.0116  1.0454
 5198TIP3    H237154   1.109   4.577   7.664  0.3417  1.0090  1.0017
 5199TIP3   OH237155   5.229   3.656   1.492  0.3101 -0.1645 -0.2427
 5199TIP3    H137156   5.205   3.715   1.421 -1.3216  0.2028  0.5604
 5199TIP3    H237157   5.216   3.709   1.571  0.7448 -1.0010  0.4041
 5200TIP3   OH237158   0.155   3.021   6.507  0.2782 -0.0952 -0.2814
 5200TIP3    H137159   0.172   3.077   6.431 -1.8646  1.1245  0.0639
 5200TIP3    H237160   0.213   3.056   6.575  0.7144  0.1262 -0.7580
 5201TIP3   OH237161   1.792   5.476   0.310 -0.3134 -0.0631 -0.0060
 5201TIP3    H137162   1.859   5.444   0.251 -0.2730 -0.1088  0.0640
 5201TIP3    H237163   1.718   5.417   0.298  0.3324 -1.1884  1.3019
 5202TIP3   OH237164   4.007   5.882   1.282 -0.8730  0.3906  0.7190
 5202TIP3    H137165   4.012   5.804   1.227  0.9867  0.8373  0.1520
 5202TIP3    H237166   3.931   5.930   1.249 -0.2945  0.2324 -0.9392
 5203TIP3   OH237167   4.253   5.562   1.419  0.1838 -0.5592  0.0217
 5203TIP3    H137168   4.210   5.525   1.496  0.8845 -1.8177 -0.1610
 5203TIP3    H237169   4.340   5.522   1.419 -0.5699 -2.4990 -2.6950
 5204TIP3   OH237170   4.591   0.432   1.424 -0.4152  0.4512 -0.6152
 5204TIP3    H137171   4.630   0.363   1.370 -0.1763  0.2216 -0.1533
 5204TIP3    H237172   4.584   0.393   1.511 -3.2737 -0.1677 -1.0124
 5205TIP3   OH237173   2.034   3.750   7.965  0.1693 -0.1021  0.4019
 5205TIP3    H137174   1.957   3.797   7.933 -0.3803 -1.4702 -0.3497
 5205TIP3    H237175   2.085   3.729   7.887  0.4411 -0.6819  0.7230
 5206TIP3   OH237176   5.944   3.863   0.103 -0.6976 -0.1331 -0.8033
 5206TIP3    H137177   5.909   3.773   0.102  2.5265 -1.5416  0.3594
 5206TIP3    H237178   5.977   3.874   0.192 -0.1863  1.8877 -1.2108
 5207TIP3   OH237179   2.199   4.004   6.937  0.6984  0.1233  0.1012
 5207TIP3    H137180   2.120   3.986   6.886  0.5653  0.1991  0.2774
 5207TIP3    H237181   2.227   3.918   6.968  1.5583 -0.1031 -1.2137
 5208TIP3   OH237182   6.044   5.514   7.578  0.1324 -0.3235  0.1630
 5208TIP3    H137183   5.983   5.588   7.567  0.1159 -0.2594  0.6529
 5208TIP3    H237184   6.017   5.474   7.661  0.0843 -0.9368 -0.1486
 5209TIP3   OH237185   1.987   6.279   6.728 -0.2075 -0.0267  0.8729
 5209TIP3    H137186   2.048   6.315   6.663  0.8633 -0.3722  1.6548
 5209TIP3    H237187   1.919   6.237   6.676  0.0714  0.6095 -0.0297
 5210TIP3   OH237188   6.589   4.539   8.665 -0.6419 -0.3064  0.1866
 5210TIP3    H137189   6.655   4.497   8.610 -1.0353  0.1081 -0.6208
 5210TIP3    H237190   6.601   4.499   8.751  0.9042  0.0197  0.1583
 5211TIP3   OH237191   4.798   3.609   6.339  0.4652  0.2225 -0.0638
 5211TIP3    H137192   4.825   3.518   6.349  0.3762  0.1010 -0.8788
 5211TIP3    H237193   4.877   3.654   6.307  0.1399  0.1580 -0.9857
 5212TIP3   OH237194   0.706   0.332   2.044 -0.3857 -0.5683 -0.3963
 5212TIP3    H137195   0.626   0.377   2.070 -0.6844 -1.5515  0.4938
 5212TIP3    H237196   0.772   0.401   2.037 -1.1201  0.1527 -0.3587
 5213TIP3   OH237197   0.164   3.337   0.097  0.0970 -0.3289  0.7745
 5213TIP3    H137198   0.170   3.318   0.191 -1.3670 -0.9822  0.7689
 5213TIP3    H237199   0.072   3.320   0.075  0.1722  0.8137 -0.5721
 5214TIP3   OH237200   2.278   4.168   0.849  0.4939  0.1543 -0.1433
 5214TIP3    H137201   2.250   4.260   0.851  0.9395  0.3167 -0.8372
 5214TIP3    H237202   2.311   4.156   0.760  1.0167 -0.5090  0.1380
 5215TIP3   OH237203   4.058   6.279   7.356 -0.3367  0.2389  0.8780
 5215TIP3    H137204   4.146   6.275   7.320 -0.5180  0.7796  0.3580
 5215TIP3    H237205   4.024   6.190   7.349  0.4787 -0.1763  1.9029
 5216TIP3   OH237206   5.585   0.933   0.829 -0.0094 -0.4855 -0.3669
 5216TIP3    H137207   5.495   0.920   0.800 -0.0414 -0.7976 -0.1367
 5216TIP3    H237208   5.608   1.021   0.799  0.4223 -1.2775 -2.5430
 5217TIP3   OH237209   1.222   4.391   8.720  0.2641 -0.1391  0.1655
 5217TIP3    H137210   1.244   4.380   8.628 -1.5882  0.1742 -0.3482
 5217TIP3    H237211   1.198   4.303   8.750 -0.3309 -0.0359  0.0042
 5218TIP3   OH237212   4.622   4.384   0.881 -0.0634 -0.2675  0.9777
 5218TIP3    H137213   4.533   4.397   0.913 -1.1218 -0.4987 -1.6225
 5218TIP3    H237214   4.611   4.334   0.801  2.4612 -0.5448  0.7419
 5219TIP3   OH237215   0.542   3.644   0.845 -0.0178  0.0846  0.1143
 5219TIP3    H137216   0.599   3.715   0.873 -0.2408  0.7176 -0.9802
 5219TIP3    H237217   0.541   3.650   0.749 -4.4460  2.1986  0.0226
 5220TIP3   OH237218   6.334   1.006   7.144  0.0059 -0.1281 -0.0574
 5220TIP3    H137219   6.328   1.059   7.064 -0.0146  0.7976  0.5468
 5220TIP3    H237220   6.257   0.949   7.140 -0.0544 -0.0192 -0.6440
 5221TIP3   OH237221   4.979   6.717   1.837 -0.2243  0.2269  0.2127
 5221TIP3    H137222   4.897   6.688   1.797 -0.3418  1.1645 -0.2675
 5221TIP3    H237223   4.977   6.812   1.829  0.1640  0.3822  1.6715
 5222TIP3   OH237224   2.142   0.957   0.382  0.7966  0.1034  0.2568
 5222TIP3    H137225   2.212   0.898   0.354  0.5021 -0.4942  0.7423
 5222TIP3    H237226   2.145   0.953   0.478 -0.1688 -0.2531  0.2773
 5223TIP3   OH237227   3.110   5.449   7.180 -0.3454 -0.4652  0.3219
 5223TIP3    H137228   3.151   5.493   7.255 -0.9065 -0.6566  0.7405
 5223TIP3    H237229   3.184   5.418   7.128  0.0598 -1.5322  1.4909
 5224TIP3   OH237230   5.850   3.974   8.315 -0.1384  0.1574 -0.5281
 5224TIP3    H137231   5.796   4.023   8.252  1.5414  1.3158 -1.1526
 5224TIP3    H237232   5.913   3.927   8.261  1.6753  1.5783  0.2190
 5225TIP3   OH237233   2.759   0.730   8.322  0.0987  0.4146 -0.0176
 5225TIP3    H137234   2.780   0.723   8.416  1.5065  1.0485 -0.2521
 5225TIP3    H237235   2.705   0.809   8.316  0.7492  0.8889  0.1732
 5226TIP3   OH237236   5.583   5.647   1.176 -0.2095 -0.5508 -0.1289
 5226TIP3    H137237   5.612   5.557   1.188 -0.3400 -0.9841 -2.5477
 5226TIP3    H237238   5.513   5.642   1.112 -1.0741  1.1734  0.6143
 5227TIP3   OH237239   3.643   0.842   0.708  0.1702 -0.2728  0.2087
 5227TIP3    H137240   3.621   0.889   0.788 -3.2358 -0.4336 -0.5156
 5227TIP3    H237241   3.669   0.910   0.646  0.2377  0.1094  0.6545
 5228TIP3   OH237242   4.613   5.838   1.592  0.1505  0.6335 -1.0148
 5228TIP3    H137243   4.565   5.895   1.532  2.5631  0.3439 -3.3866
 5228TIP3    H237244   4.700   5.831   1.555  0.9496 -1.9367  1.0135
 5229TIP3   OH237245   1.748   2.345   7.174  0.0431  0.4134 -0.1084
 5229TIP3    H137246   1.782   2.258   7.153 -0.7447 -0.1764  0.9659
 5229TIP3    H237247   1.657   2.330   7.199  0.3598  1.2799  1.7893
 5230TIP3   OH237248   0.606   0.626   7.527  0.0039  0.5867 -0.4887
 5230TIP3    H137249   0.657   0.641   7.606 -0.7038  0.3465  0.0326
 5230TIP3    H237250   0.604   0.531   7.518 -0.1478  0.6039 -0.6339
 5231TIP3   OH237251   5.259   1.344   0.146 -0.2460  0.6387  0.1212
 5231TIP3    H137252   5.185   1.302   0.191 -0.3802  0.5558 -0.1790
 5231TIP3    H237253   5.314   1.271   0.119 -0.5276  0.6503 -0.4875
 5232TIP3   OH237254   5.080   1.980   0.714  0.2457  0.3865  0.5971
 5232TIP3    H137255   5.103   1.947   0.800  1.0717  0.8355  0.5613
 5232TIP3    H237256   5.075   1.903   0.658  0.3234  0.1575  0.9082
 5233TIP3   OH237257   2.396   4.106   1.364 -0.1194 -0.2053  0.0815
 5233TIP3    H137258   2.346   4.099   1.283  1.2154  0.6791 -0.8619
 5233TIP3    H237259   2.451   4.028   1.364 -0.9519 -0.8127  0.7618
 5234TIP3   OH237260   4.709   4.120   0.294 -0.0443 -0.2315 -0.1739
 5234TIP3    H137261   4.785   4.176   0.280 -1.1228  1.5401  0.7145
 5234TIP3    H237262   4.646   4.147   0.227 -0.1989 -1.1714 -0.4348
 5235TIP3   OH237263   6.476   3.725   0.157  0.1548 -0.1718 -0.0589
 5235TIP3    H137264   6.382   3.742   0.167 -0.1240 -1.4370 -0.4097
 5235TIP3    H237265   6.517   3.810   0.174 -0.9773  0.1863  1.0768
 5236TIP3   OH237266   2.422   0.732   7.710  0.0932  0.4569 -0.1512
 5236TIP3    H137267   2.349   0.693   7.757  0.6038  0.5751  0.7644
 5236TIP3    H237268   2.487   0.751   7.778  1.5067 -0.7982 -1.0963
 5237TIP3   OH237269   2.642   2.496   7.713  0.0796 -0.0883  0.0832
 5237TIP3    H137270   2.559   2.474   7.755  0.7827 -0.5988  1.2783
 5237TIP3    H237271   2.648   2.591   7.721  0.3370 -0.1908  1.4991
 5238TIP3   OH237272   5.976   5.818   0.344  0.1523 -0.3806  0.1784
 5238TIP3    H137273   6.008   5.838   0.256  4.4739 -0.2286  1.5566
 5238TIP3    H237274   5.949   5.903   0.379 -2.1495 -0.5184 -1.0453
 5239TIP3   OH237275   5.114   5.242   1.398 -0.1699 -0.5312 -0.3751
 5239TIP3    H137276   5.148   5.227   1.310 -0.6757  0.9800 -0.8404
 5239TIP3    H237277   5.112   5.337   1.408 -0.7336 -0.6655  1.0324
 5240TIP3   OH237278   3.469   4.857   0.212 -0.5001  0.0211  0.0499
 5240TIP3    H137279   3.457   4.946   0.180 -2.4963 -0.0276  0.5588
 5240TIP3    H237280   3.443   4.861   0.304  1.2681 -0.7057  0.6330
 5241TIP3   OH237281   3.937   5.320   1.706  0.0270  0.3396  0.2273
 5241TIP3    H137282   3.911   5.253   1.770 -0.1719  0.6716  0.4974
 5241TIP3    H237283   3.866   5.384   1.709  1.0422  1.4772  1.2921
 5242TIP3   OH237284   1.706   0.029   8.543  0.4595 -0.3737  0.1037
 5242TIP3    H137285   1.648  -0.027   8.596  0.8230 -1.5774 -0.7424
 5242TIP3    H237286   1.743  -0.029   8.477  0.4742  0.9723 -1.1315
 5243TIP3   OH237287   4.988   6.699   8.554  0.1113 -0.1726  0.0380
 5243TIP3    H137288   4.968   6.791   8.534  2.2211  0.5046  0.7378
 5243TIP3    H237289   5.054   6.674   8.490  0.9081 -0.5791  0.9820
 5244TIP3   OH237290   2.940   0.292   1.192  0.4249 -0.0960  0.3359
 5244TIP3    H137291   2.979   0.258   1.272  2.5212 -1.2340 -1.0703
 5244TIP3    H237292   3.002   0.359   1.162 -0.7198  0.8644  0.0302
 5245TIP3   OH237293   1.224   1.120   7.701 -0.1406 -0.6915 -0.1537
 5245TIP3    H137294   1.140   1.158   7.728 -0.3654 -2.6333  2.3668
 5245TIP3    H237295   1.199   1.045   7.647 -0.0329 -0.9261  0.1167
 5246TIP3   OH237296   5.187   3.095   0.963  0.4233 -0.1031  0.1700
 5246TIP3    H137297   5.100   3.085   1.001  0.4034 -2.8770 -0.3668
 5246TIP3    H237298   5.190   3.185   0.931 -2.7873 -0.3348 -1.0947
 5247TIP3   OH237299   4.696   4.924   7.408  0.3078  0.0428 -0.1307
 5247TIP3    H137300   4.658   4.948   7.323 -0.1526 -0.1964  0.0025
 5247TIP3    H237301   4.756   4.852   7.388 -0.4665 -0.6284 -0.1529
 5248TIP3   OH237302   5.737   2.351   1.401 -0.2417 -0.5985 -0.1400
 5248TIP3    H137303   5.674   2.287   1.369 -0.0696 -1.6103  1.4627
 5248TIP3    H237304   5.820   2.303   1.406  0.1781  0.1088 -0.1402
 5249TIP3   OH237305   5.576   2.014   8.561 -0.0045  0.2303  0.2980
 5249TIP3    H137306   5.601   1.932   8.517  0.3761  0.2529  0.4641
 5249TIP3    H237307   5.626   2.082   8.516  1.2281  0.1262  1.4450
 5250TIP3   OH237308   2.499   1.432   6.915 -0.3781  0.1552  0.0483
 5250TIP3    H137309   2.586   1.401   6.939 -0.7390 -0.6967  0.2943
 5250TIP3    H237310   2.507   1.459   6.823 -0.0474 -0.6892 -0.1797
 5251TIP3   OH237311   3.579   1.581   1.494  0.4891  0.2175 -0.1069
 5251TIP3    H137312   3.505   1.641   1.503  0.6026  0.3653 -0.1496
 5251TIP3    H237313   3.574   1.525   1.571  0.9683  0.9284  0.4499
 5252TIP3   OH237314   5.920   4.379   8.599 -0.3534 -0.3995  0.0801
 5252TIP3    H137315   5.976   4.453   8.623 -0.7611 -0.1710  0.3414
 5252TIP3    H237316   5.842   4.389   8.654  0.3559 -2.0586  1.4500
 5253TIP3   OH237317   4.633   3.901   8.499  0.5656  0.1217  0.4813
 5253TIP3    H137318   4.710   3.954   8.518  0.9523 -0.3774  0.3174
 5253TIP3    H237319   4.640   3.880   8.406 -0.1685  0.7012  0.2824
 5254TIP3   OH237320   3.258   5.311   1.466 -0.1147  0.4566 -0.1218
 5254TIP3    H137321   3.316   5.262   1.407 -0.7250 -0.8058  0.3110
 5254TIP3    H237322   3.314   5.380   1.501  0.6960  0.2381 -0.9337
 5255TIP3   OH237323   0.663   1.185   7.720 -0.1403 -0.3453  0.7266
 5255TIP3    H137324   0.610   1.265   7.718  0.4806  0.0668  0.1307
 5255TIP3    H237325   0.616   1.126   7.779 -2.8569 -1.1177 -1.9550
 5256TIP3   OH237326   0.365   2.116   7.766  0.1679  0.0806  0.3741
 5256TIP3    H137327   0.278   2.156   7.758  0.7432  1.0865 -1.4579
 5256TIP3    H237328   0.356   2.030   7.724  0.3619  0.7596 -1.1294
 5257TIP3   OH237329   5.980   0.382   8.293 -0.0076 -0.0502  0.2252
 5257TIP3    H137330   6.049   0.409   8.232  0.1400  1.0487  0.8499
 5257TIP3    H237331   5.973   0.288   8.280 -0.4610  0.2194 -1.9747
 5258TIP3   OH237332   6.526   0.595   0.203 -0.1395 -0.1166  0.3898
 5258TIP3    H137333   6.489   0.524   0.150  1.0280 -0.5624  0.1550
 5258TIP3    H237334   6.449   0.644   0.232 -0.9296 -1.0473 -0.0364
 5259TIP3   OH237335   0.702   1.102   1.317 -0.0905  0.3080 -0.2135
 5259TIP3    H137336   0.726   1.185   1.275 -0.3280  0.2032 -0.5555
 5259TIP3    H237337   0.642   1.128   1.387 -0.4094  0.3956 -0.5187
 5260TIP3   OH237338   5.424   4.482   5.759  0.0691  0.6855 -0.3936
 5260TIP3    H137339   5.355   4.529   5.806 -0.0574  1.1275 -1.0093
 5260TIP3    H237340   5.402   4.390   5.771 -0.0909  0.7936  0.2121
 5261TIP3   OH237341   0.853   2.364   0.131 -0.1058  0.2030 -0.5709
 5261TIP3    H137342   0.870   2.453   0.162 -0.0033 -0.0895  0.2320
 5261TIP3    H237343   0.870   2.368   0.037  1.3945  0.6558 -0.2999
 5262TIP3   OH237344   2.348   2.358   8.512 -0.2331  0.1522 -0.2131
 5262TIP3    H137345   2.412   2.420   8.549 -0.0726  0.4580 -0.9806
 5262TIP3    H237346   2.401   2.301   8.457 -0.3886 -0.6589  0.4623
 5263TIP3   OH237347   6.196   3.398   6.749  0.6183 -0.1447  0.4247
 5263TIP3    H137348   6.277   3.449   6.740  1.5169 -1.5615  0.1471
 5263TIP3    H237349   6.207   3.325   6.688 -0.1914 -1.2212  1.5122
 5264TIP3   OH237350   6.534   2.010   7.944  0.3499  0.2931  0.0106
 5264TIP3    H137351   6.610   2.065   7.925  1.0478 -0.4278  0.6659
 5264TIP3    H237352   6.551   1.928   7.899 -0.6994  0.5939 -0.9743
 5265TIP3   OH237353   1.251   6.258   1.092  0.7505 -0.6835 -0.8733
 5265TIP3    H137354   1.320   6.192   1.087  0.6388 -0.7517 -1.6960
 5265TIP3    H237355   1.207   6.253   1.007 -0.3633 -0.7384 -0.3119
 5266TIP3   OH237356   6.413   1.997   7.070 -0.3082 -0.2101 -0.8420
 5266TIP3    H137357   6.497   2.004   7.116  0.5669 -1.1764 -2.2347
 5266TIP3    H237358   6.350   1.981   7.140  0.5384  1.2135  0.3085
 5267TIP3   OH237359   3.622   4.377   0.622  0.0483 -0.5162  0.1383
 5267TIP3    H137360   3.713   4.350   0.635 -0.2087 -0.8225  1.4779
 5267TIP3    H237361   3.571   4.311   0.669 -0.9639 -1.0716 -1.6260
 5268TIP3   OH237362   3.851   0.509   1.715  0.3073  0.6351 -0.1526
 5268TIP3    H137363   3.829   0.437   1.655  0.0450  0.6296 -0.0510
 5268TIP3    H237364   3.932   0.545   1.680 -0.2695  1.1651 -0.9943
 5269TIP3   OH237365   1.695   0.736   1.068  0.1761  0.2846 -0.2248
 5269TIP3    H137366   1.727   0.786   0.993 -1.6205  1.1105 -0.4898
 5269TIP3    H237367   1.611   0.699   1.039  0.4379 -1.1126  0.6950
 5270TIP3   OH237368   2.379   2.727   1.967  0.2543 -0.3048  0.3419
 5270TIP3    H137369   2.431   2.699   1.892  0.4787 -1.1020  0.7891
 5270TIP3    H237370   2.387   2.823   1.966  1.4749 -0.3887  0.2106
 5271TIP3   OH237371   5.173   4.287   7.558 -0.5754 -0.1150  0.2134
 5271TIP3    H137372   5.243   4.311   7.497 -0.8168  1.3156  0.4608
 5271TIP3    H237373   5.092   4.309   7.511 -0.7386  2.6655  1.6391
 5272TIP3   OH237374   4.537   1.204   0.082 -0.5011  0.3191 -0.0850
 5272TIP3    H137375   4.501   1.121   0.051 -1.3745  0.0663  1.5080
 5272TIP3    H237376   4.481   1.271   0.041 -0.1578  0.1151 -0.9085
 5273TIP3   OH237377   1.172   1.918   0.999  0.4415 -0.8801  0.3652
 5273TIP3    H137378   1.188   1.978   1.071  0.0220  1.3436 -1.2625
 5273TIP3    H237379   1.097   1.865   1.028 -0.7461  1.0288  1.0117
 5274TIP3   OH237380   5.089   6.737   0.799  0.0304  0.8902 -0.4304
 5274TIP3    H137381   5.031   6.742   0.723  1.6307  1.7089 -1.6650
 5274TIP3    H237382   5.031   6.720   0.873 -1.4817 -1.2312 -1.9778
 5275TIP3   OH237383   3.238   0.270   1.245 -0.2932 -0.7991 -0.0941
 5275TIP3    H137384   3.290   0.248   1.168 -0.8770 -0.9871 -0.4439
 5275TIP3    H237385   3.208   0.185   1.278  1.0145 -0.8244  1.1149
 5276TIP3   OH237386   0.192   3.903   6.590 -0.4103 -0.5406 -0.0285
 5276TIP3    H137387   0.097   3.918   6.592 -0.7491 -2.5836  0.6579
 5276TIP3    H237388   0.211   3.883   6.498  0.1694  3.9851 -1.1706
 5277TIP3   OH237389   1.476   5.827   0.561 -0.1119 -0.4533  0.5370
 5277TIP3    H137390   1.559   5.863   0.529  0.4108 -2.0622 -0.0269
 5277TIP3    H237391   1.502   5.757   0.621 -1.0415 -1.6030 -0.3707
 5278TIP3   OH237392   3.140   0.002   1.834 -0.0385 -0.0131  1.2391
 5278TIP3    H137393   3.063  -0.049   1.807 -0.9154  1.2924  1.1823
 5278TIP3    H237394   3.106   0.066   1.896  1.0620  0.4071  1.4276
 5279TIP3   OH237395   3.947   5.278   8.044 -0.1334  0.0575  0.4621
 5279TIP3    H137396   3.911   5.299   7.958 -1.7283 -2.0433  0.5446
 5279TIP3    H237397   3.952   5.362   8.089 -0.5423  1.0126 -1.1901
 5280TIP3   OH237398   6.062   4.424   7.104  0.5990  0.6736 -0.1412
 5280TIP3    H137399   6.097   4.371   7.034 -0.8295 -0.0183 -0.3677
 5280TIP3    H237400   6.139   4.460   7.148  1.8017 -3.3213  1.4369
 5281TIP3   OH237401   5.280   1.116   6.982 -0.1308 -0.5426  0.4916
 5281TIP3    H137402   5.258   1.036   7.030 -0.4895  0.1001  1.4189
 5281TIP3    H237403   5.260   1.095   6.891 -3.6421 -0.3707  1.0974
 5282TIP3   OH237404   4.049   4.883   0.991  0.0260  0.5401 -0.0027
 5282TIP3    H137405   4.051   4.827   0.914  1.8756 -2.0174  1.7126
 5282TIP3    H237406   4.049   4.972   0.956  0.1131 -0.4928 -2.9230
 5283TIP3   OH237407   3.428   5.527   1.636  0.0827 -0.0743  0.1715
 5283TIP3    H137408   3.510   5.501   1.594  1.2474 -0.7048  2.5894
 5283TIP3    H237409   3.430   5.482   1.721 -2.7200  0.0373  0.3868
 5284TIP3   OH237410   6.495   2.391   2.143  0.5475 -0.3311  0.2428
 5284TIP3    H137411   6.535   2.362   2.225  2.7691 -0.5725 -0.8666
 5284TIP3    H237412   6.515   2.321   2.081 -3.2740 -1.3973 -0.0350
 5285TIP3   OH237413   1.849   3.464   1.263 -0.1928  0.7002  0.3424
 5285TIP3    H137414   1.900   3.421   1.330  2.3503 -0.7087 -2.2827
 5285TIP3    H237415   1.891   3.549   1.251  0.8203  0.0641 -0.9043
 5286TIP3   OH237416   4.908   3.297   0.659 -0.0409  0.1526 -0.4217
 5286TIP3    H137417   4.884   3.204   0.658 -1.4589  0.4929 -0.1099
 5286TIP3    H237418   4.981   3.304   0.598 -1.3857 -0.8042 -2.2320
 5287TIP3   OH237419   2.493   0.029   8.221 -0.0940  0.8031  0.6093
 5287TIP3    H137420   2.572   0.049   8.171  0.3172  1.3188  1.4621
 5287TIP3    H237421   2.439   0.107   8.212 -0.7922  0.2357 -0.4616
 5288TIP3   OH237422   0.744   5.067   1.079 -0.3463  0.6290 -0.3222
 5288TIP3    H137423   0.838   5.051   1.067 -0.4342  0.8669 -1.3385
 5288TIP3    H237424   0.717   5.115   1.002 -1.8392 -1.6183 -1.3167
 5289TIP3   OH237425   0.121   4.363   1.904 -0.4882 -0.1968  0.6757
 5289TIP3    H137426   0.066   4.287   1.920  0.1506 -0.8915 -0.3090
 5289TIP3    H237427   0.082   4.433   1.957 -0.1960 -1.5669  2.8494
 5290TIP3   OH237428   0.669   1.643   8.438  0.4996 -0.6056  0.1750
 5290TIP3    H137429   0.637   1.671   8.523  1.5718  1.4832 -0.0411
 5290TIP3    H237430   0.763   1.633   8.449  0.5458 -1.1449 -0.5728
 5291TIP3   OH237431   1.998   5.134   7.024  0.0317 -0.2913  0.9049
 5291TIP3    H137432   1.907   5.162   7.013  0.4301  0.8342  0.2352
 5291TIP3    H237433   2.002   5.047   6.984 -0.7368 -0.3413  0.9233
 5292TIP3   OH237434   4.038   4.490   0.160  0.2142 -0.1754  0.0837
 5292TIP3    H137435   4.083   4.556   0.212 -1.1769  0.6633  0.2773
 5292TIP3    H237436   3.986   4.540   0.097 -1.6109 -1.0106  0.8575
 5293TIP3   OH237437   4.472   0.284   0.296  0.3524  0.5764 -0.8040
 5293TIP3    H137438   4.524   0.229   0.354 -0.0927  2.6609  1.7824
 5293TIP3    H237439   4.388   0.239   0.288  0.4172  0.2484  0.2205
 5294TIP3   OH237440   6.260   6.232   0.826 -0.0525  0.8168  0.9545
 5294TIP3    H137441   6.252   6.137   0.836  0.7653  0.6228 -0.0665
 5294TIP3    H237442   6.173   6.261   0.798  0.3040  0.0142 -1.1157
 5295TIP3   OH237443   4.485   2.821   1.268  0.0709  0.0737 -0.5886
 5295TIP3    H137444   4.532   2.738   1.257  0.9348 -0.0492  2.7444
 5295TIP3    H237445   4.393   2.797   1.268  0.3334 -1.2872  1.9925
 5296TIP3   OH237446   3.231   1.116   8.592 -0.6403  0.3422  0.1406
 5296TIP3    H137447   3.171   1.177   8.550 -0.5869 -0.0139 -0.4617
 5296TIP3    H237448   3.309   1.169   8.611 -0.9600  0.6922  0.5087
 5297TIP3   OH237449   2.611   6.657   0.768  0.0895  0.1207  0.1491
 5297TIP3    H137450   2.589   6.675   0.676  0.1882 -0.0837  0.0830
 5297TIP3    H237451   2.706   6.658   0.770  0.1680 -1.8191 -0.1789
 5298TIP3   OH237452   4.081   1.986   7.535 -0.0681  0.2572 -0.1566
 5298TIP3    H137453   4.107   2.000   7.444 -0.9644  1.1550 -0.2841
 5298TIP3    H237454   3.987   1.970   7.531 -0.2057  0.8268  0.6595
 5299TIP3   OH237455   5.493   0.677   8.667  0.4757 -0.0726 -1.0065
 5299TIP3    H137456   5.399   0.669   8.687 -0.5079  4.5173 -2.7654
 5299TIP3    H237457   5.498   0.672   8.572  2.1265 -0.4168 -0.9302
 5300TIP3   OH237458   0.143   1.878   0.840 -0.1374  0.0521  0.2492
 5300TIP3    H137459   0.213   1.813   0.842  0.6647  0.8742 -0.2307
 5300TIP3    H237460   0.146   1.919   0.927 -1.0790 -0.9751  0.7870
 5301TIP3   OH237461   5.031   1.441   0.380  0.0516  0.2958  0.1073
 5301TIP3    H137462   4.964   1.474   0.441 -2.1991  0.9044 -2.4815
 5301TIP3    H237463   4.982   1.418   0.301  3.0585  2.4210 -2.6388
 5302TIP3   OH237464   0.208   0.822   7.147  0.0680 -0.9252 -0.2353
 5302TIP3    H137465   0.242   0.833   7.235  1.8257  1.1422 -1.0867
 5302TIP3    H237466   0.265   0.755   7.108 -0.0152 -1.0549 -0.1344
 5303TIP3   OH237467   1.651   3.542   6.780 -0.1819  0.1004  0.7649
 5303TIP3    H137468   1.580   3.486   6.748 -0.9879  1.6525 -0.2293
 5303TIP3    H237469   1.707   3.482   6.830 -1.1993 -1.5229  0.0479
 5304TIP3   OH237470   5.058   3.376   0.398  0.8474 -0.0819 -0.4366
 5304TIP3    H137471   4.963   3.365   0.397  0.6479  0.6721  2.3767
 5304TIP3    H237472   5.074   3.451   0.340 -0.3691  0.2440 -0.3871
 5305TIP3   OH237473   4.997   1.201   0.687  0.5453 -0.3057  0.3522
 5305TIP3    H137474   4.919   1.148   0.704  0.1703  0.6565  1.8410
 5305TIP3    H237475   4.963   1.282   0.650  0.7800  0.2312  1.2680
 5306TIP3   OH237476   5.635   2.816   6.326  0.0260  0.2970  0.3856
 5306TIP3    H137477   5.677   2.733   6.301 -1.8392 -0.9840  1.2689
 5306TIP3    H237478   5.674   2.838   6.410 -0.1626 -0.2403  0.6232
 5307TIP3   OH237479   0.569   0.801   0.864 -0.3552 -0.5400 -0.2060
 5307TIP3    H137480   0.508   0.744   0.819 -1.1273 -0.6676  0.9665
 5307TIP3    H237481   0.655   0.781   0.825 -0.7627 -1.7554 -0.5040
 5308TIP3   OH237482   5.463   2.703   7.846  0.2352 -0.2371  0.4159
 5308TIP3    H137483   5.460   2.607   7.840 -1.4489 -0.1522 -0.7024
 5308TIP3    H237484   5.543   2.727   7.799 -0.2249 -1.0206 -0.8090
 5309TIP3   OH237485   4.061   0.486   6.501  0.8800  0.0652 -0.0243
 5309TIP3    H137486   3.972   0.520   6.492  0.2206 -1.3525  0.6734
 5309TIP3    H237487   4.109   0.554   6.547 -0.2963  0.1999  1.0521
 5310TIP3   OH237488   4.498   5.232   0.826 -0.4497  0.1236  0.1284
 5310TIP3    H137489   4.511   5.142   0.794 -1.4865 -0.7181  1.9271
 5310TIP3    H237490   4.409   5.254   0.798 -0.4359  0.3448  0.2620
 5311TIP3   OH237491   3.118   6.685   2.080  0.8884 -0.4093 -0.2189
 5311TIP3    H137492   3.134   6.707   1.988  0.7876  0.6407  0.0014
 5311TIP3    H237493   3.129   6.768   2.127 -0.0723 -0.7124  0.5920
 5312TIP3   OH237494   4.932   5.500   1.205  0.2358 -0.3328  0.1156
 5312TIP3    H137495   4.904   5.415   1.241  1.9082 -1.1439 -0.4033
 5312TIP3    H237496   5.017   5.516   1.246  0.7124  0.2651 -1.0612
 5313TIP3   OH237497   0.846   4.315   8.454 -0.2540  0.0833  0.0416
 5313TIP3    H137498   0.886   4.306   8.368  3.0724 -0.4905  1.4707
 5313TIP3    H237499   0.761   4.273   8.446  0.4083 -0.9496 -2.6503
 5314TIP3   OH237500   2.430   3.798   7.217  0.5069 -0.1986  0.1956
 5314TIP3    H137501   2.356   3.744   7.189  2.2376 -2.1608 -0.8346
 5314TIP3    H237502   2.440   3.862   7.147  0.0846 -0.2286  0.1033
 5315TIP3   OH237503   4.136   6.553   8.664  0.4078  0.2218 -0.1869
 5315TIP3    H137504   4.082   6.560   8.585 -0.2177  0.6301  0.2614
 5315TIP3    H237505   4.223   6.531   8.632  0.0609 -0.0711 -0.9574
 5316TIP3   OH237506   0.205   1.404   2.174 -0.1893 -0.1940  0.1148
 5316TIP3    H137507   0.272   1.368   2.116 -0.3674 -1.6283  0.7647
 5316TIP3    H237508   0.134   1.340   2.172 -2.3802  2.0903 -1.9197
 5317TIP3   OH237509   2.456   3.349   7.263  0.0609  0.3494  0.2739
 5317TIP3    H137510   2.405   3.323   7.186  0.6506  0.0423 -0.0162
 5317TIP3    H237511   2.404   3.318   7.337 -0.1943  0.0655 -0.0188
 5318TIP3   OH237512   0.059   4.981   8.466  0.3680 -0.0156 -0.2519
 5318TIP3    H137513   0.141   5.024   8.488  0.4780 -0.3135 -0.0634
 5318TIP3    H237514   0.039   5.010   8.377 -1.1702  2.9066  0.9094
 5319TIP3   OH237515   3.166   3.823   7.688 -0.0261  0.0782 -0.2247
 5319TIP3    H137516   3.258   3.850   7.687  0.5610 -1.7671 -0.7538
 5319TIP3    H237517   3.156   3.769   7.609 -1.5098  0.0982 -0.0715
 5320TIP3   OH237518   2.200   2.276   0.904  0.7334 -0.0837  0.2485
 5320TIP3    H137519   2.279   2.225   0.924  2.4572  1.0838 -2.8178
 5320TIP3    H237520   2.183   2.327   0.983  2.5503 -0.9967  1.2817
 5321TIP3   OH237521   6.422   3.374   6.946  0.1260 -0.4289  0.4549
 5321TIP3    H137522   6.446   3.448   6.890  1.3959 -0.3231  1.0990
 5321TIP3    H237523   6.377   3.413   7.020 -0.5213 -0.4578  0.0845
 5322TIP3   OH237524   5.549   5.930   8.315  0.0393  0.3384  0.1558
 5322TIP3    H137525   5.538   5.924   8.409  0.1408  0.3770  0.1706
 5322TIP3    H237526   5.501   6.008   8.289 -0.6100 -0.0878  0.0724
 5323TIP3   OH237527   1.175   1.559   6.153  0.6201  0.0164  0.3940
 5323TIP3    H137528   1.140   1.522   6.072  0.9615 -1.3610  0.8514
 5323TIP3    H237529   1.130   1.511   6.222  1.0167  0.5344  1.0232
 5324TIP3   OH237530   4.389   2.276   8.497  0.4089 -0.7029 -0.1233
 5324TIP3    H137531   4.372   2.319   8.580 -3.5264 -1.9097 -0.1129
 5324TIP3    H237532   4.452   2.206   8.518 -0.2453 -0.7692  1.7572
 5325TIP3   OH237533   0.060   4.309   0.336 -0.1130 -0.1364  0.1728
 5325TIP3    H137534   0.146   4.320   0.294 -0.2632 -1.4801 -0.5364
 5325TIP3    H237535   0.080   4.306   0.429  0.6115 -0.2937  0.0256
 5326TIP3   OH237536   1.376   1.283   8.218  0.2387 -0.3901  0.4427
 5326TIP3    H137537   1.369   1.211   8.155  0.4448 -0.3763  0.4012
 5326TIP3    H237538   1.331   1.251   8.296 -0.3687 -0.2485  0.1493
 5327TIP3   OH237539   3.721   2.500   6.997 -0.2365  0.5353 -0.0878
 5327TIP3    H137540   3.798   2.449   6.973 -0.4475  0.0331  0.2768
 5327TIP3    H237541   3.754   2.590   7.006  0.4680  0.2099  0.7870
 5328TIP3   OH237542   6.616   0.556   0.980  0.3719 -0.2999 -0.1055
 5328TIP3    H137543   6.657   0.476   0.947  1.5701 -0.3957  1.5012
 5328TIP3    H237544   6.606   0.541   1.074 -0.6566  0.9049  0.0044
 5329TIP3   OH237545   1.647   4.369   8.125  0.1705 -0.0272 -0.0322
 5329TIP3    H137546   1.559   4.388   8.157 -0.5792 -1.3027 -1.2151
 5329TIP3    H237547   1.688   4.320   8.196 -0.7687 -1.1086 -0.2118
 5330TIP3   OH237548   2.773   2.712   7.147 -0.2419 -0.0015 -0.4475
 5330TIP3    H137549   2.845   2.650   7.155 -0.3860 -0.1160  0.0291
 5330TIP3    H237550   2.694   2.657   7.156 -0.4023  0.0433 -1.5021
 5331TIP3   OH237551   6.265   0.906   1.406  0.5037 -0.2071 -0.2740
 5331TIP3    H137552   6.245   0.812   1.406  0.5220 -0.2498  1.5537
 5331TIP3    H237553   6.360   0.910   1.409  0.5020 -0.2501  2.6435
 5332TIP3   OH237554   4.951   4.636   7.855  0.4316  0.1996 -0.3509
 5332TIP3    H137555   4.973   4.691   7.780  2.0329  0.9166  0.5913
 5332TIP3    H237556   5.031   4.588   7.874 -0.2315 -0.6658  0.3504
 5333TIP3   OH237557   1.796   2.028   0.119  0.7830 -0.3633 -0.6937
 5333TIP3    H137558   1.747   2.012   0.199 -1.6711  1.1273 -1.7770
 5333TIP3    H237559   1.778   1.952   0.064  0.6567 -0.3627 -0.6530
 5334TIP3   OH237560   0.073   4.057   6.828  0.0493 -0.2149 -0.5267
 5334TIP3    H137561   0.163   4.071   6.856 -0.3892  0.4067  0.6474
 5334TIP3    H237562   0.044   4.143   6.798  0.1888 -0.6549 -2.0154
 5335TIP3   OH237563   3.770   1.865   7.729 -0.0887 -0.2217  0.1316
 5335TIP3    H137564   3.729   1.945   7.762 -2.4289 -0.4135 -2.0594
 5335TIP3    H237565   3.714   1.795   7.761  0.2735 -0.7486 -0.3789
 5336TIP3   OH237566   2.241   6.076   0.780  0.0826 -0.2528  0.4183
 5336TIP3    H137567   2.241   6.114   0.868  1.9048 -1.0665  0.8206
 5336TIP3    H237568   2.325   6.030   0.774 -1.0246 -2.2867 -0.8537
 5337TIP3   OH237569   4.910   0.089   7.185  0.5186  0.2870 -0.7682
 5337TIP3    H137570   4.966   0.016   7.157  0.9312  0.0460  0.6401
 5337TIP3    H237571   4.927   0.098   7.278 -1.7969  0.2087 -0.2830
 5338TIP3   OH237572   4.955   3.108   6.789  0.7237  0.0518  0.1265
 5338TIP3    H137573   5.022   3.175   6.799 -0.0073  0.6641  1.0698
 5338TIP3    H237574   4.910   3.106   6.874  1.3379 -2.3098  0.4681
 5339TIP3   OH237575   5.948   5.425   0.749  0.1816  0.4845 -0.0909
 5339TIP3    H137576   5.985   5.472   0.675 -0.3504  1.3113  0.1588
 5339TIP3    H237577   5.894   5.356   0.709 -2.1875  2.4972 -0.5658
 5340TIP3   OH237578   0.433   4.987   7.664  0.8122 -0.2606  0.7250
 5340TIP3    H137579   0.430   4.907   7.612  1.8805 -0.3587  0.7785
 5340TIP3    H237580   0.349   4.991   7.709  0.1282 -0.4963 -0.5216
 5341TIP3   OH237581   2.625   1.662   8.295 -0.5286 -0.1153 -0.5457
 5341TIP3    H137582   2.629   1.663   8.391  0.2222  0.0988 -0.5724
 5341TIP3    H237583   2.532   1.667   8.275 -0.6370  1.3399  0.1682
 5342TIP3   OH237584   1.262   3.252   7.103  0.0217  0.0906  0.0677
 5342TIP3    H137585   1.259   3.180   7.166 -0.1435  0.8900  1.0101
 5342TIP3    H237586   1.325   3.223   7.037  1.5012 -0.1239  1.4764
 5343TIP3   OH237587   4.821   1.658   0.756 -0.0231  0.2795 -0.0061
 5343TIP3    H137588   4.820   1.696   0.843  0.1651  1.8253 -0.6396
 5343TIP3    H237589   4.906   1.682   0.720  0.3641 -1.3298 -0.2110
 5344TIP3   OH237590   4.234   3.679   2.148 -0.3088 -0.4921  0.3042
 5344TIP3    H137591   4.160   3.739   2.152  0.4416  0.6448 -1.3651
 5344TIP3    H237592   4.221   3.618   2.220 -1.3853  1.3672  1.7466
 5345TIP3   OH237593   1.624   3.577   2.211 -0.7179  0.1690  0.1743
 5345TIP3    H137594   1.572   3.633   2.268 -1.1359 -0.0552  0.0207
 5345TIP3    H237595   1.706   3.624   2.199 -1.8758  1.8694 -1.7627
 5346TIP3   OH237596   0.495   4.718   7.492 -0.2454  0.1480 -0.3982
 5346TIP3    H137597   0.432   4.648   7.476  1.0999 -0.8931 -1.4730
 5346TIP3    H237598   0.518   4.750   7.405  0.0512  1.1052  0.0203
 5347TIP3   OH237599   0.948   3.706   7.673 -0.0449  0.1561  0.3815
 5347TIP3    H137600   1.013   3.739   7.735  0.0341  0.1024  0.3273
 5347TIP3    H237601   0.977   3.738   7.588 -0.1566  0.2345  0.3715
 5348TIP3   OH237602   5.961   6.165   8.335 -0.2481  0.4168  0.0856
 5348TIP3    H137603   6.043   6.124   8.306  1.0041  1.4384  1.9323
 5348TIP3    H237604   5.988   6.250   8.370 -2.1633  0.9177  0.4649
 5349TIP3   OH237605   4.843   2.778   0.847 -0.4623  0.1657  0.1802
 5349TIP3    H137606   4.760   2.743   0.877 -0.2652  0.3025  0.9085
 5349TIP3    H237607   4.836   2.780   0.751 -0.4520 -1.9048  0.0998
 5350TIP3   OH237608   1.398   0.325   1.982 -0.8448 -0.0510 -0.5489
 5350TIP3    H137609   1.395   0.238   2.021 -0.6722 -0.1765 -0.8130
 5350TIP3    H237610   1.341   0.378   2.037 -0.6960 -0.2564 -0.1962
 5351TIP3   OH237611   6.410   5.041   0.339  0.1346  0.4286  0.1111
 5351TIP3    H137612   6.428   5.134   0.353  1.4214  0.1352  0.4720
 5351TIP3    H237613   6.489   4.996   0.368 -1.3585 -0.9710  2.2673
 5352TIP3   OH237614   3.526   1.620   8.569 -0.1579  0.0411  0.0270
 5352TIP3    H137615   3.494   1.706   8.542 -2.4336 -0.7372  0.0627
 5352TIP3    H237616   3.454   1.581   8.619  1.1493 -1.5442  0.8126
 5353TIP3   OH237617   3.940   2.900   0.519  0.0664  0.1056 -0.0777
 5353TIP3    H137618   3.957   2.838   0.448 -0.1514 -0.9009  0.7298
 5353TIP3    H237619   3.955   2.850   0.599  2.0012  1.6879  0.6270
 5354TIP3   OH237620   1.569   4.978   7.007  0.8294  0.2651  0.0731
 5354TIP3    H137621   1.575   4.910   6.941 -0.8055  0.9486 -0.8295
 5354TIP3    H237622   1.619   5.051   6.972 -1.0267  1.0653 -1.0430
 5355TIP3   OH237623   4.512   2.531   1.144 -0.0197 -0.1490  0.1804
 5355TIP3    H137624   4.495   2.453   1.092  2.2284 -1.5051  1.2692
 5355TIP3    H237625   4.451   2.525   1.217 -0.4754 -0.4094 -0.2196
 5356TIP3   OH237626   3.519   4.462   1.709 -0.6863 -0.3995 -0.3046
 5356TIP3    H137627   3.513   4.418   1.624 -1.6368 -0.5898 -0.1585
 5356TIP3    H237628   3.525   4.391   1.773  0.1773 -0.2542 -0.2144
 5357TIP3   OH237629   3.469   6.598   6.938 -0.0972  0.0229  0.3584
 5357TIP3    H137630   3.468   6.506   6.912  1.6990 -0.2246  1.0059
 5357TIP3    H237631   3.391   6.609   6.992 -0.2890 -1.1314  0.3343
 5358TIP3   OH237632   6.745   2.440   6.607 -0.3127  0.4993 -0.2712
 5358TIP3    H137633   6.762   2.364   6.552 -1.7816  0.8746 -1.3038
 5358TIP3    H237634   6.779   2.514   6.558  0.7084  0.5745  0.5264
 5359TIP3   OH237635   1.502   2.196   1.081 -0.1006 -0.5399 -0.1001
 5359TIP3    H137636   1.443   2.255   1.127  1.2247 -1.0711  2.4660
 5359TIP3    H237637   1.569   2.253   1.043  0.4875 -0.2646  1.3070
 5360TIP3   OH237638   0.324   5.427   1.757  0.1802 -0.6408 -0.3432
 5360TIP3    H137639   0.359   5.345   1.721  2.0306 -0.0225 -0.0493
 5360TIP3    H237640   0.368   5.437   1.841 -0.6302  0.2675 -0.0118
 5361TIP3   OH237641   2.331   2.727   7.363 -0.7776  0.5355 -0.1442
 5361TIP3    H137642   2.243   2.694   7.378 -0.9222  0.5505 -0.9169
 5361TIP3    H237643   2.362   2.755   7.450 -1.8081  1.2327  0.0076
 5362TIP3   OH237644   0.756   5.944   6.911  0.5123  0.3015  0.0256
 5362TIP3    H137645   0.830   5.938   6.851  2.6042  0.8352  2.4016
 5362TIP3    H237646   0.763   5.866   6.967 -1.4112 -0.2208 -0.3716
 5363TIP3   OH237647   0.635   2.946   0.635  0.0706 -0.1492 -0.3396
 5363TIP3    H137648   0.647   2.986   0.721 -1.4273  2.0023 -1.0462
 5363TIP3    H237649   0.698   2.991   0.579 -0.8122  0.3868 -0.9098
 5364TIP3   OH237650   4.664   2.995   7.218  0.2101 -0.0507 -0.1337
 5364TIP3    H137651   4.642   2.903   7.236  0.1980  0.0697  0.4639
 5364TIP3    H237652   4.591   3.045   7.253 -0.0637  0.1641 -0.9783
 5365TIP3   OH237653   2.082   2.848   1.396 -0.2510  0.1078 -0.1528
 5365TIP3    H137654   2.098   2.942   1.401 -0.0401  0.0594  0.1003
 5365TIP3    H237655   2.077   2.820   1.488 -0.6569 -0.0685 -0.2259
 5366TIP3   OH237656   2.913   4.339   1.220  0.3201  0.0039  0.0540
 5366TIP3    H137657   2.869   4.314   1.139  1.8427  0.7077 -1.0516
 5366TIP3    H237658   2.998   4.375   1.191  0.1361  2.0797  1.8073
 5367TIP3   OH237659   1.868   6.732   7.349  0.5601  0.2793 -0.1147
 5367TIP3    H137660   1.916   6.731   7.266  1.4311 -0.2956  0.3874
 5367TIP3    H237661   1.801   6.800   7.337  0.3072 -0.1821 -1.4874
 5368TIP3   OH237662   0.148   3.456   2.173  0.4641  0.0508 -0.4272
 5368TIP3    H137663   0.228   3.456   2.226  0.2981  0.7790 -0.1538
 5368TIP3    H237664   0.156   3.380   2.116  1.4094  0.1825 -0.4835
 5369TIP3   OH237665   2.543   0.919   8.385 -0.3680  0.4477  0.0950
 5369TIP3    H137666   2.579   1.007   8.401  1.6194 -0.2952 -0.0340
 5369TIP3    H237667   2.482   0.905   8.457  0.5765  1.2771  1.0935
 5370TIP3   OH237668   6.781   5.275   8.419 -0.3990  0.1324 -0.0711
 5370TIP3    H137669   6.758   5.308   8.332  0.5251  0.2849 -0.2784
 5370TIP3    H237670   6.784   5.180   8.408 -1.1298  0.0975  0.0178
 5371TIP3   OH237671   5.934   6.168   6.632 -0.2206  0.0590 -0.1985
 5371TIP3    H137672   5.952   6.209   6.547  1.7381 -1.4316 -0.5800
 5371TIP3    H237673   6.020   6.162   6.674 -1.0364 -0.0667  1.5084
 5372TIP3   OH237674   6.100   4.652   6.897 -0.3842  0.3548  0.3319
 5372TIP3    H137675   6.048   4.694   6.965 -0.6645  1.1191 -0.3397
 5372TIP3    H237676   6.038   4.594   6.853 -0.2744  0.0764  0.5427
 5373TIP3   OH237677   6.306   5.560   7.454  0.2555  1.1336 -0.2201
 5373TIP3    H137678   6.373   5.494   7.470  2.0731  2.5345 -1.5346
 5373TIP3    H237679   6.226   5.524   7.492  1.2905 -1.5287 -0.3782
 5374TIP3   OH237680   1.927   2.552   6.399 -0.1184 -0.0226  0.0867
 5374TIP3    H137681   1.929   2.603   6.481 -2.2989 -1.5164  1.1620
 5374TIP3    H237682   2.012   2.507   6.397  1.1409  2.2391 -0.0123
 5375TIP3   OH237683   2.020   2.667   8.203 -0.3986 -0.1703  0.1735
 5375TIP3    H137684   1.941   2.617   8.222 -0.9004  0.3750 -0.4186
 5375TIP3    H237685   1.990   2.758   8.193  0.2923  0.0404 -0.0851
 5376TIP3   OH237686   1.732   0.759   2.431  0.0294  0.0119 -0.1765
 5376TIP3    H137687   1.641   0.729   2.437  0.2662 -0.7070 -0.0247
 5376TIP3    H237688   1.782   0.693   2.480  0.7603 -0.2326 -1.2133
 5377TIP3   OH237689   2.857   5.121   8.034  0.8370  0.5086 -0.1165
 5377TIP3    H137690   2.869   5.144   8.126  0.0301  3.3590 -0.6486
 5377TIP3    H237691   2.926   5.168   7.987  0.8175 -0.3608 -1.0737
 5378TIP3   OH237692   5.969   6.423   2.090  0.3017 -0.0935  0.2591
 5378TIP3    H137693   5.938   6.351   2.034 -3.1461  1.0652  0.4363
 5378TIP3    H237694   5.974   6.498   2.031 -0.9168  0.5651  0.9525
 5379TIP3   OH237695   6.762   6.756   0.411 -0.0699 -0.2009  0.4477
 5379TIP3    H137696   6.854   6.731   0.398 -0.0736  0.1522 -0.3473
 5379TIP3    H237697   6.744   6.815   0.338 -1.2332 -1.1043 -0.0196
 5380TIP3   OH237698   3.686   4.587   2.102 -0.3829 -0.1484 -0.3703
 5380TIP3    H137699   3.626   4.547   2.164 -1.3706  1.2804 -0.3537
 5380TIP3    H237700   3.630   4.632   2.039  0.5813 -1.7389 -2.4807
 5381TIP3   OH237701   0.270   5.302   1.158  0.3510 -0.2618 -0.5667
 5381TIP3    H137702   0.203   5.364   1.132  0.0434 -0.3801 -0.0751
 5381TIP3    H237703   0.289   5.324   1.249 -0.7364 -1.7268  0.0501
 5382TIP3   OH237704   3.413   0.074   0.802  0.5401 -0.1655  0.8707
 5382TIP3    H137705   3.393   0.046   0.712 -0.0453 -1.2336  1.3119
 5382TIP3    H237706   3.368   0.158   0.812 -2.0390 -1.4696  1.1262
 5383TIP3   OH237707   6.753   2.670   0.614 -0.4206  0.0045 -0.7056
 5383TIP3    H137708   6.667   2.693   0.648  0.3124  1.9107 -0.0351
 5383TIP3    H237709   6.815   2.714   0.672  1.1030 -2.5177 -0.2514
 5384TIP3   OH237710   5.146   1.586   1.905 -0.4380 -0.2579 -0.2159
 5384TIP3    H137711   5.176   1.644   1.976  1.2596 -1.6437  0.2786
 5384TIP3    H237712   5.051   1.581   1.917 -0.3036  0.2748  1.4077
 5385TIP3   OH237713   3.594   0.553   0.091 -0.2110 -0.2905  0.5105
 5385TIP3    H137714   3.602   0.572   0.184 -1.1470 -0.6546  0.6790
 5385TIP3    H237715   3.500   0.564   0.073 -0.0827 -0.5037 -0.3212
 5386TIP3   OH237716   1.176   0.171   7.049 -0.7591  0.7584  0.0787
 5386TIP3    H137717   1.125   0.092   7.033 -0.5256  0.6535 -0.1590
 5386TIP3    H237718   1.221   0.154   7.132  0.2975  0.1046 -0.6036
 5387TIP3   OH237719   6.096   5.973   1.211  0.0214  0.1252 -0.3247
 5387TIP3    H137720   6.047   5.955   1.291  0.4710  0.3570  0.0082
 5387TIP3    H237721   6.091   5.892   1.160 -1.7550  0.5362 -0.8687
 5388TIP3   OH237722   4.318   5.690   1.762  0.3583 -0.1788  0.1620
 5388TIP3    H137723   4.314   5.697   1.667  0.5790 -0.0553  0.1591
 5388TIP3    H237724   4.254   5.623   1.785  0.1478 -0.0514 -0.0542
 5389TIP3   OH237725   1.870   4.240   1.483 -0.7914 -0.0973  0.0631
 5389TIP3    H137726   1.868   4.177   1.411 -0.0106  0.5514 -0.5474
 5389TIP3    H237727   1.886   4.188   1.561  0.0266 -0.6435 -0.4525
 5390TIP3   OH237728   2.724   6.053   7.558 -0.5231 -0.0439 -0.1540
 5390TIP3    H137729   2.663   5.981   7.568  0.1417 -0.6314 -0.2298
 5390TIP3    H237730   2.793   6.035   7.622 -0.2649  0.4333 -0.2919
 5391TIP3   OH237731   1.823   4.585   8.524 -0.2433 -0.1369 -0.1762
 5391TIP3    H137732   1.731   4.566   8.509 -0.7058  1.4425  0.4919
 5391TIP3    H237733   1.860   4.502   8.555 -1.9906 -0.2086  1.9736
 5392TIP3   OH237734   4.805   5.325   8.598  0.6226  0.3424  0.0074
 5392TIP3    H137735   4.822   5.234   8.573 -0.3146  0.1547  0.0208
 5392TIP3    H237736   4.874   5.375   8.553 -0.7395 -0.0252 -2.7226
 5393TIP3   OH237737   4.380   0.275   1.003 -0.2909  0.1141 -0.5145
 5393TIP3    H137738   4.309   0.284   0.939  0.8614  1.4713 -1.6613
 5393TIP3    H237739   4.427   0.196   0.975 -0.5556 -0.0390 -0.5350
 5394TIP3   OH237740   5.154   3.609   8.357  0.6765  0.2103 -0.2286
 5394TIP3    H137741   5.247   3.629   8.371  0.5862  0.8040 -0.4747
 5394TIP3    H237742   5.156   3.529   8.304  1.0402 -0.1164  0.2650
 5395TIP3   OH237743   2.147   3.499   0.980  0.1682  0.7874 -0.4966
 5395TIP3    H137744   2.070   3.498   0.923  0.1547  0.7777 -0.4777
 5395TIP3    H237745   2.131   3.570   1.042  1.0348  2.0960 -1.7018
 5396TIP3   OH237746   5.385   1.300   8.488 -0.2274 -0.3854 -0.1179
 5396TIP3    H137747   5.359   1.296   8.580 -1.3310 -1.8435 -0.4672
 5396TIP3    H237748   5.313   1.259   8.440 -0.6139  2.1196 -1.8586
 5397TIP3   OH237749   0.980   3.697   0.807  0.3306 -0.0246 -0.3733
 5397TIP3    H137750   0.997   3.603   0.805  1.6583  0.1903 -0.4564
 5397TIP3    H237751   0.933   3.715   0.726 -0.3584 -0.6798 -0.1308
 5398TIP3   OH237752   0.241   5.489   2.087 -0.0095  0.0097 -0.5914
 5398TIP3    H137753   0.266   5.572   2.127 -0.7051 -0.8009  1.6857
 5398TIP3    H237754   0.316   5.465   2.033  2.0318  0.1373  1.9674
 5399TIP3   OH237755   2.957   0.201   8.039 -0.5259 -0.9377 -0.0627
 5399TIP3    H137756   3.047   0.178   8.016  0.1442  0.3353  1.1186
 5399TIP3    H237757   2.919   0.237   7.959  0.0737 -1.3050 -0.5157
 5400TIP3   OH237758   1.683   1.146   8.181 -0.0056  0.1374  0.1519
 5400TIP3    H137759   1.617   1.079   8.200 -0.1989  0.4540  0.6170
 5400TIP3    H237760   1.765   1.098   8.174 -0.3970 -0.3698 -1.2488
 5401TIP3   OH237761   4.457   5.957   7.869 -0.5311 -0.2593 -0.0239
 5401TIP3    H137762   4.447   5.932   7.778 -0.7083  1.2185 -0.4402
 5401TIP3    H237763   4.498   5.882   7.911 -0.6100 -1.0234 -1.2766
 5402TIP3   OH237764   0.193   6.719   0.150  0.2146  0.2968 -0.2180
 5402TIP3    H137765   0.250   6.792   0.174  0.0367 -0.1495  1.7834
 5402TIP3    H237766   0.253   6.645   0.140  0.3259  0.5510 -1.6259
 5403TIP3   OH237767   5.911   6.298   1.255 -0.8573  0.0011 -0.0947
 5403TIP3    H137768   5.926   6.219   1.202 -1.6048 -1.0988  1.2633
 5403TIP3    H237769   5.890   6.366   1.191 -0.3352 -0.9176 -1.2966
 5404TIP3   OH237770   4.440   1.858   6.948  0.3855 -0.2364 -0.1514
 5404TIP3    H137771   4.462   1.926   7.011 -0.2277 -1.1967  1.1526
 5404TIP3    H237772   4.360   1.818   6.983  1.7216 -2.8338  0.1612
 5405TIP3   OH237773   4.712   4.265   2.115  0.3234 -0.3599 -0.2795
 5405TIP3    H137774   4.777   4.333   2.132  0.7593 -1.3427  2.3718
 5405TIP3    H237775   4.763   4.186   2.100 -0.1312 -0.1189 -4.3266
 5406TIP3   OH237776   1.952   4.936   7.244  0.5004 -0.4228  0.3363
 5406TIP3    H137777   1.927   4.883   7.169 -0.0115 -0.1640  0.3186
 5406TIP3    H237778   1.869   4.973   7.276  0.9675  1.2235 -0.2938
 5407TIP3   OH237779   0.761   5.605   6.593 -0.7145 -0.0079 -0.2453
 5407TIP3    H137780   0.717   5.676   6.642 -0.0509 -1.0606  2.0172
 5407TIP3    H237781   0.689   5.551   6.561 -1.1849 -0.2685  1.1561
 5408TIP3   OH237782   1.351   2.412   0.186  0.1113 -0.3069 -0.5932
 5408TIP3    H137783   1.438   2.374   0.196 -0.0608 -0.9891 -1.5439
 5408TIP3    H237784   1.366   2.497   0.146  0.2724 -1.1898 -2.5502
 5409TIP3   OH237785   5.185   3.704   6.562  0.0473 -0.1918 -0.2075
 5409TIP3    H137786   5.164   3.792   6.593  0.5357 -0.5579  1.2092
 5409TIP3    H237787   5.114   3.649   6.595  0.1966 -0.4775 -0.3556
 5410TIP3   OH237788   0.067   4.119   8.095 -0.6489 -0.2566  0.1807
 5410TIP3    H137789   0.127   4.193   8.104 -1.0395 -0.1176  2.1593
 5410TIP3    H237790   0.103   4.067   8.024  0.5955  0.9473 -0.1099
 5411TIP3   OH237791   3.925   0.375   8.243 -0.2868 -0.1941 -0.7688
 5411TIP3    H137792   3.875   0.352   8.321 -0.6915 -1.0787 -1.2704
 5411TIP3    H237793   3.986   0.303   8.231  2.0070  1.4083  0.5019
 5412TIP3   OH237794   0.816   5.855   0.086  0.5020 -0.3922  0.0521
 5412TIP3    H137795   0.903   5.885   0.060  1.1534 -1.5385  0.8364
 5412TIP3    H237796   0.800   5.897   0.170  1.3591 -2.0256  1.0876
 5413TIP3   OH237797   5.337   3.616   6.376 -0.0397  0.1497 -0.2253
 5413TIP3    H137798   5.271   3.641   6.441 -0.4373 -1.2503 -0.0545
 5413TIP3    H237799   5.346   3.693   6.320 -1.3563  0.5910  0.1353
 5414TIP3   OH237800   3.251   4.003   7.980 -0.6344  0.1211  0.4953
 5414TIP3    H137801   3.203   4.062   7.922 -0.9481  0.2700  0.9063
 5414TIP3    H237802   3.343   4.020   7.961 -0.7263  0.6581  0.5272
 5415TIP3   OH237803   0.197   0.287   0.377 -0.4613  0.1208  0.0444
 5415TIP3    H137804   0.110   0.323   0.358 -0.5497  0.2459  0.6689
 5415TIP3    H237805   0.181   0.223   0.446 -0.1790 -0.5015 -0.4589
 5416TIP3   OH237806   2.007   4.303   7.207  0.1549  0.1539  0.5589
 5416TIP3    H137807   1.923   4.315   7.253  0.3525 -0.5738  1.1189
 5416TIP3    H237808   2.019   4.209   7.204  0.0842  0.1788 -1.1311
 5417TIP3   OH237809   6.003   0.141   8.166  0.0720  0.0415 -0.2590
 5417TIP3    H137810   5.931   0.109   8.111 -0.6689 -1.3135  1.4288
 5417TIP3    H237811   6.046   0.062   8.197  1.2660  0.8193  0.1130
 5418TIP3   OH237812   1.159   5.704   6.596 -0.8202  0.2811  0.5273
 5418TIP3    H137813   1.251   5.700   6.621 -1.3985 -0.5283  2.7580
 5418TIP3    H237814   1.121   5.622   6.628 -2.0965  0.0181 -1.4637
 5419TIP3   OH237815   0.647   5.643   0.890  0.1225 -0.3118 -0.1381
 5419TIP3    H137816   0.558   5.653   0.922  0.5501 -0.9678  1.3277
 5419TIP3    H237817   0.672   5.554   0.915  0.6456 -0.7209 -1.9654
 5420TIP3   OH237818   0.562   5.521   6.880  0.1879  0.0764 -0.2471
 5420TIP3    H137819   0.473   5.525   6.846 -0.0844 -1.1849  0.2659
 5420TIP3    H237820   0.577   5.606   6.921 -1.2224 -0.1105  0.7210
 5421TIP3   OH237821   0.105   1.953   1.480 -0.3883 -0.0594 -0.6968
 5421TIP3    H137822   0.059   2.037   1.481  0.2572  0.3098 -1.3317
 5421TIP3    H237823   0.040   1.890   1.511 -0.3994  0.9040  1.3890
 5422TIP3   OH237824   6.577   3.061   1.604 -0.0471 -0.6034 -0.8995
 5422TIP3    H137825   6.623   3.145   1.600  0.6804 -1.0107 -1.2201
 5422TIP3    H237826   6.488   3.081   1.574 -0.4523  0.4252  0.8533
 5423TIP3   OH237827   6.763   2.516   7.117  0.7598 -0.3626 -0.2104
 5423TIP3    H137828   6.793   2.471   7.038  1.7920  1.0340 -0.6616
 5423TIP3    H237829   6.832   2.501   7.181  0.0093 -1.3388  0.3886
 5424TIP3   OH237830   1.678   1.827   8.705  0.1809  0.4152  0.1175
 5424TIP3    H137831   1.628   1.754   8.742  1.8884 -1.0654 -0.3115
 5424TIP3    H237832   1.618   1.870   8.645 -0.4666 -1.5576 -0.7262
 5425TIP3   OH237833   1.829   3.878   8.558  0.1358 -0.3554 -0.4036
 5425TIP3    H137834   1.857   3.950   8.501  0.9753 -0.3576  0.0004
 5425TIP3    H237835   1.859   3.902   8.645 -0.3735 -0.7728 -0.1019
 5426TIP3   OH237836   1.380   6.495   8.394 -0.2614  0.9731 -0.6903
 5426TIP3    H137837   1.469   6.506   8.430 -0.2544 -0.2277 -0.3115
 5426TIP3    H237838   1.392   6.501   8.299 -0.0756  2.7765 -0.5855
 5427TIP3   OH237839   3.708   3.495   7.504  0.2562 -0.0185 -0.2333
 5427TIP3    H137840   3.635   3.434   7.491 -2.0827  1.5748  3.6516
 5427TIP3    H237841   3.674   3.579   7.471  1.6117  0.2093 -1.1547
 5428TIP3   OH237842   6.172   2.675   1.765 -0.1592 -0.6773  0.0945
 5428TIP3    H137843   6.237   2.687   1.833 -0.1898 -1.4787  0.2774
 5428TIP3    H237844   6.088   2.672   1.811  0.0092 -4.2254  0.4593
 5429TIP3   OH237845   2.425   6.426   0.575  0.0230  0.0264  0.1148
 5429TIP3    H137846   2.364   6.413   0.502 -1.3819 -0.9844  1.4018
 5429TIP3    H237847   2.507   6.389   0.544 -0.8398 -1.3980 -0.5903
 5430TIP3   OH237848   1.888   1.673   8.565  0.4766  0.8949  0.2073
 5430TIP3    H137849   1.804   1.669   8.519 -0.2630 -1.1256  1.5988
 5430TIP3    H237850   1.871   1.730   8.641  0.5680  1.0052  0.1465
 5431TIP3   OH237851   4.611   2.614   7.610 -0.8598 -0.1423 -0.8428
 5431TIP3    H137852   4.585   2.614   7.702 -0.1717  0.0532 -0.6429
 5431TIP3    H237853   4.613   2.521   7.586 -0.9544 -0.1981 -0.6351
 5432TIP3   OH237854   2.425   6.196   0.388 -0.0858 -0.0470 -0.7663
 5432TIP3    H137855   2.469   6.158   0.464 -2.2691  0.6310  0.9208
 5432TIP3    H237856   2.473   6.161   0.313  1.2338 -1.9199  0.8519
 5433TIP3   OH237857   3.850   0.764   2.156  0.1314 -0.5648  0.0532
 5433TIP3    H137858   3.851   0.857   2.133  3.1487 -0.5876 -0.3123
 5433TIP3    H237859   3.884   0.762   2.246 -0.3478 -1.2984  0.2218
 5434TIP3   OH237860   3.701   4.747   7.309  0.0317  0.1252  0.7380
 5434TIP3    H137861   3.714   4.656   7.281 -0.4340  0.5411 -0.9154
 5434TIP3    H237862   3.615   4.747   7.351 -0.8151  0.1224 -0.9004
 5435TIP3   OH237863   3.433   0.220   2.004  0.2650 -0.0665  0.4952
 5435TIP3    H137864   3.436   0.184   2.093  0.9413  1.3726  1.0943
 5435TIP3    H237865   3.439   0.143   1.947  0.4439 -0.9773  1.6945
 5436TIP3   OH237866   5.108   3.192   7.062 -0.1941 -0.0707 -0.5139
 5436TIP3    H137867   5.111   3.109   7.110 -1.6327 -0.7964 -1.5926
 5436TIP3    H237868   5.029   3.235   7.093  0.0871  0.5124 -0.5895
 5437TIP3   OH237869   0.300   2.150   7.254 -0.5100 -0.1860 -0.4965
 5437TIP3    H137870   0.322   2.172   7.164 -1.0167  2.6723 -0.0239
 5437TIP3    H237871   0.370   2.191   7.306 -0.5024 -1.3490  0.4536
 5438TIP3   OH237872   4.683   0.239   1.661 -0.0815  0.0445  0.1687
 5438TIP3    H137873   4.705   0.156   1.619  1.0396  0.1897  0.4491
 5438TIP3    H237874   4.749   0.250   1.729 -0.7586  0.7324  0.7348
 5439TIP3   OH237875   5.886   5.732   7.576  0.4626 -0.4840  0.8695
 5439TIP3    H137876   5.832   5.806   7.551  0.0039 -1.2776 -0.6384
 5439TIP3    H237877   5.882   5.730   7.671  0.2514  1.2331  0.9244
 5440TIP3   OH237878   0.541   4.332   1.403  0.4270 -0.3598  0.2923
 5440TIP3    H137879   0.473   4.393   1.374  0.6576 -0.6850 -1.0388
 5440TIP3    H237880   0.605   4.386   1.449 -0.4184  0.0420  1.0107
 5441TIP3   OH237881   5.568   2.877   0.887  0.2958 -0.1518 -0.4980
 5441TIP3    H137882   5.569   2.941   0.958  0.0788  1.0839 -1.5646
 5441TIP3    H237883   5.654   2.836   0.890  0.1193 -0.4656  0.7599
 5442TIP3   OH237884   5.564   5.438   0.007 -0.8084  0.6287  0.1257
 5442TIP3    H137885   5.607   5.354  -0.009 -0.6164  0.7983 -0.2579
 5442TIP3    H237886   5.531   5.464  -0.079 -1.3736  0.6712  0.3505
 5443TIP3   OH237887   5.496   6.402   6.590 -0.0290  0.0842  0.1971
 5443TIP3    H137888   5.578   6.423   6.546 -0.2618  1.7287  0.4641
 5443TIP3    H237889   5.509   6.431   6.680 -1.4839  2.1083 -0.1754
 5444TIP3   OH237890   1.008   4.690   8.449 -0.3535 -0.3903  0.5711
 5444TIP3    H137891   1.097   4.699   8.484  0.7738  0.2365 -2.2123
 5444TIP3    H237892   0.974   4.779   8.448  0.3864 -0.0859 -1.6240
 5445TIP3   OH237893   4.148   3.409   0.542 -0.2488 -0.5473  0.0437
 5445TIP3    H137894   4.177   3.322   0.571  0.8222 -0.8385 -1.7686
 5445TIP3    H237895   4.060   3.395   0.508 -0.0513 -0.9527 -0.3130
 5446TIP3   OH237896   2.085   3.949   0.919 -0.5302  0.5590  0.3616
 5446TIP3    H137897   2.148   4.005   0.873 -0.1786  1.5022  1.9256
 5446TIP3    H237898   2.002   3.997   0.913 -0.5575  0.5197  0.4284
 5447TIP3   OH237899   4.971   3.813   8.081 -0.0061 -0.2281  0.6403
 5447TIP3    H137900   4.899   3.766   8.124 -1.5509  1.6798  0.2936
 5447TIP3    H237901   4.943   3.819   7.990  2.0446 -2.0116 -0.1893
 5448TIP3   OH237902   5.266   5.112   0.248  0.5036  0.3025  0.2462
 5448TIP3    H137903   5.220   5.182   0.293 -1.1632 -0.6423  0.0983
 5448TIP3    H237904   5.265   5.039   0.309  0.1871 -0.2967 -0.4649
 5449TIP3   OH237905   5.707   3.634   0.646  0.0671 -0.2253 -0.4623
 5449TIP3    H137906   5.635   3.628   0.709  1.6675 -1.7221  1.3635
 5449TIP3    H237907   5.716   3.545   0.612  0.6805  0.0796 -1.1071
 5450TIP3   OH237908   2.648   2.885   0.273  0.0322  0.3101  0.0190
 5450TIP3    H137909   2.624   2.794   0.259 -1.5489  0.1023  3.1714
 5450TIP3    H237910   2.597   2.933   0.207 -1.4705 -0.9083  0.2237
 5451TIP3   OH237911   3.388   2.631   2.100 -0.0184 -0.0515 -0.3931
 5451TIP3    H137912   3.429   2.675   2.025  1.7017 -0.4425  0.2776
 5451TIP3    H237913   3.394   2.538   2.078  0.3536 -0.1587  0.1558
 5452TIP3   OH237914   3.422   4.021   0.545  0.1979 -0.5427 -0.2783
 5452TIP3    H137915   3.451   3.952   0.605  0.2314 -1.0675 -0.8836
 5452TIP3    H237916   3.423   3.980   0.459  2.3572  0.8264 -0.9895
 5453TIP3   OH237917   0.331   4.170   8.402  0.0488 -0.1798  0.0954
 5453TIP3    H137918   0.331   4.086   8.448 -0.8692 -0.7282 -0.8513
 5453TIP3    H237919   0.355   4.149   8.312 -0.6495  0.4840 -0.2680
 5454TIP3   OH237920   4.409   3.486   7.081  0.1503  0.7960 -0.3427
 5454TIP3    H137921   4.459   3.451   7.154  0.7377  0.3707 -0.9347
 5454TIP3    H237922   4.437   3.433   7.005 -2.1158 -0.3585 -0.4695
 5455TIP3   OH237923   6.381   6.367   2.095 -0.5512  0.0065 -0.7052
 5455TIP3    H137924   6.369   6.321   2.013 -3.1663  0.2445 -0.5509
 5455TIP3    H237925   6.330   6.448   2.085 -0.9345  0.0471  1.1161
 5456TIP3   OH237926   1.676   0.454   0.823 -0.0960 -0.2886 -0.0299
 5456TIP3    H137927   1.691   0.384   0.759  0.3595  1.0917 -1.4967
 5456TIP3    H237928   1.639   0.526   0.771 -1.3538  0.2905  1.5864
 5457TIP3   OH237929   0.008   2.775   7.844 -0.0551  0.4180 -0.6405
 5457TIP3    H137930  -0.035   2.808   7.765 -1.8878 -1.6568 -0.6089
 5457TIP3    H237931  -0.062   2.772   7.909  1.3034  1.5451  0.9444
 5458TIP3   OH237932   1.283   2.801   8.080  0.2418  0.7725 -0.5745
 5458TIP3    H137933   1.284   2.886   8.126  0.1036 -0.0872  1.0849
 5458TIP3    H237934   1.211   2.809   8.018 -1.1595  1.1630  1.0226
 5459TIP3   OH237935   5.524   2.600   1.212 -0.7415 -0.1053 -0.4140
 5459TIP3    H137936   5.595   2.600   1.148 -1.0554  1.2812 -0.7988
 5459TIP3    H237937   5.450   2.640   1.165 -1.1204  0.4844  0.6632
 5460TIP3   OH237938   4.167   4.712   8.581  0.1423 -0.8231  0.6413
 5460TIP3    H137939   4.108   4.787   8.593  1.4474  0.3889 -0.1695
 5460TIP3    H237940   4.130   4.665   8.506  0.8654  0.6891 -0.7541
 5461TIP3   OH237941   5.690   2.245   7.896  0.2591 -0.3983  0.1778
 5461TIP3    H137942   5.645   2.213   7.817  0.2305  1.2955 -0.5254
 5461TIP3    H237943   5.668   2.181   7.964 -1.7231 -0.5905 -0.5875
 5462TIP3   OH237944   5.064   4.640   8.291 -0.5692 -0.0489  0.3656
 5462TIP3    H137945   5.012   4.720   8.298  1.2557  1.4021 -1.4308
 5462TIP3    H237946   5.119   4.639   8.369  1.4488  2.1351 -0.8689
 5463TIP3   OH237947   3.716   5.476   1.789 -0.1437  0.2410 -0.4003
 5463TIP3    H137948   3.773   5.540   1.745 -0.8626 -0.0317 -1.7857
 5463TIP3    H237949   3.678   5.524   1.862  0.7940  0.8373 -0.2838
 5464TIP3   OH237950   6.431   6.832   7.578 -0.2692  0.2945 -0.3016
 5464TIP3    H137951   6.448   6.755   7.524 -0.0179  1.1381 -1.4445
 5464TIP3    H237952   6.509   6.841   7.632 -0.7737 -0.9079  0.6837
 5465TIP3   OH237953   3.406   4.889   6.619 -0.0980  0.0032  0.3397
 5465TIP3    H137954   3.472   4.948   6.582  2.8375 -1.9289  2.0560
 5465TIP3    H237955   3.398   4.818   6.556 -0.1359 -0.0061  0.3546
 5466TIP3   OH237956   6.337   0.226   7.440  0.2458  0.2241 -0.1798
 5466TIP3    H137957   6.411   0.252   7.386  0.1478 -2.0645 -1.5135
 5466TIP3    H237958   6.366   0.146   7.483 -0.5083  0.7797  1.4556
 5467TIP3   OH237959   0.165   1.361   6.645 -0.1283  0.0555 -0.3935
 5467TIP3    H137960   0.162   1.366   6.550  0.6789  1.5883 -0.3637
 5467TIP3    H237961   0.156   1.267   6.664 -0.1096 -0.2950 -1.9722
 5468TIP3   OH237962   5.908   3.807   7.367  0.0458  0.3284 -0.7844
 5468TIP3    H137963   5.903   3.819   7.462  0.6944  1.6449 -0.8987
 5468TIP3    H237964   5.873   3.719   7.352 -0.1589  0.1450  0.6604
 5469TIP3   OH237965   4.757   1.934   6.227 -0.1299  0.1485 -0.0783
 5469TIP3    H137966   4.821   2.003   6.248  0.7806 -1.0595  1.2803
 5469TIP3    H237967   4.700   1.930   6.304 -1.0983  0.3510 -0.7630
 5470TIP3   OH237968   1.483   1.083   7.006  0.3540  0.0236 -0.4265
 5470TIP3    H137969   1.556   1.026   6.983  1.2754  1.9366 -2.6723
 5470TIP3    H237970   1.524   1.167   7.027 -1.0845  0.5878  0.2186
 5471TIP3   OH237971   4.038   5.528   6.608 -0.2877 -0.3255  0.4350
 5471TIP3    H137972   4.098   5.497   6.676 -2.0236 -1.1705  1.6771
 5471TIP3    H237973   4.014   5.449   6.560 -1.3214 -0.2010  0.7339
 5472TIP3   OH237974   0.054   6.186   0.912  0.2304 -0.3274  0.0598
 5472TIP3    H137975   0.093   6.235   0.984 -0.8561  0.2868  0.2531
 5472TIP3    H237976   0.121   6.186   0.844 -0.4685  3.5638 -0.8915
 5473TIP3   OH237977   3.089   3.179   7.128  0.0267 -0.0111  0.6381
 5473TIP3    H137978   3.121   3.126   7.201  0.3726  1.0189  1.2565
 5473TIP3    H237979   3.050   3.116   7.067 -0.3519 -0.8869  1.7547
 5474TIP3   OH237980   4.573   2.061   7.102 -0.0927  0.1374 -0.1968
 5474TIP3    H137981   4.640   2.129   7.104 -0.9364  0.9756 -0.0065
 5474TIP3    H237982   4.516   2.080   7.177 -1.3233  0.2437 -1.1328
 5475TIP3   OH237983   1.606   2.901   6.122  0.1096  0.2837 -0.2161
 5475TIP3    H137984   1.658   2.966   6.170  0.4797 -0.4263  0.3701
 5475TIP3    H237985   1.657   2.820   6.130 -0.3381 -0.0728 -0.9448
 5476TIP3   OH237986   2.045   4.368   0.545  0.4584  0.3187  0.5486
 5476TIP3    H137987   2.072   4.348   0.455 -1.5836  2.0565 -0.5518
 5476TIP3    H237988   1.991   4.293   0.570 -1.3874  1.0996 -0.8619
 5477TIP3   OH237989   5.790   0.544   1.360  1.0780  0.1173  0.3630
 5477TIP3    H137990   5.707   0.572   1.321 -0.5319 -3.6583  0.5928
 5477TIP3    H237991   5.778   0.556   1.454 -0.5677 -2.9574  0.6986
 5478TIP3   OH237992   6.146   6.153   6.839 -0.3167 -0.0042  0.3181
 5478TIP3    H137993   6.215   6.126   6.899 -1.5096 -0.3837  1.5796
 5478TIP3    H237994   6.139   6.248   6.851 -0.5347 -0.0771  0.7670
 5479TIP3   OH237995   2.127   4.412   6.604  0.8302  0.6133 -0.2640
 5479TIP3    H137996   2.050   4.408   6.661  0.5748  1.1892 -0.5602
 5479TIP3    H237997   2.183   4.479   6.643  1.9350 -0.8676  0.8393
 5480TIP3   OH237998   1.000   1.141   1.389 -0.3080 -0.3105 -0.1475
 5480TIP3    H137999   0.997   1.207   1.458 -4.1430 -0.4407  0.0249
 5480TIP3    H238000   0.987   1.189   1.308  1.1138 -0.4748 -0.4926
 5481TIP3   OH238001   0.751   4.627   8.453  0.1733 -0.2646 -0.3439
 5481TIP3    H138002   0.834   4.670   8.475  1.5681 -2.0480 -1.7948
 5481TIP3    H238003   0.777   4.542   8.417 -2.3353 -1.1200 -0.3143
 5482TIP3   OH238004   4.640   4.773   8.277 -0.1751  0.2584  0.1480
 5482TIP3    H138005   4.643   4.832   8.352  0.4846  0.3955  0.0126
 5482TIP3    H238006   4.571   4.808   8.221 -0.5326  0.2707  0.5918
 5483TIP3   OH238007   1.408   1.289   7.200 -0.2302 -0.7127 -0.1648
 5483TIP3    H138008   1.344   1.360   7.204  0.3475 -0.1919  0.1570
 5483TIP3    H238009   1.456   1.295   7.282 -0.2798 -1.5909 -0.0612
 5484TIP3   OH238010   6.342   1.448   6.741  0.0476  0.0394  0.3635
 5484TIP3    H138011   6.388   1.371   6.708  0.4388  0.2354  0.4487
 5484TIP3    H238012   6.372   1.457   6.831 -1.8062 -1.1129  1.1553
 5485TIP3   OH238013   6.281   3.988   6.882  0.5453 -0.4151 -0.3625
 5485TIP3    H138014   6.373   3.970   6.898  0.0489 -1.3326  1.8481
 5485TIP3    H238015   6.234   3.912   6.919 -1.1592  0.9851  0.5537
 5486TIP3   OH238016   3.691   2.328   8.436  0.5457  0.0163  0.6336
 5486TIP3    H138017   3.706   2.234   8.438  1.8490  0.1737 -0.3341
 5486TIP3    H238018   3.651   2.348   8.520 -0.3010 -1.4794  0.6070
 5487TIP3   OH238019   3.366   6.761   7.364  0.0658  0.1122 -0.1105
 5487TIP3    H138020   3.331   6.733   7.448 -0.7402 -0.3962 -0.6040
 5487TIP3    H238021   3.460   6.771   7.379 -0.2814  1.6488  1.2806
 5488TIP3   OH238022   5.798   4.255   6.795 -0.0130 -0.7903 -0.0855
 5488TIP3    H138023   5.712   4.296   6.789 -0.6651 -2.3060 -2.2749
 5488TIP3    H238024   5.782   4.173   6.841  0.1685 -1.2621 -0.8531
 5489TIP3   OH238025   5.232   4.806   2.149 -0.3147  0.4230 -0.4006
 5489TIP3    H138026   5.199   4.896   2.146 -2.4719 -0.2423  1.1264
 5489TIP3    H238027   5.171   4.760   2.207  1.8407 -1.5983  0.3927
 5490TIP3   OH238028   3.086   4.049   1.382 -0.4262 -0.0469 -0.5515
 5490TIP3    H138029   3.083   3.956   1.403 -0.0459 -0.1965 -1.1700
 5490TIP3    H238030   3.074   4.093   1.467 -2.1267 -0.6422 -0.4357
 5491TIP3   OH238031   1.182   3.390   6.677 -0.0987 -0.4326 -0.1127
 5491TIP3    H138032   1.151   3.325   6.615 -1.1294  0.4885 -0.5936
 5491TIP3    H238033   1.151   3.359   6.762  2.0320 -2.1350  0.1086
 5492TIP3   OH238034   5.174   6.790   8.119  0.2512 -0.6569  0.3960
 5492TIP3    H138035   5.103   6.850   8.096 -1.4671 -2.0093  1.8541
 5492TIP3    H238036   5.254   6.841   8.106 -1.0229  1.2576 -0.3724
 5493TIP3   OH238037   5.160   2.365   1.868 -0.3522 -0.0966 -0.6570
 5493TIP3    H138038   5.232   2.403   1.920 -0.8632 -0.8942  0.6837
 5493TIP3    H238039   5.200   2.292   1.821 -0.1888 -0.2908 -0.2224
 5494TIP3   OH238040   2.137   3.466   8.687 -0.2071  0.6285 -0.1394
 5494TIP3    H138041   2.139   3.453   8.782 -0.7885 -0.4689 -0.2639
 5494TIP3    H238042   2.052   3.508   8.670  0.5058  2.1662 -0.0367
 5495TIP3   OH238043   3.244   3.880   1.105 -0.2849  0.6685 -0.1056
 5495TIP3    H138044   3.194   3.833   1.173 -0.4512 -1.3777 -1.5553
 5495TIP3    H238045   3.305   3.935   1.154  1.2953 -2.5070  1.8330
 5496TIP3   OH238046   0.468   5.870   8.210  0.1697 -0.1011 -0.5720
 5496TIP3    H138047   0.454   5.963   8.191  2.6149 -0.2284 -3.9279
 5496TIP3    H238048   0.535   5.869   8.279 -0.4133  0.5791  0.0224
 5497TIP3   OH238049   0.767   1.366   1.667  0.7659  0.1506  0.6127
 5497TIP3    H138050   0.788   1.459   1.674  1.1372  0.1688 -0.5323
 5497TIP3    H238051   0.852   1.322   1.668  0.6849 -0.0512 -0.3775
 5498TIP3   OH238052   6.268   5.024   7.290 -0.1266  0.2337  0.2685
 5498TIP3    H138053   6.362   5.034   7.274 -0.1708  0.1947 -0.0257
 5498TIP3    H238054   6.247   4.938   7.253 -0.4265  0.5714 -0.3605
 5499TIP3   OH238055   4.868   5.096   8.133 -0.1810  0.3229  0.1173
 5499TIP3    H138056   4.851   5.017   8.083  2.2028 -1.9672  2.5649
 5499TIP3    H238057   4.964   5.105   8.132 -0.3817  3.6819 -0.6752
 5500TIP3   OH238058   5.995   5.318   8.420 -0.4260 -0.4317  0.7407
 5500TIP3    H138059   5.955   5.288   8.501 -0.2404  0.5716  1.2282
 5500TIP3    H238060   6.089   5.321   8.439  0.1509 -4.0198 -0.7928
 5501TIP3   OH238061   4.970   5.796   1.238  0.3138  0.0895  0.4117
 5501TIP3    H138062   5.055   5.833   1.214 -0.0053 -0.0101 -0.9160
 5501TIP3    H238063   4.981   5.701   1.231  0.2253  0.0526  0.7217
 5502TIP3   OH238064   6.129   1.744   6.580 -0.1879 -0.9664  0.1697
 5502TIP3    H138065   6.181   1.824   6.590  0.0384 -1.3119  2.3674
 5502TIP3    H238066   6.058   1.769   6.521 -0.7456  1.2068  1.6312
 5503TIP3   OH238067   3.899   5.091   6.899 -0.2371 -0.2180  0.0719
 5503TIP3    H138068   3.835   5.024   6.873 -0.3433 -0.9630  1.9958
 5503TIP3    H238069   3.965   5.041   6.947  0.0307  0.9753  0.9702
 5504TIP3   OH238070   3.056   3.790   1.640 -0.2180  0.3543  0.1703
 5504TIP3    H138071   2.977   3.751   1.676 -0.4472  0.8299  0.1883
 5504TIP3    H238072   3.042   3.885   1.647 -0.0838  0.4546 -0.7507
 5505TIP3   OH238073   2.725   0.107   8.096  0.6113  0.4571  1.0600
 5505TIP3    H138074   2.811   0.148   8.103  0.3618  0.7365  3.0979
 5505TIP3    H238075   2.741   0.025   8.049  1.3713  2.0735 -1.7210
 5506TIP3   OH238076   5.441   5.122   6.730 -0.0958  0.2059  0.0453
 5506TIP3    H138077   5.496   5.146   6.804  0.3224 -1.1127  0.1770
 5506TIP3    H238078   5.363   5.177   6.739 -0.5659 -0.7358  2.1149
 5507TIP3   OH238079   2.368   3.109   7.889  0.4925  0.2379 -0.2789
 5507TIP3    H138080   2.312   3.123   7.966  0.4390 -2.1212  0.1950
 5507TIP3    H238081   2.353   3.186   7.834 -0.8541  1.1369  1.2419
 5508TIP3   OH238082   6.734   4.353   7.833 -0.3555 -0.0554  0.0460
 5508TIP3    H138083   6.687   4.289   7.886  0.6964 -1.8095 -1.0518
 5508TIP3    H238084   6.720   4.324   7.743  0.4964  1.0271 -0.4538
 5509TIP3   OH238085   2.806   6.483   7.622 -1.1902  0.1406 -0.4098
 5509TIP3    H138086   2.759   6.542   7.681 -0.0268  0.6862  0.0080
 5509TIP3    H238087   2.882   6.454   7.673 -0.3442  0.3528 -1.5104
 5510TIP3   OH238088   3.604   5.252   8.070 -0.5238 -0.5940 -0.0741
 5510TIP3    H138089   3.641   5.202   8.143  0.8948 -1.0316 -1.0567
 5510TIP3    H238090   3.510   5.235   8.074 -0.1279 -3.1582 -0.2049
 5511TIP3   OH238091   1.618   5.120   1.510  0.5175 -0.1992 -0.1317
 5511TIP3    H138092   1.704   5.119   1.469  2.7024  1.1303  3.7966
 5511TIP3    H238093   1.621   5.050   1.576 -0.9734  0.5380  0.8002
 5512TIP3   OH238094   5.835   3.397   6.633  0.0292 -0.3754 -0.2189
 5512TIP3    H138095   5.767   3.392   6.565 -1.3745 -1.5534  1.1790
 5512TIP3    H238096   5.847   3.491   6.648 -0.6345 -0.1296 -1.1285
 5513TIP3   OH238097   2.688   1.010   7.611  0.2340  0.0467  0.0084
 5513TIP3    H138098   2.637   1.082   7.647  1.6218  0.2768  1.7010
 5513TIP3    H238099   2.639   0.931   7.634 -0.1518  0.3417  0.1913
 5514TIP3   OH238100   6.065   2.971   7.131  0.2262 -0.1636  0.4095
 5514TIP3    H138101   5.993   3.032   7.149  1.0063  0.4419  1.6738
 5514TIP3    H238102   6.134   3.026   7.093  1.1125 -0.1130  1.9998
 5515TIP3   OH238103   1.349   1.757   7.084 -0.2879 -0.3193  0.3037
 5515TIP3    H138104   1.407   1.824   7.050  0.5732 -1.5730 -0.7775
 5515TIP3    H238105   1.364   1.758   7.179  0.2742  0.4656  0.2162
 5516TIP3   OH238106   0.342   4.950   1.414  0.5513  0.1753  0.0662
 5516TIP3    H138107   0.289   4.900   1.477 -0.4680  1.7850  0.5822
 5516TIP3    H238108   0.298   4.937   1.330  0.0710  0.4852  0.2637
 5517TIP3   OH238109   5.397   1.503   0.631 -0.1250 -0.1245  0.0755
 5517TIP3    H138110   5.396   1.480   0.538 -0.7686  2.5557 -0.6753
 5517TIP3    H238111   5.358   1.428   0.675 -2.3578 -0.3916 -2.1407
 5518TIP3   OH238112   1.945   6.516   6.876 -0.1695 -0.1235 -0.4160
 5518TIP3    H138113   1.925   6.447   6.813 -0.4718 -0.2317 -0.2051
 5518TIP3    H238114   1.891   6.590   6.849 -0.3497 -0.1914 -0.2497
 5519TIP3   OH238115   6.049   4.279   0.115 -0.2386  0.0730 -0.5191
 5519TIP3    H138116   6.014   4.219   0.181  0.9054 -0.0793 -0.0155
 5519TIP3    H238117   5.975   4.297   0.057 -0.7207 -1.5097 -0.4505
 5520TIP3   OH238118   0.169   2.215   8.284  0.1851 -0.0274  0.1761
 5520TIP3    H138119   0.086   2.168   8.295 -0.6331  1.6753  1.9992
 5520TIP3    H238120   0.183   2.217   8.189 -0.3102 -2.8383 -0.0370
 5521TIP3   OH238121   5.538   5.613   6.389  0.3974  0.6916 -0.2635
 5521TIP3    H138122   5.493   5.542   6.435  1.1252  0.9790  0.9120
 5521TIP3    H238123   5.526   5.592   6.296  0.9408 -1.1833  0.0504
 5522TIP3   OH238124   2.823   2.881   7.642  0.3011  0.2558 -0.2541
 5522TIP3    H138125   2.875   2.920   7.712  1.0157  1.0362 -1.1972
 5522TIP3    H238126   2.765   2.951   7.613  0.7752  0.2877 -1.1729
 5523TIP3   OH238127   4.780   1.910   0.096 -0.2107 -0.3982  0.0955
 5523TIP3    H138128   4.867   1.880   0.120  0.0639  0.7226  0.5749
 5523TIP3    H238129   4.736   1.926   0.180 -0.8952 -1.0059 -0.1414
 5524TIP3   OH238130   2.505   4.841   1.138 -0.5214  0.0858  0.4419
 5524TIP3    H138131   2.480   4.888   1.218 -2.2141 -1.0542  0.6285
 5524TIP3    H238132   2.590   4.803   1.159 -0.0157  1.4342  0.9688
 5525TIP3   OH238133   1.980   2.683   7.049  0.2465  0.0080  0.3157
 5525TIP3    H138134   2.034   2.755   7.081  0.2162 -1.0962  3.1647
 5525TIP3    H238135   2.033   2.605   7.062 -0.3969 -0.6850 -1.0178
 5526TIP3   OH238136   1.966   5.717   6.774  0.1083  0.0098 -0.3261
 5526TIP3    H138137   1.993   5.787   6.715  0.9786 -0.2302 -0.2319
 5526TIP3    H238138   1.874   5.735   6.793  0.1753  0.8124 -0.7380
 5527TIP3   OH238139   1.490   4.266   6.890  0.4212 -0.5973  0.3887
 5527TIP3    H138140   1.547   4.313   6.829  2.1779 -2.6099  0.3521
 5527TIP3    H238141   1.471   4.183   6.846 -1.5933 -0.4791  0.9443
 5528TIP3   OH238142   5.755   1.733   0.134 -0.1819  0.1235  0.6107
 5528TIP3    H138143   5.839   1.688   0.135  0.4207  1.1842  0.1205
 5528TIP3    H238144   5.741   1.760   0.225  0.0140 -0.0450  0.6922
 5529TIP3   OH238145   1.219   0.955   0.195  0.7690  0.0703 -0.1102
 5529TIP3    H138146   1.203   0.973   0.103  1.3309 -0.7916 -0.3956
 5529TIP3    H238147   1.300   1.002   0.215  0.2776  0.8237  0.1390
 5530TIP3   OH238148   3.321   4.248   0.455  0.5271  0.3854 -0.7251
 5530TIP3    H138149   3.370   4.186   0.508 -0.5781 -0.6028 -0.8088
 5530TIP3    H238150   3.312   4.326   0.510 -0.3699 -0.5241  0.4499
 5531TIP3   OH238151   2.726   3.932   6.785  0.2928  0.0981  0.2001
 5531TIP3    H138152   2.808   3.902   6.747 -1.2850 -0.8340 -2.6833
 5531TIP3    H238153   2.694   4.000   6.725 -2.2326 -1.3161 -0.2078
 5532TIP3   OH238154   6.835   2.009   8.321  0.3978 -0.0394  0.1825
 5532TIP3    H138155   6.801   1.923   8.296  2.2084 -0.9061  0.5600
 5532TIP3    H238156   6.809   2.019   8.413 -0.0758 -0.0274  0.0535
 5533TIP3   OH238157   1.575   6.331   0.899  0.4904  0.3034  0.0355
 5533TIP3    H138158   1.642   6.350   0.964 -0.3243 -1.4227  1.4775
 5533TIP3    H238159   1.605   6.251   0.856  0.6124  0.9731 -1.1778
 5534TIP3   OH238160   6.727   3.209   1.941  0.3731  0.0613 -0.1391
 5534TIP3    H138161   6.643   3.233   1.980 -0.0529 -1.7184  0.1374
 5534TIP3    H238162   6.708   3.130   1.891  1.9115 -0.4520  0.0444
 5535TIP3   OH238163   3.924   3.903   7.198 -0.1968  0.0868  0.4953
 5535TIP3    H138164   3.907   3.862   7.114  0.8146  0.6411  0.0028
 5535TIP3    H238165   3.847   3.958   7.214  0.4958  1.5922 -1.0824
 5536TIP3   OH238166   3.451   0.490   7.156 -0.2679  0.1685 -0.2250
 5536TIP3    H138167   3.486   0.528   7.075 -0.0455  0.1748 -0.1239
 5536TIP3    H238168   3.514   0.514   7.224  1.1814 -2.4222 -0.5490
 5537TIP3   OH238169   0.836   6.721   1.183 -0.4196  0.2844  0.1994
 5537TIP3    H138170   0.826   6.649   1.121  1.2519 -0.3054  0.5722
 5537TIP3    H238171   0.915   6.766   1.155  0.7334 -0.3600  2.1886
 5538TIP3   OH238172   5.503   1.870   0.048 -0.0894 -0.3172 -0.0943
 5538TIP3    H138173   5.510   1.922  -0.032  0.2581  0.5868  0.5101
 5538TIP3    H238174   5.578   1.810   0.044  0.1173 -0.0467 -0.2840
 5539TIP3   OH238175   1.334   4.743   1.783 -0.2117  0.1672  0.3906
 5539TIP3    H138176   1.322   4.653   1.753  0.9971 -0.1581  0.8321
 5539TIP3    H238177   1.246   4.781   1.779 -0.4119 -0.3685 -1.8479
 5540TIP3   OH238178   2.596   6.817   1.045 -0.2252 -0.6204  0.3838
 5540TIP3    H138179   2.640   6.848   1.125 -1.6802  0.4744  0.7947
 5540TIP3    H238180   2.598   6.892   0.986 -0.2323 -1.0441 -0.1572
 5541TIP3   OH238181   3.866   4.035   1.948  0.6840  0.0591 -0.2135
 5541TIP3    H138182   3.839   4.106   1.890 -0.5017 -1.9192 -2.2329
 5541TIP3    H238183   3.916   3.976   1.892 -2.9181 -3.4048 -0.1888
 5542TIP3   OH238184   5.883   4.015   8.592 -0.4827  0.3298 -0.1825
 5542TIP3    H138185   5.903   3.945   8.528 -0.3074 -0.7967  1.0636
 5542TIP3    H238186   5.915   3.981   8.675  0.1535  2.1888  0.3647
 5543TIP3   OH238187   6.303   1.627   7.180  0.0193  0.4087 -0.1698
 5543TIP3    H138188   6.302   1.686   7.255 -0.4851 -2.0558  1.8615
 5543TIP3    H238189   6.388   1.583   7.186 -0.0537  0.1351 -1.0294
 5544TIP3   OH238190   2.972   1.956   6.958 -0.2764 -0.1064 -0.4050
 5544TIP3    H138191   3.030   2.019   6.915 -0.9282  0.5210 -0.3794
 5544TIP3    H238192   2.998   1.871   6.921 -1.0199  0.4401 -2.2919
 5545TIP3   OH238193   1.108   4.009   2.193  0.0288 -0.6371  0.4356
 5545TIP3    H138194   1.044   4.080   2.193 -0.1118 -0.7597  0.8882
 5545TIP3    H238195   1.068   3.940   2.139  0.2139 -0.3346 -0.0940
 5546TIP3   OH238196   4.266   1.261   6.943 -0.1019  0.5726 -0.0181
 5546TIP3    H138197   4.282   1.326   6.875  1.6371 -1.9657 -2.2354
 5546TIP3    H238198   4.351   1.248   6.985 -0.8385  1.0479  1.7305
 5547TIP3   OH238199   3.807   5.946   0.271 -0.0340  0.5025 -0.5369
 5547TIP3    H138200   3.748   5.983   0.336 -0.3580 -0.8674 -0.0015
 5547TIP3    H238201   3.891   5.940   0.317  0.7220  2.9243 -1.4583
 5548TIP3   OH238202   6.244   4.055   1.342  0.5476 -0.9390 -0.4471
 5548TIP3    H138203   6.221   4.101   1.261 -0.1646 -0.3680  0.0666
 5548TIP3    H238204   6.201   3.970   1.334  0.7305 -1.0007 -0.7977
 5549TIP3   OH238205   2.020   4.466   6.166  0.4454 -0.0480 -0.0185
 5549TIP3    H138206   1.996   4.413   6.241 -0.2125 -0.3986 -0.4669
 5549TIP3    H238207   2.039   4.403   6.096  1.2221  0.2668 -0.1013
 5550TIP3   OH238208   0.188   2.767   7.304 -0.1429  0.6770 -0.1754
 5550TIP3    H138209   0.159   2.707   7.373  0.0155  0.9605  0.1448
 5550TIP3    H238210   0.172   2.720   7.223  1.3198 -0.3919  0.1127
 5551TIP3   OH238211   6.061   1.472   1.942 -0.1006 -0.1939 -0.1484
 5551TIP3    H138212   6.017   1.412   1.883  1.3240 -0.9346 -0.4877
 5551TIP3    H238213   6.055   1.431   2.028  1.6217 -1.3085 -0.5141
 5552TIP3   OH238214   6.028   3.929   7.622  0.3377 -0.0754 -0.7854
 5552TIP3    H138215   5.938   3.949   7.646  0.6305 -1.1208  1.3853
 5552TIP3    H238216   6.080   3.999   7.663  0.5637  0.6059 -2.1412
 5553TIP3   OH238217   5.915   0.648   6.796 -0.0710  0.3918 -0.0805
 5553TIP3    H138218   5.869   0.649   6.712 -0.0949 -0.3752 -0.0852
 5553TIP3    H238219   6.002   0.684   6.777 -0.4922  1.4019 -0.1688
 5554TIP3   OH238220   6.559   1.453   0.780 -0.2239  0.2095 -0.3398
 5554TIP3    H138221   6.532   1.367   0.747  0.0479 -0.0687  0.1664
 5554TIP3    H238222   6.639   1.437   0.829 -1.2864  0.4109  1.5531
 5555TIP3   OH238223   5.763   6.642   8.165  0.2801  0.2327 -0.0430
 5555TIP3    H138224   5.746   6.621   8.257  1.8085  1.0073  0.4573
 5555TIP3    H238225   5.697   6.593   8.116 -0.4134 -0.3777  1.4511
 5556TIP3   OH238226   0.106   5.169   6.993 -0.9369 -0.4126  0.1667
 5556TIP3    H138227   0.139   5.176   7.083  0.3571  1.3906 -0.3967
 5556TIP3    H238228   0.023   5.219   6.995 -1.7713 -1.7705  0.7061
 5557TIP3   OH238229   5.918   6.438   8.594 -0.4899  0.2956  0.2055
 5557TIP3    H138230   5.991   6.430   8.657 -0.0085 -0.4257 -0.4226
 5557TIP3    H238231   5.871   6.355   8.602  0.1825 -0.2415 -1.1003
 5558TIP3   OH238232   5.810   5.788   6.858  0.1736 -0.1734  0.6585
 5558TIP3    H138233   5.897   5.752   6.837  0.6233  1.0753  0.2698
 5558TIP3    H238234   5.823   5.883   6.857 -1.0299  0.0198  1.3868
 5559TIP3   OH238235   3.330   1.131   1.953  0.5954  0.3237 -0.4326
 5559TIP3    H138236   3.310   1.185   2.030  1.0619 -0.2354  0.0841
 5559TIP3    H238237   3.406   1.079   1.978  0.1721 -0.5633 -0.9316
 5560TIP3   OH238238   0.800   4.731   0.077 -0.3299  0.3133  0.1370
 5560TIP3    H138239   0.877   4.680   0.051  1.6589  3.4042 -0.7606
 5560TIP3    H238240   0.727   4.690   0.032  1.0598 -1.7490 -0.3935
 5561TIP3   OH238241   5.766   4.969   6.979  0.4290 -1.1044  0.7808
 5561TIP3    H138242   5.843   5.007   7.021  1.1195  0.0081 -1.3304
 5561TIP3    H238243   5.697   4.975   7.045  1.8919 -1.1719  2.3609
 5562TIP3   OH238244   2.004   1.903   7.997 -0.4141 -0.6081  0.5441
 5562TIP3    H138245   2.044   1.833   8.049  0.0360 -0.9251 -0.2102
 5562TIP3    H238246   2.014   1.981   8.051  0.4458 -0.8480  0.7512
 5563TIP3   OH238247   4.657   3.771   1.590  0.5389  0.6654  0.6195
 5563TIP3    H138248   4.567   3.786   1.562 -0.2229 -2.0140  1.2877
 5563TIP3    H238249   4.656   3.784   1.685  0.9403  1.0164  0.5759
 5564TIP3   OH238250   5.997   1.625   0.161 -0.4070  0.2397  0.5002
 5564TIP3    H138251   6.047   1.707   0.163  1.2053 -0.6750  0.1086
 5564TIP3    H238252   6.051   1.563   0.211 -2.1306 -0.3213  1.7555
 5565TIP3   OH238253   2.663   6.849   8.603 -0.1600  0.2587  0.2182
 5565TIP3    H138254   2.679   6.795   8.680 -1.4928  0.4818  0.6786
 5565TIP3    H238255   2.681   6.939   8.633 -0.2634  0.3030  0.1485
 5566TIP3   OH238256   2.856   2.214   1.615 -0.2695 -0.2025  0.0512
 5566TIP3    H138257   2.891   2.127   1.636  1.3083  0.9043  2.5214
 5566TIP3    H238258   2.833   2.251   1.700 -1.8324  1.4511 -1.0454
 5567TIP3   OH238259   4.148   5.209   7.280  0.3662  0.0903 -0.3697
 5567TIP3    H138260   4.066   5.246   7.247 -0.1965 -0.1288  0.7432
 5567TIP3    H238261   4.162   5.252   7.364  0.0430 -1.6912  0.6474
 5568TIP3   OH238262   6.540   3.727   7.171  0.3111  0.1172  0.0722
 5568TIP3    H138263   6.611   3.769   7.218  0.9821 -0.5245 -0.3404
 5568TIP3    H238264   6.536   3.638   7.208  0.7453 -0.3425 -0.9511
 5569TIP3   OH238265   0.393   3.369   7.856  0.3139  0.3532 -0.1781
 5569TIP3    H138266   0.365   3.453   7.819 -1.5266 -0.1999 -0.1083
 5569TIP3    H238267   0.328   3.350   7.924  0.9551 -0.9379  0.0921
 5570TIP3   OH238268   0.433   0.127   8.372  0.0022 -0.6210  0.2226
 5570TIP3    H138269   0.339   0.124   8.352  0.3531 -0.5323 -1.5822
 5570TIP3    H238270   0.444   0.209   8.421 -0.7980 -0.4166  0.0775
 5571TIP3   OH238271   1.052   1.686   7.105  0.1006  0.4324 -0.7003
 5571TIP3    H138272   1.034   1.703   7.198  0.8919 -0.1965 -0.4245
 5571TIP3    H238273   1.142   1.716   7.093 -0.0479  0.6355 -1.2993
 5572TIP3   OH238274   5.053   2.702   2.513 -0.2962  0.3994  0.5747
 5572TIP3    H138275   5.058   2.617   2.557  1.1867  0.5278  0.7144
 5572TIP3    H238276   5.090   2.686   2.426 -0.8741  0.7053  0.2691
 5573TIP3   OH238277   4.167   1.760   0.136 -0.1488  0.5691 -0.0889
 5573TIP3    H138278   4.229   1.720   0.076  0.6282  0.2657  0.8873
 5573TIP3    H238279   4.081   1.737   0.101  0.2822 -1.0449 -0.1531
 5574TIP3   OH238280   4.423   6.767   8.482  0.2078  0.6734  0.3711
 5574TIP3    H138281   4.400   6.697   8.421 -0.9431 -0.3092  1.8684
 5574TIP3    H238282   4.514   6.748   8.507 -0.4214 -0.9725  1.5786
 5575TIP3   OH238283   2.391   0.934   7.496 -0.3994 -0.6355 -0.2861
 5575TIP3    H138284   2.306   0.947   7.538 -0.5807  1.1144 -1.1265
 5575TIP3    H238285   2.421   0.849   7.529 -2.8792 -1.7633 -0.7011
 5576TIP3   OH238286   4.388   5.173   8.026 -0.1830 -0.0540 -0.4425
 5576TIP3    H138287   4.391   5.081   8.052  1.4067  0.0465 -0.2113
 5576TIP3    H238288   4.473   5.190   7.985 -0.4762  1.2982 -0.5450
 5577TIP3   OH238289   5.178   4.668   5.792 -0.2863 -0.3508  0.5605
 5577TIP3    H138290   5.104   4.639   5.738 -0.4949 -2.8160  2.0064
 5577TIP3    H238291   5.169   4.763   5.797 -0.8748 -0.1205 -2.7728
 5578TIP3   OH238292   1.675   4.089   7.866  0.8124 -0.0723  0.3789
 5578TIP3    H138293   1.596   4.035   7.871  2.1697 -2.1502  0.3562
 5578TIP3    H238294   1.641   4.179   7.862 -1.5067 -0.5885  3.7050
 5579TIP3   OH238295   6.189   5.256   7.767 -0.1622 -0.3105 -0.1647
 5579TIP3    H138296   6.208   5.223   7.679 -0.9847 -0.9653 -0.1026
 5579TIP3    H238297   6.264   5.227   7.820  0.7229  0.7465 -0.7831
 5580TIP3   OH238298   1.939   6.838   8.693  0.4094  0.2818 -0.6552
 5580TIP3    H138299   1.858   6.888   8.697  0.3507  0.2122 -0.9646
 5580TIP3    H238300   1.956   6.814   8.784  1.1789  2.0244 -0.2967
 5581TIP3   OH238301   5.098   6.200   2.209  0.1485  0.5486  0.4566
 5581TIP3    H138302   5.103   6.288   2.246  0.6387  0.3956  0.7617
 5581TIP3    H238303   5.066   6.145   2.281  0.9219  0.2840  0.6124
 5582TIP3   OH238304   6.815   0.803   0.710  0.2706 -0.2155  0.0961
 5582TIP3    H138305   6.891   0.861   0.706 -0.7939  1.2551  0.3670
 5582TIP3    H238306   6.825   0.754   0.792 -0.5840  2.1974  1.7388
 5583TIP3   OH238307   3.825   6.406   7.319 -0.0196  0.3071  0.4155
 5583TIP3    H138308   3.817   6.491   7.362 -0.4174  1.3705 -1.6319
 5583TIP3    H238309   3.914   6.377   7.338 -0.7245 -0.1776  3.4263
 5584TIP3   OH238310   2.392   4.406   2.188  0.2809  0.0067  0.1107
 5584TIP3    H138311   2.424   4.347   2.119 -0.1114 -0.1245  0.0388
 5584TIP3    H238312   2.375   4.489   2.142  2.4761  0.7470  0.5088
 5585TIP3   OH238313   2.732   6.457   8.116 -0.8019 -0.0309  0.0267
 5585TIP3    H138314   2.680   6.445   8.036  1.3395 -2.9117 -1.1101
 5585TIP3    H238315   2.726   6.373   8.161 -0.9577  1.1487  2.3097
 5586TIP3   OH238316   0.906   3.165   7.450  0.2618  0.0028  0.3676
 5586TIP3    H138317   0.851   3.112   7.392  1.4407 -0.6433 -0.2279
 5586TIP3    H238318   0.847   3.200   7.516 -1.3379  1.5920 -1.7756
 5587TIP3   OH238319   5.596   4.650   7.318 -0.2389  0.1916  0.0558
 5587TIP3    H138320   5.589   4.611   7.406  0.4328 -1.6250 -0.6398
 5587TIP3    H238321   5.689   4.641   7.296 -0.4150  0.5604 -0.8647
 5588TIP3   OH238322   3.776   3.675   0.186 -0.1525  0.0878 -0.0328
 5588TIP3    H138323   3.818   3.651   0.268 -0.1112 -0.1542 -0.1232
 5588TIP3    H238324   3.754   3.768   0.196 -1.4321 -0.2871  0.7950
 5589TIP3   OH238325   2.916   6.540   7.259  0.9774  0.4424  0.0082
 5589TIP3    H138326   2.826   6.528   7.290  0.7604  0.9753 -0.4029
 5589TIP3    H238327   2.911   6.616   7.200  1.7658  0.7342  0.3028
 5590TIP3   OH238328   6.693   0.203   0.488  0.2672 -0.1970 -0.0042
 5590TIP3    H138329   6.761   0.140   0.512  0.8878  0.1165 -0.8962
 5590TIP3    H238330   6.714   0.229   0.399  0.0606  1.3232  0.3587
 5591TIP3   OH238331   1.911   5.977   1.021  0.0246 -0.3258 -0.2064
 5591TIP3    H138332   1.886   5.885   1.008  1.0654 -0.5071 -1.1346
 5591TIP3    H238333   1.991   5.973   1.074 -1.3584  0.2033  2.0399
 5592TIP3   OH238334   0.706   5.456   6.309  0.1767  0.4198  0.6297
 5592TIP3    H138335   0.695   5.550   6.321  0.5497  0.5564 -0.0219
 5592TIP3    H238336   0.781   5.448   6.250 -0.9998 -0.1993 -0.8581
 5593TIP3   OH238337   2.229   0.967   0.905  0.3601  0.6586 -0.7041
 5593TIP3    H138338   2.239   1.049   0.954 -1.0577  0.8551 -0.7054
 5593TIP3    H238339   2.283   0.904   0.953  0.0912  1.1809  0.3109
 5594TIP3   OH238340   6.553   3.484   0.946 -0.8262 -0.7718  0.1400
 5594TIP3    H138341   6.465   3.507   0.975  0.3504  0.7245  2.9242
 5594TIP3    H238342   6.549   3.389   0.933 -2.9715 -0.6669 -0.4101
 5595TIP3   OH238343   6.631   5.893   1.923  0.3592  0.1210  0.1861
 5595TIP3    H138344   6.593   5.976   1.896  0.9857  0.1823 -0.5158
 5595TIP3    H238345   6.706   5.917   1.977  0.5505  0.0080 -0.0300
 5596TIP3   OH238346   4.938   0.003   0.550  0.2012  0.5825 -0.4186
 5596TIP3    H138347   4.991  -0.038   0.482  0.2004 -0.7908  0.3688
 5596TIP3    H238348   4.850  -0.032   0.536  0.0498  0.8597 -0.1607
 5597TIP3   OH238349   1.169   2.985   6.877  0.6314 -0.0687 -0.3293
 5597TIP3    H138350   1.194   2.909   6.930  0.0051 -0.2158 -0.2418
 5597TIP3    H238351   1.120   2.949   6.803 -1.5784  0.3624  0.8360
 5598TIP3   OH238352   1.555   0.509   1.264  0.0346  0.3607 -0.4512
 5598TIP3    H138353   1.509   0.562   1.329 -0.4920 -0.6205  0.0018
 5598TIP3    H238354   1.645   0.501   1.297 -0.0049  0.5963 -0.2935
 5599TIP3   OH238355   4.487   5.063   1.498 -0.0927 -0.2126  0.6691
 5599TIP3    H138356   4.558   5.001   1.512 -0.0966 -0.6777 -1.0380
 5599TIP3    H238357   4.430   5.052   1.574  0.9903 -0.7570  1.4292
 5600TIP3   OH238358   2.682   0.385   1.160  0.3115 -0.2182  0.4676
 5600TIP3    H138359   2.769   0.346   1.171  0.2045 -2.1324 -3.6942
 5600TIP3    H238360   2.625   0.332   1.216  0.9812 -3.0835 -1.3484
 5601TIP3   OH238361   6.372   4.762   0.883 -0.2354  0.1467 -1.0928
 5601TIP3    H138362   6.301   4.772   0.821 -1.9787  0.1689  0.7871
 5601TIP3    H238363   6.441   4.821   0.852 -1.8680  1.7242 -1.8460
 5602TIP3   OH238364   6.164   2.402   6.826  0.8453 -0.0694  0.6427
 5602TIP3    H138365   6.072   2.426   6.810  0.2923 -3.3186 -2.2975
 5602TIP3    H238366   6.179   2.425   6.917 -3.3687 -0.6151  1.7076
 5603TIP3   OH238367   1.873   5.169   7.861 -0.2781 -0.7851 -0.0438
 5603TIP3    H138368   1.920   5.132   7.786 -2.2422 -1.0261 -1.2189
 5603TIP3    H238369   1.880   5.102   7.929  0.6908 -0.9899 -0.3201
 5604TIP3   OH238370   5.717   0.941   8.352 -0.0519  0.5482  0.1014
 5604TIP3    H138371   5.803   0.899   8.357 -0.6596 -0.9270 -1.1036
 5604TIP3    H238372   5.718   0.988   8.269 -1.0420 -1.0766 -0.8927
 5605TIP3   OH238373   1.777   2.542   0.117 -0.6379  0.3839  0.0788
 5605TIP3    H138374   1.706   2.534   0.054 -0.7472 -1.2659  0.3626
 5605TIP3    H238375   1.843   2.480   0.086 -0.3302  0.1845  1.0961
 5606TIP3   OH238376   4.826   5.381   7.274 -0.8876  0.4515 -0.3461
 5606TIP3    H138377   4.793   5.333   7.349 -1.3213  0.2705 -0.6481
 5606TIP3    H238378   4.817   5.320   7.201 -0.5320  0.6477 -0.5568
 5607TIP3   OH238379   4.814   6.161   7.070 -0.0544 -0.2600 -0.0850
 5607TIP3    H138380   4.815   6.072   7.035  1.6872  0.3239 -1.7284
 5607TIP3    H238381   4.906   6.181   7.089 -0.2174  1.5940 -0.9726
 5608TIP3   OH238382   1.277   2.151   7.511  0.5280  0.0799 -0.9159
 5608TIP3    H138383   1.313   2.218   7.569  0.7605  1.0360 -2.1295
 5608TIP3    H238384   1.288   2.069   7.559  0.6167  0.8469  0.4258
 5609TIP3   OH238385   1.364   0.011   1.069 -0.4727 -0.3955  0.1066
 5609TIP3    H138386   1.433  -0.018   1.009  1.1646  0.6473  1.4133
 5609TIP3    H238387   1.342  -0.068   1.119  0.3778 -0.5584  0.2468
 5610TIP3   OH238388   0.607   6.760   8.050  0.2149  0.3741 -0.1793
 5610TIP3    H138389   0.541   6.758   8.119 -0.4811  0.6461 -0.8125
 5610TIP3    H238390   0.557   6.749   7.969  1.1118 -0.8445 -0.5932
 5611TIP3   OH238391   3.966   1.681   7.698 -0.1401 -0.2061 -0.4063
 5611TIP3    H138392   3.909   1.609   7.722  2.1968 -1.2068  2.7726
 5611TIP3    H238393   3.913   1.760   7.714 -1.9112 -1.1187 -1.5495
 5612TIP3   OH238394   3.143   3.114   1.244  0.3169  0.1038  0.5826
 5612TIP3    H138395   3.201   3.064   1.302  2.6798  1.8182 -0.1839
 5612TIP3    H238396   3.119   3.191   1.296 -0.0830  0.1265  0.3638
 5613TIP3   OH238397   3.390   6.116   8.140 -0.3700 -0.3661 -0.1224
 5613TIP3    H138398   3.364   6.033   8.180  0.6904 -0.2394  0.8785
 5613TIP3    H238399   3.459   6.092   8.079 -0.6433 -0.3107 -0.4592
 5614TIP3   OH238400   6.341   2.122   2.209  0.2723  0.8006  0.3517
 5614TIP3    H138401   6.414   2.157   2.158 -0.4479  0.9554 -0.5941
 5614TIP3    H238402   6.269   2.184   2.194  0.1033  1.0015  1.7748
 5615TIP3   OH238403   6.575   3.772   0.921 -0.9218  0.6027  0.2020
 5615TIP3    H138404   6.608   3.806   1.004  1.7058  0.2163 -0.6153
 5615TIP3    H238405   6.573   3.677   0.933  0.0671  0.5046 -0.3713
 5616TIP3   OH238406   0.721   6.300   8.041 -0.4182  0.0850  0.1965
 5616TIP3    H138407   0.803   6.314   8.088  0.4015 -0.8829 -0.8850
 5616TIP3    H238408   0.705   6.382   7.996  0.7174 -0.1514 -0.6882
 5617TIP3   OH238409   4.463   6.035   8.293 -0.2057  0.1895  0.0777
 5617TIP3    H138410   4.461   6.082   8.376 -0.4578 -1.8419  1.3094
 5617TIP3    H238411   4.555   6.032   8.269  0.1595 -0.9722  1.4328
 5618TIP3   OH238412   3.315   1.893   7.386  0.3853 -0.1535 -0.1860
 5618TIP3    H138413   3.334   1.862   7.298  1.0626 -0.1266 -0.0488
 5618TIP3    H238414   3.394   1.874   7.436 -0.0370 -0.2691  0.4434
 5619TIP3   OH238415   0.419   4.852   8.693  0.4404  0.3252  0.0795
 5619TIP3    H138416   0.354   4.801   8.741  1.4761 -2.5516 -1.3836
 5619TIP3    H238417   0.468   4.899   8.760 -1.2644  0.2836  1.4015
 5620TIP3   OH238418   3.993   5.606   7.505  0.5907 -0.2236  0.4670
 5620TIP3    H138419   4.004   5.536   7.568 -1.5611 -0.4551  0.6548
 5620TIP3    H238420   3.983   5.685   7.558  1.2591 -0.0246  0.3103
 5621TIP3   OH238421   6.730   4.663   6.507  0.0757  0.4797 -0.0029
 5621TIP3    H138422   6.645   4.656   6.551 -0.0700  0.3540 -0.2999
 5621TIP3    H238423   6.733   4.587   6.449 -0.1147  1.1001 -0.8546
 5622TIP3   OH238424   4.113   3.922   8.664 -0.1532 -0.2230 -0.0287
 5622TIP3    H138425   4.050   3.969   8.611 -0.3379 -1.2402 -0.7491
 5622TIP3    H238426   4.169   3.876   8.601  1.2582  0.5665  0.5899
 5623TIP3   OH238427   1.564   5.936   1.580  1.0563  0.2384  0.4498
 5623TIP3    H138428   1.589   6.020   1.618  0.2796  0.4815  0.4404
 5623TIP3    H238429   1.533   5.884   1.654 -2.4141  1.4148  0.0096
 5624TIP3   OH238430   0.512   0.914   7.820 -0.4035  0.9142  0.6942
 5624TIP3    H138431   0.461   0.895   7.899 -0.7383 -0.0440  0.2687
 5624TIP3    H238432   0.582   0.849   7.820  0.6941  2.0742  1.1444
 5625TIP3   OH238433   2.118   0.091   0.658 -0.3347  0.1504 -0.5080
 5625TIP3    H138434   2.066   0.134   0.726  0.4210  0.6177 -0.2218
 5625TIP3    H238435   2.053   0.043   0.606 -0.9905  0.2802  0.1699
 5626TIP3   OH238436   3.295   0.423   1.458  0.5417  0.2208  0.9052
 5626TIP3    H138437   3.216   0.461   1.496  0.5048 -0.1854  1.2412
 5626TIP3    H238438   3.265   0.375   1.381  0.6923  1.5655 -0.0317
 5627TIP3   OH238439   5.156   4.481   5.986 -0.4368 -0.2750 -0.2357
 5627TIP3    H138440   5.179   4.540   6.058  1.8129 -0.9612 -0.2963
 5627TIP3    H238441   5.154   4.537   5.909  1.2178 -0.1398 -0.2217
 5628TIP3   OH238442   1.770   5.774   8.240 -0.0509 -0.8399 -0.2767
 5628TIP3    H138443   1.722   5.799   8.319 -0.7129 -0.4111 -0.8015
 5628TIP3    H238444   1.823   5.699   8.267  0.0259 -0.4596  0.6686
 5629TIP3   OH238445   4.630   3.608   0.886 -0.3570  0.6522  0.1412
 5629TIP3    H138446   4.556   3.618   0.947 -1.7475  0.3665 -1.4249
 5629TIP3    H238447   4.684   3.685   0.901  0.0129  0.0369  2.5373
 5630TIP3   OH238448   0.609   1.877   1.957 -0.2270  0.4680 -0.0438
 5630TIP3    H138449   0.659   1.797   1.941  0.3503  0.7639  0.2429
 5630TIP3    H238450   0.664   1.947   1.921 -0.1773  0.8553  0.7693
 5631TIP3   OH238451   0.430   1.473   6.713  0.3136  0.0137 -0.1977
 5631TIP3    H138452   0.511   1.520   6.693  0.8573 -0.7271  0.2228
 5631TIP3    H238453   0.434   1.393   6.661 -1.0061  0.7894 -1.5674
 5632TIP3   OH238454   4.892   4.870   8.323 -0.2657 -0.3902  0.2315
 5632TIP3    H138455   4.909   4.931   8.251 -2.5363  0.0632  0.0278
 5632TIP3    H238456   4.807   4.831   8.302 -1.5245  0.5259  3.1454
 5633TIP3   OH238457   3.930   1.549   7.472 -0.3653 -0.7713 -0.7091
 5633TIP3    H138458   4.017   1.511   7.460 -0.0168  0.1289 -1.0908
 5633TIP3    H238459   3.944   1.623   7.532 -0.5451  0.4946 -2.1861
 5634TIP3   OH238460   2.351   5.447   7.178  0.1326  0.0639  0.6286
 5634TIP3    H138461   2.299   5.514   7.132 -0.4020 -1.2190 -0.7109
 5634TIP3    H238462   2.286   5.395   7.225  0.4270 -0.2383  0.6969
 5635TIP3   OH238463   0.738   4.095   1.066 -0.7872  0.2539 -0.2636
 5635TIP3    H138464   0.680   4.088   1.142  0.0411 -0.6625  0.3140
 5635TIP3    H238465   0.732   4.186   1.039  1.1437  1.4590  2.7616
 5636TIP3   OH238466   3.696   3.715   1.966  0.6971  0.7027 -0.2288
 5636TIP3    H138467   3.662   3.750   1.883  0.6426  1.9647  0.3030
 5636TIP3    H238468   3.664   3.776   2.032  0.5389 -0.4243  0.7638
 5637TIP3   OH238469   4.528   4.974   7.630 -0.0753  0.5546  0.2637
 5637TIP3    H138470   4.586   4.945   7.559  0.9463 -0.5112  1.4922
 5637TIP3    H238471   4.484   5.051   7.595  0.6823  0.2754 -1.3890
 5638TIP3   OH238472   3.105   6.426   7.403 -0.2984  0.3234  0.0502
 5638TIP3    H138473   3.027   6.451   7.355 -1.5217 -2.3039  0.4628
 5638TIP3    H238474   3.082   6.342   7.444  1.1987  1.5707  3.8818
 5639TIP3   OH238475   6.559   5.145   1.172 -0.3097  0.2112  0.1334
 5639TIP3    H138476   6.541   5.062   1.216 -0.5909 -0.0380 -0.4362
 5639TIP3    H238477   6.481   5.198   1.188 -1.5824 -0.8196 -2.2173
 5640TIP3   OH238478   3.999   0.445   0.622 -0.3074 -0.1977 -0.3727
 5640TIP3    H138479   4.092   0.469   0.627  0.1409 -1.5151 -1.7758
 5640TIP3    H238480   3.956   0.523   0.588  0.1500  0.6511  0.9022
 5641TIP3   OH238481   2.629   1.996   8.276  0.2669  0.1607 -0.1567
 5641TIP3    H138482   2.644   1.907   8.243  0.7834  0.1203  0.1794
 5641TIP3    H238483   2.542   1.992   8.315 -0.1401  0.0733 -1.0330
 5642TIP3   OH238484   5.416   4.385   1.304 -0.3396 -0.4728 -0.5288
 5642TIP3    H138485   5.334   4.353   1.340 -0.4191  0.1293 -0.1724
 5642TIP3    H238486   5.405   4.480   1.299  0.5072 -0.3419 -0.0359
 5643TIP3   OH238487   5.002   5.795   0.658 -0.6730 -0.0159  0.0807
 5643TIP3    H138488   4.907   5.792   0.645 -0.5243 -2.3211 -0.8836
 5643TIP3    H238489   5.038   5.742   0.587  1.3313  0.4496  0.6793
 5644TIP3   OH238490   2.874   3.786   0.009 -0.4433 -0.2387  0.2068
 5644TIP3    H138491   2.882   3.708   0.065 -0.0271 -0.3179  0.0440
 5644TIP3    H238492   2.917   3.760  -0.073  0.6471  0.5171  0.5223
 5645TIP3   OH238493   3.262   2.111   7.196 -0.0822 -0.2426 -0.3671
 5645TIP3    H138494   3.297   2.023   7.208  0.0928 -0.1492 -0.1901
 5645TIP3    H238495   3.175   2.108   7.237 -0.0375 -0.3065 -0.2759
 5646TIP3   OH238496   6.813   5.066   7.878  0.5464 -0.2315  1.0099
 5646TIP3    H138497   6.880   5.134   7.887  1.1263 -0.7435  0.6057
 5646TIP3    H238498   6.859   4.991   7.841 -0.5704 -0.0865 -0.7704
 5647TIP3   OH238499   2.253   4.264   6.172 -0.6147  0.0241 -0.3478
 5647TIP3    H138500   2.297   4.296   6.251  0.0303  0.7041 -0.9717
 5647TIP3    H238501   2.205   4.186   6.201  0.3383 -0.2569  0.5168
 5648TIP3   OH238502   1.145   1.211   0.948 -0.0119  0.2425 -0.2281
 5648TIP3    H138503   1.170   1.238   0.860  0.6249  1.4405  0.2972
 5648TIP3    H238504   1.049   1.212   0.948 -0.0073  0.8412 -0.7268
 5649TIP3   OH238505   1.004   0.365   1.002 -0.3735  0.1320 -0.2726
 5649TIP3    H138506   1.068   0.328   0.941  0.9448  1.1888  0.4328
 5649TIP3    H238507   1.026   0.326   1.086 -0.5011  0.7011  0.0236
 5650TIP3   OH238508   4.317   1.391   8.724  0.2375  0.1478  0.6646
 5650TIP3    H138509   4.352   1.447   8.793  1.1173  0.8414 -0.3087
 5650TIP3    H238510   4.240   1.438   8.692  1.4041  1.2697 -0.6719
 5651TIP3   OH238511   1.800   1.081   0.955 -0.2021  0.3653  0.2234
 5651TIP3    H138512   1.814   0.987   0.959 -1.5842  0.1652  1.1959
 5651TIP3    H238513   1.874   1.115   0.905 -0.9493 -1.5065 -2.3571
 5652TIP3   OH238514   4.334   6.846   6.888  0.3668 -0.3478 -0.0565
 5652TIP3    H138515   4.267   6.864   6.954  0.6676 -0.8172  0.3859
 5652TIP3    H238516   4.328   6.751   6.874  0.0201 -0.1924 -1.0179
 5653TIP3   OH238517   4.783   1.518   8.309  0.0722  0.4860  0.2640
 5653TIP3    H138518   4.753   1.508   8.399  0.5345 -0.2080  0.3488
 5653TIP3    H238519   4.838   1.441   8.293 -1.3793 -0.3120 -1.1696
 5654TIP3   OH238520   4.728   1.929   1.285 -0.6892 -0.0875  0.0682
 5654TIP3    H138521   4.691   1.941   1.372 -3.8354 -1.7112 -0.8801
 5654TIP3    H238522   4.694   2.003   1.234 -0.0783  0.0564 -0.1356
 5655TIP3   OH238523   1.307   6.627   1.154 -0.0319  0.4662 -0.0906
 5655TIP3    H138524   1.298   6.553   1.214  1.3661  1.1607  1.0459
 5655TIP3    H238525   1.333   6.587   1.070 -2.4181 -0.5490 -0.4227
 5656TIP3   OH238526   4.747   0.596   8.159  0.4460 -0.2849 -0.1933
 5656TIP3    H138527   4.817   0.656   8.131  0.1299 -0.1722 -0.7522
 5656TIP3    H238528   4.677   0.610   8.096 -0.4938  0.3481  0.9423
 5657TIP3   OH238529   6.499   2.046   0.616 -0.1104 -0.6096 -0.2416
 5657TIP3    H138530   6.525   2.136   0.630 -0.0261 -0.4862 -1.1253
 5657TIP3    H238531   6.580   2.000   0.593  0.1169 -1.2564  1.7137
 5658TIP3   OH238532   5.186   4.692   8.031  0.3310  0.0007 -0.0750
 5658TIP3    H138533   5.267   4.720   8.073  0.1337  1.1835 -0.4445
 5658TIP3    H238534   5.133   4.656   8.102  0.3462  1.1905  0.5756
 5659TIP3   OH238535   0.539   2.426   0.121  0.6423 -0.4032 -1.1127
 5659TIP3    H138536   0.451   2.413   0.157  2.0215  0.6087  3.2078
 5659TIP3    H238537   0.595   2.366   0.171  2.8420  1.3069 -1.3694
 5660TIP3   OH238538   4.828   2.061   7.978  0.9388 -0.3845 -0.1520
 5660TIP3    H138539   4.812   2.101   8.063 -0.2288 -1.1192 -0.0017
 5660TIP3    H238540   4.893   1.993   7.996 -1.1030 -2.2298  0.7029
 5661TIP3   OH238541   4.200   3.891   8.226  0.0936 -0.2294  0.2673
 5661TIP3    H138542   4.131   3.825   8.219  0.4235 -0.6191  0.5843
 5661TIP3    H238543   4.220   3.916   8.136 -1.3821  0.8675  0.2217
 5662TIP3   OH238544   6.311   6.539   7.591  0.5030 -0.0463  0.0885
 5662TIP3    H138545   6.227   6.504   7.623  0.9963 -0.6291  0.7804
 5662TIP3    H238546   6.359   6.560   7.671  0.6713  1.1495 -0.3171
 5663TIP3   OH238547   1.704   1.745   0.713  1.1153 -0.2202  0.1926
 5663TIP3    H138548   1.667   1.759   0.799  1.6987  2.3815  0.0947
 5663TIP3    H238549   1.786   1.698   0.729  1.0958  0.0287  1.0338
 5664TIP3   OH238550   5.232   0.166   7.634  0.3069 -0.1171 -0.0932
 5664TIP3    H138551   5.225   0.241   7.693 -3.1906 -1.0303  0.8836
 5664TIP3    H238552   5.245   0.091   7.692 -0.0863 -0.6876 -0.7272
 5665TIP3   OH238553   0.991   1.058   6.776 -0.1182  0.0177  0.2983
 5665TIP3    H138554   1.011   0.973   6.815  0.0273  0.5370  1.4174
 5665TIP3    H238555   1.001   1.045   6.682  1.1929 -0.8691  0.5327
 5666TIP3   OH238556   2.025   6.049   8.631  0.3553  0.0902 -0.0815
 5666TIP3    H138557   2.066   6.019   8.550  1.0191 -0.2332  0.3615
 5666TIP3    H238558   2.021   5.971   8.686  0.2100  0.3755  0.3172
 5667TIP3   OH238559   3.565   4.518   0.328  0.3013  0.1029  0.4164
 5667TIP3    H138560   3.591   4.485   0.241  0.7156  0.1811  0.5100
 5667TIP3    H238561   3.642   4.562   0.361  0.3439 -0.4547  1.0880
 5668TIP3   OH238562   6.557   0.850   0.375 -0.1927  0.1277  0.5349
 5668TIP3    H138563   6.598   0.850   0.288  1.5294 -0.4838  1.3000
 5668TIP3    H238564   6.514   0.935   0.381 -1.0249 -0.1174 -1.1905
 5669TIP3   OH238565   5.922   4.612   0.021  0.3101 -0.0044 -0.0079
 5669TIP3    H138566   6.000   4.620   0.076 -0.5948 -1.1721  1.5181
 5669TIP3    H238567   5.855   4.576   0.079 -2.5324  4.3010 -0.1713
 5670TIP3   OH238568   6.849   0.559   0.085  0.1551 -0.3519 -0.1366
 5670TIP3    H138569   6.869   0.651   0.101 -0.8148 -0.2932  0.8152
 5670TIP3    H238570   6.765   0.561   0.038  0.8501 -0.7079 -1.4366
 5671TIP3   OH238571   4.873   1.538   1.921  0.4934 -0.2736  0.0320
 5671TIP3    H138572   4.834   1.479   1.985 -0.1326  0.0569 -0.0421
 5671TIP3    H238573   4.799   1.573   1.871  0.8525  0.5939  0.0884
 5672TIP3   OH238574   5.352   6.456   7.672  0.5374 -0.3527 -0.0109
 5672TIP3    H138575   5.356   6.522   7.603  1.2633  0.8258  1.1049
 5672TIP3    H238576   5.379   6.375   7.629  0.3576  0.2232 -1.2466
 5673TIP3   OH238577   1.446   4.985   6.691  0.0105  0.0849 -0.7262
 5673TIP3    H138578   1.396   4.976   6.610 -0.6643 -0.9158 -0.2204
 5673TIP3    H238579   1.516   4.919   6.683  0.3224  0.4183 -0.7646
 5674TIP3   OH238580   3.946   4.647   1.312 -0.0496 -0.3098  0.4501
 5674TIP3    H138581   4.004   4.577   1.283  0.6995  0.8623 -1.0545
 5674TIP3    H238582   3.999   4.726   1.308 -1.2224  0.5351  0.8844
 5675TIP3   OH238583   5.575   5.942   7.073 -0.3336  0.6175 -0.2593
 5675TIP3    H138584   5.593   6.035   7.083 -1.6580  0.9641 -0.8487
 5675TIP3    H238585   5.485   5.932   7.103 -0.0535 -0.5657  0.2391
 5676TIP3   OH238586   2.128   2.357   6.747 -0.1787 -0.1488 -0.0131
 5676TIP3    H138587   2.110   2.271   6.710  0.0567 -0.1702 -0.0743
 5676TIP3    H238588   2.175   2.404   6.679  0.1908 -0.1637  0.2299
 5677TIP3   OH238589   5.880   0.640   6.508  0.0381  0.9133  0.1637
 5677TIP3    H138590   5.879   0.557   6.461 -0.2466  0.9456  0.1153
 5677TIP3    H238591   5.971   0.670   6.501  0.3085  0.2597  0.7882
 5678TIP3   OH238592   6.305   4.524   8.555 -0.2796 -0.2490  0.0283
 5678TIP3    H138593   6.311   4.616   8.583 -1.0973 -0.4190  0.8256
 5678TIP3    H238594   6.380   4.482   8.595 -0.2740 -0.0565  0.2219
 5679TIP3   OH238595   0.696   1.526   6.615 -0.0230 -0.0732  0.4485
 5679TIP3    H138596   0.687   1.565   6.528 -0.1902 -0.1172  0.4456
 5679TIP3    H238597   0.729   1.597   6.670  1.5838 -0.4463  0.0226
 5680TIP3   OH238598   0.003   2.277   0.153  0.2680  0.5143 -0.0049
 5680TIP3    H138599   0.070   2.210   0.169 -0.0163  0.1048 -0.4882
 5680TIP3    H238600  -0.058   2.268   0.226  1.1133  1.3835  0.8445
 5681TIP3   OH238601   1.528   0.106   1.281 -0.2562 -0.0920  0.0358
 5681TIP3    H138602   1.565   0.180   1.234  2.2962 -2.7237 -2.4734
 5681TIP3    H238603   1.451   0.081   1.230 -1.4938  1.0755  1.2367
 5682TIP3   OH238604   6.709   4.691   1.816 -0.2673  0.3266  0.4315
 5682TIP3    H138605   6.735   4.783   1.811  1.6710 -0.2377 -1.4143
 5682TIP3    H238606   6.775   4.651   1.874  0.6885 -0.3836 -1.0861
 5683TIP3   OH238607   6.692   0.466   8.540  0.0464  0.1239  0.6632
 5683TIP3    H138608   6.735   0.427   8.464 -1.1530 -0.7621  0.3935
 5683TIP3    H238609   6.707   0.560   8.531  0.0845  0.0222 -0.5853
 5684TIP3   OH238610   2.920   6.384   6.916 -0.0554 -0.4004  0.2658
 5684TIP3    H138611   2.880   6.322   6.978 -0.9311  1.5195  1.7333
 5684TIP3    H238612   2.869   6.464   6.927  2.4709  1.3198  0.1386
 5685TIP3   OH238613   5.262   2.345   8.675  0.0641 -0.0805  0.0975
 5685TIP3    H138614   5.260   2.293   8.755  1.5813 -0.6398 -0.1957
 5685TIP3    H238615   5.338   2.313   8.627 -1.0640 -0.0781 -1.8095
 5686TIP3   OH238616   4.922   4.043   0.861 -0.6588 -0.2610 -0.2582
 5686TIP3    H138617   4.935   3.949   0.872  0.1713 -0.3987 -2.0946
 5686TIP3    H238618   4.960   4.063   0.775 -0.9199  1.7332  0.0416
 5687TIP3   OH238619   2.066   6.359   8.178  0.0462 -0.4539  0.2645
 5687TIP3    H138620   2.012   6.439   8.181 -2.7799 -2.1317 -1.1905
 5687TIP3    H238621   2.087   6.342   8.270  1.4460  2.3289  0.5627
 5688TIP3   OH238622   6.615   2.605   1.375 -0.1854 -0.3626  0.5046
 5688TIP3    H138623   6.652   2.530   1.420  0.6589 -0.3696 -0.1788
 5688TIP3    H238624   6.520   2.593   1.382 -0.0651 -1.5441  0.3189
 5689TIP3   OH238625   0.273   4.215   6.606 -0.0462 -0.0047  0.0514
 5689TIP3    H138626   0.305   4.305   6.603 -0.7038  0.4255  2.7651
 5689TIP3    H238627   0.209   4.210   6.535  0.5316  1.4516 -0.6074
 5690TIP3   OH238628   2.360   6.467   0.832 -0.3138  0.2353  0.0540
 5690TIP3    H138629   2.401   6.419   0.760 -0.8889 -3.8200  2.1413
 5690TIP3    H238630   2.277   6.497   0.796 -0.6505 -1.8043 -1.0275
 5691TIP3   OH238631   0.824   3.981   7.438 -0.2482  0.1500  0.3033
 5691TIP3    H138632   0.841   3.933   7.357  1.2158 -1.0294  1.2611
 5691TIP3    H238633   0.889   4.052   7.437  0.1981 -0.2437  0.7191
 5692TIP3   OH238634   4.899   2.136   1.979  0.1092  0.2810 -0.1818
 5692TIP3    H138635   4.900   2.185   1.896 -1.7529  3.7572  1.6412
 5692TIP3    H238636   4.990   2.109   1.991  0.6785  0.7511 -2.7089
 5693TIP3   OH238637   6.292   3.401   0.397  0.1660  0.1077  0.0519
 5693TIP3    H138638   6.260   3.330   0.452  0.7181  0.4464  0.8219
 5693TIP3    H238639   6.221   3.465   0.396 -0.1256 -0.2157 -0.2185
 5694TIP3   OH238640   1.957   6.776   6.464 -0.3313 -0.1124 -0.0049
 5694TIP3    H138641   1.893   6.805   6.400 -2.1886  1.5547  2.4016
 5694TIP3    H238642   2.041   6.805   6.429 -1.2406  0.5721 -1.7323
 5695TIP3   OH238643   4.352   4.333   1.596  0.4134  0.1243  0.2502
 5695TIP3    H138644   4.429   4.288   1.630 -1.3552 -2.3835  1.3066
 5695TIP3    H238645   4.303   4.359   1.674 -0.2455  0.8687 -0.3891
 5696TIP3   OH238646   3.436   6.376   1.564 -0.4772  0.7090  0.1930
 5696TIP3    H138647   3.452   6.430   1.641 -0.2374  1.5408 -0.4292
 5696TIP3    H238648   3.523   6.345   1.538 -0.5078  0.8066 -0.0215
 5697TIP3   OH238649   3.712   0.132   6.381 -0.0355 -0.5966  0.1550
 5697TIP3    H138650   3.760   0.215   6.376  2.1503 -1.8452 -1.0791
 5697TIP3    H238651   3.709   0.112   6.475 -0.4827  0.7929  0.4547
 5698TIP3   OH238652   3.261   0.437   1.963 -0.1880 -0.1871  0.1299
 5698TIP3    H138653   3.187   0.439   2.024  0.2469 -0.5877  0.6759
 5698TIP3    H238654   3.313   0.361   1.989  1.3804  1.0804  0.9040
 5699TIP3   OH238655   2.651   6.216   8.240 -0.2884  0.2265 -0.2354
 5699TIP3    H138656   2.573   6.194   8.290 -1.8620  0.4103 -2.4917
 5699TIP3    H238657   2.674   6.136   8.194  2.9416 -0.8678  2.8366
 5700TIP3   OH238658   3.151   4.694   1.484 -0.0876 -0.3999 -0.4256
 5700TIP3    H138659   3.214   4.766   1.483 -2.6339  2.1462  1.7634
 5700TIP3    H238660   3.173   4.645   1.563  0.0959 -0.4919 -0.5321
 5701TIP3   OH238661   0.074   6.081   2.281 -0.9083 -0.2889 -0.1951
 5701TIP3    H138662   0.005   6.022   2.311 -1.4106  1.3925  2.3274
 5701TIP3    H238663   0.093   6.136   2.358  1.9720  0.5132 -1.3510
 5702TIP3   OH238664   4.973   1.960   8.537  0.5158 -0.3373 -0.0886
 5702TIP3    H138665   4.953   1.867   8.530  1.5865 -0.6312  0.4996
 5702TIP3    H238666   5.001   1.972   8.628  1.6191  0.2973 -0.4852
 5703TIP3   OH238667   5.687   4.589   0.276 -0.1959  0.1175  0.0104
 5703TIP3    H138668   5.616   4.642   0.241  1.1274  0.5565 -2.1813
 5703TIP3    H238669   5.748   4.652   0.314 -0.1323 -0.1080  0.2848
 5704TIP3   OH238670   6.446   0.618   0.551 -0.4351  0.4660  0.4686
 5704TIP3    H138671   6.527   0.569   0.543 -0.4070  0.5952 -0.1298
 5704TIP3    H238672   6.461   0.698   0.500 -1.2218  0.1001 -0.3640
 5705TIP3   OH238673   5.493   5.152   8.398  0.0290 -0.3650  0.4086
 5705TIP3    H138674   5.401   5.174   8.408 -0.2250 -1.1799 -0.0262
 5705TIP3    H238675   5.504   5.073   8.451  1.2164  1.4146  3.0312
 5706TIP3   OH238676   3.421   2.901   8.005 -0.3885 -0.4076 -0.6791
 5706TIP3    H138677   3.339   2.864   8.037 -0.5836 -2.4214 -3.2174
 5706TIP3    H238678   3.489   2.851   8.050 -0.5267  0.1777  0.2204
 5707TIP3   OH238679   5.647   0.545   1.606  0.0969 -0.5834  0.0776
 5707TIP3    H138680   5.625   0.579   1.693 -2.2505 -0.4149 -0.5275
 5707TIP3    H238681   5.685   0.458   1.624  3.1387  0.8616  1.4181
 5708TIP3   OH238682   2.161   4.840   7.390  0.4093 -0.4362 -0.3280
 5708TIP3    H138683   2.110   4.908   7.345 -0.5525  0.4555  1.9492
 5708TIP3    H238684   2.096   4.774   7.414  0.9603 -1.0621 -0.5422
 5709TIP3   OH238685   4.559   0.678   0.895 -0.1786  0.8597  0.1683
 5709TIP3    H138686   4.471   0.644   0.881  0.9236 -1.9263 -0.5969
 5709TIP3    H238687   4.598   0.617   0.958  1.1727  2.1673  0.6545
 5710TIP3   OH238688   5.748   3.786   6.538  0.4215 -0.1900 -0.3580
 5710TIP3    H138689   5.809   3.856   6.514 -1.4120  1.3253 -0.7375
 5710TIP3    H238690   5.730   3.741   6.456  1.0849 -0.7223 -0.2242
 5711TIP3   OH238691   5.855   0.699   7.056 -0.1065  0.0357 -0.3546
 5711TIP3    H138692   5.862   0.613   7.097 -1.7630 -0.0813 -0.2684
 5711TIP3    H238693   5.852   0.681   6.962 -0.6299 -0.0161 -0.3284
 5712TIP3   OH238694   6.554   2.184   1.482  1.2617  0.1065  0.5410
 5712TIP3    H138695   6.542   2.253   1.416 -0.2698 -1.7451 -1.2521
 5712TIP3    H238696   6.481   2.196   1.542  0.1540 -0.7771 -0.5921
 5713TIP3   OH238697   1.074   2.296   1.271 -0.0223  0.7960  0.0611
 5713TIP3    H138698   1.067   2.293   1.176  0.8170 -0.9744  0.0114
 5713TIP3    H238699   1.008   2.234   1.302  0.9969 -0.1000  0.5145
 5714TIP3   OH238700   3.526   5.451   8.367  0.1939  0.5893 -0.7880
 5714TIP3    H138701   3.619   5.443   8.347  0.0911  1.3615 -1.6751
 5714TIP3    H238702   3.497   5.361   8.381  1.3407  0.4500  0.8895
 5715TIP3   OH238703   1.093   0.795   8.161  0.2070  0.1494  0.0467
 5715TIP3    H138704   1.016   0.738   8.154  0.2875  0.1751 -1.3115
 5715TIP3    H238705   1.155   0.746   8.214  0.5448 -1.3626 -1.6701
 5716TIP3   OH238706   4.151   0.479   8.424  0.1879 -0.0701  0.2608
 5716TIP3    H138707   4.101   0.398   8.432  1.5564 -0.8700  1.0145
 5716TIP3    H238708   4.219   0.459   8.359  0.7029  0.3820  0.6526
 5717TIP3   OH238709   1.941   1.731   1.267  0.2892  0.2271 -0.2140
 5717TIP3    H138710   1.989   1.813   1.284  2.4260 -1.4072  2.5233
 5717TIP3    H238711   1.861   1.739   1.318  0.6418  0.5300  0.3108
 5718TIP3   OH238712   4.852   6.225   2.080  0.5302  0.0523 -0.4803
 5718TIP3    H138713   4.828   6.135   2.061 -1.2112  0.3469  0.1265
 5718TIP3    H238714   4.937   6.219   2.123  0.5223 -1.2723 -0.6232
 5719TIP3   OH238715   3.544   2.996   7.657 -0.0951 -0.1731 -0.3569
 5719TIP3    H138716   3.460   2.992   7.704 -0.1931 -0.2717 -0.5360
 5719TIP3    H238717   3.589   2.916   7.683 -0.3393 -0.4562 -0.7743
 5720TIP3   OH238718   0.634   0.220   0.834  0.0579  0.0706  0.0575
 5720TIP3    H138719   0.716   0.245   0.791 -0.3473  0.4619 -0.4883
 5720TIP3    H238720   0.606   0.299   0.880 -2.1863  1.3241 -3.1507
 5721TIP3   OH238721   4.824   6.331   1.825 -0.2540  0.0693  0.2191
 5721TIP3    H138722   4.826   6.313   1.919 -0.1978 -1.4320 -0.0459
 5721TIP3    H238723   4.816   6.245   1.784 -1.5166  0.7875 -1.1220
 5722TIP3   OH238724   5.883   4.635   6.715  0.6394 -0.4628  0.4442
 5722TIP3    H138725   5.890   4.606   6.624 -1.7276  2.9443 -1.0193
 5722TIP3    H238726   5.798   4.602   6.744  1.2950 -1.3618  1.4144
 5723TIP3   OH238727   3.734   5.157   1.348 -0.0813  0.4264 -0.1060
 5723TIP3    H138728   3.822   5.180   1.379 -0.3472  0.3332  0.7598
 5723TIP3    H238729   3.728   5.062   1.358 -0.8670  0.5966  1.5465
 5724TIP3   OH238730   0.157   3.311   1.268  0.1869 -0.2339  0.1544
 5724TIP3    H138731   0.230   3.289   1.209  1.4684  0.7082  1.3285
 5724TIP3    H238732   0.180   3.270   1.351 -0.2336  0.7128  0.7543
 5725TIP3   OH238733   4.969   3.520   0.888 -0.1369 -0.0841  0.7775
 5725TIP3    H138734   5.009   3.436   0.912  1.0510  0.7625  1.8499
 5725TIP3    H238735   5.035   3.585   0.910 -1.1093  1.1590  0.0996
 5726TIP3   OH238736   5.715   4.343   7.837  0.0486 -1.0553 -0.5013
 5726TIP3    H138737   5.653   4.389   7.894  0.8086 -0.7167  0.0691
 5726TIP3    H238738   5.666   4.329   7.755 -0.1072  1.0619 -0.8212
 5727TIP3   OH238739   1.330   6.491   7.668 -0.3086 -0.0295  0.0157
 5727TIP3    H138740   1.367   6.405   7.684 -0.9812 -0.2186  0.5744
 5727TIP3    H238741   1.238   6.475   7.647  0.0333  0.3815 -2.0112
 5728TIP3   OH238742   2.247   5.756   0.896 -0.4164  0.2208 -0.2879
 5728TIP3    H138743   2.202   5.720   0.820 -1.3802 -1.4246  1.0074
 5728TIP3    H238744   2.316   5.693   0.916  0.1099  0.8603 -0.0376
 5729TIP3   OH238745   3.378   6.627   2.339  0.8586 -0.0219  0.4450
 5729TIP3    H138746   3.385   6.591   2.251 -2.5650  3.6519 -1.6876
 5729TIP3    H238747   3.460   6.674   2.352  0.3939  1.7778 -2.2349
 5730TIP3   OH238748   1.466   5.913   7.899  0.1268  0.3289 -0.0388
 5730TIP3    H138749   1.424   5.983   7.849  0.5142  1.5868  1.3408
 5730TIP3    H238750   1.548   5.896   7.853 -0.6472 -0.3263 -1.2508
 5731TIP3   OH238751   0.274   0.448   6.786  0.6017  0.1720 -0.1837
 5731TIP3    H138752   0.318   0.381   6.838 -0.5642  0.8279  1.7371
 5731TIP3    H238753   0.182   0.422   6.786  0.3379  1.0757 -0.5292
 5732TIP3   OH238754   4.267   2.680   1.331  0.1853  0.1599 -0.3081
 5732TIP3    H138755   4.255   2.589   1.305  1.7076  0.3211 -1.7453
 5732TIP3    H238756   4.290   2.676   1.424  1.8713 -1.1093 -0.7306
 5733TIP3   OH238757   4.753   3.318   0.904  0.4904 -1.0670 -0.5991
 5733TIP3    H138758   4.678   3.277   0.948  0.6779  0.3882  1.1742
 5733TIP3    H238759   4.810   3.346   0.976  0.7308  1.5705 -1.7328
 5734TIP3   OH238760   2.483   0.044   0.638 -0.3365 -0.0399 -0.1817
 5734TIP3    H138761   2.566   0.055   0.591 -0.5091  2.3166 -0.0642
 5734TIP3    H238762   2.430  -0.011   0.580  1.0331 -0.9637 -0.6004
 5735TIP3   OH238763   2.729   5.997   8.129 -0.1600 -0.1833  0.6754
 5735TIP3    H138764   2.730   5.940   8.206  1.6930 -2.8318 -1.1344
 5735TIP3    H238765   2.721   5.937   8.055  2.8369  1.7455 -1.4453
 5736TIP3   OH238766   6.492   5.924   2.407  0.6015  0.5204 -0.3590
 5736TIP3    H138767   6.452   6.008   2.384 -0.3530 -0.1482 -1.2004
 5736TIP3    H238768   6.423   5.859   2.392  0.8311 -0.2824  1.6791
 5737TIP3   OH238769   5.353   5.836   7.188  0.6656 -0.0497 -0.5046
 5737TIP3    H138770   5.354   5.847   7.283 -2.0067  1.9988 -0.6141
 5737TIP3    H238771   5.382   5.745   7.175  1.3948 -0.3049  2.2115
 5738TIP3   OH238772   0.208   6.375   8.608 -0.3205  0.4044 -0.0133
 5738TIP3    H138773   0.150   6.340   8.541  1.2077 -1.6096 -0.3632
 5738TIP3    H238774   0.160   6.362   8.690 -1.6935  1.7946 -0.5327
 5739TIP3   OH238775   1.925   1.337   1.158 -0.1432  0.1722  0.2950
 5739TIP3    H138776   1.896   1.343   1.249  0.2009  0.6025  0.3803
 5739TIP3    H238777   1.848   1.359   1.106 -0.6271 -1.0673  0.4411
 5740TIP3   OH238778   3.072   2.646   8.680 -0.0858 -0.0729  0.1286
 5740TIP3    H138779   3.001   2.668   8.740  1.3552 -1.3489  2.4690
 5740TIP3    H238780   3.084   2.552   8.689  0.2455 -0.3129 -2.1939
 5741TIP3   OH238781   3.416   6.230   0.151 -0.1246 -0.3439  0.2178
 5741TIP3    H138782   3.441   6.265   0.065 -0.5976  0.1669  0.2853
 5741TIP3    H238783   3.496   6.235   0.203  0.2631 -0.9804 -0.2868
 5742TIP3   OH238784   4.719   6.060   1.217  0.5330  0.2054  0.7124
 5742TIP3    H138785   4.743   6.010   1.295 -1.2583  1.4537  2.1593
 5742TIP3    H238786   4.641   6.109   1.244 -0.2689  0.5227 -1.9512
 5743TIP3   OH238787   0.953   4.559   6.892 -0.5783  0.1098  0.0298
 5743TIP3    H138788   0.983   4.482   6.843 -4.1860 -1.0941 -0.5947
 5743TIP3    H238789   0.922   4.619   6.824  1.7201  2.0536  0.5427
 5744TIP3   OH238790   5.582   3.026   1.121  0.5637 -0.2093 -1.0019
 5744TIP3    H138791   5.635   2.961   1.168  1.6240 -0.6488 -2.7168
 5744TIP3    H238792   5.492   2.999   1.136  0.8852 -0.6281  0.3316
 5745TIP3   OH238793   0.979   4.365   0.552 -0.2537 -0.0016  0.3859
 5745TIP3    H138794   1.027   4.433   0.600  0.5762 -1.7614  2.1872
 5745TIP3    H238795   1.044   4.297   0.536 -1.4134 -1.0456 -0.0076
 5746TIP3   OH238796   4.918   4.321   7.424  0.1612  0.2660 -0.5224
 5746TIP3    H138797   4.886   4.390   7.366 -0.8676 -0.0815 -0.3895
 5746TIP3    H238798   4.867   4.333   7.504 -0.7158 -1.2131 -0.8240
 5747TIP3   OH238799   1.441   4.772   0.707 -0.2879 -0.0565  0.0810
 5747TIP3    H138800   1.412   4.765   0.616 -1.0837  0.5212  0.2779
 5747TIP3    H238801   1.455   4.682   0.735 -0.7173 -0.2748 -0.3942
 5748TIP3   OH238802   3.466   4.197   0.196  0.5341 -0.4450 -0.0303
 5748TIP3    H138803   3.534   4.200   0.263 -0.0125 -2.9549  0.7401
 5748TIP3    H238804   3.385   4.220   0.243  0.6012  1.2303 -0.6554
 5749TIP3   OH238805   6.198   6.637   1.044  0.0601  0.3299  0.4587
 5749TIP3    H138806   6.266   6.572   1.058 -0.0131  0.3827  1.0840
 5749TIP3    H238807   6.169   6.622   0.954  0.2589 -0.2954  0.4935
 5750TIP3   OH238808   4.065   4.294   8.693 -0.4022 -0.5188 -0.1427
 5750TIP3    H138809   3.984   4.302   8.644 -0.7930  1.4928  0.7167
 5750TIP3    H238810   4.044   4.327   8.780  0.2256 -4.0838  1.5258
 5751TIP3   OH238811   5.221   5.401   7.033  0.6725  0.5956  0.0824
 5751TIP3    H138812   5.137   5.394   6.988  0.7876  0.7368 -0.1540
 5751TIP3    H238813   5.278   5.449   6.973  1.5940 -1.3703 -0.7264
 5752TIP3   OH238814   3.448   5.646   1.296  0.4595 -0.2189  0.3719
 5752TIP3    H138815   3.482   5.562   1.324 -0.5292 -0.8183 -0.1766
 5752TIP3    H238816   3.498   5.710   1.346  0.6609 -1.1583  1.4122
 5753TIP3   OH238817   4.234   3.406   1.374  0.3855  0.3168  0.8216
 5753TIP3    H138818   4.196   3.412   1.462 -0.6369  0.2237  0.3931
 5753TIP3    H238819   4.289   3.484   1.367  2.0719 -0.6555  2.2611
 5754TIP3   OH238820   5.086   6.109   8.236  0.4954 -0.0797 -0.1478
 5754TIP3    H138821   5.073   6.181   8.298  0.7509 -0.1464 -0.0120
 5754TIP3    H238822   5.076   6.030   8.289  1.0196 -0.1335 -0.1267
 5755TIP3   OH238823   0.709   4.134   6.729  0.4058  0.1867 -0.2158
 5755TIP3    H138824   0.761   4.102   6.656 -0.1813  0.9702 -0.9907
 5755TIP3    H238825   0.729   4.228   6.734 -0.0088  0.2560  0.2540
 5756TIP3   OH238826   0.883   6.393   0.579 -0.4543 -0.3559  0.1233
 5756TIP3    H138827   0.892   6.299   0.564  2.2548 -0.2319  0.6105
 5756TIP3    H238828   0.817   6.400   0.648 -1.9166 -1.7478 -1.0447
 5757TIP3   OH238829   6.541   5.079   6.126  0.1878  0.2240 -0.7626
 5757TIP3    H138830   6.477   5.033   6.070 -1.1991 -0.1835  1.0649
 5757TIP3    H238831   6.587   5.009   6.172  0.2202  0.5815 -0.2421
 5758TIP3   OH238832   4.038   4.787   6.754  0.4692  0.4953 -0.1586
 5758TIP3    H138833   3.945   4.772   6.744  0.0457  1.1318  2.0605
 5758TIP3    H238834   4.069   4.713   6.806  0.8574  1.0619  0.4392
 5759TIP3   OH238835   6.781   0.911   1.287 -0.0272 -0.6051 -0.1953
 5759TIP3    H138836   6.775   0.962   1.206  0.2276 -2.6290 -1.5598
 5759TIP3    H238837   6.770   0.821   1.259 -1.7169 -1.2805  2.2817
 5760TIP3   OH238838   4.565   6.258   7.556 -0.1772 -0.1959 -0.3558
 5760TIP3    H138839   4.590   6.192   7.622 -1.7952 -2.5391 -1.9208
 5760TIP3    H238840   4.627   6.330   7.569  0.8449 -1.4269  2.3469
 5761TIP3   OH238841   2.717   2.303   1.173  0.1267  0.4614  0.0941
 5761TIP3    H138842   2.717   2.251   1.253  2.2160  0.5066  0.1677
 5761TIP3    H238843   2.776   2.255   1.114  1.0683  2.0405 -0.2973
 5762TIP3   OH238844   2.037   5.706   6.207  0.1751  0.8798  0.0151
 5762TIP3    H138845   1.998   5.696   6.294 -1.7877 -0.3146 -0.9224
 5762TIP3    H238846   1.963   5.694   6.146  1.6374  0.7841 -1.8298
 5763TIP3   OH238847   3.485   2.498   8.395 -0.3397 -0.7436 -0.2000
 5763TIP3    H138848   3.510   2.560   8.462 -1.0854 -1.0461  0.3771
 5763TIP3    H238849   3.558   2.437   8.389 -0.3499 -0.8186  0.4671
 5764TIP3   OH238850   6.192   6.420   8.027 -0.0556  0.2256 -0.2818
 5764TIP3    H138851   6.212   6.359   8.098 -0.3040  0.0181 -0.3860
 5764TIP3    H238852   6.099   6.406   8.009  0.0595  0.1197 -0.7958
 5765TIP3   OH238853   2.596   6.208   7.793  0.6649  0.0008 -0.1653
 5765TIP3    H138854   2.609   6.122   7.832 -2.6825 -1.3833 -1.6663
 5765TIP3    H238855   2.636   6.202   7.706 -0.8559 -0.6756 -0.8623
 5766TIP3   OH238856   6.222   6.398   8.707  0.3715  0.1236  0.0254
 5766TIP3    H138857   6.312   6.366   8.707  1.0838  1.8222 -2.5191
 5766TIP3    H238858   6.229   6.491   8.685 -2.0405  0.0641 -1.3859
 5767TIP3   OH238859   0.845   1.407   8.249  0.6046  0.1079 -0.1186
 5767TIP3    H138860   0.769   1.410   8.192 -0.4603 -2.6525  1.0256
 5767TIP3    H238861   0.896   1.333   8.217  1.8209  0.6920  0.3901
 5768TIP3   OH238862   4.390   5.318   0.372 -0.6587  0.2667 -0.7942
 5768TIP3    H138863   4.387   5.276   0.286 -1.3701 -0.6405 -0.3410
 5768TIP3    H238864   4.322   5.385   0.369 -2.3855 -1.3520 -0.1717
 5769TIP3   OH238865   6.100   6.137   8.643  0.9692  0.5482  0.0301
 5769TIP3    H138866   6.135   6.221   8.672  0.9411  0.6194 -0.1444
 5769TIP3    H238867   6.178   6.087   8.616  1.2120 -0.1830  1.9023
 5770TIP3   OH238868   4.615   3.908   7.444  0.8859  0.5038  0.3217
 5770TIP3    H138869   4.595   3.947   7.359  0.1949 -0.0360  0.2348
 5770TIP3    H238870   4.711   3.912   7.450  0.8939  1.2341 -0.1442
 5771TIP3   OH238871   3.199   5.625   0.662 -0.0654  1.0108  0.6605
 5771TIP3    H138872   3.275   5.667   0.701  0.9092 -0.8630  0.8914
 5771TIP3    H238873   3.223   5.611   0.571 -0.2258  0.6423  0.6721
 5772TIP3   OH238874   1.458   6.350   0.474 -0.0214  0.0397  0.2514
 5772TIP3    H138875   1.518   6.314   0.409  0.5187  0.1942  0.6607
 5772TIP3    H238876   1.386   6.287   0.476 -0.3026  0.2922 -0.8575
 5773TIP3   OH238877   4.828   6.580   8.220 -0.6670  0.1542  0.4858
 5773TIP3    H138878   4.840   6.517   8.148  0.8268 -1.4296  2.0224
 5773TIP3    H238879   4.755   6.635   8.192  0.0261 -0.2192 -2.3584
 5774TIP3   OH238880   4.842   0.807   7.668  0.1280  0.1028  0.1985
 5774TIP3    H138881   4.862   0.886   7.618 -0.7078  0.4907  0.4526
 5774TIP3    H238882   4.883   0.821   7.753 -0.4756  0.5230  0.4317
 5775TIP3   OH238883   1.187   3.192   7.987 -0.5300 -0.3286 -0.6263
 5775TIP3    H138884   1.165   3.145   8.067  0.7918 -1.1219 -0.7052
 5775TIP3    H238885   1.176   3.128   7.917 -4.0033  0.9802 -1.4547
 5776TIP3   OH238886   1.699   0.023   0.617 -0.1949  0.0321 -0.4458
 5776TIP3    H138887   1.610   0.020   0.654 -0.0744  1.9145  0.0917
 5776TIP3    H238888   1.689  -0.010   0.528 -1.5920  0.8345 -0.6252
 5777TIP3   OH238889   1.720   1.723   1.863  0.6470  0.0444 -0.3440
 5777TIP3    H138890   1.793   1.777   1.834  1.3079  0.4780  1.8904
 5777TIP3    H238891   1.762   1.642   1.894  0.3011  0.4531  1.3211
 5778TIP3   OH238892   0.620   4.578   7.999 -0.0148 -0.3251  0.5140
 5778TIP3    H138893   0.601   4.620   7.915  2.4885 -1.3647 -0.6926
 5778TIP3    H238894   0.616   4.649   8.063 -0.8136  0.7257 -0.6584
 5779TIP3   OH238895   0.941   4.917   8.096 -0.4102 -0.1413  0.8360
 5779TIP3    H138896   0.980   4.892   8.180 -0.5855  0.7582  1.1993
 5779TIP3    H238897   0.931   4.834   8.049 -0.0129 -0.6247  1.5690
 5780TIP3   OH238898   6.357   2.531   8.636  0.2190 -0.2824 -0.2389
 5780TIP3    H138899   6.420   2.602   8.628  2.4717 -2.0108  1.1350
 5780TIP3    H238900   6.311   2.548   8.718  0.4943 -0.2213 -0.0973
 5781TIP3   OH238901   3.016   2.293   7.611  0.0895  0.6743  0.2430
 5781TIP3    H138902   3.093   2.268   7.561 -1.0837 -0.9729 -0.8478
 5781TIP3    H238903   2.999   2.217   7.668 -0.7517  0.9809  0.4160
 5782TIP3   OH238904   1.593   4.942   1.748 -0.5931  0.0896  0.0387
 5782TIP3    H138905   1.658   4.913   1.812 -1.4838  1.1643  1.5063
 5782TIP3    H238906   1.522   4.878   1.754  0.2715 -1.1182 -1.6072
 5783TIP3   OH238907   5.092   1.058   8.077  0.4642  0.3132  0.3636
 5783TIP3    H138908   5.188   1.061   8.083  0.5376 -0.4059 -0.2906
 5783TIP3    H238909   5.067   1.147   8.054  0.9544  0.5757  0.8200
 5784TIP3   OH238910   1.224   4.996   8.538 -0.3220 -0.5750 -0.2979
 5784TIP3    H138911   1.303   4.970   8.585 -0.3675  1.2028  0.8775
 5784TIP3    H238912   1.164   5.027   8.606 -0.9150  0.8176 -1.3794
 5785TIP3   OH238913   3.914   0.859   7.353  0.4585 -0.0559  0.6401
 5785TIP3    H138914   3.948   0.946   7.374 -1.5987  0.6316  1.4581
 5785TIP3    H238915   3.963   0.799   7.409  1.8648  0.5638  0.1110
 5786TIP3   OH238916   4.807   5.851   8.441 -0.5387  0.1261 -0.2695
 5786TIP3    H138917   4.877   5.786   8.443 -0.1407  0.5441 -0.4670
 5786TIP3    H238918   4.781   5.856   8.349 -0.7840  0.0193 -0.2069
 5787TIP3   OH238919   6.436   5.486   6.868 -0.0488 -0.6738 -0.2332
 5787TIP3    H138920   6.523   5.526   6.868  0.4211 -1.6354 -1.6364
 5787TIP3    H238921   6.400   5.507   6.781  0.1177 -2.9985 -0.9449
 5788TIP3   OH238922   3.733   3.974   0.922  0.5786  0.5192  0.3193
 5788TIP3    H138923   3.796   3.925   0.869  0.3419 -0.3830  0.8474
 5788TIP3    H238924   3.655   3.918   0.924 -0.4254  1.8070 -0.6887
 5789TIP3   OH238925   6.557   5.099   2.111  0.1648  0.2166  0.6784
 5789TIP3    H138926   6.570   5.186   2.073 -0.6184 -0.8988 -2.5239
 5789TIP3    H238927   6.472   5.105   2.155 -0.4780  0.8103 -0.5695
 5790TIP3   OH238928   1.645   3.107   6.541  0.4039  0.2874  0.4186
 5790TIP3    H138929   1.589   3.184   6.555  1.7824  1.2599  0.8771
 5790TIP3    H238930   1.733   3.144   6.528  0.8940 -1.1663 -0.6046
 5791TIP3   OH238931   3.184   5.395   0.861  0.1755 -0.6650 -0.0502
 5791TIP3    H138932   3.111   5.458   0.859 -0.3260 -1.2449 -0.7973
 5791TIP3    H238933   3.251   5.438   0.913 -1.5962 -1.0873  2.7967
 5792TIP3   OH238934   6.167   2.440   0.242  0.0762  0.4280  0.1361
 5792TIP3    H138935   6.112   2.422   0.318 -1.0165  2.6535 -0.0291
 5792TIP3    H238936   6.256   2.447   0.278 -0.4497  1.6419  1.2841
 5793TIP3   OH238937   3.797   1.268   0.887  0.2095 -0.1690 -0.0780
 5793TIP3    H138938   3.712   1.297   0.852 -0.8299 -0.7676  1.7871
 5793TIP3    H238939   3.783   1.265   0.982  2.1421 -0.9173  0.2171
 5794TIP3   OH238940   3.377   5.381   0.035  0.2457 -0.5496 -0.3422
 5794TIP3    H138941   3.439   5.433   0.086 -0.4141  0.2010 -0.2705
 5794TIP3    H238942   3.369   5.430  -0.048 -0.4254 -0.5042 -0.2532
 5795TIP3   OH238943   0.393   2.414   1.253  0.2141 -0.3037  0.1223
 5795TIP3    H138944   0.448   2.386   1.326  0.8200  1.1167  0.2481
 5795TIP3    H238945   0.324   2.348   1.248  0.4661 -0.7172  1.6446
 5796TIP3   OH238946   5.377   3.425   6.810 -0.4759 -0.4609  0.1008
 5796TIP3    H138947   5.462   3.382   6.820 -0.6349 -1.1006 -1.1601
 5796TIP3    H238948   5.396   3.519   6.819  0.3423 -0.6084 -0.0745
 5797TIP3   OH238949   5.661   3.988   1.546  0.1762  0.0461 -0.4410
 5797TIP3    H138950   5.715   3.953   1.617 -0.9365 -1.6724 -0.4024
 5797TIP3    H238951   5.669   4.083   1.555 -0.2649 -0.1038  2.2350
 5798TIP3   OH238952   5.770   6.300   7.479 -0.2661  0.3170 -0.1077
 5798TIP3    H138953   5.794   6.365   7.545  0.5413  0.0693 -0.1395
 5798TIP3    H238954   5.833   6.229   7.491 -1.8426 -1.0170  0.7033
 5799TIP3   OH238955   3.116   3.449   0.444  0.6350  0.6943  0.5768
 5799TIP3    H138956   3.072   3.385   0.500 -1.0355  1.0794 -0.2339
 5799TIP3    H238957   3.065   3.529   0.456  1.7473  1.4518  0.3732
 5800TIP3   OH238958   5.442   3.726   5.722 -0.2711  0.2042  0.1850
 5800TIP3    H138959   5.409   3.734   5.812  1.4814 -0.6084  0.9531
 5800TIP3    H238960   5.502   3.651   5.725  1.2696  1.3076 -1.2013
 5801TIP3   OH238961   5.172   5.795   8.364  0.0190  0.0708 -0.3711
 5801TIP3    H138962   5.167   5.808   8.458 -0.7116 -1.2482 -0.2009
 5801TIP3    H238963   5.264   5.812   8.342 -0.0405  1.4878  0.3714
 5802TIP3   OH238964   3.404   3.840   2.173  0.1269 -0.6223 -0.0192
 5802TIP3    H138965   3.432   3.750   2.162 -0.4812 -0.8753  0.4627
 5802TIP3    H238966   3.482   3.886   2.206  1.5724 -0.1492 -3.6174
 5803TIP3   OH238967   0.782   2.642   6.888 -0.0799  0.2896  0.5075
 5803TIP3    H138968   0.800   2.714   6.828 -0.2977  0.8229  1.0776
 5803TIP3    H238969   0.868   2.614   6.919 -0.0120  0.4542  0.4638
 5804TIP3   OH238970   5.720   5.323   7.556 -0.3121  0.0082  0.3568
 5804TIP3    H138971   5.723   5.313   7.651  2.9184  1.8144  0.6015
 5804TIP3    H238972   5.767   5.247   7.522 -0.6438 -0.1510  0.2452
 5805TIP3   OH238973   3.337   3.514   1.030 -0.3585  0.1682  0.3802
 5805TIP3    H138974   3.431   3.501   1.044 -0.1843  1.0088  0.0368
 5805TIP3    H238975   3.322   3.486   0.940 -0.2250  1.1080  0.0656
 5806TIP3   OH238976   2.086   2.462   0.199 -0.6577  0.1703 -0.4162
 5806TIP3    H138977   2.119   2.383   0.242  0.0564  0.9414  0.4992
 5806TIP3    H238978   2.120   2.457   0.110  0.8849  0.3021  0.1364
 5807TIP3   OH238979   2.701   0.587   1.511  0.1243  0.1784 -0.3510
 5807TIP3    H138980   2.773   0.525   1.517  0.8506  1.0678  0.6073
 5807TIP3    H238981   2.676   0.604   1.603 -0.2224  1.0894 -0.5992
 5808TIP3   OH238982   5.549   6.328   0.832  0.4722 -0.4132  0.1082
 5808TIP3    H138983   5.521   6.278   0.908 -0.9674 -2.0301 -1.3825
 5808TIP3    H238984   5.499   6.410   0.837  0.4654 -0.4642  0.9501
 5809TIP3   OH238985   6.418   6.630   0.696  0.5786 -0.4370 -0.1685
 5809TIP3    H138986   6.446   6.677   0.618 -0.2936  1.6696  0.6959
 5809TIP3    H238987   6.499   6.598   0.736  1.4934  2.1582  0.2519
 5810TIP3   OH238988   4.187   6.207   1.155  0.5200 -0.6798 -0.6287
 5810TIP3    H138989   4.229   6.201   1.240  0.6002  0.2453 -0.5903
 5810TIP3    H238990   4.112   6.147   1.161  0.2589 -0.2821  0.2535
 5811TIP3   OH238991   0.930   5.559   1.453  0.5189  0.2542  0.1266
 5811TIP3    H138992   0.967   5.635   1.497 -0.5458  1.3851 -0.8376
 5811TIP3    H238993   0.853   5.536   1.506  0.5041  0.2283  0.0941
 5812TIP3   OH238994   1.036   4.030   1.717  0.8931  0.0396  0.1366
 5812TIP3    H138995   0.990   4.010   1.798  0.4381 -1.5441 -0.4689
 5812TIP3    H238996   1.101   3.960   1.708  1.5919  0.7385 -0.3770
 5813TIP3   OH238997   3.069   4.097   0.427  0.1567 -0.5368 -0.1905
 5813TIP3    H138998   3.087   4.006   0.449  0.4362 -0.5617 -0.5107
 5813TIP3    H238999   3.154   4.142   0.439 -0.0554 -0.2522  0.2927
 5814TIP3   OH239000   5.853   4.806   0.389 -0.1112 -0.1012 -0.1417
 5814TIP3    H139001   5.941   4.839   0.370  0.6003 -2.0503 -0.4507
 5814TIP3    H239002   5.803   4.884   0.416  2.1400  0.7848  1.7542
 5815TIP3   OH239003   4.738   0.777   6.943  0.4877 -0.0725  0.2934
 5815TIP3    H139004   4.651   0.766   6.905  0.8357  2.1694 -1.3174
 5815TIP3    H239005   4.721   0.800   7.034 -0.4382 -2.8568  0.9385
 5816TIP3   OH239006   2.282   3.917   0.610  0.4733 -0.5410 -0.5416
 5816TIP3    H139007   2.322   4.003   0.617 -0.5308 -0.0647 -0.4510
 5816TIP3    H239008   2.348   3.856   0.645  0.6941  0.3308  0.6181
 5817TIP3   OH239009   2.562   4.531   1.191 -0.4261 -0.0587 -0.5416
 5817TIP3    H139010   2.597   4.482   1.265 -1.9157 -0.6192 -0.1775
 5817TIP3    H239011   2.516   4.466   1.138 -0.9415  0.6475 -0.9901
 5818TIP3   OH239012   1.771   6.672   7.606 -0.4726 -0.2554 -0.2480
 5818TIP3    H139013   1.815   6.688   7.522 -0.4293 -0.4293 -0.2597
 5818TIP3    H239014   1.717   6.594   7.590 -2.1070  0.9235 -0.7336
 5819TIP3   OH239015   3.000   0.350   0.782 -0.5114  0.5137  0.8142
 5819TIP3    H139016   2.973   0.270   0.827  0.6098 -0.4597 -0.1634
 5819TIP3    H239017   2.927   0.371   0.724 -0.6571 -0.0463  0.7852
 5820TIP3   OH239018   3.854   5.105   1.853 -0.2449 -0.4926 -0.3137
 5820TIP3    H139019   3.876   5.053   1.931 -1.7003 -2.1773 -0.9718
 5820TIP3    H239020   3.919   5.078   1.788  1.7050  1.7620  0.5620
 5821TIP3   OH239021   4.412   0.716   0.563  0.1852 -0.6122  0.9896
 5821TIP3    H139022   4.468   0.669   0.625 -0.4068 -1.8511  0.6098
 5821TIP3    H239023   4.365   0.647   0.515  2.0604  0.1868 -2.2735
 5822TIP3   OH239024   1.275   6.251   7.428 -0.3110  0.4950  0.5790
 5822TIP3    H139025   1.239   6.200   7.355 -1.7856  0.5044  1.2623
 5822TIP3    H239026   1.280   6.189   7.500 -0.5742  0.9088  0.9600
 5823TIP3   OH239027   1.634   3.004   1.852  0.0248  0.3174 -0.0955
 5823TIP3    H139028   1.581   2.925   1.840 -0.1403  0.3554  0.3565
 5823TIP3    H239029   1.722   2.978   1.828  0.1768 -0.3134  1.0892
 5824TIP3   OH239030   3.073   2.205   0.660 -0.4958 -0.2134  0.0968
 5824TIP3    H139031   2.983   2.174   0.671 -0.1068 -0.9107  1.7244
 5824TIP3    H239032   3.121   2.128   0.630 -0.2051 -0.2290  0.5864
 5825TIP3   OH239033   4.631   5.535   8.011 -0.5255 -0.0340 -0.8825
 5825TIP3    H139034   4.581   5.462   7.973 -2.8933 -0.4924  2.6608
 5825TIP3    H239035   4.699   5.493   8.063  0.9231  0.5048 -2.2649
 5826TIP3   OH239036   2.859   2.439   8.253 -0.4658  0.2900 -0.0540
 5826TIP3    H139037   2.879   2.346   8.264 -1.4120 -0.0377 -0.9621
 5826TIP3    H239038   2.766   2.447   8.277 -0.2662  1.0991  0.4967
 5827TIP3   OH239039   5.811   3.370   8.342 -0.2049 -0.9997 -0.0682
 5827TIP3    H139040   5.772   3.420   8.414 -1.0394 -3.7379  1.5251
 5827TIP3    H239041   5.741   3.363   8.277 -0.0457 -0.0597 -0.3536
 5828TIP3   OH239042   1.866   6.218   1.309  0.3598  0.4216 -0.3793
 5828TIP3    H139043   1.849   6.260   1.393 -2.6288  2.6145 -1.8866
 5828TIP3    H239044   1.960   6.228   1.295  0.6456  1.4714  1.9255
 5829TIP3   OH239045   4.793   2.810   6.491  0.3670  0.0502  0.3618
 5829TIP3    H139046   4.726   2.750   6.458  0.4657 -1.5172  2.8288
 5829TIP3    H239047   4.850   2.826   6.415 -0.3653 -1.9822 -0.6844
 5830TIP3   OH239048   0.309   3.360   6.449 -0.3783 -0.1468  0.2670
 5830TIP3    H139049   0.330   3.406   6.531  0.4741 -0.2015  0.0847
 5830TIP3    H239050   0.272   3.427   6.393  1.1541  0.4282 -0.1133
 5831TIP3   OH239051   5.699   1.195   6.604 -0.0203  0.1325  0.2994
 5831TIP3    H139052   5.723   1.123   6.662  0.4792  0.7819  0.9230
 5831TIP3    H239053   5.626   1.238   6.649 -0.5411 -0.1734 -0.2355
 5832TIP3   OH239054   2.218   2.895   7.867 -0.4816 -0.8054  0.5356
 5832TIP3    H139055   2.293   2.952   7.881 -0.6563 -0.9177  2.0491
 5832TIP3    H239056   2.151   2.952   7.830  0.1523 -0.5840 -0.2896
 5833TIP3   OH239057   2.912   2.335   1.362 -0.0885  0.1119 -0.0970
 5833TIP3    H139058   2.864   2.298   1.288 -0.3161  1.1793 -0.4923
 5833TIP3    H239059   2.913   2.264   1.427  0.2341 -0.8875 -1.1561
 5834TIP3   OH239060   4.826   4.882   7.980  0.4143 -0.5150 -0.0509
 5834TIP3    H139061   4.882   4.805   7.975 -1.2865 -1.7766 -1.0320
 5834TIP3    H239062   4.832   4.922   7.893  0.7251  0.0448  0.2259
 5835TIP3   OH239063   2.793   0.613   7.493  0.2148 -0.7266 -0.0474
 5835TIP3    H139064   2.808   0.643   7.403  1.2453 -1.0376 -0.0005
 5835TIP3    H239065   2.827   0.684   7.547 -2.3110  0.4244  0.1758
 5836TIP3   OH239066   2.502   2.872   1.765 -0.1449  0.1906 -0.0284
 5836TIP3    H139067   2.562   2.915   1.826  0.3504  1.2856 -1.2563
 5836TIP3    H239068   2.416   2.911   1.784  0.4273  2.4715 -1.6910
 5837TIP3   OH239069   6.347   4.140   0.614  0.9721  0.3036  0.5514
 5837TIP3    H139070   6.278   4.193   0.654  1.5465  0.7020  1.0376
 5837TIP3    H239071   6.370   4.077   0.682 -0.3459 -1.2087 -0.3438
 5838TIP3   OH239072   4.256   0.578   0.398  0.7929 -0.5144  0.4114
 5838TIP3    H139073   4.225   0.665   0.374  1.4720  0.0457  1.4714
 5838TIP3    H239074   4.207   0.518   0.342 -1.5777  0.3816  1.4027
 5839TIP3   OH239075   1.838   4.496   6.746  0.0063  0.7796 -0.1482
 5839TIP3    H139076   1.746   4.519   6.727  0.4362  1.4626 -1.5641
 5839TIP3    H239077   1.877   4.578   6.776  0.2747  0.6118 -0.0405
 5840TIP3   OH239078   4.398   5.240   7.154  0.2561 -0.0940  0.0554
 5840TIP3    H139079   4.320   5.251   7.209  0.5023  2.1449  0.0460
 5840TIP3    H239080   4.365   5.242   7.064  0.1226 -1.3631  0.0523
 5841TIP3   OH239081   5.573   6.166   1.930  0.4145  0.1886  0.0723
 5841TIP3    H139082   5.560   6.244   1.876  0.1812  0.8114  1.0058
 5841TIP3    H239083   5.526   6.185   2.011  1.2640 -0.4815  0.7391
 5842TIP3   OH239084   3.984   0.244   6.612 -0.4228 -0.2845  0.1939
 5842TIP3    H139085   4.031   0.326   6.594  1.5541 -1.3299  0.3719
 5842TIP3    H239086   4.017   0.182   6.547 -0.9514 -1.2780  0.8531
 5843TIP3   OH239087   3.010   0.181   1.528  0.3557  0.0931 -0.1978
 5843TIP3    H139088   3.047   0.118   1.590 -0.1312 -0.4335 -0.4286
 5843TIP3    H239089   3.034   0.147   1.442 -0.3263 -0.0509 -0.3384
 5844TIP3   OH239090   3.322   4.333   6.563 -0.3431  0.0700  0.2682
 5844TIP3    H139091   3.295   4.242   6.572 -2.0470  0.6875  1.9483
 5844TIP3    H239092   3.266   4.368   6.494 -0.6756  0.2055  0.6075
 5845TIP3   OH239093   3.890   1.140   6.527 -0.1288  0.5564  0.1111
 5845TIP3    H139094   3.807   1.168   6.488 -0.7526  0.3382  1.2441
 5845TIP3    H239095   3.878   1.155   6.621  0.7285 -0.4837  0.3941
 5846TIP3   OH239096   5.462   0.359   6.144 -0.4950 -0.1700 -0.1827
 5846TIP3    H139097   5.429   0.281   6.098 -0.3657  0.0184 -0.5991
 5846TIP3    H239098   5.544   0.330   6.184 -0.5398 -0.2960 -0.1798
 5847TIP3   OH239099   2.899   6.087   0.196 -0.3786 -0.6952  0.1616
 5847TIP3    H139100   2.990   6.108   0.178 -1.2425  2.0512 -1.7538
 5847TIP3    H239101   2.867   6.048   0.115 -1.1151 -0.8341  0.5090
 5848TIP3   OH239102   0.904   6.519   1.371 -0.2640 -0.7557  0.3593
 5848TIP3    H139103   0.886   6.596   1.317 -1.1715 -0.9769  0.3276
 5848TIP3    H239104   0.968   6.549   1.435 -1.3250  0.3050  0.9711
 5849TIP3   OH239105   4.569   2.388   2.605  0.2359  0.5470 -0.3545
 5849TIP3    H139106   4.662   2.401   2.587  0.1744 -0.5864 -1.7104
 5849TIP3    H239107   4.562   2.392   2.701  1.4204  2.0812 -0.3039
 5850TIP3   OH239108   1.692   6.003   7.118 -0.2724  0.3838 -0.1269
 5850TIP3    H139109   1.666   5.948   7.192  2.0898  0.4346  0.8290
 5850TIP3    H239110   1.668   6.091   7.144  1.1446  0.4907  0.9440
 5851TIP3   OH239111   1.847   3.734   2.117  0.2733  0.0971  0.2602
 5851TIP3    H139112   1.768   3.776   2.083  0.4223  1.5761  1.5964
 5851TIP3    H239113   1.917   3.765   2.060  0.0237 -0.5078 -0.3868
 5852TIP3   OH239114   4.544   1.627   6.808  0.0987 -0.2469 -0.4333
 5852TIP3    H139115   4.489   1.696   6.845 -0.9584 -0.3118 -1.7981
 5852TIP3    H239116   4.553   1.651   6.716 -0.6335 -2.1481 -1.0267
 5853TIP3   OH239117   1.378   4.168   8.096 -0.2360  0.6578 -0.3726
 5853TIP3    H139118   1.434   4.109   8.147 -1.2767  0.5514  0.7050
 5853TIP3    H239119   1.291   4.128   8.100 -0.6212  1.4030 -1.0511
 5854TIP3   OH239120   2.585   1.677   1.643  0.1638 -0.1249  0.1189
 5854TIP3    H139121   2.513   1.719   1.596  0.5000 -0.6765 -0.9346
 5854TIP3    H239122   2.557   1.675   1.734 -1.0700 -0.1438 -0.2469
 5855TIP3   OH239123   4.499   6.171   8.547  0.7306  0.1612  0.0147
 5855TIP3    H139124   4.443   6.240   8.582  0.8460  0.3780 -0.2244
 5855TIP3    H239125   4.582   6.215   8.526  0.9610 -0.1394  0.2835
 5856TIP3   OH239126   0.894   3.926   1.925  0.2547  0.0402  0.5016
 5856TIP3    H139127   0.812   3.889   1.891  0.2035  1.5397 -1.1422
 5856TIP3    H239128   0.933   3.854   1.976 -0.7817 -1.6228 -0.9117
 5857TIP3   OH239129   6.641   5.486   6.658 -0.1065  0.0280  0.0162
 5857TIP3    H139130   6.594   5.414   6.617  0.9263 -0.0396 -1.0978
 5857TIP3    H239131   6.586   5.563   6.645  0.1049 -0.0304 -1.3502
 5858TIP3   OH239132   1.518   2.564   6.265  0.4925  0.6884 -0.0159
 5858TIP3    H139133   1.434   2.532   6.231  0.3154  2.3378 -1.2337
 5858TIP3    H239134   1.494   2.615   6.342  0.3076  1.5089 -0.6029
 5859TIP3   OH239135   0.699   1.019   6.311  0.1662  0.0495  0.3538
 5859TIP3    H139136   0.650   0.946   6.274  0.8729 -0.8114  1.0495
 5859TIP3    H239137   0.765   1.039   6.245  0.0157  0.0050  0.1888
 5860TIP3   OH239138   6.029   6.297   1.519  0.5971  0.0259  0.2197
 5860TIP3    H139139   5.953   6.353   1.505  1.4936  1.8922  2.2445
 5860TIP3    H239140   6.083   6.308   1.441  0.1819  1.0710  0.0802
 5861TIP3   OH239141   3.670   6.380   6.358 -0.0907 -0.4979  0.5740
 5861TIP3    H139142   3.658   6.292   6.392 -1.0928 -0.7413 -0.3883
 5861TIP3    H239143   3.582   6.413   6.344  0.2445  0.8799  1.4208
 5862TIP3   OH239144   6.295   1.853   1.242  0.5454 -0.1998 -0.1638
 5862TIP3    H139145   6.386   1.876   1.224  0.4084  0.8002  0.3673
 5862TIP3    H239146   6.298   1.760   1.264  1.4743 -0.1181  0.0954
 5863TIP3   OH239147   0.683   6.593   0.961  0.4796  0.5029 -0.1617
 5863TIP3    H139148   0.605   6.647   0.962 -0.9925 -1.4776  1.4931
 5863TIP3    H239149   0.678   6.543   0.879  1.1136  1.7834 -1.0116
 5864TIP3   OH239150   4.112   3.675   0.573  0.0126  0.3502 -0.6143
 5864TIP3    H139151   4.175   3.707   0.638  1.5134  1.1166 -2.3442
 5864TIP3    H239152   4.121   3.580   0.577 -1.3815  0.2459  1.6209
 5865TIP3   OH239153   0.636   6.125   0.269  0.1602 -0.2155  0.3166
 5865TIP3    H139154   0.648   6.187   0.197 -0.0835  0.9636  1.2545
 5865TIP3    H239155   0.542   6.126   0.286  0.1399 -0.9386  0.2764
 5866TIP3   OH239156   4.950   1.721   7.745  0.0479 -0.5040  0.5990
 5866TIP3    H139157   4.972   1.714   7.838  1.9572 -1.1197  0.1480
 5866TIP3    H239158   4.974   1.811   7.722 -0.4221 -0.3526  0.6912
 5867TIP3   OH239159   3.390   5.648   7.108  0.3046 -0.2032 -0.2437
 5867TIP3    H139160   3.360   5.716   7.169  0.8256  0.0437 -0.2540
 5867TIP3    H239161   3.402   5.693   7.025  3.0184  0.2972  0.3074
 5868TIP3   OH239162   4.729   0.624   6.589  0.6910  0.0168 -0.0958
 5868TIP3    H139163   4.731   0.584   6.676  0.5477  0.5744  0.1632
 5868TIP3    H239164   4.657   0.581   6.544  0.4064  0.1260  0.2532
 5869TIP3   OH239165   1.462   5.987   6.917 -0.3713 -0.1408  0.2620
 5869TIP3    H139166   1.556   6.005   6.923 -0.2909 -0.1102 -0.7723
 5869TIP3    H239167   1.421   6.059   6.964  0.0951  0.4074 -0.1481
 5870TIP3   OH239168   3.268   2.687   7.045 -0.0347 -0.4093  0.0295
 5870TIP3    H139169   3.207   2.685   6.972 -0.1472  0.1360  0.1056
 5870TIP3    H239170   3.262   2.600   7.084 -0.4913 -0.4737 -0.1832
 5871TIP3   OH239171   4.538   5.033   6.254 -0.0880  0.1364  0.2199
 5871TIP3    H139172   4.511   4.982   6.178 -0.2268 -1.3200  1.1961
 5871TIP3    H239173   4.510   5.123   6.234  0.7369 -0.0165 -1.8235
 5872TIP3   OH239174   4.960   1.727   6.829 -0.7676  0.4158  0.4144
 5872TIP3    H139175   4.894   1.759   6.890 -1.0659 -0.7833  0.7564
 5872TIP3    H239176   4.909   1.683   6.761 -0.3197 -1.4735  1.2479
 5873TIP3   OH239177   1.379   1.616   8.225 -0.1801  0.6389  0.5177
 5873TIP3    H139178   1.322   1.540   8.215  2.1976 -1.6238  2.4875
 5873TIP3    H239179   1.348   1.659   8.304 -0.2960  0.4953  0.5507
 5874TIP3   OH239180   1.173   0.108   1.710 -0.8887 -0.2593  0.1395
 5874TIP3    H139181   1.100   0.166   1.689  0.3578  1.8070  1.1489
 5874TIP3    H239182   1.177   0.109   1.806 -0.1699 -1.1888  0.1338
 5875TIP3   OH239183   5.513   3.340   2.582  0.3079  0.1861 -0.1961
 5875TIP3    H139184   5.506   3.268   2.520 -2.2959 -0.4050  0.6418
 5875TIP3    H239185   5.435   3.393   2.566  0.5003  1.0082  1.3511
 5876TIP3   OH239186   6.585   1.390   0.423 -0.2253  0.6531  0.3288
 5876TIP3    H139187   6.491   1.375   0.425 -0.0140 -0.8313  1.4942
 5876TIP3    H239188   6.610   1.395   0.515  0.5868  3.0422  0.0288
 5877TIP3   OH239189   6.114   3.281   0.609 -0.3896  0.0012  0.2689
 5877TIP3    H139190   6.122   3.338   0.686  0.8617 -1.4585  1.2520
 5877TIP3    H239191   6.019   3.273   0.596 -0.6121  0.8511  1.2103
 5878TIP3   OH239192   5.241   0.229   6.793 -0.8207  0.7988  0.0889
 5878TIP3    H139193   5.161   0.181   6.770 -0.7397  0.0220  1.3162
 5878TIP3    H239194   5.308   0.193   6.736 -1.1327  0.7057 -0.2212
 5879TIP3   OH239195   5.468   3.129   7.201 -0.4197  0.5169  0.4844
 5879TIP3    H139196   5.515   3.076   7.137  0.4025  1.2920  0.4298
 5879TIP3    H239197   5.394   3.075   7.228  0.7008 -0.8801  0.8441
 5880TIP3   OH239198   0.767   5.266   8.395  0.0802  0.3668 -0.6742
 5880TIP3    H139199   0.740   5.298   8.481  0.5528 -3.8526  1.2923
 5880TIP3    H239200   0.692   5.216   8.363  0.6163  0.2485 -1.8051
 5881TIP3   OH239201   0.807   2.665   8.012  0.1233 -0.3241  0.1206
 5881TIP3    H139202   0.868   2.625   8.075  1.5410 -0.7287 -1.4152
 5881TIP3    H239203   0.859   2.672   7.932 -0.8712  2.3474 -0.3700
 5882TIP3   OH239204   3.559   6.066   8.570 -0.0115  0.4085  0.5210
 5882TIP3    H139205   3.595   6.005   8.634  0.7885  1.2208  0.8698
 5882TIP3    H239206   3.501   6.123   8.622 -1.4338 -0.5545  0.0549
 5883TIP3   OH239207   4.868   5.834   0.915 -0.2635  0.2878  0.0646
 5883TIP3    H139208   4.938   5.837   0.850  0.0699 -0.4182  0.3784
 5883TIP3    H239209   4.860   5.741   0.937  0.4446  0.6263  1.9019
 5884TIP3   OH239210   6.392   2.078   1.846 -0.4274 -0.4025  0.1195
 5884TIP3    H139211   6.302   2.048   1.837 -0.4212 -0.8388  1.3283
 5884TIP3    H239212   6.434   2.055   1.763 -1.7049  0.8688 -0.9156
 5885TIP3   OH239213   5.613   4.370   1.130  0.3729  0.0254  0.3145
 5885TIP3    H139214   5.540   4.355   1.190 -1.6407 -0.6383 -2.1634
 5885TIP3    H239215   5.623   4.466   1.128 -1.2540  0.2160 -0.1735
 5886TIP3   OH239216   3.214   0.604   8.365  0.0035 -0.1637  0.0793
 5886TIP3    H139217   3.128   0.562   8.366 -0.2081  0.2604  1.2377
 5886TIP3    H239218   3.197   0.696   8.385  0.7374 -0.1031  0.4862
 5887TIP3   OH239219   5.674   4.573   1.447 -0.0761 -0.3290  0.0612
 5887TIP3    H139220   5.689   4.497   1.391  0.2236 -0.7270  0.6718
 5887TIP3    H239221   5.741   4.567   1.514 -0.1482  0.3961  0.2032
 5888TIP3   OH239222   1.535   0.715   6.862 -0.5166  0.2089 -0.0549
 5888TIP3    H139223   1.562   0.651   6.796 -1.0696 -0.0491 -0.0293
 5888TIP3    H239224   1.449   0.745   6.832 -0.3090  0.8618 -0.0095
 5889TIP3   OH239225   1.335   6.163   7.066  0.6447 -0.2197  0.4820
 5889TIP3    H139226   1.290   6.245   7.045  1.7063  0.1985 -0.2641
 5889TIP3    H239227   1.422   6.190   7.095  1.0384 -1.0763  0.1384
 5890TIP3   OH239228   2.952   5.993   7.341 -0.2483 -0.2798 -0.0556
 5890TIP3    H139229   2.872   6.018   7.295 -0.5658  1.8521  1.4911
 5890TIP3    H239230   2.922   5.937   7.412 -0.0711 -1.3274 -0.7854
 5891TIP3   OH239231   6.162   3.725   7.273 -0.3578 -0.2117 -0.3459
 5891TIP3    H139232   6.245   3.768   7.295 -0.2890 -0.6349  0.2672
 5891TIP3    H239233   6.095   3.780   7.314 -0.2371 -0.9346  0.9044
 5892TIP3   OH239234   5.068   4.087   0.629  0.1622  0.1307  0.5282
 5892TIP3    H139235   5.076   4.086   0.533  0.0266 -1.3292  0.5120
 5892TIP3    H239236   5.140   4.143   0.658 -0.6123  1.7359 -0.4667
 5893TIP3   OH239237   6.061   4.185   6.043 -0.4133 -0.5886 -0.5626
 5893TIP3    H139238   5.987   4.219   6.093 -1.9299  0.6655 -3.4681
 5893TIP3    H239239   6.074   4.248   5.972  3.4716 -0.7799 -0.2407
 5894TIP3   OH239240   4.951   0.351   8.027  0.3160  0.3271  0.3649
 5894TIP3    H139241   4.869   0.324   7.987 -0.6246 -0.2583  2.5148
 5894TIP3    H239242   4.949   0.447   8.022  0.4166  0.2706 -1.2272
 5895TIP3   OH239243   0.433   4.648   7.186  0.1052  0.4075  0.1037
 5895TIP3    H139244   0.504   4.681   7.132  0.5965  2.5861  1.9088
 5895TIP3    H239245   0.371   4.721   7.191 -1.9599 -1.1732 -0.8180
 5896TIP3   OH239246   1.493   0.165   7.447 -0.3183 -0.3663  0.0371
 5896TIP3    H139247   1.564   0.136   7.389 -0.4020  0.1903 -0.3519
 5896TIP3    H239248   1.509   0.119   7.530  2.5569  2.3904  1.1836
 5897TIP3   OH239249   1.878   0.215   0.295  0.8836  0.4660  0.0985
 5897TIP3    H139250   1.803   0.260   0.333  1.5372  2.6311 -1.0364
 5897TIP3    H239251   1.874   0.236   0.202  1.5394 -1.4505 -0.4206
 5898TIP3   OH239252   2.006   0.628   0.220 -0.0412  0.4599 -0.3801
 5898TIP3    H139253   1.958   0.667   0.147 -2.7038  1.8201  1.9185
 5898TIP3    H239254   2.086   0.679   0.225 -0.7316  1.6662 -1.1223
 5899TIP3   OH239255   4.228   2.770   7.803  0.4732 -0.1152  0.4087
 5899TIP3    H139256   4.256   2.748   7.714  0.6888 -0.6313  0.5974
 5899TIP3    H239257   4.156   2.832   7.792 -0.0319 -0.7862 -0.1527
 5900TIP3   OH239258   0.885   1.190   8.073  0.7814  0.0521  0.6327
 5900TIP3    H139259   0.972   1.195   8.113  0.4511  0.7974  1.2992
 5900TIP3    H239260   0.885   1.107   8.026  0.6599 -1.7425  3.5335
 5901TIP3   OH239261   4.466   3.155   7.318 -0.8038  0.4424 -0.7717
 5901TIP3    H139262   4.374   3.153   7.291 -1.0933 -0.7593  0.2438
 5901TIP3    H239263   4.485   3.248   7.330 -1.5836  0.7768 -1.9676
 5902TIP3   OH239264   6.242   2.866   1.144  0.3834  0.5122 -0.2571
 5902TIP3    H139265   6.333   2.884   1.168  0.3230  1.0222 -0.3987
 5902TIP3    H239266   6.248   2.798   1.077  0.7267  1.3638 -1.1060
 5903TIP3   OH239267   2.737   2.755   0.001 -0.2768 -0.2180  0.5865
 5903TIP3    H139268   2.667   2.821   0.008  1.9521  2.5259 -0.7450
 5903TIP3    H239269   2.795   2.774   0.075  0.8588 -0.0288 -0.3214
 5904TIP3   OH239270   0.562   6.349   8.521 -0.2794  0.2581  0.0991
 5904TIP3    H139271   0.475   6.320   8.494  0.2011  0.0132 -1.2512
 5904TIP3    H239272   0.595   6.399   8.446  1.6970 -1.7030 -0.4691
 5905TIP3   OH239273   0.353   2.811   7.647  0.0041 -1.0656  0.6808
 5905TIP3    H139274   0.275   2.867   7.644  0.7173 -0.0723  0.0839
 5905TIP3    H239275   0.419   2.864   7.691  1.0080 -1.0068 -0.8241
 5906TIP3   OH239276   1.902   4.310   0.147  0.2466 -0.4226  0.3794
 5906TIP3    H139277   1.877   4.220   0.169  0.9111 -0.5264  0.7547
 5906TIP3    H239278   1.820   4.359   0.148  0.0443 -0.7477  1.5726
 5907TIP3   OH239279   3.171   4.108   0.979 -0.3733 -0.1048 -0.1511
 5907TIP3    H139280   3.200   4.026   1.020 -0.6477 -0.4267 -0.5912
 5907TIP3    H239281   3.077   4.098   0.969 -0.4597  0.4284  0.1436
 5908TIP3   OH239282   3.638   5.824   8.300 -0.5107  0.1070  0.2358
 5908TIP3    H139283   3.618   5.774   8.221 -3.9291  1.3890  0.0923
 5908TIP3    H239284   3.565   5.805   8.359  0.6942  1.0609  2.1382
 5909TIP3   OH239285   3.020   3.523   8.558 -0.2487 -0.2599 -0.2418
 5909TIP3    H139286   2.971   3.456   8.509  0.8144 -1.0045 -0.3242
 5909TIP3    H239287   3.055   3.476   8.633  0.3577  0.2603 -0.1971
 5910TIP3   OH239288   2.922   2.544   7.667 -0.1092 -0.3385 -0.4942
 5910TIP3    H139289   2.830   2.518   7.674 -0.4908  1.1294  0.1890
 5910TIP3    H239290   2.966   2.465   7.635 -1.5748 -1.1059 -0.7161
 5911TIP3   OH239291   2.736   5.403   8.456  0.6949  0.3085 -0.5652
 5911TIP3    H139292   2.652   5.396   8.502  1.7856  1.0132  1.6705
 5911TIP3    H239293   2.757   5.313   8.432  0.5730 -0.2700  1.3423
 5912TIP3   OH239294   6.439   2.469   0.347 -0.3365 -0.5105 -0.0117
 5912TIP3    H139295   6.488   2.546   0.318 -0.6123  0.0939  1.0835
 5912TIP3    H239296   6.422   2.485   0.440 -2.0284 -1.0177 -0.2095
 5913TIP3   OH239297   4.673   1.950   1.583  0.0310 -0.1403 -0.0044
 5913TIP3    H139298   4.708   1.937   1.671  1.2088  0.2740 -0.3911
 5913TIP3    H239299   4.689   2.043   1.564 -0.1167 -0.2432 -0.6773
 5914TIP3   OH239300   6.120   3.959   8.125  0.4861 -0.2146 -0.0919
 5914TIP3    H139301   6.175   4.032   8.098  0.9917 -0.5078  0.1294
 5914TIP3    H239302   6.136   3.949   8.218 -0.5409  0.1905  0.1450
 5915TIP3   OH239303   0.564   1.868   0.877 -0.3399  0.4120 -0.2267
 5915TIP3    H139304   0.611   1.923   0.814  0.2026  1.6112  1.1699
 5915TIP3    H239305   0.541   1.927   0.948 -0.0546 -1.0987  1.1775
 5916TIP3   OH239306   6.852   1.700   0.693  0.4295  0.2774 -0.2968
 5916TIP3    H139307   6.904   1.719   0.615 -0.1297 -2.1942 -1.3515
 5916TIP3    H239308   6.882   1.764   0.758  2.1334  1.2912 -1.9865
 5917TIP3   OH239309   4.512   4.123   1.682  0.3059  0.0645  0.1706
 5917TIP3    H139310   4.497   4.033   1.652 -2.3502  0.1790  0.9493
 5917TIP3    H239311   4.510   4.117   1.778  2.1239  0.6897  0.2837
 5918TIP3   OH239312   1.706   5.320   8.027  0.1324  0.5007  0.3170
 5918TIP3    H139313   1.615   5.337   8.003  0.0594  0.1547  0.3407
 5918TIP3    H239314   1.738   5.258   7.961  0.0145 -0.2412  0.9401
 5919TIP3   OH239315   1.996   3.911   6.755 -0.0131 -0.4874  0.0524
 5919TIP3    H139316   1.947   3.855   6.816  0.9431  0.2979  1.6009
 5919TIP3    H239317   1.946   3.992   6.751  0.3457 -0.2427  0.4412
 5920TIP3   OH239318   3.319   0.810   0.250  0.3188 -0.4748 -0.4755
 5920TIP3    H139319   3.301   0.837   0.340 -0.2799 -0.1398 -0.6883
 5920TIP3    H239320   3.241   0.760   0.224  1.2415 -2.1144 -0.2194
 5921TIP3   OH239321   5.340   0.585   6.783 -0.1564  0.1611 -0.1943
 5921TIP3    H139322   5.349   0.658   6.721 -0.5103  1.2849  1.0524
 5921TIP3    H239323   5.380   0.511   6.737 -2.2180  0.4173 -2.6223
 5922TIP3   OH239324   1.832   5.726   0.937 -0.2642 -0.9644 -0.5413
 5922TIP3    H139325   1.877   5.668   0.999 -0.9124 -1.9254 -0.9396
 5922TIP3    H239326   1.842   5.681   0.853  0.9981  0.5406 -1.2473
 5923TIP3   OH239327   0.124   3.808   0.160  0.0584 -0.0741 -0.0927
 5923TIP3    H139328   0.209   3.775   0.132  1.2019  2.0676  0.6127
 5923TIP3    H239329   0.101   3.753   0.235  2.7942  1.6483  2.2472
 5924TIP3   OH239330   5.416   0.118   0.658 -0.0291 -0.3557  0.2492
 5924TIP3    H139331   5.363   0.117   0.738  0.3031 -1.7669  0.4764
 5924TIP3    H239332   5.497   0.072   0.682  1.0270  1.1600 -0.2830
 5925TIP3   OH239333   0.192   3.468   1.632 -0.0116 -0.1894 -0.3483
 5925TIP3    H139334   0.104   3.460   1.669  0.0944 -0.5296 -0.1554
 5925TIP3    H239335   0.199   3.395   1.570  0.3415 -0.5307  0.0839
 5926TIP3   OH239336   1.743   1.745   7.026  0.3005  0.0053 -0.2757
 5926TIP3    H139337   1.795   1.669   6.999  2.4841  0.6391  1.8452
 5926TIP3    H239338   1.795   1.821   7.001 -0.9139  0.7761 -0.5563
 5927TIP3   OH239339   6.663   3.227   7.092 -0.0556  0.9755  0.0707
 5927TIP3    H139340   6.657   3.132   7.102  2.9418  0.7372  0.6227
 5927TIP3    H239341   6.586   3.251   7.041 -0.4506 -1.8595 -0.8168
 5928TIP3   OH239342   0.128   5.907   7.293  0.2244  0.1744 -0.0891
 5928TIP3    H139343   0.166   5.870   7.213  0.0006 -0.3576  0.0439
 5928TIP3    H239344   0.034   5.894   7.284  0.1518  0.5970  0.0250
 5929TIP3   OH239345   3.624   0.417   2.070  0.0387  0.4439  0.6233
 5929TIP3    H139346   3.561   0.345   2.062  0.1681  0.5206 -1.3384
 5929TIP3    H239347   3.600   0.460   2.153 -0.7623 -1.1432  1.2449
 5930TIP3   OH239348   3.691   6.336   7.083 -0.1127  0.2638  0.1000
 5930TIP3    H139349   3.707   6.420   7.041 -1.1268 -0.0711 -1.0099
 5930TIP3    H239350   3.743   6.339   7.163  2.5422  0.6271 -1.5089
 5931TIP3   OH239351   6.066   1.308   7.427 -0.9414 -0.0565 -0.2592
 5931TIP3    H139352   6.156   1.339   7.429 -1.2478  0.8285  0.5900
 5931TIP3    H239353   6.070   1.219   7.461 -0.4485  0.1510  0.2281
 5932TIP3   OH239354   0.168   5.298   0.836  0.5066  0.0515 -0.1768
 5932TIP3    H139355   0.254   5.267   0.865  0.2978 -0.3756 -0.0083
 5932TIP3    H239356   0.136   5.230   0.777 -0.1438 -0.2870  0.5434
 5933TIP3   OH239357   6.787   3.354   0.398 -0.1245 -0.4115  0.0699
 5933TIP3    H139358   6.704   3.402   0.404 -0.0351 -0.3744  1.2039
 5933TIP3    H239359   6.768   3.281   0.340 -0.4782  0.5546 -1.0783
 5934TIP3   OH239360   2.480   6.411   8.515  0.4175 -0.2852  0.9385
 5934TIP3    H139361   2.566   6.433   8.478  0.6353  0.1890  1.7096
 5934TIP3    H239362   2.448   6.493   8.551  0.3634 -0.8077  2.1142
 5935TIP3   OH239363   0.646   6.543   7.290 -0.3754 -0.9535  0.4705
 5935TIP3    H139364   0.634   6.629   7.251 -2.7905 -1.7105 -0.6787
 5935TIP3    H239365   0.615   6.552   7.380 -4.2332 -1.3000 -0.6234
 5936TIP3   OH239366   4.207   4.793   8.271 -0.0921  0.0258  0.5834
 5936TIP3    H139367   4.232   4.806   8.363 -1.2004  0.0839  0.8898
 5936TIP3    H239368   4.215   4.880   8.232  1.1370 -0.1420  0.4142
 5937TIP3   OH239369   5.963   2.750   1.465  0.6015 -0.3198 -0.0618
 5937TIP3    H139370   5.874   2.716   1.469  0.4347  0.0840 -0.2528
 5937TIP3    H239371   6.019   2.674   1.480  0.2073 -0.0864  3.2366
 5938TIP3   OH239372   3.459   3.583   2.155 -0.3340 -0.0344  0.6070
 5938TIP3    H139373   3.489   3.521   2.222  0.9884  0.9428  0.9766
 5938TIP3    H239374   3.480   3.541   2.072  0.1432 -0.2755  0.8466
 5939TIP3   OH239375   4.721   2.349   2.072  0.1358 -0.2002 -0.2347
 5939TIP3    H139376   4.698   2.354   2.165  2.1016 -1.1583  0.3583
 5939TIP3    H239377   4.746   2.258   2.058  2.1791  0.4255 -1.0770
 5940TIP3   OH239378   6.249   5.285   2.093  0.4489 -0.3085 -0.5559
 5940TIP3    H139379   6.289   5.332   2.020 -2.1188 -1.2265 -2.7037
 5940TIP3    H239380   6.160   5.320   2.098 -0.0185 -1.5996  0.9304
 5941TIP3   OH239381   5.396   2.704   8.509 -0.2218  0.6154 -0.0522
 5941TIP3    H139382   5.312   2.739   8.479  0.2329  0.6162 -1.3649
 5941TIP3    H239383   5.444   2.780   8.540 -0.6002  0.6466  0.4806
 5942TIP3   OH239384   3.346   0.125   8.255  0.0682 -0.3985 -0.7395
 5942TIP3    H139385   3.311   0.212   8.273 -0.2700 -0.7194  0.2504
 5942TIP3    H239386   3.434   0.126   8.292 -0.1667 -0.6692 -0.1656
 5943TIP3   OH239387   0.871   0.532   8.431 -0.3012 -0.0246  0.7169
 5943TIP3    H139388   0.886   0.523   8.337  0.9929  1.5500  0.7246
 5943TIP3    H239389   0.779   0.510   8.443 -0.6891  0.4920 -1.0377
 5944TIP3   OH239390   6.561   6.376   0.654 -0.0378 -0.0311 -0.4199
 5944TIP3    H139391   6.603   6.292   0.674  1.3505  0.9943  1.2727
 5944TIP3    H239392   6.485   6.380   0.712  0.9631  0.6359  0.9071
 5945TIP3   OH239393   5.438   5.325   1.279 -0.0887  0.2567 -0.2179
 5945TIP3    H139394   5.438   5.266   1.204 -2.2259 -0.1323  0.0220
 5945TIP3    H239395   5.526   5.362   1.280  0.3775 -0.6495 -2.1648
 5946TIP3   OH239396   2.119   5.623   0.707 -0.3016 -0.9082  0.2467
 5946TIP3    H139397   2.063   5.654   0.636  0.7323  1.4478  0.3719
 5946TIP3    H239398   2.200   5.597   0.664  0.2933  0.4407  0.4940
 5947TIP3   OH239399   3.852   5.000   8.254  0.4474  0.2526 -0.1423
 5947TIP3    H139400   3.906   5.077   8.271  0.0211  0.6567 -0.5992
 5947TIP3    H239401   3.762   5.032   8.262  0.2568  0.0399 -1.3263
 5948TIP3   OH239402   0.030   2.742   8.177 -0.0451 -0.7725 -0.2311
 5948TIP3    H139403   0.053   2.686   8.104  2.2110 -0.5607  0.2588
 5948TIP3    H239404  -0.066   2.742   8.178 -0.1617 -0.7163 -3.2011
 5949TIP3   OH239405   0.618   3.077   8.390 -0.7661 -0.1739 -0.1685
 5949TIP3    H139406   0.526   3.072   8.417 -0.4364 -1.0102  0.8833
 5949TIP3    H239407   0.665   3.025   8.455  0.4912  0.4249 -0.5613
 5950TIP3   OH239408   6.712   3.422   7.496  0.7206  0.1958  0.0499
 5950TIP3    H139409   6.659   3.463   7.427 -0.7740 -2.2532 -0.3545
 5950TIP3    H239410   6.670   3.451   7.577  0.0608 -0.0112 -0.2055
 5951TIP3   OH239411   1.827   1.718   7.337  0.5048  0.5972 -0.8014
 5951TIP3    H139412   1.837   1.813   7.346  1.4604  0.5206 -0.9646
 5951TIP3    H239413   1.784   1.706   7.253  2.4752  0.8201 -1.9126
 5952TIP3   OH239414   5.342   3.987   6.801  0.2203 -0.0799 -0.0926
 5952TIP3    H139415   5.386   3.950   6.725 -0.9584  1.9442 -1.8651
 5952TIP3    H239416   5.249   3.974   6.784 -0.1697  2.3046 -0.1170
 5953TIP3   OH239417   6.249   2.580   7.812 -0.3367  0.3783  0.0863
 5953TIP3    H139418   6.283   2.530   7.737 -0.8394 -0.3929  0.3503
 5953TIP3    H239419   6.161   2.544   7.825 -0.9647  1.7964 -0.1168
 5954TIP3   OH239420   4.028   4.940   1.283  0.1861 -0.7244  0.2606
 5954TIP3    H139421   4.025   4.991   1.202  0.4775  0.5532  1.0214
 5954TIP3    H239422   4.121   4.926   1.300  0.2922  1.3678  1.7484
 5955TIP3   OH239423   0.571   3.770   7.272 -0.4576 -0.2430 -0.0756
 5955TIP3    H139424   0.540   3.750   7.184  1.0498 -0.1862 -0.6564
 5955TIP3    H239425   0.641   3.834   7.259 -1.4099  1.1461  1.3294
 5956TIP3   OH239426   1.056   0.865   7.739 -0.3095  0.3175  0.8130
 5956TIP3    H139427   1.141   0.904   7.718 -0.3543  0.4989  0.9639
 5956TIP3    H239428   1.043   0.797   7.674 -0.1794  0.4840  0.6150
 5957TIP3   OH239429   2.587   1.074   1.328 -0.0575 -0.5607 -0.1698
 5957TIP3    H139430   2.682   1.074   1.335 -0.0694 -1.2829  0.0744
 5957TIP3    H239431   2.569   1.027   1.247 -0.2908 -4.6889  1.9825
 5958TIP3   OH239432   0.506   0.351   0.509  0.2190 -0.2988  0.4973
 5958TIP3    H139433   0.475   0.367   0.420 -0.5620  1.3712  1.0268
 5958TIP3    H239434   0.595   0.386   0.510 -0.1977  0.8033  0.6662
 5959TIP3   OH239435   2.632   5.046   7.042 -0.3625  0.0875  0.9144
 5959TIP3    H139436   2.725   5.026   7.032 -0.2883  0.2770  1.2113
 5959TIP3    H239437   2.597   4.974   7.094 -0.1470  0.5961  1.7703
 5960TIP3   OH239438   3.383   6.238   7.483  0.3020 -0.0581 -0.1681
 5960TIP3    H139439   3.436   6.296   7.428 -0.5296 -1.8115 -3.0307
 5960TIP3    H239440   3.399   6.151   7.447 -0.2898 -1.3494  2.4798
 5961TIP3   OH239441   2.949   1.010   6.422  0.2220 -0.4392 -0.6472
 5961TIP3    H139442   2.976   0.920   6.439  0.9578 -0.4841 -1.9891
 5961TIP3    H239443   2.960   1.022   6.328  1.8953  1.6054 -0.2653
 5962TIP3   OH239444   4.821   3.747   6.650 -0.1358  0.2723 -0.0278
 5962TIP3    H139445   4.875   3.812   6.696 -1.0853 -0.7612  2.7396
 5962TIP3    H239446   4.869   3.665   6.658 -1.3949 -0.3818  1.2483
 5963TIP3   OH239447   1.377   2.398   8.608  0.4572  0.4715 -0.0084
 5963TIP3    H139448   1.300   2.346   8.630 -1.5504  3.8386  1.7038
 5963TIP3    H239449   1.449   2.354   8.653 -0.8597 -1.4493  0.3575
 5964TIP3   OH239450   5.346   6.709   8.700 -0.5685  0.0759  0.1629
 5964TIP3    H139451   5.351   6.675   8.789  1.3588  0.5565  0.2789
 5964TIP3    H239452   5.367   6.802   8.709 -0.4398  0.1451 -0.7816
 5965TIP3   OH239453   3.764   6.469   8.394 -0.0445  0.9997 -0.0228
 5965TIP3    H139454   3.708   6.420   8.454 -0.3080  0.3101 -0.8086
 5965TIP3    H239455   3.792   6.404   8.329 -2.0601  2.2215 -2.2944
 5966TIP3   OH239456   2.129   4.092   7.435  0.1472 -0.5648 -0.4159
 5966TIP3    H139457   2.042   4.128   7.450  0.6788  0.0787  1.3047
 5966TIP3    H239458   2.182   4.124   7.508  1.6759 -1.4764 -1.0683
 5967TIP3   OH239459   2.588   6.396   0.089  0.0459  0.0974  0.5630
 5967TIP3    H139460   2.537   6.371   0.012  2.0249 -1.5906 -0.2874
 5967TIP3    H239461   2.673   6.355   0.076  0.4778 -0.2126  3.6331
 5968TIP3   OH239462   2.503   3.137   6.691 -0.1948  0.1874  0.9209
 5968TIP3    H139463   2.483   3.124   6.598 -0.8577 -4.3388  1.4554
 5968TIP3    H239464   2.425   3.179   6.726 -1.4712 -1.2462 -0.0544
 5969TIP3   OH239465   0.025   1.741   0.407 -0.1146  0.6457  0.7284
 5969TIP3    H139466   0.015   1.741   0.312  0.5385  0.0501  0.6508
 5969TIP3    H239467  -0.012   1.657   0.436 -0.2511  0.7943  0.9957
 5970TIP3   OH239468   2.192   4.368   7.987  0.1653 -0.3051  0.5484
 5970TIP3    H139469   2.179   4.462   7.977 -1.1153 -0.6162 -1.2324
 5970TIP3    H239470   2.126   4.342   8.051  1.3299  0.1454  1.9869
 5971TIP3   OH239471   2.780   5.769   8.282  0.2697 -0.7123  0.0411
 5971TIP3    H139472   2.772   5.680   8.247  1.3848 -1.0875  0.6678
 5971TIP3    H239473   2.700   5.782   8.332 -1.5086 -0.0533 -2.7801
 5972TIP3   OH239474   0.222   6.121   7.725 -0.4531 -0.0746 -0.5836
 5972TIP3    H139475   0.209   6.178   7.801 -0.9993 -0.5300 -0.3258
 5972TIP3    H239476   0.135   6.086   7.706  0.3038 -3.8065  1.6443
 5973TIP3   OH239477   1.910   4.702   0.081 -0.0379 -0.1803  0.0886
 5973TIP3    H139478   1.854   4.727   0.154  0.1040 -1.3721  0.6255
 5973TIP3    H239479   1.851   4.658   0.020 -0.0091  0.1518 -0.1876
 5974TIP3   OH239480   1.909   0.129   7.935  0.1797  0.1066 -0.5590
 5974TIP3    H139481   1.960   0.150   8.013  0.6979  0.3750 -0.9683
 5974TIP3    H239482   1.969   0.080   7.879  0.7746  2.3895 -2.0552
 5975TIP3   OH239483   5.582   5.719   6.763 -0.5341 -0.1125 -0.2178
 5975TIP3    H139484   5.657   5.735   6.822  0.0916 -2.9861 -0.0796
 5975TIP3    H239485   5.506   5.744   6.815  0.1914  0.7738  0.4729
 5976TIP3   OH239486   6.800   5.705   8.643  0.1552  0.4948 -0.0938
 5976TIP3    H139487   6.784   5.728   8.734 -0.8318  0.1655 -0.1696
 5976TIP3    H239488   6.712   5.688   8.607  0.6826 -1.5923 -0.4997
 5977TIP3   OH239489   2.476   1.493   7.995 -0.1429  0.2161 -0.4200
 5977TIP3    H139490   2.428   1.475   7.914 -0.1836 -0.0259 -0.3422
 5977TIP3    H239491   2.476   1.588   8.002 -1.2228  0.1987 -0.0543
 5978TIP3   OH239492   2.200   4.296   1.516  0.4204 -0.4166 -0.0857
 5978TIP3    H139493   2.151   4.249   1.448  0.2375 -0.5493  0.1363
 5978TIP3    H239494   2.205   4.234   1.588  0.4021 -0.1867  0.1130
 5979TIP3   OH239495   4.244   3.786   8.483 -0.0445 -0.1102 -0.2901
 5979TIP3    H139496   4.267   3.694   8.489 -1.4154 -0.5225 -0.8859
 5979TIP3    H239497   4.252   3.807   8.390 -0.9673  0.0082 -0.3568
 5980TIP3   OH239498   6.380   5.487   8.720 -0.2261  0.3098 -0.6161
 5980TIP3    H139499   6.455   5.436   8.689 -0.1908  0.7543 -1.2993
 5980TIP3    H239500   6.311   5.423   8.733 -0.0238  0.0172 -0.9491
 5981TIP3   OH239501   3.074   6.629   1.293  0.1128  0.2566 -0.0713
 5981TIP3    H139502   3.076   6.561   1.225 -1.2287 -0.7551  0.8372
 5981TIP3    H239503   2.991   6.615   1.338  0.9748  0.8489  1.8170
 5982TIP3   OH239504   4.315   0.528   1.458  0.6246 -0.1815  0.1128
 5982TIP3    H139505   4.346   0.556   1.544 -1.2826 -1.6722  1.3616
 5982TIP3    H239506   4.344   0.437   1.451  0.9024 -0.0247 -0.9155
 5983TIP3   OH239507   2.442   1.768   8.006 -0.1886  0.1758  0.6221
 5983TIP3    H139508   2.383   1.776   7.931 -0.7907  0.1891  1.0880
 5983TIP3    H239509   2.418   1.840   8.064  1.6938  1.4485 -0.1062
 5984TIP3   OH239510   6.557   5.059   7.278 -0.1850  0.3273 -0.1076
 5984TIP3    H139511   6.629   4.999   7.297 -0.3869  0.3178  0.6462
 5984TIP3    H239512   6.543   5.108   7.360 -2.0108 -0.6982  0.2535
 5985TIP3   OH239513   2.668   3.524   1.330 -0.0006  0.4384  0.2598
 5985TIP3    H139514   2.710   3.448   1.290  0.3430  0.6039  0.3095
 5985TIP3    H239515   2.629   3.571   1.256 -1.4043 -0.4999  0.3465
 5986TIP3   OH239516   0.999   6.127   0.399 -0.2650 -0.4691 -0.6702
 5986TIP3    H139517   0.987   6.211   0.355 -1.0283 -0.7841 -1.0796
 5986TIP3    H239518   0.913   6.086   0.396  0.2256 -1.5053 -0.9905
 5987TIP3   OH239519   2.378   5.129   1.846  0.2870  0.3977 -0.1789
 5987TIP3    H139520   2.379   5.033   1.843 -1.3874  0.3733 -1.1380
 5987TIP3    H239521   2.344   5.155   1.761 -1.7045  1.7413  0.9341
 5988TIP3   OH239522   0.014   6.792   1.128  0.0383 -0.0262 -0.5843
 5988TIP3    H139523  -0.053   6.726   1.114 -1.8639  1.8717 -0.8560
 5988TIP3    H239524  -0.018   6.844   1.201  2.5913 -0.6849  1.1607
 5989TIP3   OH239525   3.183   5.256   0.323 -0.0980 -0.1139  0.1211
 5989TIP3    H139526   3.177   5.161   0.337  0.4253 -0.0160  1.0874
 5989TIP3    H239527   3.140   5.294   0.400  2.7525  0.4503  1.5735
 5990TIP3   OH239528   6.666   3.800   7.841  0.5764  1.5448 -0.6603
 5990TIP3    H139529   6.710   3.809   7.925  0.0418 -0.4393 -0.1322
 5990TIP3    H239530   6.737   3.792   7.777  1.0345 -0.6278  0.0628
 5991TIP3   OH239531   6.628   2.318   1.260 -0.5002  0.2687  0.3705
 5991TIP3    H139532   6.539   2.308   1.226  0.2039  0.4630 -1.6847
 5991TIP3    H239533   6.635   2.411   1.283 -1.0368  0.1065  1.2033
 5992TIP3   OH239534   5.924   4.085   7.190 -0.0933  0.1497  0.7602
 5992TIP3    H139535   5.943   4.163   7.137 -2.1140  0.9577  1.1655
 5992TIP3    H239536   5.971   4.100   7.272  0.2476  0.5107  0.5066
 5993TIP3   OH239537   5.864   6.527   0.710 -0.1984 -0.7526 -0.5168
 5993TIP3    H139538   5.955   6.522   0.738 -0.6226  1.7862  1.7446
 5993TIP3    H239539   5.814   6.494   0.784 -1.1975  1.0486 -0.3435
 5994TIP3   OH239540   6.595   6.557   7.767  0.3715 -0.1644 -0.1319
 5994TIP3    H139541   6.521   6.497   7.777 -0.9992  1.4942  0.2516
 5994TIP3    H239542   6.636   6.560   7.854 -0.3049  0.3358  0.1842
 5995TIP3   OH239543   6.551   4.237   7.028  0.4735 -0.1356 -0.3169
 5995TIP3    H139544   6.463   4.268   7.052  0.7965  1.0486 -0.5853
 5995TIP3    H239545   6.564   4.159   7.082  0.3343  1.2264  1.8255
 5996TIP3   OH239546   6.811   5.389   7.977 -0.0184 -0.4892  0.3212
 5996TIP3    H139547   6.882   5.373   7.914 -1.2806 -0.7215 -1.1090
 5996TIP3    H239548   6.839   5.466   8.026  1.5722 -1.0362  0.3334
 5997TIP3   OH239549   4.037   3.897   0.204  0.1016  0.1803 -0.1599
 5997TIP3    H139550   4.104   3.831   0.221  0.4551  0.2176 -1.3250
 5997TIP3    H239551   4.048   3.920   0.111 -1.4896  0.2245 -0.3746
 5998TIP3   OH239552   1.703   5.608   7.899  0.0387  0.1718  0.1657
 5998TIP3    H139553   1.724   5.517   7.875  1.9748  0.2721  1.2661
 5998TIP3    H239554   1.643   5.599   7.973  0.3364 -0.2343  0.3653
 5999TIP3   OH239555   2.030   4.379   8.479 -0.2542 -0.0013 -0.4123
 5999TIP3    H139556   2.082   4.430   8.418 -0.1478 -0.3573 -0.6212
 5999TIP3    H239557   2.064   4.403   8.565 -2.0162  2.3689 -0.2622
 6000TIP3   OH239558   5.325   1.794   6.771  0.2377 -0.6401  0.5959
 6000TIP3    H139559   5.268   1.720   6.788 -2.8519  1.3483 -0.2314
 6000TIP3    H239560   5.300   1.860   6.837  0.9472  0.6426 -0.3606
 6001TIP3   OH239561   6.663   0.937   0.143  0.1340 -0.1869  0.4249
 6001TIP3    H139562   6.600   0.951   0.072  0.6138 -0.8715 -0.1423
 6001TIP3    H239563   6.718   1.015   0.141  0.4342 -0.4046 -0.2668
 6002TIP3   OH239564   0.776   6.301   1.246 -0.5675  0.3034 -0.0694
 6002TIP3    H139565   0.814   6.373   1.297 -1.4324  0.4905  0.3197
 6002TIP3    H239566   0.803   6.320   1.156  1.0072 -0.0471  0.2836
 6003TIP3   OH239567   0.700   0.493   1.761 -0.0178 -0.0880 -0.0750
 6003TIP3    H139568   0.773   0.454   1.809  1.1117  0.7182 -1.0889
 6003TIP3    H239569   0.671   0.424   1.702 -0.2536 -0.4890  0.4925
 6004TIP3   OH239570   1.522   6.695   6.955 -0.5852 -0.7585 -0.5161
 6004TIP3    H139571   1.591   6.632   6.979 -1.6784 -1.6671  0.3479
 6004TIP3    H239572   1.533   6.707   6.860  1.7534  0.3669 -0.1752
 6005TIP3   OH239573   4.421   1.122   7.324 -0.3151  0.5841  0.0395
 6005TIP3    H139574   4.509   1.112   7.288 -0.7242 -1.8783 -0.4177
 6005TIP3    H239575   4.429   1.091   7.414 -0.7725  0.1025 -0.0845
 6006TIP3   OH239576   1.051   0.763   8.461 -0.0775 -0.0321 -0.0700
 6006TIP3    H139577   1.021   0.852   8.446  0.4364  0.0127 -0.9625
 6006TIP3    H239578   0.973   0.709   8.450  0.0655  0.0960 -2.1859
 6007TIP3   OH239579   4.236   0.655   1.167  0.1219  0.7844 -0.2009
 6007TIP3    H139580   4.146   0.624   1.180  0.5733 -0.2126  0.6630
 6007TIP3    H239581   4.249   0.651   1.072 -0.7893  1.1104 -0.3532
 6008TIP3   OH239582   4.639   1.144   0.327 -0.2039  0.0690 -0.7319
 6008TIP3    H139583   4.597   1.151   0.241  1.0315 -1.4071 -1.5106
 6008TIP3    H239584   4.572   1.103   0.382 -0.8764  0.6766 -1.0680
 6009TIP3   OH239585   0.420   6.560   0.091  0.3135 -0.0266  0.1203
 6009TIP3    H139586   0.390   6.545   0.002  0.6264  1.0673 -0.1933
 6009TIP3    H239587   0.492   6.622   0.082  0.4881 -0.0581  1.1172
 6010TIP3   OH239588   2.794   2.323   0.316 -0.5034  0.0552 -0.3000
 6010TIP3    H139589   2.774   2.408   0.354 -1.2863  0.3302 -1.2906
 6010TIP3    H239590   2.890   2.322   0.308 -0.5277  1.0528 -0.7708
 6011TIP3   OH239591   5.401   3.767   0.909 -0.1981  0.2638  0.4808
 6011TIP3    H139592   5.453   3.791   0.986  2.1923  0.6702 -1.1315
 6011TIP3    H239593   5.421   3.674   0.895  1.7851  0.8863 -1.2697
 6012TIP3   OH239594   0.065   5.917   0.988  0.2489 -0.3763  0.3112
 6012TIP3    H139595   0.067   5.937   1.082  0.3691  0.2771  0.1769
 6012TIP3    H239596   0.051   6.002   0.946  1.4745 -0.4631 -0.3318
 6013TIP3   OH239597   5.427   0.948   6.793 -0.3700  0.2568  0.0672
 6013TIP3    H139598   5.418   1.042   6.778  0.5405  0.3254 -0.0818
 6013TIP3    H239599   5.387   0.907   6.716 -0.8788  0.5120  0.1900
 6014TIP3   OH239600   2.094   1.670   8.119 -0.1606 -0.1591 -0.4967
 6014TIP3    H139601   2.012   1.628   8.143  0.5355 -0.8068  0.8676
 6014TIP3    H239602   2.109   1.644   8.028 -0.0973 -2.3326  0.0864
 6015TIP3   OH239603   0.580   3.293   7.567 -0.0927  0.3960 -0.2170
 6015TIP3    H139604   0.598   3.358   7.499 -1.8784  0.8867 -0.2660
 6015TIP3    H239605   0.606   3.336   7.648  1.2294  0.1368 -0.4843
 6016TIP3   OH239606   2.869   3.283   8.430 -0.3835  0.6021  0.2465
 6016TIP3    H139607   2.793   3.284   8.487 -1.0712  0.7478 -0.6559
 6016TIP3    H239608   2.887   3.190   8.415 -1.3172  0.5624 -0.7352
 6017TIP3   OH239609   4.587   0.482   1.070 -0.4906  0.3813  0.1165
 6017TIP3    H139610   4.535   0.430   1.009  0.5080 -1.6825  0.9357
 6017TIP3    H239611   4.523   0.515   1.133 -0.9352 -2.0046  1.0354
 6018TIP3   OH239612   1.736   2.928   7.607  0.1872  0.3731 -0.3138
 6018TIP3    H139613   1.717   2.924   7.701 -1.2030  1.8089 -0.4827
 6018TIP3    H239614   1.818   2.880   7.597  0.6625  0.6700  1.7177
 6019TIP3   OH239615   5.899   3.813   7.059 -0.1940 -0.2050  0.1765
 6019TIP3    H139616   5.873   3.895   7.016  1.5246 -0.2472 -1.0222
 6019TIP3    H239617   5.901   3.835   7.152 -2.2848  0.3674  0.1546
 6020TIP3   OH239618   6.816   3.518   1.105  0.0054  0.3031 -0.3181
 6020TIP3    H139619   6.797   3.454   1.174 -0.2680  1.4294  0.6832
 6020TIP3    H239620   6.742   3.512   1.046 -0.2072 -0.0329 -0.0264
 6021TIP3   OH239621   0.875   5.826   1.269 -0.6143 -0.1540 -0.1396
 6021TIP3    H139622   0.854   5.760   1.202  0.7998  0.0252 -0.8108
 6021TIP3    H239623   0.888   5.775   1.349 -1.4854 -0.4692 -0.1956
 6022TIP3   OH239624   3.882   5.305   7.261 -0.0097 -0.2011  0.1352
 6022TIP3    H139625   3.828   5.383   7.249 -0.2867 -0.1592  1.5250
 6022TIP3    H239626   3.835   5.253   7.326 -0.8644 -2.5171 -2.1655
 6023TIP3   OH239627   2.986   2.753   6.375 -0.2460  0.1089  0.3898
 6023TIP3    H139628   3.053   2.815   6.403 -3.0259  2.5266  2.1491
 6023TIP3    H239629   2.945   2.794   6.299  0.1510 -1.3261 -0.6486
 6024TIP3   OH239630   6.231   3.619   7.881  0.2295  0.6261 -0.6508
 6024TIP3    H139631   6.265   3.562   7.811 -0.5358  0.8388 -1.2115
 6024TIP3    H239632   6.236   3.565   7.960  2.3479  0.8153 -0.5854
 6025TIP3   OH239633   5.829   2.260   2.328  0.1364 -0.2579 -0.0922
 6025TIP3    H139634   5.921   2.238   2.319  0.5487  1.1456  0.3576
 6025TIP3    H239635   5.827   2.329   2.394 -1.1404  0.2764 -0.6428
 6026TIP3   OH239636   3.916   3.828   0.776 -0.5813 -0.0107 -0.2671
 6026TIP3    H139637   3.980   3.877   0.723 -0.9602 -1.6455 -2.3761
 6026TIP3    H239638   3.953   3.740   0.783 -1.9656 -0.6282 -0.4044
 6027TIP3   OH239639   5.224   2.342   7.831  0.3398 -0.2160 -0.2469
 6027TIP3    H139640   5.306   2.340   7.782  0.5096  0.8936 -0.0458
 6027TIP3    H239641   5.251   2.345   7.923  0.0528 -0.7314 -0.1416
 6028TIP3   OH239642   1.965   6.212   7.240  0.0137  0.4452 -0.2621
 6028TIP3    H139643   1.921   6.296   7.227 -0.3179  0.4673  0.8633
 6028TIP3    H239644   1.981   6.179   7.152 -0.9593  1.1186 -0.7085
 6029TIP3   OH239645   2.308   4.183   6.753  0.8886  0.1900  0.3102
 6029TIP3    H139646   2.293   4.133   6.833 -1.4533 -0.7555 -0.6152
 6029TIP3    H239647   2.263   4.266   6.769 -1.4242 -0.7733 -0.6660
 6030TIP3   OH239648   1.120   3.842   7.466 -0.4749 -0.1885 -0.1714
 6030TIP3    H139649   1.201   3.892   7.478 -1.5236  1.2069  1.4129
 6030TIP3    H239650   1.062   3.902   7.420 -0.7313 -1.0930 -1.0608
 6031TIP3   OH239651   3.700   4.508   7.170 -0.5081 -0.1063 -0.0411
 6031TIP3    H139652   3.689   4.541   7.080  1.7262 -0.4721 -0.5177
 6031TIP3    H239653   3.623   4.454   7.185 -1.7978  1.3319 -1.0702
 6032TIP3   OH239654   3.262   5.953   0.479 -0.3355  0.1237  0.3508
 6032TIP3    H139655   3.184   5.966   0.533 -0.8266 -0.0059 -0.3152
 6032TIP3    H239656   3.229   5.911   0.400  0.3052  0.7536 -0.2581
 6033TIP3   OH239657   3.978   4.962   1.627  0.1544  0.6410 -0.5282
 6033TIP3    H139658   4.000   4.983   1.536  0.5534  0.3376 -0.5059
 6033TIP3    H239659   4.029   4.883   1.646 -0.5885  0.1975 -0.3185
 6034TIP3   OH239660   4.168   1.132   0.576  0.0282  0.1845  1.2072
 6034TIP3    H139661   4.118   1.200   0.622  0.4551 -1.1236  3.7474
 6034TIP3    H239662   4.188   1.172   0.491 -3.7948  1.4216  0.6621
 6035TIP3   OH239663   4.215   4.598   6.934  0.2957 -0.4957 -0.1673
 6035TIP3    H139664   4.219   4.593   6.838 -1.0561 -0.8790 -0.2175
 6035TIP3    H239665   4.296   4.556   6.963  0.7744 -0.2834 -1.1370
 6036TIP3   OH239666   4.422   3.678   8.121  0.0853  0.3193 -0.0873
 6036TIP3    H139667   4.450   3.600   8.167 -0.1123 -0.2181 -0.8600
 6036TIP3    H239668   4.338   3.653   8.081  0.9029  0.3089 -1.8808
 6037TIP3   OH239669   3.561   1.405   0.841 -0.7696  0.3418 -0.3514
 6037TIP3    H139670   3.494   1.395   0.773 -0.9798 -1.1083  0.0366
 6037TIP3    H239671   3.515   1.382   0.922  0.2826 -1.1290 -0.1350
 6038TIP3   OH239672   0.048   3.560   6.552  0.2932 -0.1749  0.1462
 6038TIP3    H139673   0.117   3.593   6.494 -0.2697  0.3581 -0.2442
 6038TIP3    H239674  -0.023   3.534   6.492  0.7016 -2.1276  0.4362
 6039TIP3   OH239675   4.250   0.543   7.539  0.0044  0.3224 -0.2961
 6039TIP3    H139676   4.208   0.457   7.544 -0.5293  0.4685 -1.8354
 6039TIP3    H239677   4.303   0.548   7.619 -2.2101 -0.2219  1.2793
 6040TIP3   OH239678   3.363   5.757   6.863  0.7963 -0.1112  0.7449
 6040TIP3    H139679   3.383   5.759   6.769  0.4950 -1.4545  0.6294
 6040TIP3    H239680   3.322   5.672   6.877  2.5180 -0.7510  2.4225
 6041TIP3   OH239681   3.447   2.557   7.571 -0.0784 -0.1170  0.4758
 6041TIP3    H139682   3.447   2.486   7.635  0.6489  2.2583  3.3357
 6041TIP3    H239683   3.533   2.598   7.581  1.2035 -1.1034 -4.0243
 6042TIP3   OH239684   6.732   4.861   0.903  0.4210  0.3573  0.7857
 6042TIP3    H139685   6.763   4.772   0.919  0.2309  0.1243 -0.0723
 6042TIP3    H239686   6.720   4.865   0.808 -1.1350  0.7809  0.9661
 6043TIP3   OH239687   0.545   1.138   1.672  0.3928  0.8203 -0.5065
 6043TIP3    H139688   0.454   1.147   1.701  0.7719  1.2650  0.5496
 6043TIP3    H239689   0.587   1.220   1.697  1.2523  0.3519 -0.3883
 6044TIP3   OH239690   3.452   3.947   7.671  0.0233 -0.3527  0.1646
 6044TIP3    H139691   3.496   4.017   7.718 -1.6220  0.0789  1.1237
 6044TIP3    H239692   3.402   3.992   7.603 -1.4894 -0.5101  1.1401
 6045TIP3   OH239693   5.616   2.608   0.399  0.3266 -0.4442 -0.3051
 6045TIP3    H139694   5.612   2.516   0.426  1.9164 -0.0900  1.3237
 6045TIP3    H239695   5.697   2.642   0.438 -1.0338  2.0887  0.5488
 6046TIP3   OH239696   3.217   0.381   7.833 -0.2816 -0.5214  0.1202
 6046TIP3    H139697   3.156   0.324   7.785  1.5849 -1.7480 -0.9465
 6046TIP3    H239698   3.229   0.338   7.918 -0.7073 -0.4227  0.2289
 6047TIP3   OH239699   1.430   6.426   7.301 -0.0415  0.1255 -0.0123
 6047TIP3    H139700   1.386   6.485   7.239  2.2041  2.9227  0.8603
 6047TIP3    H239701   1.359   6.372   7.336 -2.2203  2.0280 -1.1758
 6048TIP3   OH239702   3.412   5.083   7.674 -0.4100  0.1856  1.4236
 6048TIP3    H139703   3.332   5.112   7.630  1.1524  0.2774 -1.6473
 6048TIP3    H239704   3.393   4.993   7.702 -1.7326  0.3647  1.1477
 6049TIP3   OH239705   0.943   5.427   7.996 -0.7679 -0.2469  0.0090
 6049TIP3    H139706   1.024   5.381   7.976 -0.8655 -0.9510  1.1728
 6049TIP3    H239707   0.915   5.464   7.912  1.2310  0.8125 -0.2635
 6050TIP3   OH239708   1.968   0.994   0.147  0.4322 -0.0341  0.0034
 6050TIP3    H139709   2.022   1.051   0.093  1.9997 -1.0109  0.4851
 6050TIP3    H239710   2.027   0.963   0.216 -0.8694 -0.7704  0.8353
 6051TIP3   OH239711   4.633   5.249   0.467 -0.2420 -0.0866 -0.2917
 6051TIP3    H139712   4.552   5.283   0.429  0.2845 -0.1764 -1.5513
 6051TIP3    H239713   4.700   5.313   0.444  0.3734 -0.9096 -0.8663
 6052TIP3   OH239714   3.688   2.260   0.514  0.2289 -0.2172 -0.4248
 6052TIP3    H139715   3.658   2.312   0.440  0.2658 -0.6068 -0.7161
 6052TIP3    H239716   3.767   2.304   0.544  0.1436  0.0144 -0.5351
 6053TIP3   OH239717   6.268   0.917   8.238  0.3553 -0.1177 -0.4664
 6053TIP3    H139718   6.228   0.965   8.165  0.7402  1.9057  0.6126
 6053TIP3    H239719   6.288   0.983   8.303  0.4164 -1.8268  1.3431
 6054TIP3   OH239720   2.663   6.489   1.285  0.0623  0.0020  0.1557
 6054TIP3    H139721   2.725   6.502   1.357  1.2377  1.0348 -0.9902
 6054TIP3    H239722   2.580   6.469   1.328  1.0748 -1.0055  1.7498
 6055TIP3   OH239723   5.836   2.788   0.666  0.0778  0.1552  0.0948
 6055TIP3    H139724   5.806   2.876   0.689 -0.8302 -0.3460  0.8476
 6055TIP3    H239725   5.899   2.765   0.735 -1.3319 -0.6438  1.1594
 6056TIP3   OH239726   3.374   0.895   7.191  0.0059 -0.2923  0.2631
 6056TIP3    H139727   3.461   0.876   7.228  0.1025 -1.3801 -0.4498
 6056TIP3    H239728   3.374   0.849   7.107 -0.5332  1.3578 -0.6885
 6057TIP3   OH239729   0.658   2.802   0.283  0.1803 -0.3431  0.0853
 6057TIP3    H139730   0.694   2.881   0.241  1.0065 -0.1580  1.1098
 6057TIP3    H239731   0.578   2.833   0.326  0.1650 -0.2027 -0.0412
 6058TIP3   OH239732   6.213   0.477   6.723  0.0967 -0.3719  0.3323
 6058TIP3    H139733   6.287   0.538   6.721  0.0854 -0.3700 -0.7176
 6058TIP3    H239734   6.201   0.457   6.816  0.6052  0.6043  0.6225
 6059TIP3   OH239735   5.601   2.197   7.267  0.3046  0.9054  0.1223
 6059TIP3    H139736   5.541   2.271   7.277 -1.9421 -0.2119 -3.2376
 6059TIP3    H239737   5.548   2.121   7.292  1.1262  0.1071 -0.5058
 6060TIP3   OH239738   2.184   5.149   1.287 -0.4424 -0.0402  0.5236
 6060TIP3    H139739   2.171   5.217   1.352 -2.7306  0.0035  0.1088
 6060TIP3    H239740   2.181   5.195   1.203  0.2609 -0.3789  0.3043
 6061TIP3   OH239741   2.963   5.380   1.174 -0.0439 -0.2322 -0.5109
 6061TIP3    H139742   3.021   5.387   1.250  0.4362  1.6200 -0.9847
 6061TIP3    H239743   3.023   5.362   1.101 -0.2401  0.1310 -0.7636
 6062TIP3   OH239744   4.037   6.676   7.745  0.5400  0.3028 -0.0131
 6062TIP3    H139745   4.033   6.607   7.811 -0.9298  0.6847  0.3287
 6062TIP3    H239746   4.043   6.630   7.662 -1.9035 -0.3227  0.1002
 6063TIP3   OH239747   3.844   1.260   1.193  0.7300  0.0307  0.1049
 6063TIP3    H139748   3.863   1.169   1.217  2.0957 -0.7187 -3.1799
 6063TIP3    H239749   3.773   1.286   1.252  0.3597 -3.1271  1.2576
 6064TIP3   OH239750   4.924   4.601   0.369  0.1647  0.4947 -0.2814
 6064TIP3    H139751   4.895   4.614   0.459  1.2277  0.1955  0.1160
 6064TIP3    H239752   4.932   4.506   0.359  0.1696  0.5316 -0.6524
 6065TIP3   OH239753   1.352   1.624   7.542  0.2031 -0.1704  0.2452
 6065TIP3    H139754   1.346   1.529   7.550  0.2782 -0.2579 -0.6703
 6065TIP3    H239755   1.394   1.653   7.624 -0.3923 -0.8543  0.8012
 6066TIP3   OH239756   3.310   5.976   7.384  0.2514 -0.1639 -0.0374
 6066TIP3    H139757   3.374   5.909   7.407 -1.1989 -1.5762 -0.0148
 6066TIP3    H239758   3.268   5.944   7.304  0.0903  1.1251 -0.5052
 6067TIP3   OH239759   3.798   1.765   6.967  0.1812 -0.4758 -0.3431
 6067TIP3    H139760   3.809   1.675   6.938  1.1949 -1.0545  1.6636
 6067TIP3    H239761   3.751   1.808   6.895 -2.0364 -3.0269 -0.5885
 6068TIP3   OH239762   1.751   0.392   2.354 -0.0101  0.8375  0.2750
 6068TIP3    H139763   1.782   0.463   2.410 -1.7538  0.0797  2.3488
 6068TIP3    H239764   1.656   0.394   2.363 -0.1056 -2.1100  0.9468
 6069TIP3   OH239765   6.599   4.036   7.498  0.1621 -0.0211 -0.3349
 6069TIP3    H139766   6.613   3.942   7.510 -0.8978  0.0036  1.5115
 6069TIP3    H239767   6.619   4.052   7.406 -0.3494 -2.1881 -0.8771
 6070TIP3   OH239768   0.192   5.817   7.552 -0.2444  0.0249  0.7482
 6070TIP3    H139769   0.173   5.848   7.464  0.4342  1.8387  1.1800
 6070TIP3    H239770   0.288   5.815   7.556 -0.2724 -0.6538  1.2582
 6071TIP3   OH239771   1.487   1.489   7.970 -0.4911 -0.5428 -0.2039
 6071TIP3    H139772   1.502   1.395   7.969  0.9314 -0.4544  2.5815
 6071TIP3    H239773   1.460   1.508   8.060 -0.4925  1.7320 -0.6217
 6072TIP3   OH239774   5.550   2.129   6.926 -0.0786 -0.0440 -0.2421
 6072TIP3    H139775   5.502   2.048   6.944 -0.5530  0.1451 -0.6189
 6072TIP3    H239776   5.637   2.101   6.900 -0.6500 -0.5136 -1.7548
 6073TIP3   OH239777   0.587   1.635   1.344  0.3008  0.1264  0.0529
 6073TIP3    H139778   0.528   1.693   1.296 -0.3839 -0.2464  0.4467
 6073TIP3    H239779   0.589   1.671   1.433 -1.6591 -1.5566  0.8307
 6074TIP3   OH239780   5.083   4.170   6.996  0.1753  0.2441  0.7051
 6074TIP3    H139781   5.114   4.089   7.036 -0.5714  0.4408  1.7205
 6074TIP3    H239782   5.106   4.238   7.059  2.8205  1.1809 -1.1175
 6075TIP3   OH239783   3.991   6.698   0.829 -0.1111  0.0648  0.2117
 6075TIP3    H139784   3.932   6.658   0.892 -1.8967 -0.3765 -1.6303
 6075TIP3    H239785   4.013   6.627   0.768  1.4311  0.5167  0.1825
 6076TIP3   OH239786   0.025   5.080   8.219  0.4398  0.0157  0.4321
 6076TIP3    H139787   0.085   5.063   8.146  0.9737 -2.2472  1.3213
 6076TIP3    H239788  -0.044   5.133   8.181  1.0201 -0.5916 -1.5938
 6077TIP3   OH239789   1.623   2.289   1.997 -0.0600 -0.3203 -0.1402
 6077TIP3    H139790   1.659   2.376   2.012  0.9912 -0.5347 -1.2844
 6077TIP3    H239791   1.699   2.234   1.976 -0.5551 -1.7846  1.5851
 6078TIP3   OH239792   4.088   5.272   8.414 -0.3631  0.0275 -0.2315
 6078TIP3    H139793   4.078   5.367   8.407 -1.0315 -0.1438 -1.9685
 6078TIP3    H239794   4.119   5.244   8.328 -0.4629 -1.3713  0.1590
 6079TIP3   OH239795   3.039   1.292   1.872  0.0698  0.0615 -1.5492
 6079TIP3    H139796   3.033   1.206   1.914 -0.5326 -0.0582 -1.8668
 6079TIP3    H239797   3.104   1.280   1.802  0.3582  0.0041 -1.2753
 6080TIP3   OH239798   1.561   3.433   7.242 -0.0435 -0.3568  0.3375
 6080TIP3    H139799   1.473   3.435   7.278 -0.2999  1.6923 -0.2586
 6080TIP3    H239800   1.574   3.343   7.212 -1.7348 -0.7971  0.8578
 6081TIP3   OH239801   5.458   2.429   7.249  0.0123 -0.4587  0.1878
 6081TIP3    H139802   5.477   2.518   7.219 -1.9424  0.0894  0.4481
 6081TIP3    H239803   5.388   2.399   7.190  0.0292 -1.4889  0.6767
 6082TIP3   OH239804   5.689   2.960   7.120  0.1694  1.5750  0.5329
 6082TIP3    H139805   5.730   3.044   7.141 -1.8589  2.2736  1.9847
 6082TIP3    H239806   5.656   2.928   7.204  1.1423 -0.8521  0.0579
 6083TIP3   OH239807   3.368   2.774   7.401  0.8158 -0.1280  0.2904
 6083TIP3    H139808   3.444   2.819   7.366  0.3034 -0.6993 -1.6680
 6083TIP3    H239809   3.403   2.695   7.443  1.3910  0.2516  0.5297
 6084TIP3   OH239810   2.038   0.287   0.050 -0.4174 -0.7419  0.3689
 6084TIP3    H139811   1.960   0.280  -0.005  0.0043 -1.0238 -0.2054
 6084TIP3    H239812   2.093   0.214   0.022  1.2937  1.0635 -1.2224
 6085TIP3   OH239813   1.882   3.609   7.059 -1.0969 -0.7974  0.4917
 6085TIP3    H139814   1.865   3.526   7.015 -1.4872 -0.7845  0.6196
 6085TIP3    H239815   1.839   3.675   7.004  0.4010 -0.5018 -0.3919
 6086TIP3   OH239816   6.219   5.093   7.545  0.0138  0.2793  0.1400
 6086TIP3    H139817   6.220   5.081   7.450  2.3191 -0.2029  0.1571
 6086TIP3    H239818   6.271   5.020   7.578 -2.0993 -0.5122  1.9560
 6087TIP3   OH239819   4.915   6.119   7.437 -0.1196  0.4124  0.0239
 6087TIP3    H139820   4.985   6.063   7.471 -0.1653  0.0533 -0.4606
 6087TIP3    H239821   4.961   6.196   7.403  0.0998 -0.0481 -0.7553
 6088TIP3   OH239822   1.551   4.450   1.735  0.0743  0.2451  0.1299
 6088TIP3    H139823   1.574   4.525   1.680 -1.6756  2.0179  1.6787
 6088TIP3    H239824   1.631   4.432   1.784  1.1444 -0.2974 -1.6898
 6089TIP3   OH239825   2.155   2.710   0.520 -0.3558  0.9173 -0.4952
 6089TIP3    H139826   2.142   2.710   0.425  3.0753 -0.0236 -1.1016
 6089TIP3    H239827   2.170   2.802   0.542  0.5161  0.9547 -1.1961
 6090TIP3   OH239828   4.640   0.795   2.002 -0.3361  0.0106 -0.2037
 6090TIP3    H139829   4.662   0.755   2.086 -2.1579  0.5519  0.5847
 6090TIP3    H239830   4.673   0.734   1.936  0.2270 -0.9271  0.9155
 6091TIP3   OH239831   1.711   1.254   6.484  0.0572  0.2152  0.3571
 6091TIP3    H139832   1.691   1.329   6.541 -0.1684  0.0527  0.4946
 6091TIP3    H239833   1.688   1.285   6.396  1.2454  0.7762  0.2306
 6092TIP3   OH239834   4.941   0.814   8.172  0.6690 -0.3994  0.0884
 6092TIP3    H139835   4.888   0.824   8.093 -1.3698  0.5131  1.4797
 6092TIP3    H239836   5.001   0.888   8.171  1.3291 -0.9173 -1.0317
 6093TIP3   OH239837   1.948   2.152   6.269 -0.3861 -0.4576 -0.5800
 6093TIP3    H139838   1.874   2.097   6.296 -1.1503  0.8261  0.0111
 6093TIP3    H239839   1.985   2.105   6.194 -0.5538 -2.1418  0.3361
 6094TIP3   OH239840   4.061   1.205   6.321  0.1289 -0.3410 -0.2953
 6094TIP3    H139841   3.988   1.188   6.380  0.2149 -3.4498 -0.9214
 6094TIP3    H239842   4.031   1.278   6.266 -2.9876 -2.1056 -1.1787
 6095TIP3   OH239843   3.545   6.241   8.332  0.0997  0.5011 -0.5382
 6095TIP3    H139844   3.536   6.185   8.409  0.2879  0.4396 -0.5597
 6095TIP3    H239845   3.495   6.197   8.263  1.6037 -0.5269 -1.0310
 6096TIP3   OH239846   4.645   4.973   6.748  0.2577 -0.5662 -0.6729
 6096TIP3    H139847   4.638   4.985   6.653 -0.5249  0.6037 -0.4933
 6096TIP3    H239848   4.568   5.017   6.783  0.0268 -1.8132  0.4635
 6097TIP3   OH239849   5.944   1.895   8.602 -0.1203 -0.1986  0.3149
 6097TIP3    H139850   6.005   1.823   8.586 -0.7916 -0.9344  0.9804
 6097TIP3    H239851   5.922   1.887   8.695  0.7605  1.6460  0.7109
 6098TIP3   OH239852   4.334   5.752   7.140 -0.2689 -0.2134 -0.3593
 6098TIP3    H139853   4.302   5.747   7.230 -0.2279 -2.2387 -0.4160
 6098TIP3    H239854   4.429   5.751   7.148 -0.2025  1.9592 -0.3635
 6099TIP3   OH239855   3.163   5.544   6.501 -0.3206  0.0237  0.8756
 6099TIP3    H139856   3.146   5.467   6.446 -0.3285  1.6267 -1.5148
 6099TIP3    H239857   3.251   5.531   6.534 -0.3377 -1.0265  0.5525
 6100TIP3   OH239858   4.708   0.868   8.009  0.1495 -0.0454  0.3191
 6100TIP3    H139859   4.652   0.793   7.989 -1.8284  0.5663  2.9552
 6100TIP3    H239860   4.674   0.939   7.954  0.5407 -0.4737 -0.4970
 6101TIP3   OH239861   4.872   4.296   0.969  0.2270  0.1315 -0.6824
 6101TIP3    H139862   4.777   4.297   0.973  0.0282  2.4147 -3.0274
 6101TIP3    H239863   4.893   4.228   0.905  0.3614 -1.6964  1.2182
 6102TIP3   OH239864   0.933   0.045   7.285  0.6384  0.7350  0.0896
 6102TIP3    H139865   0.952  -0.040   7.244  0.3651  0.5363  0.3701
 6102TIP3    H239866   1.018   0.085   7.298  0.9297 -0.3005  1.6793
 6103TIP3   OH239867   0.013   1.027   7.702  0.7002  0.1194  0.6032
 6103TIP3    H139868   0.028   0.933   7.717 -1.0736 -0.5564 -1.3966
 6103TIP3    H239869  -0.082   1.036   7.704  0.8229  1.7554  0.0252
 6104TIP3   OH239870   4.284   5.440   1.113  0.4712  0.1859 -0.5953
 6104TIP3    H139871   4.235   5.474   1.188  3.0913  0.9113  0.9247
 6104TIP3    H239872   4.271   5.505   1.044  0.3246  0.9990  0.1808
 6105TIP3   OH239873   6.187   4.135   7.731  0.0293  0.6590  0.3849
 6105TIP3    H139874   6.249   4.132   7.804  0.8702  2.6052 -0.2122
 6105TIP3    H239875   6.235   4.176   7.660 -0.5512 -1.7922 -1.5590
 6106TIP3   OH239876   5.122   2.026   1.688 -0.5218  0.3245 -0.2213
 6106TIP3    H139877   5.085   2.115   1.686  0.5658  0.8001  0.0278
 6106TIP3    H239878   5.091   1.986   1.607 -2.5185  0.2832  0.5041
 6107TIP3   OH239879   3.039   5.551   2.469  0.4104 -0.6541 -0.0919
 6107TIP3    H139880   3.123   5.594   2.488  0.5819 -0.7463 -0.6064
 6107TIP3    H239881   2.993   5.613   2.413  0.3157 -0.7908 -0.1646
 6108TIP3   OH239882   1.597   1.746   8.177  0.5061 -0.0247 -0.0409
 6108TIP3    H139883   1.506   1.721   8.161  0.1307  1.8955 -1.2080
 6108TIP3    H239884   1.648   1.690   8.118  0.0135 -0.4427 -0.0823
 6109TIP3   OH239885   6.541   6.389   1.343  0.2361 -0.4794  1.0216
 6109TIP3    H139886   6.503   6.476   1.353  0.5748 -0.3533  1.2483
 6109TIP3    H239887   6.633   6.406   1.322  0.1010 -0.7700  0.1408
 6110TIP3   OH239888   4.844   1.766   8.166 -0.8494 -0.4103  0.0639
 6110TIP3    H139889   4.822   1.831   8.233  0.6768 -1.5186  1.7407
 6110TIP3    H239890   4.779   1.696   8.178 -1.7169  0.2096 -0.8958
 6111TIP3   OH239891   3.766   1.440   7.307  0.0949  0.3250  0.3288
 6111TIP3    H139892   3.832   1.480   7.364 -0.4083 -0.1154  1.2470
 6111TIP3    H239893   3.744   1.508   7.244  0.9702  0.6829  0.3975
 6112TIP3   OH239894   6.499   1.768   8.392 -0.0130  0.9826 -0.0685
 6112TIP3    H139895   6.461   1.835   8.448 -2.5997 -0.6879  0.3462
 6112TIP3    H239896   6.458   1.781   8.307 -0.6748 -0.1191  0.0592
 6113TIP3   OH239897   3.840   4.714   1.065  0.0443 -0.3620 -0.9122
 6113TIP3    H139898   3.853   4.701   1.159  1.0579  2.1169 -0.6488
 6113TIP3    H239899   3.895   4.789   1.043 -1.7788  0.4450 -3.0705
 6114TIP3   OH239900   3.483   5.776   8.566 -0.3357 -0.1157  0.2031
 6114TIP3    H139901   3.573   5.753   8.543 -0.2741  1.4700 -1.3318
 6114TIP3    H239902   3.489   5.812   8.654  0.5879  0.2180  0.0106
 6115TIP3   OH239903   1.064   0.511   6.323  0.3003 -0.2468  0.0536
 6115TIP3    H139904   1.141   0.455   6.331  0.5264 -0.1649 -1.2426
 6115TIP3    H239905   1.005   0.463   6.265  1.1881  1.4820 -2.4459
 6116TIP3   OH239906   3.682   2.048   0.689 -0.3231 -0.5026  0.6567
 6116TIP3    H139907   3.668   2.113   0.619 -1.4300 -0.3653  0.9762
 6116TIP3    H239908   3.706   1.968   0.643  1.5947  0.2423  0.2790
 6117TIP3   OH239909   6.744   3.744   0.667  1.3070 -0.1178  0.4050
 6117TIP3    H139910   6.699   3.784   0.741  0.2157 -0.0645 -0.2533
 6117TIP3    H239911   6.701   3.658   0.657  3.2720 -1.2878  1.4937
 6118TIP3   OH239912   5.129   6.277   6.597  0.0667 -0.4561  0.0508
 6118TIP3    H139913   5.174   6.203   6.555  0.1339 -0.9867  1.0184
 6118TIP3    H239914   5.075   6.236   6.664  0.8274  0.4507  1.2471
 6119TIP3   OH239915   2.775   0.207   6.693 -0.1234 -0.1587 -0.5853
 6119TIP3    H139916   2.759   0.133   6.634 -0.5367 -1.6435  1.2771
 6119TIP3    H239917   2.870   0.216   6.696 -0.1020  0.0906 -1.6192
 6120TIP3   OH239918   6.756   4.976   6.902 -0.3069  0.0673  0.3254
 6120TIP3    H139919   6.697   5.036   6.856  0.1009 -0.2409 -0.6266
 6120TIP3    H239920   6.833   5.030   6.922  0.2327 -0.2053 -0.8921
 6121TIP3   OH239921   1.262   3.855   1.048  0.1951 -0.6809 -0.3592
 6121TIP3    H139922   1.313   3.934   1.065 -1.1921  0.0164  0.8144
 6121TIP3    H239923   1.180   3.888   1.010 -0.1976 -1.5949 -0.3259
 6122TIP3   OH239924   0.107   0.153   1.510 -0.0946  0.3939 -0.0676
 6122TIP3    H139925   0.111   0.247   1.527 -0.2940  0.2064  1.0740
 6122TIP3    H239926   0.017   0.128   1.531  0.1253 -0.1675  0.2417
 6123TIP3   OH239927   0.376   6.620   1.573 -0.2388 -0.5923  0.2076
 6123TIP3    H139928   0.358   6.584   1.660 -0.3172 -0.7132  0.1407
 6123TIP3    H239929   0.385   6.714   1.588  1.5404 -0.7876  0.6442
 6124TIP3   OH239930   2.127   3.115   8.385  0.4298 -0.0546 -0.4129
 6124TIP3    H139931   2.173   3.191   8.351 -0.4438  0.0338 -1.4773
 6124TIP3    H239932   2.196   3.058   8.419  1.1196  1.0450  0.0762
 6125TIP3   OH239933   2.749   4.483   0.108 -0.0953  0.0947 -0.4568
 6125TIP3    H139934   2.719   4.540   0.180 -0.1593  0.2663 -0.6190
 6125TIP3    H239935   2.844   4.491   0.110 -0.0153 -0.9274  0.4515
 6126TIP3   OH239936   3.367   2.292   7.699 -0.7477  0.0640 -0.2463
 6126TIP3    H139937   3.299   2.242   7.744 -0.0296 -0.6051  0.1330
 6126TIP3    H239938   3.426   2.225   7.664 -0.3084  0.6303 -0.5991
 6127TIP3   OH239939   6.234   2.571   7.044 -0.3100 -0.0957  0.0921
 6127TIP3    H139940   6.313   2.523   7.068  0.0815 -0.0735 -1.0978
 6127TIP3    H239941   6.164   2.529   7.094  0.1304 -1.4682 -0.4094
 6128TIP3   OH239942   0.650   1.847   8.187  0.3408 -0.3086 -0.5122
 6128TIP3    H139943   0.698   1.765   8.196 -1.2957 -1.2362  0.3139
 6128TIP3    H239944   0.624   1.870   8.276  1.7418  1.7826 -0.5577
 6129TIP3   OH239945   5.697   5.478   0.253  0.6098 -0.6330 -0.1016
 6129TIP3    H139946   5.790   5.495   0.245  0.4088  0.4736 -0.1912
 6129TIP3    H239947   5.669   5.457   0.163  0.6565 -0.3285 -0.1888
 6130TIP3   OH239948   2.829   2.774   1.732  0.2642  0.4976 -0.3142
 6130TIP3    H139949   2.849   2.689   1.771 -0.4920  0.9661  1.1656
 6130TIP3    H239950   2.894   2.785   1.663  0.5488 -1.1471 -0.3349
 6131TIP3   OH239951   3.761   6.355   1.335 -0.5456  0.5960  0.1471
 6131TIP3    H139952   3.752   6.336   1.428  1.1343  1.8726  0.6044
 6131TIP3    H239953   3.828   6.423   1.330 -0.4477  0.4143 -2.0175
 6132TIP3   OH239954   0.429   1.284   0.394  0.2265 -0.0737  0.7486
 6132TIP3    H139955   0.392   1.196   0.389  1.7302 -0.9984  3.7640
 6132TIP3    H239956   0.520   1.272   0.369  0.1947  0.8764  0.1390
 6133TIP3   OH239957   5.605   1.036   1.789 -0.1987 -0.5789  0.3096
 6133TIP3    H139958   5.595   1.130   1.798 -2.0507 -0.6941 -0.0211
 6133TIP3    H239959   5.657   1.010   1.865 -0.1435  0.6405  0.7111
 6134TIP3   OH239960   2.396   3.612   0.254  0.3844  0.7774  0.0288
 6134TIP3    H139961   2.416   3.693   0.300  2.4706  1.2548 -1.5690
 6134TIP3    H239962   2.465   3.551   0.280 -1.1525 -0.5741  1.2171
 6135TIP3   OH239963   2.256   0.543   0.899  0.6213 -0.2102  0.3468
 6135TIP3    H139964   2.256   0.461   0.948 -2.2965 -1.1305 -0.9468
 6135TIP3    H239965   2.284   0.609   0.963  2.0079 -2.0379  1.7144
 6136TIP3   OH239966   2.071   3.739   1.132 -0.3710  0.2810  0.7544
 6136TIP3    H139967   2.093   3.790   1.054 -1.2439  0.4464  0.6022
 6136TIP3    H239968   1.978   3.758   1.147 -0.1388  0.5165  2.0276
 6137TIP3   OH239969   2.919   2.062   8.634 -0.6452  0.0482  0.4659
 6137TIP3    H139970   2.856   1.991   8.643 -1.5505  0.3960 -2.2311
 6137TIP3    H239971   2.983   2.030   8.571 -0.7032  1.3431 -0.2961
 6138TIP3   OH239972   5.723   1.566   6.225  0.0638  0.0470 -0.3536
 6138TIP3    H139973   5.709   1.481   6.185  0.0886 -0.1548  0.0559
 6138TIP3    H239974   5.736   1.626   6.152  1.1367 -0.4952 -0.6340
 6139TIP3   OH239975   2.667   6.625   0.452 -0.0713 -0.4598 -0.0274
 6139TIP3    H139976   2.670   6.532   0.474  0.4951 -0.5563 -0.4767
 6139TIP3    H239977   2.747   6.661   0.490 -2.1210  0.6949  3.6693
 6140TIP3   OH239978   2.123   4.710   1.366  0.2103  0.0213  0.7176
 6140TIP3    H139979   2.087   4.798   1.359  0.5831  0.2631  1.6367
 6140TIP3    H239980   2.194   4.708   1.302  0.7229  0.6698  1.2482
 6141TIP3   OH239981   5.469   2.409   1.471  0.9372 -0.2012 -0.0684
 6141TIP3    H139982   5.538   2.374   1.415  0.2602 -1.3519 -0.2223
 6141TIP3    H239983   5.398   2.432   1.410  0.2651 -1.2918  0.2767
 6142TIP3   OH239984   2.991   4.182   7.360 -0.4211  0.1204 -0.2248
 6142TIP3    H139985   2.903   4.145   7.364 -0.9850  1.4702  0.1023
 6142TIP3    H239986   2.978   4.271   7.329  0.8788  0.2141 -0.5420
 6143TIP3   OH239987   4.782   3.591   7.584  0.1226 -0.3837 -0.0611
 6143TIP3    H139988   4.753   3.507   7.549 -1.0840 -0.1135  0.2485
 6143TIP3    H239989   4.702   3.633   7.615  0.7433  0.7754  0.0226
 6144TIP3   OH239990   4.785   5.035   7.749  0.2094  0.4356  0.0185
 6144TIP3    H139991   4.707   5.007   7.701  0.8761 -2.0836  0.2614
 6144TIP3    H239992   4.850   5.054   7.681 -0.1264  1.0383 -0.1434
 6145TIP3   OH239993   4.649   6.547   0.991 -0.4508 -0.4758 -0.0214
 6145TIP3    H139994   4.558   6.567   1.014  0.2020  0.0554  2.3527
 6145TIP3    H239995   4.671   6.471   1.045  1.1459  0.7537  1.1602
 6146TIP3   OH239996   4.965   3.372   6.399  0.0870 -0.0464  0.8394
 6146TIP3    H139997   4.987   3.349   6.309  0.1009  0.6771  0.6490
 6146TIP3    H239998   4.935   3.290   6.438  0.8245 -0.5295  0.4043
 6147TIP3   OH239999   1.093   6.438   0.801  0.2112 -0.4079 -0.3454
 6147TIP3    H140000   1.167   6.382   0.776  1.1708  0.4782  0.4461
 6147TIP3    H240001   1.056   6.466   0.717  1.1289 -0.4060 -0.7669
 6148TIP3   OH240002   5.722   4.267   0.390 -0.0453 -0.5750 -0.6102
 6148TIP3    H140003   5.802   4.230   0.353  1.4792  0.6033  1.2979
 6148TIP3    H240004   5.689   4.326   0.322  2.4678  1.2639 -0.3760
 6149TIP3   OH240005   2.894   3.614   7.674 -0.0270  0.2824 -0.4044
 6149TIP3    H140006   2.802   3.625   7.646 -0.3305  1.2020  0.8674
 6149TIP3    H240007   2.943   3.670   7.613 -0.3158 -0.0979 -1.0001
 6150TIP3   OH240008   4.792   1.040   0.600 -1.1748  0.1650  0.0736
 6150TIP3    H140009   4.763   1.072   0.514  0.3816  1.2855 -0.0824
 6150TIP3    H240010   4.712   1.029   0.650 -2.0623  0.2396 -1.2652
 6151TIP3   OH240011   0.330   3.683   8.021 -0.1510  0.4603 -0.0812
 6151TIP3    H140012   0.301   3.632   8.096  1.6098  0.7597  0.8508
 6151TIP3    H240013   0.425   3.677   8.022  0.2064  3.9306  0.2539
 6152TIP3   OH240014   0.241   0.885   8.370 -0.1742  0.0907  0.3063
 6152TIP3    H140015   0.296   0.883   8.448 -0.8053  0.5248  0.7749
 6152TIP3    H240016   0.239   0.795   8.339  0.4575 -0.0034  0.5207
 6153TIP3   OH240017   4.159   1.037   0.031  0.4046 -0.2332  0.2871
 6153TIP3    H140018   4.245   1.002   0.010  0.1840 -0.2066 -0.6682
 6153TIP3    H240019   4.106   0.959   0.050  0.2528 -0.3482 -0.5790
 6154TIP3   OH240020   1.195   6.257   8.578  0.0561  0.6028 -0.2429
 6154TIP3    H140021   1.281   6.290   8.605  0.0919 -0.0783  0.4946
 6154TIP3    H240022   1.172   6.192   8.644 -0.7642  0.3477 -0.7642
 6155TIP3   OH240023   5.891   3.081   0.292 -0.2364  0.2022  0.4315
 6155TIP3    H140024   5.861   3.016   0.356 -3.4809  3.3509  2.4417
 6155TIP3    H240025   5.984   3.092   0.311 -0.1592 -1.9833  1.6520
 6156TIP3   OH240026   2.735   3.111   2.129  0.2135 -0.1244 -0.1371
 6156TIP3    H140027   2.705   3.061   2.052  1.9573  0.3760 -1.2008
 6156TIP3    H240028   2.661   3.168   2.151 -0.2201 -0.0605 -1.6417
 6157TIP3   OH240029   5.207   4.377   7.139  0.0191  0.4837  0.3637
 6157TIP3    H140030   5.175   4.461   7.172 -1.9575  0.6576 -1.7413
 6157TIP3    H240031   5.242   4.396   7.052  1.8092 -0.5188  0.8093
 6158TIP3   OH240032   6.568   5.052   7.705 -0.1175  0.5335 -0.2987
 6158TIP3    H140033   6.496   5.093   7.752 -0.6469  1.7638 -2.0585
 6158TIP3    H240034   6.647   5.084   7.748 -0.5804  0.8311  0.3431
 6159TIP3   OH240035   0.654   0.126   0.394 -0.5220 -0.1399  0.0884
 6159TIP3    H140036   0.734   0.092   0.433 -1.1436 -1.1722  0.5059
 6159TIP3    H240037   0.589   0.120   0.464 -0.9961  0.5545 -0.2819
 6160TIP3   OH240038   5.410   5.873   0.733 -0.0048 -0.2995  0.1313
 6160TIP3    H140039   5.370   5.808   0.675  1.2697 -0.7437 -0.2751
 6160TIP3    H240040   5.482   5.826   0.776 -0.3909  0.2644  1.4384
 6161TIP3   OH240041   3.776   3.950   0.237 -0.3419 -0.0507  0.4101
 6161TIP3    H140042   3.770   4.040   0.270 -1.1657  1.0197 -2.3691
 6161TIP3    H240043   3.870   3.937   0.223 -0.3028  0.8562 -0.2833
 6162TIP3   OH240044   2.457   4.124   2.037 -0.2474  0.0478 -0.0873
 6162TIP3    H140045   2.392   4.081   2.092 -0.2410  0.4764  0.2661
 6162TIP3    H240046   2.411   4.200   2.001 -0.0141  0.2266 -0.0159
 6163TIP3   OH240047   3.244   5.551   1.093  0.7036 -0.8509 -0.3747
 6163TIP3    H140048   3.247   5.463   1.131  2.4106 -0.6851 -0.0661
 6163TIP3    H240049   3.312   5.600   1.140 -1.5711  1.2759  0.9677
 6164TIP3   OH240050   5.087   5.693   6.827 -0.0636 -0.1046 -0.0865
 6164TIP3    H140051   5.054   5.627   6.766  0.3913  1.2827 -1.9413
 6164TIP3    H240052   5.010   5.717   6.880 -0.8122 -0.4599 -0.9808
 6165TIP3   OH240053   4.801   5.018   0.561 -0.2177 -0.1212 -0.2667
 6165TIP3    H140054   4.730   5.073   0.595 -0.2946  0.8276 -1.8371
 6165TIP3    H240055   4.765   4.981   0.480  1.2860  0.9227 -1.4520
 6166TIP3   OH240056   0.902   2.312   8.601  0.3896  0.3074  0.5060
 6166TIP3    H140057   0.930   2.397   8.566  0.8215  0.2999  0.8307
 6166TIP3    H240058   0.823   2.291   8.551  0.9563  0.3240 -0.4449
 6167TIP3   OH240059   3.381   3.083   0.069 -0.3024 -0.1632 -0.2312
 6167TIP3    H140060   3.381   3.178   0.056 -0.0416 -0.3270 -1.5874
 6167TIP3    H240061   3.473   3.058   0.064 -0.3074 -0.4247  0.7703
 6168TIP3   OH240062   6.664   5.880   1.497 -0.2315 -0.2495 -0.4703
 6168TIP3    H140063   6.589   5.938   1.493  0.5389  0.9727  1.4580
 6168TIP3    H240064   6.639   5.812   1.559 -0.6941 -1.3774 -1.8419
 6169TIP3   OH240065   1.183   6.250   7.739  0.2139  0.3202 -0.1656
 6169TIP3    H140066   1.136   6.325   7.703  1.9856  1.0264 -1.1506
 6169TIP3    H240067   1.168   6.255   7.833 -2.9095 -0.4214 -0.4983
 6170TIP3   OH240068   5.465   2.336   6.755 -0.1736  0.0867  0.1676
 6170TIP3    H140069   5.389   2.370   6.801  0.4630 -0.1425  1.4179
 6170TIP3    H240070   5.491   2.258   6.804  0.4635 -0.2330 -0.6391
 6171TIP3   OH240071   5.995   0.605   8.551  0.1697 -0.4936  0.0364
 6171TIP3    H140072   5.919   0.574   8.501  0.1240  0.2003 -0.3409
 6171TIP3    H240073   6.027   0.679   8.500  1.5448 -1.2273 -0.1966
 6172TIP3   OH240074   3.096   4.206   6.394  0.4061 -0.3396  0.1204
 6172TIP3    H140075   3.104   4.252   6.310 -0.1004 -1.5411 -0.6258
 6172TIP3    H240076   3.045   4.265   6.449 -0.9724 -0.3336 -1.0966
 6173TIP3   OH240077   0.851   0.684   8.036  0.3180 -0.4414  0.2380
 6173TIP3    H140078   0.756   0.683   8.043  0.1332  0.3718 -1.5779
 6173TIP3    H240079   0.878   0.594   8.058 -1.0258 -1.1641 -0.8885
 6174TIP3   OH240080   0.032   6.196   7.380 -0.4889 -0.4058  0.3733
 6174TIP3    H140081   0.065   6.155   7.300  0.1410 -0.5908  0.7250
 6174TIP3    H240082   0.024   6.123   7.442 -0.5559 -0.1900  0.6169
 6175TIP3   OH240083   4.479   2.676   0.607  0.2145  0.7045 -0.0588
 6175TIP3    H140084   4.451   2.614   0.674  2.3866  0.7491  0.9717
 6175TIP3    H240085   4.403   2.686   0.550 -1.3288 -0.1983  1.7545
 6176TIP3   OH240086   0.982   2.562   1.936  0.1721 -0.1314 -0.5954
 6176TIP3    H140087   0.934   2.584   2.015  1.5365 -0.0246  0.2456
 6176TIP3    H240088   1.056   2.622   1.935  0.2660 -0.2286 -1.8874
 6177TIP3   OH240089   3.104   3.422   7.558  0.2710 -0.1701  0.0424
 6177TIP3    H140090   3.011   3.405   7.573 -0.2101  2.5293  0.7346
 6177TIP3    H240091   3.105   3.498   7.499  2.0547 -0.6218 -0.5467
 6178TIP3   OH240092   2.723   3.492   7.038  0.0585  0.5039  0.8673
 6178TIP3    H140093   2.807   3.517   7.000 -0.3980  0.2063 -0.3833
 6178TIP3    H240094   2.715   3.399   7.019 -0.8149  0.6530  0.4707
 6179TIP3   OH240095   5.831   3.080   8.499  0.1917 -0.6878 -0.2320
 6179TIP3    H140096   5.799   3.025   8.427  1.4879  1.1510 -2.3647
 6179TIP3    H240097   5.829   3.169   8.463  1.3933  0.2523  1.8563
 6180TIP3   OH240098   2.114   3.843   7.317  0.3334 -0.3140  0.0752
 6180TIP3    H140099   2.148   3.780   7.380  1.0212  0.3937  0.4439
 6180TIP3    H240100   2.123   3.928   7.361  1.0029  0.2178 -1.0285
 6181TIP3   OH240101   3.053   6.005   0.673 -0.3145  0.7455  0.4768
 6181TIP3    H140102   2.971   5.961   0.694  0.9243 -1.2544  1.4342
 6181TIP3    H240103   3.104   6.002   0.754  1.0315  1.1328 -0.3080
 6182TIP3   OH240104   5.994   4.723   7.360  0.7034  0.6400 -0.0042
 6182TIP3    H140105   5.939   4.798   7.384 -0.3376  0.5995 -2.0484
 6182TIP3    H240106   6.046   4.706   7.438 -1.5070  1.2851  1.7357
 6183TIP3   OH240107   6.286   6.342   1.843 -0.2927 -0.4197 -0.3871
 6183TIP3    H140108   6.246   6.423   1.876  1.6266  0.5859 -0.3793
 6183TIP3    H240109   6.311   6.363   1.753  0.9201 -0.7031 -0.1366
 6184TIP3   OH240110   0.772   3.864   8.396  0.4611 -0.5387  0.0535
 6184TIP3    H140111   0.802   3.787   8.349  1.6068  0.4490 -0.9002
 6184TIP3    H240112   0.686   3.884   8.357  0.1431 -1.3253  0.3275
 6185TIP3   OH240113   5.006   2.023   6.379 -0.2266 -0.2897  0.1403
 6185TIP3    H140114   4.938   2.087   6.401  0.5181  0.7141 -0.4174
 6185TIP3    H240115   5.017   1.972   6.460 -0.7534  0.3539  0.6292
 6186TIP3   OH240116   1.190   6.699   0.779  0.0263  0.4375  0.3196
 6186TIP3    H140117   1.146   6.684   0.695  0.6166  0.9697 -0.0975
 6186TIP3    H240118   1.184   6.615   0.825 -1.6516  0.5730  0.3967
 6187TIP3   OH240119   5.582   3.851   7.140 -0.1257  0.3093 -0.4264
 6187TIP3    H140120   5.662   3.805   7.116 -0.1668  0.8898 -1.7220
 6187TIP3    H240121   5.519   3.829   7.071 -0.7689  0.6961  0.0207
 6188TIP3   OH240122   3.695   2.529   0.628  0.1031  0.0012  0.1760
 6188TIP3    H140123   3.651   2.517   0.713 -2.1740  0.5432 -0.8484
 6188TIP3    H240124   3.647   2.600   0.586 -0.0022 -1.4219 -2.2966
 6189TIP3   OH240125   6.301   0.052   1.051 -0.0227  0.2715  0.3362
 6189TIP3    H140126   6.270  -0.039   1.056  0.7551  0.0588  1.9216
 6189TIP3    H240127   6.228   0.100   1.010 -0.9606 -0.8397  0.6436
 6190TIP3   OH240128   4.217   3.908   1.972 -0.3687 -0.1744 -0.3446
 6190TIP3    H140129   4.150   3.878   2.034 -0.8559 -1.2520 -1.3416
 6190TIP3    H240130   4.238   3.997   2.001 -0.7559 -0.5465  1.2008
 6191TIP3   OH240131   2.743   0.380   0.657 -0.0871  0.3975 -0.4962
 6191TIP3    H140132   2.673   0.371   0.722  0.5437  0.2565  0.1766
 6191TIP3    H240133   2.737   0.471   0.628  0.8803  1.0616  1.2426
 6192TIP3   OH240134   6.604   6.447   6.531  0.3864  0.0302  0.0567
 6192TIP3    H140135   6.609   6.542   6.536  1.6603 -0.1025  2.8547
 6192TIP3    H240136   6.521   6.425   6.573  0.7730 -0.1459  0.7397
 6193TIP3   OH240137   0.037   3.833   1.004  0.1097 -0.0345  0.7772
 6193TIP3    H140138   0.043   3.894   0.931 -0.8104  0.2197  0.9039
 6193TIP3    H240139  -0.027   3.872   1.063 -0.2983 -0.9888  0.9828
 6194TIP3   OH240140   4.441   4.414   2.161 -0.3126 -0.3580 -0.4367
 6194TIP3    H140141   4.393   4.425   2.079  0.3813  0.7597 -0.7068
 6194TIP3    H240142   4.497   4.337   2.146  0.6885  0.5360 -1.4608
 6195TIP3   OH240143   1.404   5.647   7.830  0.3229 -0.1541 -0.5144
 6195TIP3    H140144   1.372   5.737   7.826 -0.4599 -0.3442  0.8395
 6195TIP3    H240145   1.436   5.637   7.920  0.1604 -1.3100 -0.5704
 6196TIP3   OH240146   3.757   2.110   0.112 -0.4827  0.3108  0.0539
 6196TIP3    H140147   3.846   2.105   0.147 -1.0086  0.7420  1.5269
 6196TIP3    H240148   3.767   2.151   0.026  0.7779 -0.0739 -0.0039
 6197TIP3   OH240149   5.033   0.888   7.844  0.8107  0.3586  0.4150
 6197TIP3    H140150   5.004   0.921   7.930 -0.0596  0.0240  0.2601
 6197TIP3    H240151   5.106   0.944   7.821  1.4753  0.0535  1.6692
 6198TIP3   OH240152   4.787   0.071   8.077  0.1432 -0.0996 -0.1507
 6198TIP3    H140153   4.781   0.149   8.132 -1.7861 -0.0768 -0.3111
 6198TIP3    H240154   4.736   0.005   8.123  0.6395 -0.8567 -0.6707
 6199TIP3   OH240155   5.993   3.623   1.649 -0.0032  0.3049 -0.6609
 6199TIP3    H140156   6.063   3.615   1.585  0.9032 -0.4441  0.3797
 6199TIP3    H240157   6.018   3.699   1.702 -0.1000  0.1641 -0.4130
 6200TIP3   OH240158   3.797   1.043   6.810  0.3568  0.2581 -0.0137
 6200TIP3    H140159   3.821   0.951   6.793  0.6320  0.4904 -0.8944
 6200TIP3    H240160   3.708   1.051   6.777 -0.4989 -0.2237  1.9731
 6201TIP3   OH240161   3.787   6.147   6.833 -0.1086  0.6668 -0.0004
 6201TIP3    H140162   3.709   6.151   6.779 -0.2226 -2.0286 -0.2094
 6201TIP3    H240163   3.757   6.172   6.921 -0.8500  1.0887 -0.3647
 6202TIP3   OH240164   1.351   1.065   8.065  0.0398  0.6529  0.0060
 6202TIP3    H140165   1.410   1.011   8.116 -1.5249 -1.2818 -0.1268
 6202TIP3    H240166   1.320   1.008   7.994 -0.9093  2.0159 -0.7328
 6203TIP3   OH240167   3.668   5.032   6.611 -0.4647 -0.1155  0.1965
 6203TIP3    H140168   3.657   5.052   6.518  0.2411  1.5873  0.4562
 6203TIP3    H240169   3.650   5.114   6.657 -3.4455 -1.5080  1.8319
 6204TIP3   OH240170   3.025   5.862   8.555 -0.3282  0.3861  0.2174
 6204TIP3    H140171   3.112   5.899   8.547  0.7261 -1.3591  2.3019
 6204TIP3    H240172   3.019   5.797   8.485  1.2515 -1.4572  1.6659
 6205TIP3   OH240173   2.499   5.118   7.629  0.2718  0.2204 -0.6109
 6205TIP3    H140174   2.558   5.145   7.700 -1.3749  0.0430  0.8787
 6205TIP3    H240175   2.460   5.200   7.598  0.4539  0.2181 -0.8579
 6206TIP3   OH240176   6.595   5.706   7.793  0.0776  0.4287 -0.6491
 6206TIP3    H140177   6.603   5.714   7.888 -0.3987  0.5197 -0.6116
 6206TIP3    H240178   6.580   5.613   7.778  1.1008  0.2691 -0.7143
 6207TIP3   OH240179   6.657   0.145   7.702  0.2920 -0.2448  0.2859
 6207TIP3    H140180   6.680   0.141   7.609  1.5215 -0.6768  0.5889
 6207TIP3    H240181   6.599   0.220   7.709 -0.1202 -0.4360 -0.8961
 6208TIP3   OH240182   2.117   2.227   7.908 -0.3321 -1.3081  0.0623
 6208TIP3    H140183   2.047   2.196   7.966 -0.1818  0.1125  1.0479
 6208TIP3    H240184   2.194   2.235   7.965 -0.2853  0.5139 -0.1930
 6209TIP3   OH240185   2.300   3.288   7.505 -0.0176  0.3845 -0.3950
 6209TIP3    H140186   2.259   3.313   7.588  0.7183  0.1510  0.0419
 6209TIP3    H240187   2.295   3.193   7.504  0.8893  0.3277 -0.1395
 6210TIP3   OH240188   5.583   4.050   7.317  0.9093 -0.2509 -0.0950
 6210TIP3    H140189   5.573   3.982   7.250 -1.9508 -0.9539  0.8916
 6210TIP3    H240190   5.515   4.114   7.296  2.3983  1.4539  0.0513
 6211TIP3   OH240191   2.451   4.379   8.283  0.1513  0.0553  0.6695
 6211TIP3    H140192   2.472   4.357   8.193  1.9394  1.4529  0.6908
 6211TIP3    H240193   2.392   4.309   8.312 -0.5417 -0.3693 -1.5751
 6212TIP3   OH240194   4.665   1.332   0.881  0.1773  0.1783  0.1893
 6212TIP3    H140195   4.715   1.253   0.899 -0.3576 -0.2346 -0.0976
 6212TIP3    H240196   4.725   1.404   0.900  1.3506 -0.3142 -1.5056
 6213TIP3   OH240197   2.083   6.653   8.572 -0.4604 -0.0251 -0.2307
 6213TIP3    H140198   2.027   6.691   8.640 -1.3706 -2.7559  0.6730
 6213TIP3    H240199   2.034   6.666   8.491 -1.7496 -1.0279  0.3467
 6214TIP3   OH240200   2.057   4.511   0.255 -0.3375 -0.0291 -0.3650
 6214TIP3    H140201   2.011   4.437   0.214 -1.7971  0.1235  0.9216
 6214TIP3    H240202   1.997   4.584   0.246  1.9540  1.7068 -3.5900
 6215TIP3   OH240203   5.822   6.135   1.836 -0.0803  0.2681 -0.2313
 6215TIP3    H140204   5.736   6.164   1.865 -0.2234  1.4327 -1.7221
 6215TIP3    H240205   5.851   6.202   1.774  1.8980 -0.1077  0.2093
 6216TIP3   OH240206   3.292   4.443   6.985  0.2110  0.3336  0.3657
 6216TIP3    H140207   3.309   4.495   7.064 -2.4070 -0.3689  1.5031
 6216TIP3    H240208   3.278   4.355   7.018 -0.3433 -0.0927 -0.9810
 6217TIP3   OH240209   4.609   5.587   0.192  0.1858  0.1919 -0.3536
 6217TIP3    H140210   4.532   5.612   0.242  0.0553  0.8923 -0.8832
 6217TIP3    H240211   4.666   5.544   0.256 -1.2291 -1.6675 -0.2614
 6218TIP3   OH240212   4.582   5.534   1.007 -0.6681  0.2224 -0.5316
 6218TIP3    H140213   4.561   5.478   0.933  1.0246 -1.3442  0.0840
 6218TIP3    H240214   4.555   5.483   1.084 -3.6558  2.3595  0.0344
 6219TIP3   OH240215   3.928   6.442   6.322 -0.2510  0.2541 -0.5104
 6219TIP3    H140216   3.941   6.534   6.298 -0.4498  0.1134 -1.1781
 6219TIP3    H240217   3.833   6.432   6.327 -0.2407  0.7626  2.3161
 6220TIP3   OH240218   4.412   5.237   7.590 -0.4551 -0.0183  0.4057
 6220TIP3    H140219   4.335   5.290   7.570 -0.4295 -0.1824 -0.1281
 6220TIP3    H240220   4.486   5.296   7.576 -0.3878 -0.3855 -0.8682
 6221TIP3   OH240221   5.507   5.770   8.702  0.0145  0.2502 -0.4481
 6221TIP3    H140222   5.540   5.704   8.641 -1.4877  0.3300 -1.3966
 6221TIP3    H240223   5.496   5.722   8.784 -2.0411 -1.0151 -1.3841
 6222TIP3   OH240224   0.932   5.629   1.997  0.2087  0.1291  0.3058
 6222TIP3    H140225   0.898   5.549   1.956  1.2440 -0.2061  0.0653
 6222TIP3    H240226   1.026   5.617   1.998  0.2551  0.3958  2.2736
 6223TIP3   OH240227   0.846   1.970   7.033  0.3033  0.4708  0.1465
 6223TIP3    H140228   0.940   1.961   7.046  0.1810 -0.6629  0.3152
 6223TIP3    H240229   0.807   1.899   7.084 -0.5048 -0.4858 -1.7146
 6224TIP3   OH240230   6.548   2.640   6.704  0.1295 -0.1529 -0.2131
 6224TIP3    H140231   6.596   2.560   6.726 -0.2615 -0.2247  0.4003
 6224TIP3    H240232   6.542   2.688   6.787  0.9375  0.8343 -0.7007
 6225TIP3   OH240233   2.059   1.429   8.666 -0.5724  0.8672  1.3968
 6225TIP3    H140234   2.040   1.511   8.621 -1.2533 -0.9142 -1.8600
 6225TIP3    H240235   2.150   1.410   8.643 -1.2361 -0.5712 -0.1860
 6226TIP3   OH240236   6.275   0.165   8.530 -0.5510  0.0316 -0.4349
 6226TIP3    H140237   6.207   0.231   8.538  0.7231  1.1757  1.5511
 6226TIP3    H240238   6.227   0.083   8.516 -2.3261  0.7891  0.8873
 6227TIP3   OH240239   5.663   1.319   7.198  0.6552 -0.4188  0.0704
 6227TIP3    H140240   5.646   1.246   7.257  0.5327  0.0301  0.5976
 6227TIP3    H240241   5.577   1.353   7.175  0.7366  0.9319  1.5808
 6228TIP3   OH240242   1.170   3.155   0.110  0.8479 -0.4441  0.0860
 6228TIP3    H140243   1.250   3.200   0.084 -0.1956  1.8723  0.6509
 6228TIP3    H240244   1.103   3.188   0.051 -0.0510 -0.9934  0.7669
 6229TIP3   OH240245   2.676   3.598   0.861 -0.1695 -0.2770 -0.3221
 6229TIP3    H140246   2.767   3.576   0.842 -0.3124 -0.5660 -0.6730
 6229TIP3    H240247   2.682   3.671   0.923  0.2979 -1.6282  1.2638
 6230TIP3   OH240248   3.130   5.771   7.527 -0.2347  0.0927  0.1438
 6230TIP3    H140249   3.149   5.832   7.599  1.1692 -0.2904  0.1252
 6230TIP3    H240250   3.164   5.815   7.449 -2.4705  0.8748 -0.4802
 6231TIP3   OH240251   4.726   5.888   8.196 -0.1439  0.2734  0.3849
 6231TIP3    H140252   4.649   5.859   8.147 -1.2423  2.2124  0.8476
 6231TIP3    H240253   4.771   5.949   8.137  1.4706 -1.3009 -0.1289
 6232TIP3   OH240254   1.168   3.973   6.678 -0.4324 -0.4038  0.2789
 6232TIP3    H140255   1.133   4.033   6.612 -1.1126  1.3665  2.1575
 6232TIP3    H240256   1.098   3.909   6.692 -1.5112  0.9712  1.3853
 6233TIP3   OH240257   5.910   2.243   8.056  0.4731  0.0188  0.1684
 6233TIP3    H140258   5.839   2.260   7.994 -0.4629 -1.9879  0.6159
 6233TIP3    H240259   5.879   2.169   8.108  2.2192  0.1624  1.4830
 6234TIP3   OH240260   0.756   5.803   7.357 -0.0542 -0.0634 -0.1763
 6234TIP3    H140261   0.739   5.844   7.442 -2.0765 -1.1554  0.0118
 6234TIP3    H240262   0.722   5.866   7.293  0.4590  0.2690 -0.1269
 6235TIP3   OH240263   0.936   3.532   0.159 -0.1217 -0.7000  0.1613
 6235TIP3    H140264   0.905   3.529   0.069 -0.1573 -0.4709  0.1654
 6235TIP3    H240265   1.026   3.499   0.155 -0.0100 -0.3755 -0.0062
 6236TIP3   OH240266   2.931   3.998   1.135  0.1601 -0.6434 -0.2046
 6236TIP3    H140267   2.989   4.058   1.182  0.1320 -0.0700 -0.8898
 6236TIP3    H240268   2.917   3.925   1.196  1.8935 -0.9792 -0.1532
 6237TIP3   OH240269   3.840   3.156   8.020  0.1599 -0.5773 -0.4857
 6237TIP3    H140270   3.783   3.194   7.954  0.3555  0.7669  0.0788
 6237TIP3    H240271   3.842   3.063   8.000 -1.7560 -0.5661 -0.8620
 6238TIP3   OH240272   5.642   0.718   6.592  0.3368 -0.2035 -0.2810
 6238TIP3    H140273   5.660   0.798   6.542 -1.1177  0.7290  0.6143
 6238TIP3    H240274   5.710   0.657   6.564  2.5736  1.8859  0.2692
 6239TIP3   OH240275   3.803   0.089   8.190 -0.0379  0.3688  0.3375
 6239TIP3    H140276   3.864   0.036   8.240 -0.1380 -0.0761 -0.0034
 6239TIP3    H240277   3.722   0.038   8.188  0.3872 -0.3249 -1.4976
 6240TIP3   OH240278   2.517   1.617   0.511 -0.0632 -0.4442 -0.3103
 6240TIP3    H140279   2.435   1.652   0.476 -0.2837 -1.6486 -1.0831
 6240TIP3    H240280   2.494   1.528   0.540  0.9077 -0.6979 -0.2888
 6241TIP3   OH240281   2.467   0.306   1.938 -0.1642  0.1904  0.2806
 6241TIP3    H140282   2.409   0.233   1.961  0.2477  0.0539  0.9044
 6241TIP3    H240283   2.548   0.288   1.985 -0.2239  1.3078  0.8468
 6242TIP3   OH240284   3.949   4.389   7.882  0.4099  0.0199 -0.6432
 6242TIP3    H140285   3.938   4.459   7.947 -0.6888 -0.3251 -0.4385
 6242TIP3    H240286   4.042   4.391   7.860  0.5516  0.9835 -0.0031
 6243TIP3   OH240287   5.499   2.762   6.937 -0.1827 -0.4240 -0.2764
 6243TIP3    H140288   5.405   2.747   6.945 -0.1512 -2.9873 -3.0873
 6243TIP3    H240289   5.535   2.740   7.023 -2.0014 -0.7021  0.4383
 6244TIP3   OH240290   3.756   1.220   1.629  0.0274  0.4225 -0.1154
 6244TIP3    H140291   3.702   1.298   1.614 -0.6291 -0.1382 -0.7019
 6244TIP3    H240292   3.770   1.218   1.724  0.0969  1.2805 -0.1005
 6245TIP3   OH240293   5.049   6.538   6.629 -0.2572  0.2184 -0.2916
 6245TIP3    H140294   4.994   6.573   6.559  1.0693  1.4858 -0.7435
 6245TIP3    H240295   5.080   6.454   6.594 -1.4014 -0.2200 -0.2774
 6246TIP3   OH240296   6.224   1.451   8.186  0.2033  0.4634 -0.1789
 6246TIP3    H140297   6.253   1.523   8.130  0.0410  1.6589  1.2175
 6246TIP3    H240298   6.296   1.439   8.249  1.0389 -1.8273 -1.4295
 6247TIP3   OH240299   6.263   0.216   8.107 -0.0983  0.5800  0.5776
 6247TIP3    H140300   6.176   0.182   8.128  0.1008 -0.3315 -0.0307
 6247TIP3    H240301   6.252   0.264   8.025 -0.0966  0.7604  0.6832
 6248TIP3   OH240302   0.633   4.378   8.203 -0.0117 -0.2730 -0.0746
 6248TIP3    H140303   0.632   4.442   8.132 -0.3892 -1.4646 -1.1932
 6248TIP3    H240304   0.586   4.421   8.275 -0.6297  0.5470 -0.9382
 6249TIP3   OH240305   2.481   4.718   7.004 -0.5840 -0.3158 -0.3945
 6249TIP3    H140306   2.573   4.732   7.029 -0.7304  1.8924 -0.8710
 6249TIP3    H240307   2.435   4.704   7.086  0.1910 -1.7706 -0.1691
 6250TIP3   OH240308   1.863   1.559   8.257 -0.2307 -0.2278 -0.0150
 6250TIP3    H140309   1.853   1.479   8.207 -2.1500  0.5711 -1.0134
 6250TIP3    H240310   1.817   1.542   8.339 -0.4607 -0.2310 -0.1437
 6251TIP3   OH240311   3.887   3.300   1.078 -0.2618 -0.1479 -0.2159
 6251TIP3    H140312   3.853   3.388   1.094 -0.0247 -0.3071  1.3232
 6251TIP3    H240313   3.919   3.270   1.163 -0.6934 -1.8812 -0.6068
 6252TIP3   OH240314   1.254   3.035   8.221 -0.2446 -0.3571 -0.2539
 6252TIP3    H140315   1.346   3.044   8.195 -0.9365  1.4547 -2.4474
 6252TIP3    H240316   1.242   3.099   8.291  0.4741 -1.6902  1.1343
 6253TIP3   OH240317   5.680   3.681   2.678  0.5846  0.0201  0.4669
 6253TIP3    H140318   5.619   3.696   2.607  1.2180 -0.5827 -0.2185
 6253TIP3    H240319   5.725   3.765   2.689  0.7805  0.0010 -0.1417
 6254TIP3   OH240320   2.153   5.144   2.040 -0.5771 -0.0038 -0.0419
 6254TIP3    H140321   2.124   5.057   2.013  2.2266  0.0547 -4.0111
 6254TIP3    H240322   2.229   5.127   2.096 -1.4342 -0.0377  1.1566
 6255TIP3   OH240323   6.204   4.394   7.495 -0.0326 -0.2561 -0.3718
 6255TIP3    H140324   6.265   4.326   7.522  2.2488  0.4560 -3.2999
 6255TIP3    H240325   6.214   4.462   7.562  0.5079 -1.1726  0.5188
 6256TIP3   OH240326   1.702   3.651   0.985 -0.2745 -0.2529 -0.4918
 6256TIP3    H140327   1.762   3.672   1.057 -0.2456 -1.7172 -0.0706
 6256TIP3    H240328   1.615   3.661   1.023 -0.2879 -3.3448  0.5352
 6257TIP3   OH240329   0.411   0.196   1.022  0.8193 -0.4151  0.2624
 6257TIP3    H140330   0.448   0.151   1.098 -0.3046 -0.2419  0.9411
 6257TIP3    H240331   0.451   0.283   1.024 -0.5943  0.2591  1.8103
 6258TIP3   OH240332   0.678   3.869   0.918 -0.1661 -0.7238  0.0292
 6258TIP3    H140333   0.749   3.818   0.957  0.3093 -0.0343  0.0987
 6258TIP3    H240334   0.688   3.956   0.957 -0.5168 -0.3884 -0.6129
 6259TIP3   OH240335   4.193   1.990   1.032  0.5283 -0.4315  0.4767
 6259TIP3    H140336   4.108   2.029   1.012  0.8944 -0.0575 -0.3403
 6259TIP3    H240337   4.211   1.931   0.959  0.9531 -0.5545  0.6747
 6260TIP3   OH240338   3.671   4.262   7.855 -0.2589  0.2291 -0.3825
 6260TIP3    H140339   3.632   4.282   7.769  0.0629  0.7894 -0.3986
 6260TIP3    H240340   3.761   4.292   7.848 -0.3039  0.5070  0.2471
 6261TIP3   OH240341   1.464   4.157   0.353 -0.6874 -0.6934 -0.2386
 6261TIP3    H140342   1.390   4.217   0.364 -0.2690 -0.2944  0.5196
 6261TIP3    H240343   1.540   4.215   0.343 -0.1431 -1.0660  1.4334
 6262TIP3   OH240344   3.182   5.974   7.723 -0.1948 -0.1356 -0.3416
 6262TIP3    H140345   3.250   5.968   7.791  0.1262 -0.3288 -0.6711
 6262TIP3    H240346   3.196   6.060   7.683  1.0272 -0.8821 -1.5999
 6263TIP3   OH240347   1.008   6.127   0.771 -0.2168 -0.5954 -0.2232
 6263TIP3    H140348   1.013   6.193   0.701 -0.7424  0.8652  1.0743
 6263TIP3    H240349   0.915   6.107   0.778 -0.0447 -1.6674 -0.7352
 6264TIP3   OH240350   0.341   4.035   1.289 -0.0427 -0.4478 -0.3488
 6264TIP3    H140351   0.251   4.053   1.316  0.0512  0.0871 -0.3718
 6264TIP3    H240352   0.338   4.037   1.194 -0.0014 -0.3974 -0.3492
 6265TIP3   OH240353   2.754   2.666   7.455 -0.3030 -0.1720 -0.5721
 6265TIP3    H140354   2.729   2.574   7.446 -1.6886  0.2924 -2.2261
 6265TIP3    H240355   2.722   2.707   7.374 -0.3783  1.9093  0.4468
 6266TIP3   OH240356   3.453   5.116   0.094 -0.2233 -0.5426 -0.1645
 6266TIP3    H140357   3.495   5.098   0.010  1.6070  0.9445  0.3793
 6266TIP3    H240358   3.414   5.203   0.083 -0.2767 -0.4900  0.4051
 6267TIP3   OH240359   6.007   2.241   0.048  0.2375 -0.3172 -0.3130
 6267TIP3    H140360   6.066   2.173   0.014  2.2345  2.4967 -3.1623
 6267TIP3    H240361   6.065   2.301   0.096 -0.9767  0.5694  0.0905
 6268TIP3   OH240362   6.356   2.283   1.148 -0.0382 -0.1135  0.0849
 6268TIP3    H140363   6.322   2.203   1.107  0.1391 -0.5024  0.6869
 6268TIP3    H240364   6.278   2.336   1.166 -0.2179 -0.4578  0.3248
 6269TIP3   OH240365   1.736   4.302   0.394  0.0373 -0.3269 -0.8130
 6269TIP3    H140366   1.780   4.237   0.449 -0.0864  0.3755  0.1387
 6269TIP3    H240367   1.740   4.383   0.444 -2.8854 -0.3475 -0.3524
 6270TIP3   OH240368   2.976   5.048   7.245 -0.6708 -0.3338 -0.4705
 6270TIP3    H140369   2.908   4.998   7.201 -0.0986  0.2369 -2.0856
 6270TIP3    H240370   3.050   5.047   7.184  0.8095 -0.9871  1.2426
 6271TIP3   OH240371   3.790   0.002   7.740 -0.0409 -0.1067  0.0043
 6271TIP3    H140372   3.853  -0.062   7.771 -0.1296 -0.0055  0.4024
 6271TIP3    H240373   3.791   0.071   7.807 -1.1594 -0.4869  0.4277
 6272TIP3   OH240374   4.174   1.507   8.090  0.0477 -0.1911  0.2875
 6272TIP3    H140375   4.263   1.516   8.057  0.0683  2.4457  0.8561
 6272TIP3    H240376   4.182   1.448   8.166  0.8588 -1.8720 -1.0315
 6273TIP3   OH240377   0.748   1.783   7.182  0.1361  0.3658  0.1789
 6273TIP3    H140378   0.760   1.688   7.178  0.7145  0.3244  1.9895
 6273TIP3    H240379   0.659   1.797   7.152 -0.4898 -0.9133  1.3139
 6274TIP3   OH240380   1.470   0.198   8.094  0.0615  0.0271  0.2319
 6274TIP3    H140381   1.527   0.124   8.075  0.1168  0.0228  0.4156
 6274TIP3    H240382   1.419   0.210   8.014  0.1570 -0.1145  0.1497
 6275TIP3   OH240383   1.490   2.282   7.154 -0.2412 -0.5827  0.6564
 6275TIP3    H140384   1.452   2.205   7.196 -1.2790 -0.1355  0.5571
 6275TIP3    H240385   1.464   2.355   7.211  1.8108 -0.4164  1.4692
 6276TIP3   OH240386   4.578   4.499   0.010  0.2716  0.1324  0.7815
 6276TIP3    H140387   4.581   4.406   0.034 -1.6608 -0.3413 -0.5718
 6276TIP3    H240388   4.599   4.500  -0.083 -0.0248  1.0186  0.7222
 6277TIP3   OH240389   0.926   0.232   1.271 -0.0310 -0.2559 -0.1273
 6277TIP3    H140390   0.909   0.194   1.358 -1.0986  0.4992  0.0086
 6277TIP3    H240391   0.870   0.183   1.212  1.3328 -1.3580 -0.5649
 6278TIP3   OH240392   5.687   4.253   1.614 -0.2296  0.5393  0.2764
 6278TIP3    H140393   5.638   4.331   1.640 -0.2503  0.6616 -0.1312
 6278TIP3    H240394   5.726   4.275   1.530 -3.2741 -1.1316 -1.7650
 6279TIP3   OH240395   3.543   2.569   7.218 -0.3872 -1.2357 -0.0995
 6279TIP3    H140396   3.587   2.557   7.134  0.1937 -0.3202  0.0631
 6279TIP3    H240397   3.451   2.546   7.201 -0.5168  0.0759 -1.2818
 6280TIP3   OH240398   4.406   3.812   1.462  0.4483  0.2846 -0.0361
 6280TIP3    H140399   4.341   3.838   1.528 -0.9699 -0.3971 -1.1081
 6280TIP3    H240400   4.392   3.718   1.451  0.0512  0.5428 -1.9328
 6281TIP3   OH240401   1.527   5.745   1.777  0.0051  0.6420 -0.5986
 6281TIP3    H140402   1.503   5.755   1.869  0.7073  2.8686 -0.6078
 6281TIP3    H240403   1.611   5.699   1.779 -0.0463  0.5647 -0.1380
 6282TIP3   OH240404   1.065   4.212   0.136  0.2406  0.2888  0.2142
 6282TIP3    H140405   0.982   4.251   0.164 -0.4055 -1.2613  0.5998
 6282TIP3    H240406   1.050   4.187   0.045 -0.0420 -0.7654  0.5356
 6283TIP3   OH240407   3.478   0.408   0.953  0.0537 -0.1593  0.0877
 6283TIP3    H140408   3.559   0.408   0.902 -0.3047  1.5843 -0.5653
 6283TIP3    H240409   3.472   0.320   0.989  2.0959 -0.4145 -0.0702
 6284TIP3   OH240410   3.099   6.430   1.076 -0.0762 -0.2232  0.0193
 6284TIP3    H140411   3.045   6.365   1.121 -1.2956 -1.4100 -2.8757
 6284TIP3    H240412   3.137   6.382   1.002 -0.6619  2.2230 -1.9940
 6285TIP3   OH240413   5.903   0.150   7.293 -0.5792 -0.8768 -0.2680
 6285TIP3    H140414   5.978   0.158   7.235 -1.0578 -1.2987 -0.9587
 6285TIP3    H240415   5.865   0.064   7.273 -0.1965 -1.4725  1.3435
 6286TIP3   OH240416   0.089   4.400   1.335  0.3697  0.3422 -0.1540
 6286TIP3    H140417   0.118   4.442   1.416  0.5789 -1.0987  0.5483
 6286TIP3    H240418  -0.005   4.389   1.347  0.1803  1.3125 -0.6817
 6287TIP3   OH240419   2.268   2.748   8.676  0.2664  0.3360  0.3204
 6287TIP3    H140420   2.181   2.785   8.693  0.1859  0.3171 -0.0387
 6287TIP3    H240421   2.255   2.692   8.599  0.3570 -0.5521  0.9401
 6288TIP3   OH240422   2.896   1.473   7.136  0.0808 -0.4539  0.1529
 6288TIP3    H140423   2.976   1.478   7.084 -0.6658 -0.1558 -1.0138
 6288TIP3    H240424   2.831   1.434   7.077 -0.8216 -0.0140  0.8257
 6289TIP3   OH240425   0.236   0.809   1.348  0.2597  0.4936 -0.1528
 6289TIP3    H140426   0.160   0.843   1.300 -0.8004  0.7501  1.6065
 6289TIP3    H240427   0.201   0.788   1.435  2.1047  0.0991  0.5307
 6290TIP3   OH240428   5.531   0.625   1.211 -0.1067  0.0854  0.2478
 6290TIP3    H140429   5.481   0.618   1.292 -1.3364  0.4352 -0.4682
 6290TIP3    H240430   5.491   0.563   1.151  0.2578  0.4233 -0.3612
 6291TIP3   OH240431   1.357   2.324   1.310 -0.0409 -0.2445 -0.3282
 6291TIP3    H140432   1.264   2.346   1.309  0.0384  0.0876 -0.7488
 6291TIP3    H240433   1.376   2.300   1.401 -0.6950 -1.0074 -0.3850
 6292TIP3   OH240434   5.425   0.951   0.305  0.1425 -0.3452 -0.1532
 6292TIP3    H140435   5.446   1.032   0.351  0.6278 -0.2518 -0.5367
 6292TIP3    H240436   5.332   0.936   0.325  0.2897 -0.1928  0.6797
 6293TIP3   OH240437   4.371   3.982   0.074  0.0876 -0.0062 -0.0510
 6293TIP3    H140438   4.381   4.052   0.009  1.5436 -0.8431 -0.7785
 6293TIP3    H240439   4.292   3.935   0.045  0.5195 -0.1549 -1.0291
 6294TIP3   OH240440   1.060   3.615   8.425 -0.5604  0.5674  0.6244
 6294TIP3    H140441   1.146   3.573   8.431 -1.3141 -1.0537  0.4793
 6294TIP3    H240442   1.061   3.658   8.340  0.1339  0.6339  0.6537
 6295TIP3   OH240443   2.902   4.654   8.437 -0.1256  0.0702 -0.4212
 6295TIP3    H140444   2.966   4.672   8.368  0.0122  0.2674 -0.2469
 6295TIP3    H240445   2.850   4.581   8.404  0.1056 -0.0046 -0.6226
 6296TIP3   OH240446   1.901   0.789   7.737  0.1598 -0.1517 -0.2037
 6296TIP3    H140447   1.862   0.762   7.654 -0.2170 -1.0466  0.2416
 6296TIP3    H240448   1.839   0.758   7.803  0.1766  1.0286  0.3972
 6297TIP3   OH240449   1.125   1.117   7.087  0.1898  0.5540 -0.1834
 6297TIP3    H140450   1.174   1.123   7.169 -2.5205  1.0061  1.5365
 6297TIP3    H240451   1.079   1.201   7.081 -0.5656  0.0592 -1.5590
 6298TIP3   OH240452   3.611   4.397   8.142  0.2807 -0.1572  0.3638
 6298TIP3    H140453   3.623   4.418   8.049  0.2855  0.6301  0.5357
 6298TIP3    H240454   3.676   4.451   8.187  0.6821 -0.9788  0.7845
 6299TIP3   OH240455   1.923   1.022   8.166  0.7620  0.2073  0.2979
 6299TIP3    H140456   1.941   1.056   8.079 -0.9382  0.7148  0.0988
 6299TIP3    H240457   2.005   0.982   8.194  0.6026 -2.7678 -2.7816
 6300TIP3   OH240458   5.505   2.995   0.092  0.0734 -0.0484  0.5083
 6300TIP3    H140459   5.424   2.944   0.091 -1.2563  1.9428  0.8760
 6300TIP3    H240460   5.530   3.002  -0.001 -2.1209  2.1120 -0.0356
 6301TIP3   OH240461   0.993   2.041   8.659  0.3264 -0.2994 -0.1293
 6301TIP3    H140462   0.909   1.995   8.662 -0.0860  0.3274 -1.4648
 6301TIP3    H240463   0.971   2.129   8.629  1.6713 -0.7286 -2.6408
 6302TIP3   OH240464   4.137   4.667   7.919  0.0333  0.0251  0.1282
 6302TIP3    H140465   4.214   4.720   7.901  0.5292 -0.9025 -0.5063
 6302TIP3    H240466   4.122   4.678   8.013  0.2971  1.0506  0.0582
 6303TIP3   OH240467   3.305   4.850   0.902  0.3689 -0.7071 -0.1250
 6303TIP3    H140468   3.248   4.838   0.978 -2.0474  2.0353 -1.3172
 6303TIP3    H240469   3.375   4.907   0.933  0.5454 -1.2860  0.5408
 6304TIP3   OH240470   5.958   2.337   7.353  0.0666  0.3978  0.2961
 6304TIP3    H140471   5.962   2.378   7.266 -1.0621  1.2849  0.6468
 6304TIP3    H240472   5.924   2.249   7.337 -0.0139  0.5143 -0.1773
 6305TIP3   OH240473   1.070   3.273   6.893 -0.4775  0.0542 -0.1812
 6305TIP3    H140474   1.108   3.230   6.970  0.4453  0.4613 -0.3999
 6305TIP3    H240475   0.988   3.310   6.925  0.6286  1.5865  1.0327
 6306TIP3   OH240476   1.698   4.485   0.050  0.3015 -0.5369  0.1687
 6306TIP3    H140477   1.630   4.548   0.073 -0.6986 -1.5819  0.1827
 6306TIP3    H240478   1.649   4.407   0.022  1.4965 -0.9971 -0.7035
 6307TIP3   OH240479   2.339   3.726   6.682 -0.1267 -0.2717  0.4100
 6307TIP3    H140480   2.289   3.687   6.754 -0.7242  1.0938  0.7644
 6307TIP3    H240481   2.330   3.664   6.610 -1.4067 -0.5810  0.8139
 6308TIP3   OH240482   3.947   0.338   0.123 -0.1537 -0.1759  0.6168
 6308TIP3    H140483   3.948   0.250   0.084  0.8894 -1.1945  2.7519
 6308TIP3    H240484   3.900   0.392   0.059  1.0335 -1.7785 -1.7568
 6309TIP3   OH240485   0.019   6.733   6.442 -0.0880 -0.1283  0.6666
 6309TIP3    H140486  -0.071   6.747   6.472 -0.4461 -1.1098  0.0776
 6309TIP3    H240487   0.067   6.810   6.474 -1.0558  0.2314  1.2865
 6310TIP3   OH240488   3.666   1.746   7.326 -0.0461 -0.3740 -0.4208
 6310TIP3    H140489   3.604   1.775   7.260  0.1951  0.2784 -0.3714
 6310TIP3    H240490   3.615   1.691   7.385 -0.5734  0.1061 -0.4147
 6311TIP3   OH240491   3.953   0.061   6.903  0.7176 -0.2171  0.5532
 6311TIP3    H140492   3.958   0.050   6.998  3.2921  0.8629  0.6074
 6311TIP3    H240493   3.891   0.133   6.891  1.9728  1.1004  1.5934
 6312TIP3   OH240494   1.560   4.638   7.876 -0.1627 -0.5473  0.0057
 6312TIP3    H140495   1.498   4.649   7.803 -0.2469 -0.7267  0.0493
 6312TIP3    H240496   1.504   4.625   7.952 -0.1921  2.4078  0.6380
 6313TIP3   OH240497   0.154   1.274   7.703  0.5868 -0.2915 -0.1274
 6313TIP3    H140498   0.127   1.182   7.702 -0.1870 -0.0894 -1.6408
 6313TIP3    H240499   0.127   1.307   7.617  0.4537  1.4593  0.5476
 6314TIP3   OH240500   3.348   6.550   2.063 -0.5230 -0.0872  0.5705
 6314TIP3    H140501   3.346   6.557   1.967  0.7395  1.6066  0.6137
 6314TIP3    H240502   3.266   6.508   2.086 -0.6618 -0.9336 -1.2872
 6315TIP3   OH240503   2.319   5.754   7.887  0.2265 -0.2154  0.3431
 6315TIP3    H140504   2.271   5.817   7.834  1.3992 -0.0306 -0.5377
 6315TIP3    H240505   2.279   5.670   7.867 -0.1337  0.0099  0.1038
 6316TIP3   OH240506   1.996   6.471   0.139  0.7069  0.4065  0.2188
 6316TIP3    H140507   2.030   6.560   0.135 -0.1697  0.8644  1.8880
 6316TIP3    H240508   2.067   6.420   0.180  1.1796  0.3317 -0.6713
 6317TIP3   OH240509   3.925   6.508   1.048  0.4743 -0.0331  0.5047
 6317TIP3    H140510   3.839   6.470   1.070  0.1783  0.6268  0.4945
 6317TIP3    H240511   3.975   6.434   1.012 -0.7723  0.0072 -1.4159
 6318TIP3   OH240512   0.117   2.194   6.949  0.3001  0.4366 -0.0803
 6318TIP3    H140513   0.212   2.202   6.945  0.3474  0.2112  0.5442
 6318TIP3    H240514   0.084   2.279   6.917  0.7222  0.8141  0.4732
 6319TIP3   OH240515   4.919   3.787   1.522 -0.7427 -0.1600  0.1679
 6319TIP3    H140516   4.832   3.775   1.558 -0.8054 -1.0746 -0.2548
 6319TIP3    H240517   4.958   3.857   1.575 -1.9336  0.6866 -0.0315
 6320TIP3   OH240518   3.673   5.984   7.612 -0.9803 -0.4557 -0.3823
 6320TIP3    H140519   3.653   6.077   7.614  0.0783 -0.2198 -0.0517
 6320TIP3    H240520   3.709   5.964   7.698  0.9300 -0.6484 -1.1754
 6321TIP3   OH240521   6.602   5.279   0.335  0.3106 -0.3766 -0.3040
 6321TIP3    H140522   6.601   5.267   0.430 -0.0859  0.7556 -0.1469
 6321TIP3    H240523   6.693   5.260   0.310  1.2011  2.0619  0.7226
 6322TIP3   OH240524   2.878   2.947   2.277  0.2675  0.0636  0.1678
 6322TIP3    H140525   2.947   2.989   2.328  0.5731  0.7896 -0.7987
 6322TIP3    H240526   2.842   3.018   2.224  0.7458 -0.8738 -1.4773
 6323TIP3   OH240527   4.279   6.818   0.004 -0.5980 -0.0211  0.4551
 6323TIP3    H140528   4.349   6.808  -0.061  0.6581  2.0046  1.3979
 6323TIP3    H240529   4.211   6.756  -0.024  0.7159 -0.6118 -1.6459
 6324TIP3   OH240530   5.179   3.052   8.125  0.5205  0.1131  0.4978
 6324TIP3    H140531   5.188   3.071   8.031 -1.6336 -0.8172  0.0453
 6324TIP3    H240532   5.227   2.970   8.137 -0.0541 -0.3128 -0.0342
 6325TIP3   OH240533   2.515   3.884   6.970 -0.2756  0.0694  0.2158
 6325TIP3    H140534   2.453   3.948   6.935 -0.6772 -1.6395 -2.5488
 6325TIP3    H240535   2.596   3.899   6.920  0.6294  0.3676  1.7210
 6326TIP3   OH240536   6.147   4.529   8.346 -0.5337  0.0424  0.2153
 6326TIP3    H140537   6.150   4.621   8.321 -0.5884  0.1851  0.7172
 6326TIP3    H240538   6.198   4.524   8.427  1.3979 -0.7716 -0.9821
 6327TIP3   OH240539   4.480   3.359   7.927 -0.1504 -0.6298  0.3782
 6327TIP3    H140540   4.430   3.289   7.884  0.4244 -0.5682 -0.4010
 6327TIP3    H240541   4.487   3.330   8.018 -2.9524  0.1046  0.9267
 6328TIP3   OH240542   0.666   5.048   8.686 -0.0925 -0.2863  0.0597
 6328TIP3    H140543   0.685   5.141   8.680 -2.2009  0.1191 -1.6275
 6328TIP3    H240544   0.602   5.041   8.757 -1.1893 -0.1697 -0.8886
 6329TIP3   OH240545   3.049   5.251   7.860 -0.3881  0.1475  0.4353
 6329TIP3    H140546   3.129   5.303   7.852  0.1324 -0.6836 -0.0732
 6329TIP3    H240547   3.066   5.174   7.805 -0.8571 -0.8697  1.6602
 6330TIP3   OH240548   2.729   4.800   0.141 -0.2083  0.0948 -0.1615
 6330TIP3    H140549   2.637   4.789   0.165 -0.9928 -0.2693 -2.9988
 6330TIP3    H240550   2.742   4.894   0.135 -0.7171  0.1251 -0.8292
 6331TIP3   OH240551   5.135   3.714   6.873  0.1147 -0.1899 -0.6344
 6331TIP3    H140552   5.122   3.781   6.806  0.0044 -1.6919 -2.2013
 6331TIP3    H240553   5.212   3.665   6.843  0.7395 -0.2227  0.9424
 6332TIP3   OH240554   6.626   2.515   8.133 -0.6314  0.3889  0.6907
 6332TIP3    H140555   6.544   2.471   8.109 -1.2040  1.3991  0.7313
 6332TIP3    H240556   6.625   2.596   8.082  0.7551  0.0290  0.0665
 6333TIP3   OH240557   4.236   1.937   8.402  0.1130  0.2466  0.2004
 6333TIP3    H140558   4.208   1.972   8.317  0.2937  1.0270  0.4565
 6333TIP3    H240559   4.320   1.894   8.385  0.3075  0.6901  0.0496
 6334TIP3   OH240560   1.624   1.376   8.328 -0.1884  0.3690 -0.3938
 6334TIP3    H140561   1.675   1.317   8.272 -0.9501 -1.2559  0.5747
 6334TIP3    H240562   1.533   1.357   8.306 -0.4614  1.7797 -0.6222
 6335TIP3   OH240563   0.103   3.004   7.093  0.1389 -1.0014 -0.6477
 6335TIP3    H140564   0.034   3.070   7.077  1.4256  0.3036 -1.0526
 6335TIP3    H240565   0.116   2.963   7.007  2.3294  1.2938 -1.5268
 6336TIP3   OH240566   0.759   6.779   1.842  0.2470 -0.0617  0.2704
 6336TIP3    H140567   0.786   6.756   1.930 -3.4121 -1.4498  1.1762
 6336TIP3    H240568   0.775   6.873   1.836  0.4837  0.0827  2.4516
 6337TIP3   OH240569   1.916   4.900   1.314  0.1865  0.2662 -0.3217
 6337TIP3    H140570   1.934   4.926   1.224  1.9770 -0.5167 -0.2345
 6337TIP3    H240571   1.962   4.964   1.367  0.7175 -0.3514 -0.0187
 6338TIP3   OH240572   2.440   4.000   6.333  0.0685 -0.6410 -0.0879
 6338TIP3    H140573   2.444   3.998   6.429  0.7832 -0.6825 -0.1113
 6338TIP3    H240574   2.348   4.016   6.313  0.1987  1.2814  0.6336
 6339TIP3   OH240575   6.260   2.014   1.006  0.1041 -0.0904  0.3953
 6339TIP3    H140576   6.188   2.013   0.942 -0.3815 -0.9914  0.9237
 6339TIP3    H240577   6.265   1.923   1.036  0.8811  0.1565  1.0278
 6340TIP3   OH240578   6.142   2.711   0.557  0.0790  0.7801  0.0292
 6340TIP3    H140579   6.100   2.728   0.473  2.4039  0.8913 -1.1777
 6340TIP3    H240580   6.176   2.797   0.585 -0.6114  0.7351  1.0759
 6341TIP3   OH240581   2.506   5.355   1.741  0.3365 -0.1482  0.3213
 6341TIP3    H140582   2.573   5.417   1.712  0.0714  0.5440  1.1625
 6341TIP3    H240583   2.551   5.296   1.801  0.0496  0.7699  1.4660
 6342TIP3   OH240584   3.749   4.544   7.730 -0.2307 -0.4470  0.3406
 6342TIP3    H140585   3.807   4.469   7.721  0.4014 -0.1193  1.5294
 6342TIP3    H240586   3.802   4.618   7.700 -0.2364 -0.2329  0.8509
 6343TIP3   OH240587   0.312   2.701   1.301 -0.2828 -0.1262 -0.2764
 6343TIP3    H140588   0.332   2.623   1.250  0.8839  0.5106 -0.8552
 6343TIP3    H240589   0.332   2.677   1.391 -1.0181 -0.8303 -0.2896
 6344TIP3   OH240590   1.990   5.091   7.631 -0.4996 -0.1518  0.2396
 6344TIP3    H140591   2.082   5.064   7.629 -0.6988 -1.0607 -3.2817
 6344TIP3    H240592   1.985   5.163   7.568 -2.0879  0.3693  0.9176
 6345TIP3   OH240593   1.241   5.831   8.648  0.4542  0.5489 -0.1723
 6345TIP3    H140594   1.334   5.827   8.670  0.0896 -1.4199  1.2543
 6345TIP3    H240595   1.199   5.864   8.727 -0.0740  1.7609 -0.9245
 6346TIP3   OH240596   2.390   3.888   7.490  0.1406  0.0257 -0.0368
 6346TIP3    H140597   2.364   3.826   7.422 -0.3177  0.3322 -0.1494
 6346TIP3    H240598   2.461   3.939   7.451  0.0818 -0.0005 -0.1781
 6347TIP3   OH240599   2.692   3.210   7.549  0.0115 -0.3042 -0.0245
 6347TIP3    H140600   2.726   3.194   7.637  0.8411  0.0418 -0.2785
 6347TIP3    H240601   2.646   3.294   7.557  0.1173 -0.2544  0.0649
 6348TIP3   OH240602   5.987   1.647   7.191 -0.2227 -0.1467  0.0639
 6348TIP3    H140603   6.082   1.636   7.192 -0.2377 -0.6957 -1.6010
 6348TIP3    H240604   5.953   1.558   7.206 -0.4586 -0.0903 -0.1298
 6349TIP3   OH240605   4.588   3.415   7.305 -0.2015 -0.2897  0.1784
 6349TIP3    H140606   4.661   3.383   7.360  0.0760 -1.7227 -0.9623
 6349TIP3    H240607   4.549   3.486   7.356  1.1660 -0.3804  1.4187
 6350TIP3   OH240608   1.039   5.433   1.779 -0.1549 -0.1568 -0.4060
 6350TIP3    H140609   1.093   5.399   1.708 -0.5706 -0.9337 -0.3587
 6350TIP3    H240610   1.015   5.521   1.750  0.2441 -0.2044 -0.9090
 6351TIP3   OH240611   4.165   4.039   0.754  0.1568 -0.1711  0.5149
 6351TIP3    H140612   4.139   4.046   0.662 -1.0200  0.7044  0.8897
 6351TIP3    H240613   4.256   4.069   0.755 -0.4895  1.9943 -0.0784
 6352TIP3   OH240614   0.520   4.769   8.432  0.0675  0.7956 -0.0937
 6352TIP3    H140615   0.493   4.805   8.516  0.7052 -0.6821  0.7984
 6352TIP3    H240616   0.610   4.739   8.446  0.5496  1.3983 -1.6109
 6353TIP3   OH240617   4.936   0.625   7.939  0.5773  0.5890 -0.3544
 6353TIP3    H140618   4.989   0.702   7.920  1.4782 -0.4266 -2.2811
 6353TIP3    H240619   4.940   0.573   7.858 -0.9452 -0.9240  0.4826
 6354TIP3   OH240620   2.057   6.673   1.642  0.2279  0.1714  0.3556
 6354TIP3    H140621   2.078   6.580   1.649 -1.4485 -0.1610  1.5401
 6354TIP3    H240622   1.994   6.678   1.569  0.9422  0.5172 -0.2534
 6355TIP3   OH240623   2.523   0.374   6.745 -0.4759 -0.1567  0.0907
 6355TIP3    H140624   2.439   0.390   6.702  0.0546 -0.7702 -1.2317
 6355TIP3    H240625   2.574   0.325   6.680  0.8429  0.0618  0.9293
 6356TIP3   OH240626   5.366   2.225   2.015  0.3354  0.0320 -0.7756
 6356TIP3    H140627   5.458   2.220   2.041 -0.0942 -0.1239  0.7836
 6356TIP3    H240628   5.325   2.282   2.080 -0.9188 -0.8943 -0.7147
 6357TIP3   OH240629   3.918   4.180   8.053 -0.3627 -0.3537 -0.6335
 6357TIP3    H140630   3.914   4.249   7.986  0.5465 -0.3321 -0.6701
 6357TIP3    H240631   3.861   4.111   8.019 -1.9569  0.6895 -0.2171
 6358TIP3   OH240632   4.800   3.735   2.794  0.1459 -0.0795  0.0529
 6358TIP3    H140633   4.875   3.796   2.799  0.6250 -0.4808 -1.6321
 6358TIP3    H240634   4.824   3.663   2.852  0.8742  0.0193 -0.1132
 6359TIP3   OH240635   1.054   6.091   1.223 -0.4226  0.1442  0.0105
 6359TIP3    H140636   1.122   6.024   1.222 -2.0138 -1.5227 -0.7650
 6359TIP3    H240637   1.102   6.174   1.221  1.6142 -0.9124  1.8224
 6360TIP3   OH240638   1.689   6.714   2.337 -0.5155  0.2044 -0.2152
 6360TIP3    H140639   1.632   6.762   2.276 -1.7454 -0.1845  0.5814
 6360TIP3    H240640   1.631   6.689   2.409  1.0590  1.2747  1.4987
 6361TIP3   OH240641   0.499   2.718   5.696  0.3710 -0.1461  0.6859
 6361TIP3    H140642   0.492   2.713   5.600  0.3795  0.9408  0.6121
 6361TIP3    H240643   0.424   2.669   5.728 -0.5015  0.7509  0.0862
 6362TIP3   OH240644   0.805   3.847   6.639  0.0753 -0.3829  0.0291
 6362TIP3    H140645   0.835   3.937   6.626 -2.8434  0.5483 -0.9954
 6362TIP3    H240646   0.829   3.802   6.558  3.2417 -1.1751  1.2597
 6363TIP3   OH240647   5.048   5.736   8.086 -0.2070 -0.5537 -0.1062
 6363TIP3    H140648   4.970   5.681   8.094 -0.8098  0.3342  0.2790
 6363TIP3    H240649   5.073   5.755   8.177  0.1121 -0.3552 -0.2336
 6364TIP3   OH240650   0.498   1.147   6.991  0.6188 -0.4432  0.1197
 6364TIP3    H140651   0.479   1.142   7.084  1.1505  1.5847  0.3937
 6364TIP3    H240652   0.589   1.118   6.984  0.6948 -0.2500  0.2929
 6365TIP3   OH240653   6.777   1.133   8.608 -0.0963 -0.3764  0.1637
 6365TIP3    H140654   6.771   1.109   8.515  0.4771 -1.4565  0.3919
 6365TIP3    H240655   6.689   1.162   8.631 -0.5516 -1.2559 -0.4158
 6366TIP3   OH240656   5.529   6.445   7.362 -0.2984 -0.3911  0.0582
 6366TIP3    H140657   5.613   6.404   7.379 -0.6275 -0.4872  1.5830
 6366TIP3    H240658   5.464   6.378   7.384 -0.7979 -0.4641 -1.4892
 6367TIP3   OH240659   1.592   0.869   7.416  0.5653  0.3485  0.0656
 6367TIP3    H140660   1.508   0.896   7.454  1.6428  4.0956  0.1339
 6367TIP3    H240661   1.598   0.917   7.334  2.3793 -0.3324 -0.2441
 6368TIP3   OH240662   5.257   4.163   0.435  0.4903 -0.2044  0.3463
 6368TIP3    H140663   5.298   4.226   0.495  1.5464  1.2357 -1.7373
 6368TIP3    H240664   5.330   4.109   0.404 -0.0841 -1.1096  0.5743
 6369TIP3   OH240665   4.869   5.574   8.243  0.7268 -0.2189  0.0747
 6369TIP3    H140666   4.777   5.588   8.265  0.4230  0.4513 -1.4715
 6369TIP3    H240667   4.916   5.590   8.324 -0.4382  0.5831  0.6216
 6370TIP3   OH240668   5.265   1.799   1.470  0.2304 -0.5963 -0.6258
 6370TIP3    H140669   5.180   1.818   1.431  0.3208  0.7723 -0.1902
 6370TIP3    H240670   5.245   1.751   1.550 -0.0118 -2.2047 -1.6000
 6371TIP3   OH240671   1.445   6.561   0.911  0.7927 -0.1986  0.5532
 6371TIP3    H140672   1.489   6.478   0.928  1.3583  0.0249  0.2201
 6371TIP3    H240673   1.455   6.574   0.817 -0.4203 -0.3797  0.3851
 6372TIP3   OH240674   0.254   4.860   7.177 -0.1230 -0.6482 -0.6171
 6372TIP3    H140675   0.173   4.870   7.227 -0.2822 -0.8146 -0.8357
 6372TIP3    H240676   0.280   4.949   7.154  0.9662 -0.4172  1.3410
 6373TIP3   OH240677   0.759   5.112   7.232 -0.2224  0.1404  0.0437
 6373TIP3    H140678   0.714   5.167   7.295  1.8494  1.6027  0.3602
 6373TIP3    H240679   0.809   5.050   7.285 -0.1034 -0.0001 -0.2273
 6374TIP3   OH240680   1.623   4.701   1.154 -0.8533  0.4681 -0.5520
 6374TIP3    H140681   1.572   4.762   1.100 -1.8928  1.5190  1.5285
 6374TIP3    H240682   1.584   4.615   1.136 -1.8328  0.9388 -0.7403
 6375TIP3   OH240683   6.456   5.499   1.434  0.3460  0.6302  0.2148
 6375TIP3    H140684   6.448   5.500   1.339  0.1062  1.9902  0.2356
 6375TIP3    H240685   6.372   5.532   1.466  0.1515 -0.4980  0.9384
 6376TIP3   OH240686   5.594   3.453   8.172 -0.2666  0.5309 -0.4104
 6376TIP3    H140687   5.532   3.401   8.122  0.9281 -0.6369 -0.7564
 6376TIP3    H240688   5.570   3.544   8.155 -2.2723  0.1203  0.0265
 6377TIP3   OH240689   3.192   3.803   0.829 -0.6184 -0.1204  0.2164
 6377TIP3    H140690   3.225   3.812   0.918  1.8546 -1.2413 -0.4737
 6377TIP3    H240691   3.219   3.715   0.802 -2.3308 -0.2604 -1.2725
 6378TIP3   OH240692   3.443   1.875   0.881  0.0792  0.5669 -0.1809
 6378TIP3    H140693   3.368   1.860   0.938  0.9188  0.0539  0.8409
 6378TIP3    H240694   3.487   1.951   0.919  1.6787 -0.8826  1.0367
 6379TIP3   OH240695   2.883   2.340   8.699 -0.5972  0.2391 -0.1358
 6379TIP3    H140696   2.917   2.254   8.676 -0.2833  0.5687 -0.9640
 6379TIP3    H240697   2.900   2.349   8.792  0.0124 -0.3081 -0.1869
 6380TIP3   OH240698   1.968   5.435   7.014  0.0826  0.6709  0.0547
 6380TIP3    H140699   1.947   5.356   6.964  1.6786  1.9829 -2.9283
 6380TIP3    H240700   1.884   5.480   7.023 -0.1977  0.7769 -2.3325
 6381TIP3   OH240701   1.168   5.304   7.966 -0.5358 -0.3461  0.1356
 6381TIP3    H140702   1.148   5.219   8.007 -1.2022 -0.5710 -0.6342
 6381TIP3    H240703   1.259   5.320   7.989 -0.4423 -1.1996  0.4174
 6382TIP3   OH240704   4.061   6.330   2.457  0.3494  0.1305 -0.1070
 6382TIP3    H140705   3.977   6.333   2.412 -0.8013 -0.0086  1.8952
 6382TIP3    H240706   4.100   6.246   2.431  1.8290  1.8112 -4.1605
 6383TIP3   OH240707   5.275   5.359   7.554 -0.2833  0.4177  0.1836
 6383TIP3    H140708   5.210   5.382   7.488 -0.2948  1.0088  0.3940
 6383TIP3    H240709   5.287   5.440   7.605  1.1147  0.5215 -0.2786
 6384TIP3   OH240710   4.292   0.973   8.298 -0.2634 -0.1963  0.4283
 6384TIP3    H140711   4.273   1.040   8.364 -0.1672  1.1279 -0.8359
 6384TIP3    H240712   4.241   0.897   8.326 -0.3501  0.3804  1.9336
 6385TIP3   OH240713   3.997   4.363   7.567 -0.5426 -0.1839 -0.2554
 6385TIP3    H140714   4.048   4.290   7.532 -1.1086 -0.5773 -0.2800
 6385TIP3    H240715   3.973   4.414   7.490  1.9505  1.4606 -0.0441
 6386TIP3   OH240716   4.865   4.312   8.369  0.0521  0.4533 -0.1321
 6386TIP3    H140717   4.865   4.219   8.345 -0.2731  0.4269 -0.0351
 6386TIP3    H240718   4.805   4.353   8.307 -0.8954  0.3623  0.7047
 6387TIP3   OH240719   2.423   0.035   8.508  0.4700  0.0412 -0.4597
 6387TIP3    H140720   2.510   0.039   8.547  0.3071  0.7325 -0.1470
 6387TIP3    H240721   2.439   0.021   8.414  0.9010 -0.3524 -0.3285
 6388TIP3   OH240722   6.730   2.520   2.333  0.4368  0.4362  0.1180
 6388TIP3    H140723   6.652   2.550   2.287  0.9759  1.1255 -0.3821
 6388TIP3    H240724   6.780   2.601   2.349  0.6634  0.1008  1.1458
 6389TIP3   OH240725   1.261   4.818   0.184 -0.2648 -0.0051 -0.4727
 6389TIP3    H140726   1.171   4.845   0.164 -1.0688 -3.4762 -2.4560
 6389TIP3    H240727   1.307   4.827   0.100  0.7798  0.1367  0.1098
 6390TIP3   OH240728   4.412   1.575   1.060  0.1821 -0.2920 -0.6233
 6390TIP3    H140729   4.350   1.648   1.059  0.7463  0.2117 -0.1679
 6390TIP3    H240730   4.493   1.614   1.093  0.2064 -1.3619  0.6349
 6391TIP3   OH240731   6.414   5.779   6.869  0.4214  0.0328  0.0712
 6391TIP3    H140732   6.462   5.731   6.936 -0.5196  0.4156  1.0562
 6391TIP3    H240733   6.453   5.751   6.786  2.2243  0.2345  0.8110
 6392TIP3   OH240734   6.498   4.239   8.612  0.1225  0.3450  0.1113
 6392TIP3    H140735   6.504   4.251   8.707 -0.4853  1.0312  0.0761
 6392TIP3    H240736   6.408   4.211   8.597  0.5738 -1.0237 -0.1581
 6393TIP3   OH240737   1.621   5.066   6.450  0.1548 -0.0734 -0.1934
 6393TIP3    H140738   1.582   4.992   6.497  1.0767  0.0811  0.8712
 6393TIP3    H240739   1.664   5.026   6.374 -0.2896 -0.4985 -0.2232
 6394TIP3   OH240740   0.988   4.666   1.203  0.5601  0.4202 -0.2694
 6394TIP3    H140741   0.999   4.641   1.295 -1.2175  2.0361  0.4559
 6394TIP3    H240742   1.077   4.685   1.173  1.3517 -1.6337  0.6187
 6395TIP3   OH240743   5.553   1.693   6.651 -0.2166  0.8128  0.7106
 6395TIP3    H140744   5.509   1.705   6.567 -2.2151 -0.2375  1.5380
 6395TIP3    H240745   5.504   1.748   6.712 -0.6054 -0.5907  1.7171
 6396TIP3   OH240746   5.441   5.889   0.321 -0.4468  0.0687  0.1423
 6396TIP3    H140747   5.512   5.851   0.372  0.2069 -0.2872 -0.9950
 6396TIP3    H240748   5.444   5.983   0.341 -1.3746 -0.2776  2.1290
 6397TIP3   OH240749   2.720   2.102   1.360  0.3094  0.5088 -0.6768
 6397TIP3    H140750   2.716   2.058   1.445  0.4212  0.7099 -0.5673
 6397TIP3    H240751   2.763   2.038   1.302 -0.0552  0.2487 -0.6608
 6398TIP3   OH240752   4.231   4.385   7.826  0.2559  0.5464 -0.3773
 6398TIP3    H140753   4.267   4.347   7.906 -0.1047  3.1481  1.1486
 6398TIP3    H240754   4.303   4.436   7.789 -0.4996  2.1029  0.2088
 6399TIP3   OH240755   3.644   2.113   7.782  0.1069  0.4954 -0.7852
 6399TIP3    H140756   3.720   2.143   7.732  1.6838 -1.2371  0.4475
 6399TIP3    H240757   3.634   2.178   7.852  0.8720  0.3729 -0.5633
 6400TIP3   OH240758   1.489   1.558   1.106 -0.8110  0.0827 -0.1121
 6400TIP3    H140759   1.467   1.494   1.173 -1.6528 -0.9836 -1.3671
 6400TIP3    H240760   1.410   1.610   1.094 -0.4945  0.6248  0.0848
 6401TIP3   OH240761   1.623   5.060   7.504 -0.3402 -0.1660  0.6199
 6401TIP3    H140762   1.585   5.145   7.479 -0.3421 -0.2881  0.2100
 6401TIP3    H240763   1.623   5.009   7.423  1.5583  0.1539  0.3894
 6402TIP3   OH240764   1.656   0.227   1.489  0.2104 -0.0631  0.4383
 6402TIP3    H140765   1.637   0.163   1.421 -1.8989  1.4569 -0.5277
 6402TIP3    H240766   1.570   0.256   1.519  1.0835  1.7571  1.3663
 6403TIP3   OH240767   0.127   2.059   1.076 -0.1336  0.6007  0.7961
 6403TIP3    H140768   0.036   2.029   1.080 -0.0567  0.3274  0.5236
 6403TIP3    H240769   0.120   2.155   1.080 -0.5658  0.6890 -1.1026
 6404TIP3   OH240770   2.955   0.965   8.307  0.0283  0.2172 -0.0062
 6404TIP3    H140771   2.949   0.898   8.240  2.0900 -0.8851  0.8242
 6404TIP3    H240772   3.001   1.037   8.265 -1.7103  0.9640 -0.7360
 6405TIP3   OH240773   1.622   1.120   1.167  0.0459  0.0637 -0.4391
 6405TIP3    H140774   1.552   1.182   1.146  0.9533  1.1453 -0.3772
 6405TIP3    H240775   1.694   1.146   1.109  0.7090 -0.4281  0.1492
 6406TIP3   OH240776   6.596   5.013   8.071  0.8146 -0.2133  0.0622
 6406TIP3    H140777   6.620   4.926   8.103  0.7125 -0.8765 -1.5758
 6406TIP3    H240778   6.651   5.027   7.994 -1.0971 -0.0646 -1.3763
 6407TIP3   OH240779   2.733   0.553   0.171  0.3395  0.3691 -0.1018
 6407TIP3    H140780   2.821   0.551   0.134  0.2848 -0.9006 -0.2031
 6407TIP3    H240781   2.724   0.469   0.217  0.7991  2.2087  3.7548
 6408TIP3   OH240782   6.506   0.748   8.617 -0.4521  0.6698  0.0679
 6408TIP3    H140783   6.569   0.724   8.550 -0.7175  0.2281 -0.0241
 6408TIP3    H240784   6.528   0.693   8.692 -3.0269 -2.3256 -1.1447
 6409TIP3   OH240785   5.313   2.824   7.429  0.4283  0.2271 -0.3966
 6409TIP3    H140786   5.266   2.889   7.482 -0.7983 -0.0404 -1.1072
 6409TIP3    H240787   5.317   2.746   7.484  3.8892  1.4698  1.3655
 6410TIP3   OH240788   0.989   4.526   0.026 -0.1655 -0.2728 -0.3130
 6410TIP3    H140789   1.071   4.478   0.032 -0.1305 -0.2326 -0.4751
 6410TIP3    H240790   0.923   4.467   0.062  0.4238  0.8998  3.0820
 6411TIP3   OH240791   4.852   6.154   8.094  0.1480  0.0029 -0.0151
 6411TIP3    H140792   4.867   6.206   8.015  1.1329 -0.4034 -0.1020
 6411TIP3    H240793   4.939   6.125   8.121  0.0914  1.7375  2.3524
 6412TIP3   OH240794   1.378   6.561   8.125  0.3892  0.0032 -0.3075
 6412TIP3    H140795   1.285   6.580   8.108  0.8033  1.3192 -1.2621
 6412TIP3    H240796   1.404   6.503   8.054 -0.0287 -1.5083  0.7383
 6413TIP3   OH240797   2.877   3.015   6.900  0.1908 -0.3096  0.1475
 6413TIP3    H140798   2.955   3.043   6.852 -0.2159 -0.0279 -0.3621
 6413TIP3    H240799   2.874   2.921   6.888  1.6307 -0.6419  1.9640
 6414TIP3   OH240800   3.121   4.507   6.398  0.0327 -0.1675  0.5563
 6414TIP3    H140801   3.184   4.542   6.461 -1.8440  0.1741  2.3771
 6414TIP3    H240802   3.040   4.496   6.449 -1.2811 -0.9465 -1.5587
 6415TIP3   OH240803   0.283   2.582   5.806 -0.0261 -0.5106 -0.3364
 6415TIP3    H140804   0.192   2.608   5.794  0.3139  0.6089 -0.6441
 6415TIP3    H240805   0.286   2.491   5.776 -0.6988 -0.0369 -1.9957
 6416TIP3   OH240806   1.761   5.964   1.249 -0.2662  0.6541  0.0022
 6416TIP3    H140807   1.804   5.955   1.164 -0.0799 -2.7782  0.3195
 6416TIP3    H240808   1.801   6.042   1.288  2.0198  0.4479 -1.7311
 6417TIP3   OH240809   4.066   5.577   7.940 -0.2622 -0.1195  0.1061
 6417TIP3    H140810   4.107   5.526   8.010 -0.1016  0.6198  0.5700
 6417TIP3    H240811   4.139   5.623   7.899 -0.5711  0.9879  0.7562
 6418TIP3   OH240812   5.714   5.015   1.168  0.0598  0.3084  0.6616
 6418TIP3    H140813   5.701   4.977   1.255 -1.4010 -0.6748  0.0474
 6418TIP3    H240814   5.633   5.063   1.151  0.6281  1.1042  0.1283
 6419TIP3   OH240815   0.445   3.778   1.352 -0.0763 -0.1553 -0.1018
 6419TIP3    H140816   0.531   3.794   1.389 -0.4008 -2.1291  1.6749
 6419TIP3    H240817   0.407   3.865   1.339  2.2683  0.7623 -1.2799
 6420TIP3   OH240818   3.109   4.542   8.591  0.1502  0.4097 -0.2329
 6420TIP3    H140819   3.043   4.574   8.529 -0.0827  0.1849 -0.1050
 6420TIP3    H240820   3.108   4.607   8.661  0.3140  0.5911 -0.3959
 6421TIP3   OH240821   6.679   3.943   1.133 -0.2211  0.4789 -0.0367
 6421TIP3    H140822   6.741   4.016   1.140  0.9467 -0.5816  1.1170
 6421TIP3    H240823   6.607   3.968   1.191  0.2461  0.6624  0.4749
 6422TIP3   OH240824   5.099   0.501   0.444  0.1933 -0.0595 -0.2914
 6422TIP3    H140825   5.014   0.472   0.478  0.2543 -0.6450 -0.6225
 6422TIP3    H240826   5.128   0.568   0.505  1.0131 -2.1111  1.7292
 6423TIP3   OH240827   3.179   6.345   1.485  0.3943 -0.8858  0.2717
 6423TIP3    H140828   3.270   6.361   1.507  0.2895  2.6938 -1.1977
 6423TIP3    H240829   3.129   6.387   1.555 -0.1529 -1.6500  0.3636
 6424TIP3   OH240830   6.605   0.510   1.614 -0.3126  0.5580 -0.0860
 6424TIP3    H140831   6.679   0.539   1.667  0.6734 -0.4346 -0.8806
 6424TIP3    H240832   6.604   0.414   1.624 -1.3946  0.5370 -0.2194
 6425TIP3   OH240833   3.479   1.917   2.203 -0.1596 -0.1784 -0.1339
 6425TIP3    H140834   3.441   1.992   2.156 -1.0089 -0.3503  0.2739
 6425TIP3    H240835   3.567   1.908   2.165  0.8854  2.4515  1.3551
 6426TIP3   OH240836   1.525   6.287   7.963 -0.3984 -0.1495  0.2823
 6426TIP3    H140837   1.599   6.243   8.004  0.7458  0.5488 -0.9274
 6426TIP3    H240838   1.448   6.237   7.991  0.7840 -2.6986 -0.7290
 6427TIP3   OH240839   0.840   0.130   2.400  0.1101 -0.9677 -0.5238
 6427TIP3    H140840   0.896   0.061   2.362  0.3350  0.0637 -2.1819
 6427TIP3    H240841   0.754   0.088   2.409  0.2282 -1.4816 -1.5590
 6428TIP3   OH240842   2.856   1.179   0.892  0.5629  0.2199 -0.7717
 6428TIP3    H140843   2.789   1.202   0.956  0.2364  0.0686 -1.0571
 6428TIP3    H240844   2.926   1.139   0.943  0.7361  1.0033 -0.3829
 6429TIP3   OH240845   2.899   1.139   7.713 -0.2811  0.0111  0.3962
 6429TIP3    H140846   2.826   1.084   7.685  0.1228 -1.5436  2.1507
 6429TIP3    H240847   2.864   1.193   7.783 -0.1214  0.4072  0.1769
 6430TIP3   OH240848   4.023   6.131   2.003 -0.4537  0.0364  0.6328
 6430TIP3    H140849   4.047   6.128   2.096  1.0765 -0.0407  0.2724
 6430TIP3    H240850   4.057   6.215   1.973 -0.9482  0.0612  0.1348
 6431TIP3   OH240851   5.259   4.792   0.316  0.0636  0.1291  0.0990
 6431TIP3    H140852   5.232   4.762   0.403  0.9825  1.6103  0.9373
 6431TIP3    H240853   5.324   4.728   0.288 -0.4508 -0.5250  0.3694
 6432TIP3   OH240854   3.498   3.391   0.488  0.0778 -0.3559 -0.3704
 6432TIP3    H140855   3.474   3.303   0.460 -0.2232 -0.9693  1.6527
 6432TIP3    H240856   3.561   3.421   0.422  0.5788 -2.2777 -0.8297
 6433TIP3   OH240857   4.990   5.050   6.408  0.9189 -0.1099  0.1313
 6433TIP3    H140858   4.922   5.117   6.404 -0.3050 -1.3587 -1.8592
 6433TIP3    H240859   5.060   5.089   6.460 -1.1616  1.3565  1.9940
 6434TIP3   OH240860   1.097   0.091   0.355 -0.4950  0.4931 -0.1596
 6434TIP3    H140861   1.089   0.166   0.414  0.0983  0.3507  0.1092
 6434TIP3    H240862   1.107   0.129   0.268  0.8842  0.7552  0.0983
 6435TIP3   OH240863   1.294   3.784   0.750 -0.5436 -0.5791 -0.3289
 6435TIP3    H140864   1.390   3.781   0.745 -0.4285 -0.9921  1.3468
 6435TIP3    H240865   1.266   3.695   0.730 -0.5386 -0.5818 -0.3239
 6436TIP3   OH240866   6.567   1.912   8.696  1.0425 -0.5642  0.1875
 6436TIP3    H140867   6.487   1.875   8.734  1.1305 -0.5835  0.3568
 6436TIP3    H240868   6.627   1.838   8.692  1.3936 -0.3388  1.0082
 6437TIP3   OH240869   5.360   5.948   7.736  0.1645  0.0164  0.4340
 6437TIP3    H140870   5.305   5.947   7.814 -0.9722  0.2105 -0.3479
 6437TIP3    H240871   5.383   5.856   7.722  0.1440 -0.0512  0.8140
 6438TIP3   OH240872   3.045   4.746   7.835 -0.3132  0.0855  0.0615
 6438TIP3    H140873   3.075   4.818   7.891 -1.8647 -0.5635  1.8581
 6438TIP3    H240874   2.957   4.772   7.809  0.0307 -0.0776 -1.3263
 6439TIP3   OH240875   3.027   5.284   7.409 -0.2405 -0.0467 -0.2035
 6439TIP3    H140876   2.999   5.247   7.325  0.6927  1.9019 -1.4241
 6439TIP3    H240877   3.090   5.352   7.386  0.6952 -0.0374  2.1410
 6440TIP3   OH240878   4.234   6.034   0.074  0.5992 -0.1765 -0.1794
 6440TIP3    H140879   4.206   5.969   0.139  1.6335 -0.8461 -0.3757
 6440TIP3    H240880   4.197   6.116   0.105 -1.0224 -0.8784 -0.0853
 6441TIP3   OH240881   3.997   5.929   1.607  0.0171 -0.0006 -0.0322
 6441TIP3    H140882   4.056   5.872   1.557 -0.8855 -1.2529  0.2836
 6441TIP3    H240883   3.994   6.010   1.557  1.4307 -0.1634 -0.4361
 6442TIP3   OH240884   0.184   1.488   6.388 -0.6094 -0.2072 -0.5545
 6442TIP3    H140885   0.204   1.508   6.297 -0.3612  0.9009 -0.2659
 6442TIP3    H240886   0.134   1.563   6.420 -2.2012 -1.3370 -0.2448
 6443TIP3   OH240887   6.804   3.899   7.023  0.1872  0.1315 -0.0614
 6443TIP3    H140888   6.869   3.870   7.087 -0.9658 -2.3290  0.1318
 6443TIP3    H240889   6.854   3.948   6.958  1.9875 -0.4558  0.8109
 6444TIP3   OH240890   6.511   5.217   7.065 -0.1841 -0.4242  0.4501
 6444TIP3    H140891   6.535   5.138   7.112  0.7179 -1.6537 -1.9207
 6444TIP3    H240892   6.594   5.263   7.051 -0.5084  0.1998  0.5028
 6445TIP3   OH240893   1.751   4.308   7.332  0.2360  0.0219 -0.7313
 6445TIP3    H140894   1.746   4.242   7.401  0.5324 -0.9445 -1.6028
 6445TIP3    H240895   1.696   4.274   7.261  1.5205 -0.0146 -1.7553
 6446TIP3   OH240896   4.732   0.437   6.833  0.4401  0.4103 -0.7814
 6446TIP3    H140897   4.759   0.524   6.865  0.2806  0.4924 -0.8713
 6446TIP3    H240898   4.745   0.379   6.908 -0.7561  0.7557 -0.2840
 6447TIP3   OH240899   3.774   6.595   7.069 -0.0893  0.2299 -0.4116
 6447TIP3    H140900   3.860   6.601   7.111  0.7851 -0.7437 -1.9710
 6447TIP3    H240901   3.720   6.659   7.116  1.0316 -0.2110  1.6095
 6448TIP3   OH240902   4.594   5.231   2.067  0.2993  0.0652 -0.4056
 6448TIP3    H140903   4.576   5.146   2.105  1.8424 -0.2274 -0.2705
 6448TIP3    H240904   4.674   5.219   2.016  0.5025  1.4053 -0.4597
 6449TIP3   OH240905   2.989   0.758   6.417 -0.1227  0.4022 -0.3693
 6449TIP3    H140906   3.068   0.729   6.372 -0.9924 -0.9910 -1.0673
 6449TIP3    H240907   2.920   0.752   6.351 -1.0361  0.4478  0.5551
 6450TIP3   OH240908   0.363   2.179   2.237 -0.3075 -0.1830 -0.5229
 6450TIP3    H140909   0.364   2.086   2.213 -0.8243 -0.9670  2.1776
 6450TIP3    H240910   0.430   2.218   2.181  2.2510 -2.8266  0.4045
 6451TIP3   OH240911   0.816   4.096   1.557 -0.1169 -0.2820  0.0824
 6451TIP3    H140912   0.895   4.076   1.607  0.9359  0.6413 -1.1532
 6451TIP3    H240913   0.801   4.189   1.571 -1.6202 -0.6453  1.1397
 6452TIP3   OH240914   0.969   2.507   0.901 -0.2485 -0.1404  0.2235
 6452TIP3    H140915   1.004   2.581   0.950 -1.7423  0.1384  0.9188
 6452TIP3    H240916   1.046   2.470   0.856  0.2612  3.0079 -1.8184
 6453TIP3   OH240917   0.435   4.096   7.669 -0.7818  0.3658 -0.6994
 6453TIP3    H140918   0.439   4.084   7.574  0.0191  0.4725 -0.6822
 6453TIP3    H240919   0.457   4.010   7.704  0.9528  0.8087 -0.6081
 6454TIP3   OH240920   5.707   6.573   7.146  0.2088  0.0281  0.1961
 6454TIP3    H140921   5.627   6.536   7.183 -0.1006  0.8688  0.3922
 6454TIP3    H240922   5.748   6.500   7.098  0.2217 -0.8723  1.5286
 6455TIP3   OH240923   2.262   0.728   0.239  0.0176 -0.2225 -0.4886
 6455TIP3    H140924   2.304   0.645   0.265  1.9560  1.1188  1.0276
 6455TIP3    H240925   2.329   0.774   0.188 -0.2209  1.2526  0.4618
 6456TIP3   OH240926   6.260   1.024   0.383 -0.1903 -0.1436  0.4222
 6456TIP3    H140927   6.255   0.929   0.371  1.8569 -0.5302  1.9965
 6456TIP3    H240928   6.345   1.048   0.344  1.2670  0.2994  3.5966
 6457TIP3   OH240929   2.410   2.697   1.529 -0.6936 -0.4815  0.0942
 6457TIP3    H140930   2.456   2.751   1.593 -0.4298 -0.2644 -0.2770
 6457TIP3    H240931   2.478   2.665   1.471 -1.0153 -0.1468 -0.4680
 6458TIP3   OH240932   2.240   0.806   7.895  0.0379 -0.1747  0.0833
 6458TIP3    H140933   2.165   0.752   7.920  1.0681 -2.3610 -1.1649
 6458TIP3    H240934   2.280   0.831   7.978 -1.2836 -0.1384  0.7332
 6459TIP3   OH240935   3.703   0.124   0.778  0.2272  0.4377  0.8642
 6459TIP3    H140936   3.675   0.188   0.713  1.1071 -1.6005 -1.7044
 6459TIP3    H240937   3.622   0.082   0.806 -0.0584  0.3798 -0.0139
 6460TIP3   OH240938   5.812   4.140   8.081 -0.1601 -0.4932 -0.8460
 6460TIP3    H140939   5.773   4.139   7.993 -1.1198  1.0417 -0.4779
 6460TIP3    H240940   5.905   4.154   8.065  0.1104 -2.7941 -1.6901
 6461TIP3   OH240941   4.635   0.433   7.498 -0.5103  0.1416 -0.2055
 6461TIP3    H140942   4.687   0.455   7.420 -1.7966  1.0962 -0.8346
 6461TIP3    H240943   4.549   0.470   7.480 -1.6278 -1.9513  0.5285
 6462TIP3   OH240944   2.570   0.278   1.395  0.2691  0.3317  0.4035
 6462TIP3    H140945   2.583   0.216   1.466 -0.4793  0.6506  0.8376
 6462TIP3    H240946   2.565   0.364   1.438 -1.9085  0.3732  0.1986
 6463TIP3   OH240947   1.593   4.820   8.154  0.3446  0.0692  0.3162
 6463TIP3    H140948   1.542   4.739   8.145 -0.7986  0.6384  1.3128
 6463TIP3    H240949   1.534   4.888   8.123  0.2843  0.8008  1.9218
 6464TIP3   OH240950   5.034   3.198   7.763  0.2960  0.1136 -0.3841
 6464TIP3    H140951   5.074   3.272   7.808 -1.2361  1.2278 -0.7708
 6464TIP3    H240952   4.940   3.210   7.775 -0.1544  0.0064 -3.0751
 6465TIP3   OH240953   3.949   0.495   6.897 -0.7148  0.2296 -0.3155
 6465TIP3    H140954   3.910   0.409   6.880 -0.7196  0.5273 -2.0184
 6465TIP3    H240955   4.038   0.476   6.927 -0.6565 -0.3880 -0.8541
 6466TIP3   OH240956   1.435   0.744   7.165 -0.5215  0.3988  0.0583
 6466TIP3    H140957   1.396   0.832   7.162 -2.1746 -0.3227 -1.1123
 6466TIP3    H240958   1.372   0.692   7.213  0.1764 -0.2968  0.2406
 6467TIP3   OH240959   3.696   4.956   0.682  0.1067 -0.4126  0.7339
 6467TIP3    H140960   3.691   4.860   0.685 -0.4884 -0.3646  1.5992
 6467TIP3    H240961   3.689   4.983   0.773 -0.1792  0.4756  0.4533
 6468TIP3   OH240962   6.360   5.278   8.115  0.3516 -0.0950  0.2130
 6468TIP3    H140963   6.315   5.344   8.168 -0.5516 -1.3732  1.1014
 6468TIP3    H240964   6.298   5.206   8.108  1.4680 -1.0401 -0.3657
 6469TIP3   OH240965   2.120   2.371   6.398 -0.2412 -0.3502  0.3665
 6469TIP3    H140966   2.180   2.305   6.432  0.0494 -0.6031 -0.6065
 6469TIP3    H240967   2.048   2.321   6.361 -0.3589 -0.0940  0.2466
 6470TIP3   OH240968   6.355   5.883   0.459 -0.5738  0.3879  0.0677
 6470TIP3    H140969   6.380   5.976   0.463 -0.6611  0.4015  0.3279
 6470TIP3    H240970   6.347   5.865   0.366 -2.4814  1.1859  0.0188
 6471TIP3   OH240971   5.411   4.981   2.656  0.0247  0.9446 -0.1316
 6471TIP3    H140972   5.405   4.891   2.687 -0.0177  1.0739  0.2499
 6471TIP3    H240973   5.432   4.974   2.563  0.4212  0.5474 -0.0115
 6472TIP3   OH240974   6.391   4.526   0.460  0.6586  0.6936  0.2595
 6472TIP3    H140975   6.450   4.465   0.505 -1.0571 -0.5239  1.0006
 6472TIP3    H240976   6.355   4.475   0.388 -0.7353  0.8284  0.8272
 6473TIP3   OH240977   3.972   4.929   2.050 -0.3490  0.2125 -0.4096
 6473TIP3    H140978   4.042   4.961   2.107  0.2612  2.0687 -2.0603
 6473TIP3    H240979   3.988   4.835   2.041  1.4116  0.4525 -0.0364
 6474TIP3   OH240980   0.753   5.979   8.235  0.1696 -0.2529 -0.1152
 6474TIP3    H140981   0.840   5.989   8.273  0.2106 -0.0236 -0.2699
 6474TIP3    H240982   0.694   6.022   8.297  0.3869  1.3682 -0.9744
 6475TIP3   OH240983   1.649   5.084   0.906  0.4551  0.5278  0.5601
 6475TIP3    H140984   1.604   5.085   0.991  0.9624  1.8986  0.8485
 6475TIP3    H240985   1.741   5.067   0.928  0.4863  0.2564  0.2235
 6476TIP3   OH240986   0.139   6.436   8.190 -0.1839  0.6890  0.9633
 6476TIP3    H140987   0.047   6.428   8.214 -0.5042  1.9723  0.2230
 6476TIP3    H240988   0.147   6.523   8.153  1.3280  0.5795  0.9693
 6477TIP3   OH240989   1.319   3.556   8.264  0.0917  0.0854  0.0641
 6477TIP3    H140990   1.376   3.525   8.194  0.8721 -0.9362  1.1117
 6477TIP3    H240991   1.286   3.640   8.233  3.5245  1.5953  0.0871
 6478TIP3   OH240992   0.869   6.825   8.592  0.1206 -0.3747 -0.0238
 6478TIP3    H140993   0.781   6.849   8.565  0.3233 -0.4455 -0.7726
 6478TIP3    H240994   0.923   6.901   8.568  0.5114 -0.9345 -1.0099
 6479TIP3   OH240995   5.030   5.502   7.899  0.0728  0.0642  0.0019
 6479TIP3    H140996   5.040   5.551   7.817  2.0689 -0.7833 -0.3199
 6479TIP3    H240997   5.065   5.562   7.965  0.0615  0.0947 -0.0196
 6480TIP3   OH240998   0.110   3.400   6.805  0.3221 -0.2194 -0.3444
 6480TIP3    H140999   0.123   3.433   6.716  1.8431 -1.0810 -0.4934
 6480TIP3    H241000   0.194   3.416   6.849  0.7315 -2.6777 -0.0729
 6481TIP3   OH241001   2.067   6.172   6.968 -0.6457  0.0587 -0.4396
 6481TIP3    H141002   2.108   6.088   6.946  0.5918  0.7073 -0.7075
 6481TIP3    H241003   2.037   6.206   6.884 -0.4825  0.2140 -0.4363
 6482TIP3   OH241004   5.505   2.595   0.688  0.7271 -0.4856 -0.0756
 6482TIP3    H141005   5.557   2.633   0.617  0.6298 -0.5622 -0.1894
 6482TIP3    H241006   5.454   2.668   0.722  0.7605 -0.4520 -0.0972
 6483TIP3   OH241007   4.899   2.643   1.498  0.1488  0.3437  0.4887
 6483TIP3    H141008   4.937   2.720   1.540 -0.2982  0.0976  1.3845
 6483TIP3    H241009   4.806   2.665   1.487  0.1963  0.2736 -0.0573
 6484TIP3   OH241010   0.980   3.134   2.263 -0.1187 -0.4208 -0.1714
 6484TIP3    H141011   0.933   3.196   2.207  0.4882 -0.1415 -0.3713
 6484TIP3    H241012   1.072   3.144   2.240  0.0652 -0.8521  0.3359
 6485TIP3   OH241013   1.752   6.590   6.657 -0.0144  0.9102 -0.6609
 6485TIP3    H141014   1.685   6.655   6.676  0.3685  1.2813 -0.5588
 6485TIP3    H241015   1.794   6.621   6.576  1.0719  1.5286  0.1228
 6486TIP3   OH241016   6.625   2.747   7.998  0.5779 -0.7571 -0.5352
 6486TIP3    H141017   6.618   2.829   8.047  2.1902 -1.4764  1.0331
 6486TIP3    H241018   6.559   2.754   7.930 -0.4978  1.1183  0.6089
 6487TIP3   OH241019   6.526   1.259   7.800  0.5082  0.5007  0.2629
 6487TIP3    H141020   6.555   1.228   7.886  0.6044 -0.1858 -0.0078
 6487TIP3    H241021   6.599   1.312   7.769  0.5735  0.5580  0.5050
 6488TIP3   OH241022   2.374   1.337   0.180  0.0131  0.0315 -0.2126
 6488TIP3    H141023   2.404   1.426   0.161  0.5269 -0.5065 -2.1564
 6488TIP3    H241024   2.427   1.309   0.255 -0.8215  1.6549  1.0631
 6489TIP3   OH241025   6.731   6.486   8.256  0.4267  0.4073  0.5749
 6489TIP3    H141026   6.719   6.525   8.342  0.7188  0.5889  0.5349
 6489TIP3    H241027   6.698   6.397   8.265 -2.0216  1.1896  0.1832
 6490TIP3   OH241028   6.255   1.607   1.386 -0.2050 -0.3317  0.2197
 6490TIP3    H141029   6.196   1.546   1.342 -0.0124 -0.3800  0.0276
 6490TIP3    H241030   6.215   1.621   1.472 -1.6008  1.2391 -0.6305
 6491TIP3   OH241031   0.558   1.903   6.766 -0.4138 -0.0883  0.4801
 6491TIP3    H141032   0.615   1.975   6.736  0.5097  0.3298  2.9906
 6491TIP3    H241033   0.529   1.861   6.685  0.9624  1.6216 -1.0098
 6492TIP3   OH241034   0.060   4.626   0.677  0.2948  0.1580  0.1429
 6492TIP3    H141035  -0.035   4.637   0.670  0.4798  0.8051 -1.9587
 6492TIP3    H241036   0.095   4.715   0.678  0.9146 -0.0827  0.4610
 6493TIP3   OH241037   1.372   3.774   0.406 -0.0335 -0.4722 -0.0973
 6493TIP3    H141038   1.331   3.816   0.331  0.6415 -0.0265 -0.2210
 6493TIP3    H241039   1.301   3.726   0.448 -0.2893 -1.3350 -1.4299
 6494TIP3   OH241040   6.845   5.482   0.652  0.8515  0.0004 -0.0877
 6494TIP3    H141041   6.776   5.505   0.715  0.8503  0.1447 -0.1426
 6494TIP3    H241042   6.925   5.514   0.692  0.7747  0.6677 -0.4573
 6495TIP3   OH241043   2.040   4.361   1.234 -0.2312 -0.4498 -0.1068
 6495TIP3    H141044   2.042   4.457   1.230 -2.1788 -0.3872 -1.1546
 6495TIP3    H241045   1.998   4.342   1.318  1.1488 -0.4552  0.6124
 6496TIP3   OH241046   5.347   1.713   0.846  0.8994 -0.4623  0.2918
 6496TIP3    H141047   5.278   1.651   0.870  1.8488 -1.1415  1.3185
 6496TIP3    H241048   5.308   1.799   0.862 -1.1364 -0.5949 -2.9491
 6497TIP3   OH241049   1.547   1.212   7.484  0.2350  0.1196  0.2648
 6497TIP3    H141050   1.533   1.284   7.545  0.4170  0.5373 -0.1795
 6497TIP3    H241051   1.638   1.186   7.499  1.6198  2.7771 -2.4482
 6498TIP3   OH241052   3.868   2.011   6.831 -0.1719 -0.0236 -0.4560
 6498TIP3    H141053   3.834   2.101   6.832 -0.8436 -0.2131 -2.0762
 6498TIP3    H241054   3.789   1.957   6.823  0.2661 -0.7267 -0.0308
 6499TIP3   OH241055   5.562   4.984   7.943 -0.0864 -0.9138  0.0250
 6499TIP3    H141056   5.480   4.990   7.992 -0.4603 -0.9866 -0.5908
 6499TIP3    H241057   5.544   5.025   7.859  0.8842  0.2407  0.3437
 6500TIP3   OH241058   5.083   2.199   8.400  0.7388  0.7159 -0.3641
 6500TIP3    H141059   5.008   2.155   8.439  0.4909  1.7384  0.3499
 6500TIP3    H241060   5.160   2.157   8.439  0.5487 -0.4028 -1.1773
 6501TIP3   OH241061   1.516   3.663   0.190 -0.2147 -0.0319 -0.2676
 6501TIP3    H141062   1.540   3.738   0.136  0.9446 -0.2389 -0.0627
 6501TIP3    H241063   1.500   3.700   0.277  0.1502  0.0032 -0.2156
 6502TIP3   OH241064   4.911   6.531   0.279 -0.5347 -0.2181 -0.2857
 6502TIP3    H141065   4.885   6.562   0.192 -0.4503  1.0282  0.1088
 6502TIP3    H241066   4.927   6.611   0.328 -0.1590 -0.9205  0.7556
 6503TIP3   OH241067   0.500   4.769   1.170 -0.5614  0.4233 -0.4949
 6503TIP3    H141068   0.529   4.692   1.121  0.0564 -0.1728  0.7417
 6503TIP3    H241069   0.567   4.780   1.237 -0.0323  2.7423 -1.3212
 6504TIP3   OH241070   0.624   1.545   0.665  0.3231  0.0201 -0.0625
 6504TIP3    H141071   0.624   1.636   0.635 -2.4118  0.3239  0.5205
 6504TIP3    H241072   0.671   1.497   0.598 -0.0515  1.5796 -1.5165
 6505TIP3   OH241073   3.725   1.324   0.046  0.4280  0.3797 -0.0527
 6505TIP3    H141074   3.726   1.400   0.103 -0.5547  1.0059 -0.8221
 6505TIP3    H241075   3.817   1.305   0.027  0.6820  1.2520  0.3086
 6506TIP3   OH241076   3.038   0.906   0.541  0.1743  0.2019  0.0868
 6506TIP3    H141077   2.952   0.947   0.550 -1.0003 -2.3922  1.9058
 6506TIP3    H241078   3.030   0.849   0.465  0.1086 -0.3771  0.5204
 6507TIP3   OH241079   4.858   4.035   8.326 -0.0857  0.4603 -0.4117
 6507TIP3    H141080   4.805   3.964   8.287  0.3340 -1.0956  1.6999
 6507TIP3    H241081   4.948   4.004   8.320  0.0226  0.3442  1.3831
 6508TIP3   OH241082   3.792   4.623   8.068  0.0809  0.3456  0.2618
 6508TIP3    H141083   3.800   4.678   7.990  0.9349 -0.5472 -0.3155
 6508TIP3    H241084   3.808   4.682   8.141  1.8619  0.7074 -0.3774
 6509TIP3   OH241085   0.417   3.468   6.681  0.1685  0.0177  0.0678
 6509TIP3    H141086   0.486   3.527   6.651  0.2339  0.6750  1.4396
 6509TIP3    H241087   0.405   3.489   6.774 -1.6705 -0.2803 -0.0564
 6510TIP3   OH241088   0.645   2.208   7.772  0.6565  0.1153  0.0349
 6510TIP3    H141089   0.557   2.178   7.749  0.8679  0.4902 -1.3521
 6510TIP3    H241090   0.633   2.265   7.848 -0.1412 -0.7654  0.5938
 6511TIP3   OH241091   5.750   1.452   5.816 -0.5267 -0.1049 -0.2512
 6511TIP3    H141092   5.737   1.537   5.858  2.1373 -0.2021  0.9911
 6511TIP3    H241093   5.686   1.394   5.858 -1.2578  0.9292  0.0885
 6512TIP3   OH241094   4.785   0.802   1.626 -0.3835  0.1456 -0.2843
 6512TIP3    H141095   4.702   0.792   1.579 -0.9749 -1.3854  0.9972
 6512TIP3    H241096   4.779   0.739   1.698  1.6490  0.4450  0.1911
 6513TIP3   OH241097   3.176   4.547   0.887  0.0622 -0.0372 -0.0515
 6513TIP3    H141098   3.092   4.508   0.863 -0.4364  2.1633 -2.2745
 6513TIP3    H241099   3.240   4.497   0.837 -0.6895  2.4786 -3.9602
 6514TIP3   OH241100   6.849   4.629   0.410 -0.1018 -0.4283 -0.1762
 6514TIP3    H141101   6.936   4.597   0.434 -0.4460 -1.7293 -0.5756
 6514TIP3    H241102   6.826   4.690   0.480  0.3288 -1.5541  0.9997
 6515TIP3   OH241103   0.725   0.235   8.444 -0.6464 -0.0551 -1.0224
 6515TIP3    H141104   0.817   0.251   8.467 -1.3320  0.5946  1.7014
 6515TIP3    H241105   0.729   0.171   8.373  1.9094 -0.1491 -0.9116
 6516TIP3   OH241106   1.297   0.047   7.276 -0.0253 -0.1613  0.3124
 6516TIP3    H141107   1.317  -0.044   7.300  0.4044 -0.4479 -1.0557
 6516TIP3    H241108   1.369   0.098   7.314 -0.0966 -0.4199  0.8087
 6517TIP3   OH241109   3.396   3.133   2.477 -0.2325  0.1216  0.2728
 6517TIP3    H141110   3.482   3.110   2.512 -0.6354  1.4389  2.2444
 6517TIP3    H241111   3.336   3.071   2.518 -0.3158 -0.6270 -0.9042
 6518TIP3   OH241112   1.493   4.018   6.790 -0.1331  0.3709  0.1053
 6518TIP3    H141113   1.552   3.979   6.726  0.6066  1.1059  0.3118
 6518TIP3    H241114   1.531   3.994   6.875 -0.0317  0.9861  0.2380
 6519TIP3   OH241115   5.560   5.710   1.450  0.3300 -0.0998 -0.0036
 6519TIP3    H141116   5.631   5.757   1.494  0.5250 -1.2339  0.9701
 6519TIP3    H241117   5.585   5.709   1.358  1.6643 -0.5706  0.3292
 6520TIP3   OH241118   1.141   1.425   1.641 -0.1048  0.0924 -0.2912
 6520TIP3    H141119   1.113   1.335   1.655  3.0638 -0.7728  1.3010
 6520TIP3    H241120   1.174   1.427   1.551 -0.5633 -0.1899 -0.4693
 6521TIP3   OH241121   2.501   3.041   7.385  0.3484  0.1749  0.7524
 6521TIP3    H141122   2.581   2.993   7.363  0.3946 -0.0515  1.3912
 6521TIP3    H241123   2.533   3.120   7.429  0.3089  1.1979 -0.9762
 6522TIP3   OH241124   3.249   6.650   7.129 -0.5300  0.5262 -0.2902
 6522TIP3    H141125   3.288   6.701   7.200 -0.0808  0.9472 -0.8269
 6522TIP3    H241126   3.243   6.561   7.163 -1.1174  0.8846  0.5824
 6523TIP3   OH241127   0.198   6.200   1.801 -0.4747 -0.5047  0.6297
 6523TIP3    H141128   0.234   6.263   1.864 -2.3012  0.3845  0.8841
 6523TIP3    H241129   0.223   6.114   1.835  3.0388 -0.0092 -0.3049
 6524TIP3   OH241130   3.016   6.733   7.854 -0.1566  0.2502  0.4715
 6524TIP3    H141131   3.049   6.768   7.937  0.4093 -0.5579  0.5935
 6524TIP3    H241132   2.921   6.738   7.863 -0.0990  0.6808  0.9410
 6525TIP3   OH241133   0.872   1.268   7.116  0.3170  0.1458  0.8355
 6525TIP3    H141134   0.829   1.303   7.038  2.0089  0.4079 -0.0394
 6525TIP3    H241135   0.822   1.191   7.140  0.3235 -0.5020 -1.1194
 6526TIP3   OH241136   2.071   3.915   8.200  0.2443  0.1937  0.2920
 6526TIP3    H141137   2.044   3.880   8.115  0.2600  0.5113  0.1545
 6526TIP3    H241138   2.154   3.872   8.218 -0.7374 -1.4394  1.1147
 6527TIP3   OH241139   1.150   4.585   7.183 -0.1541  0.9709 -0.4303
 6527TIP3    H141140   1.233   4.599   7.138  0.7200 -0.7824  0.5371
 6527TIP3    H241141   1.097   4.534   7.122  0.7598 -0.7749  0.1680
 6528TIP3   OH241142   3.921   2.596   8.207  0.0400  0.1892 -0.0863
 6528TIP3    H141143   3.857   2.524   8.204 -1.6345  1.6496 -1.4893
 6528TIP3    H241144   3.986   2.573   8.141 -0.3367 -0.1424 -0.3457
 6529TIP3   OH241145   5.180   0.364   0.112 -0.1431  0.0409 -0.5253
 6529TIP3    H141146   5.138   0.286   0.075 -1.7373  0.9144 -0.6295
 6529TIP3    H241147   5.109   0.412   0.154  0.7934  1.4701 -0.5125
 6530TIP3   OH241148   6.091   0.652   0.109 -0.5288 -0.0179  0.2537
 6530TIP3    H141149   6.082   0.562   0.141 -0.4760 -0.0197  0.2639
 6530TIP3    H241150   6.057   0.648   0.019  0.4001 -0.2743 -0.1003
 6531TIP3   OH241151   0.434   4.891   0.800 -0.5599 -0.4269  0.6300
 6531TIP3    H141152   0.445   4.983   0.825 -1.1365 -0.0095 -0.5468
 6531TIP3    H241153   0.382   4.895   0.719 -2.4414 -1.8798  1.6980
 6532TIP3   OH241154   6.694   4.067   7.223  0.5123 -0.0546 -0.1744
 6532TIP3    H141155   6.767   4.125   7.242  0.1927  0.5167 -0.6702
 6532TIP3    H241156   6.720   4.020   7.144  1.0176 -1.0307  0.5414
 6533TIP3   OH241157   1.391   5.752   8.349  0.6718  0.3758 -0.1891
 6533TIP3    H141158   1.298   5.730   8.350  0.4173  1.4108 -0.4448
 6533TIP3    H241159   1.431   5.689   8.410 -0.0177 -0.7801 -0.9049
 6534TIP3   OH241160   3.920   0.285   8.537 -0.7488  0.4731 -0.5773
 6534TIP3    H141161   3.835   0.285   8.581 -1.2660 -1.2035 -1.4891
 6534TIP3    H241162   3.974   0.225   8.588 -0.3311  0.9909 -0.4052
 6535TIP3   OH241163   4.895   1.056   6.547  0.3115 -0.7297 -0.3806
 6535TIP3    H141164   4.955   1.001   6.597 -0.3948  2.0190  4.0677
 6535TIP3    H241165   4.809   1.037   6.585 -0.0499  2.6376  0.8702
 6536TIP3   OH241166   4.644   0.685   2.275 -0.2652 -0.4170 -0.1401
 6536TIP3    H141167   4.597   0.640   2.345 -0.8414  0.7284  0.2246
 6536TIP3    H241168   4.726   0.714   2.315  0.2113 -1.3049 -0.4373
 6537TIP3   OH241169   4.788   1.430   1.546 -0.0527 -0.0065 -0.0975
 6537TIP3    H141170   4.723   1.373   1.588  0.9341 -0.6152  0.6237
 6537TIP3    H241171   4.831   1.373   1.482 -0.2777  0.4251 -0.6435
 6538TIP3   OH241172   3.405   3.357   8.675 -0.1087 -0.2774 -0.3197
 6538TIP3    H141173   3.344   3.286   8.655  0.3837 -1.1123  1.0567
 6538TIP3    H241174   3.477   3.345   8.614  0.9921 -2.3014  1.2638
 6539TIP3   OH241175   6.811   0.232   6.626 -0.2214  0.1470 -0.2347
 6539TIP3    H141176   6.794   0.176   6.701 -2.0006  1.1416  0.1636
 6539TIP3    H241177   6.894   0.200   6.590  0.8966 -0.1340  2.3426
 6540TIP3   OH241178   1.778   0.518   1.448 -0.0876 -0.0639  0.1305
 6540TIP3    H141179   1.746   0.587   1.506  1.9630  0.6712  0.4912
 6540TIP3    H241180   1.731   0.439   1.475 -1.3707  0.8846  0.7401
 6541TIP3   OH241181   5.199   1.391   1.524  0.0120  0.4816 -0.7369
 6541TIP3    H141182   5.267   1.385   1.592 -0.2276  1.7020 -0.3760
 6541TIP3    H241183   5.154   1.307   1.529 -0.5164  0.8272  1.1681
 6542TIP3   OH241184   3.520   1.634   1.170 -0.2973 -0.0476  0.7244
 6542TIP3    H141185   3.504   1.710   1.225 -1.1390 -0.3941  0.9759
 6542TIP3    H241186   3.441   1.580   1.180 -0.2240 -0.3807 -0.3861
 6543TIP3   OH241187   6.783   6.220   1.788 -0.5723  0.2289  0.6470
 6543TIP3    H141188   6.877   6.202   1.788 -0.4320  0.8346 -0.8938
 6543TIP3    H241189   6.768   6.268   1.707 -1.7304  2.6782  2.1803
 6544TIP3   OH241190   1.708   2.964   1.561  0.2913  0.2855 -0.1720
 6544TIP3    H141191   1.740   2.940   1.648  0.7174 -0.6705 -0.5807
 6544TIP3    H241192   1.773   3.028   1.529 -0.5058  1.5658  0.6622
 6545TIP3   OH241193   4.488   5.762   8.074 -0.4066  0.1133 -0.1632
 6545TIP3    H141194   4.542   5.684   8.060  0.1235  0.9938 -4.7798
 6545TIP3    H241195   4.399   5.732   8.061 -0.2165  0.1150 -1.7296
 6546TIP3   OH241196   2.062   1.953   1.362  0.5918 -0.1573  0.3652
 6546TIP3    H141197   2.098   2.020   1.304 -0.0572  0.0909  0.2374
 6546TIP3    H241198   2.025   2.002   1.435 -1.6417 -0.1792 -0.6564
 6547TIP3   OH241199   0.965   1.057   8.492 -0.2858  0.2466  0.1525
 6547TIP3    H141200   0.900   1.077   8.425  1.4044 -0.2923 -1.7574
 6547TIP3    H241201   0.914   1.040   8.571 -2.3568  1.1392 -0.9162
 6548TIP3   OH241202   0.810   6.463   8.654  0.0461 -0.4317  0.3739
 6548TIP3    H141203   0.726   6.420   8.641  1.2151 -2.6754 -0.4264
 6548TIP3    H241204   0.833   6.498   8.568  0.4660 -0.9090  0.2881
 6549TIP3   OH241205   4.217   2.160   0.735 -0.5743 -0.0990 -0.0346
 6549TIP3    H141206   4.127   2.134   0.755 -0.2219 -1.1169  0.3187
 6549TIP3    H241207   4.245   2.100   0.666  0.0621 -0.2647  0.3582
 6550TIP3   OH241208   3.394   3.420   7.574 -0.3978  0.6741  0.1438
 6550TIP3    H141209   3.301   3.398   7.583 -0.8493  2.4928  0.4457
 6550TIP3    H241210   3.403   3.503   7.621  0.9077  1.6205 -1.6487
 6551TIP3   OH241211   1.606   3.237   7.559  0.0018  0.4282 -0.0519
 6551TIP3    H141212   1.511   3.250   7.567 -0.1214  0.6440 -1.5342
 6551TIP3    H241213   1.615   3.151   7.519  0.4254  0.3818  0.1483
 6552TIP3   OH241214   5.887   2.122   1.435 -0.0166  0.0765  0.0522
 6552TIP3    H141215   5.861   2.121   1.527  1.3653 -1.6214  0.4779
 6552TIP3    H241216   5.976   2.088   1.435  0.3088  0.7903 -1.8580
 6553TIP3   OH241217   0.521   2.371   1.502  0.6918  0.1909 -0.1632
 6553TIP3    H141218   0.557   2.303   1.559 -2.4202  0.4066  2.3697
 6553TIP3    H241219   0.481   2.434   1.563 -1.8212  1.0720 -2.5144
 6554TIP3   OH241220   2.716   1.834   7.958 -0.3709 -0.1432  0.3243
 6554TIP3    H141221   2.627   1.824   7.990  0.0411  1.7658  2.2482
 6554TIP3    H241222   2.707   1.843   7.863 -1.6757 -5.4898 -0.4030
 6555TIP3   OH241223   5.254   2.158   0.586  0.7926  0.7060  0.6680
 6555TIP3    H141224   5.196   2.206   0.528 -0.2242  2.7173  3.1380
 6555TIP3    H241225   5.197   2.094   0.630  1.8314 -1.8377 -1.4472
 6556TIP3   OH241226   6.630   5.660   6.967  0.1588  0.1530  0.5387
 6556TIP3    H141227   6.689   5.734   6.977  0.5676 -0.2353  1.0880
 6556TIP3    H241228   6.637   5.613   7.051 -0.4914 -0.2093  0.3910
 6557TIP3   OH241229   5.814   6.196   8.666  0.0554 -0.3207 -0.0517
 6557TIP3    H141230   5.896   6.148   8.669  0.3626  0.2179  0.2731
 6557TIP3    H241231   5.750   6.133   8.633  0.9477 -0.2662 -2.0252
 6558TIP3   OH241232   2.962   1.830   0.923  0.8630 -0.3501  0.4053
 6558TIP3    H141233   2.913   1.749   0.907  1.1401 -0.4486  0.0491
 6558TIP3    H241234   2.921   1.895   0.865  1.5786 -0.5984 -0.4079
 6559TIP3   OH241235   4.906   3.354   8.168 -0.0403  1.0837  0.2544
 6559TIP3    H141236   4.903   3.346   8.072 -0.6737 -0.1521  0.3569
 6559TIP3    H241237   4.880   3.268   8.200 -0.6476  1.7220  1.5486
 6560TIP3   OH241238   2.291   1.823   7.783  0.4202 -0.3925 -0.1034
 6560TIP3    H141239   2.245   1.905   7.762 -2.2473 -1.6661  0.3858
 6560TIP3    H241240   2.299   1.779   7.699  0.9889 -0.0781 -0.2208
 6561TIP3   OH241241   3.065   3.103   2.390 -0.2938  0.0902 -0.1567
 6561TIP3    H141242   3.087   3.118   2.482  0.6179 -0.4311 -0.2826
 6561TIP3    H241243   3.049   3.191   2.355 -1.2889  0.2514  0.6408
 6562TIP3   OH241244   0.789   0.512   0.879 -0.2200  0.2517  0.2163
 6562TIP3    H141245   0.846   0.454   0.930 -0.8129 -0.3359  0.2265
 6562TIP3    H241246   0.820   0.503   0.789  0.7114  1.1500  0.4231
 6563TIP3   OH241247   1.193   1.664   1.782 -0.3617  0.0087 -0.1155
 6563TIP3    H141248   1.106   1.704   1.780 -0.1231  0.5361 -0.3887
 6563TIP3    H241249   1.180   1.575   1.751 -0.5401  0.6408 -1.9922
 6564TIP3   OH241250   0.400   1.547   7.032 -0.4878  0.5996 -0.2519
 6564TIP3    H141251   0.481   1.519   7.075 -0.4402  0.9347 -0.1157
 6564TIP3    H241252   0.422   1.632   6.994 -1.1494  1.3538  0.9552
 6565TIP3   OH241253   1.084   2.584   8.067 -0.5400  0.2353  0.0209
 6565TIP3    H141254   1.177   2.568   8.085 -1.1906 -1.4635  2.1831
 6565TIP3    H241255   1.054   2.504   8.023 -0.9165  0.9752 -1.1276
 6566TIP3   OH241256   4.974   1.409   6.367 -0.4277 -0.1960  0.2141
 6566TIP3    H141257   4.880   1.414   6.382 -0.6455  2.0522 -1.3551
 6566TIP3    H241258   4.989   1.319   6.339 -2.3963 -0.2197 -0.9774
 6567TIP3   OH241259   5.007   1.319   8.093 -0.3506  0.1146  0.4398
 6567TIP3    H141260   5.052   1.377   8.032  0.3450 -0.1510  0.6941
 6567TIP3    H241261   4.975   1.378   8.162 -0.6605  0.3441  0.1005
 6568TIP3   OH241262   4.784   0.268   8.287  0.1140 -0.3737 -0.4269
 6568TIP3    H141263   4.696   0.238   8.311 -0.1628 -0.0285 -0.9778
 6568TIP3    H241264   4.769   0.343   8.229  0.7885  0.3498  0.3015
 6569TIP3   OH241265   4.173   6.649   2.235  0.0754 -0.0651  0.1073
 6569TIP3    H141266   4.176   6.742   2.212  1.2905  0.0500  0.6269
 6569TIP3    H241267   4.209   6.646   2.324  2.4198 -1.2683 -0.7985
 6570TIP3   OH241268   0.889   5.499   7.702  0.0940  0.3404 -0.0058
 6570TIP3    H141269   0.895   5.593   7.718  0.0317  0.1488  1.2229
 6570TIP3    H241270   0.929   5.487   7.616 -0.1157  1.5183 -0.2830
 6571TIP3   OH241271   1.090   0.226   2.022 -0.0573 -0.1543  0.0959
 6571TIP3    H141272   1.083   0.291   2.092  0.2489  0.6434 -0.6029
 6571TIP3    H241273   1.164   0.171   2.048  0.8444  0.8972 -0.2004
 6572TIP3   OH241274   1.685   6.784   1.676  0.3296 -0.0933 -0.0987
 6572TIP3    H141275   1.617   6.785   1.609  0.8367 -2.0093 -0.7100
 6572TIP3    H241276   1.743   6.712   1.651 -0.3038 -1.9822  3.2221
 6573TIP3   OH241277   3.889   3.039   1.757 -0.4099  0.3620 -0.1213
 6573TIP3    H141278   3.854   2.959   1.719 -0.5860  0.1382  0.4993
 6573TIP3    H241279   3.867   3.033   1.850  2.6538 -0.5600  0.6602
 6574TIP3   OH241280   2.118   6.616   6.660  0.4749  0.3378 -0.3915
 6574TIP3    H141281   2.041   6.620   6.603  0.0119  0.7758  0.2442
 6574TIP3    H241282   2.147   6.525   6.655  0.6967  0.4620 -1.6361
 6575TIP3   OH241283   6.853   3.805   8.431  0.1125  0.3635  0.5386
 6575TIP3    H141284   6.771   3.778   8.388 -0.3247 -0.6085  1.9075
 6575TIP3    H241285   6.830   3.812   8.524  0.9921  2.5291  0.6589
 6576TIP3   OH241286   0.838   0.830   6.482  0.5364  0.6548  0.2046
 6576TIP3    H141287   0.765   0.859   6.427 -0.6402  0.0762  1.3892
 6576TIP3    H241288   0.888   0.910   6.501  0.1702  1.0729 -0.5664
 6577TIP3   OH241289   4.127   2.118   8.607 -0.1498  0.1338  0.9260
 6577TIP3    H141290   4.073   2.190   8.575 -3.1613 -1.1430  2.6937
 6577TIP3    H241291   4.162   2.078   8.527 -0.3158  2.0945 -0.2084
 6578TIP3   OH241292   3.507   3.948   1.192 -0.7475 -0.4010  0.0440
 6578TIP3    H141293   3.534   4.038   1.213  0.0178 -0.4739 -0.5607
 6578TIP3    H241294   3.588   3.898   1.193 -0.9760 -0.8222 -0.8828
 6579TIP3   OH241295   3.234   0.030   2.242 -0.0794 -0.0186 -0.2592
 6579TIP3    H141296   3.243  -0.057   2.280  0.1283  0.3323  0.5115
 6579TIP3    H241297   3.323   0.055   2.217 -0.3323 -0.6257 -1.8683
 6580TIP3   OH241298   2.307   4.581   7.587  0.0565 -0.0289 -0.9004
 6580TIP3    H141299   2.254   4.537   7.521  0.3007 -1.4603 -0.1694
 6580TIP3    H241300   2.390   4.599   7.543  0.0839 -0.6292 -1.0986
 6581TIP3   OH241301   1.315   5.612   1.553 -0.2904  0.6116 -0.2257
 6581TIP3    H141302   1.256   5.680   1.522  0.4756  1.5155  0.2663
 6581TIP3    H241303   1.382   5.658   1.603  1.6618 -0.2005 -1.9188
 6582TIP3   OH241304   2.586   5.414   8.060  0.0533 -0.2730  0.5832
 6582TIP3    H141305   2.677   5.434   8.083 -0.4755  1.0946  1.6720
 6582TIP3    H241306   2.565   5.476   7.990 -0.5435  0.6763  1.5651
 6583TIP3   OH241307   4.726   0.196   1.310  0.4257 -0.4542 -0.1286
 6583TIP3    H141308   4.800   0.257   1.319 -0.1067  0.4716 -1.7070
 6583TIP3    H241309   4.764   0.117   1.273  0.8671 -0.5497  0.5094
 6584TIP3   OH241310   2.434   5.108   2.200  0.5954 -0.1676 -0.2636
 6584TIP3    H141311   2.512   5.122   2.254  1.1873 -0.9907 -0.8866
 6584TIP3    H241312   2.456   5.034   2.144 -0.7674 -0.6227 -0.2246
 6585TIP3   OH241313   2.434   4.149   0.609 -0.4600 -0.2812  0.1262
 6585TIP3    H141314   2.529   4.142   0.614 -0.5825 -2.3975  0.1557
 6585TIP3    H241315   2.415   4.149   0.515 -0.3955  1.4830  0.0764
 6586TIP3   OH241316   0.891   2.770   0.432  0.4483  0.1486  0.3933
 6586TIP3    H141317   0.968   2.757   0.377  0.7069 -0.8091  0.9693
 6586TIP3    H241318   0.818   2.739   0.378  0.9008 -2.6996  1.2340
 6587TIP3   OH241319   1.845   4.124   6.786  0.1744 -0.2397  0.7654
 6587TIP3    H141320   1.776   4.147   6.724 -0.5193  1.6437  2.1367
 6587TIP3    H241321   1.823   4.173   6.865  3.0298  0.3649  1.2921
 6588TIP3   OH241322   0.126   3.021   8.086  0.2888 -0.4863 -0.6649
 6588TIP3    H141323   0.187   2.991   8.019  1.2951  1.6777 -0.7714
 6588TIP3    H241324   0.174   3.013   8.169  0.0908 -0.3966 -0.5391
 6589TIP3   OH241325   0.929   6.631   0.119 -0.0725 -0.0496  0.4115
 6589TIP3    H141326   0.979   6.697   0.072  0.1559 -0.0413  0.6642
 6589TIP3    H241327   0.876   6.588   0.052 -0.4655  0.6122  0.2948
 6590TIP3   OH241328   4.573   0.236   2.466  0.2711  0.1972  0.0733
 6590TIP3    H141329   4.639   0.196   2.409  0.7798  1.5783 -0.3506
 6590TIP3    H241330   4.491   0.196   2.439  0.5887  0.3902 -1.2440
 6591TIP3   OH241331   6.311   2.800   0.088 -0.3473  0.2473 -0.3534
 6591TIP3    H141332   6.263   2.880   0.066 -0.1373 -0.0404 -1.9628
 6591TIP3    H241333   6.387   2.801   0.030 -0.2590 -1.0334 -0.2763
 6592TIP3   OH241334   1.587   2.017   0.570  0.6399 -0.1100 -0.1115
 6592TIP3    H141335   1.544   2.052   0.648 -1.1162 -0.6718 -0.7805
 6592TIP3    H241336   1.645   1.949   0.604  0.1655 -0.1112  0.7411
 6593TIP3   OH241337   6.297   3.806   7.548 -0.0479 -0.1143 -0.2968
 6593TIP3    H141338   6.249   3.807   7.631  1.0841  1.6583  0.3821
 6593TIP3    H241339   6.383   3.769   7.571 -0.4701 -1.7464 -1.1788
 6594TIP3   OH241340   4.856   0.913   1.132  0.2653 -0.3565 -0.7071
 6594TIP3    H141341   4.853   0.822   1.102  1.6764 -0.1316 -1.6157
 6594TIP3    H241342   4.911   0.911   1.210  2.4471  0.0401 -2.1664
 6595TIP3   OH241343   5.137   6.401   1.103  0.7787  0.2009  0.1461
 6595TIP3    H141344   5.066   6.350   1.142 -0.8636  1.1819 -1.3987
 6595TIP3    H241345   5.184   6.339   1.047  1.1586 -0.4406  1.1375
 6596TIP3   OH241346   3.972   2.472   0.714  0.6181 -0.4141  0.2496
 6596TIP3    H141347   3.911   2.474   0.640  0.2340  3.6146  0.4382
 6596TIP3    H241348   4.054   2.439   0.676  0.7261  2.4207 -2.4063
 6597TIP3   OH241349   5.136   0.246   8.169  1.2455 -0.5096 -0.3417
 6597TIP3    H141350   5.054   0.267   8.125  0.8672 -0.6306  0.3077
 6597TIP3    H241351   5.182   0.330   8.176  0.5632 -0.2066  0.5538
 6598TIP3   OH241352   4.231   5.837   1.427  0.2441  0.2654  0.3441
 6598TIP3    H141353   4.227   5.742   1.417  0.5634  0.3219 -0.3928
 6598TIP3    H241354   4.160   5.870   1.373  1.3489  0.5324 -0.9924
 6599TIP3   OH241355   6.665   6.101   0.783 -0.5576 -0.5680  0.1951
 6599TIP3    H141356   6.745   6.109   0.836  0.0345 -0.5914 -0.6844
 6599TIP3    H241357   6.611   6.038   0.831  1.3625 -3.2254 -0.8941
 6600TIP3   OH241358   4.330   3.992   1.246 -0.4893  0.0406  0.0783
 6600TIP3    H141359   4.238   3.999   1.274 -0.2490  0.7863  0.7494
 6600TIP3    H241360   4.372   3.939   1.314 -0.3498 -0.0078 -0.0446
 6601TIP3   OH241361   1.494   3.352   6.669 -0.6989 -0.6300 -0.6925
 6601TIP3    H141362   1.446   3.302   6.734  0.0683  0.6825  0.9590
 6601TIP3    H241363   1.427   3.382   6.607 -2.0008  0.8123  1.3084
 6602TIP3   OH241364   2.135   6.523   7.377 -0.1088 -0.0373 -0.5331
 6602TIP3    H141365   2.042   6.539   7.362 -0.4767 -0.9465  0.5781
 6602TIP3    H241366   2.174   6.610   7.382 -1.2721  0.4525  0.9889
 6603TIP3   OH241367   3.665   2.476   1.958 -0.1090  0.4523 -0.5014
 6603TIP3    H141368   3.579   2.445   1.986 -0.7906  0.6042 -2.3207
 6603TIP3    H241369   3.666   2.569   1.984 -1.0799  0.8224 -1.6989
 6604TIP3   OH241370   2.983   0.473   8.392  0.2365  0.4083  0.4964
 6604TIP3    H141371   2.927   0.470   8.470  1.1127  1.5802  1.1996
 6604TIP3    H241372   2.924   0.502   8.322 -0.2388  0.7728  1.0386
 6605TIP3   OH241373   5.069   3.205   6.213 -0.5424 -0.4286  0.0155
 6605TIP3    H141374   5.086   3.135   6.275 -1.4144 -0.9015 -0.2556
 6605TIP3    H241375   5.151   3.216   6.165  0.3145  0.2983  1.5621
 6606TIP3   OH241376   5.477   5.349   7.313  0.0189  0.0860 -0.4116
 6606TIP3    H141377   5.495   5.255   7.315 -0.3135  0.0279  0.1730
 6606TIP3    H241378   5.388   5.357   7.346 -1.1597  0.3522 -3.3984
 6607TIP3   OH241379   3.965   0.182   0.738  0.2626 -0.6154 -0.3945
 6607TIP3    H141380   3.942   0.270   0.708  0.4895 -0.0966  0.8738
 6607TIP3    H241381   3.885   0.148   0.778  0.2412 -0.8966 -0.6711
 6608TIP3   OH241382   0.492   2.730   0.034 -0.0170  0.6751 -0.0498
 6608TIP3    H141383   0.550   2.656   0.014 -3.1690 -1.8396 -0.8715
 6608TIP3    H241384   0.478   2.724   0.128 -0.1651  0.2403 -0.0940
 6609TIP3   OH241385   4.137   1.221   7.860 -0.6473  0.3024  0.0088
 6609TIP3    H141386   4.078   1.288   7.895 -0.5957 -1.1265  3.1655
 6609TIP3    H241387   4.085   1.141   7.861  0.8686 -0.7256  1.6197
 6610TIP3   OH241388   0.601   5.836   8.645  0.2436  0.2994  0.4964
 6610TIP3    H141389   0.676   5.830   8.704  0.7927 -1.6555 -0.3328
 6610TIP3    H241390   0.614   5.920   8.599  1.6419  0.2423  0.7382
 6611TIP3   OH241391   2.113   2.380   8.626 -0.0317  0.0415 -0.1708
 6611TIP3    H141392   2.044   2.414   8.569  0.0441  1.2967  0.4438
 6611TIP3    H241393   2.191   2.377   8.570 -0.4264 -0.7574 -0.6907
 6612TIP3   OH241394   3.695   4.209   0.365 -0.2839  0.0194  0.2393
 6612TIP3    H141395   3.633   4.244   0.428  0.0020  1.1203 -0.0627
 6612TIP3    H241396   3.771   4.267   0.372 -0.3116  0.2706 -1.2218
 6613TIP3   OH241397   3.325   5.028   2.675 -0.1637  0.0424  0.2051
 6613TIP3    H141398   3.406   4.978   2.681 -0.3774 -0.3177  0.1392
 6613TIP3    H241399   3.343   5.094   2.608 -0.5006 -1.1747 -1.1380
 6614TIP3   OH241400   4.635   2.282   7.856 -0.0588  0.4424 -0.4907
 6614TIP3    H141401   4.620   2.188   7.853 -1.6692  0.6782 -0.3989
 6614TIP3    H241402   4.726   2.290   7.885  0.0860 -1.0674 -0.4318
 6615TIP3   OH241403   5.815   4.810   1.030  0.1743 -0.2437  0.0829
 6615TIP3    H141404   5.781   4.876   1.090 -2.8287 -1.2813 -0.3247
 6615TIP3    H241405   5.907   4.834   1.018 -0.1875  2.4123  1.7961
 6616TIP3   OH241406   5.398   0.983   7.348  0.1860  0.1043 -0.6764
 6616TIP3    H141407   5.346   0.943   7.278  0.1076  0.4602 -0.8231
 6616TIP3    H241408   5.462   1.038   7.302 -0.1605  0.6945 -0.4523
 6617TIP3   OH241409   4.018   2.033   0.226  0.0588 -0.5664  0.4693
 6617TIP3    H141410   4.034   1.985   0.144  2.3626  0.3316  0.3098
 6617TIP3    H241411   4.035   1.969   0.295 -0.5265 -0.9550  0.2617
 6618TIP3   OH241412   2.325   6.740   6.785  0.8400  0.3018 -0.0688
 6618TIP3    H141413   2.245   6.705   6.745  0.8100 -0.7569  0.8666
 6618TIP3    H241414   2.332   6.829   6.750 -1.5294  0.9482  0.9155
 6619TIP3   OH241415   2.705   3.074   8.268 -0.2301  0.0937 -0.2751
 6619TIP3    H141416   2.630   3.047   8.216  0.5107 -1.7841 -0.4320
 6619TIP3    H241417   2.667   3.122   8.342 -1.3586  1.8725 -1.9252
 6620TIP3   OH241418   0.592   5.021   6.869 -0.3415  0.0589 -0.4255
 6620TIP3    H141419   0.563   5.016   6.777  0.3344  2.0703 -0.7988
 6620TIP3    H241420   0.511   5.034   6.918 -0.5903  0.1608 -0.8515
 6621TIP3   OH241421   5.689   3.309   0.337 -0.0486  0.0237 -0.0992
 6621TIP3    H141422   5.763   3.262   0.300  1.3662  1.8874  0.2414
 6621TIP3    H241423   5.708   3.315   0.431  0.8219  2.8190 -0.3571
 6622TIP3   OH241424   4.441   4.436   2.841  0.5089  0.5488  0.1708
 6622TIP3    H141425   4.506   4.504   2.861  1.4041  0.3376 -1.7535
 6622TIP3    H241426   4.374   4.446   2.909  1.9183  1.6029  1.4919
 6623TIP3   OH241427   0.643   2.865   6.625 -0.2253  0.0811 -0.0424
 6623TIP3    H141428   0.703   2.885   6.697  0.0429 -0.5738 -0.0743
 6623TIP3    H241429   0.656   2.772   6.608  0.6475  0.4710 -1.7681
 6624TIP3   OH241430   0.928   1.749   8.543  0.0386  0.4141 -0.4378
 6624TIP3    H141431   0.959   1.728   8.456  0.5166 -1.6045  0.1585
 6624TIP3    H241432   0.980   1.824   8.571  0.5017  0.5038 -1.5344
 6625TIP3   OH241433   3.166   3.151   7.542 -0.0959  0.1619 -0.2891
 6625TIP3    H141434   3.214   3.141   7.624  0.4993  0.4340 -0.6075
 6625TIP3    H241435   3.155   3.245   7.531 -0.3252  0.1196 -0.4384
 6626TIP3   OH241436   0.062   1.957   7.125  0.4537  0.3743  0.0724
 6626TIP3    H141437   0.117   2.009   7.183  0.0150  1.7556 -0.6948
 6626TIP3    H241438   0.065   2.004   7.041 -2.5188  0.9825  0.2038
 6627TIP3   OH241439   1.714   2.498   7.404 -0.6848  0.8638  0.3486
 6627TIP3    H141440   1.622   2.510   7.379 -1.2752 -1.7265  0.9321
 6627TIP3    H241441   1.751   2.446   7.332 -0.1078  0.6029  0.8279
 6628TIP3   OH241442   6.517   2.077   0.935 -0.1531 -0.2145  0.2225
 6628TIP3    H141443   6.429   2.052   0.964 -0.9519 -0.2029 -2.0027
 6628TIP3    H241444   6.511   2.079   0.840  2.9324 -2.7407 -0.1837
 6629TIP3   OH241445   0.583   6.569   1.239  0.0945 -0.6189 -0.1259
 6629TIP3    H141446   0.621   6.645   1.197 -0.0298  0.1554  1.1289
 6629TIP3    H241447   0.576   6.504   1.169 -0.2128  0.6604 -1.3251
 6630TIP3   OH241448   5.820   5.454   7.225  0.4313 -0.0852  0.7176
 6630TIP3    H141449   5.803   5.546   7.207 -1.0379 -0.4120  0.2726
 6630TIP3    H241450   5.863   5.421   7.147  1.1746  0.2691  0.9722
 6631TIP3   OH241451   5.801   4.577   6.472  0.7844 -0.0955 -0.1557
 6631TIP3    H141452   5.833   4.495   6.435  0.9063 -0.6276  1.0861
 6631TIP3    H241453   5.765   4.625   6.397  2.3203 -0.5004 -1.1974
 6632TIP3   OH241454   6.851   6.845   7.889  0.4569  0.5227  0.6825
 6632TIP3    H141455   6.769   6.878   7.852  0.1002  0.1469  1.1342
 6632TIP3    H241456   6.893   6.799   7.816  0.0234  0.2710  0.5847
 6633TIP3   OH241457   0.674   6.050   1.818  0.4250  0.2625 -0.0831
 6633TIP3    H141458   0.628   5.970   1.840  0.4508  0.2113 -0.2106
 6633TIP3    H241459   0.612   6.100   1.765  0.1817  0.6065  0.5172
 6634TIP3   OH241460   6.327   2.628   1.363 -0.9040  0.2850 -0.9098
 6634TIP3    H141461   6.273   2.606   1.440 -0.4484  1.1465 -0.3316
 6634TIP3    H241462   6.277   2.593   1.289 -1.5824 -0.1553 -0.2687
 6635TIP3   OH241463   5.995   2.455   7.090  0.1911  0.6369  0.3189
 6635TIP3    H141464   5.933   2.396   7.048  1.4429 -1.4284  1.2163
 6635TIP3    H241465   5.943   2.531   7.115 -1.8329 -0.7054  0.4300
 6636TIP3   OH241466   0.967   3.105   6.673 -0.3918  0.4873 -0.4408
 6636TIP3    H141467   1.013   3.135   6.595  0.4056 -1.5702 -0.8215
 6636TIP3    H241468   1.008   3.154   6.745  3.0747 -1.6879 -0.6571
 6637TIP3   OH241469   4.565   2.240   0.024 -0.0191 -0.4201 -0.2846
 6637TIP3    H141470   4.557   2.146   0.042  0.4670 -0.7880 -1.8427
 6637TIP3    H241471   4.660   2.255   0.022 -0.0870 -0.0832 -0.9536
 6638TIP3   OH241472   5.260   1.551   8.239 -0.1819 -0.4654 -0.0569
 6638TIP3    H141473   5.294   1.496   8.169 -0.2796 -0.6234  0.0189
 6638TIP3    H241474   5.326   1.546   8.308 -0.8523 -1.6509  0.5343
 6639TIP3   OH241475   6.055   3.885   1.287 -0.2862  0.1916 -0.4500
 6639TIP3    H141476   6.057   3.896   1.192  0.1731  1.1735 -0.3411
 6639TIP3    H241477   5.977   3.934   1.315  0.1127  0.7130 -0.2346
 6640TIP3   OH241478   1.140   5.341   8.608 -0.3777 -0.5441 -0.7180
 6640TIP3    H141479   1.138   5.253   8.645 -1.1209  0.1772  1.0608
 6640TIP3    H241480   1.144   5.327   8.513  0.5365 -2.4681 -0.4393
 6641TIP3   OH241481   5.944   0.979   0.181  0.3525  0.1478  0.1109
 6641TIP3    H141482   6.013   1.020   0.130  0.8572 -1.1285 -0.2689
 6641TIP3    H241483   5.904   0.915   0.122 -0.7386  0.4144  0.5276
 6642TIP3   OH241484   0.976   0.334   2.515  0.1415 -0.4730 -0.5881
 6642TIP3    H141485   0.912   0.397   2.548  1.0876 -0.1139  0.6086
 6642TIP3    H241486   0.924   0.274   2.460 -1.5605 -1.2693  1.7212
 6643TIP3   OH241487   1.183   2.880   0.027  0.1322  0.3147  0.1823
 6643TIP3    H141488   1.164   2.876  -0.067  1.2140  0.5732 -0.0501
 6643TIP3    H241489   1.204   2.972   0.044  0.1177  0.2356  0.6497
 6644TIP3   OH241490   3.355   5.117   0.656 -0.2110  0.7210  0.1658
 6644TIP3    H141491   3.372   5.153   0.569 -0.3763  1.1244  0.2982
 6644TIP3    H241492   3.284   5.054   0.643  0.4735 -0.0073 -0.1666
 6645TIP3   OH241493   3.158   6.480   7.772  0.0942  0.9240 -0.5286
 6645TIP3    H141494   3.153   6.499   7.866  0.9006 -0.5560 -0.1555
 6645TIP3    H241495   3.080   6.428   7.754  1.1071 -0.8231 -0.1224
 6646TIP3   OH241496   5.217   1.647   0.413  0.1850  0.3404  0.2127
 6646TIP3    H141497   5.154   1.579   0.388  0.1833  0.4967 -0.2151
 6646TIP3    H241498   5.302   1.603   0.409  0.0885  0.0808  0.9649
 6647TIP3   OH241499   2.218   3.494   1.382 -0.2455  0.5959  0.1177
 6647TIP3    H141500   2.264   3.496   1.298 -0.5586 -1.6328 -0.1714
 6647TIP3    H241501   2.155   3.422   1.373 -1.3244  1.2847  1.7475
 6648TIP3   OH241502   0.002   3.919   0.490 -0.0066  0.5422  0.7024
 6648TIP3    H141503  -0.027   3.855   0.555  0.0188 -0.9441 -0.6733
 6648TIP3    H241504   0.091   3.892   0.467  0.7025  2.1738  1.3798
 6649TIP3   OH241505   6.055   1.267   8.690  0.2647 -0.5083  0.7471
 6649TIP3    H141506   6.139   1.312   8.679  0.3750 -0.3397  2.1229
 6649TIP3    H241507   6.071   1.178   8.659  0.4053  0.0024 -0.7756
 6650TIP3   OH241508   6.026   2.568   7.505 -0.9196  0.1048  0.2100
 6650TIP3    H141509   6.013   2.483   7.464  0.9266  0.2501 -0.7673
 6650TIP3    H241510   5.978   2.630   7.449  1.1586  0.2296 -1.5351
 6651TIP3   OH241511   2.951   2.761   0.180 -0.0138 -0.1236  0.1143
 6651TIP3    H141512   3.028   2.738   0.233  0.8463 -0.5003 -1.2452
 6651TIP3    H241513   2.962   2.854   0.161  1.3835 -0.6666 -2.0091
 6652TIP3   OH241514   4.178   0.937   0.944 -0.3805  0.2224 -0.5331
 6652TIP3    H141515   4.236   0.899   0.877 -0.8325 -0.4694 -0.5404
 6652TIP3    H241516   4.167   1.028   0.916  1.3190  0.6092 -0.1100
 6653TIP3   OH241517   2.758   3.901   8.060 -0.1652  0.1889 -0.7266
 6653TIP3    H141518   2.786   3.895   8.151 -1.1563  0.7238 -0.3716
 6653TIP3    H241519   2.839   3.890   8.009  0.5090  0.5965  0.2292
 6654TIP3   OH241520   3.318   3.308   2.162 -0.6174  0.1801 -0.1569
 6654TIP3    H141521   3.377   3.341   2.231  0.8525  1.1028 -1.7782
 6654TIP3    H241522   3.231   3.338   2.189 -0.2454 -0.3150  1.7780
 6655TIP3   OH241523   2.695   5.631   6.844 -0.3616 -0.2370  0.0681
 6655TIP3    H141524   2.641   5.561   6.810  1.5825 -0.8453 -2.0639
 6655TIP3    H241525   2.741   5.592   6.918  1.2208 -1.5545 -1.5096
 6656TIP3   OH241526   0.784   5.901   2.411 -0.6105  0.5777 -0.1112
 6656TIP3    H141527   0.711   5.906   2.473  0.0141  2.3538  0.5557
 6656TIP3    H241528   0.794   5.808   2.393 -2.2483  0.1984  0.7276
 6657TIP3   OH241529   4.065   5.946   7.534 -0.2806 -0.1056 -0.5543
 6657TIP3    H141530   3.972   5.923   7.526 -0.4937  0.7471 -0.6362
 6657TIP3    H241531   4.064   6.030   7.580  0.4524 -0.0471 -0.6476
 6658TIP3   OH241532   0.655   2.938   8.600  0.2633 -0.1488  0.4507
 6658TIP3    H141533   0.614   3.010   8.649  1.5619  1.0201 -0.1078
 6658TIP3    H241534   0.621   2.859   8.641 -1.1360  0.7733  1.1619
 6659TIP3   OH241535   0.368   4.200   8.710  0.0447  0.0359  0.3899
 6659TIP3    H141536   0.371   4.235   8.621 -1.8193 -1.4532 -0.3361
 6659TIP3    H241537   0.290   4.144   8.711  1.9847 -2.9164  1.8714
 6660TIP3   OH241538   4.338   2.453   2.469  0.6158 -0.2347 -0.4374
 6660TIP3    H141539   4.419   2.451   2.521  1.2072 -0.5946 -1.3400
 6660TIP3    H241540   4.320   2.546   2.456 -0.6499 -0.0598  2.0375
 6661TIP3   OH241541   6.839   5.593   1.979  0.2653 -0.3790  0.0221
 6661TIP3    H141542   6.785   5.611   2.057 -0.3288 -2.7421  0.2135
 6661TIP3    H241543   6.890   5.516   2.003 -0.3046 -1.4733 -2.1009
 6662TIP3   OH241544   6.590   5.742   1.713  0.2578  0.8765 -0.3911
 6662TIP3    H141545   6.595   5.659   1.760 -1.3779  1.2083  0.4090
 6662TIP3    H241546   6.618   5.808   1.776 -3.4018  1.5185  0.8096
 6663TIP3   OH241547   5.331   4.489   6.879  0.2712  0.2756 -0.0844
 6663TIP3    H141548   5.253   4.528   6.840  0.5796 -0.4966 -1.5705
 6663TIP3    H241549   5.387   4.563   6.901  0.1247  0.7676 -1.2582
 6664TIP3   OH241550   6.002   5.849   7.339  0.0716  0.4256  0.6913
 6664TIP3    H141551   6.048   5.804   7.267  1.2497  0.6641  1.2690
 6664TIP3    H241552   5.962   5.778   7.389  0.4683  0.1446  0.6178
 6665TIP3   OH241553   0.594   0.714   8.160 -0.2685  0.0204  0.4957
 6665TIP3    H141554   0.608   0.628   8.200 -1.2030  0.3937  1.6875
 6665TIP3    H241555   0.596   0.775   8.233 -0.4641  0.9258 -0.2349
 6666TIP3   OH241556   0.977   0.277   7.671 -0.0469  0.1376  0.0668
 6666TIP3    H141557   1.059   0.237   7.643 -0.5454 -0.3697 -0.7240
 6666TIP3    H241558   1.001   0.334   7.744  0.8816 -0.6107  0.3592
 6667TIP3   OH241559   2.330   4.887   7.633  0.1145 -0.9483  0.6958
 6667TIP3    H141560   2.249   4.867   7.586 -0.2970 -2.0099  1.8279
 6667TIP3    H241561   2.380   4.941   7.571 -1.5888  0.0479  0.1180
 6668TIP3   OH241562   4.490   0.220   8.282  0.0120  0.2500 -0.0959
 6668TIP3    H141563   4.493   0.125   8.267 -2.7810  0.1386 -0.5049
 6668TIP3    H241564   4.467   0.229   8.375 -2.0412  0.4034 -0.5743
 6669TIP3   OH241565   4.430   4.639   1.331 -0.1198 -0.6334 -0.1366
 6669TIP3    H141566   4.416   4.545   1.322  1.8523 -1.0845  0.8938
 6669TIP3    H241567   4.524   4.648   1.344 -0.3236  1.4555  0.2491
 6670TIP3   OH241568   0.629   5.805   0.623  0.4837 -0.6096 -0.3796
 6670TIP3    H141569   0.578   5.882   0.651  0.4652 -0.5791 -0.4970
 6670TIP3    H241570   0.589   5.732   0.670  1.7264 -0.2977  1.2684
 6671TIP3   OH241571   1.953   3.773   0.680 -0.3179 -0.1855 -0.5343
 6671TIP3    H141572   2.027   3.800   0.734 -1.3014  0.7717  0.3761
 6671TIP3    H241573   1.985   3.780   0.590  0.8124 -0.1898 -0.1489
 6672TIP3   OH241574   6.622   1.098   7.538  0.9586 -0.5998  0.9423
 6672TIP3    H141575   6.698   1.046   7.515  2.5691  1.2288  1.8409
 6672TIP3    H241576   6.601   1.145   7.457 -0.3059 -2.3047  0.2213
 6673TIP3   OH241577   5.242   3.022   6.753 -0.3484  0.5946  0.0272
 6673TIP3    H141578   5.160   3.010   6.704  0.7294  0.1120 -1.7784
 6673TIP3    H241579   5.283   3.099   6.712  1.3283 -0.7683 -0.9795
 6674TIP3   OH241580   0.422   5.271   8.132  0.0851 -0.7470 -0.6444
 6674TIP3    H141581   0.476   5.268   8.053 -2.6600  2.4522 -2.9612
 6674TIP3    H241582   0.463   5.339   8.186  0.9539 -1.6864 -0.0780
 6675TIP3   OH241583   0.408   4.239   0.442  0.5856 -0.6434  0.2000
 6675TIP3    H141584   0.457   4.316   0.471 -1.8666  1.3518 -0.5234
 6675TIP3    H241585   0.388   4.256   0.350 -1.3299 -1.3322  0.4281
 6676TIP3   OH241586   6.168   2.774   8.273 -0.0976 -0.0652  0.5662
 6676TIP3    H141587   6.158   2.696   8.219  0.9376  0.6766 -0.7486
 6676TIP3    H241588   6.238   2.752   8.335  0.8202  0.0751 -0.3776
 6677TIP3   OH241589   0.982   5.904   6.768 -0.3412 -0.0619  0.4784
 6677TIP3    H141590   1.040   5.870   6.700 -0.1023  0.6086  0.3395
 6677TIP3    H241591   1.041   5.940   6.834 -0.5668  1.5410 -0.1302
 6678TIP3   OH241592   1.258   0.533   8.189 -0.0074 -0.1760 -0.5047
 6678TIP3    H141593   1.266   0.511   8.281  1.4636 -0.3943 -0.6643
 6678TIP3    H241594   1.231   0.452   8.146  0.1500 -0.2887 -0.3866
 6679TIP3   OH241595   2.720   5.503   1.601  0.5533 -0.0783 -0.0280
 6679TIP3    H141596   2.796   5.540   1.645  0.6602 -0.0902 -0.2031
 6679TIP3    H241597   2.757   5.437   1.542  0.6043  1.4199 -1.7488
 6680TIP3   OH241598   5.283   4.738   7.528 -0.0476 -0.3588 -0.4316
 6680TIP3    H141599   5.346   4.809   7.522 -0.5962  0.1901  0.1891
 6680TIP3    H241600   5.335   4.661   7.552  0.0863  0.6329  2.8883
 6681TIP3   OH241601   3.286   0.985   0.993  0.1896 -0.1756 -0.0306
 6681TIP3    H141602   3.209   0.993   0.936 -1.0260 -0.9755  1.4284
 6681TIP3    H241603   3.274   0.901   1.038  1.2391  0.3012  1.2071
 6682TIP3   OH241604   5.356   1.645   7.845  0.4610 -0.1938  0.0659
 6682TIP3    H141605   5.450   1.657   7.851  0.3660 -0.0327  1.4573
 6682TIP3    H241606   5.319   1.709   7.906 -0.5132 -0.7930  0.1305
 6683TIP3   OH241607   6.416   4.347   1.491 -0.1102 -0.1980  0.2163
 6683TIP3    H141608   6.392   4.275   1.550 -0.8057  0.3048  0.5740
 6683TIP3    H241609   6.352   4.343   1.421 -0.3328  0.2421  0.3892
 6684TIP3   OH241610   6.130   6.484   8.364 -0.2054 -0.2380  0.0863
 6684TIP3    H141611   6.186   6.407   8.364  0.7003  0.3829 -0.8361
 6684TIP3    H241612   6.066   6.468   8.433 -0.9275 -2.4192 -1.0229
 6685TIP3   OH241613   5.702   6.823   0.316 -0.2054  0.3616 -0.7038
 6685TIP3    H141614   5.734   6.913   0.328  0.8671 -0.2991  2.0679
 6685TIP3    H241615   5.736   6.775   0.392 -2.7905 -1.8541 -0.8100
 6686TIP3   OH241616   4.027   6.469   2.119 -0.1723  0.5313  0.3905
 6686TIP3    H141617   4.088   6.513   2.177  0.2046  1.3400 -0.5985
 6686TIP3    H241618   4.082   6.428   2.052 -0.6171 -0.1779  0.4360
 6687TIP3   OH241619   0.053   4.622   1.996  0.3688 -0.0308  0.1095
 6687TIP3    H141620   0.147   4.643   1.999  0.2379  0.4254  1.7993
 6687TIP3    H241621   0.012   4.686   2.054 -0.7074 -1.6341  1.2200
 6688TIP3   OH241622   1.845   4.590   8.045  0.1340 -0.2298 -0.2002
 6688TIP3    H141623   1.783   4.518   8.055  0.7852 -0.7865 -0.1027
 6688TIP3    H241624   1.877   4.583   7.955 -1.3330  1.2115 -0.8948
 6689TIP3   OH241625   0.407   0.701   6.694  0.4442 -0.6472 -0.0166
 6689TIP3    H141626   0.489   0.661   6.723  0.1483 -2.9834 -2.1057
 6689TIP3    H241627   0.340   0.635   6.711 -1.1925  1.3563  2.0214
 6690TIP3   OH241628   0.502   5.946   6.842 -0.3228 -0.0293  0.5269
 6690TIP3    H141629   0.586   5.934   6.887 -0.6283  0.3344  1.1941
 6690TIP3    H241630   0.503   6.038   6.815 -0.4115 -0.0862  0.3294
 6691TIP3   OH241631   3.508   6.432   7.328 -0.0388  0.0212  0.5923
 6691TIP3    H141632   3.530   6.509   7.380 -0.3494  0.3375  0.2636
 6691TIP3    H241633   3.561   6.441   7.249 -0.6039  0.2765  0.2343
 6692TIP3   OH241634   4.245   4.100   8.408  0.3653 -0.4011  0.0807
 6692TIP3    H141635   4.218   4.017   8.368  0.8573 -0.3909 -0.2774
 6692TIP3    H241636   4.164   4.151   8.412  0.2384 -0.5382 -0.5749
 6693TIP3   OH241637   6.830   3.784   7.635 -0.1966  0.2028  0.2538
 6693TIP3    H141638   6.906   3.840   7.619 -1.3871  1.3333 -2.1012
 6693TIP3    H241639   6.808   3.749   7.548 -1.8651 -0.7692  1.0159
 6694TIP3   OH241640   5.055   5.103   7.577  0.3187  0.0596 -0.0319
 6694TIP3    H141641   5.105   5.096   7.495  0.0286  1.4038 -0.3497
 6694TIP3    H241642   5.109   5.158   7.634 -0.8675  1.8120 -0.4995
 6695TIP3   OH241643   2.921   3.004   1.142 -0.3852  0.1495 -0.6659
 6695TIP3    H141644   2.973   2.934   1.102  0.5944  0.4289  0.0830
 6695TIP3    H241645   2.970   3.084   1.125  0.5436  0.1861  1.7744
 6696TIP3   OH241646   5.047   4.834   6.925  0.2698 -0.0131 -0.2942
 6696TIP3    H141647   4.955   4.821   6.948  0.1484  0.5111 -0.4812
 6696TIP3    H241648   5.068   4.761   6.867 -0.4970  0.7634 -1.5971
 6697TIP3   OH241649   0.376   3.113   1.850  0.1053  0.1562 -0.0310
 6697TIP3    H141650   0.320   3.172   1.901  1.6771  0.6977  1.1541
 6697TIP3    H241651   0.403   3.045   1.912 -0.8501 -1.2908 -1.1201
 6698TIP3   OH241652   4.159   1.985   7.260 -0.6418 -0.4362 -0.1708
 6698TIP3    H141653   4.185   1.916   7.198  0.7303  0.5456 -0.7360
 6698TIP3    H241654   4.085   2.028   7.217 -1.3186 -1.3346  0.0516
 6699TIP3   OH241655   6.764   1.939   2.024  0.0225 -0.3906 -0.0012
 6699TIP3    H141656   6.815   1.896   2.093 -1.0978  0.5751  1.4776
 6699TIP3    H241657   6.691   1.879   2.006  0.1438 -0.4992 -0.1366
 6700TIP3   OH241658   0.403   0.735   0.654 -0.0730  0.3065 -0.6590
 6700TIP3    H141659   0.355   0.652   0.651  0.1804  0.1672 -2.8840
 6700TIP3    H241660   0.339   0.801   0.627 -0.1175  0.7735  0.5426
 6701TIP3   OH241661   2.845   1.815   1.184 -0.6368  0.1018  0.0790
 6701TIP3    H141662   2.914   1.793   1.247 -0.1226  0.9634 -0.1675
 6701TIP3    H241663   2.891   1.828   1.101 -1.0042  1.3147  0.0513
 6702TIP3   OH241664   4.957   3.729   8.675 -0.6205  0.3383 -0.3069
 6702TIP3    H141665   5.049   3.744   8.653 -0.9137  1.7956 -0.7135
 6702TIP3    H241666   4.914   3.717   8.590 -0.6623 -1.4150 -0.0632
 6703TIP3   OH241667   6.809   2.313   1.944 -0.1916 -0.1018 -0.2563
 6703TIP3    H141668   6.890   2.352   1.913 -0.4681 -0.0110 -0.8647
 6703TIP3    H241669   6.740   2.361   1.899 -0.6144  0.2809  0.7646
 6704TIP3   OH241670   5.691   2.146   1.689  0.4988  0.6959 -0.7044
 6704TIP3    H141671   5.647   2.082   1.633 -0.4851  1.4715 -0.8475
 6704TIP3    H241672   5.696   2.104   1.775  1.0284 -0.0686 -1.0944
 6705TIP3   OH241673   2.388   0.068   1.678  0.1146 -0.4703  0.2671
 6705TIP3    H141674   2.336   0.060   1.598  0.0560  0.7288  0.1669
 6705TIP3    H241675   2.329   0.040   1.748 -1.1698  2.0020  0.3010
 6706TIP3   OH241676   3.343   6.550   0.805 -0.0055 -0.1942  0.1989
 6706TIP3    H141677   3.309   6.479   0.859  0.9687 -1.0410 -0.2647
 6706TIP3    H241678   3.276   6.618   0.810 -0.6457 -0.8670  1.2053
 6707TIP3   OH241679   1.715   0.100   7.304  0.0281  0.2655 -0.0489
 6707TIP3    H141680   1.686   0.083   7.214  1.9004  1.5052 -0.9411
 6707TIP3    H241681   1.739   0.193   7.304  1.0539  0.0243  1.4455
 6708TIP3   OH241682   5.334   5.477   8.083  0.5655 -0.5052  0.5543
 6708TIP3    H141683   5.285   5.442   8.157 -0.5570 -0.9321 -0.3676
 6708TIP3    H241684   5.405   5.414   8.069 -1.6131 -2.7450 -1.2837
 6709TIP3   OH241685   4.789   4.473   0.592  0.5836 -0.5275 -0.1653
 6709TIP3    H141686   4.699   4.470   0.557  0.6623 -1.5274 -0.2823
 6709TIP3    H241687   4.829   4.392   0.562  1.2569 -0.4973  0.6440
 6710TIP3   OH241688   3.076   3.405   0.064 -0.4213 -0.0345  0.2906
 6710TIP3    H141689   3.136   3.419   0.137  0.4581 -0.4643 -0.3226
 6710TIP3    H241690   3.110   3.327   0.020 -2.3213 -1.2036  0.7861
 6711TIP3   OH241691   0.516   4.590   0.777 -0.0281 -0.8146 -0.1313
 6711TIP3    H141692   0.486   4.667   0.825 -1.9512 -2.0428  0.7601
 6711TIP3    H241693   0.572   4.543   0.839  1.2203 -0.1388 -0.7063
 6712TIP3   OH241694   3.773   0.844   7.680 -0.4318  0.3328  0.3276
 6712TIP3    H141695   3.835   0.777   7.653 -0.1879  1.0270 -0.9278
 6712TIP3    H241696   3.689   0.815   7.645 -0.7728 -0.4187  1.7069
 6713TIP3   OH241697   6.681   2.120   7.132 -0.2314 -0.4050  0.1027
 6713TIP3    H141698   6.690   2.161   7.218  0.6350 -0.7247  0.1705
 6713TIP3    H241699   6.735   2.042   7.137  0.7397  0.1538 -1.0979
 6714TIP3   OH241700   1.376   2.053   7.765 -0.3599 -0.7551 -0.0333
 6714TIP3    H141701   1.435   2.038   7.839 -0.3641 -1.2116 -0.1205
 6714TIP3    H241702   1.291   2.071   7.806  0.1338  1.4523  0.1469
 6715TIP3   OH241703   6.221   0.766   0.314 -0.1689 -0.1170 -0.0730
 6715TIP3    H141704   6.212   0.707   0.389  0.2264  0.8126  0.7114
 6715TIP3    H241705   6.158   0.732   0.250  0.0327 -1.3740  0.3669
 6716TIP3   OH241706   3.590   4.916   2.678  0.6068  0.1141  0.2578
 6716TIP3    H141707   3.575   4.833   2.632  2.1081 -0.7056  1.1806
 6716TIP3    H241708   3.678   4.943   2.652  1.0843  0.1638  1.8135
 6717TIP3   OH241709   3.879   4.975   0.461 -0.0147 -0.3870  0.2477
 6717TIP3    H141710   3.802   4.983   0.517 -0.7851 -0.4020 -0.7794
 6717TIP3    H241711   3.920   4.893   0.488  1.2769  0.9604  2.7382
 6718TIP3   OH241712   6.170   1.187   1.442  0.6043  0.2891 -0.5568
 6718TIP3    H141713   6.103   1.156   1.503 -1.0578  0.7554 -2.0604
 6718TIP3    H241714   6.243   1.126   1.454 -0.0907 -0.2840  1.0827
 6719TIP3   OH241715   3.536   5.435   0.970  0.1928 -0.0989 -0.2354
 6719TIP3    H141716   3.474   5.364   0.987 -0.2688  0.3786  0.1119
 6719TIP3    H241717   3.617   5.406   1.010  0.2043 -0.7406 -0.7102
 6720TIP3   OH241718   4.969   3.511   6.644  0.0330 -0.1183 -0.2652
 6720TIP3    H141719   5.010   3.451   6.706  1.9418  1.1193 -0.2428
 6720TIP3    H241720   4.947   3.456   6.568 -0.7171 -1.3050  0.7705
 6721TIP3   OH241721   1.553   3.422   0.043  0.3519 -0.2928  0.7426
 6721TIP3    H141722   1.555   3.387   0.132  0.8003  0.0872  0.8860
 6721TIP3    H241723   1.617   3.493   0.044 -0.1734  0.1886  0.3154
 6722TIP3   OH241724   5.464   0.822   7.652 -0.2233  0.2752 -0.1797
 6722TIP3    H141725   5.498   0.813   7.563 -0.8507  0.6778 -0.4649
 6722TIP3    H241726   5.453   0.916   7.664 -3.9915  0.1444 -1.2016
 6723TIP3   OH241727   0.876   3.795   6.393 -0.1943 -0.0851 -0.0173
 6723TIP3    H141728   0.930   3.875   6.394  0.2565 -0.3805  1.4033
 6723TIP3    H241729   0.916   3.740   6.326  0.2331  0.3828 -0.1552
 6724TIP3   OH241730   3.499   4.804   8.682  0.2410 -0.1856 -0.2188
 6724TIP3    H141731   3.498   4.806   8.777 -1.1924 -0.3298 -0.2017
 6724TIP3    H241732   3.529   4.891   8.656  0.7874 -0.1994  0.3613
 6725TIP3   OH241733   0.840   6.691   2.079 -0.3125 -0.4328 -0.1219
 6725TIP3    H141734   0.931   6.667   2.097 -0.2240  1.3616  2.4403
 6725TIP3    H241735   0.787   6.628   2.128 -0.3793 -0.5060 -0.2888
 6726TIP3   OH241736   5.308   3.345   7.178  0.1771  0.2956  0.2489
 6726TIP3    H141737   5.235   3.304   7.133 -0.7124  2.4902 -0.4632
 6726TIP3    H241738   5.364   3.273   7.205 -1.7234 -1.3832 -0.1077
 6727TIP3   OH241739   4.231   2.972   8.694 -0.1559  0.5818  0.2852
 6727TIP3    H141740   4.207   2.895   8.644  0.9663 -1.3403  2.4794
 6727TIP3    H241741   4.216   3.046   8.635  0.4814 -1.4256 -2.5794
 6728TIP3   OH241742   0.530   2.675   7.186  0.7727  0.7472  0.1588
 6728TIP3    H141743   0.514   2.690   7.279  1.2318  0.5905  0.2618
 6728TIP3    H241744   0.609   2.622   7.183  0.9008  0.9630 -0.3328
 6729TIP3   OH241745   6.505   6.718   1.132  0.2191  0.5659  0.2184
 6729TIP3    H141746   6.536   6.652   1.071 -2.1044  0.3821 -0.8723
 6729TIP3    H241747   6.463   6.784   1.076 -0.3297  1.3294  1.4947
 6730TIP3   OH241748   0.571   0.208   1.343  0.1453 -0.0927 -0.7630
 6730TIP3    H141749   0.616   0.171   1.266 -1.0391 -1.0752 -1.0083
 6730TIP3    H241750   0.490   0.157   1.350 -0.9683  1.6567 -0.3634
 6731TIP3   OH241751   2.756   6.832   1.243  0.3477 -0.3107  0.2043
 6731TIP3    H141752   2.751   6.740   1.270 -0.3088  0.3708  2.6190
 6731TIP3    H241753   2.747   6.882   1.324  0.2034  1.9192 -1.0963
 6732TIP3   OH241754   5.140   5.033   7.889  0.5416  0.1320  0.3505
 6732TIP3    H141755   5.177   4.974   7.824  0.8095  0.9351 -0.2432
 6732TIP3    H241756   5.123   5.114   7.841 -3.2055 -0.5283  0.2200
 6733TIP3   OH241757   5.521   6.709   7.994  0.1575  0.4301  0.2805
 6733TIP3    H141758   5.457   6.655   7.946  0.6817  1.2017 -1.3495
 6733TIP3    H241759   5.583   6.737   7.927  0.1936  2.6367  1.1844
 6734TIP3   OH241760   4.646   1.068   6.707 -0.0769  0.0280 -0.8228
 6734TIP3    H141761   4.683   1.020   6.782 -2.2996 -2.4737 -1.1710
 6734TIP3    H241762   4.665   1.160   6.726 -0.2742 -0.5094  2.6957
 6735TIP3   OH241763   5.616   4.522   8.381  0.7920 -0.7411  0.0131
 6735TIP3    H141764   5.534   4.482   8.353  0.3488 -2.3987  3.2231
 6735TIP3    H241765   5.683   4.481   8.327 -0.3440  0.5625 -2.5846
 6736TIP3   OH241766   3.414   2.783   0.638  0.1122 -0.0013 -0.1229
 6736TIP3    H141767   3.418   2.725   0.714 -1.6419  2.2642  1.8507
 6736TIP3    H241768   3.497   2.829   0.638 -0.2060  0.5876  0.9706
 6737TIP3   OH241769   5.233   1.035   6.211  0.3969  0.2160 -0.6280
 6737TIP3    H141770   5.306   1.077   6.167 -0.9394  1.0119 -2.2088
 6737TIP3    H241771   5.239   0.943   6.185  1.8990 -0.1367  0.8230
 6738TIP3   OH241772   4.078   2.627   7.524 -0.2328 -0.1796 -0.4456
 6738TIP3    H141773   4.026   2.689   7.474  0.0327  0.6989  0.3435
 6738TIP3    H241774   4.015   2.588   7.585 -0.3556 -0.5466 -0.8006
 6739TIP3   OH241775   1.689   0.185   8.277  0.5824 -0.6763  0.2395
 6739TIP3    H141776   1.660   0.128   8.347 -0.8270  0.7510  0.8858
 6739TIP3    H241777   1.608   0.214   8.234  1.2748  0.3872 -0.3970
 6740TIP3   OH241778   3.755   0.011   2.970  0.0446 -0.6721 -0.6830
 6740TIP3    H141779   3.727  -0.025   2.886  0.2334  0.1707 -1.1240
 6740TIP3    H241780   3.848   0.030   2.958 -0.3505  1.2809 -0.9676
 6741TIP3   OH241781   5.337   5.764   6.877 -0.0976 -0.5471  0.3422
 6741TIP3    H141782   5.246   5.742   6.858 -0.1662  0.3022 -0.3630
 6741TIP3    H241783   5.338   5.784   6.971 -0.2426 -2.3778  0.7676
 6742TIP3   OH241784   3.951   1.655   8.039 -0.3285 -0.5234  0.0423
 6742TIP3    H141785   3.981   1.742   8.014  0.3704  0.0360  2.4875
 6742TIP3    H241786   4.032   1.608   8.060 -0.7536 -1.5020 -0.4667
 6743TIP3   OH241787   3.743   6.229   7.875 -0.5855  1.2040 -0.0897
 6743TIP3    H141788   3.724   6.221   7.781  0.7112 -0.2664 -0.2670
 6743TIP3    H241789   3.692   6.159   7.916  1.6559 -0.5596 -0.1762
 6744TIP3   OH241790   3.270   3.140   1.945  0.4621 -0.2820  0.0757
 6744TIP3    H141791   3.294   3.223   1.987 -0.1037  0.9644 -1.9378
 6744TIP3    H241792   3.279   3.075   2.014  3.2159  1.0820  1.1438
 6745TIP3   OH241793   1.669   2.200   1.403 -0.5533  0.0215  0.0844
 6745TIP3    H141794   1.748   2.236   1.443 -0.8046  1.6267 -0.7916
 6745TIP3    H241795   1.610   2.185   1.476 -0.5409  1.7187  0.4772
 6746TIP3   OH241796   0.186   4.581   0.923 -0.2459  0.7007  0.0352
 6746TIP3    H141797   0.197   4.657   0.980 -0.9591 -0.0074  1.1520
 6746TIP3    H241798   0.176   4.618   0.835  0.5608  1.8319  0.3961
 6747TIP3   OH241799   4.782   2.729   1.193 -0.0146 -0.0860  0.4754
 6747TIP3    H141800   4.802   2.640   1.165  2.9839  0.9192 -1.0451
 6747TIP3    H241801   4.753   2.774   1.113 -0.5067  0.5619  0.9995
 6748TIP3   OH241802   6.391   3.987   0.818 -0.1379  0.2288 -0.1296
 6748TIP3    H141803   6.317   3.932   0.793  0.6118 -0.7351 -0.3026
 6748TIP3    H241804   6.458   3.925   0.848  0.2583  1.1420  0.9240
 6749TIP3   OH241805   1.527   2.837   0.839 -0.3129  0.0196 -0.0839
 6749TIP3    H141806   1.525   2.781   0.762  1.1334 -0.5304  0.2446
 6749TIP3    H241807   1.611   2.882   0.833 -0.4055  0.3460  0.9166
 6750TIP3   OH241808   0.992   5.588   0.930  0.3205 -0.3604 -0.4952
 6750TIP3    H141809   1.042   5.513   0.961  0.1312 -0.2523  0.0828
 6750TIP3    H241810   0.924   5.601   0.997  1.0279  0.9994 -0.0017
 6751TIP3   OH241811   0.263   1.454   0.693  0.1465  0.0278  0.1578
 6751TIP3    H141812   0.259   1.498   0.608  1.5864  0.8030  0.4634
 6751TIP3    H241813   0.258   1.524   0.758 -0.1638 -0.4900  0.7105
 6752TIP3   OH241814   2.451   1.764   7.280 -0.0800 -0.2990 -0.3540
 6752TIP3    H141815   2.410   1.849   7.264 -3.4398 -1.9576 -1.3943
 6752TIP3    H241816   2.508   1.752   7.204 -0.8950  0.3026 -1.0858
 6753TIP3   OH241817   6.818   3.620   2.315 -0.3992 -0.3496  0.0289
 6753TIP3    H141818   6.865   3.696   2.280 -0.4225  0.3886  1.5161
 6753TIP3    H241819   6.853   3.546   2.266  1.0360  0.3946 -0.1408
 6754TIP3   OH241820   3.337   2.203   1.599 -0.3578 -0.2689  0.3063
 6754TIP3    H141821   3.261   2.173   1.549  0.6517  0.0102 -1.4766
 6754TIP3    H241822   3.301   2.228   1.684 -2.2963  0.1165 -0.5718
 6755TIP3   OH241823   5.254   4.171   6.105  0.1433  0.4074 -0.4388
 6755TIP3    H141824   5.161   4.181   6.088 -0.3064 -0.0045  1.4446
 6755TIP3    H241825   5.292   4.257   6.086 -0.8268  0.9232 -0.1210
 6756TIP3   OH241826   6.554   5.974   7.682  0.5865  0.0927  0.5959
 6756TIP3    H141827   6.548   5.879   7.684  0.2159  0.1165  0.8108
 6756TIP3    H241828   6.642   5.994   7.712  0.1524 -0.1311  2.1323
 6757TIP3   OH241829   6.363   4.143   1.673 -0.6339  0.0004  0.3975
 6757TIP3    H141830   6.296   4.076   1.660 -0.4624 -0.0162 -0.4793
 6757TIP3    H241831   6.441   4.095   1.698 -0.0442 -0.3446 -1.8451
 6758TIP3   OH241832   4.664   4.653   0.234 -0.3436 -0.0562 -0.2922
 6758TIP3    H141833   4.646   4.633   0.142  1.5286 -1.3574 -0.4398
 6758TIP3    H241834   4.756   4.628   0.246 -0.8366 -0.9619  2.2126
 6759TIP3   OH241835   4.236   0.284   0.038  0.0595 -0.3525  0.5604
 6759TIP3    H141836   4.220   0.304   0.131 -0.4479  1.5102  0.1088
 6759TIP3    H241837   4.216   0.191   0.030 -1.9416 -0.0949  1.8928
 6760TIP3   OH241838   0.909   3.734   1.096  0.5854 -0.1811 -0.6552
 6760TIP3    H141839   0.941   3.812   1.141 -1.2607  1.5555 -2.2141
 6760TIP3    H241840   0.935   3.746   1.005  3.3532 -3.1497 -0.4528
 6761TIP3   OH241841   3.239   1.777   0.172 -0.0424  0.3170  0.5790
 6761TIP3    H141842   3.291   1.705   0.135 -1.7163 -1.2686  1.1828
 6761TIP3    H241843   3.253   1.771   0.266 -1.8530 -0.6410  0.8313
 6762TIP3   OH241844   3.918   2.416   1.294 -0.0028 -0.3442 -0.8342
 6762TIP3    H141845   3.869   2.348   1.248 -0.0518 -1.9285  1.4313
 6762TIP3    H241846   3.851   2.468   1.338  0.1062  0.5886 -1.7209
 6763TIP3   OH241847   3.369   3.604   7.347 -0.3895 -0.2500  0.0070
 6763TIP3    H141848   3.432   3.619   7.418  0.2398  0.0524 -0.6090
 6763TIP3    H241849   3.287   3.639   7.381 -0.1440 -0.2810  0.6637
 6764TIP3   OH241850   1.106   0.744   0.351 -0.1971 -0.1988 -0.1101
 6764TIP3    H141851   1.117   0.788   0.435  1.4263 -1.6703  0.5165
 6764TIP3    H241852   1.139   0.806   0.286 -1.6544  1.0322  0.2773
 6765TIP3   OH241853   6.406   0.539   6.968 -0.5272  0.0143  0.2850
 6765TIP3    H141854   6.344   0.518   7.038 -0.0774 -2.7860 -0.0450
 6765TIP3    H241855   6.464   0.463   6.964 -1.0184 -0.3810 -3.6032
 6766TIP3   OH241856   3.805   3.913   1.490 -0.0582  0.1139 -0.4002
 6766TIP3    H141857   3.731   3.963   1.525 -0.4863 -0.6878 -0.1201
 6766TIP3    H241858   3.869   3.911   1.561 -0.1719 -0.0084 -0.3028
 6767TIP3   OH241859   5.453   4.814   6.721  0.6153  0.1105 -0.2274
 6767TIP3    H141860   5.526   4.783   6.774 -0.4110 -0.5992  0.8165
 6767TIP3    H241861   5.440   4.905   6.749  0.7492  0.0661 -0.0210
 6768TIP3   OH241862   5.109   2.286   0.386 -0.0774 -0.3165 -0.2129
 6768TIP3    H141863   5.168   2.340   0.333  0.7742 -0.2008  0.8294
 6768TIP3    H241864   5.047   2.348   0.424  0.8490 -0.0504  0.9157
 6769TIP3   OH241865   5.679   0.708   0.948 -0.6283 -0.2312  0.1469
 6769TIP3    H141866   5.631   0.766   0.889  0.6725 -1.7269 -2.5424
 6769TIP3    H241867   5.628   0.709   1.029 -3.6987  0.3191 -1.6370
 6770TIP3   OH241868   0.455   3.426   1.309  0.4464  0.5883  0.0753
 6770TIP3    H141869   0.523   3.484   1.274  0.4290 -0.5088 -1.9244
 6770TIP3    H241870   0.454   3.352   1.249 -0.3964 -0.9121  1.8478
 6771TIP3   OH241871   4.719   5.977   7.592  0.5609  0.3161  0.1966
 6771TIP3    H141872   4.790   6.033   7.561  1.8388 -0.6145  1.3317
 6771TIP3    H241873   4.748   5.947   7.679 -0.4689 -1.3720  0.0005
 6772TIP3   OH241874   3.856   0.732   8.347  0.2791  0.1655 -0.1061
 6772TIP3    H141875   3.820   0.663   8.402  1.3449 -0.0848  0.2954
 6772TIP3    H241876   3.807   0.726   8.265  1.7125 -2.4620 -0.8994
 6773TIP3   OH241877   5.054   1.105   8.623 -0.1208 -0.3083 -0.2902
 6773TIP3    H141878   5.043   1.030   8.565 -1.3880 -1.7489  1.7048
 6773TIP3    H241879   5.145   1.099   8.653  0.2322 -0.1430 -1.2897
 6774TIP3   OH241880   2.190   3.892   0.115 -0.0692 -0.2299  0.2328
 6774TIP3    H141881   2.263   3.891   0.053 -0.3708  0.2851 -0.1374
 6774TIP3    H241882   2.189   3.981   0.150  1.0703 -0.9214  2.1737
 6775TIP3   OH241883   4.071   6.504   6.650 -0.7940 -0.2983  0.5291
 6775TIP3    H141884   4.058   6.599   6.654  1.4824  0.0816 -0.0562
 6775TIP3    H241885   4.017   6.470   6.722 -2.6063  1.2852  0.0163
 6776TIP3   OH241886   5.548   5.536   1.993  0.2042  0.2842  0.0811
 6776TIP3    H141887   5.641   5.518   1.982  0.1661 -0.1618  0.4597
 6776TIP3    H241888   5.528   5.510   2.083 -0.5362 -0.7480 -0.3531
 6777TIP3   OH241889   3.646   3.981   2.127 -0.1642 -0.0159 -0.1217
 6777TIP3    H141890   3.640   4.071   2.159 -2.6965 -0.0764 -0.2604
 6777TIP3    H241891   3.709   3.986   2.055  1.0259  1.2758  0.9433
 6778TIP3   OH241892   2.139   2.776   1.873 -0.0030  0.1076  0.6916
 6778TIP3    H141893   2.220   2.735   1.905  1.4426  1.8811 -0.4994
 6778TIP3    H241894   2.128   2.853   1.930  1.0179  1.6872 -1.1333
 6779TIP3   OH241895   4.065   2.491   7.999  0.1908  0.4019 -0.5140
 6779TIP3    H141896   4.102   2.403   8.011 -0.3065  0.3283  0.6115
 6779TIP3    H241897   4.103   2.522   7.917  1.0385 -0.5291 -0.4922
 6780TIP3   OH241898   6.464   4.934   1.479 -0.1419  0.2074 -0.1173
 6780TIP3    H141899   6.440   4.857   1.427  0.3912  0.4063 -0.6702
 6780TIP3    H241900   6.560   4.935   1.476 -0.1254  0.4699  0.5079
 6781TIP3   OH241901   6.217   2.210   0.432 -0.0197 -0.1101 -0.1537
 6781TIP3    H141902   6.253   2.204   0.343  2.1940 -0.5996  0.7018
 6781TIP3    H241903   6.143   2.149   0.432  0.8890 -1.2656 -1.2624
 6782TIP3   OH241904   1.134   0.962   0.590  0.4336  0.1503 -0.2851
 6782TIP3    H141905   1.096   1.007   0.514  1.0800 -0.2020 -0.8307
 6782TIP3    H241906   1.147   1.032   0.654  0.6158  0.6021 -0.7985
 6783TIP3   OH241907   4.092   3.520   7.169 -0.0974  0.3553 -0.3983
 6783TIP3    H141908   4.188   3.521   7.172 -0.0608 -0.8513 -0.7277
 6783TIP3    H241909   4.071   3.582   7.098  0.5124 -0.5052 -1.3627
 6784TIP3   OH241910   2.524   6.396   6.708  0.0153 -1.1052 -0.5574
 6784TIP3    H141911   2.486   6.406   6.621  0.4370 -0.8573 -0.7155
 6784TIP3    H241912   2.573   6.477   6.723 -1.9961 -0.0628  0.8957
 6785TIP3   OH241913   1.040   5.348   8.355 -0.2115 -0.0563 -0.4113
 6785TIP3    H141914   1.027   5.437   8.321  0.8643  0.8783  1.4931
 6785TIP3    H241915   0.952   5.320   8.382 -0.3910  0.9122  0.0590
 6786TIP3   OH241916   2.095   2.802   0.259 -0.4180  0.4144 -0.2855
 6786TIP3    H141917   2.043   2.840   0.188 -1.4110  0.2031  0.3132
 6786TIP3    H241918   2.096   2.708   0.242 -1.2910  0.2721  0.3647
 6787TIP3   OH241919   4.926   5.096   8.525  0.1495 -0.2283 -0.4216
 6787TIP3    H141920   4.976   5.087   8.607  0.7621  1.1310 -0.6079
 6787TIP3    H241921   4.970   5.037   8.464  0.2694 -0.5477 -0.0360
 6788TIP3   OH241922   4.865   2.949   1.329  0.3661 -0.1494 -0.0302
 6788TIP3    H141923   4.839   2.862   1.300 -1.4820  0.2946  0.2010
 6788TIP3    H241924   4.911   2.935   1.412  0.1037 -0.8983 -0.0103
 6789TIP3   OH241925   1.031   4.183   8.593 -0.3544  0.2031  0.1108
 6789TIP3    H141926   1.089   4.136   8.533 -1.3047 -1.1813  0.2288
 6789TIP3    H241927   0.971   4.230   8.536 -0.3302  0.0758 -0.0227
 6790TIP3   OH241928   5.454   4.670   0.127 -0.1506 -0.5163  0.1371
 6790TIP3    H141929   5.524   4.669   0.062 -0.9975 -2.8399 -0.8359
 6790TIP3    H241930   5.398   4.744   0.102 -0.1068 -0.9774 -1.3854
 6791TIP3   OH241931   1.020   4.803   0.775 -0.6741 -0.0752 -0.1455
 6791TIP3    H141932   0.958   4.833   0.709 -0.7099 -0.8523 -0.4778
 6791TIP3    H241933   1.084   4.874   0.782 -0.9056  0.1974 -0.7152
 6792TIP3   OH241934   3.761   1.760   8.407 -0.4640  0.2833  0.5802
 6792TIP3    H141935   3.778   1.701   8.481  0.1385 -1.1197 -0.6075
 6792TIP3    H241936   3.711   1.706   8.346  0.0311  1.0390 -0.5096
 6793TIP3   OH241937   3.781   5.678   8.043  0.2706 -0.3454 -0.8115
 6793TIP3    H141938   3.851   5.626   8.082  1.4869  0.2656 -2.0641
 6793TIP3    H241939   3.710   5.615   8.027  1.0601 -1.2742 -0.7754
 6794TIP3   OH241940   2.934   3.091   0.731 -0.0022 -0.4630  0.0527
 6794TIP3    H141941   2.978   3.034   0.794 -0.2436 -1.2681 -0.4973
 6794TIP3    H241942   2.958   3.056   0.645  0.1637  0.4996 -0.3149
 6795TIP3   OH241943   0.585   5.809   2.194  0.2934  0.5386 -0.6178
 6795TIP3    H141944   0.644   5.746   2.236  1.0975  1.6801  0.0139
 6795TIP3    H241945   0.498   5.783   2.223  0.6545 -0.0310 -0.0205
 6796TIP3   OH241946   4.326   6.702   7.461  0.4126 -0.2970  0.1392
 6796TIP3    H141947   4.361   6.740   7.541  0.0531 -1.6386  0.9566
 6796TIP3    H241948   4.404   6.672   7.413  0.6356  0.6236 -0.0980
 6797TIP3   OH241949   2.361   3.931   8.590  0.2047  0.3906 -0.2397
 6797TIP3    H141950   2.338   3.840   8.569  0.8507 -0.0599  0.8894
 6797TIP3    H241951   2.453   3.926   8.618  0.2598  1.4029 -0.1993
 6798TIP3   OH241952   5.559   5.108   7.111 -0.8954  0.1689 -0.0076
 6798TIP3    H141953   5.642   5.114   7.159  0.0665 -0.8052 -1.4554
 6798TIP3    H241954   5.569   5.168   7.038 -1.6724  0.3893  0.0594
 6799TIP3   OH241955   4.095   1.620   6.735 -0.6936  0.1140  0.7448
 6799TIP3    H141956   4.147   1.596   6.811 -2.5477  0.1373  2.0934
 6799TIP3    H241957   4.104   1.715   6.728  1.3603 -0.1259 -0.5579
 6800TIP3   OH241958   1.159   2.168   8.334 -0.6737  0.2076  0.1208
 6800TIP3    H141959   1.224   2.182   8.265  0.4255  0.3082  1.1543
 6800TIP3    H241960   1.075   2.168   8.287 -0.2093  2.8561 -0.9456
 6801TIP3   OH241961   2.839   5.378   0.105 -0.0112 -0.1829  0.1593
 6801TIP3    H141962   2.858   5.464   0.068 -1.6227 -0.5253 -1.6513
 6801TIP3    H241963   2.921   5.330   0.099 -0.1073 -0.1350 -2.9355
 6802TIP3   OH241964   4.205   5.988   7.017 -0.0933 -0.9163 -0.2371
 6802TIP3    H141965   4.236   5.902   7.045 -0.9266 -0.7836  1.2265
 6802TIP3    H241966   4.125   5.969   6.968 -0.1620 -0.9978 -0.0967
 6803TIP3   OH241967   3.131   3.913   7.201  0.2201 -0.0618  0.1591
 6803TIP3    H141968   3.097   3.979   7.263 -0.4623  0.0877 -0.3579
 6803TIP3    H241969   3.109   3.829   7.241  2.4445 -0.0444  1.5758
 6804TIP3   OH241970   4.230   1.159   1.452  0.3990 -0.1842  0.0786
 6804TIP3    H141971   4.269   1.207   1.525  0.3631 -0.4858  0.2976
 6804TIP3    H241972   4.167   1.219   1.414  1.2195  0.3894 -0.4053
 6805TIP3   OH241973   5.471   2.452   8.444  0.1093 -0.2918 -0.0438
 6805TIP3    H141974   5.474   2.497   8.359  0.8200 -2.8215 -1.4497
 6805TIP3    H241975   5.458   2.523   8.507 -1.0731  1.6430 -2.2766
 6806TIP3   OH241976   6.667   1.908   0.257 -0.0386 -0.0008 -0.0260
 6806TIP3    H141977   6.692   1.817   0.270 -0.1545 -0.0423 -0.0928
 6806TIP3    H241978   6.640   1.913   0.165  0.8428  0.3063 -0.2833
 6807TIP3   OH241979   2.703   5.424   0.882  0.4307 -0.2312  0.3197
 6807TIP3    H141980   2.725   5.359   0.948  4.2803  0.0518 -0.4109
 6807TIP3    H241981   2.784   5.475   0.871 -1.4517  2.7031 -1.3308
 6808TIP3   OH241982   1.973   6.801   0.251 -0.1595  0.1130 -0.1384
 6808TIP3    H141983   1.989   6.756   0.334  4.1534 -0.7091 -1.1822
 6808TIP3    H241984   1.989   6.894   0.270 -1.5621  0.2838  0.3650
 6809TIP3   OH241985   1.872   5.106   8.659 -0.0965 -0.1053 -0.1235
 6809TIP3    H141986   1.843   5.031   8.711  0.3147  2.1840  3.7961
 6809TIP3    H241987   1.797   5.125   8.602 -1.0821 -2.1019  0.3994
 6810TIP3   OH241988   5.919   5.399   6.957 -0.0386 -0.3853  0.1221
 6810TIP3    H141989   6.011   5.425   6.952 -0.0507 -0.5752 -1.3235
 6810TIP3    H241990   5.895   5.375   6.868 -1.8794  0.9058  0.2086
 6811TIP3   OH241991   6.047   6.154   7.391 -0.3274  0.7443  0.2487
 6811TIP3    H141992   6.121   6.147   7.452 -1.1404  1.2572  1.3272
 6811TIP3    H241993   6.014   6.065   7.383 -1.2055  0.8802  1.8687
 6812TIP3   OH241994   4.298   4.184   0.318  0.3906  0.6143  0.1904
 6812TIP3    H141995   4.317   4.117   0.253  1.6690  0.5837  0.5766
 6812TIP3    H241996   4.302   4.267   0.268  1.3713  0.5927  0.2098
 6813TIP3   OH241997   0.836   1.625   1.659  0.3603  0.3602 -0.1840
 6813TIP3    H141998   0.865   1.610   1.570  0.1840 -1.9880  0.1054
 6813TIP3    H241999   0.901   1.685   1.696  2.1524 -1.0175 -0.9916
 6814TIP3   OH242000   3.633   6.554   1.184 -0.0002  0.4853  0.2860
 6814TIP3    H142001   3.655   6.475   1.233  0.9662 -0.0863 -1.0045
 6814TIP3    H242002   3.550   6.534   1.142  0.1799  0.1928  0.0665
 6815TIP3   OH242003   6.047   4.348   6.686  0.6612 -0.0707 -0.0625
 6815TIP3    H142004   6.039   4.376   6.594  0.8395 -2.0042 -0.7139
 6815TIP3    H242005   5.959   4.316   6.708  1.2343 -2.0684 -0.4682
 6816TIP3   OH242006   3.363   3.961   1.903 -0.4651  0.2275 -0.1134
 6816TIP3    H142007   3.402   3.895   1.846  1.6529 -0.1643  1.6048
 6816TIP3    H242008   3.382   3.930   1.992 -1.0502  2.2148  0.7792
 6817TIP3   OH242009   3.704   1.552   8.121 -0.3598 -0.1142  0.6743
 6817TIP3    H142010   3.685   1.486   8.053 -1.2715  0.7687  0.0305
 6817TIP3    H242011   3.781   1.597   8.089  0.2763 -0.8599  1.1240
 6818TIP3   OH242012   5.799   3.538   7.563 -0.3317 -0.0204 -0.2568
 6818TIP3    H142013   5.841   3.585   7.635  0.5768 -1.1069 -0.0449
 6818TIP3    H242014   5.783   3.450   7.599  0.5240 -0.7088 -1.5023
 6819TIP3   OH242015   4.443   5.230   0.094  0.3338 -0.3074  0.2707
 6819TIP3    H142016   4.521   5.280   0.069  0.5412 -0.3261  0.8574
 6819TIP3    H242017   4.457   5.143   0.057  0.9414 -0.5271  0.9967
 6820TIP3   OH242018   5.372   5.358   6.498 -0.2612 -0.3007  0.1322
 6820TIP3    H142019   5.290   5.389   6.535  0.3942  2.2928 -0.3987
 6820TIP3    H242020   5.357   5.356   6.403 -0.1909 -1.4081  0.1296
 6821TIP3   OH242021   0.580   3.678   8.534  0.9373 -0.5645 -0.2646
 6821TIP3    H142022   0.607   3.704   8.446 -0.9148 -0.9179 -0.9803
 6821TIP3    H242023   0.503   3.623   8.520  0.3803 -0.3217  1.6060
 6822TIP3   OH242024   0.086   0.220   8.610  0.2471  0.0241 -0.7312
 6822TIP3    H142025   0.033   0.159   8.557 -1.6154  1.2109 -0.3256
 6822TIP3    H242026   0.024   0.287   8.638  2.2133  2.0796 -1.0719
 6823TIP3   OH242027   0.652   6.069   2.139 -0.4596 -0.6627  0.4657
 6823TIP3    H142028   0.617   6.147   2.182  1.4470 -0.3659  1.5819
 6823TIP3    H242029   0.580   6.006   2.141 -2.1434  1.0884 -0.6925
 6824TIP3   OH242030   0.324   0.784   1.002  0.1814  0.2975 -0.8041
 6824TIP3    H142031   0.336   0.760   1.094  0.5453  0.5978 -0.7726
 6824TIP3    H242032   0.385   0.856   0.987 -0.2892  0.6369 -1.1279
 6825TIP3   OH242033   2.107   2.096   8.376 -0.0906  0.5107  0.1462
 6825TIP3    H142034   2.153   2.116   8.458 -3.2063 -0.0711  2.2253
 6825TIP3    H242035   2.071   2.008   8.389  0.2945 -0.0939 -2.3886
 6826TIP3   OH242036   6.135   2.301   2.151 -0.6300 -0.0646  0.4195
 6826TIP3    H142037   6.137   2.397   2.144 -0.9976 -0.1680 -2.1733
 6826TIP3    H242038   6.050   2.276   2.114  0.4714 -1.4555 -1.3624
 6827TIP3   OH242039   5.929   3.580   6.831 -0.4829 -0.2633  0.1656
 6827TIP3    H142040   5.982   3.509   6.794 -0.3731  0.2018 -0.5922
 6827TIP3    H242041   5.951   3.580   6.925 -0.4918 -1.2283  0.1760
 6828TIP3   OH242042   0.803   1.391   0.457 -0.4934 -0.0080  0.0689
 6828TIP3    H142043   0.768   1.325   0.396 -0.2121 -0.0160 -0.0892
 6828TIP3    H242044   0.813   1.469   0.403  0.2154 -0.1509 -0.0219
 6829TIP3   OH242045   4.477   0.796   6.830 -0.0398 -0.1320 -0.0658
 6829TIP3    H142046   4.433   0.724   6.785  0.9270 -0.5071 -0.4196
 6829TIP3    H242047   4.409   0.864   6.837 -0.5675 -0.5493 -0.9574
 6830TIP3   OH242048   3.899   1.946   1.584 -0.3824 -0.0318  0.1901
 6830TIP3    H142049   3.867   1.858   1.564 -0.4229 -0.0928  0.5187
 6830TIP3    H242050   3.959   1.933   1.657  1.5750 -0.1425 -1.3376
 6831TIP3   OH242051   0.850   6.348   7.560 -0.2618 -0.1732  0.0334
 6831TIP3    H142052   0.823   6.272   7.612 -0.0528  0.2603  0.8061
 6831TIP3    H242053   0.886   6.312   7.480 -1.5549 -0.8293 -0.2782
 6832TIP3   OH242054   1.677   4.775   0.560 -0.3520  0.0398  0.2894
 6832TIP3    H142055   1.626   4.799   0.638 -1.1562  0.1522 -0.2668
 6832TIP3    H242056   1.722   4.694   0.585 -1.1008 -0.2680  0.6537
 6833TIP3   OH242057   6.391   2.413   8.006  0.3595 -0.0746 -0.0365
 6833TIP3    H142058   6.387   2.321   7.979  1.2098 -0.3667  0.7937
 6833TIP3    H242059   6.374   2.462   7.925 -1.1528 -0.9500 -0.2931
 6834TIP3   OH242060   1.661   6.120   8.595 -0.2830 -0.2257 -0.4839
 6834TIP3    H142061   1.745   6.137   8.637 -1.4997 -0.8699  2.4298
 6834TIP3    H242062   1.610   6.200   8.611 -0.5250 -0.1617 -1.5042
 6835TIP3   OH242063   2.465   5.002   7.379  0.4440  0.3789 -0.8589
 6835TIP3    H142064   2.544   4.956   7.349  0.1467 -0.9798  0.3561
 6835TIP3    H242065   2.494   5.053   7.454 -0.0251 -1.0973  0.3840
 6836TIP3   OH242066   1.099   6.627   8.084  0.2162 -0.4580 -0.1022
 6836TIP3    H142067   1.020   6.586   8.049  1.0848 -1.7972 -0.5616
 6836TIP3    H242068   1.112   6.706   8.031  0.7650 -1.7407 -1.9530
 6837TIP3   OH242069   2.628   3.493   7.502 -0.5814  0.3090  0.0824
 6837TIP3    H142070   2.608   3.524   7.591  3.3400 -0.3156  1.3848
 6837TIP3    H242071   2.616   3.570   7.447 -0.9725  1.3297  1.5240
 6838TIP3   OH242072   2.321   0.528   8.129 -0.4647  0.0772  0.3044
 6838TIP3    H142073   2.287   0.611   8.098 -0.8795  0.4973  1.7906
 6838TIP3    H242074   2.326   0.538   8.224  0.1569 -1.3449  0.4525
 6839TIP3   OH242075   4.798   0.745   0.470 -0.1274 -0.1370  0.6567
 6839TIP3    H142076   4.798   0.734   0.565  2.2487 -0.0599  0.7161
 6839TIP3    H242077   4.738   0.678   0.438 -2.2148  0.8347  2.2550
 6840TIP3   OH242078   5.846   6.112   6.261 -0.4895 -0.2691 -0.4976
 6840TIP3    H142079   5.917   6.049   6.271 -0.4776 -0.4362 -1.5227
 6840TIP3    H242080   5.865   6.180   6.325  0.0324 -0.8220 -0.0543
 6841TIP3   OH242081   6.342   0.731   7.862  0.2010 -0.0411  0.0709
 6841TIP3    H142082   6.410   0.669   7.888  0.0085 -0.5678 -0.6294
 6841TIP3    H242083   6.282   0.679   7.809 -0.2946  0.6123 -0.0209
 6842TIP3   OH242084   5.465   3.693   8.053 -0.3098 -0.3303 -0.0562
 6842TIP3    H142085   5.394   3.735   8.005 -0.5396 -0.4458  0.1812
 6842TIP3    H242086   5.545   3.725   8.010 -0.5135 -0.5584 -0.6141
 6843TIP3   OH242087   3.780   0.261   7.286 -0.6586 -1.1839 -0.4865
 6843TIP3    H142088   3.803   0.179   7.329  3.3333  0.2549  0.5334
 6843TIP3    H242089   3.701   0.291   7.333 -1.2148 -3.5499  0.2250
 6844TIP3   OH242090   4.517   6.582   7.308  0.2449 -0.4050  0.5210
 6844TIP3    H142091   4.579   6.655   7.311  1.6700 -1.4910 -0.7910
 6844TIP3    H242092   4.570   6.507   7.281 -1.5865 -1.4728 -0.2877
 6845TIP3   OH242093   0.637   1.457   8.081  0.0048  0.9377  0.3159
 6845TIP3    H142094   0.658   1.487   7.993  0.2910 -1.0949 -0.3457
 6845TIP3    H242095   0.545   1.482   8.093  0.2534  2.1264 -0.1419
 6846TIP3   OH242096   1.770   3.681   7.845 -0.0579 -0.4483  0.9844
 6846TIP3    H142097   1.708   3.667   7.916  0.2301 -1.1692  1.0969
 6846TIP3    H242098   1.723   3.653   7.766 -0.1302 -0.3077  0.9770
 6847TIP3   OH242099   4.584   2.512   0.190 -0.2234 -0.2320 -0.4385
 6847TIP3    H142100   4.666   2.552   0.219 -0.0163  0.3361 -1.7329
 6847TIP3    H242101   4.604   2.419   0.182  0.5890  0.0409 -1.6965
 6848TIP3   OH242102   1.164   1.364   6.826  0.1549  0.5492  0.5635
 6848TIP3    H142103   1.109   1.408   6.761 -0.7634  0.6738  1.4147
 6848TIP3    H242104   1.227   1.431   6.853  0.2431  0.6369  0.1464
 6849TIP3   OH242105   0.017   6.129   6.859 -0.3745 -0.3665  0.1361
 6849TIP3    H142106  -0.016   6.134   6.769 -0.6199 -0.4352  0.2218
 6849TIP3    H242107   0.112   6.128   6.849 -0.3806  0.5714 -0.0722
 6850TIP3   OH242108   3.565   2.370   1.085 -0.3312 -0.2902  0.1677
 6850TIP3    H142109   3.566   2.404   1.174  4.0352 -0.8040  0.5240
 6850TIP3    H242110   3.630   2.299   1.086 -0.7015 -0.8319 -3.2449
 6851TIP3   OH242111   2.187   4.618   8.388  0.4610  0.6055  0.1646
 6851TIP3    H142112   2.145   4.642   8.470  0.8708 -1.6246  1.0880
 6851TIP3    H242113   2.271   4.664   8.390 -0.4352  2.3271 -0.0892
 6852TIP3   OH242114   3.011   6.232   1.265  0.4461  0.5136  0.5186
 6852TIP3    H142115   3.057   6.263   1.343 -0.4066  0.5204  1.0372
 6852TIP3    H242116   2.922   6.213   1.296 -0.1490  1.3223 -0.6177
 6853TIP3   OH242117   0.348   1.110   8.072 -0.0031 -0.5597  0.5579
 6853TIP3    H142118   0.356   1.015   8.062  1.5778 -0.4298  0.3467
 6853TIP3    H242119   0.418   1.133   8.133 -0.2963  0.4885  0.5123
 6854TIP3   OH242120   1.291   1.627   0.222 -0.0652  0.1532 -0.0295
 6854TIP3    H142121   1.228   1.573   0.269 -1.4921  0.4337 -1.5471
 6854TIP3    H242122   1.273   1.716   0.251  1.2451  0.0381  1.2856
 6855TIP3   OH242123   5.924   1.417   6.563 -0.1772 -0.2893  0.1129
 6855TIP3    H142124   5.941   1.394   6.472 -1.5222 -1.1787  0.0648
 6855TIP3    H242125   5.899   1.334   6.605  0.7692  0.0346  1.3926
 6856TIP3   OH242126   2.469   3.298   1.721 -0.3967 -0.1555  0.0305
 6856TIP3    H142127   2.459   3.355   1.645 -1.9218  0.7632  0.8838
 6856TIP3    H242128   2.504   3.355   1.790 -1.0943 -0.4483  0.6371
 6857TIP3   OH242129   2.883   4.038   7.081 -0.3630  0.0570 -0.0451
 6857TIP3    H142130   2.854   3.976   7.014  0.9839 -1.0527  0.3459
 6857TIP3    H242131   2.957   3.994   7.124  1.0480  2.1685 -0.1450
 6858TIP3   OH242132   4.127   0.621   1.852  0.3181 -0.3307 -0.1013
 6858TIP3    H142133   4.148   0.545   1.799  1.4713 -0.8993  1.1165
 6858TIP3    H242134   4.211   0.662   1.870 -0.2794  1.2448 -0.7041
 6859TIP3   OH242135   0.983   3.561   7.416 -0.0250  0.9031  0.4178
 6859TIP3    H142136   1.027   3.640   7.386 -0.7646  0.3179 -2.6295
 6859TIP3    H242137   1.051   3.494   7.417  0.0988  1.0300  0.4756
 6860TIP3   OH242138   4.056   5.622   0.676  0.0787 -0.2857 -0.3622
 6860TIP3    H142139   4.129   5.590   0.623  0.2572 -2.3346  1.0110
 6860TIP3    H242140   3.978   5.584   0.637  0.1181 -1.0217  0.2557
 6861TIP3   OH242141   4.965   6.335   7.275 -0.3101 -0.3220  0.1388
 6861TIP3    H142142   5.037   6.318   7.213  0.0996 -1.6526  0.9243
 6861TIP3    H242143   4.977   6.426   7.302  2.4420 -1.0797  1.8680
 6862TIP3   OH242144   2.419   4.565   6.554  0.4223  0.1801 -0.0486
 6862TIP3    H142145   2.402   4.555   6.648 -0.1843  0.2347 -0.1492
 6862TIP3    H242146   2.374   4.646   6.530  1.1283  0.5227 -0.2599
 6863TIP3   OH242147   2.130   5.116   8.558  0.6311 -0.1588  0.4088
 6863TIP3    H142148   2.175   5.037   8.588  2.4942  0.7958  0.2725
 6863TIP3    H242149   2.055   5.125   8.617 -0.3510 -2.6518 -0.3308
 6864TIP3   OH242150   3.934   6.098   8.419  0.4513 -0.0156  0.5251
 6864TIP3    H142151   3.867   6.078   8.484  0.9733 -2.5821  0.3987
 6864TIP3    H242152   4.017   6.085   8.465  0.8875  1.4487  0.2174
 6865TIP3   OH242153   5.131   5.290   7.776  0.3682 -0.3839  0.3511
 6865TIP3    H142154   5.093   5.350   7.841 -1.5077 -1.1035 -0.0064
 6865TIP3    H242155   5.161   5.347   7.706 -0.0689  0.2323  0.6565
 6866TIP3   OH242156   6.698   0.469   0.570 -0.0781  0.4815 -0.4678
 6866TIP3    H142157   6.770   0.462   0.632 -0.3334 -0.9389 -0.2981
 6866TIP3    H242158   6.676   0.378   0.547 -0.4658  0.9361 -2.0819
 6867TIP3   OH242159   1.627   1.658   8.448 -0.0119 -0.0845  0.1841
 6867TIP3    H142160   1.609   1.567   8.424  1.5158 -0.1960 -0.6172
 6867TIP3    H242161   1.617   1.706   8.366 -0.5839  0.4444  0.5593
 6868TIP3   OH242162   1.632   4.463   2.001  0.0976  0.0335  0.1419
 6868TIP3    H142163   1.646   4.383   2.052  2.6190  1.0296  1.2112
 6868TIP3    H242164   1.711   4.471   1.946  0.5119  2.3135  0.9227
 6869TIP3   OH242165   3.292   4.114   7.516  0.0923  0.7046 -0.1437
 6869TIP3    H142166   3.215   4.136   7.463 -0.4590  0.2102  0.4467
 6869TIP3    H242167   3.276   4.156   7.601  0.0253 -0.1900  0.2955
 6870TIP3   OH242168   1.355   3.248   8.653 -0.0069 -0.3021 -0.1893
 6870TIP3    H142169   1.300   3.261   8.576 -1.3041  0.2617  0.8030
 6870TIP3    H242170   1.419   3.319   8.649 -0.6033  0.2413 -0.2997
 6871TIP3   OH242171   4.959   0.644   1.034  0.6668  0.0445  0.1135
 6871TIP3    H142172   4.997   0.559   1.011  0.8824  0.0747  0.3472
 6871TIP3    H242173   4.911   0.627   1.115 -0.6764 -0.2199 -0.7142
 6872TIP3   OH242174   5.501   2.884   1.761  0.0165 -0.1923  0.3128
 6872TIP3    H142175   5.439   2.824   1.803  0.9195 -0.2497  1.6078
 6872TIP3    H242176   5.507   2.852   1.671 -0.7124 -1.0861  0.5627
 6873TIP3   OH242177   2.730   5.047   1.520  0.1229  0.4674  0.5605
 6873TIP3    H142178   2.788   5.094   1.580  0.8511  0.1926  0.0944
 6873TIP3    H242179   2.706   4.968   1.566  1.7663 -0.3995  0.0113
 6874TIP3   OH242180   6.014   1.880   0.909 -0.2144 -0.3547 -0.4176
 6874TIP3    H142181   5.950   1.928   0.962  0.9093  0.3542  0.3562
 6874TIP3    H242182   6.051   1.946   0.851 -0.4507 -0.8440 -1.1415
 6875TIP3   OH242183   0.514   6.548   6.917  0.0593 -0.1127 -0.0096
 6875TIP3    H142184   0.584   6.610   6.936  0.3852 -0.8532  1.3426
 6875TIP3    H242185   0.546   6.497   6.842  0.1284  0.8136 -0.6169
 6876TIP3   OH242186   0.117   2.430   7.262  0.3787  0.2522 -0.3944
 6876TIP3    H142187   0.135   2.348   7.217 -1.8842  0.0632 -1.0794
 6876TIP3    H242188   0.149   2.416   7.352  0.6059 -1.1117 -0.6676
 6877TIP3   OH242189   3.870   3.168   7.449 -0.1223 -0.1000 -0.3418
 6877TIP3    H142190   3.808   3.183   7.378  0.1573  1.1858 -0.3461
 6877TIP3    H242191   3.922   3.248   7.452  0.4026 -0.4660  0.7817
 6878TIP3   OH242192   2.998   2.193   6.205  0.3904 -0.1322  0.2614
 6878TIP3    H142193   3.065   2.215   6.140 -1.2541  2.7344 -0.6493
 6878TIP3    H242194   3.007   2.259   6.273 -0.6149 -0.5295  0.8038
 6879TIP3   OH242195   3.309   4.362   7.751 -0.4944 -0.0713 -0.1741
 6879TIP3    H142196   3.298   4.417   7.828 -1.2709  0.2431 -0.5037
 6879TIP3    H242197   3.398   4.380   7.721 -0.9607  1.5429 -0.6831
 6880TIP3   OH242198   0.787   3.897   7.187  0.1267  0.0354  0.2665
 6880TIP3    H142199   0.768   3.964   7.122 -0.1085 -0.0698  0.2251
 6880TIP3    H242200   0.864   3.851   7.152 -0.0980 -0.1288 -0.0252
 6881TIP3   OH242201   1.393   5.025   7.721  0.0439  0.2085 -0.0350
 6881TIP3    H142202   1.441   5.096   7.678  1.1497  0.5738  1.7135
 6881TIP3    H242203   1.310   5.019   7.672  1.9080 -0.6918 -3.3729
 6882TIP3   OH242204   3.693   3.116   0.885 -0.0363 -0.1992 -0.2014
 6882TIP3    H142205   3.621   3.119   0.949  0.4830 -0.2016  0.3902
 6882TIP3    H242206   3.772   3.118   0.939  0.4160  0.4797 -0.8763
 6883TIP3   OH242207   0.518   5.931   2.457  0.2134 -0.2880 -0.0541
 6883TIP3    H142208   0.460   6.004   2.476  2.0260  1.1511  0.2797
 6883TIP3    H242209   0.516   5.922   2.362 -0.2958 -0.0605 -0.0673
 6884TIP3   OH242210   2.948   1.366   1.525 -0.3060 -0.3725 -0.0540
 6884TIP3    H142211   2.947   1.271   1.510 -2.6729 -0.6466  1.4324
 6884TIP3    H242212   2.978   1.403   1.442 -0.8240 -2.3375 -1.1785
 6885TIP3   OH242213   3.837   3.410   0.502  0.1328  0.0278  0.6001
 6885TIP3    H142214   3.843   3.504   0.519  2.8833  0.5788 -2.4483
 6885TIP3    H242215   3.790   3.403   0.419 -1.5102 -1.5034  1.5773
 6886TIP3   OH242216   3.918   2.901   0.108  0.0682  0.3169  0.6041
 6886TIP3    H142217   3.981   2.953   0.159 -0.1011  1.7966 -0.6398
 6886TIP3    H242218   3.918   2.941   0.021 -1.3369 -0.7285  0.0869
 6887TIP3   OH242219   6.692   4.982   0.628  0.3264  0.0672 -0.0541
 6887TIP3    H142220   6.674   4.960   0.536  0.1069  0.8581 -0.2078
 6887TIP3    H242221   6.662   5.072   0.637  0.3268 -0.0115  0.8065
 6888TIP3   OH242222   5.307   4.249   0.713 -0.5055 -0.2880 -0.1668
 6888TIP3    H142223   5.301   4.205   0.798  0.5271 -1.1699 -0.5263
 6888TIP3    H242224   5.347   4.333   0.732 -0.8638 -0.2152  0.2930
 6889TIP3   OH242225   0.998   0.493   0.323 -0.7515  0.6834  0.3943
 6889TIP3    H142226   1.031   0.581   0.338 -0.4005  0.1453  3.4863
 6889TIP3    H242227   0.917   0.506   0.274  0.4903  2.4912 -1.3263
 6890TIP3   OH242228   1.993   2.933   8.182 -0.3069  0.1523  0.1772
 6890TIP3    H142229   1.982   3.004   8.118  1.2959 -0.0253 -0.3240
 6890TIP3    H242230   2.047   2.972   8.251 -0.1721 -0.3239  0.3404
 6891TIP3   OH242231   4.397   2.114   8.212  0.2291  0.8753 -0.6083
 6891TIP3    H142232   4.472   2.122   8.271 -0.5537  2.0816  0.2768
 6891TIP3    H242233   4.352   2.197   8.220 -0.6344  0.5628 -1.9414
 6892TIP3   OH242234   5.092   3.792   7.633  0.1036 -0.2285  0.0057
 6892TIP3    H142235   5.038   3.755   7.703  0.8824  0.1019  0.7917
 6892TIP3    H242236   5.147   3.720   7.605  0.2681 -0.1777  0.2005
 6893TIP3   OH242237   1.259   6.043   0.858 -0.1344 -0.2187 -0.2353
 6893TIP3    H142238   1.202   6.110   0.820  0.3850 -0.1153 -0.8422
 6893TIP3    H242239   1.260   5.973   0.794  1.3483  0.2766 -0.7965
 6894TIP3   OH242240   0.536   2.476   8.154  0.0892 -0.0161 -0.1036
 6894TIP3    H142241   0.546   2.570   8.171  0.0669  0.2498 -1.4266
 6894TIP3    H242242   0.447   2.456   8.180 -0.1322  0.4907 -0.4605
 6895TIP3   OH242243   3.289   1.277   1.738 -0.0498 -0.4706  0.8169
 6895TIP3    H142244   3.326   1.239   1.818 -1.9530  0.8392  2.4138
 6895TIP3    H242245   3.238   1.206   1.700  2.1456 -1.6079 -0.2081
 6896TIP3   OH242246   3.127   4.161   7.791  0.4942  0.4396 -0.3644
 6896TIP3    H142247   3.198   4.223   7.775  1.5263 -0.6321 -0.1319
 6896TIP3    H242248   3.052   4.196   7.742  1.0328  1.8535 -0.2187
 6897TIP3   OH242249   5.073   2.700   6.761 -0.2964  0.2087  0.4128
 6897TIP3    H142250   5.011   2.628   6.753  0.6875 -0.6113 -0.1221
 6897TIP3    H242251   5.045   2.747   6.839  0.2750 -2.0228  2.0759
 6898TIP3   OH242252   2.512   4.370   6.912  0.4388  0.0129  0.0232
 6898TIP3    H142253   2.572   4.368   6.837  2.8821  0.3703  1.8235
 6898TIP3    H242254   2.570   4.371   6.988 -1.8115  2.9963  1.9240
 6899TIP3   OH242255   5.631   5.606   8.079  0.0442  0.6815 -0.1381
 6899TIP3    H142256   5.601   5.522   8.046  1.3310  0.1334  0.0213
 6899TIP3    H242257   5.672   5.586   8.163 -2.4262  1.9342  1.4743
 6900TIP3   OH242258   6.024   2.260   7.644  0.1034  0.0608  0.2697
 6900TIP3    H142259   6.031   2.290   7.554  3.1891  1.7880  0.9291
 6900TIP3    H242260   6.026   2.165   7.639 -0.8872  0.1089 -1.5096
 6901TIP3   OH242261   0.957   0.962   0.049  0.3772  0.0812  0.2627
 6901TIP3    H142262   0.887   0.898   0.038  1.1701 -0.9275  0.8134
 6901TIP3    H242263   1.017   0.944  -0.023  0.1912  0.7848 -0.0746
 6902TIP3   OH242264   2.938   4.598   1.694  0.1100  0.0580 -0.6779
 6902TIP3    H142265   2.999   4.583   1.766  0.8148 -0.6905 -1.4084
 6902TIP3    H242266   2.982   4.562   1.617 -0.5992  0.8992 -1.5020
 6903TIP3   OH242267   3.926   4.206   1.337  0.1833 -0.4483 -0.0837
 6903TIP3    H142268   3.875   4.131   1.306  3.1421 -2.7104  0.0460
 6903TIP3    H242269   3.955   4.181   1.424  0.6946  1.1734  0.2450
 6904TIP3   OH242270   3.676   2.861   0.599  0.3930 -0.4458  0.4211
 6904TIP3    H142271   3.666   2.800   0.526  1.6577  0.6100 -0.7113
 6904TIP3    H242272   3.768   2.889   0.594 -0.2335  1.8691  0.5603
 6905TIP3   OH242273   4.492   0.599   8.343 -0.5562  0.3146 -0.5636
 6905TIP3    H142274   4.429   0.537   8.306 -0.6269  0.7255 -1.1350
 6905TIP3    H242275   4.572   0.585   8.292  0.4024 -1.4048  1.2281
 6906TIP3   OH242276   5.741   1.954   7.741  0.3237  0.2645 -0.2643
 6906TIP3    H142277   5.712   1.863   7.736  0.3791  0.3046 -1.8623
 6906TIP3    H242278   5.816   1.952   7.800  0.6774 -0.8374 -0.7120
 6907TIP3   OH242279   2.685   0.377   7.572 -0.3216 -0.2036 -0.5420
 6907TIP3    H142280   2.718   0.350   7.486 -0.1618  0.2823 -0.6353
 6907TIP3    H242281   2.717   0.466   7.583 -1.7466  0.3555 -0.7135
 6908TIP3   OH242282   6.391   6.165   0.461  0.0841 -0.3216  0.1681
 6908TIP3    H142283   6.333   6.184   0.388 -0.4882 -0.9513  0.4511
 6908TIP3    H242284   6.384   6.241   0.519  3.3519  2.0042 -2.1115
 6909TIP3   OH242285   1.479   0.442   1.738 -0.6732  0.3313 -0.0473
 6909TIP3    H142286   1.460   0.401   1.822 -1.8885  0.5301 -0.2144
 6909TIP3    H242287   1.426   0.393   1.675 -1.7184  1.7834 -0.3287
 6910TIP3   OH242288   6.080   0.969   8.646 -0.0943 -0.2697 -0.1646
 6910TIP3    H142289   6.006   0.981   8.586  1.4542 -1.1543 -2.3774
 6910TIP3    H242290   6.116   0.884   8.623  1.8596  0.3104  0.5627
 6911TIP3   OH242291   5.265   5.766   0.487 -0.0809 -0.3264  0.0585
 6911TIP3    H142292   5.306   5.817   0.417 -0.0577 -0.7985 -0.2747
 6911TIP3    H242293   5.175   5.753   0.458 -0.1064 -0.4135  0.1747
 6912TIP3   OH242294   3.842   4.368   8.555  0.1637 -0.3546 -0.2708
 6912TIP3    H142295   3.867   4.458   8.535  0.9927 -0.5074  0.0197
 6912TIP3    H242296   3.816   4.331   8.471 -0.5997  0.2778 -0.3204
 6913TIP3   OH242297   6.181   5.674   8.036 -0.0847 -0.6004  0.6361
 6913TIP3    H142298   6.230   5.691   8.117 -0.1150 -1.3032  0.8067
 6913TIP3    H242299   6.092   5.656   8.065  0.2594 -2.5299  0.6070
 6914TIP3   OH242300   3.406   5.419   1.892  0.3934  0.2549 -0.3284
 6914TIP3    H142301   3.436   5.409   1.982 -0.4399 -0.6456 -0.1325
 6914TIP3    H242302   3.335   5.483   1.898  1.8070  1.9549 -0.7101
 6915TIP3   OH242303   3.982   2.316   8.464 -0.2668 -0.1120  0.0900
 6915TIP3    H142304   3.922   2.388   8.443 -0.0705  0.1331  0.3660
 6915TIP3    H242305   3.925   2.240   8.475 -0.6007  0.2633  1.0423
 6916TIP3   OH242306   2.145   5.963   6.779 -0.3048 -0.4373  0.1534
 6916TIP3    H142307   2.220   5.904   6.767  0.1436  0.0726  0.4009
 6916TIP3    H242308   2.115   5.981   6.690  1.5980  1.5347 -0.1555
 6917TIP3   OH242309   5.277   2.958   1.390 -0.4903 -0.9957 -0.1268
 6917TIP3    H142310   5.282   2.938   1.297  0.3802  0.0885 -0.3396
 6917TIP3    H242311   5.368   2.972   1.417 -0.7939 -0.3916  0.6621
 6918TIP3   OH242312   5.854   4.643   1.622  0.6667  0.0773 -0.2798
 6918TIP3    H142313   5.823   4.660   1.711  1.7918  0.2887  0.0919
 6918TIP3    H242314   5.941   4.684   1.619  0.8998 -0.4595 -1.2846
 6919TIP3   OH242315   0.940   0.458   8.154 -0.1282  0.4896  0.3598
 6919TIP3    H142316   1.012   0.410   8.194  0.6704  0.1831 -1.3895
 6919TIP3    H242317   0.869   0.393   8.149  0.1207  0.2182  0.2943
 6920TIP3   OH242318   4.817   3.361   8.432 -0.1968 -0.2312  0.1018
 6920TIP3    H142319   4.754   3.292   8.452 -0.0244 -0.3958  0.0787
 6920TIP3    H242320   4.809   3.374   8.337 -0.7773  0.3172  0.2188
 6921TIP3   OH242321   6.095   0.618   0.489  0.0113  0.3051  0.1076
 6921TIP3    H142322   6.058   0.648   0.572  1.6221  1.0859  0.5874
 6921TIP3    H242323   6.035   0.650   0.422 -1.1963 -0.1498  0.9467
 6922TIP3   OH242324   3.282   4.197   7.136 -0.0153 -0.1505 -0.3223
 6922TIP3    H142325   3.244   4.168   7.053 -1.1590 -0.9911  0.4688
 6922TIP3    H242326   3.239   4.144   7.202  0.5469  0.8224  0.8647
 6923TIP3   OH242327   4.355   2.411   2.114  0.0505  0.6014  0.2900
 6923TIP3    H142328   4.349   2.506   2.124 -1.7154  0.4260  1.3942
 6923TIP3    H242329   4.373   2.379   2.202 -2.1342 -0.2180  0.4917
 6924TIP3   OH242330   3.300   0.646   7.367  0.0276 -0.2991 -0.3884
 6924TIP3    H142331   3.290   0.645   7.272 -0.1419 -0.0265 -0.3763
 6924TIP3    H242332   3.251   0.724   7.395  0.1020 -0.3615 -0.0826
 6925TIP3   OH242333   4.060   1.063   7.523  0.3744 -0.0977  0.1545
 6925TIP3    H142334   4.025   1.021   7.601 -1.1836 -0.2575 -0.5892
 6925TIP3    H242335   3.998   1.134   7.504  1.5688  0.9173 -0.0651
 6926TIP3   OH242336   4.138   3.295   8.195 -0.1651  0.8693 -0.0916
 6926TIP3    H142337   4.168   3.365   8.253 -0.9465  0.1024  1.2828
 6926TIP3    H242338   4.096   3.341   8.122 -0.5405  1.8409  0.7166
 6927TIP3   OH242339   6.466   0.736   8.192 -0.1173 -0.2536 -0.3415
 6927TIP3    H142340   6.398   0.787   8.235  0.5586  1.7392 -1.4676
 6927TIP3    H242341   6.430   0.647   8.186 -1.6570  0.2284  1.0698
 6928TIP3   OH242342   2.819   2.442   6.228  0.5647  0.4983  0.0897
 6928TIP3    H142343   2.801   2.365   6.173 -1.9817  0.8594  0.2713
 6928TIP3    H242344   2.799   2.517   6.171  3.5964  1.1500 -0.2807
 6929TIP3   OH242345   3.888   5.295   0.757  0.3379 -0.4921  0.2646
 6929TIP3    H142346   3.925   5.344   0.683  0.7920 -1.0272  0.1360
 6929TIP3    H242347   3.802   5.266   0.726  0.4582 -0.5734  0.0061
 6930TIP3   OH242348   5.077   3.159   1.305  0.4839  0.2333 -0.0048
 6930TIP3    H142349   5.157   3.153   1.357 -1.4581  2.4895  3.7162
 6930TIP3    H242350   5.041   3.071   1.304  1.8239 -0.3355  0.3339
 6931TIP3   OH242351   1.486   2.968   6.709 -0.2411  0.0646 -0.1580
 6931TIP3    H142352   1.547   3.008   6.648 -0.7596  0.8970 -0.1384
 6931TIP3    H242353   1.540   2.905   6.758  0.8920  1.6082  0.6756
 6932TIP3   OH242354   5.448   1.015   8.221  0.2672  0.1340 -0.3875
 6932TIP3    H142355   5.533   1.027   8.264  0.5434 -0.8700 -0.6268
 6932TIP3    H242356   5.444   0.921   8.202 -0.7687  0.2201 -0.6517
 6933TIP3   OH242357   6.022   2.220   5.891 -0.8202 -0.1212 -0.1418
 6933TIP3    H142358   6.067   2.279   5.829  1.1775  0.8763  2.0767
 6933TIP3    H242359   6.048   2.133   5.863 -0.0624  0.2975 -0.8037
 6934TIP3   OH242360   1.877   3.196   0.817 -0.2461 -0.2339 -0.0831
 6934TIP3    H142361   1.830   3.220   0.897 -0.9566  0.2107 -0.6172
 6934TIP3    H242362   1.946   3.262   0.809 -0.0868 -0.3613  0.2333
 6935TIP3   OH242363   5.884   3.188   7.149 -0.0244  0.1016 -0.2600
 6935TIP3    H142364   5.872   3.237   7.230  0.1902 -1.1623  0.5667
 6935TIP3    H242365   5.932   3.247   7.091  0.6080  0.7090  0.8543
 6936TIP3   OH242366   3.396   5.172   0.941  0.1465  0.4163  0.0191
 6936TIP3    H142367   3.406   5.183   0.846  0.2973  2.6057  0.2303
 6936TIP3    H242368   3.312   5.213   0.961 -0.4454 -1.0567  0.7219
 6937TIP3   OH242369   6.479   1.224   7.260  0.0313  0.3904  0.4528
 6937TIP3    H142370   6.505   1.281   7.188 -0.0713  0.4388  0.4540
 6937TIP3    H242371   6.429   1.153   7.218  0.5752  0.0352  0.3921
 6938TIP3   OH242372   0.171   1.529   7.433  0.4505  0.2541  0.5268
 6938TIP3    H142373   0.135   1.530   7.345 -0.3145  2.1853  0.8146
 6938TIP3    H242374   0.144   1.444   7.469 -1.3057  0.4278 -0.2793
 6939TIP3   OH242375   3.661   4.604   6.891 -0.2573 -0.5383  0.5499
 6939TIP3    H142376   3.749   4.580   6.861 -0.3170 -0.5095  0.3511
 6939TIP3    H242377   3.604   4.540   6.849 -0.3123 -0.6849  0.8409
 6940TIP3   OH242378   1.323   0.927   2.347 -0.6492  0.0511  0.9260
 6940TIP3    H142379   1.283   0.999   2.397 -1.2042 -0.6291  1.4693
 6940TIP3    H242380   1.282   0.933   2.261 -0.8896  0.2273  1.0511
 6941TIP3   OH242381   5.738   0.080   1.491  0.4108 -0.0349 -0.5266
 6941TIP3    H142382   5.789   0.012   1.445 -1.6810 -0.7286 -1.9718
 6941TIP3    H242383   5.790   0.160   1.479  1.9612 -0.9836 -0.4966
 6942TIP3   OH242384   3.835   5.798   0.896  0.4980  0.7505 -0.4313
 6942TIP3    H142385   3.804   5.710   0.879  0.0442  0.7483  0.3813
 6942TIP3    H242386   3.907   5.810   0.834  1.1274 -0.5032  0.0218
 6943TIP3   OH242387   0.071   1.211   7.455 -0.4816  0.1590  0.1537
 6943TIP3    H142388   0.032   1.146   7.513 -0.3939 -0.3719 -0.3754
 6943TIP3    H242389   0.073   1.169   7.369  1.7477 -0.0512  0.2569
 6944TIP3   OH242390   2.478   4.516   8.711  0.0737 -0.1404 -0.1668
 6944TIP3    H142391   2.513   4.584   8.653  0.8348  0.2184  0.6952
 6944TIP3    H242392   2.529   4.438   8.690 -0.3791 -0.3007 -0.7159
 6945TIP3   OH242393   4.491   0.654   1.277  0.9143  0.4103 -0.1498
 6945TIP3    H142394   4.495   0.575   1.330  1.4558 -0.0592 -0.8770
 6945TIP3    H242395   4.403   0.655   1.240  0.7674  0.3771  0.1988
 6946TIP3   OH242396   4.367   4.358   1.023  0.7168  0.1809 -0.1584
 6946TIP3    H142397   4.394   4.330   1.110  2.2519  0.5320 -0.4856
 6946TIP3    H242398   4.303   4.292   0.995  1.2442 -0.7092  0.6776
 6947TIP3   OH242399   4.258   6.183   7.190  0.0085  0.2461  0.4176
 6947TIP3    H142400   4.244   6.103   7.139 -0.0789 -0.0630  0.9073
 6947TIP3    H242401   4.335   6.163   7.244  0.6649  0.9108 -0.2598
 6948TIP3   OH242402   5.246   0.732   8.395 -0.4492  0.4299  0.6004
 6948TIP3    H142403   5.341   0.741   8.394 -0.4836  1.8023  3.1959
 6948TIP3    H242404   5.228   0.670   8.466 -1.5488  1.4406  1.2359
 6949TIP3   OH242405   4.131   0.393   0.892 -0.2791  0.3781  0.4903
 6949TIP3    H142406   4.089   0.320   0.847 -0.4871  0.8144 -0.0346
 6949TIP3    H242407   4.081   0.404   0.973  0.8915 -1.2405  1.4813
 6950TIP3   OH242408   5.606   3.046   0.429  0.3314  0.1290 -0.3238
 6950TIP3    H142409   5.687   3.005   0.457 -0.1782 -0.9717 -0.3853
 6950TIP3    H242410   5.537   2.992   0.467 -0.3904  1.2805  0.0774
 6951TIP3   OH242411   4.700   4.905   1.544  0.0667  0.8071 -0.3866
 6951TIP3    H142412   4.689   4.829   1.486 -2.5492  0.6398  0.2056
 6951TIP3    H242413   4.792   4.931   1.533  1.0446 -2.3447 -0.7113
 6952TIP3   OH242414   3.477   1.205   8.688  0.2640 -0.4675 -0.3223
 6952TIP3    H142415   3.513   1.293   8.687  0.0086 -0.3651 -1.0961
 6952TIP3    H242416   3.524   1.160   8.759  1.2203 -0.0653 -0.6920
 6953TIP3   OH242417   4.732   2.300   7.153 -0.0598  0.3033 -0.9628
 6953TIP3    H142418   4.763   2.285   7.242 -0.3867 -1.1944 -1.0751
 6953TIP3    H242419   4.698   2.389   7.154  0.5455  0.5415  0.2241
 6954TIP3   OH242420   5.357   1.178   8.013 -0.1555  0.4769  0.0210
 6954TIP3    H142421   5.415   1.249   8.040  2.4526 -0.7876 -1.7530
 6954TIP3    H242422   5.364   1.113   8.083  0.2346  0.5503  0.0545
 6955TIP3   OH242423   0.565   6.681   0.405  0.3696  0.2392 -0.1952
 6955TIP3    H142424   0.598   6.596   0.377 -1.9824 -0.6506 -0.5288
 6955TIP3    H242425   0.563   6.733   0.325  0.2806  0.0491 -0.3183
 6956TIP3   OH242426   4.632   1.709   1.149  0.1234 -0.4964  0.7077
 6956TIP3    H142427   4.684   1.768   1.203  0.4909 -1.7658  1.7900
 6956TIP3    H242428   4.695   1.646   1.114 -0.2395 -0.1916 -0.5393
 6957TIP3   OH242429   5.620   4.139   1.009 -0.2237  0.2709 -0.5914
 6957TIP3    H142430   5.616   4.223   1.053 -0.7034  1.7113 -3.1839
 6957TIP3    H242431   5.529   4.121   0.984  0.2413  0.6237 -2.7904
 6958TIP3   OH242432   2.794   6.200   8.492  0.0944 -0.4500  0.3280
 6958TIP3    H142433   2.739   6.253   8.436 -0.0171 -1.6333 -0.7206
 6958TIP3    H242434   2.862   6.165   8.434  0.1447 -1.4665  0.9736
 6959TIP3   OH242435   6.393   6.051   6.948  0.4856 -0.3779  0.2335
 6959TIP3    H142436   6.409   5.961   6.920  1.9995 -0.1604  0.3249
 6959TIP3    H242437   6.474   6.097   6.929 -1.4267  1.9400 -3.4976
 6960TIP3   OH242438   1.230   1.347   7.490  0.1913  0.1462 -0.3261
 6960TIP3    H142439   1.158   1.381   7.544  0.7930  1.8921 -0.5615
 6960TIP3    H242440   1.240   1.257   7.518 -0.7253  0.4734  1.1841
 6961TIP3   OH242441   2.067   0.126   8.473  0.2144 -0.1342 -0.2895
 6961TIP3    H142442   2.010   0.090   8.541  0.0885  1.6455  0.6118
 6961TIP3    H242443   2.156   0.103   8.502  0.0647 -1.6545 -0.9419
 6962TIP3   OH242444   0.359   6.808   7.528 -0.1485  0.3272 -0.2118
 6962TIP3    H142445   0.361   6.902   7.512 -0.5871  0.0436 -2.1453
 6962TIP3    H242446   0.296   6.798   7.600  1.0137  1.6036  1.0496
 6963TIP3   OH242447   3.183   2.337   8.115  0.1215  0.5528  0.2821
 6963TIP3    H142448   3.104   2.296   8.151 -0.1328  1.3417  0.6420
 6963TIP3    H242449   3.222   2.269   8.060 -0.7235  0.1000  0.2233
 6964TIP3   OH242450   6.169   4.565   1.359 -0.0005 -0.1715  0.4152
 6964TIP3    H142451   6.223   4.499   1.315  0.0834 -1.3037  2.1152
 6964TIP3    H242452   6.116   4.603   1.289  0.5288 -1.4865 -0.7561
 6965TIP3   OH242453   4.154   3.931   7.025 -0.2069 -0.1314  0.7774
 6965TIP3    H142454   4.069   3.947   7.065 -0.9032 -1.4133 -0.0995
 6965TIP3    H242455   4.135   3.916   6.932  0.8879 -1.0115  0.6665
 6966TIP3   OH242456   1.529   4.514   7.352  0.2345  0.0727 -0.5802
 6966TIP3    H142457   1.569   4.514   7.265 -0.6200 -0.0864 -0.9801
 6966TIP3    H242458   1.594   4.472   7.408  0.4339 -0.6218 -1.3125
 6967TIP3   OH242459   1.660   1.363   6.246 -0.2605  0.6104  0.1459
 6967TIP3    H142460   1.578   1.388   6.203 -0.2442  2.0033  0.8749
 6967TIP3    H242461   1.721   1.347   6.174 -1.2065 -0.6406 -0.4166
 6968TIP3   OH242462   6.562   3.516   0.373  0.0664  0.0041 -0.5016
 6968TIP3    H142463   6.581   3.529   0.280  0.6519  1.4061 -0.2145
 6968TIP3    H242464   6.491   3.452   0.375 -0.6971  0.7743 -1.9651
 6969TIP3   OH242465   2.292   6.636   1.109 -0.4028  0.4669 -0.5099
 6969TIP3    H142466   2.207   6.653   1.068 -0.6985  0.6847  0.1689
 6969TIP3    H242467   2.273   6.636   1.203 -0.3992 -3.1894 -0.3734
 6970TIP3   OH242468   3.307   3.412   1.568 -0.1639 -0.1305  0.3441
 6970TIP3    H142469   3.380   3.462   1.532  0.1142  0.0290  1.0944
 6970TIP3    H242470   3.313   3.427   1.663  0.7876 -2.6798  0.7678
 6971TIP3   OH242471   5.262   6.537   7.942 -0.2011  0.0770 -0.3421
 6971TIP3    H142472   5.227   6.465   7.889 -2.9806  1.5690 -0.7088
 6971TIP3    H242473   5.241   6.512   8.032  1.9882 -1.1211 -0.0918
 6972TIP3   OH242474   3.701   6.752   8.446 -0.2174 -0.0997 -0.4755
 6972TIP3    H142475   3.613   6.741   8.482 -0.4299  1.1182 -0.5954
 6972TIP3    H242476   3.730   6.663   8.428 -2.0286 -0.4733 -1.8824
 6973TIP3   OH242477   1.191   6.190   0.137  0.5369 -0.1782  0.2137
 6973TIP3    H142478   1.284   6.205   0.151  0.5523 -1.0273  1.1600
 6973TIP3    H242479   1.151   6.276   0.144  1.3964  0.4349 -1.6939
 6974TIP3   OH242480   2.040   6.052   6.503  0.0279  0.0585 -0.2810
 6974TIP3    H142481   2.103   6.117   6.472  0.5704 -0.9626 -1.3949
 6974TIP3    H242482   1.955   6.096   6.497  0.5060  1.0731  0.1651
 6975TIP3   OH242483   4.105   1.509   8.583 -0.0308  0.3284  0.1944
 6975TIP3    H142484   4.067   1.597   8.584 -0.6537  0.0727 -0.1202
 6975TIP3    H242485   4.112   1.488   8.490  1.5626  0.6406  0.2084
 6976TIP3   OH242486   6.312   6.010   8.521  0.2978  0.0604 -0.2869
 6976TIP3    H142487   6.398   6.053   8.525  0.1231  0.3256  0.9800
 6976TIP3    H242488   6.333   5.917   8.518  0.7130  0.1015 -3.9898
 6977TIP3   OH242489   6.359   3.707   1.825  0.3584  0.2088 -0.6334
 6977TIP3    H142490   6.294   3.770   1.795  0.8151  0.5004 -1.0245
 6977TIP3    H242491   6.353   3.709   1.920 -0.8759 -0.4778 -0.6798
 6978TIP3   OH242492   1.427   6.351   8.689  0.4829 -0.6163  0.2757
 6978TIP3    H142493   1.514   6.387   8.708 -0.2362  0.5828  1.4279
 6978TIP3    H242494   1.367   6.425   8.699 -0.7269 -1.5195 -0.0709
 6979TIP3   OH242495   6.020   0.626   1.183 -0.1429 -0.0663  0.1143
 6979TIP3    H142496   5.981   0.629   1.096  0.3474 -0.0075 -0.1055
 6979TIP3    H242497   5.979   0.550   1.224  1.1588 -1.3839 -0.9234
 6980TIP3   OH242498   5.235   0.851   0.092 -0.0631 -0.1566  0.1274
 6980TIP3    H142499   5.210   0.884   0.178  0.8373 -1.3602  0.8806
 6980TIP3    H242500   5.158   0.803   0.061 -0.2897  0.0420  0.3789
 6981TIP3   OH242501   1.335   6.204   8.237  0.7143 -0.2663 -0.1011
 6981TIP3    H142502   1.378   6.272   8.289  0.7806 -2.0912  2.4264
 6981TIP3    H242503   1.403   6.138   8.222 -0.1083 -1.2707  0.3755
 6982TIP3   OH242504   0.056   4.952   0.135  0.2391 -0.2097  0.5182
 6982TIP3    H142505  -0.006   4.945   0.062 -1.0935 -0.0621  1.6155
 6982TIP3    H242506   0.044   5.041   0.168  2.4099  0.5203 -0.4024
 6983TIP3   OH242507   5.826   6.389   6.973 -0.6097  0.1745  0.0130
 6983TIP3    H142508   5.884   6.366   7.045 -0.4400  2.0036  0.5100
 6983TIP3    H242509   5.884   6.422   6.905 -0.9661  0.9019  0.0528
 6984TIP3   OH242510   1.291   0.252   8.539  0.2194  0.1801  0.7654
 6984TIP3    H142511   1.341   0.257   8.621  0.1292  0.8264  0.7885
 6984TIP3    H242512   1.284   0.343   8.510  0.7662 -0.1017 -0.2815
 6985TIP3   OH242513   0.352   4.131   6.858 -0.7934  0.1727 -0.1362
 6985TIP3    H142514   0.410   4.205   6.875 -1.2114  0.6934 -0.9618
 6985TIP3    H242515   0.309   4.151   6.776 -1.2847 -0.7611 -0.1282
 6986TIP3   OH242516   1.645   0.910   0.173  0.3539  0.2226 -0.4862
 6986TIP3    H142517   1.737   0.911   0.199 -0.5149  0.0213  3.1758
 6986TIP3    H242518   1.616   0.820   0.190 -0.4188  0.1101 -2.1953
 6987TIP3   OH242519   2.973   1.801   0.090 -0.0874 -0.0049 -0.1562
 6987TIP3    H142520   3.054   1.752   0.094  0.0119 -0.0017 -1.4344
 6987TIP3    H242521   2.946   1.795  -0.002 -1.4018  0.2008  0.1871
 6988TIP3   OH242522   5.640   1.586   6.898 -0.5090  0.2054 -0.3970
 6988TIP3    H142523   5.634   1.602   6.804  2.0594  0.6445 -0.5571
 6988TIP3    H242524   5.685   1.663   6.933  2.1770 -1.6303  0.5127
 6989TIP3   OH242525   5.313   0.027   0.426  0.3436  0.5866  0.3917
 6989TIP3    H142526   5.362   0.048   0.506  1.6102 -0.3359 -0.1038
 6989TIP3    H242527   5.287   0.112   0.391 -0.5779  1.0089  1.9574
 6990TIP3   OH242528   3.858   5.683   7.285  0.1614  0.5603  0.4832
 6990TIP3    H142529   3.856   5.774   7.314 -0.3471  0.3004  1.2987
 6990TIP3    H242530   3.927   5.643   7.337 -0.1377  0.3010  0.6851
 6991TIP3   OH242531   1.006   1.071   7.393  0.3351 -0.2124  0.3516
 6991TIP3    H142532   0.941   1.098   7.458  0.2373 -0.4037  0.3365
 6991TIP3    H242533   0.961   1.081   7.309  1.9870  4.8762 -0.2601
 6992TIP3   OH242534   3.147   3.747   2.237  0.3735  0.4196 -0.0132
 6992TIP3    H142535   3.133   3.798   2.316  0.9661 -0.6346  0.7943
 6992TIP3    H242536   3.232   3.777   2.203 -0.5838  1.9825 -1.1520
 6993TIP3   OH242537   1.342   5.350   6.362 -0.4092 -0.1306 -0.5166
 6993TIP3    H142538   1.353   5.347   6.267  0.4531 -1.0174 -0.4112
 6993TIP3    H242539   1.372   5.438   6.386  0.9072 -0.4338 -0.9186
 6994TIP3   OH242540   2.436   1.605   0.118  0.4224 -0.2773 -0.0803
 6994TIP3    H142541   2.527   1.624   0.138  0.1959 -1.1122  1.9652
 6994TIP3    H242542   2.421   1.646   0.032  2.7936 -0.4777 -0.6442
 6995TIP3   OH242543   1.493   1.398   1.362 -0.1209  0.3504  0.2757
 6995TIP3    H142544   1.432   1.328   1.387 -0.2805  0.3416 -0.1276
 6995TIP3    H242545   1.478   1.467   1.427  0.5686 -0.2838  1.1174
 6996TIP3   OH242546   5.130   2.109   7.702  0.1536  0.2192  0.3762
 6996TIP3    H142547   5.158   2.174   7.766 -0.1039 -0.0370  0.7525
 6996TIP3    H242548   5.175   2.134   7.621  0.2807  0.6927  0.5913
 6997TIP3   OH242549   4.012   4.203   6.915  0.0753  0.2245  0.3596
 6997TIP3    H142550   4.077   4.268   6.889  0.3836 -0.6152 -1.1047
 6997TIP3    H242551   4.048   4.120   6.884 -1.0982 -0.4213  0.6791
 6998TIP3   OH242552   6.840   5.971   8.557 -0.0912  0.2364  0.6347
 6998TIP3    H142553   6.810   6.005   8.642  1.0087  1.5712  0.5184
 6998TIP3    H242554   6.853   5.877   8.573  3.0733  0.8842  2.9195
 6999TIP3   OH242555   5.908   0.256   7.538  0.4704 -0.4225 -0.0907
 6999TIP3    H142556   5.883   0.182   7.593 -0.3188 -0.2127 -0.1624
 6999TIP3    H242557   5.922   0.218   7.452 -0.3244 -0.4357 -0.2207
 7000TIP3   OH242558   1.972   5.309   6.654 -0.8238  0.4088 -0.2254
 7000TIP3    H142559   2.037   5.378   6.641  1.0655 -0.9088  1.5881
 7000TIP3    H242560   1.975   5.259   6.573  1.7701 -0.5950  0.3677
 7001TIP3   OH242561   0.948   5.195   1.372 -0.4292 -0.8055 -0.3498
 7001TIP3    H142562   0.945   5.164   1.282  0.0679 -0.5709 -0.4534
 7001TIP3    H242563   0.857   5.197   1.400 -0.4847 -2.3422 -0.3283
 7002TIP3   OH242564   0.971   5.301   2.007  0.1501 -0.4005  0.0270
 7002TIP3    H142565   0.997   5.344   1.925 -0.2647 -0.1932  0.0015
 7002TIP3    H242566   0.876   5.311   2.011 -0.4224 -3.7251 -1.3846
 7003TIP3   OH242567   3.937   5.769   8.625  0.0428 -0.3685 -0.2785
 7003TIP3    H142568   3.879   5.693   8.631  0.2183 -0.4561  0.3796
 7003TIP3    H242569   3.946   5.784   8.531 -0.6810 -0.6310 -0.4008
 7004TIP3   OH242570   3.374   0.965   1.496  0.4726  0.1767  0.0277
 7004TIP3    H142571   3.309   0.991   1.562  0.1449 -1.4857  0.4042
 7004TIP3    H242572   3.367   0.869   1.492  1.6622  0.1148 -1.2260
 7005TIP3   OH242573   1.144   4.908   8.303 -0.1111 -0.3579  0.2728
 7005TIP3    H142574   1.147   4.956   8.385  0.5413  0.4441 -0.2081
 7005TIP3    H242575   1.191   4.826   8.321  0.1935 -0.1010  0.6434
 7006TIP3   OH242576   2.973   4.177   0.699 -0.6806 -0.1093  0.0489
 7006TIP3    H142577   2.961   4.091   0.739  3.1027 -0.9542 -0.2385
 7006TIP3    H242578   2.961   4.162   0.605  2.3130 -1.0280 -0.2844
 7007TIP3   OH242579   0.909   2.186   1.066  0.3428 -0.3081 -0.1360
 7007TIP3    H142580   0.984   2.212   1.012  1.2146 -1.6505  0.3854
 7007TIP3    H242581   0.850   2.262   1.063  0.6363 -0.0933 -2.4417
 7008TIP3   OH242582   2.666   0.081   1.780  0.0662 -0.5035  0.1221
 7008TIP3    H142583   2.683   0.165   1.822  1.6739  0.0968 -1.6034
 7008TIP3    H242584   2.576   0.087   1.750 -0.2881  0.0240  1.2307
 7009TIP3   OH242585   3.536   3.353   2.327  0.3624 -0.5821  0.0219
 7009TIP3    H142586   3.503   3.277   2.375 -1.6704  0.2077 -0.0192
 7009TIP3    H242587   3.631   3.350   2.339  0.1011 -1.5646  2.3758
 7010TIP3   OH242588   5.059   5.057   0.567  0.5565  0.2220 -0.4508
 7010TIP3    H142589   5.051   5.121   0.497  0.6295 -2.1830 -2.8264
 7010TIP3    H242590   4.968   5.031   0.586  0.5825  0.3402 -0.1525
 7011TIP3   OH242591   3.149   3.766   1.360 -0.6965  0.0355 -0.6029
 7011TIP3    H142592   3.169   3.679   1.326  0.3702  0.6855 -1.7472
 7011TIP3    H242593   3.147   3.755   1.455  1.5958 -0.8569 -0.5800
 7012TIP3   OH242594   5.394   0.520   6.344  0.4866 -0.0243  0.1419
 7012TIP3    H142595   5.428   0.474   6.421 -0.4297  0.6082  0.9471
 7012TIP3    H242596   5.403   0.457   6.272  1.1757 -0.6951  0.7985
 7013TIP3   OH242597   1.704   1.404   1.028  0.0187 -0.4161  0.0195
 7013TIP3    H142598   1.658   1.347   0.966  0.9776  0.2919 -1.4109
 7013TIP3    H242599   1.637   1.466   1.057 -0.0245  0.5091 -1.9164
 7014TIP3   OH242600   1.388   0.931   1.815 -0.1364  0.0044  0.3578
 7014TIP3    H142601   1.312   0.984   1.788  0.3025  0.4736  0.0260
 7014TIP3    H242602   1.371   0.845   1.777  0.1467  0.4721 -0.8838
 7015TIP3   OH242603   3.978   3.596   8.506 -0.2342  0.0858 -0.5424
 7015TIP3    H142604   3.982   3.643   8.589  0.4916 -0.4438 -0.2694
 7015TIP3    H242605   4.070   3.580   8.483 -0.4566 -1.1454 -0.6510
 7016TIP3   OH242606   3.916   0.933   0.977 -0.3737  0.3169 -0.0585
 7016TIP3    H142607   3.912   0.965   1.068  0.5700  1.9653 -0.5560
 7016TIP3    H242608   4.010   0.929   0.957 -0.5785  0.9288 -1.2560
 7017TIP3   OH242609   3.936   3.521   0.804  0.0420 -0.0498 -0.1212
 7017TIP3    H142610   3.843   3.539   0.820 -0.2764  0.5549 -2.3149
 7017TIP3    H242611   3.937   3.434   0.764  0.5725 -0.6107  1.0821
 7018TIP3   OH242612   2.219   1.603   6.440  0.0941  0.3816  0.0648
 7018TIP3    H142613   2.165   1.526   6.422 -0.6888  0.5257  1.6214
 7018TIP3    H242614   2.308   1.574   6.421 -0.4813  0.2607 -2.9378
 7019TIP3   OH242615   2.508   0.743   0.110 -0.1613  0.0437  0.0656
 7019TIP3    H142616   2.527   0.713   0.199  2.8302  1.6334  0.0542
 7019TIP3    H242617   2.562   0.687   0.054 -0.5846  0.3112 -0.6211
 7020TIP3   OH242618   2.891   6.508   0.198  0.0282 -0.1428  0.4334
 7020TIP3    H142619   2.802   6.537   0.220  0.0637  0.6627 -0.3838
 7020TIP3    H242620   2.880   6.454   0.120  0.2651  0.1543  0.1885
 7021TIP3   OH242621   5.767   3.988   6.860  0.2765  0.1948 -0.0275
 7021TIP3    H142622   5.849   4.005   6.816  0.9693 -1.7530  0.3876
 7021TIP3    H242623   5.750   3.895   6.844 -0.0682 -0.3131  2.6645
 7022TIP3   OH242624   1.951   1.907   6.955 -0.1053 -0.3352  0.6274
 7022TIP3    H142625   2.021   1.843   6.967 -0.1841 -0.9685 -1.8681
 7022TIP3    H242626   1.928   1.902   6.862 -2.3114  1.0731  1.0061
 7023TIP3   OH242627   1.405   5.205   7.339 -0.1141  0.4408  0.1057
 7023TIP3    H142628   1.372   5.150   7.267 -0.4437 -1.5964  1.7169
 7023TIP3    H242629   1.494   5.229   7.311  0.6966 -2.3149 -0.0301
 7024TIP3   OH242630   5.189   0.768   1.729  0.2340  0.0502  0.2897
 7024TIP3    H142631   5.128   0.828   1.772 -2.1976 -1.8803 -0.2511
 7024TIP3    H242632   5.262   0.824   1.702 -1.1129  2.4448  1.2658
 7025TIP3   OH242633   3.376   2.484   1.326  0.1705 -0.2435 -0.3270
 7025TIP3    H142634   3.326   2.402   1.320 -1.2745  0.6851 -1.7775
 7025TIP3    H242635   3.309   2.553   1.323  1.4663  1.0261 -1.2773
 7026TIP3   OH242636   6.063   3.349   0.013  0.7532 -0.3466 -0.3069
 7026TIP3    H142637   5.982   3.305   0.038  0.6469 -0.6531 -1.1503
 7026TIP3    H242638   6.049   3.375  -0.078  0.5387  2.0551  0.3409
 7027TIP3   OH242639   6.737   1.397   1.264 -0.1597 -0.1052 -0.0909
 7027TIP3    H142640   6.674   1.459   1.302 -0.6554 -1.0546  0.6673
 7027TIP3    H242641   6.688   1.355   1.193  0.3588  0.7467 -0.9840
 7028TIP3   OH242642   2.259   6.711   8.178 -0.4358 -0.2433 -0.0522
 7028TIP3    H142643   2.353   6.722   8.197 -1.0490  0.9960  2.8220
 7028TIP3    H242644   2.253   6.715   8.083  2.3043  0.8611 -0.2672
 7029TIP3   OH242645   0.771   1.069   8.307  1.1165  0.8120  0.1068
 7029TIP3    H142646   0.730   0.984   8.288 -1.4477  1.8311  0.6278
 7029TIP3    H242647   0.821   1.090   8.229 -0.2586 -0.0645 -1.0462
 7030TIP3   OH242648   4.108   4.188   1.850 -0.0690 -0.0790  0.6791
 7030TIP3    H142649   4.033   4.206   1.906 -0.7934 -1.4644  0.1968
 7030TIP3    H242650   4.184   4.216   1.902 -0.9268  1.9081  0.9209
 7031TIP3   OH242651   2.179   5.321   0.166 -0.4083  0.2251 -0.5558
 7031TIP3    H142652   2.245   5.262   0.203 -1.7241 -0.3457  1.0047
 7031TIP3    H242653   2.210   5.409   0.189 -1.0486 -0.0917  1.8794
 7032TIP3   OH242654   2.327   1.424   8.562 -0.0955  0.1377  0.0163
 7032TIP3    H142655   2.328   1.365   8.486 -2.2026 -0.9199  0.7296
 7032TIP3    H242656   2.409   1.406   8.607 -0.0240 -1.1900 -0.5820
 7033TIP3   OH242657   3.453   4.941   1.709  0.1437  0.0682 -0.1213
 7033TIP3    H142658   3.473   5.031   1.734 -0.0899  0.4760 -1.3304
 7033TIP3    H242659   3.539   4.900   1.696  0.2521  0.0377  0.6759
 7034TIP3   OH242660   4.049   0.357   6.252 -0.1188  0.6940 -0.4441
 7034TIP3    H142661   4.061   0.377   6.345 -1.5326  1.3395 -0.3745
 7034TIP3    H242662   4.063   0.263   6.245 -0.7157  0.5190  0.5572
 7035TIP3   OH242663   3.549   4.396   1.079 -0.0649  0.0911  0.2122
 7035TIP3    H142664   3.586   4.408   1.167  0.0895  2.8069 -0.1461
 7035TIP3    H242665   3.478   4.459   1.074 -0.9352 -0.9554 -1.1901
 7036TIP3   OH242666   6.716   6.174   1.465  0.2874 -0.0208 -0.1902
 7036TIP3    H142667   6.702   6.238   1.395 -1.1600 -1.2300 -1.0435
 7036TIP3    H242668   6.811   6.168   1.473  0.4650  1.2803 -0.9632
 7037TIP3   OH242669   3.992   0.812   8.656 -0.2619 -0.0126 -0.4852
 7037TIP3    H142670   4.077   0.781   8.626  0.9566 -0.9181  3.3316
 7037TIP3    H242671   3.936   0.735   8.654 -0.2803  0.0078 -0.7389
 7038TIP3   OH242672   4.315   4.653   1.011 -0.0179  0.3005 -0.8962
 7038TIP3    H142673   4.365   4.576   1.040 -0.1604  0.9835  1.3576
 7038TIP3    H242674   4.230   4.617   0.984 -0.3875 -0.2846  0.9365
 7039TIP3   OH242675   5.145   3.537   8.059  0.3851 -0.7043 -0.3521
 7039TIP3    H142676   5.178   3.527   7.970 -2.1740 -0.6658 -1.3940
 7039TIP3    H242677   5.117   3.629   8.064 -1.7604 -1.3045 -0.4228
 7040TIP3   OH242678   3.944   4.465   7.297  0.3084  0.8255 -0.1132
 7040TIP3    H142679   3.985   4.537   7.249  0.0336  1.0254 -0.0516
 7040TIP3    H242680   3.856   4.458   7.259  0.6807 -0.1756 -0.8549
 7041TIP3   OH242681   4.257   5.173   1.096  0.1037  0.1469 -0.2602
 7041TIP3    H142682   4.268   5.264   1.122 -0.9802 -0.1116  1.2458
 7041TIP3    H242683   4.195   5.176   1.023  0.5268  0.6479 -0.6047
 7042TIP3   OH242684   6.006   1.321   8.303 -0.1951  0.5576  0.0436
 7042TIP3    H142685   6.077   1.376   8.272 -0.3683  0.6005 -0.2846
 7042TIP3    H242686   5.962   1.291   8.223 -1.4304  1.7103  0.2545
 7043TIP3   OH242687   4.577   3.446   2.325  0.3644 -0.3932 -0.3027
 7043TIP3    H142688   4.661   3.426   2.366  0.5118  1.3653  0.3429
 7043TIP3    H242689   4.529   3.495   2.392 -0.3914  0.3277 -1.3495
 7044TIP3   OH242690   1.865   0.761   0.021 -0.0452  0.0229  0.3472
 7044TIP3    H142691   1.930   0.746  -0.048 -1.3349 -0.4515 -0.8084
 7044TIP3    H242692   1.881   0.851   0.049  2.2483 -0.6226  1.3750
 7045TIP3   OH242693   6.501   5.280   0.917 -0.4542  0.3702  0.2720
 7045TIP3    H142694   6.593   5.307   0.917 -0.4460  0.3442  0.2375
 7045TIP3    H242695   6.465   5.317   0.997 -0.1120 -0.6597  0.9145
 7046TIP3   OH242696   0.759   2.849   7.487 -0.1853  0.1391  0.6157
 7046TIP3    H142697   0.708   2.812   7.416 -0.1776  1.5293 -0.1433
 7046TIP3    H242698   0.718   2.933   7.505  2.0449  1.5060 -0.3000
 7047TIP3   OH242699   4.633   6.339   7.154 -0.3925 -0.5006  0.3866
 7047TIP3    H142700   4.573   6.296   7.215 -0.8992 -0.9865 -0.4147
 7047TIP3    H242701   4.697   6.271   7.131 -0.2886 -0.3679  0.2794
 7048TIP3   OH242702   5.078   0.103   0.085  0.3575  0.2244  0.3232
 7048TIP3    H142703   4.998   0.155   0.082 -0.0471 -0.3964 -0.1561
 7048TIP3    H242704   5.098   0.085  -0.007  0.1417 -0.9506  0.4881
 7049TIP3   OH242705   1.917   2.661   6.767 -0.6967  0.8072  0.5815
 7049TIP3    H142706   2.001   2.662   6.720  0.3372 -0.1284  2.3276
 7049TIP3    H242707   1.941   2.662   6.859 -2.4307 -2.9796  1.2625
 7050TIP3   OH242708   4.051   3.988   6.762  0.0395  0.1916 -0.5067
 7050TIP3    H142709   4.033   3.904   6.720 -0.5360  0.9040 -1.7364
 7050TIP3    H242710   4.003   4.052   6.709 -0.3488  1.1867  0.9890
 7051TIP3   OH242711   1.983   3.616   1.532  0.3875  0.0904 -0.0212
 7051TIP3    H142712   2.047   3.545   1.537 -1.5618 -1.9092 -1.0996
 7051TIP3    H242713   1.975   3.648   1.621 -0.2470 -2.6324  1.0000
 7052TIP3   OH242714   2.968   0.837   8.013  0.4343 -0.0920  0.3662
 7052TIP3    H142715   3.063   0.841   8.008  0.5760  2.2050  2.6449
 7052TIP3    H242716   2.938   0.898   7.946  0.4658 -1.5054 -0.9876
 7053TIP3   OH242717   1.780   5.494   7.353  0.2050  0.7018  0.0798
 7053TIP3    H142718   1.784   5.535   7.267 -0.6695  1.7450  0.5062
 7053TIP3    H242719   1.721   5.420   7.342  1.0728  0.0790 -0.4901
 7054TIP3   OH242720   1.785   6.565   1.536 -0.0079 -0.1077 -0.2299
 7054TIP3    H142721   1.766   6.554   1.442 -1.7777  2.5603 -0.2944
 7054TIP3    H242722   1.750   6.486   1.577  0.6553 -1.2469 -1.7608
 7055TIP3   OH242723   4.410   3.770   1.810  0.1810 -0.2769  0.6435
 7055TIP3    H142724   4.372   3.824   1.880 -1.8599 -0.3571 -0.3255
 7055TIP3    H242725   4.348   3.697   1.801 -0.5006  0.5401 -2.2533
 7056TIP3   OH242726   1.890   5.722   6.435  0.0215  0.1978  0.0197
 7056TIP3    H142727   1.851   5.809   6.424 -2.2097 -0.7600 -0.1591
 7056TIP3    H242728   1.816   5.665   6.456  1.4822 -1.6054  0.5314
 7057TIP3   OH242729   2.471   3.613   7.011  0.7440  0.6930 -0.3694
 7057TIP3    H142730   2.480   3.709   7.015  1.9919  0.6009 -0.4850
 7057TIP3    H242731   2.561   3.581   7.015  0.4100 -0.4457 -1.4468
 7058TIP3   OH242732   1.680   2.789   6.799  0.1488  0.0534  0.1379
 7058TIP3    H142733   1.667   2.740   6.880  1.3678  0.8379  0.8307
 7058TIP3    H242734   1.769   2.767   6.772  0.0981  0.5622 -0.4723
 7059TIP3   OH242735   4.199   5.751   6.722  0.2211 -0.1151  0.4886
 7059TIP3    H142736   4.207   5.831   6.671 -0.1357  0.2045  0.9252
 7059TIP3    H242737   4.136   5.697   6.674  1.0942 -0.5049 -0.2594
 7060TIP3   OH242738   0.441   6.014   7.603  0.2084 -0.3061  0.0820
 7060TIP3    H142739   0.470   6.061   7.524  1.4892 -2.7726 -1.0499
 7060TIP3    H242740   0.362   6.060   7.631 -0.0139  0.9690 -2.3652
 7061TIP3   OH242741   4.408   6.633   0.648 -0.0905  0.2131  0.5387
 7061TIP3    H142742   4.475   6.587   0.699 -0.0071 -1.4441 -0.9749
 7061TIP3    H242743   4.452   6.710   0.614  0.6402 -0.1040  0.7523
 7062TIP3   OH242744   5.573   0.937   6.148  0.4651  0.0954 -0.7229
 7062TIP3    H142745   5.521   0.879   6.092 -0.6841 -0.3724  0.7658
 7062TIP3    H242746   5.547   1.025   6.123  0.3619 -0.0923 -1.2868
 7063TIP3   OH242747   1.054   5.590   6.915  0.0590 -0.0922  0.2005
 7063TIP3    H142748   1.034   5.676   6.951  2.0267  0.6776 -0.3801
 7063TIP3    H242749   0.969   5.547   6.905 -0.8572  1.2448  1.7850
 7064TIP3   OH242750   1.313   4.259   0.841 -0.3914  0.1373 -0.4104
 7064TIP3    H142751   1.275   4.338   0.879  0.0484  0.2920 -0.2925
 7064TIP3    H242752   1.327   4.281   0.749 -0.6734  0.0489 -0.4745
 7065TIP3   OH242753   1.799   2.129   6.559 -0.4245  0.2107  0.0815
 7065TIP3    H142754   1.770   2.096   6.474 -0.4563  0.8295 -0.1580
 7065TIP3    H242755   1.774   2.222   6.558  0.3921  0.4423  0.3923
 7066TIP3   OH242756   4.516   2.317   1.429  0.7035  0.4406  0.6352
 7066TIP3    H142757   4.522   2.399   1.479  0.6827 -0.6051  2.4110
 7066TIP3    H242758   4.438   2.274   1.463 -0.0619  0.2576 -1.2360
 7067TIP3   OH242759   2.599   2.156   0.225  0.0934  0.0873  0.1644
 7067TIP3    H142760   2.571   2.118   0.308  0.5733 -1.5139 -0.3731
 7067TIP3    H242761   2.675   2.209   0.247  0.1068 -0.1810  0.7785
 7068TIP3   OH242762   1.426   5.479   2.041 -0.3341 -0.3012 -0.7396
 7068TIP3    H142763   1.459   5.438   2.121 -1.4232  2.2219  1.1458
 7068TIP3    H242764   1.497   5.537   2.014 -0.2865 -0.5444 -1.1394
 7069TIP3   OH242765   5.779   0.499   0.312 -0.1576 -0.4724  0.1853
 7069TIP3    H142766   5.815   0.585   0.334  0.1390 -0.5543  0.0274
 7069TIP3    H242767   5.752   0.507   0.220 -0.4941 -0.4284  0.2867
 7070TIP3   OH242768   1.786   0.372   7.349 -0.3665 -0.3162 -0.2964
 7070TIP3    H142769   1.862   0.406   7.301 -1.1568  2.0536  0.0213
 7070TIP3    H242770   1.720   0.440   7.341 -2.0871 -1.8160  0.4403
 7071TIP3   OH242771   3.155   4.122   6.915 -0.4694  0.1247  0.2171
 7071TIP3    H142772   3.112   4.172   6.845 -1.0488 -1.1268 -0.3774
 7071TIP3    H242773   3.192   4.046   6.869  0.2236 -0.0742  1.1013
 7072TIP3   OH242774   4.600   2.766   8.670 -0.1956  0.5940 -0.4857
 7072TIP3    H142775   4.655   2.805   8.737  0.8813 -0.3454 -0.7933
 7072TIP3    H242776   4.659   2.751   8.596 -1.2083  0.9901 -1.4043
 7073LIG     C142777   3.328   3.593   8.111 -0.4519  0.3812  0.1748
 7073LIG     C242778   3.433   3.687   8.172  0.3868  0.0333 -0.5042
 7073LIG     C342779   3.487   3.648   8.317  0.5180 -1.1057  0.2507
 7073LIG      O42780   3.375   3.814   8.183 -0.7920 -0.0304 -0.6440
 7073LIG     H142781   3.283   3.638   8.020 -0.3653  0.9302  0.3924
 7073LIG     H242782   3.240   3.574   8.176 -1.2884  0.4977 -0.9047
 7073LIG     H342783   3.375   3.500   8.074  1.5195  0.3616  2.4750
 7073LIG     H442784   3.523   3.698   8.108  0.3914  2.7876 -0.1102
 7073LIG     H542785   3.523   3.543   8.323  1.3676 -0.7445  3.5837
 7073LIG     H642786   3.406   3.666   8.391 -0.3465  0.0719 -0.9364
 7073LIG     H742787   3.576   3.704   8.353  0.6663 -2.4952  2.2467
 7073LIG     H842788   3.339   3.836   8.096 -1.3745 -2.1247 -0.9955
   6.85328   6.85328   8.72433
